  -10.0000000       0.00000000    
  -9.94999981       0.00000000    
  -9.89999962       0.00000000    
  -9.85000038       0.00000000    
  -9.80000019       0.00000000    
  -9.75000000       0.00000000    
  -9.69999981       0.00000000    
  -9.64999962       0.00000000    
  -9.60000038       0.00000000    
  -9.55000019       1.99398568E-26
  -9.50000000       2.65977150E-25
  -9.44999981       1.69194571E-24
  -9.39999962       6.48317880E-24
  -9.35000038       1.45754280E-23
  -9.30000019       6.98626262E-24
  -9.25000000      -8.72868723E-23
  -9.19999981      -3.95371128E-22
  -9.14999962      -9.21341676E-22
  -9.10000038      -9.60932143E-22
  -9.05000019       1.79508937E-21
  -9.00000000       1.11601698E-20
  -8.94999981       2.79162083E-20
  -8.89999962       3.61568433E-20
  -8.85000038      -1.98425152E-20
  -8.80000019      -2.52522731E-19
  -8.75000000      -7.97339296E-19
  -8.69999981      -1.65895135E-18
  -8.64999962      -2.38852993E-18
  -8.60000038      -1.66915628E-18
  -8.55000019       2.85276809E-18
  -8.50000000       1.38360739E-17
  -8.44999981       3.18541927E-17
  -8.39999962       5.11247316E-17
  -8.35000038       5.47023737E-17
  -8.30000019       1.29532100E-17
  -8.25000000      -1.08603878E-16
  -8.19999981      -3.26255095E-16
  -8.14999962      -5.99609647E-16
  -8.10000038      -7.89880511E-16
  -8.05000019      -6.43939010E-16
  -8.00000000       1.54214855E-16
  -7.94999981       1.82842480E-15
  -7.90000010       4.25318748E-15
  -7.84999990       6.66888648E-15
  -7.80000019       7.53435722E-15
  -7.75000000       4.74266580E-15
  -7.69999981      -3.60836501E-15
  -7.65000010      -1.78857461E-14
  -7.59999990      -3.53675490E-14
  -7.55000019      -4.92066850E-14
  -7.50000000      -4.89202930E-14
  -7.44999981      -2.32832959E-14
  -7.40000010       3.42241765E-14
  -7.34999990       1.18581861E-13
  -7.30000019       2.07717808E-13
  -7.25000000       2.62090344E-13
  -7.19999981       2.32828432E-13
  -7.15000010       7.95715693E-14
  -7.09999990      -2.05125806E-13
  -7.05000019      -5.73049637E-13
  -7.00000000      -9.11181395E-13
  -6.94999981      -1.05781302E-12
  -6.90000010      -8.49401278E-13
  -6.84999990      -1.91712314E-13
  -6.80000019       8.65754734E-13
  -6.75000000       2.08439494E-12
  -6.69999981       3.05361942E-12
  -6.65000010       3.28978641E-12
  -6.59999990       2.40710793E-12
  -6.55000019       3.14105756E-13
  -6.50000000      -2.64064378E-12
  -6.44999981      -5.65598306E-12
  -6.40000010      -7.65203439E-12
  -6.34999990      -7.61896015E-12
  -6.30000019      -5.04611197E-12
  -6.25000000      -2.68028845E-13
  -6.19999981       5.45362063E-12
  -6.15000010       1.02322881E-11
  -6.09999990       1.22241262E-11
  -6.05000019       1.04629144E-11
  -6.00000000       5.51600432E-12
  -5.94999981      -4.20791440E-13
  -5.90000010      -4.23456496E-12
  -5.84999990      -3.34926141E-12
  -5.80000019       2.53989256E-12
  -5.75000000       1.02453861E-11
  -5.69999981       1.32529005E-11
  -5.65000010       3.83195168E-12
  -5.59999990      -2.30698117E-11
  -5.55000019      -6.52694218E-11
  -5.50000000      -1.10095870E-10
  -5.44999981      -1.34708009E-10
  -5.40000010      -1.11629934E-10
  -5.34999990      -1.94970394E-11
  -5.30000019       1.43383125E-10
  -5.25000000       3.47432166E-10
  -5.19999981       5.28283806E-10
  -5.15000010       5.96732164E-10
  -5.09999990       4.64179695E-10
  -5.05000019       7.99461261E-11
  -5.00000000      -5.29754296E-10
  -4.94999981      -1.23647881E-09
  -4.90000010      -1.81412541E-09
  -4.84999990      -1.98440264E-09
  -4.80000019      -1.50234947E-09
  -4.75000000      -2.64769984E-10
  -4.69999981       1.59147684E-09
  -4.65000010       3.64351083E-09
  -4.59999990       5.22702548E-09
  -4.55000019       5.58931967E-09
  -4.50000000       4.13368939E-09
  -4.44999981       6.96841473E-10
  -4.40000010      -4.23286561E-09
  -4.34999990      -9.45915257E-09
  -4.30000019      -1.32614977E-08
  -4.25000000      -1.38336036E-08
  -4.19999981      -9.90127180E-09
  -4.15000010      -1.35225620E-09
  -4.09999990       1.03486730E-08
  -4.05000019       2.21796874E-08
  -4.00000000       3.01462926E-08
  -3.95000005       3.03920267E-08
  -3.90000010       2.05928234E-08
  -3.84999990       1.21616817E-09
  -3.79999995      -2.38470541E-08
  -3.75000000      -4.76834394E-08
  -3.70000005      -6.19356584E-08
  -3.65000010      -5.93177276E-08
  -3.59999990      -3.64224562E-08
  -3.54999995       4.09973344E-09
  -3.50000000       5.29258877E-08
  -3.45000005       9.56236761E-08
  -3.40000010       1.16382481E-07
  -3.34999990       1.03127313E-07
  -3.29999995       5.25496411E-08
  -3.25000000      -2.67280971E-08
  -3.20000005      -1.14391320E-07
  -3.15000010      -1.82762761E-07
  -3.09999990      -2.04626176E-07
  -3.04999995      -1.62594660E-07
  -3.00000000      -5.71177168E-08
  -2.95000005       8.99141099E-08
  -2.90000010       2.38108143E-07
  -2.84999990       3.38366675E-07
  -2.79999995       3.47564793E-07
  -2.75000000       2.44084248E-07
  -2.70000005       3.91352337E-08
  -2.65000010      -2.20703640E-07
  -2.59999990      -4.62153764E-07
  -2.54999995      -6.04209163E-07
  -2.50000000      -5.82927498E-07
  -2.45000005      -3.74894029E-07
  -2.40000010      -1.15133680E-08
  -2.34999990       4.21925307E-07
  -2.29999995       8.04423564E-07
  -2.25000000       1.01142984E-06
  -2.20000005       9.52781761E-07
  -2.15000010       6.05299022E-07
  -2.09999990       2.91411251E-08
  -2.04999995      -6.39214647E-07
  -2.00000000      -1.21808216E-06
  -1.95000005      -1.52909399E-06
  -1.89999998      -1.45038632E-06
  -1.85000002      -9.58899932E-07
  -1.79999995      -1.47967427E-07
  -1.75000000       7.87564773E-07
  -1.70000005       1.59746241E-06
  -1.64999998       2.04287358E-06
  -1.60000002       1.96611131E-06
  -1.54999995       1.34340314E-06
  -1.50000000       3.03823867E-07
  -1.45000005      -8.93996742E-07
  -1.39999998      -1.92435937E-06
  -1.35000002      -2.48167748E-06
  -1.29999995      -2.36963501E-06
  -1.25000000      -1.56711519E-06
  -1.20000005      -2.50106780E-07
  -1.14999998       1.24065093E-06
  -1.10000002       2.48217179E-06
  -1.04999995       3.08328913E-06
  -1.00000000       2.80100130E-06
 -0.949999988       1.62622814E-06
 -0.899999976      -1.88690677E-07
 -0.850000024      -2.17488150E-06
 -0.800000012      -3.75930063E-06
 -0.750000000      -4.41980001E-06
 -0.699999988      -3.84296891E-06
 -0.649999976      -2.03931131E-06
 -0.600000024       6.22663720E-07
 -0.550000012       3.48270578E-06
 -0.500000000       5.74746855E-06
 -0.449999988       6.70531927E-06
 -0.400000006       5.94018775E-06
 -0.349999994       3.48120921E-06
 -0.300000012      -1.62777198E-07
 -0.250000000      -4.10552320E-06
 -0.200000003      -7.30493412E-06
 -0.150000006      -8.84853853E-06
 -0.100000001      -8.22300626E-06
  -5.00000007E-02  -5.48591697E-06
   0.00000000      -1.28137879E-06
   5.00000007E-02   3.31530396E-06
  0.100000001       7.08717380E-06
  0.150000006       9.01913882E-06
  0.200000003       8.59438114E-06
  0.250000000       5.95251777E-06
  0.300000012       1.85768181E-06
  0.349999994      -2.51806546E-06
  0.400000006      -5.93331242E-06
  0.449999988      -7.43659984E-06
  0.500000000      -6.63835272E-06
  0.550000012      -3.81488235E-06
  0.600000024       1.83065652E-07
  0.649999976       4.18396758E-06
  0.699999988       7.02985108E-06
  0.750000000       7.88968191E-06
  0.800000012       6.46378749E-06
  0.850000024       3.03205798E-06
  0.899999976      -1.64934920E-06
  0.949999988      -6.55389022E-06
   1.00000000      -1.06225225E-05
   1.04999995      -1.29689697E-05
   1.10000002      -1.30148610E-05
   1.14999998      -1.05511999E-05
   1.20000005      -5.74736396E-06
   1.25000000       8.65789502E-07
   1.29999995       8.42624559E-06
   1.35000002       1.57952509E-05
   1.39999998       2.16631888E-05
   1.45000005       2.47311636E-05
   1.50000000       2.39658712E-05
   1.54999995       1.88840422E-05
   1.60000002       9.78531534E-06
   1.64999998      -2.16019862E-06
   1.70000005      -1.50382693E-05
   1.75000000      -2.65390172E-05
   1.79999995      -3.44585605E-05
   1.85000002      -3.72205905E-05
   1.89999998      -3.42613894E-05
   1.95000005      -2.61541227E-05
   2.00000000      -1.44293135E-05
   2.04999995      -1.15039177E-06
   2.09999990       1.16129722E-05
   2.15000010       2.22392573E-05
   2.20000005       2.97981096E-05
   2.25000000       3.40321640E-05
   2.29999995       3.51349408E-05
   2.34999990       3.34608194E-05
   2.40000010       2.93182784E-05
   2.45000005       2.29411744E-05
   2.50000000       1.46290222E-05
   2.54999995       4.94521282E-06
   2.59999990      -5.18661045E-06
   2.65000010      -1.46122966E-05
   2.70000005      -2.23153893E-05
   2.75000000      -2.78944917E-05
   2.79999995      -3.19183819E-05
   2.84999990      -3.59250662E-05
   2.90000010      -4.19501230E-05
   2.95000005      -5.16763939E-05
   3.00000000      -6.55089461E-05
   3.04999995      -8.19948837E-05
   3.09999990      -9.79526158E-05
   3.15000010      -1.09438879E-04
   3.20000005      -1.13334478E-04
   3.25000000      -1.09005909E-04
   3.29999995      -9.93463982E-05
   3.34999990      -9.06163768E-05
   3.40000010      -9.08895818E-05
   3.45000005      -1.07449880E-04
   3.50000000      -1.43976096E-04
   3.54999995      -1.98584719E-04
   3.59999990      -2.63637106E-04
   3.65000010      -3.27665504E-04
   3.70000005      -3.78996861E-04
   3.75000000      -4.09937958E-04
   3.79999995      -4.20019322E-04
   3.84999990      -4.16972704E-04
   3.90000010      -4.14827227E-04
   3.95000005      -4.29540785E-04
   4.00000000      -4.73560707E-04
   4.05000019      -5.51250589E-04
   4.09999990      -6.56967633E-04
   4.15000010      -7.76729081E-04
   4.19999981      -8.93121236E-04
   4.25000000      -9.91850975E-04
   4.30000019      -1.06759742E-03
   4.34999990      -1.12691463E-03
   4.40000010      -1.18689751E-03
   4.44999981      -1.26983295E-03
   4.50000000      -1.39558932E-03
   4.55000019      -1.57444074E-03
   4.59999990      -1.80301466E-03
   4.65000010      -2.06501153E-03
   4.69999981      -2.33664829E-03
   4.75000000      -2.59502395E-03
   4.80000019      -2.82646599E-03
   4.84999990      -3.03185242E-03
   4.90000010      -3.22696543E-03
   4.94999981      -3.43773654E-03
   5.00000000      -3.69213452E-03
   5.05000019      -4.01167246E-03
   5.09999990      -4.40561213E-03
   5.15000010      -4.86987131E-03
   5.19999981      -5.39079448E-03
   5.25000000      -5.95210306E-03
   5.30000019      -6.54214807E-03
   5.34999990      -7.15863751E-03
   5.40000010      -7.80914491E-03
   5.44999981      -8.50753952E-03
   5.50000000      -9.26821213E-03
   5.55000019      -1.01008294E-02
   5.59999990      -1.10080428E-02
   5.65000010      -1.19871590E-02
   5.69999981      -1.30348895E-02
   5.75000000      -1.41528193E-02
   5.80000019      -1.53507581E-02
   5.84999990      -1.66460425E-02
   5.90000010      -1.80587061E-02
   5.94999981      -1.96044985E-02
   6.00000000      -2.12890226E-02
   6.05000019      -2.31061727E-02
   6.09999990      -2.50424184E-02
   6.15000010      -2.70859282E-02
   6.19999981      -2.92371996E-02
   6.25000000      -3.15166116E-02
   6.30000019      -3.39650139E-02
   6.34999990      -3.66359763E-02
   6.40000010      -3.95817235E-02
   6.44999981      -4.28375639E-02
   6.50000000      -4.64110300E-02
   6.55000019      -5.02805337E-02
   6.59999990      -5.44051006E-02
   6.65000010      -5.87425604E-02
   6.69999981      -6.32698163E-02
   6.75000000      -6.79976791E-02
   6.80000019      -7.29743838E-02
   6.84999990      -7.82756731E-02
   6.90000010      -8.39849338E-02
   6.94999981      -9.01704207E-02
   7.00000000      -9.68684256E-02
   7.05000019     -0.104079016    
   7.09999990     -0.111776412    
   7.15000010     -0.119930267    
   7.19999981     -0.128529593    
   7.25000000     -0.137599841    
   7.30000019     -0.147206113    
   7.34999990     -0.157440662    
   7.40000010     -0.168399289    
   7.44999981     -0.180155739    
   7.50000000     -0.192744404    
   7.55000019     -0.206158638    
   7.59999990     -0.220365897    
   7.65000010     -0.235333994    
   7.69999981     -0.251058668    
   7.75000000     -0.267581016    
   7.80000019     -0.284988225    
   7.84999990     -0.303396404    
   7.90000010     -0.322922945    
   7.94999981     -0.343658924    
   8.00000000     -0.365653127    
   8.05000019     -0.388914376    
   8.10000038     -0.413431197    
   8.14999962     -0.439201415    
   8.19999981     -0.466258943    
   8.25000000     -0.494686484    
   8.30000019     -0.524608552    
   8.35000038     -0.556167185    
   8.39999962     -0.589489222    
   8.44999981     -0.624659538    
   8.50000000     -0.661711395    
   8.55000019     -0.700637877    
   8.60000038     -0.741421521    
   8.64999962     -0.784069955    
   8.69999981     -0.828642905    
   8.75000000     -0.875259221    
   8.80000019     -0.924081028    
   8.85000038     -0.975279272    
   8.89999962      -1.02899623    
   8.94999981      -1.08531880    
   9.00000000      -1.14427495    
   9.05000019      -1.20585477    
   9.10000038      -1.27004790    
   9.14999962      -1.33688474    
   9.19999981      -1.40646052    
   9.25000000      -1.47893584    
   9.30000019      -1.55451167    
   9.35000038      -1.63338614    
   9.39999962      -1.71571434    
   9.44999981      -1.80158389    
   9.50000000      -1.89101756    
   9.55000019      -1.98400235    
   9.60000038      -2.08053136    
   9.64999962      -2.18064380    
   9.69999981      -2.28444409    
   9.75000000      -2.39209342    
   9.80000019      -2.50377798    
   9.85000038      -2.61966825    
   9.89999962      -2.73988175    
   9.94999981      -2.86447549    
   10.0000000      -2.99345899    
   10.0500002      -3.12683296    
   10.1000004      -3.26462984    
   10.1499996      -3.40694404    
   10.1999998      -3.55392957    
   10.2500000      -3.70577478    
   10.3000002      -3.86265635    
   10.3500004      -4.02469540    
   10.3999996      -4.19193649    
   10.4499998      -4.36435604    
   10.5000000      -4.54190350    
   10.5500002      -4.72455549    
   10.6000004      -4.91235876    
   10.6499996      -5.10544968    
   10.6999998      -5.30402899    
   10.7500000      -5.50830984    
   10.8000002      -5.71845245    
   10.8500004      -5.93451738    
   10.8999996      -6.15645075    
   10.9499998      -6.38412046    
   11.0000000      -6.61738014    
   11.0500002      -6.85614538    
   11.1000004      -7.10044622    
   11.1499996      -7.35043907    
   11.1999998      -7.60636139    
   11.2500000      -7.86845827    
   11.3000002      -8.13689804    
   11.3500004      -8.41171360    
   11.3999996      -8.69279289    
   11.4499998      -8.97992706    
   11.5000000      -9.27288628    
   11.5500002      -9.57151031    
   11.6000004      -9.87576580    
   11.6499996      -10.1857519    
   11.6999998      -10.5016527    
   11.7500000      -10.8236637    
   11.8000002      -11.1518974    
   11.8500004      -11.4863405    
   11.8999996      -11.8268452    
   11.9499998      -12.1731844    
   12.0000000      -12.5251284    
   12.0500002      -12.8825188    
   12.1000004      -13.2453098    
   12.1499996      -13.6135607    
   12.1999998      -13.9873800    
   12.2500000      -14.3668442    
   12.3000002      -14.7519388    
   12.3500004      -15.1425304    
   12.3999996      -15.5383987    
   12.4499998      -15.9392986    
   12.5000000      -16.3450375    
   12.5500002      -16.7555351    
   12.6000004      -17.1708126    
   12.6499996      -17.5909710    
   12.6999998      -18.0160923    
   12.7500000      -18.4461727    
   12.8000002      -18.8810596    
   12.8500004      -19.3204765    
   12.8999996      -19.7640820    
   12.9499998      -20.2115612    
   13.0000000      -20.6627121    
   13.0500002      -21.1174793    
   13.1000004      -21.5759468    
   13.1499996      -22.0382462    
   13.1999998      -22.5044613    
   13.2500000      -22.9745369    
   13.3000002      -23.4482536    
   13.3500004      -23.9252529    
   13.3999996      -24.4051304    
   13.4499998      -24.8875542    
   13.5000000      -25.3723488    
   13.5500002      -25.8595142    
   13.6000004      -26.3491974    
   13.6499996      -26.8415737    
   13.6999998      -27.3367481    
   13.7500000      -27.8346653    
   13.8000002      -28.3350830    
   13.8500004      -28.8376312    
   13.8999996      -29.3419132    
   13.9499998      -29.8476200    
   14.0000000      -30.3546028    
   14.0500002      -30.8628922    
   14.1000004      -31.3726273    
   14.1499996      -31.8839664    
   14.1999998      -32.3969688    
   14.2500000      -32.9115295    
   14.3000002      -33.4273872    
   14.3500004      -33.9441872    
   14.3999996      -34.4615936    
   14.4499998      -34.9793892    
   14.5000000      -35.4975014    
   14.5500002      -36.0160332    
   14.6000004      -36.5351639    
   14.6499996      -37.0550346    
   14.6999998      -37.5756912    
   14.7500000      -38.0970001    
   14.8000002      -38.6187019    
   14.8500004      -39.1404839    
   14.8999996      -39.6620674    
   14.9499998      -40.1833076    
   15.0000000      -40.7041931    
   15.0500002      -41.2248535    
   15.1000004      -41.7454300    
   15.1499996      -42.2660255    
   15.1999998      -42.7866287    
   15.2500000      -43.3070869    
   15.3000002      -43.8271599    
   15.3500004      -44.3465919    
   15.3999996      -44.8651886    
   15.4499998      -45.3828621    
   15.5000000      -45.8996468    
   15.5500002      -46.4156380    
   15.6000004      -46.9309349    
   15.6499996      -47.4455681    
   15.6999998      -47.9594879    
   15.7500000      -48.4725494    
   15.8000002      -48.9845734    
   15.8500004      -49.4953918    
   15.8999996      -50.0049095    
   15.9499998      -50.5130844    
   16.0000000      -51.0199356    
   16.0499992      -51.5254822    
   16.1000004      -52.0296936    
   16.1499996      -52.5324860    
   16.2000008      -53.0337257    
   16.2500000      -53.5332565    
   16.2999992      -54.0309372    
   16.3500004      -54.5266685    
   16.3999996      -55.0203819    
   16.4500008      -55.5120163    
   16.5000000      -56.0014648    
   16.5499992      -56.4885712    
   16.6000004      -56.9731064    
   16.6499996      -57.4547958    
   16.7000008      -57.9333916    
   16.7500000      -58.4086952    
   16.7999992      -58.8805962    
   16.8500004      -59.3490257    
   16.8999996      -59.8139114    
   16.9500008      -60.2751007    
   17.0000000      -60.7323189    
   17.0499992      -61.1851654    
   17.1000004      -61.6331673    
   17.1499996      -62.0758591    
   17.2000008      -62.5128670    
   17.2500000      -62.9439468    
   17.2999992      -63.3689766    
   17.3500004      -63.7878571    
   17.3999996      -64.2004089    
   17.4500008      -64.6062851    
   17.5000000      -65.0049057    
   17.5499992      -65.3955154    
   17.6000004      -65.7773056    
   17.6499996      -66.1495361    
   17.7000008      -66.5116730    
   17.7500000      -66.8633652    
   17.7999992      -67.2044220    
   17.8500004      -67.5346603    
   17.8999996      -67.8537216    
   17.9500008      -68.1609955    
   18.0000000      -68.4555740    
   18.0499992      -68.7363663    
   18.1000004      -69.0022507    
   18.1499996      -69.2522583    
   18.2000008      -69.4856873    
   18.2500000      -69.7020874    
   18.2999992      -69.9011917    
   18.3500004      -70.0826263    
   18.3999996      -70.2458267    
   18.4500008      -70.3898239    
   18.5000000      -70.5133286    
   18.5499992      -70.6148529    
   18.6000004      -70.6929474    
   18.6499996      -70.7463531    
   18.7000008      -70.7741852    
   18.7500000      -70.7758560    
   18.7999992      -70.7509232    
   18.8500004      -70.6988449    
   18.8999996      -70.6187973    
   18.9500008      -70.5095520    
   19.0000000      -70.3695755    
   19.0499992      -70.1971893    
   19.1000004      -69.9907837    
   19.1499996      -69.7490768    
   19.2000008      -69.4711456    
   19.2500000      -69.1563568    
   19.2999992      -68.8042068    
   19.3500004      -68.4139709    
   19.3999996      -67.9846420    
   19.4500008      -67.5148087    
   19.5000000      -67.0027847    
   19.5499992      -66.4468384    
   19.6000004      -65.8454742    
   19.6499996      -65.1975327    
   19.7000008      -64.5022964    
   19.7500000      -63.7593079    
   19.7999992      -62.9681587    
   19.8500004      -62.1282310    
   19.8999996      -61.2385674    
   19.9500008      -60.2978897    
   20.0000000      -59.3047409    
   20.0499992      -58.2577362    
   20.1000004      -57.1557846    
   20.1499996      -55.9982071    
   20.2000008      -54.7847252    
   20.2500000      -53.5152473    
   20.2999992      -52.1896820    
   20.3500004      -50.8077087    
   20.3999996      -49.3687172    
   20.4500008      -47.8718872    
   20.5000000      -46.3163795    
   20.5499992      -44.7015419    
   20.6000004      -43.0271111    
   20.6499996      -41.2932510    
   20.7000008      -39.5004272    
   20.7500000      -37.6492500    
   20.7999992      -35.7402306    
   20.8500004      -33.7737007    
   20.8999996      -31.7497654    
   20.9500008      -29.6684685    
   21.0000000      -27.5299892    
   21.0499992      -25.3348370    
   21.1000004      -23.0839119    
   21.1499996      -20.7784863    
   21.2000008      -18.4200344    
   21.2500000      -16.0100307    
   21.2999992      -13.5498190    
   21.3500004      -11.0405712    
   21.3999996      -8.48338318    
   21.4500008      -5.87946272    
   21.5000000      -3.23031425    
   21.5499992     -0.537843287    
   21.6000004       2.19566846    
   21.6499996       4.96771383    
   21.7000008       7.77576923    
   21.7500000       10.6174736    
   21.7999992       13.4906864    
   21.8500004       16.3934135    
   21.8999996       19.3236160    
   21.9500008       22.2789803    
   22.0000000       25.2567692    
   22.0499992       28.2538109    
   22.1000004       31.2666302    
   22.1499996       34.2917023    
   22.2000008       37.3256760    
   22.2500000       40.3655357    
   22.2999992       43.4085617    
   22.3500004       46.4521332    
   22.3999996       49.4934807    
   22.4500008       52.5294495    
   22.5000000       55.5563850    
   22.5499992       58.5702438    
   22.6000004       61.5668411    
   22.6499996       64.5421753    
   22.7000008       67.4926529    
   22.7500000       70.4151764    
   22.7999992       73.3069992    
   22.8500004       76.1654739    
   22.8999996       78.9876633    
   22.9500008       81.7701721    
   23.0000000       84.5091019    
   23.0499992       87.2002335    
   23.1000004       89.8393936    
   23.1499996       92.4228210    
   23.2000008       94.9473572    
   23.2500000       97.4104919    
   23.2999992       99.8101273    
   23.3500004       102.144188    
   23.3999996       104.410286    
   23.4500008       106.605537    
   23.5000000       108.726555    
   23.5499992       110.769768    
   23.6000004       112.731834    
   23.6499996       114.609993    
   23.7000008       116.402245    
   23.7500000       118.107277    
   23.7999992       119.724220    
   23.8500004       121.252182    
   23.8999996       122.689941    
   23.9500008       124.035744    
   24.0000000       125.287460    
   24.0499992       126.442894    
   24.1000004       127.500160    
   24.1499996       128.458099    
   24.2000008       129.316345    
   24.2500000       130.075195    
   24.2999992       130.735291    
   24.3500004       131.297195    
   24.3999996       131.761108    
   24.4500008       132.126755    
   24.5000000       132.393555    
   24.5499992       132.560928    
   24.6000004       132.628815    
   24.6499996       132.597809    
   24.7000008       132.469269    
   24.7500000       132.245132    
   24.7999992       131.927551    
   24.8500004       131.518509    
   24.8999996       131.019562    
   24.9500008       130.431870    
   25.0000000       129.756317    
   25.0499992       128.993958    
   25.1000004       128.146164    
   25.1499996       127.215050    
   25.2000008       126.203293    
   25.2500000       125.113998    
   25.2999992       123.950348    
   25.3500004       122.715302    
   25.3999996       121.411407    
   25.4500008       120.040848    
   25.5000000       118.605629    
   25.5499992       117.107857    
   25.6000004       115.550003    
   25.6499996       113.935005    
   25.7000008       112.266243    
   25.7500000       110.547310    
   25.7999992       108.781776    
   25.8500004       106.972923    
   25.8999996       105.123711    
   25.9500008       103.236778    
   26.0000000       101.314644    
   26.0499992       99.3598709    
   26.1000004       97.3752594    
   26.1499996       95.3638840    
   26.2000008       93.3290176    
   26.2500000       91.2739944    
   26.2999992       89.2020493    
   26.3500004       87.1161652    
   26.3999996       85.0190964    
   26.4500008       82.9133835    
   26.5000000       80.8014908    
   26.5499992       78.6858444    
   26.6000004       76.5689774    
   26.6499996       74.4534225    
   26.7000008       72.3417282    
   26.7500000       70.2363663    
   26.7999992       68.1396790    
   26.8500004       66.0538788    
   26.8999996       63.9810677    
   26.9500008       61.9233131    
   27.0000000       59.8826141    
   27.0499992       57.8609085    
   27.1000004       55.8600006    
   27.1499996       53.8815498    
   27.2000008       51.9270172    
   27.2500000       49.9976921    
   27.2999992       48.0948067    
   27.3500004       46.2195892    
   27.3999996       44.3733406    
   27.4500008       42.5574417    
   27.5000000       40.7732582    
   27.5499992       39.0220413    
   27.6000004       37.3047714    
   27.6499996       35.6221085    
   27.7000008       33.9744148    
   27.7500000       32.3618660    
   27.7999992       30.7846432    
   27.8500004       29.2430592    
   27.8999996       27.7376575    
   27.9500008       26.2691593    
   28.0000000       24.8383045    
   28.0499992       23.4456463    
   28.1000004       22.0913963    
   28.1499996       20.7753525    
   28.2000008       19.4969826    
   28.2500000       18.2556190    
   28.2999992       17.0506916    
   28.3500004       15.8818970    
   28.3999996       14.7492599    
   28.4500008       13.6530218    
   28.5000000       12.5934296    
   28.5499992       11.5704927    
   28.6000004       10.5838156    
   28.6499996       9.63257504    
   28.7000008       8.71566486    
   28.7500000       7.83193254    
   28.7999992       6.98043966    
   28.8500004       6.16061974    
   28.8999996       5.37227440    
   28.9500008       4.61540842    
   29.0000000       3.88996458    
   29.0499992       3.19557858    
   29.1000004       2.53143930    
   29.1499996       1.89633024    
   29.2000008       1.28883100    
   29.2500000      0.707600415    
   29.2999992      0.151630819    
   29.3500004     -0.379632741    
   29.3999996     -0.886356235    
   29.4500008      -1.36853838    
   29.5000000      -1.82630265    
   29.5499992      -2.26014066    
   29.6000004      -2.67100835    
   29.6499996      -3.06023598    
   29.7000008      -3.42928648    
   29.7500000      -3.77946210    
   29.7999992      -4.11167240    
   29.8500004      -4.42636013    
   29.8999996      -4.72360802    
   29.9500008      -5.00338745    
   30.0000000      -5.26584101    
   30.0499992      -5.51149321    
   30.1000004      -5.74129629    
   30.1499996      -5.95649958    
   30.2000008      -6.15839577    
   30.2500000      -6.34804487    
   30.2999992      -6.52608871    
   30.3500004      -6.69272614    
   30.3999996      -6.84785604    
   30.4500008      -6.99133253    
   30.5000000      -7.12323093    
   30.5499992      -7.24401522    
   30.6000004      -7.35454798    
   30.6499996      -7.45593739    
   30.7000008      -7.54928923    
   30.7500000      -7.63546133    
   30.7999992      -7.71490812    
   30.8500004      -7.78768206    
   30.8999996      -7.85357809    
   30.9500008      -7.91237020    
   31.0000000      -7.96403503    
   31.0499992      -8.00888920    
   31.1000004      -8.04758930    
   31.1499996      -8.08099651    
   31.2000008      -8.10996628    
   31.2500000      -8.13514709    
   31.2999992      -8.15685749    
   31.3500004      -8.17508698    
   31.3999996      -8.18960571    
   31.4500008      -8.20015526    
   31.5000000      -8.20662403    
   31.5499992      -8.20916557    
   31.6000004      -8.20821095    
   31.6499996      -8.20437717    
   31.7000008      -8.19831562    
   31.7500000      -8.19055271    
   31.7999992      -8.18137836    
   31.8500004      -8.17081451    
   31.8999996      -8.15867043    
   31.9500008      -8.14466000    
   32.0000000      -8.12854195    
   32.0499992      -8.11023617    
   32.0999985      -8.08988285    
   32.1500015      -8.06782532    
   32.2000008      -8.04453278    
   32.2500000      -8.02048969    
   32.2999992      -7.99606705    
   32.3499985      -7.97144318    
   32.4000015      -7.94656754    
   32.4500008      -7.92120600    
   32.5000000      -7.89503193    
   32.5499992      -7.86775875    
   32.5999985      -7.83925629    
   32.6500015      -7.80962658    
   32.7000008      -7.77920008    
   32.7500000      -7.74845743    
   32.7999992      -7.71788883    