  -10.0000000       0.00000000    
  -9.94999981       0.00000000    
  -9.89999962       0.00000000    
  -9.85000038       0.00000000    
  -9.80000019       0.00000000    
  -9.75000000       0.00000000    
  -9.69999981       0.00000000    
  -9.64999962       0.00000000    
  -9.60000038       0.00000000    
  -9.55000019       0.00000000    
  -9.50000000       0.00000000    
  -9.44999981      -7.93549356E-37
  -9.39999962      -7.90881051E-36
  -9.35000038      -8.24241945E-35
  -9.30000019      -9.76572513E-34
  -9.25000000      -8.24629932E-33
  -9.19999981      -4.75142105E-32
  -9.14999962      -1.93973319E-31
  -9.10000038      -5.62625874E-31
  -9.05000019      -1.04879976E-30
  -9.00000000      -4.77274310E-31
  -8.94999981       4.65327319E-30
  -8.89999962       1.93774673E-29
  -8.85000038       4.12341992E-29
  -8.80000019       3.75717756E-29
  -8.75000000      -7.60197651E-29
  -8.69999981      -3.87441782E-28
  -8.64999962      -7.38638189E-28
  -8.60000038      -1.97146483E-28
  -8.55000019       3.42302270E-27
  -8.50000000       1.27450841E-26
  -8.44999981       2.64795769E-26
  -8.39999962       2.99407904E-26
  -8.35000038      -1.59438110E-26
  -8.30000019      -1.71639234E-25
  -8.25000000      -4.72217906E-25
  -8.19999981      -8.07302501E-25
  -8.14999962      -7.43904067E-25
  -8.10000038       5.73809879E-25
  -8.05000019       4.14497891E-24
  -8.00000000       1.00593673E-23
  -7.94999981       1.55275878E-23
  -7.90000010       1.27351109E-23
  -7.84999990      -1.11905457E-23
  -7.80000019      -6.83010350E-23
  -7.75000000      -1.54552581E-22
  -7.69999981      -2.26331969E-22
  -7.65000010      -1.80724689E-22
  -7.59999990       1.33867096E-22
  -7.55000019       8.40773860E-22
  -7.50000000       1.86854365E-21
  -7.44999981       2.72485734E-21
  -7.40000010       2.33907472E-21
  -7.34999990      -7.86387593E-22
  -7.30000019      -7.83289149E-21
  -7.25000000      -1.81988443E-20
  -7.19999981      -2.76306533E-20
  -7.15000010      -2.70080771E-20
  -7.09999990      -3.58328502E-21
  -7.05000019       5.33684200E-20
  -7.00000000       1.41732551E-19
  -6.94999981       2.32945563E-19
  -6.90000010       2.62688161E-19
  -6.84999990       1.37453817E-19
  -6.80000019      -2.30742084E-19
  -6.75000000      -8.56627312E-19
  -6.69999981      -1.59418001E-18
  -6.65000010      -2.06930893E-18
  -6.59999990      -1.69760468E-18
  -6.55000019       1.43002829E-19
  -6.50000000       3.75122644E-18
  -6.44999981       8.61008908E-18
  -6.40000010       1.29536997E-17
  -6.34999990       1.37119472E-17
  -6.30000019       7.19131634E-18
  -6.25000000      -9.29588385E-18
  -6.19999981      -3.50320882E-17
  -6.15000010      -6.34955750E-17
  -6.09999990      -8.13331359E-17
  -6.05000019      -7.03398990E-17
  -6.00000000      -1.36137087E-17
  -5.94999981       9.44112254E-17
  -5.90000010       2.36682234E-16
  -5.84999990       3.66146112E-16
  -5.80000019       4.08856266E-16
  -5.75000000       2.83031533E-16
  -5.69999981      -6.52301065E-17
  -5.65000010      -6.17044126E-16
  -5.59999990      -1.24349424E-15
  -5.55000019      -1.69937266E-15
  -5.50000000      -1.66967346E-15
  -5.44999981      -8.77113205E-16
  -5.40000010       7.66448033E-16
  -5.34999990       3.01297264E-15
  -5.30000019       5.20830480E-15
  -5.25000000       6.37380096E-15
  -5.19999981       5.48021084E-15
  -5.15000010       1.88325261E-15
  -5.09999990      -4.20230621E-15
  -5.05000019      -1.13924297E-14
  -5.00000000      -1.72098206E-14
  -4.94999981      -1.86904410E-14
  -4.90000010      -1.34795231E-14
  -4.84999990      -1.12362425E-15
  -4.80000019       1.59619801E-14
  -4.75000000       3.24486498E-14
  -4.69999981       4.13901633E-14
  -4.65000010       3.68072848E-14
  -4.59999990       1.68514528E-14
  -4.55000019      -1.37676312E-14
  -4.50000000      -4.36294508E-14
  -4.44999981      -5.78140983E-14
  -4.40000010      -4.43521223E-14
  -4.34999990      -2.05942297E-15
  -4.30000019       5.37070049E-14
  -4.25000000       9.14587145E-14
  -4.19999981       7.30754365E-14
  -4.15000010      -2.79107334E-14
  -4.09999990      -2.04244092E-13
  -4.05000019      -3.98615548E-13
  -4.00000000      -5.04651008E-13
  -3.95000005      -3.94133131E-13
  -3.90000010       2.90048035E-14
  -3.84999990       7.60211555E-13
  -3.79999995       1.63699664E-12
  -3.75000000       2.32612389E-12
  -3.70000005       2.38458558E-12
  -3.65000010       1.40400636E-12
  -3.59999990      -7.85254023E-13
  -3.54999995      -3.91236652E-12
  -3.50000000      -7.15711648E-12
  -3.45000005      -9.22566797E-12
  -3.40000010      -8.66484662E-12
  -3.34999990      -4.39077984E-12
  -3.29999995       3.69372631E-12
  -3.25000000       1.42102302E-11
  -3.20000005       2.42001471E-11
  -3.15000010       2.96094087E-11
  -3.09999990       2.64108544E-11
  -3.04999995       1.21753562E-11
  -3.00000000      -1.23508989E-11
  -2.95000005      -4.22779728E-11
  -2.90000010      -6.88199567E-11
  -2.84999990      -8.11157322E-11
  -2.79999995      -6.94987887E-11
  -2.75000000      -2.94899799E-11
  -2.70000005       3.47422507E-11
  -2.65000010       1.08935243E-10
  -2.59999990       1.70513645E-10
  -2.54999995       1.93996610E-10
  -2.50000000       1.59197877E-10
  -2.45000005       6.00819325E-11
  -2.40000010      -8.87649121E-11
  -2.34999990      -2.51130478E-10
  -2.29999995      -3.75624643E-10
  -2.25000000      -4.09408119E-10
  -2.20000005      -3.16316778E-10
  -2.15000010      -9.40802714E-11
  -2.09999990       2.15800794E-10
  -2.04999995       5.31035271E-10
  -2.00000000       7.46706308E-10
  -1.95000005       7.66064712E-10
  -1.89999998       5.36175826E-10
  -1.85000002       7.69264374E-11
  -1.79999995      -5.08573683E-10
  -1.75000000      -1.05039788E-09
  -1.70000005      -1.35555989E-09
  -1.64999998      -1.26996635E-09
  -1.60000002      -7.40723316E-10
  -1.54999995       1.43293391E-10
  -1.50000000       1.15192389E-09
  -1.45000005       1.96419281E-09
  -1.39999998       2.26171415E-09
  -1.35000002       1.84100246E-09
  -1.29999995       7.08640535E-10
  -1.25000000      -8.78341955E-10
  -1.20000005      -2.45282838E-09
  -1.14999998      -3.46105811E-09
  -1.10000002      -3.44202844E-09
  -1.04999995      -2.20989960E-09
  -1.00000000       2.56035349E-11
 -0.949999988       2.65673461E-09
 -0.899999976       4.81793538E-09
 -0.850000024       5.64679414E-09
 -0.800000012       4.59562433E-09
 -0.750000000       1.69099024E-09
 -0.699999988      -2.36334796E-09
 -0.649999976      -6.30879171E-09
 -0.600000024      -8.68029737E-09
 -0.550000012      -8.29954683E-09
 -0.500000000      -4.76268047E-09
 -0.449999988       1.25584476E-09
 -0.400000006       8.03089417E-09
 -0.349999994       1.32028104E-08
 -0.300000012       1.45097800E-08
 -0.250000000       1.06350422E-08
 -0.200000003       1.88554328E-09
 -0.150000006      -9.57762580E-09
 -0.100000001      -2.01314982E-08
  -5.00000007E-02  -2.56921080E-08
   0.00000000      -2.30890507E-08
   5.00000007E-02  -1.13984635E-08
  0.100000001       7.24870208E-09
  0.150000006       2.77757231E-08
  0.200000003       4.33321823E-08
  0.250000000       4.73288537E-08
  0.300000012       3.57935690E-08
  0.349999994       9.28955401E-09
  0.400000006      -2.63550106E-08
  0.449999988      -6.09873112E-08
  0.500000000      -8.27348146E-08
  0.550000012      -8.16955819E-08
  0.600000024      -5.36569331E-08
  0.649999976      -2.58426880E-09
  0.699999988       5.91845861E-08
  0.750000000       1.13514091E-07
  0.800000012       1.41436743E-07
  0.850000024       1.29261821E-07
  0.899999976       7.39846868E-08
  0.949999988      -1.39194780E-08
   1.00000000      -1.11675782E-07
   1.04999995      -1.89620323E-07
   1.10000002      -2.19735725E-07
   1.14999998      -1.84998200E-07
   1.20000005      -8.65963088E-08
   1.25000000       5.36665468E-08
   1.29999995       1.97296700E-07
   1.35000002       2.99023128E-07
   1.39999998       3.20353593E-07
   1.45000005       2.42902786E-07
   1.50000000       7.71479449E-08
   1.54999995      -1.36853572E-07
   1.60000002      -3.38122248E-07
   1.64999998      -4.61276699E-07
   1.70000005      -4.56667692E-07
   1.75000000      -3.08160793E-07
   1.79999995      -4.25927027E-08
   1.85000002       2.73154996E-07
   1.89999998       5.48065941E-07
   1.95000005       6.92414289E-07
   2.00000000       6.45800583E-07
   2.04999995       3.99267009E-07
   2.09999990       3.87404198E-09
   2.15000010      -4.38433631E-07
   2.20000005      -8.00700946E-07
   2.25000000      -9.67223741E-07
   2.29999995      -8.69929352E-07
   2.34999990      -5.13556586E-07
   2.40000010       1.92548395E-08
   2.45000005       5.86372380E-07
   2.50000000       1.02442004E-06
   2.54999995       1.19666493E-06
   2.59999990       1.03645061E-06
   2.65000010       5.72321767E-07
   2.70000005      -7.43617434E-08
   2.75000000      -7.20591970E-07
   2.79999995      -1.17396701E-06
   2.84999990      -1.29114130E-06
   2.90000010      -1.02458375E-06
   2.95000005      -4.42239269E-07
   3.00000000       2.87744314E-07
   3.04999995       9.44471765E-07
   3.09999990       1.32078071E-06
   3.15000010       1.28873182E-06
   3.20000005       8.43244322E-07
   3.25000000       1.08847082E-07
   3.29999995      -6.94441724E-07
   3.34999990      -1.31710294E-06
   3.40000010      -1.55816713E-06
   3.45000005      -1.33059791E-06
   3.50000000      -6.92200842E-07
   3.54999995       1.69442643E-07
   3.59999990       9.94838842E-07
   3.65000010       1.53563053E-06
   3.70000005       1.63591881E-06
   3.75000000       1.28423721E-06
   3.79999995       6.17243984E-07
   3.84999990      -1.28077588E-07
   3.90000010      -6.99083614E-07
   3.95000005      -9.20455420E-07
   4.00000000      -7.62113245E-07
   4.05000019      -3.55293025E-07
   4.09999990       5.32290692E-08
   4.15000010       1.96945507E-07
   4.19999981      -9.60243085E-08
   4.25000000      -8.11806387E-07
   4.30000019      -1.72095122E-06
   4.34999990      -2.43009526E-06
   4.40000010      -2.50793232E-06
   4.44999981      -1.65008419E-06
   4.50000000       1.71797907E-07
   4.55000019       2.63382935E-06
   4.59999990       5.09637312E-06
   4.65000010       6.75939191E-06
   4.69999981       6.90246043E-06
   4.75000000       5.14100884E-06
   4.80000019       1.61473952E-06
   4.84999990      -2.96524013E-06
   4.90000010      -7.44741919E-06
   4.94999981      -1.05322006E-05
   5.00000000      -1.11536456E-05
   5.05000019      -8.84019482E-06
   5.09999990      -3.93652999E-06
   5.15000010       2.40144414E-06
   5.19999981       8.46481271E-06
   5.25000000       1.24520111E-05
   5.30000019       1.30104163E-05
   5.34999990       9.69893154E-06
   5.40000010       3.21851098E-06
   5.44999981      -4.68624921E-06
   5.50000000      -1.16587180E-05
   5.55000019      -1.53958299E-05
   5.59999990      -1.43656025E-05
   5.65000010      -8.36015079E-06
   5.69999981       1.30253090E-06
   5.75000000       1.20243740E-05
   5.80000019       2.05883553E-05
   5.84999990       2.40722820E-05
   5.90000010       2.07606681E-05
   5.94999981       1.07782962E-05
   6.00000000      -3.77000561E-06
   6.05000019      -1.92371590E-05
   6.09999990      -3.13652454E-05
   6.15000010      -3.64713414E-05
   6.19999981      -3.25543006E-05
   6.25000000      -1.99887800E-05
   6.30000019      -1.57343561E-06
   6.34999990       1.81221258E-05
   6.40000010       3.39610451E-05
   6.44999981       4.16698094E-05
   6.50000000       3.90859132E-05
   6.55000019       2.68454114E-05
   6.59999990       8.28131670E-06
   6.65000010      -1.14709701E-05
   6.69999981      -2.69273169E-05
   6.75000000      -3.38550126E-05
   6.80000019      -3.05448521E-05
   6.84999990      -1.83599877E-05
   6.90000010      -1.36987057E-06
   6.94999981       1.48513345E-05
   7.00000000       2.49237455E-05
   7.05000019       2.53537710E-05
   7.09999990       1.56963924E-05
   7.15000010      -1.19304832E-06
   7.19999981      -1.99325714E-05
   7.25000000      -3.42148596E-05
   7.30000019      -3.87727741E-05
   7.34999990      -3.11121985E-05
   7.40000010      -1.24610633E-05
   7.44999981       1.23978443E-05
   7.50000000       3.64109474E-05
   7.55000019       5.23086819E-05
   7.59999990       5.48304015E-05
   7.65000010       4.24388745E-05
   7.69999981       1.79720264E-05
   7.75000000      -1.20158620E-05
   7.80000019      -3.90768510E-05
   7.84999990      -5.53436839E-05
   7.90000010      -5.59215550E-05
   7.94999981      -4.04594357E-05
   8.00000000      -1.33879757E-05
   8.05000019       1.72965847E-05
   8.10000038       4.23779129E-05
   8.14999962       5.42090238E-05
   8.19999981       4.90982893E-05
   8.25000000       2.85404421E-05
   8.30000019      -1.12642192E-06
   8.35000038      -3.05815047E-05
   8.39999962      -5.03689771E-05
   8.44999981      -5.38764180E-05
   8.50000000      -3.95182724E-05
   8.55000019      -1.14160484E-05
   8.60000038       2.16860226E-05
   8.64999962       4.89872582E-05
   8.69999981       6.09218660E-05
   8.75000000       5.21663460E-05
   8.80000019       2.34102918E-05
   8.85000038      -1.87028709E-05
   8.89999962      -6.35002216E-05
   8.94999981      -9.95149749E-05
   9.00000000      -1.18046104E-04
   9.05000019      -1.15920069E-04
   9.10000038      -9.65507061E-05
   9.14999962      -6.89081862E-05
   9.19999981      -4.46664853E-05
   9.25000000      -3.43960455E-05
   9.30000019      -4.40104304E-05
   9.35000038      -7.26417566E-05
   9.39999962      -1.12704285E-04
   9.44999981      -1.52225242E-04
   9.50000000      -1.78783856E-04
   9.55000019      -1.83838609E-04
   9.60000038      -1.66029582E-04
   9.64999962      -1.32297617E-04
   9.69999981      -9.63069542E-05
   9.75000000      -7.45068755E-05
   9.80000019      -8.09572302E-05
   9.85000038      -1.22517653E-04
   9.89999962      -1.95989327E-04
   9.94999981      -2.88276613E-04
   10.0000000      -3.79741774E-04
   10.0500002      -4.49918967E-04
   10.1000004      -4.83949727E-04
   10.1499996      -4.77764930E-04
   10.1999998      -4.40301053E-04
   10.2500000      -3.91854264E-04
   10.3000002      -3.58821126E-04
   10.3500004      -3.66208027E-04
   10.3999996      -4.30064101E-04
   10.4499998      -5.52141457E-04
   10.5000000      -7.18537369E-04
   10.5500002      -9.02957050E-04
   10.6000004      -1.07386650E-03
   10.6499996      -1.20359438E-03
   10.6999998      -1.27676129E-03
   10.7500000      -1.29549450E-03
   10.8000002      -1.27974374E-03
   10.8500004      -1.26240496E-03
   10.8999996      -1.28049531E-03
   10.9499998      -1.36484450E-03
   11.0000000      -1.53128814E-03
   11.0500002      -1.77599525E-03
   11.1000004      -2.07641092E-03
   11.1499996      -2.39767204E-03
   11.1999998      -2.70272512E-03
   11.2500000      -2.96324771E-03
   11.3000002      -3.16817267E-03
   11.3500004      -3.32728098E-03
   11.3999996      -3.46875307E-03
   11.4499998      -3.63135175E-03
   11.5000000      -3.85352806E-03
   11.5500002      -4.16267756E-03
   11.6000004      -4.56776051E-03
   11.6499996      -5.05751465E-03
   11.6999998      -5.60479937E-03
   11.7500000      -6.17575040E-03
   11.8000002      -6.74093002E-03
   11.8500004      -7.28503382E-03
   11.8999996      -7.81210372E-03
   11.9499998      -8.34458135E-03
   12.0000000      -8.91642831E-03
   12.0500002      -9.56243649E-03
   12.1000004      -1.03070885E-02
   12.1499996      -1.11565813E-02
   12.1999998      -1.20967161E-02
   12.2500000      -1.30976019E-02
   12.3000002      -1.41239455E-02
   12.3500004      -1.51479123E-02
   12.3999996      -1.61605421E-02
   12.4499998      -1.71779897E-02
   12.5000000      -1.82402767E-02
   12.5500002      -1.94024816E-02
   12.6000004      -2.07205880E-02
   12.6499996      -2.22360715E-02
   12.6999998      -2.39638090E-02
   12.7500000      -2.58871559E-02
   12.8000002      -2.79620793E-02
   12.8500004      -3.01295631E-02
   12.8999996      -3.23329642E-02
   12.9499998      -3.45355198E-02
   13.0000000      -3.67327556E-02
   13.0500002      -3.89561169E-02
   13.1000004      -4.12664711E-02
   13.1499996      -4.37391028E-02
   13.1999998      -4.64443676E-02
   13.2500000      -4.94296253E-02
   13.3000002      -5.27076609E-02
   13.3500004      -5.62550575E-02
   13.3999996      -6.00211024E-02
   13.4499998      -6.39446750E-02
   13.5000000      -6.79741353E-02
   13.5500002      -7.20844418E-02
   13.6000004      -7.62863234E-02
   13.6499996      -8.06249678E-02
   13.6999998      -8.51684362E-02
   13.7500000      -8.99895430E-02
   13.8000002      -9.51466039E-02
   13.8500004     -0.100668944    
   13.8999996     -0.106551491    
   13.9499998     -0.112760141    
   14.0000000     -0.119246103    
   14.0500002     -0.125964731    
   14.1000004     -0.132892847    
   14.1499996     -0.140039191    
   14.1999998     -0.147444561    
   14.2500000     -0.155171186    
   14.3000002     -0.163284987    
   14.3500004     -0.171835884    
   14.3999996     -0.180842355    
   14.4499998     -0.190285534    
   14.5000000     -0.200114712    
   14.5500002     -0.210263357    
   14.6000004     -0.220670745    
   14.6499996     -0.231303081    
   14.6999998     -0.242167696    
   14.7500000     -0.253315628    
   14.8000002     -0.264831811    
   14.8500004     -0.276814908    
   14.8999996     -0.289352596    
   14.9499998     -0.302499354    
   15.0000000     -0.316262543    
   15.0500002     -0.330601573    
   15.1000004     -0.345439762    
   15.1499996     -0.360685885    
   15.1999998     -0.376259416    
   15.2500000     -0.392112255    
   15.3000002     -0.408241063    
   15.3500004     -0.424687028    
   15.3999996     -0.441523015    
   15.4499998     -0.458832681    
   15.5000000     -0.476686895    
   15.5500002     -0.495124638    
   15.6000004     -0.514143705    
   15.6499996     -0.533703268    
   15.6999998     -0.553736746    
   15.7500000     -0.574171603    
   15.8000002     -0.594949186    
   15.8500004     -0.616038680    
   15.8999996     -0.637441814    
   15.9499998     -0.659186363    
   16.0000000     -0.681311250    
   16.0499992     -0.703848898    
   16.1000004     -0.726809800    
   16.1499996     -0.750174820    
   16.2000008     -0.773898065    
   16.2500000     -0.797919333    
   16.2999992     -0.822181582    
   16.3500004     -0.846647978    
   16.3999996     -0.871312857    
   16.4500008     -0.896201551    
   16.5000000     -0.921358824    
   16.5499992     -0.946829557    
   16.6000004     -0.972636580    
   16.6499996     -0.998763204    
   16.7000008      -1.02514744    
   16.7500000      -1.05168819    
   16.7999992      -1.07826519    
   16.8500004      -1.10476530    
   16.8999996      -1.13110876    
   16.9500008      -1.15726578    
   17.0000000      -1.18326056    
   17.0499992      -1.20915747    
   17.1000004      -1.23503709    
   17.1499996      -1.26096535    
   17.2000008      -1.28696632    
   17.2500000      -1.31300724    
   17.2999992      -1.33899879    
   17.3500004      -1.36481178    
   17.3999996      -1.39030409    
   17.4500008      -1.41535199    
   17.5000000      -1.43987405    
   17.5499992      -1.46384227    
   17.6000004      -1.48727822    
   17.6499996      -1.51023471    
   17.7000008      -1.53276944    
   17.7500000      -1.55491948    
   17.7999992      -1.57668340    
   17.8500004      -1.59801638    
   17.8999996      -1.61883891    
   17.9500008      -1.63905561    
   18.0000000      -1.65857697    
   18.0499992      -1.67733824    
   18.1000004      -1.69530797    
   18.1499996      -1.71248555    
   18.2000008      -1.72888792    
   18.2500000      -1.74453235    
   18.2999992      -1.75941873    
   18.3500004      -1.77351987    
   18.3999996      -1.78678131    
   18.4500008      -1.79913175    
   18.5000000      -1.81050038    
   18.5499992      -1.82083476    
   18.6000004      -1.83011413    
   18.6499996      -1.83835280    
   18.7000008      -1.84559369    
   18.7500000      -1.85189128    
   18.7999992      -1.85729134    
   18.8500004      -1.86181152    
   18.8999996      -1.86542952    
   18.9500008      -1.86808276    
   19.0000000      -1.86967993    
   19.0499992      -1.87012148    
   19.1000004      -1.86932480    
   19.1499996      -1.86724591    
   19.2000008      -1.86389291    
   19.2500000      -1.85932648    
   19.2999992      -1.85364687    
   19.3500004      -1.84697127    
   19.3999996      -1.83940351    
   19.4500008      -1.83100927    
   19.5000000      -1.82179868    
   19.5499992      -1.81172359    
   19.6000004      -1.80069101    
   19.6499996      -1.78858674    
   19.7000008      -1.77530849    
   19.7500000      -1.76079428    
   19.7999992      -1.74504256    
   19.8500004      -1.72811651    
   19.8999996      -1.71013165    
   19.9500008      -1.69122994    
   20.0000000      -1.67154920    
   20.0499992      -1.65119219    
   20.1000004      -1.63020933    
   20.1499996      -1.60859334    
   20.2000008      -1.58629346    
   20.2500000      -1.56323755    
   20.2999992      -1.53936088    
   20.3500004      -1.51462889    
   20.3999996      -1.48905087    
   20.4500008      -1.46267807    
   20.5000000      -1.43558991    
   20.5499992      -1.40787399    
   20.6000004      -1.37960517    
   20.6499996      -1.35083401    
   20.7000008      -1.32158303    
   20.7500000      -1.29185641    
   20.7999992      -1.26165402    
   20.8500004      -1.23098767    
   20.8999996      -1.19989038    
   20.9500008      -1.16841793    
   21.0000000      -1.13663805    
   21.0499992      -1.10461724    
   21.1000004      -1.07240343    
   21.1499996      -1.04001689    
   21.2000008      -1.00744975    
   21.2500000     -0.974674940    
   21.2999992     -0.941662252    
   21.3500004     -0.908396065    
   21.3999996     -0.874888122    
   21.4500008     -0.841182530    
   21.5000000     -0.807350576    
   21.5499992     -0.773476481    
   21.6000004     -0.739641190    
   21.6499996     -0.705906928    
   21.7000008     -0.672309160    
   21.7500000     -0.638856113    
   21.7999992     -0.605536878    
   21.8500004     -0.572332442    
   21.8999996     -0.539228022    
   21.9500008     -0.506220758    
   22.0000000     -0.473321766    
   22.0499992     -0.440552771    
   22.1000004     -0.407940120    
   22.1499996     -0.375507921    
   22.2000008     -0.343273968    
   22.2500000     -0.311249077    
   22.2999992     -0.279440135    
   22.3500004     -0.247854054    
   22.3999996     -0.216501996    
   22.4500008     -0.185400724    
   22.5000000     -0.154571488    
   22.5499992     -0.124036700    
   22.6000004      -9.38160345E-02
   22.6499996      -6.39231429E-02
   22.7000008      -3.43639217E-02
   22.7500000      -5.13706589E-03
   22.7999992       2.37642657E-02
   22.8500004       5.23507968E-02
   22.8999996       8.06360990E-02
   22.9500008      0.108636051    
   23.0000000      0.136368543    
   23.0499992      0.163851723    
   23.1000004      0.191101208    
   23.1499996      0.218125969    
   23.2000008      0.244922996    
   23.2500000      0.271475226    
   23.2999992      0.297751933    
   23.3500004      0.323713720    
   23.3999996      0.349321067    
   23.4500008      0.374545932    
   23.5000000      0.399381280    
   23.5499992      0.423846364    
   23.6000004      0.447985172    
   23.6499996      0.471858859    
   23.7000008      0.495531976    
   23.7500000      0.519058824    
   23.7999992      0.542472422    
   23.8500004      0.565777302    
   23.8999996      0.588952541    
   23.9500008      0.611959696    
   24.0000000      0.634755254    
   24.0499992      0.657303572    
   24.1000004      0.679585695    
   24.1499996      0.701602936    
   24.2000008      0.723374069    
   24.2500000      0.744928539    
   24.2999992      0.766298473    
   24.3500004      0.787512660    
   24.3999996      0.808592975    
   24.4500008      0.829556584    
   24.5000000      0.850418627    
   24.5499992      0.871196449    
   24.6000004      0.891911387    
   24.6499996      0.912586868    
   24.7000008      0.933242738    
   24.7500000      0.953888416    
   24.7999992      0.974516869    
   24.8500004      0.995103300    
   24.8999996       1.01560938    
   24.9500008       1.03599262    
   25.0000000       1.05621958    
   25.0499992       1.07627666    
   25.1000004       1.09617937    
   25.1499996       1.11597228    
   25.2000008       1.13572049    
   25.2500000       1.15549648    
   25.2999992       1.17536354    
   25.3500004       1.19536126    
   25.3999996       1.21549928    
   25.4500008       1.23575747    
   25.5000000       1.25609696    
   25.5499992       1.27647376    
   25.6000004       1.29685462    
   25.6499996       1.31722569    
   25.7000008       1.33759570    
   25.7500000       1.35799003    
   25.7999992       1.37843871    
   25.8500004       1.39896464    
   25.8999996       1.41957438    
   25.9500008       1.44025791    
   26.0000000       1.46099484    
   26.0499992       1.48176706    
   26.1000004       1.50257158    
   26.1499996       1.52342868    
   26.2000008       1.54438114    
   26.2500000       1.56548595    
   26.2999992       1.58679712    
   26.3500004       1.60834932    
   26.3999996       1.63014817    
   26.4500008       1.65216732    
   26.5000000       1.67435825    
   26.5499992       1.69666743    
   26.6000004       1.71905518    
   26.6499996       1.74150968    
   26.7000008       1.76405048    
   26.7500000       1.78672040    
   26.7999992       1.80956936    
   26.8500004       1.83263659    
   26.8999996       1.85593617    
   26.9500008       1.87945509    
   27.0000000       1.90316176    
   27.0499992       1.92702174    
   27.1000004       1.95101476    
   27.1499996       1.97514772    
   27.2000008       1.99945402    
   27.2500000       2.02398419    
   27.2999992       2.04878736    
   27.3500004       2.07389402    
   27.3999996       2.09930634    
   27.4500008       2.12499976    
   27.5000000       2.15093470    
   27.5499992       2.17707515    
   27.6000004       2.20340466    
   27.6499996       2.22993207    
   27.7000008       2.25668478    
   27.7500000       2.28369236    
   27.7999992       2.31096411    
   27.8500004       2.33847594    
   27.8999996       2.36617041    
   27.9500008       2.39397192    
   28.0000000       2.42181587    
   28.0499992       2.44967365    
   28.1000004       2.47757387    
   28.1499996       2.50559855    
   28.2000008       2.53386021    
   28.2500000       2.56246424    
   28.2999992       2.59146953    
   28.3500004       2.62086129    
   28.3999996       2.65054917    
   28.4500008       2.68038869    
   28.5000000       2.71022320    
   28.5499992       2.73992801    
   28.6000004       2.76944232    
   28.6499996       2.79877782    
   28.7000008       2.82799745    
   28.7500000       2.85717726    
   28.7999992       2.88636613    
   28.8500004       2.91555285    
   28.8999996       2.94466472    
   28.9500008       2.97358823    
   29.0000000       3.00221014    
   29.0499992       3.03045583    
   29.1000004       3.05831599    
   29.1499996       3.08583665    
   29.2000008       3.11309075    
   29.2500000       3.14012623    
   29.2999992       3.16692042    
   29.3500004       3.19335675    
   29.3999996       3.21923351    
   29.4500008       3.24430537    
   29.5000000       3.26834345    
   29.5499992       3.29118991    
   29.6000004       3.31278992    
   29.6499996       3.33318663    
   29.7000008       3.35248017    
   29.7500000       3.37076640    
   29.7999992       3.38807702    
   29.8500004       3.40434670    
   29.8999996       3.41941023    
   29.9500008       3.43304229    
   30.0000000       3.44501090    
   30.0499992       3.45513177    
   30.1000004       3.46329713    
   30.1499996       3.46947169    
   30.2000008       3.47365522    
   30.2500000       3.47583032    
   30.2999992       3.47591472    
   30.3500004       3.47374368    
   30.3999996       3.46908164    
   30.4500008       3.46166921    
   30.5000000       3.45127892    
   30.5499992       3.43775916    
   30.6000004       3.42105103    
   30.6499996       3.40116835    
   30.7000008       3.37814784    
   30.7500000       3.35199189    
   30.7999992       3.32262087    
   30.8500004       3.28986144    
   30.8999996       3.25346422    
   30.9500008       3.21315312    
   31.0000000       3.16868138    
   31.0499992       3.11986899    
   31.1000004       3.06661248    
   31.1499996       3.00886226    
   31.2000008       2.94657731    
   31.2500000       2.87968040    
   31.2999992       2.80803132    
   31.3500004       2.73143339    
   31.3999996       2.64967060    
   31.4500008       2.56255817    
   31.5000000       2.46998644    
   31.5499992       2.37193799    
   31.6000004       2.26846814    
   31.6499996       2.15965295    
   31.7000008       2.04552674    
   31.7500000       1.92603135    
   31.7999992       1.80099964    
   31.8500004       1.67018020    
   31.8999996       1.53329611    
   31.9500008       1.39011657    
   32.0000000       1.24051297    
   32.0499992       1.08448076    
   32.0999985      0.922117472    
   32.1500015      0.753566921    
   32.2000008      0.578952670    
   32.2500000      0.398326635    
   32.2999992      0.211652160    
   32.3499985       1.88290533E-02
   32.4000015     -0.180251688    
   32.4500008     -0.385646611    
   32.5000000     -0.597316742    
   32.5499992     -0.815121889    
   32.5999985      -1.03885520    
   32.6500015      -1.26830208    
   32.7000008      -1.50330341    
   32.7500000      -1.74379265    
   32.7999992      -1.98979425    