  -10.0000000       0.00000000    
  -9.94999981       0.00000000    
  -9.89999962       0.00000000    
  -9.85000038       0.00000000    
  -9.80000019       0.00000000    
  -9.75000000       0.00000000    
  -9.69999981       0.00000000    
  -9.64999962       0.00000000    
  -9.60000038       0.00000000    
  -9.55000019       5.20726705E-22
  -9.50000000       9.54979856E-21
  -9.44999981       8.72709409E-20
  -9.39999962       5.26981259E-19
  -9.35000038       2.34418540E-18
  -9.30000019       8.07115444E-18
  -9.25000000       2.17966277E-17
  -9.19999981       4.47022267E-17
  -9.14999962       5.85178336E-17
  -9.10000038      -1.13512887E-17
  -9.05000019      -3.48620126E-16
  -9.00000000      -1.27148232E-15
  -8.94999981      -3.11994633E-15
  -8.89999962      -5.83335455E-15
  -8.85000038      -8.08477871E-15
  -8.80000019      -6.11843450E-15
  -8.75000000       6.94225239E-15
  -8.69999981       3.97022672E-14
  -8.64999962       9.68748329E-14
  -8.60000038       1.68094976E-13
  -8.55000019       2.13120103E-13
  -8.50000000       1.51516590E-13
  -8.44999981      -1.27812406E-13
  -8.39999962      -7.18422555E-13
  -8.35000038      -1.59844902E-12
  -8.30000019      -2.49816357E-12
  -8.25000000      -2.79262898E-12
  -8.19999981      -1.52818437E-12
  -8.14999962       2.28666196E-12
  -8.10000038       9.04448825E-12
  -8.05000019       1.76306504E-11
  -8.00000000       2.45750850E-11
  -7.94999981       2.38761354E-11
  -7.90000010       8.24758230E-12
  -7.84999990      -2.76753585E-11
  -7.80000019      -8.23719148E-11
  -7.75000000      -1.42149292E-10
  -7.69999981      -1.78355775E-10
  -7.65000010      -1.50747817E-10
  -7.59999990      -2.00342781E-11
  -7.55000019       2.30199831E-10
  -7.50000000       5.66995562E-10
  -7.44999981       8.87716844E-10
  -7.40000010       1.02103992E-09
  -7.34999990       7.63603902E-10
  -7.30000019      -4.20090733E-11
  -7.25000000      -1.39953005E-09
  -7.19999981      -3.05530112E-09
  -7.15000010      -4.45145476E-09
  -7.09999990      -4.79328000E-09
  -7.05000019      -3.26733796E-09
  -7.00000000       6.03133599E-10
  -6.94999981       6.55052546E-09
  -6.90000010       1.32584939E-08
  -6.84999990       1.83528872E-08
  -6.80000019       1.88475671E-08
  -6.75000000       1.20843238E-08
  -6.69999981      -2.99109448E-09
  -6.65000010      -2.45969112E-08
  -6.59999990      -4.74679531E-08
  -6.55000019      -6.33346886E-08
  -6.50000000      -6.28409893E-08
  -6.44999981      -3.87514625E-08
  -6.40000010       1.02950457E-08
  -6.34999990       7.67618857E-08
  -6.30000019       1.43420863E-07
  -6.25000000       1.85990146E-07
  -6.19999981       1.79508589E-07
  -6.15000010       1.07396893E-07
  -6.09999990      -2.92777216E-08
  -6.05000019      -2.05783437E-07
  -6.00000000      -3.74361065E-07
  -5.94999981      -4.73551836E-07
  -5.90000010      -4.45644503E-07
  -5.84999990      -2.58446647E-07
  -5.80000019       7.52117728E-08
  -5.75000000       4.88010869E-07
  -5.69999981       8.65114544E-07
  -5.65000010       1.06987159E-06
  -5.59999990       9.84429562E-07
  -5.55000019       5.55079737E-07
  -5.50000000      -1.72218307E-07
  -5.44999981      -1.04095830E-06
  -5.40000010      -1.80776692E-06
  -5.34999990      -2.20098218E-06
  -5.30000019      -2.00257773E-06
  -5.25000000      -1.13135593E-06
  -5.19999981       2.99870919E-07
  -5.15000010       1.97737404E-06
  -5.09999990       3.44236105E-06
  -5.05000019       4.20390325E-06
  -5.00000000       3.88373064E-06
  -4.94999981       2.35304742E-06
  -4.90000010      -1.82520466E-07
  -4.84999990      -3.18440743E-06
  -4.80000019      -5.88195417E-06
  -4.75000000      -7.45705802E-06
  -4.69999981      -7.26987673E-06
  -4.65000010      -5.06554261E-06
  -4.59999990      -1.10073870E-06
  -4.55000019       3.85436761E-06
  -4.50000000       8.65261609E-06
  -4.44999981       1.20219138E-05
  -4.40000010       1.28776492E-05
  -4.34999990       1.06209945E-05
  -4.30000019       5.34791616E-06
  -4.25000000      -2.08879260E-06
  -4.19999981      -1.01908890E-05
  -4.15000010      -1.70887251E-05
  -4.09999990      -2.09320224E-05
  -4.05000019      -2.03245654E-05
  -4.00000000      -1.47151504E-05
  -3.95000005      -4.65596622E-06
  -3.90000010       8.14722262E-06
  -3.84999990       2.10405706E-05
  -3.79999995       3.08874442E-05
  -3.75000000       3.47413770E-05
  -3.70000005       3.06122602E-05
  -3.65000010       1.81568412E-05
  -3.59999990      -9.03501189E-07
  -3.54999995      -2.28164554E-05
  -3.50000000      -4.23860038E-05
  -3.45000005      -5.40834262E-05
  -3.40000010      -5.34898863E-05
  -3.34999990      -3.87294931E-05
  -3.29999995      -1.14705890E-05
  -3.25000000       2.28948502E-05
  -3.20000005       5.61178276E-05
  -3.15000010       7.89527767E-05
  -3.09999990       8.36390245E-05
  -3.04999995       6.63635656E-05
  -3.00000000       2.89528380E-05
  -2.95000005      -2.08485235E-05
  -2.90000010      -7.08166554E-05
  -2.84999990      -1.07216940E-04
  -2.79999995      -1.18604781E-04
  -2.75000000      -9.94018701E-05
  -2.70000005      -5.21240327E-05
  -2.65000010       1.25763681E-05
  -2.59999990       7.82966599E-05
  -2.54999995       1.27201827E-04
  -2.50000000       1.45117752E-04
  -2.45000005       1.25892519E-04
  -2.40000010       7.36238944E-05
  -2.34999990       1.91904928E-06
  -2.29999995      -6.97619471E-05
  -2.25000000      -1.21696306E-04
  -2.20000005      -1.39765732E-04
  -2.15000010      -1.19770819E-04
  -2.09999990      -6.87787906E-05
  -2.04999995      -2.99058274E-06
  -2.00000000       5.72785830E-05
  -1.95000005       9.39569218E-05
  -1.89999998       9.68896275E-05
  -1.85000002       6.69887813E-05
  -1.79999995       1.58191742E-05
  -1.75000000      -3.82599683E-05
  -1.70000005      -7.61407136E-05
  -1.64999998      -8.42166628E-05
  -1.60000002      -5.87909490E-05
  -1.54999995      -7.22023105E-06
  -1.50000000       5.45272596E-05
  -1.45000005       1.07025902E-04
  -1.39999998       1.33508060E-04
  -1.35000002       1.24928309E-04
  -1.29999995       8.23978189E-05
  -1.25000000       1.63656805E-05
  -1.20000005      -5.69515942E-05
  -1.14999998      -1.20507430E-04
  -1.10000002      -1.61006974E-04
  -1.04999995      -1.71714797E-04
  -1.00000000      -1.52864799E-04
 -0.949999988      -1.10001725E-04
 -0.899999976      -5.13127161E-05
 -0.850000024       1.47683995E-05
 -0.800000012       8.07469623E-05
 -0.750000000       1.39850978E-04
 -0.699999988       1.85020064E-04
 -0.649999976       2.08196609E-04
 -0.600000024       2.00950963E-04
 -0.550000012       1.56847673E-04
 -0.500000000       7.50184990E-05
 -0.449999988      -3.64476000E-05
 -0.400000006      -1.59053583E-04
 -0.349999994      -2.65780371E-04
 -0.300000012      -3.26668232E-04
 -0.250000000      -3.17058497E-04
 -0.200000003      -2.26220101E-04
 -0.150000006      -6.34949538E-05
 -0.100000001       1.40541437E-04
  -5.00000007E-02   3.39116290E-04
   0.00000000       4.79846000E-04
   5.00000007E-02   5.18385088E-04
  0.100000001       4.31443914E-04
  0.150000006       2.25344440E-04
  0.200000003      -6.26895853E-05
  0.250000000      -3.71393777E-04
  0.300000012      -6.29110436E-04
  0.349999994      -7.70938699E-04
  0.400000006      -7.55067158E-04
  0.449999988      -5.74095815E-04
  0.500000000      -2.58386950E-04
  0.550000012       1.29543070E-04
  0.600000024       5.08399971E-04
  0.649999976       7.96220847E-04
  0.699999988       9.29091475E-04
  0.750000000       8.76208185E-04
  0.800000012       6.47809706E-04
  0.850000024       2.94026075E-04
  0.899999976      -1.05375075E-04
  0.949999988      -4.58381663E-04
   1.00000000      -6.81643491E-04
   1.04999995      -7.20267359E-04
   1.10000002      -5.61802299E-04
   1.14999998      -2.40706853E-04
   1.20000005       1.68435858E-04
   1.25000000       5.68047923E-04
   1.29999995       8.61400331E-04
   1.35000002       9.77441552E-04
   1.39999998       8.90104624E-04
   1.45000005       6.26538531E-04
   1.50000000       2.61349545E-04
   1.54999995      -1.02307924E-04
   1.60000002      -3.60113074E-04
   1.64999998      -4.34995163E-04
   1.70000005      -2.98451050E-04
   1.75000000       2.16295120E-05
   1.79999995       4.49200365E-04
   1.85000002       8.82128312E-04
   1.89999998       1.22158264E-03
   1.95000005       1.39988645E-03
   2.00000000       1.39841100E-03
   2.04999995       1.25025329E-03
   2.09999990       1.02732994E-03
   2.15000010       8.16527405E-04
   2.20000005       6.92984788E-04
   2.25000000       6.99257187E-04
   2.29999995       8.36808176E-04
   2.34999990       1.07181002E-03
   2.40000010       1.35219831E-03
   2.45000005       1.62912230E-03
   2.50000000       1.87470508E-03
   2.54999995       2.08977610E-03
   2.59999990       2.29928526E-03
   2.65000010       2.53789709E-03
   2.70000005       2.83200899E-03
   2.75000000       3.18572554E-03
   2.79999995       3.57668754E-03
   2.84999990       3.96372518E-03
   2.90000010       4.30361135E-03
   2.95000005       4.57049580E-03
   3.00000000       4.77034179E-03
   3.04999995       4.94437572E-03
   3.09999990       5.15953498E-03
   3.15000010       5.48873423E-03
   3.20000005       5.98763861E-03
   3.25000000       6.67609321E-03
   3.29999995       7.53090205E-03
   3.34999990       8.49277526E-03
   3.40000010       9.48539097E-03
   3.45000005       1.04403822E-02
   3.50000000       1.13200974E-02
   3.54999995       1.21307811E-02
   3.59999990       1.29220756E-02
   3.65000010       1.37732197E-02
   3.70000005       1.47704557E-02
   3.75000000       1.59827024E-02
   3.79999995       1.74427405E-02
   3.84999990       1.91391576E-02
   3.90000010       2.10209116E-02
   3.95000005       2.30128374E-02
   4.00000000       2.50375289E-02
   4.05000019       2.70378869E-02
   4.09999990       2.89946925E-02
   4.15000010       3.09352241E-02
   4.19999981       3.29310074E-02
   4.25000000       3.50851379E-02
   4.30000019       3.75117697E-02
   4.34999990       4.03118469E-02
   4.40000010       4.35503609E-02
   4.44999981       4.72403318E-02
   4.50000000       5.13381399E-02
   4.55000019       5.57525381E-02
   4.59999990       6.03668578E-02
   4.65000010       6.50702268E-02
   4.69999981       6.97906241E-02
   4.75000000       7.45208412E-02
   4.80000019       7.93294534E-02
   4.84999990       8.43519717E-02
   4.90000010       8.97629261E-02
   4.94999981       9.57354531E-02
   5.00000000      0.102399170    
   5.05000019      0.109809034    
   5.09999990      0.117934585    
   5.15000010      0.126673982    
   5.19999981      0.135889083    
   5.25000000      0.145451173    
   5.30000019      0.155283600    
   5.34999990      0.165388018    
   5.40000010      0.175846592    
   5.44999981      0.186800063    
   5.50000000      0.198409572    
   5.55000019      0.210815251    
   5.59999990      0.224105224    
   5.65000010      0.238304600    
   5.69999981      0.253386378    
   5.75000000      0.269299269    
   5.80000019      0.286000729    
   5.84999990      0.303483814    
   5.90000010      0.321787983    
   5.94999981      0.340991616    
   6.00000000      0.361190408    
   6.05000019      0.382470906    
   6.09999990      0.404889584    
   6.15000010      0.428465515    
   6.19999981      0.453188568    
   6.25000000      0.479039103    
   6.30000019      0.506010950    
   6.34999990      0.534128964    
   6.40000010      0.563454568    
   6.44999981      0.594077528    
   6.50000000      0.626098812    
   6.55000019      0.659610391    
   6.59999990      0.694680333    
   6.65000010      0.731347501    
   6.69999981      0.769627094    
   6.75000000      0.809523523    
   6.80000019      0.851044714    
   6.84999990      0.894212723    
   6.90000010      0.939067543    
   6.94999981      0.985663354    
   7.00000000       1.03406119    
   7.05000019       1.08432055    
   7.09999990       1.13649416    
   7.15000010       1.19062698    
   7.19999981       1.24675763    
   7.25000000       1.30492032    
   7.30000019       1.36514759    
   7.34999990       1.42746961    
   7.40000010       1.49191523    
   7.44999981       1.55851245    
   7.50000000       1.62729323    
   7.55000019       1.69829965    
   7.59999990       1.77158833    
   7.65000010       1.84723175    
   7.69999981       1.92531133    
   7.75000000       2.00590324    
   7.80000019       2.08905935    
   7.84999990       2.17479229    
   7.90000010       2.26306844    
   7.94999981       2.35381627    
   8.00000000       2.44694853    
   8.05000019       2.54239345    
   8.10000038       2.64012194    
   8.14999962       2.74016881    
   8.19999981       2.84262586    
   8.25000000       2.94762158    
   8.30000019       3.05528498    
   8.35000038       3.16570830    
   8.39999962       3.27892089    
   8.44999981       3.39488602    
   8.50000000       3.51351690    
   8.55000019       3.63471150    
   8.60000038       3.75838661    
   8.64999962       3.88450336    
   8.69999981       4.01307154    
   8.75000000       4.14413071    
   8.80000019       4.27771902    
   8.85000038       4.41384077    
   8.89999962       4.55244923    
   8.94999981       4.69344473    
   9.00000000       4.83670378    
   9.05000019       4.98211145    
   9.10000038       5.12959671    
   9.14999962       5.27915239    
   9.19999981       5.43082809    
   9.25000000       5.58470297    
   9.30000019       5.74084806    
   9.35000038       5.89928913    
   9.39999962       6.05998135    
   9.44999981       6.22281551    
   9.50000000       6.38763475    
   9.55000019       6.55427074    
   9.60000038       6.72257042    
   9.64999962       6.89242125    
   9.69999981       7.06374359    
   9.75000000       7.23648214    
   9.80000019       7.41058493    
   9.85000038       7.58599377    
   9.89999962       7.76264048    
   9.94999981       7.94046450    
   10.0000000       8.11942863    
   10.0500002       8.29953098    
   10.1000004       8.48080540    
   10.1499996       8.66329575    
   10.1999998       8.84701920    
   10.2500000       9.03193569    
   10.3000002       9.21791553    
   10.3500004       9.40475464    
   10.3999996       9.59219074    
   10.4499998       9.77996159    
   10.5000000       9.96785355    
   10.5500002       10.1557426    
   10.6000004       10.3436012    
   10.6499996       10.5314827    
   10.6999998       10.7194786    
   10.7500000       10.9076738    
   10.8000002       11.0961027    
   10.8500004       11.2847404    
   10.8999996       11.4735012    
   10.9499998       11.6622715    
   11.0000000       11.8509388    
   11.0500002       12.0394144    
   11.1000004       12.2276354    
   11.1499996       12.4155550    
   11.1999998       12.6031237    
   11.2500000       12.7902737    
   11.3000002       12.9769106    
   11.3500004       13.1629295    
   11.3999996       13.3482332    
   11.4499998       13.5327587    
   11.5000000       13.7164907    
   11.5500002       13.8994579    
   11.6000004       14.0817118    
   11.6499996       14.2633009    
   11.6999998       14.4442472    
   11.7500000       14.6245394    
   11.8000002       14.8041344    
   11.8500004       14.9829865    
   11.8999996       15.1610680    
   11.9499998       15.3383818    
   12.0000000       15.5149584    
   12.0500002       15.6908369    
   12.1000004       15.8660326    
   12.1499996       16.0405178    
   12.1999998       16.2142200    
   12.2500000       16.3870373    
   12.3000002       16.5588722    
   12.3500004       16.7296791    
   12.3999996       16.8994865    
   12.4499998       17.0683956    
   12.5000000       17.2365494    
   12.5500002       17.4040966    
   12.6000004       17.5711308    
   12.6499996       17.7376709    
   12.6999998       17.9036694    
   12.7500000       18.0690308    
   12.8000002       18.2336845    
   12.8500004       18.3976192    
   12.8999996       18.5609035    
   12.9499998       18.7236767    
   13.0000000       18.8861008    
   13.0500002       19.0482922    
   13.1000004       19.2102833    
   13.1499996       19.3719940    
   13.1999998       19.5332661    
   13.2500000       19.6939163    
   13.3000002       19.8538227    
   13.3500004       20.0129604    
   13.3999996       20.1714325    
   13.4499998       20.3294468    
   13.5000000       20.4872379    
   13.5500002       20.6450024    
   13.6000004       20.8028278    
   13.6499996       20.9606895    
   13.6999998       21.1184616    
   13.7500000       21.2759838    
   13.8000002       21.4331284    
   13.8500004       21.5898418    
   13.8999996       21.7461643    
   13.9499998       21.9021873    
   14.0000000       22.0580006    
   14.0500002       22.2136383    
   14.1000004       22.3690472    
   14.1499996       22.5240955    
   14.1999998       22.6786232    
   14.2500000       22.8325081    
   14.3000002       22.9857140    
   14.3500004       23.1383057    
   14.3999996       23.2904320    
   14.4499998       23.4422531    
   14.5000000       23.5938702    
   14.5500002       23.7452641    
   14.6000004       23.8962917    
   14.6499996       24.0467052    
   14.6999998       24.1962242    
   14.7500000       24.3446083    
   14.8000002       24.4917164    
   14.8500004       24.6375122    
   14.8999996       24.7820396    
   14.9499998       24.9253674    
   15.0000000       25.0675068    
   15.0500002       25.2084007    
   15.1000004       25.3479061    
   15.1499996       25.4858398    
   15.1999998       25.6220226    
   15.2500000       25.7563381    
   15.3000002       25.8887386    
   15.3500004       26.0192165    
   15.3999996       26.1477509    
   15.4499998       26.2742672    
   15.5000000       26.3985691    
   15.5500002       26.5203800    
   15.6000004       26.6393528    
   15.6499996       26.7551708    
   15.6999998       26.8675995    
   15.7500000       26.9765320    
   15.8000002       27.0819778    
   15.8500004       27.1840038    
   15.8999996       27.2826710    
   15.9499998       27.3779411    
   16.0000000       27.4696579    
   16.0499992       27.5575390    
   16.1000004       27.6412430    
   16.1499996       27.7204323    
   16.2000008       27.7948418    
   16.2500000       27.8643017    
   16.2999992       27.9287281    
   16.3500004       27.9880714    
   16.3999996       28.0422611    
   16.4500008       28.0911560    
   16.5000000       28.1345367    
   16.5499992       28.1721420    
   16.6000004       28.2037163    
   16.6499996       28.2290668    
   16.7000008       28.2480888    
   16.7500000       28.2607441    
   16.7999992       28.2670288    
   16.8500004       28.2669029    
   16.8999996       28.2602425    
   16.9500008       28.2468281    
   17.0000000       28.2263851    
   17.0499992       28.1986332    
   17.1000004       28.1633568    
   17.1499996       28.1204491    
   17.2000008       28.0699158    
   17.2500000       28.0118237    
   17.2999992       27.9462433    
   17.3500004       27.8731728    
   17.3999996       27.7925034    
   17.4500008       27.7040310    
   17.5000000       27.6075077    
   17.5499992       27.5027199    
   17.6000004       27.3895531    
   17.6499996       27.2680206    
   17.7000008       27.1382504    
   17.7500000       27.0004349    
   17.7999992       26.8547573    
   17.8500004       26.7013264    
   17.8999996       26.5401649    
   17.9500008       26.3712215    
   18.0000000       26.1944180    
   18.0499992       26.0097218    
   18.1000004       25.8171616    
   18.1499996       25.6168480    
   18.2000008       25.4089413    
   18.2500000       25.1935997    
   18.2999992       24.9709454    
   18.3500004       24.7410526    
   18.3999996       24.5039730    
   18.4500008       24.2597885    
   18.5000000       24.0086632    
   18.5499992       23.7508793    
   18.6000004       23.4868202    
   18.6499996       23.2169094    
   18.7000008       22.9415417    
   18.7500000       22.6610088    
   18.7999992       22.3754673    
   18.8500004       22.0849648    
   18.8999996       21.7895069    
   18.9500008       21.4891491    
   19.0000000       21.1840820    
   19.0499992       20.8746643    
   19.1000004       20.5613918    
   19.1499996       20.2448215    
   19.2000008       19.9254818    
   19.2500000       19.6037846    
   19.2999992       19.2800007    
   19.3500004       18.9542885    
   19.3999996       18.6267624    
   19.4500008       18.2976017    
   19.5000000       17.9670963    
   19.5499992       17.6356754    
   19.6000004       17.3038673    
   19.6499996       16.9722118    
   19.7000008       16.6411877    
   19.7500000       16.3111458    
   19.7999992       15.9823160    
   19.8500004       15.6548595    
   19.8999996       15.3289442    
   19.9500008       15.0048265    
   20.0000000       14.6828957    
   20.0499992       14.3636484    
   20.1000004       14.0476332    
   20.1499996       13.7353535    
   20.2000008       13.4271946    
   20.2500000       13.1233892    
   20.2999992       12.8240385    
   20.3500004       12.5291901    
   20.3999996       12.2389240    
   20.4500008       11.9534349    
   20.5000000       11.6730471    
   20.5499992       11.3981962    
   20.6000004       11.1293545    
   20.6499996       10.8669395    
   20.7000008       10.6112509    
   20.7500000       10.3624353    
   20.7999992       10.1205263    
   20.8500004       9.88549519    
   20.8999996       9.65733147    
   20.9500008       9.43609715    
   21.0000000       9.22194672    
   21.0499992       9.01510811    
   21.1000004       8.81583309    
   21.1499996       8.62434196    
   21.2000008       8.44078636    
   21.2500000       8.26523685    
   21.2999992       8.09770203    
   21.3500004       7.93815613    
   21.3999996       7.78656721    
   21.4500008       7.64290857    
   21.5000000       7.50715590    
   21.5499992       7.37927008    
   21.6000004       7.25918436    
   21.6499996       7.14680576    
   21.7000008       7.04202843    
   21.7500000       6.94476652    
   21.7999992       6.85496998    
   21.8500004       6.77263546    
   21.8999996       6.69777822    
   21.9500008       6.63039398    
   22.0000000       6.57041502    
   22.0499992       6.51768017    
   22.1000004       6.47193623    
   22.1499996       6.43287468    
   22.2000008       6.40018702    
   22.2500000       6.37362194    
   22.2999992       6.35302162    
   22.3500004       6.33831644    
   22.3999996       6.32948351    
   22.4500008       6.32648373    
   22.5000000       6.32920265    
   22.5499992       6.33741856    
   22.6000004       6.35081482    
   22.6499996       6.36902428    
   22.7000008       6.39169407    
   22.7500000       6.41854095    
   22.7999992       6.44937658    
   22.8500004       6.48409128    
   22.8999996       6.52260303    
   22.9500008       6.56479979    
   23.0000000       6.61049938    
   23.0499992       6.65944147    
   23.1000004       6.71131849    
   23.1499996       6.76582670    
   23.2000008       6.82272148    
   23.2500000       6.88184643    
   23.2999992       6.94311476    
   23.3500004       7.00646544    
   23.3999996       7.07179546    
   23.4500008       7.13891268    
   23.5000000       7.20752192    
   23.5499992       7.27725744    
   23.6000004       7.34774780    
   23.6499996       7.41869450    
   23.7000008       7.48992682    
   23.7500000       7.56141043    
   23.7999992       7.63320923    
   23.8500004       7.70540810    
   23.8999996       7.77803135    
   23.9500008       7.85098839    
   24.0000000       7.92406130    
   24.0499992       7.99694633    
   24.1000004       8.06932735    
   24.1499996       8.14094639    
   24.2000008       8.21165466    
   24.2500000       8.28141212    
   24.2999992       8.35024929    
   24.3500004       8.41820526    
   24.3999996       8.48527145    
   24.4500008       8.55137348    
   24.5000000       8.61637592    
   24.5499992       8.68013287    
   24.6000004       8.74254227    
   24.6499996       8.80358601    
   24.7000008       8.86332130    
   24.7500000       8.92184544    
   24.7999992       8.97923183    
   24.8500004       9.03547382    
   24.8999996       9.09045124    
   24.9500008       9.14396095    
   25.0000000       9.19576740    
   25.0499992       9.24568939    
   25.1000004       9.29366112    
   25.1499996       9.33975887    
   25.2000008       9.38417530    
   25.2500000       9.42714787    
   25.2999992       9.46887398    
   25.3500004       9.50944424    
   25.3999996       9.54881191    
   25.4500008       9.58682823    
   25.5000000       9.62330246    
   25.5499992       9.65808296    
   25.6000004       9.69112015    
   25.6499996       9.72249031    
   25.7000008       9.75235748    
   25.7500000       9.78092384    
   25.7999992       9.80835724    
   25.8500004       9.83474159    
   25.8999996       9.86006546    
   25.9500008       9.88425446    
   26.0000000       9.90721130    
   26.0499992       9.92887402    
   26.1000004       9.94923782    
   26.1499996       9.96835995    
   26.2000008       9.98632622    
   26.2500000       10.0032148    
   26.2999992       10.0190716    
   26.3500004       10.0339012    
   26.3999996       10.0476894    
   26.4500008       10.0604382    
   26.5000000       10.0721960    
   26.5499992       10.0830679    
   26.6000004       10.0931978    
   26.6499996       10.1027288    
   26.7000008       10.1117582    
   26.7500000       10.1203098    
   26.7999992       10.1283312    
   26.8500004       10.1357203    
   26.8999996       10.1423759    
   26.9500008       10.1482391    
   27.0000000       10.1533213    
   27.0499992       10.1576967    
   27.1000004       10.1614704    
   27.1499996       10.1647415    
   27.2000008       10.1675644    
   27.2500000       10.1699524    
   27.2999992       10.1718893    
   27.3500004       10.1733770    
   27.3999996       10.1744661    
   27.4500008       10.1752653    
   27.5000000       10.1759233    
   27.5499992       10.1765718    
   27.6000004       10.1772671    
   27.6499996       10.1779499    
   27.7000008       10.1784506    
   27.7500000       10.1785307    
   27.7999992       10.1779699    
   27.8500004       10.1766520    
   27.8999996       10.1746216    
   27.9500008       10.1720877    
   28.0000000       10.1693726    
   28.0499992       10.1668148    
   28.1000004       10.1646652    
   28.1499996       10.1630135    
   28.2000008       10.1617699    
   28.2500000       10.1607113    
   28.2999992       10.1595621    
   28.3500004       10.1580944    
   28.3999996       10.1561928    
   28.4500008       10.1538754    
   28.5000000       10.1512623    
   28.5499992       10.1485033    
   28.6000004       10.1457090    
   28.6499996       10.1429090    
   28.7000008       10.1400557    
   28.7500000       10.1370659    
   28.7999992       10.1338844    
   28.8500004       10.1305428    
   28.8999996       10.1271706    
   28.9500008       10.1239634    
   29.0000000       10.1211224    
   29.0499992       10.1187706    
   29.1000004       10.1168995    
   29.1499996       10.1153603    
   29.2000008       10.1138992    
   29.2500000       10.1122389    
   29.2999992       10.1101627    
   29.3500004       10.1075821    
   29.3999996       10.1045504    
   29.4500008       10.1012402    
   29.5000000       10.0978756    
   29.5499992       10.0946636    
   29.6000004       10.0917349    
   29.6499996       10.0891285    
   29.7000008       10.0868034    
   29.7500000       10.0846739    
   29.7999992       10.0826559    
   29.8500004       10.0806904    
   29.8999996       10.0787449    
   29.9500008       10.0768042    
   30.0000000       10.0748520    
   30.0499992       10.0728598    
   30.1000004       10.0707893    
   30.1499996       10.0686178    
   30.2000008       10.0663605    
   30.2500000       10.0640774    
   30.2999992       10.0618639    
   30.3500004       10.0598125    
   30.3999996       10.0579786    
   30.4500008       10.0563440    
   30.5000000       10.0548105    
   30.5499992       10.0532331    
   30.6000004       10.0514727    
   30.6499996       10.0494576    
   30.7000008       10.0472183    
   30.7500000       10.0448942    
   30.7999992       10.0426817    
   30.8500004       10.0407686    
   30.8999996       10.0392513    
   30.9500008       10.0380964    
   31.0000000       10.0371380    
   31.0499992       10.0361366    
   31.1000004       10.0348635    
   31.1499996       10.0331888    
   31.2000008       10.0311356    
   31.2500000       10.0288734    
   31.2999992       10.0266600    
   31.3500004       10.0247440    
   31.3999996       10.0232773    
   31.4500008       10.0222511    
   31.5000000       10.0214996    
   31.5499992       10.0207605    
   31.6000004       10.0197649    
   31.6499996       10.0183401    
   31.7000008       10.0164623    
   31.7500000       10.0142651    
   31.7999992       10.0119829    
   31.8500004       10.0098686    
   31.8999996       10.0081072    
   31.9500008       10.0067539    
   32.0000000       10.0057335    
   32.0499992       10.0048742    
   32.0999985       10.0039825    
   32.1500015       10.0029097    
   32.2000008       10.0015945    
   32.2500000       10.0000725    
   32.2999992       9.99844456    
   32.3499985       9.99683189    
   32.4000015       9.99532127    
   32.4500008       9.99394608    
   32.5000000       9.99268055    
   32.5499992       9.99146175    
   32.5999985       9.99022102    
   32.6500015       9.98891258    
   32.7000008       9.98751640    
   32.7500000       9.98603630    
   32.7999992       9.98448658    