  -10.0000000       0.00000000    
  -9.94999981       0.00000000    
  -9.89999962       0.00000000    
  -9.85000038       0.00000000    
  -9.80000019       0.00000000    
  -9.75000000       0.00000000    
  -9.69999981       0.00000000    
  -9.64999962       0.00000000    
  -9.60000038       0.00000000    
  -9.55000019      -4.90612521E-32
  -9.50000000      -1.20147244E-29
  -9.44999981      -1.50898609E-28
  -9.39999962      -9.87763054E-28
  -9.35000038      -4.66498636E-27
  -9.30000019      -1.91446850E-26
  -9.25000000      -7.50304158E-26
  -9.19999981      -2.77042107E-25
  -9.14999962      -9.06242718E-25
  -9.10000038      -2.49321678E-24
  -9.05000019      -5.52691215E-24
  -9.00000000      -9.19838479E-24
  -8.94999981      -8.98991489E-24
  -8.89999962       4.85978668E-24
  -8.85000038       4.17550609E-23
  -8.80000019       8.91492025E-23
  -8.75000000       7.47541570E-23
  -8.69999981      -1.56464931E-22
  -8.64999962      -7.69596392E-22
  -8.60000038      -1.66609311E-21
  -8.55000019      -1.99977254E-21
  -8.50000000       2.14204210E-22
  -8.44999981       7.60665517E-21
  -8.39999962       2.09913818E-20
  -8.35000038       3.44902036E-20
  -8.30000019       3.01783017E-20
  -8.25000000      -2.18124183E-20
  -8.19999981      -1.48378883E-19
  -8.14999962      -3.36447597E-19
  -8.10000038      -4.80112223E-19
  -8.05000019      -3.44957916E-19
  -8.00000000       3.86699001E-19
  -7.94999981       1.91744457E-18
  -7.90000010       3.96256116E-18
  -7.84999990       5.32237743E-18
  -7.80000019       3.72383973E-18
  -7.75000000      -3.57616938E-18
  -7.69999981      -1.79972548E-17
  -7.65000010      -3.67296250E-17
  -7.59999990      -4.98121911E-17
  -7.55000019      -3.95453213E-17
  -7.50000000       1.46704833E-17
  -7.44999981       1.23856546E-16
  -7.40000010       2.70576999E-16
  -7.34999990       3.90873333E-16
  -7.30000019       3.70787852E-16
  -7.25000000       7.42736788E-17
  -7.19999981      -5.86541623E-16
  -7.15000010      -1.54629454E-15
  -7.09999990      -2.48384365E-15
  -7.05000019      -2.79048059E-15
  -7.00000000      -1.69020364E-15
  -6.94999981       1.43396082E-15
  -6.90000010       6.53601920E-15
  -6.84999990       1.23831194E-14
  -6.80000019       1.63027500E-14
  -6.75000000       1.45537099E-14
  -6.69999981       3.57638952E-15
  -6.65000010      -1.79329733E-14
  -6.59999990      -4.66740362E-14
  -6.55000019      -7.31953357E-14
  -6.50000000      -8.25114852E-14
  -6.44999981      -5.79906132E-14
  -6.40000010       1.13841914E-14
  -6.34999990       1.21948269E-13
  -6.30000019       2.47920879E-13
  -6.25000000       3.40258014E-13
  -6.19999981       3.36023229E-13
  -6.15000010       1.79747967E-13
  -6.09999990      -1.46742156E-13
  -6.05000019      -5.95503952E-13
  -6.00000000      -1.03862188E-12
  -5.94999981      -1.28341858E-12
  -5.90000010      -1.12437230E-12
  -5.84999990      -4.26208575E-13
  -5.80000019       7.84225170E-13
  -5.75000000       2.25406521E-12
  -5.69999981       3.50933236E-12
  -5.65000010       3.95674465E-12
  -5.59999990       3.07961794E-12
  -5.55000019       6.82288210E-13
  -5.50000000      -2.90256577E-12
  -5.44999981      -6.74732926E-12
  -5.40000010      -9.48621650E-12
  -5.34999990      -9.71202632E-12
  -5.30000019      -6.53091426E-12
  -5.25000000      -9.39565334E-14
  -5.19999981       8.13096552E-12
  -5.15000010       1.55533000E-11
  -5.09999990       1.91927810E-11
  -5.05000019       1.68098157E-11
  -5.00000000       8.06477281E-12
  -4.94999981      -4.80302473E-12
  -4.90000010      -1.72445114E-11
  -4.84999990      -2.38150073E-11
  -4.80000019      -2.04696277E-11
  -4.75000000      -6.96941463E-12
  -4.69999981       1.17085933E-11
  -4.65000010       2.60104143E-11
  -4.59999990       2.49799712E-11
  -4.55000019       1.44448570E-12
  -4.50000000      -4.24768519E-11
  -4.44999981      -9.20644880E-11
  -4.40000010      -1.21416682E-10
  -4.34999990      -1.00965881E-10
  -4.30000019      -1.02246224E-11
  -4.25000000       1.47850468E-10
  -4.19999981       3.36711325E-10
  -4.15000010       4.86649054E-10
  -4.09999990       5.10118281E-10
  -4.05000019       3.31564665E-10
  -4.00000000      -7.49876619E-11
  -3.95000005      -6.53251953E-10
  -3.90000010      -1.25241562E-09
  -3.84999990      -1.64831226E-09
  -3.79999995      -1.60231028E-09
  -3.75000000      -9.48615742E-10
  -3.70000005       3.13955334E-10
  -3.65000010       1.95986649E-09
  -3.59999990       3.53878238E-09
  -3.54999995       4.46280879E-09
  -3.50000000       4.17477297E-09
  -3.45000005       2.36115039E-09
  -3.40000010      -8.55104376E-10
  -3.34999990      -4.81920015E-09
  -3.29999995      -8.41143155E-09
  -3.25000000      -1.03007842E-08
  -3.20000005      -9.34842070E-09
  -3.15000010      -5.05929387E-09
  -3.09999990       2.06577777E-09
  -3.04999995       1.04298499E-08
  -3.00000000       1.75943597E-08
  -2.95000005       2.08920294E-08
  -2.90000010       1.82755571E-08
  -2.84999990       9.16532361E-09
  -2.79999995      -4.99879338E-09
  -2.75000000      -2.07638298E-08
  -2.70000005      -3.33577752E-08
  -2.65000010      -3.79908904E-08
  -2.59999990      -3.14546611E-08
  -2.54999995      -1.35362468E-08
  -2.50000000       1.22752812E-08
  -2.45000005       3.91828223E-08
  -2.40000010       5.86707110E-08
  -2.34999990       6.29939407E-08
  -2.29999995       4.79023967E-08
  -2.25000000       1.47222670E-08
  -2.20000005      -2.90350215E-08
  -2.15000010      -7.10225123E-08
  -2.09999990      -9.72754606E-08
  -2.04999995      -9.65528670E-08
  -2.00000000      -6.45398401E-08
  -1.95000005      -6.46871312E-09
  -1.89999998       6.30001580E-08
  -1.85000002       1.23067210E-07
  -1.79999995       1.52678595E-07
  -1.75000000       1.37456581E-07
  -1.70000005       7.55143716E-08
  -1.64999998      -1.99799715E-08
  -1.60000002      -1.22865004E-07
  -1.54999995      -2.00698622E-07
  -1.50000000      -2.24575885E-07
  -1.45000005      -1.79218162E-07
  -1.39999998      -6.99808851E-08
  -1.35000002       7.60281154E-08
  -1.29999995       2.15944240E-07
  -1.25000000       3.03247674E-07
  -1.20000005       3.02749640E-07
  -1.14999998       2.03809407E-07
  -1.10000002       2.70802580E-08
  -1.04999995      -1.78370470E-07
  -1.00000000      -3.47882150E-07
 -0.949999988      -4.20941859E-07
 -0.899999976      -3.62065379E-07
 -0.850000024      -1.75881766E-07
 -0.800000012       8.94577710E-08
 -0.750000000       3.53215995E-07
 -0.699999988       5.25474491E-07
 -0.649999976       5.36629329E-07
 -0.600000024       3.63689963E-07
 -0.550000012       4.39874697E-08
 -0.500000000      -3.30010892E-07
 -0.449999988      -6.35429899E-07
 -0.400000006      -7.57305429E-07
 -0.349999994      -6.29126646E-07
 -0.300000012      -2.62011753E-07
 -0.250000000       2.48930917E-07
 -0.200000003       7.46177705E-07
 -0.150000006       1.05554250E-06
 -0.100000001       1.04361925E-06
  -5.00000007E-02   6.68847804E-07
   0.00000000       7.99971556E-09
   5.00000007E-02  -7.54085818E-07
  0.100000001      -1.37276584E-06
  0.150000006      -1.61839830E-06
  0.200000003      -1.35581547E-06
  0.250000000      -6.02276543E-07
  0.300000012       4.58308961E-07
  0.349999994       1.51515769E-06
  0.400000006       2.21782193E-06
  0.449999988       2.28758881E-06
  0.500000000       1.61893513E-06
  0.550000012       3.36102545E-07
  0.600000024      -1.21939559E-06
  0.649999976      -2.57447005E-06
  0.699999988      -3.26374561E-06
  0.750000000      -2.98284567E-06
  0.800000012      -1.70689839E-06
  0.850000024       2.68624717E-07
  0.899999976       2.38696930E-06
  0.949999988       3.98102338E-06
   1.00000000       4.47713001E-06
   1.04999995       3.59127785E-06
   1.10000002       1.45307160E-06
   1.14999998      -1.39053054E-06
   1.20000005      -4.10579241E-06
   1.25000000      -5.80911183E-06
   1.29999995      -5.84500003E-06
   1.35000002      -4.01991383E-06
   1.39999998      -7.12344047E-07
   1.45000005       3.18857747E-06
   1.50000000       6.51335631E-06
   1.54999995       8.15432668E-06
   1.60000002       7.42154771E-06
   1.64999998       4.30060936E-06
   1.70000005      -4.78578784E-07
   1.75000000      -5.60102490E-06
   1.79999995      -9.52403389E-06
   1.85000002      -1.09373577E-05
   1.89999998      -9.18998740E-06
   1.95000005      -4.54656720E-06
   2.00000000       1.82108283E-06
   2.04999995       8.12584585E-06
   2.09999990       1.24710978E-05
   2.15000010       1.34280281E-05
   2.20000005       1.05087101E-05
   2.25000000       4.37885728E-06
   2.29999995      -3.27506746E-06
   2.34999990      -1.02067552E-05
   2.40000010      -1.42763529E-05
   2.45000005      -1.41259561E-05
   2.50000000      -9.65143681E-06
   2.54999995      -2.10760072E-06
   2.59999990       6.21118306E-06
   2.65000010       1.26417945E-05
   2.70000005       1.49846246E-05
   2.75000000       1.22428082E-05
   2.79999995       5.02587682E-06
   2.84999990      -4.53460962E-06
   2.90000010      -1.33649983E-05
   2.95000005      -1.83751854E-05
   3.00000000      -1.74593988E-05
   3.04999995      -1.02585054E-05
   3.09999990       1.57618945E-06
   3.15000010       1.47379096E-05
   3.20000005       2.51709462E-05
   3.25000000       2.92827244E-05
   3.29999995       2.51021502E-05
   3.34999990       1.30178196E-05
   3.40000010      -4.16265539E-06
   3.45000005      -2.18949463E-05
   3.50000000      -3.51567360E-05
   3.54999995      -3.99277596E-05
   3.59999990      -3.44463369E-05
   3.65000010      -1.98423149E-05
   3.70000005       8.08031047E-08
   3.75000000       1.98879716E-05
   3.79999995       3.40933402E-05
   3.84999990       3.88113367E-05
   3.90000010       3.29657851E-05
   3.95000005       1.86605084E-05
   4.00000000       5.62660261E-07
   4.05000019      -1.55423568E-05
   4.09999990      -2.45931751E-05
   4.15000010      -2.39128076E-05
   4.19999981      -1.41391320E-05
   4.25000000       9.12122516E-07
   4.30000019       1.54577338E-05
   4.34999990       2.36835185E-05
   4.40000010       2.17991637E-05
   4.44999981       9.52573646E-06
   4.50000000      -9.52718165E-06
   4.55000019      -2.88065785E-05
   4.59999990      -4.08700289E-05
   4.65000010      -3.99486635E-05
   4.69999981      -2.41992184E-05
   4.75000000       3.14318368E-06
   4.80000019       3.42081257E-05
   4.84999990       5.85471607E-05
   4.90000010       6.62987732E-05
   4.94999981       5.15473803E-05
   5.00000000       1.48139479E-05
   5.05000019      -3.62076316E-05
   5.09999990      -8.80813968E-05
   5.15000010      -1.24998201E-04
   5.19999981      -1.33229158E-04
   5.25000000      -1.05402149E-04
   5.30000019      -4.32886045E-05
   5.34999990       4.18625459E-05
   5.40000010       1.31737892E-04
   5.44999981       2.05607867E-04
   5.50000000       2.45994510E-04
   5.55000019       2.43760645E-04
   5.59999990       2.01097413E-04
   5.65000010       1.31425084E-04
   5.69999981       5.60814369E-05
   5.75000000      -1.38492715E-06
   5.80000019      -2.17561374E-05
   5.84999990       4.35037646E-06
   5.90000010       7.36529764E-05
   5.94999981       1.70961241E-04
   6.00000000       2.73396290E-04
   6.05000019       3.56929260E-04
   6.09999990       4.03373240E-04
   6.15000010       4.05781670E-04
   6.19999981       3.70631547E-04
   6.25000000       3.16091784E-04
   6.30000019       2.66832183E-04
   6.34999990       2.46871554E-04
   6.40000010       2.72578152E-04
   6.44999981       3.47922323E-04
   6.50000000       4.63430682E-04
   6.55000019       5.99190767E-04
   6.59999990       7.31024717E-04
   6.65000010       8.37974832E-04
   6.69999981       9.08817747E-04
   6.75000000       9.45596781E-04
   6.80000019       9.63061349E-04
   6.84999990       9.84159764E-04
   6.90000010       1.03296386E-03
   6.94999981       1.12723152E-03
   7.00000000       1.27295626E-03
   7.05000019       1.46266737E-03
   7.09999990       1.67808169E-03
   7.15000010       1.89633481E-03
   7.19999981       2.09785346E-03
   7.25000000       2.27335515E-03
   7.30000019       2.42767157E-03
   7.34999990       2.57904641E-03
   7.40000010       2.75397650E-03
   7.44999981       2.97911628E-03
   7.50000000       3.27276881E-03
   7.55000019       3.63874505E-03
   7.59999990       4.06471780E-03
   7.65000010       4.52585844E-03
   7.69999981       4.99287527E-03
   7.75000000       5.44211827E-03
   7.80000019       5.86461648E-03
   7.84999990       6.27110293E-03
   7.90000010       6.69116760E-03
   7.94999981       7.16645131E-03
   8.00000000       7.73964357E-03
   8.05000019       8.44246522E-03
   8.10000038       9.28628352E-03
   8.14999962       1.02583878E-02
   8.19999981       1.13253621E-02
   8.25000000       1.24428757E-02
   8.30000019       1.35692293E-02
   8.35000038       1.46787595E-02
   8.39999962       1.57710817E-02
   8.44999981       1.68733019E-02
   8.50000000       1.80343445E-02
   8.55000019       1.93129238E-02
   8.60000038       2.07626317E-02
   8.64999962       2.24185586E-02
   8.69999981       2.42895056E-02
   8.75000000       2.63581853E-02
   8.80000019       2.85893790E-02
   8.85000038       3.09436601E-02
   8.89999962       3.33923735E-02
   8.94999981       3.59293111E-02
   9.00000000       3.85753512E-02
   9.05000019       4.13745120E-02
   9.10000038       4.43826728E-02
   9.14999962       4.76523899E-02
   9.19999981       5.12186959E-02
   9.25000000       5.50904647E-02
   9.30000019       5.92503920E-02
   9.35000038       6.36637434E-02
   9.39999962       6.82935193E-02
   9.44999981       7.31172264E-02
   9.50000000       7.81400427E-02
   9.55000019       8.34000632E-02
   9.60000038       8.89634863E-02
   9.64999962       9.49110761E-02
   9.69999981      0.101319596    
   9.75000000      0.108243831    
   9.80000019      0.115704775    
   9.85000038      0.123687737    
   9.89999962      0.132151261    
   9.94999981      0.141044304    
   10.0000000      0.150326818    
   10.0500002      0.159987479    
   10.1000004      0.170053467    
   10.1499996      0.180589244    
   10.1999998      0.191684648    
   10.2500000      0.203436136    
   10.3000002      0.215926453    
   10.3500004      0.229209200    
   10.3999996      0.243302196    
   10.4499998      0.258192122    
   10.5000000      0.273847997    
   10.5500002      0.290239602    
   10.6000004      0.307354629    
   10.6499996      0.325209767    
   10.6999998      0.343852103    
   10.7500000      0.363350719    
   10.8000002      0.383782208    
   10.8500004      0.405214041    
   10.8999996      0.427692294    
   10.9499998      0.451237589    
   11.0000000      0.475850135    
   11.0500002      0.501522660    
   11.1000004      0.528256714    
   11.1499996      0.556076050    
   11.1999998      0.585033000    
   11.2500000      0.615204751    
   11.3000002      0.646680117    
   11.3500004      0.679540753    
   11.3999996      0.713843167    
   11.4499998      0.749606967    
   11.5000000      0.786814868    
   11.5500002      0.825423717    
   11.6000004      0.865385711    
   11.6499996      0.906672180    
   11.6999998      0.949293733    
   11.7500000      0.993308663    
   11.8000002       1.03881800    
   11.8500004       1.08594549    
   11.8999996       1.13481033    
   11.9499998       1.18549824    
   12.0000000       1.23804080    
   12.0500002       1.29241037    
   12.1000004       1.34853232    
   12.1499996       1.40631115    
   12.1999998       1.46566451    
   12.2500000       1.52655590    
   12.3000002       1.58901262    
   12.3500004       1.65312648    
   12.3999996       1.71903372    
   12.4499998       1.78688049    
   12.5000000       1.85678327    
   12.5500002       1.92879498    
   12.6000004       2.00288963    
   12.6499996       2.07896686    
   12.6999998       2.15688086    
   12.7500000       2.23648071    
   12.8000002       2.31765389    
   12.8500004       2.40035892    
   12.8999996       2.48463726    
   12.9499998       2.57060146    
   13.0000000       2.65839887    
   13.0500002       2.74816728    
   13.1000004       2.83998895    
   13.1499996       2.93386149    
   13.1999998       3.02969074    
   13.2500000       3.12730908    
   13.3000002       3.22651505    
   13.3500004       3.32712197    
   13.3999996       3.42899990    
   13.4499998       3.53210306    
   13.5000000       3.63647127    
   13.5500002       3.74220943    
   13.6000004       3.84944558    
   13.6499996       3.95828676    
   13.6999998       4.06877995    
   13.7500000       4.18088770    
   13.8000002       4.29449081    
   13.8500004       4.40940762    
   13.8999996       4.52542925    
   13.9499998       4.64236116    
   14.0000000       4.76005316    
   14.0500002       4.87841988    
   14.1000004       4.99743795    
   14.1499996       5.11713028    
   14.1999998       5.23754072    
   14.2500000       5.35870266    
   14.3000002       5.48061609    
   14.3500004       5.60323620    
   14.3999996       5.72647667    
   14.4499998       5.85021925    
   14.5000000       5.97433329    
   14.5500002       6.09869528    
   14.6000004       6.22319984    
   14.6499996       6.34776640    
   14.6999998       6.47233200    
   14.7500000       6.59684229    
   14.8000002       6.72124100    
   14.8500004       6.84545946    
   14.8999996       6.96941280    
   14.9499998       7.09300566    
   15.0000000       7.21614361    
   15.0500002       7.33874464    
   15.1000004       7.46075344    
   15.1499996       7.58214045    
   15.1999998       7.70289850    
   15.2500000       7.82303238    
   15.3000002       7.94253731    
   15.3500004       8.06138039    
   15.3999996       8.17949009    
   15.4499998       8.29675198    
   15.5000000       8.41302395    
   15.5500002       8.52815342    
   15.6000004       8.64200783    
   15.6499996       8.75449944    
   15.6999998       8.86559486    
   15.7500000       8.97532177    
   15.8000002       9.08374977    
   15.8500004       9.19096375    
   15.8999996       9.29703522    
   15.9499998       9.40198994    
   16.0000000       9.50580311    
   16.0499992       9.60839367    
   16.1000004       9.70964622    
   16.1499996       9.80943871    
   16.2000008       9.90766621    
   16.2500000       10.0042725    
   16.2999992       10.0992527    
   16.3500004       10.1926508    
   16.3999996       10.2845449    
   16.4500008       10.3750210    
   16.5000000       10.4641523    
   16.5499992       10.5519810    
   16.6000004       10.6385164    
   16.6499996       10.7237406    
   16.7000008       10.8076162    
   16.7500000       10.8901119    
   16.7999992       10.9712057    
   16.8500004       11.0508938    
   16.8999996       11.1291962    
   16.9500008       11.2061453    
   17.0000000       11.2817869    
   17.0499992       11.3561754    
   17.1000004       11.4293699    
   17.1499996       11.5014353    
   17.2000008       11.5724401    
   17.2500000       11.6424532    
   17.2999992       11.7115421    
   17.3500004       11.7797613    
   17.3999996       11.8471527    
   17.4500008       11.9137383    
   17.5000000       11.9795218    
   17.5499992       12.0445004    
   17.6000004       12.1086721    
   17.6499996       12.1720486    
   17.7000008       12.2346621    
   17.7500000       12.2965736    
   17.7999992       12.3578634    
   17.8500004       12.4186287    
   17.8999996       12.4789696    
   17.9500008       12.5389776    
   18.0000000       12.5987320    
   18.0499992       12.6582956    
   18.1000004       12.7177095    
   18.1499996       12.7770042    
   18.2000008       12.8361959    
   18.2500000       12.8952942    
   18.2999992       12.9543009    
   18.3500004       13.0132227    
   18.3999996       13.0720739    
   18.4500008       13.1308813    
   18.5000000       13.1896954    
   18.5499992       13.2485809    
   18.6000004       13.3076296    
   18.6499996       13.3669348    
   18.7000008       13.4265852    
   18.7500000       13.4866495    
   18.7999992       13.5471706    
   18.8500004       13.6081562    
   18.8999996       13.6695910    
   18.9500008       13.7314491    
   19.0000000       13.7937098    
   19.0499992       13.8563738    
   19.1000004       13.9194660    
   19.1499996       13.9830399    
   19.2000008       14.0471506    
   19.2500000       14.1118536    
   19.2999992       14.1771851    
   19.3500004       14.2431526    
   19.3999996       14.3097477    
   19.4500008       14.3769493    
   19.5000000       14.4447451    
   19.5499992       14.5131445    
   19.6000004       14.5821781    
   19.6499996       14.6518955    
   19.7000008       14.7223549    
   19.7500000       14.7936001    
   19.7999992       14.8656540    
   19.8500004       14.9385138    
   19.8999996       15.0121479    
   19.9500008       15.0865183    
   20.0000000       15.1615858    
   20.0499992       15.2373228    
   20.1000004       15.3137188    
   20.1499996       15.3907709    
   20.2000008       15.4684744    
   20.2500000       15.5468225    
   20.2999992       15.6258030    
   20.3500004       15.7053986    
   20.3999996       15.7856035    
   20.4500008       15.8664322    
   20.5000000       15.9479170    
   20.5499992       16.0301075    
   20.6000004       16.1130505    
   20.6499996       16.1967735    
   20.7000008       16.2812634    
   20.7500000       16.3664665    
   20.7999992       16.4522915    
   20.8500004       16.5386314    
   20.8999996       16.6253948    
   20.9500008       16.7125206    
   21.0000000       16.7999973    
   21.0499992       16.8878517    
   21.1000004       16.9761353    
   21.1499996       17.0648880    
   21.2000008       17.1541348    
   21.2500000       17.2438622    
   21.2999992       17.3340302    
   21.3500004       17.4245911    
   21.3999996       17.5154991    
   21.4500008       17.6067390    
   21.5000000       17.6983109    
   21.5499992       17.7902184    
   21.6000004       17.8824539    
   21.6499996       17.9749680    
   21.7000008       18.0676746    
   21.7500000       18.1604538    
   21.7999992       18.2531872    
   21.8500004       18.3457813    
   21.8999996       18.4381981    
   21.9500008       18.5304699    
   22.0000000       18.6226749    
   22.0499992       18.7149086    
   22.1000004       18.8072357    
   22.1499996       18.8996601    
   22.2000008       18.9921112    
   22.2500000       19.0844536    
   22.2999992       19.1765289    
   22.3500004       19.2681942    
   22.3999996       19.3593597    
   22.4500008       19.4499931    
   22.5000000       19.5401096    
   22.5499992       19.6297417    
   22.6000004       19.7189026    
   22.6499996       19.8075428    
   22.7000008       19.8955612    
   22.7500000       19.9828281    
   22.7999992       20.0692062    
   22.8500004       20.1545982    
   22.8999996       20.2389736    
   22.9500008       20.3223553    
   23.0000000       20.4047890    
   23.0499992       20.4863071    
   23.1000004       20.5668831    
   23.1499996       20.6464214    
   23.2000008       20.7247639    
   23.2500000       20.8017254    
   23.2999992       20.8771458    
   23.3500004       20.9509220    
   23.3999996       21.0230236    
   23.4500008       21.0934772    
   23.5000000       21.1623211    
   23.5499992       21.2295570    
   23.6000004       21.2951145    
   23.6499996       21.3588543    
   23.7000008       21.4205799    
   23.7500000       21.4800968    
   23.7999992       21.5372581    
   23.8500004       21.5919952    
   23.8999996       21.6443119    
   23.9500008       21.6942520    
   24.0000000       21.7418537    
   24.0499992       21.7870941    
   24.1000004       21.8298626    
   24.1499996       21.8699799    
   24.2000008       21.9072418    
   24.2500000       21.9414730    
   24.2999992       21.9725838    
   24.3500004       22.0005703    
   24.3999996       22.0255032    
   24.4500008       22.0474644    
   24.5000000       22.0664787    
   24.5499992       22.0824814    
   24.6000004       22.0952892    
   24.6499996       22.1046543    
   24.7000008       22.1103153    
   24.7500000       22.1120834    
   24.7999992       22.1098843    
   24.8500004       22.1037636    
   24.8999996       22.0938568    
   24.9500008       22.0803070    
   25.0000000       22.0631943    
   25.0499992       22.0424938    
   25.1000004       22.0180817    
   25.1499996       21.9897614    
   25.2000008       21.9573593    
   25.2500000       21.9207745    
   25.2999992       21.8800144    
   25.3500004       21.8351898    
   25.3999996       21.7864418    
   25.4500008       21.7338886    
   25.5000000       21.6775436    
   25.5499992       21.6173115    
   25.6000004       21.5530109    
   25.6499996       21.4844437    
   25.7000008       21.4114819    
   25.7500000       21.3341331    
   25.7999992       21.2525444    
   25.8500004       21.1669731    
   25.8999996       21.0776978    
   25.9500008       20.9849281    
   26.0000000       20.8887463    
   26.0499992       20.7890949    
   26.1000004       20.6858253    
   26.1499996       20.5787868    
   26.2000008       20.4678955    
   26.2500000       20.3532104    
   26.2999992       20.2349167    
   26.3500004       20.1132908    
   26.3999996       19.9886036    
   26.4500008       19.8610458    
   26.5000000       19.7306900    
   26.5499992       19.5974979    
   26.6000004       19.4613819    
   26.6499996       19.3222980    
   26.7000008       19.1803055    
   26.7500000       19.0356121    
   26.7999992       18.8885307    
   26.8500004       18.7394180    
   26.8999996       18.5885811    
   26.9500008       18.4362144    
   27.0000000       18.2823753    
   27.0499992       18.1270161    
   27.1000004       17.9700680    
   27.1499996       17.8115177    
   27.2000008       17.6514626    
   27.2500000       17.4901237    
   27.2999992       17.3277950    
   27.3500004       17.1647778    
   27.3999996       17.0012970    
   27.4500008       16.8374844    
   27.5000000       16.6733761    
   27.5499992       16.5089855    
   27.6000004       16.3443718    
   27.6499996       16.1796989    
   27.7000008       16.0152493    
   27.7500000       15.8513765    
   27.7999992       15.6884317    
   27.8500004       15.5266571    
   27.8999996       15.3661470    
   27.9500008       15.2068377    
   28.0000000       15.0485716    
   28.0499992       14.8912058    
   28.1000004       14.7347040    
   28.1499996       14.5792065    
   28.2000008       14.4250174    
   28.2500000       14.2725353    
   28.2999992       14.1221495    
   28.3500004       13.9741297    
   28.3999996       13.8285770    
   28.4500008       13.6854324    
   28.5000000       13.5445518    
   28.5499992       13.4058037    
   28.6000004       13.2691603    
   28.6499996       13.1347408    
   28.7000008       13.0027838    
   28.7500000       12.8735647    
   28.7999992       12.7472973    
   28.8500004       12.6240597    
   28.8999996       12.5037756    
   28.9500008       12.3862591    
   29.0000000       12.2713099    
   29.0499992       12.1588125    
   29.1000004       12.0488005    
   29.1499996       11.9414625    
   29.2000008       11.8370743    
   29.2500000       11.7358999    
   29.2999992       11.6380835    
   29.3500004       11.5436029    
   29.3999996       11.4522753    
   29.4500008       11.3638268    
   29.5000000       11.2780027    
   29.5499992       11.1946564    
   29.6000004       11.1137886    
   29.6499996       11.0355320    
   29.7000008       10.9600706    
   29.7500000       10.8875389    
   29.7999992       10.8179550    
   29.8500004       10.7511930    
   29.8999996       10.6870279    
   29.9500008       10.6252241    
   30.0000000       10.5656271    
   30.0499992       10.5082130    
   30.1000004       10.4530878    
   30.1499996       10.4004154    
   30.2000008       10.3503218    
   30.2500000       10.3028030    
   30.2999992       10.2576876    
   30.3500004       10.2146702    
   30.3999996       10.1733952    
   30.4500008       10.1335726    
   30.5000000       10.0950718    
   30.5499992       10.0579395    
   30.6000004       10.0223608    
   30.6499996       9.98855877    
   30.7000008       9.95667362    
   30.7500000       9.92668343    
   30.7999992       9.89839172    
   30.8500004       9.87148285    
   30.8999996       9.84563637    
   30.9500008       9.82063484    
   31.0000000       9.79642677    
   31.0499992       9.77311993    
   31.1000004       9.75090504    
   31.1499996       9.72993755    
   31.2000008       9.71022892    
   31.2500000       9.69161129    
   31.2999992       9.67376614    
   31.3500004       9.65632629    
   31.3999996       9.63900948    
   31.4500008       9.62171841    
   31.5000000       9.60456848    
   31.5499992       9.58783817    
   31.6000004       9.57184887    
   31.6499996       9.55682087    
   31.7000008       9.54277992    
   31.7500000       9.52952480    
   31.7999992       9.51669884    
   31.8500004       9.50390434    
   31.8999996       9.49084854    
   31.9500008       9.47742271    
   32.0000000       9.46372128    
   32.0499992       9.44997120    
   32.0999985       9.43641472    
   32.1500015       9.42319584    
   32.2000008       9.41028976    
   32.2500000       9.39752579    
   32.2999992       9.38466072    
   32.3499985       9.37150002    
   32.4000015       9.35798645    
   32.4500008       9.34422970    
   32.5000000       9.33046150    
   32.5499992       9.31692696    
   32.5999985       9.30376625    
   32.6500015       9.29093647    
   32.7000008       9.27820587    
   32.7500000       9.26523876    
   32.7999992       9.25172234    