  -10.0000000       0.00000000    
  -9.94999981       0.00000000    
  -9.89999962       0.00000000    
  -9.85000038       0.00000000    
  -9.80000019       0.00000000    
  -9.75000000       0.00000000    
  -9.69999981       0.00000000    
  -9.64999962       0.00000000    
  -9.60000038       0.00000000    
  -9.55000019      -1.43149401E-21
  -9.50000000      -1.98625840E-20
  -9.44999981      -1.35680743E-19
  -9.39999962      -5.90896160E-19
  -9.35000038      -1.73745772E-18
  -9.30000019      -3.05487251E-18
  -9.25000000       3.69520010E-19
  -9.19999981       2.52651019E-17
  -9.14999962       1.08584813E-16
  -9.10000038       3.02406406E-16
  -9.05000019       6.23838813E-16
  -9.00000000       9.21347489E-16
  -8.94999981       6.55329433E-16
  -8.89999962      -1.28982906E-15
  -8.85000038      -6.43951970E-15
  -8.80000019      -1.56947971E-14
  -8.75000000      -2.69936695E-14
  -8.69999981      -3.19329219E-14
  -8.64999962      -1.31692854E-14
  -8.60000038       5.34957278E-14
  -8.55000019       1.87111326E-13
  -8.50000000       3.76113420E-13
  -8.44999981       5.42990783E-13
  -8.39999962       5.15813358E-13
  -8.35000038       3.87051163E-14
  -8.30000019      -1.13895774E-12
  -8.25000000      -3.06921545E-12
  -8.19999981      -5.33162360E-12
  -8.14999962      -6.78527807E-12
  -8.10000038      -5.54451884E-12
  -8.05000019       5.79683654E-13
  -8.00000000       1.30061708E-11
  -7.94999981       3.07629790E-11
  -7.90000010       4.88212561E-11
  -7.84999990       5.73424051E-11
  -7.80000019       4.30468647E-11
  -7.75000000      -6.35363160E-12
  -7.69999981      -9.47321457E-11
  -7.65000010      -2.08921075E-10
  -7.59999990      -3.12624371E-10
  -7.55000019      -3.47864126E-10
  -7.50000000      -2.48383647E-10
  -7.44999981       3.38393619E-11
  -7.40000010       4.93732888E-10
  -7.34999990       1.04177778E-09
  -7.30000019       1.49335033E-09
  -7.25000000       1.59585389E-09
  -7.19999981       1.10226539E-09
  -7.15000010      -1.17422461E-10
  -7.09999990      -1.95743599E-09
  -7.05000019      -3.99958111E-09
  -7.00000000      -5.53345147E-09
  -6.94999981      -5.71095171E-09
  -6.90000010      -3.83047372E-09
  -6.84999990       3.12814941E-10
  -6.80000019       6.13028561E-09
  -6.75000000       1.21436603E-08
  -6.69999981       1.62104143E-08
  -6.65000010       1.61035185E-08
  -6.59999990       1.03421067E-08
  -6.55000019      -9.73120251E-10
  -6.50000000      -1.56556226E-08
  -6.44999981      -2.95754745E-08
  -6.40000010      -3.76046003E-08
  -6.34999990      -3.52437972E-08
  -6.30000019      -2.04955093E-08
  -6.25000000       4.68595651E-09
  -6.19999981       3.40614505E-08
  -6.15000010       5.83340309E-08
  -6.09999990       6.78739553E-08
  -6.05000019       5.62604860E-08
  -6.00000000       2.34526887E-08
  -5.94999981      -2.27527313E-08
  -5.90000010      -6.79644430E-08
  -5.84999990      -9.52840864E-08
  -5.80000019      -9.12757585E-08
  -5.75000000      -5.18790344E-08
  -5.69999981       1.40845700E-08
  -5.65000010       8.57116689E-08
  -5.59999990       1.35706202E-07
  -5.55000019       1.39708845E-07
  -5.50000000       8.63175060E-08
  -5.44999981      -1.59971858E-08
  -5.40000010      -1.38353485E-07
  -5.34999990      -2.38631117E-07
  -5.30000019      -2.74870104E-07
  -5.25000000      -2.20715862E-07
  -5.19999981      -7.72892221E-08
  -5.15000010       1.23527172E-07
  -5.09999990       3.26658267E-07
  -5.05000019       4.70498804E-07
  -5.00000000       5.07083882E-07
  -4.94999981       4.18236766E-07
  -4.90000010       2.21192437E-07
  -4.84999990      -3.88426571E-08
  -4.80000019      -3.06203304E-07
  -4.75000000      -5.34574099E-07
  -4.69999981      -6.99623740E-07
  -4.65000010      -7.97729399E-07
  -4.59999990      -8.30677664E-07
  -4.55000019      -7.84228746E-07
  -4.50000000      -6.14067574E-07
  -4.44999981      -2.52491105E-07
  -4.40000010       3.58272388E-07
  -4.34999990       1.21323603E-06
  -4.30000019       2.19318440E-06
  -4.25000000       3.04337163E-06
  -4.19999981       3.40772681E-06
  -4.15000010       2.92717368E-06
  -4.09999990       1.38431074E-06
  -4.05000019      -1.15031071E-06
  -4.00000000      -4.23103711E-06
  -3.95000005      -7.06476385E-06
  -3.90000010      -8.67937433E-06
  -3.84999990      -8.21047070E-06
  -3.79999995      -5.23157405E-06
  -3.75000000      -1.68926686E-08
  -3.70000005       6.37604353E-06
  -3.65000010       1.22758693E-05
  -3.59999990       1.58142921E-05
  -3.54999995       1.54951376E-05
  -3.50000000       1.07472142E-05
  -3.45000005       2.26760926E-06
  -3.40000010      -7.99727150E-06
  -3.34999990      -1.72835862E-05
  -3.29999995      -2.27697565E-05
  -3.25000000      -2.24538526E-05
  -3.20000005      -1.58708081E-05
  -3.15000010      -4.39303903E-06
  -3.09999990       9.02857028E-06
  -3.04999995       2.06508721E-05
  -3.00000000       2.70381679E-05
  -2.95000005       2.61383157E-05
  -2.90000010       1.79813105E-05
  -2.84999990       4.75086836E-06
  -2.79999995      -9.82335860E-06
  -2.75000000      -2.15791697E-05
  -2.70000005      -2.71905337E-05
  -2.65000010      -2.51794518E-05
  -2.59999990      -1.63382665E-05
  -2.54999995      -3.42660837E-06
  -2.50000000       9.74572595E-06
  -2.45000005       1.95302673E-05
  -2.40000010       2.35316493E-05
  -2.34999990       2.12209616E-05
  -2.29999995       1.38955093E-05
  -2.25000000       4.05205446E-06
  -2.20000005      -5.55144788E-06
  -2.15000010      -1.27764570E-05
  -2.09999990      -1.66114132E-05
  -2.04999995      -1.71673819E-05
  -2.00000000      -1.52464017E-05
  -1.95000005      -1.17425952E-05
  -1.89999998      -7.18844285E-06
  -1.85000002      -1.66571022E-06
  -1.79999995       4.89585545E-06
  -1.75000000       1.22187603E-05
  -1.70000005       1.92873740E-05
  -1.64999998       2.43496725E-05
  -1.60000002       2.54164479E-05
  -1.54999995       2.11086572E-05
  -1.50000000       1.14882778E-05
  -1.45000005      -1.55778787E-06
  -1.39999998      -1.46746652E-05
  -1.35000002      -2.41281796E-05
  -1.29999995      -2.72651814E-05
  -1.25000000      -2.37437598E-05
  -1.20000005      -1.59286610E-05
  -1.14999998      -8.12219514E-06
  -1.10000002      -4.77362892E-06
  -1.04999995      -8.29904002E-06
  -1.00000000      -1.74341203E-05
 -0.949999988      -2.69739103E-05
 -0.899999976      -2.92987861E-05
 -0.850000024      -1.73798144E-05
 -0.800000012       1.17384725E-05
 -0.750000000       5.43691058E-05
 -0.699999988       9.97920797E-05
 -0.649999976       1.32639951E-04
 -0.600000024       1.37643263E-04
 -0.550000012       1.05317959E-04
 -0.500000000       3.65865926E-05
 -0.449999988      -5.55660954E-05
 -0.400000006      -1.48454099E-04
 -0.349999994      -2.15767155E-04
 -0.300000012      -2.35669882E-04
 -0.250000000      -1.98313486E-04
 -0.200000003      -1.10099791E-04
 -0.150000006       7.05359298E-06
 -0.100000001       1.21585996E-04
  -5.00000007E-02   2.01666218E-04
   0.00000000       2.25116979E-04
   5.00000007E-02   1.86600504E-04
  0.100000001       9.95695664E-05
  0.150000006      -7.81366543E-06
  0.200000003      -1.01560749E-04
  0.250000000      -1.52663357E-04
  0.300000012      -1.46264589E-04
  0.349999994      -8.61790541E-05
  0.400000006       6.67623817E-06
  0.449999988       1.01318212E-04
  0.500000000       1.66765923E-04
  0.550000012       1.81766853E-04
  0.600000024       1.41047829E-04
  0.649999976       5.62526657E-05
  0.699999988      -4.84219308E-05
  0.750000000      -1.44148013E-04
  0.800000012      -2.06184224E-04
  0.850000024      -2.20624308E-04
  0.899999976      -1.87331447E-04
  0.949999988      -1.18643402E-04
   1.00000000      -3.48105605E-05
   1.04999995       4.20230426E-05
   1.10000002       9.33834453E-05
   1.14999998       1.08208391E-04
   1.20000005       8.42573572E-05
   1.25000000       2.74496706E-05
   1.29999995      -5.02044459E-05
   1.35000002      -1.33422640E-04
   1.39999998      -2.06804063E-04
   1.45000005      -2.58105603E-04
   1.50000000      -2.81380606E-04
   1.54999995      -2.79417436E-04
   1.60000002      -2.64568458E-04
   1.64999998      -2.57001142E-04
   1.70000005      -2.79891829E-04
   1.75000000      -3.52123869E-04
   1.79999995      -4.80330986E-04
   1.85000002      -6.53078780E-04
   1.89999998      -8.40035384E-04
   1.95000005      -9.97838215E-04
   2.00000000      -1.08219066E-03
   2.04999995      -1.06320076E-03
   2.09999990      -9.39068384E-04
   2.15000010      -7.42851116E-04
   2.20000005      -5.38622320E-04
   2.25000000      -4.06588602E-04
   2.29999995      -4.20646538E-04
   2.34999990      -6.25029905E-04
   2.40000010      -1.01782766E-03
   2.45000005      -1.54759071E-03
   2.50000000      -2.12529860E-03
   2.54999995      -2.64887698E-03
   2.59999990      -3.03301169E-03
   2.65000010      -3.23485117E-03
   2.70000005      -3.26723629E-03
   2.75000000      -3.19508393E-03
   2.79999995      -3.11613455E-03
   2.84999990      -3.13247973E-03
   2.90000010      -3.32221249E-03
   2.95000005      -3.72015592E-03
   3.00000000      -4.31311037E-03
   3.04999995      -5.04978094E-03
   3.09999990      -5.86053263E-03
   3.15000010      -6.67922385E-03
   3.20000005      -7.45963678E-03
   3.25000000      -8.18208233E-03
   3.29999995      -8.85029975E-03
   3.34999990      -9.48268641E-03
   3.40000010      -1.01036895E-02
   3.45000005      -1.07399980E-02
   3.50000000      -1.14228055E-02
   3.54999995      -1.21934274E-02
   3.59999990      -1.31069152E-02
   3.65000010      -1.42285060E-02
   3.70000005      -1.56207886E-02
   3.75000000      -1.73242707E-02
   3.79999995      -1.93383656E-02
   3.84999990      -2.16115844E-02
   3.90000010      -2.40477473E-02
   3.95000005      -2.65295245E-02
   4.00000000      -2.89538372E-02
   4.05000019      -3.12679633E-02
   4.09999990      -3.34933959E-02
   4.15000010      -3.57276574E-02
   4.19999981      -3.81215215E-02
   4.25000000      -4.08380292E-02
   4.30000019      -4.40068133E-02
   4.34999990      -4.76895794E-02
   4.40000010      -5.18692434E-02
   4.44999981      -5.64668104E-02
   4.50000000      -6.13799132E-02
   4.55000019      -6.65288344E-02
   4.59999990      -7.18928799E-02
   4.65000010      -7.75235370E-02
   4.69999981      -8.35297778E-02
   4.75000000      -9.00413170E-02
   4.80000019      -9.71644595E-02
   4.84999990     -0.104947612    
   4.90000010     -0.113370366    
   4.94999981     -0.122360282    
   5.00000000     -0.131831273    
   5.05000019     -0.141728833    
   5.09999990     -0.152064979    
   5.15000010     -0.162929744    
   5.19999981     -0.174475148    
   5.25000000     -0.186878234    
   5.30000019     -0.200296983    
   5.34999990     -0.214835688    
   5.40000010     -0.230531067    
   5.44999981     -0.247363046    
   5.50000000     -0.265283585    
   5.55000019     -0.284251660    
   5.59999990     -0.304261088    
   5.65000010     -0.325352132    
   5.69999981     -0.347606063    
   5.75000000     -0.371128857    
   5.80000019     -0.396033168    
   5.84999990     -0.422427982    
   5.90000010     -0.450418383    
   5.94999981     -0.480113566    
   6.00000000     -0.511633337    
   6.05000019     -0.545107424    
   6.09999990     -0.580662668    
   6.15000010     -0.618401468    
   6.19999981     -0.658382177    
   6.25000000     -0.700612009    
   6.30000019     -0.745061219    
   6.34999990     -0.791697919    
   6.40000010     -0.840532959    
   6.44999981     -0.891659319    
   6.50000000     -0.945268691    
   6.55000019      -1.00163591    
   6.59999990      -1.06107235    
   6.65000010      -1.12386572    
   6.69999981      -1.19022346    
   6.75000000      -1.26024497    
   6.80000019      -1.33393204    
   6.84999990      -1.41123521    
   6.90000010      -1.49211824    
   6.94999981      -1.57661772    
   7.00000000      -1.66487443    
   7.05000019      -1.75712442    
   7.09999990      -1.85365593    
   7.15000010      -1.95474946    
   7.19999981      -2.06062579    
   7.25000000      -2.17142510    
   7.30000019      -2.28722239    
   7.34999990      -2.40807366    
   7.40000010      -2.53406906    
   7.44999981      -2.66537118    
   7.50000000      -2.80221701    
   7.55000019      -2.94488525    
   7.59999990      -3.09363890    
   7.65000010      -3.24867272    
   7.69999981      -3.41008806    
   7.75000000      -3.57791090    
   7.80000019      -3.75214672    
   7.84999990      -3.93285561    
   7.90000010      -4.12020540    
   7.94999981      -4.31449032    
   8.00000000      -4.51609182    
   8.05000019      -4.72540092    
   8.10000038      -4.94273138    
   8.14999962      -5.16825485    
   8.19999981      -5.40199566    
   8.25000000      -5.64388084    
   8.30000019      -5.89383698    
   8.35000038      -6.15188980    
   8.39999962      -6.41822529    
   8.44999981      -6.69318724    
   8.50000000      -6.97720289    
   8.55000019      -7.27067327    
   8.60000038      -7.57386255    
   8.64999962      -7.88684320    
   8.69999981      -8.20951176    
   8.75000000      -8.54168701    
   8.80000019      -8.88323879    
   8.85000038      -9.23420715    
   8.89999962      -9.59485435    
   8.94999981      -9.96562386    
   9.00000000      -10.3470221    
   9.05000019      -10.7394609    
   9.10000038      -11.1431293    
   9.14999962      -11.5579405    
   9.19999981      -11.9835892    
   9.25000000      -12.4196920    
   9.30000019      -12.8659687    
   9.35000038      -13.3223763    
   9.39999962      -13.7891684    
   9.44999981      -14.2668219    
   9.50000000      -14.7558851    
   9.55000019      -15.2567835    
   9.60000038      -15.7696733    
   9.64999962      -16.2943916    
   9.69999981      -16.8305283    
   9.75000000      -17.3776035    
   9.80000019      -17.9352493    
   9.85000038      -18.5033646    
   9.89999962      -19.0821514    
   9.94999981      -19.6720276    
   10.0000000      -20.2734470    
   10.0500002      -20.8867168    
   10.1000004      -21.5118484    
   10.1499996      -22.1485424    
   10.1999998      -22.7962723    
   10.2500000      -23.4544792    
   10.3000002      -24.1227474    
   10.3500004      -24.8009415    
   10.3999996      -25.4892120    
   10.4499998      -26.1878910    
   10.5000000      -26.8973179    
   10.5500002      -27.6176586    
   10.6000004      -28.3488121    
   10.6499996      -29.0904064    
   10.6999998      -29.8419151    
   10.7500000      -30.6028328    
   10.8000002      -31.3728104    
   10.8500004      -32.1517448    
   10.8999996      -32.9397240    
   10.9499998      -33.7369270    
   11.0000000      -34.5434570    
   11.0500002      -35.3592110    
   11.1000004      -36.1838684    
   11.1499996      -37.0169373    
   11.1999998      -37.8579063    
   11.2500000      -38.7063713    
   11.3000002      -39.5621529    
   11.3500004      -40.4252548    
   11.3999996      -41.2957993    
   11.4499998      -42.1738472    
   11.5000000      -43.0592957    
   11.5500002      -43.9518051    
   11.6000004      -44.8508682    
   11.6499996      -45.7559319    
   11.6999998      -46.6665421    
   11.7500000      -47.5824661    
   11.8000002      -48.5036850    
   11.8500004      -49.4302864    
   11.8999996      -50.3623314    
   11.9499998      -51.2996864    
   12.0000000      -52.2419319    
   12.0500002      -53.1884499    
   12.1000004      -54.1385345    
   12.1499996      -55.0916214    
   12.1999998      -56.0474396    
   12.2500000      -57.0060539    
   12.3000002      -57.9677505    
   12.3500004      -58.9328499    
   12.3999996      -59.9014206    
   12.4499998      -60.8731689    
   12.5000000      -61.8473892    
   12.5500002      -62.8231354    
   12.6000004      -63.7994919    
   12.6499996      -64.7758331    
   12.6999998      -65.7520218    
   12.7500000      -66.7283325    
   12.8000002      -67.7052841    
   12.8500004      -68.6832886    
   12.8999996      -69.6623764    
   12.9499998      -70.6419830    
   13.0000000      -71.6210632    
   13.0500002      -72.5983353    
   13.1000004      -73.5726700    
   13.1499996      -74.5434189    
   13.1999998      -75.5105667    
   13.2500000      -76.4746475    
   13.3000002      -77.4364243    
   13.3500004      -78.3964462    
   13.3999996      -79.3546753    
   13.4499998      -80.3103561    
   13.5000000      -81.2620621    
   13.5500002      -82.2081451    
   13.6000004      -83.1471329    
   13.6499996      -84.0781555    
   13.6999998      -85.0010681    
   13.7500000      -85.9163589    
   13.8000002      -86.8247452    
   13.8500004      -87.7266846    
   13.8999996      -88.6220322    
   13.9499998      -89.5098190    
   14.0000000      -90.3884888    
   14.0500002      -91.2562408    
   14.1000004      -92.1114883    
   14.1499996      -92.9532471    
   14.1999998      -93.7811966    
   14.2500000      -94.5955734    
   14.3000002      -95.3967209    
   14.3500004      -96.1846542    
   14.3999996      -96.9587250    
   14.4499998      -97.7175522    
   14.5000000      -98.4592514    
   14.5500002      -99.1818161    
   14.6000004      -99.8835754    
   14.6499996      -100.563416    
   14.6999998      -101.220879    
   14.7500000      -101.855904    
   14.8000002      -102.468384    
   14.8500004      -103.057800    
   14.8999996      -103.623001    
   14.9499998      -104.162186    
   15.0000000      -104.673210    
   15.0500002      -105.153954    
   15.1000004      -105.602676    
   15.1499996      -106.018166    
   15.1999998      -106.399689    
   15.2500000      -106.746674    
   15.3000002      -107.058365    
   15.3500004      -107.333527    
   15.3999996      -107.570343    
   15.4499998      -107.766609    
   15.5000000      -107.919998    
   15.5500002      -108.028465    
   15.6000004      -108.090408    
   15.6499996      -108.104706    
   15.6999998      -108.070518    
   15.7500000      -107.986877    
   15.8000002      -107.852463    
   15.8500004      -107.665413    
   15.8999996      -107.423409    
   15.9499998      -107.123993    
   16.0000000      -106.764885    
   16.0499992      -106.344292    
   16.1000004      -105.860977    
   16.1499996      -105.314087    
   16.2000008      -104.702812    
   16.2500000      -104.026009    
   16.2999992      -103.281967    
   16.3500004      -102.468445    
   16.3999996      -101.582939    
   16.4500008      -100.623093    
   16.5000000      -99.5870667    
   16.5499992      -98.4737854    
   16.6000004      -97.2827988    
   16.6499996      -96.0139465    
   16.7000008      -94.6668930    
   16.7500000      -93.2407303    
   16.7999992      -91.7338562    
   16.8500004      -90.1441422    
   16.8999996      -88.4693680    
   16.9500008      -86.7077713    
   17.0000000      -84.8584671    
   17.0499992      -82.9215012    
   17.1000004      -80.8975906    
   17.1499996      -78.7877045    
   17.2000008      -76.5924072    
   17.2500000      -74.3115311    
   17.2999992      -71.9441299    
   17.3500004      -69.4887848    
   17.3999996      -66.9442062    
   17.4500008      -64.3098221    
   17.5000000      -61.5861588    
   17.5499992      -58.7748337    
   17.6000004      -55.8781929    
   17.6499996      -52.8986778    
   17.7000008      -49.8382416    
   17.7500000      -46.6979408    
   17.7999992      -43.4780273    
   17.8500004      -40.1783485    
   17.8999996      -36.7989922    
   17.9500008      -33.3409195    
   18.0000000      -29.8062992    
   18.0499992      -26.1984310    
   18.1000004      -22.5213108    
   18.1499996      -18.7789707    
   18.2000008      -14.9748955    
   18.2500000      -11.1117249    
   18.2999992      -7.19134426    
   18.3500004      -3.21534872    
   18.3999996      0.814339161    
   18.4500008       4.89494371    
   18.5000000       9.02260113    
   18.5499992       13.1925240    
   18.6000004       17.3994637    
   18.6499996       21.6383018    
   18.7000008       25.9045124    
   18.7500000       30.1943283    
   18.7999992       34.5045280    
   18.8500004       38.8319817    
   18.8999996       43.1731033    
   18.9500008       47.5234833    
   19.0000000       51.8778229    
   19.0499992       56.2302246    
   19.1000004       60.5746384    
   19.1499996       64.9053955    
   19.2000008       69.2175064    
   19.2500000       73.5066452    
   19.2999992       77.7688828    
   19.3500004       82.0002136    
   19.3999996       86.1961746    
   19.4500008       90.3516464    
   19.5000000       94.4609680    
   19.5499992       98.5182571    
   19.6000004       102.517899    
   19.6499996       106.454857    
   19.7000008       110.324783    
   19.7500000       114.123795    
   19.7999992       117.848114    
   19.8500004       121.493698    
   19.8999996       125.055946    
   19.9500008       128.529800    
   20.0000000       131.910019    
   20.0499992       135.191681    
   20.1000004       138.370590    
   20.1499996       141.443359    
   20.2000008       144.407410    
   20.2500000       147.260437    
   20.2999992       150.000015    
   20.3500004       152.623276    
   20.3999996       155.126709    
   20.4500008       157.506531    
   20.5000000       159.759033    
   20.5499992       161.881241    
   20.6000004       163.871109    
   20.6499996       165.727615    
   20.7000008       167.450409    
   20.7500000       169.039352    
   20.7999992       170.493896    
   20.8500004       171.812851    
   20.8999996       172.994492    
   20.9500008       174.036880    
   21.0000000       174.938538    
   21.0499992       175.698929    
   21.1000004       176.318680    
   21.1499996       176.799469    
   21.2000008       177.143570    
   21.2500000       177.353149    
   21.2999992       177.429779    
   21.3500004       177.374191    
   21.3999996       177.186493    
   21.4500008       176.866714    
   21.5000000       176.415451    
   21.5499992       175.834366    
   21.6000004       175.126404    
   21.6499996       174.295532    
   21.7000008       173.346161    
   21.7500000       172.282410    
   21.7999992       171.107681    
   21.8500004       169.824432    
   21.8999996       168.434433    
   21.9500008       166.939423    
   22.0000000       165.341583    
   22.0499992       163.644211    
   22.1000004       161.851654    
   22.1499996       159.969147    
   22.2000008       158.002121    
   22.2500000       155.955673    
   22.2999992       153.834061    
   22.3500004       151.640671    
   22.3999996       149.378296    
   22.4500008       147.049652    
   22.5000000       144.657883    
   22.5499992       142.206955    
   22.6000004       139.701691    
   22.6499996       137.147476    
   22.7000008       134.549744    
   22.7500000       131.913498    
   22.7999992       129.242996    
   22.8500004       126.541725    
   22.8999996       123.812729    
   22.9500008       121.058937    
   23.0000000       118.283623    
   23.0499992       115.490555    
   23.1000004       112.683975    
   23.1499996       109.868370    
   23.2000008       107.048065    
   23.2500000       104.227005    
   23.2999992       101.408546    
   23.3500004       98.5955734    
   23.3999996       95.7907257    
   23.4500008       92.9966125    
   23.5000000       90.2160416    
   23.5499992       87.4520111    
   23.6000004       84.7076111    
   23.6499996       81.9858170    
   23.7000008       79.2893448    
   23.7500000       76.6205673    
   23.7999992       73.9815292    
   23.8500004       71.3741531    
   23.8999996       68.8003922    
   23.9500008       66.2622528    
   24.0000000       63.7617798    
   24.0499992       61.3009262    
   24.1000004       58.8813286    
   24.1499996       56.5042191    
   24.2000008       54.1704216    
   24.2500000       51.8805199    
   24.2999992       49.6351128    
   24.3500004       47.4350357    
   24.3999996       45.2814522    
   24.4500008       43.1757774    
   24.5000000       41.1194077    
   24.5499992       39.1133995    
   24.6000004       37.1582375    
   24.6499996       35.2537346    
   24.7000008       33.3991966    
   24.7500000       31.5937881    
   24.7999992       29.8368816    
   24.8500004       28.1283684    
   24.8999996       26.4687042    
   24.9500008       24.8586903    
   25.0000000       23.2990932    
   25.0499992       21.7902222    
   25.1000004       20.3316479    
   25.1499996       18.9221859    
   25.2000008       17.5601711    
   25.2500000       16.2438965    
   25.2999992       14.9720678    
   25.3500004       13.7440863    
   25.3999996       12.5600319    
   25.4500008       11.4203663    
   25.5000000       10.3254528    
   25.5499992       9.27509975    
   25.6000004       8.26829910    
   25.6499996       7.30326986    
   25.7000008       6.37781048    
   25.7500000       5.48979712    
   25.7999992       4.63765287    
   25.8500004       3.82060242    
   25.8999996       3.03860474    
   25.9500008       2.29200006    
   26.0000000       1.58100712    
   26.0499992      0.905270875    
   26.1000004      0.263637006    
   26.1499996     -0.345763773    
   26.2000008     -0.925156891    
   26.2500000      -1.47663867    
   26.2999992      -2.00175118    
   26.3500004      -2.50128484    
   26.3999996      -2.97537303    
   26.4500008      -3.42383456    
   26.5000000      -3.84662056    
   26.5499992      -4.24418640    
   26.6000004      -4.61764240    
   26.6499996      -4.96863937    
   26.7000008      -5.29904175    
   26.7500000      -5.61052322    
   26.7999992      -5.90424681    
   26.8500004      -6.18075848    
   26.8999996      -6.44011641    
   26.9500008      -6.68219519    
   27.0000000      -6.90703630    
   27.0499992      -7.11510897    
   27.1000004      -7.30737352    
   27.1499996      -7.48514938    
   27.2000008      -7.64984560    
   27.2500000      -7.80267048    
   27.2999992      -7.94443989    
   27.3500004      -8.07555485    
   27.3999996      -8.19612885    
   27.4500008      -8.30620956    
   27.5000000      -8.40598965    
   27.5499992      -8.49591923    
   27.6000004      -8.57668781    
   27.6499996      -8.64909172    
   27.7000008      -8.71386909    
   27.7500000      -8.77157307    
   27.7999992      -8.82253647    
   27.8500004      -8.86695194    
   27.8999996      -8.90499687    
   27.9500008      -8.93696785    
   28.0000000      -8.96331310    
   28.0499992      -8.98459911    
   28.1000004      -9.00137901    
   28.1499996      -9.01406288    
   28.2000008      -9.02284241    
   28.2500000      -9.02771187    
   28.2999992      -9.02859020    
   28.3500004      -9.02548981    
   28.3999996      -9.01864910    
   28.4500008      -9.00856781    
   28.5000000      -8.99591446    
   28.5499992      -8.98134518    
   28.6000004      -8.96529293    
   28.6499996      -8.94783974    
   28.7000008      -8.92872429    
   28.7500000      -8.90748882    
   28.7999992      -8.88372517    
   28.8500004      -8.85730839    
   28.8999996      -8.82853127    
   28.9500008      -8.79805946    
   29.0000000      -8.76673603    
   29.0499992      -8.73529339    
   29.1000004      -8.70409393    
   29.1499996      -8.67300987    
   29.2000008      -8.64149189    
   29.2500000      -8.60880947    
   29.2999992      -8.57436848    
   29.3500004      -8.53799343    
   29.3999996      -8.50003338    
   29.4500008      -8.46127510    
   29.5000000      -8.42267132    
   29.5499992      -8.38499546    
   29.6000004      -8.34855843    
   29.6499996      -8.31310272    
   29.7000008      -8.27790833    
   29.7500000      -8.24208832    
   29.7999992      -8.20493698    
   29.8500004      -8.16621685    
   29.8999996      -8.12626266    
   29.9500008      -8.08586121    
   30.0000000      -8.04595470    
   30.0499992      -8.00729752    
   30.1000004      -7.97016859    
   30.1499996      -7.93428326    
   30.2000008      -7.89891291    
   30.2500000      -7.86317301    
   30.2999992      -7.82636833    
   30.3500004      -7.78825140    
   30.3999996      -7.74911785    
   30.4500008      -7.70968533    
   30.5000000      -7.67082405    
   30.5499992      -7.63323689    
   30.6000004      -7.59721518    
   30.6499996      -7.56255436    
   30.7000008      -7.52865601    
   30.7500000      -7.49477053    
   30.7999992      -7.46027946    
   30.8500004      -7.42491150    
   30.8999996      -7.38881063    
   30.9500008      -7.35245419    
   31.0000000      -7.31644440    
   31.0499992      -7.28127813    
   31.1000004      -7.24717140    
   31.1499996      -7.21401024    
   31.2000008      -7.18142796    
   31.2500000      -7.14897537    
   31.2999992      -7.11629915    
   31.3500004      -7.08327293    
   31.3999996      -7.05002213    
   31.4500008      -7.01684713    
   31.5000000      -6.98409081    
   31.5499992      -6.95199394    
   31.6000004      -6.92062187    
   31.6499996      -6.88985729    
   31.7000008      -6.85947704    
   31.7500000      -6.82925701    
   31.7999992      -6.79906654    
   31.8500004      -6.76890993    
   31.8999996      -6.73889875    
   31.9500008      -6.70918226    
   32.0000000      -6.67986536    
   32.0499992      -6.65095520    
   32.0999985      -6.62236309    
   32.1500015      -6.59395456    
   32.2000008      -6.56562185    
   32.2500000      -6.53734779    
   32.2999992      -6.50922298    
   32.3499985      -6.48140907    
   32.4000015      -6.45406199    
   32.4500008      -6.42725801    
   32.5000000      -6.40094471    
   32.5499992      -6.37495279    
   32.5999985      -6.34906340    
   32.6500015      -6.32310581    
   32.7000008      -6.29703903    
   32.7500000      -6.27098322    
   32.7999992      -6.24518681    