  -10.0000000       0.00000000    
  -9.94999981       0.00000000    
  -9.89999962       0.00000000    
  -9.85000038       0.00000000    
  -9.80000019       0.00000000    
  -9.75000000       0.00000000    
  -9.69999981       0.00000000    
  -9.64999962       0.00000000    
  -9.60000038       0.00000000    
  -9.55000019       0.00000000    
  -9.50000000       6.35545891E-32
  -9.44999981       2.35553213E-30
  -9.39999962       2.72389869E-29
  -9.35000038       1.71196226E-28
  -9.30000019       6.69071481E-28
  -9.25000000       1.49408426E-27
  -9.19999981      -1.58965427E-28
  -9.14999962      -1.80407220E-26
  -9.10000038      -9.56367753E-26
  -9.05000019      -3.40629646E-25
  -9.00000000      -9.82441159E-25
  -8.94999981      -2.47469334E-24
  -8.89999962      -5.68855803E-24
  -8.85000038      -1.22100293E-23
  -8.80000019      -2.44809603E-23
  -8.75000000      -4.47886381E-23
  -8.69999981      -7.10425917E-23
  -8.64999962      -8.70716647E-23
  -8.60000038      -4.85394950E-23
  -8.55000019       1.24366471E-22
  -8.50000000       5.20108238E-22
  -8.44999981       1.13590629E-21
  -8.39999962       1.68432714E-21
  -8.35000038       1.36680378E-21
  -8.30000019      -1.17180292E-21
  -8.25000000      -7.32735812E-21
  -8.19999981      -1.70709851E-20
  -8.14999962      -2.65504766E-20
  -8.10000038      -2.57782873E-20
  -8.05000019       1.14359840E-21
  -8.00000000       6.97826044E-20
  -7.94999981       1.80530424E-19
  -7.90000010       2.97013132E-19
  -7.84999990       3.28002394E-19
  -7.80000019       1.32760459E-19
  -7.75000000      -4.26035445E-19
  -7.69999981      -1.36857343E-18
  -7.65000010      -2.44390429E-18
  -7.59999990      -3.01012493E-18
  -7.55000019      -2.07638567E-18
  -7.50000000       1.35436494E-18
  -7.44999981       7.58304757E-18
  -7.40000010       1.52937324E-17
  -7.34999990       2.08447397E-17
  -7.30000019       1.84576602E-17
  -7.25000000       2.00798714E-18
  -7.19999981      -3.13185833E-17
  -7.15000010      -7.62325616E-17
  -7.09999990      -1.15494133E-16
  -7.05000019      -1.20241621E-16
  -7.00000000      -5.77597722E-17
  -6.94999981       9.20036467E-17
  -6.90000010       3.14142630E-16
  -6.84999990       5.39449185E-16
  -6.80000019       6.41649480E-16
  -6.75000000       4.65386371E-16
  -6.69999981      -1.08143681E-16
  -6.65000010      -1.06735013E-15
  -6.59999990      -2.18016370E-15
  -6.55000019      -2.95994414E-15
  -6.50000000      -2.74504383E-15
  -6.44999981      -9.27463067E-16
  -6.40000010       2.68969129E-15
  -6.34999990       7.50744359E-15
  -6.30000019       1.19004182E-14
  -6.25000000       1.33587497E-14
  -6.19999981       9.16864800E-15
  -6.15000010      -2.36986160E-15
  -6.09999990      -2.04578176E-14
  -6.05000019      -4.06095716E-14
  -6.00000000      -5.45189199E-14
  -5.94999981      -5.16727300E-14
  -5.90000010      -2.29739408E-14
  -5.84999990       3.41646504E-14
  -5.80000019       1.10788013E-13
  -5.75000000       1.83788355E-13
  -5.69999981       2.18266025E-13
  -5.65000010       1.76534812E-13
  -5.59999990       3.33427100E-14
  -5.55000019      -2.06133111E-13
  -5.50000000      -4.91998206E-13
  -5.44999981      -7.27269427E-13
  -5.40000010      -7.84626216E-13
  -5.34999990      -5.44841841E-13
  -5.30000019       4.86032892E-14
  -5.25000000       9.33851954E-13
  -5.19999981       1.89690538E-12
  -5.15000010       2.58455800E-12
  -5.09999990       2.58110460E-12
  -5.05000019       1.54743178E-12
  -5.00000000      -6.05288172E-13
  -4.94999981      -3.56200507E-12
  -4.90000010      -6.54160276E-12
  -4.84999990      -8.39237534E-12
  -4.80000019      -7.87726134E-12
  -4.75000000      -4.11920758E-12
  -4.69999981       2.89943048E-12
  -4.65000010       1.19559007E-11
  -4.59999990       2.05229531E-11
  -4.55000019       2.51787601E-11
  -4.50000000       2.25284843E-11
  -4.44999981       1.04930457E-11
  -4.40000010      -1.03775825E-11
  -4.34999990      -3.60534276E-11
  -4.30000019      -5.91363764E-11
  -4.25000000      -7.02639336E-11
  -4.19999981      -6.07740386E-11
  -4.15000010      -2.61182308E-11
  -4.09999990       3.09551725E-11
  -4.05000019       9.86959681E-11
  -4.00000000       1.57276789E-10
  -3.95000005       1.82944590E-10
  -3.90000010       1.55031432E-10
  -3.84999990       6.42971995E-11
  -3.79999995      -7.99179056E-11
  -3.75000000      -2.46666770E-10
  -3.70000005      -3.86923743E-10
  -3.65000010      -4.44558168E-10
  -3.59999990      -3.73298170E-10
  -3.54999995      -1.55666438E-10
  -3.50000000       1.82064364E-10
  -3.45000005       5.65279767E-10
  -3.40000010       8.81501316E-10
  -3.34999990       1.00682573E-09
  -3.29999995       8.43980608E-10
  -3.25000000       3.62415653E-10
  -3.20000005      -3.72567865E-10
  -3.15000010      -1.19454391E-09
  -3.09999990      -1.86289806E-09
  -3.04999995      -2.12168905E-09
  -3.00000000      -1.77931159E-09
  -2.95000005      -7.87902243E-10
  -2.90000010       7.03952729E-10
  -2.84999990       2.34949349E-09
  -2.79999995       3.66645359E-09
  -2.75000000       4.15943635E-09
  -2.70000005       3.47634765E-09
  -2.65000010       1.55575575E-09
  -2.59999990      -1.28522426E-09
  -2.54999995      -4.36515224E-09
  -2.50000000      -6.77346446E-09
  -2.45000005      -7.61009655E-09
  -2.40000010      -6.27496188E-09
  -2.34999990      -2.72432188E-09
  -2.29999995       2.39629316E-09
  -2.25000000       7.81211984E-09
  -2.20000005       1.18935510E-08
  -2.15000010       1.31009914E-08
  -2.09999990       1.04917355E-08
  -2.04999995       4.13809698E-09
  -2.00000000      -4.69560080E-09
  -1.95000005      -1.37218095E-08
  -1.89999998      -2.01576373E-08
  -1.85000002      -2.15116618E-08
  -1.79999995      -1.64267338E-08
  -1.75000000      -5.31939648E-09
  -1.70000005       9.42637701E-09
  -1.64999998       2.38548186E-08
  -1.60000002       3.34038432E-08
  -1.54999995       3.42347164E-08
  -1.50000000       2.45670186E-08
  -1.45000005       5.59560043E-09
  -1.39999998      -1.83735338E-08
  -1.35000002      -4.07444425E-08
  -1.29999995      -5.43105827E-08
  -1.25000000      -5.34043352E-08
  -1.20000005      -3.59161092E-08
  -1.14999998      -4.52660220E-09
  -1.10000002       3.33602159E-08
  -1.04999995       6.71666456E-08
  -1.00000000       8.59184013E-08
 -0.949999988       8.15697518E-08
 -0.899999976       5.19230170E-08
 -0.850000024       2.17394236E-09
 -0.800000012      -5.55977238E-08
 -0.750000000      -1.05131036E-07
 -0.699999988      -1.30355531E-07
 -0.649999976      -1.20315789E-07
 -0.600000024      -7.32070049E-08
 -0.550000012       1.84055571E-09
 -0.500000000       8.60782023E-08
 -0.449999988       1.55561381E-07
 -0.400000006       1.87727480E-07
 -0.349999994       1.68392589E-07
 -0.300000012       9.70819158E-08
 -0.250000000      -1.11414087E-08
 -0.200000003      -1.28338954E-07
 -0.150000006      -2.20586585E-07
 -0.100000001      -2.57502762E-07
  -5.00000007E-02  -2.21831101E-07
   0.00000000      -1.16169879E-07
   5.00000007E-02   3.55293501E-08
  0.100000001       1.92754882E-07
  0.150000006       3.08787833E-07
  0.200000003       3.44108628E-07
  0.250000000       2.79139670E-07
  0.300000012       1.22390020E-07
  0.349999994      -8.89748151E-08
  0.400000006      -2.97150279E-07
  0.449999988      -4.38820820E-07
  0.500000000      -4.63611372E-07
  0.550000012      -3.50663299E-07
  0.600000024      -1.18143760E-07
  0.649999976       1.77923027E-07
  0.699999988       4.56282748E-07
  0.750000000       6.31953981E-07
  0.800000012       6.41098552E-07
  0.850000024       4.62182783E-07
  0.899999976       1.26752454E-07
  0.949999988      -2.84412522E-07
   1.00000000      -6.60054184E-07
   1.04999995      -8.87985379E-07
   1.10000002      -8.87719693E-07
   1.14999998      -6.36849393E-07
   1.20000005      -1.82845270E-07
   1.25000000       3.64472214E-07
   1.29999995       8.59245404E-07
   1.35000002       1.15854607E-06
   1.39999998       1.16363356E-06
   1.45000005       8.51635434E-07
   1.50000000       2.87665131E-07
   1.54999995      -3.87625647E-07
   1.60000002      -9.93220624E-07
   1.64999998      -1.35699406E-06
   1.70000005      -1.36564847E-06
   1.75000000      -1.00080172E-06
   1.79999995      -3.49758380E-07
   1.85000002       4.13832339E-07
   1.89999998       1.07569701E-06
   1.95000005       1.44128944E-06
   2.00000000       1.39395149E-06
   2.04999995       9.33607453E-07
   2.09999990       1.83329092E-07
   2.15000010      -6.40238000E-07
   2.20000005      -1.28618592E-06
   2.25000000      -1.54278064E-06
   2.29999995      -1.30418096E-06
   2.34999990      -6.10151687E-07
   2.40000010       3.54948952E-07
   2.45000005       1.30658646E-06
   2.50000000       1.93794449E-06
   2.54999995       2.01080661E-06
   2.59999990       1.43360751E-06
   2.65000010       3.02687283E-07
   2.70000005      -1.10826261E-06
   2.75000000      -2.41161047E-06
   2.79999995      -3.20784329E-06
   2.84999990      -3.19984383E-06
   2.90000010      -2.28751651E-06
   2.95000005      -6.14237592E-07
   3.00000000       1.45160254E-06
   3.04999995       3.39937719E-06
   3.09999990       4.70444547E-06
   3.15000010       4.96896428E-06
   3.20000005       4.03696322E-06
   3.25000000       2.05050355E-06
   3.29999995      -5.71433986E-07
   3.34999990      -3.22898654E-06
   3.40000010      -5.28906230E-06
   3.45000005      -6.24616905E-06
   3.50000000      -5.85321368E-06
   3.54999995      -4.18641639E-06
   3.59999990      -1.62616846E-06
   3.65000010       1.24117275E-06
   3.70000005       3.77359970E-06
   3.75000000       5.43450415E-06
   3.79999995       5.92059541E-06
   3.84999990       5.22294749E-06
   3.90000010       3.60722561E-06
   3.95000005       1.52261293E-06
   4.00000000      -5.30986938E-07
   4.05000019      -2.13717362E-06
   4.09999990      -3.06015613E-06
   4.15000010      -3.27949988E-06
   4.19999981      -2.95771861E-06
   4.25000000      -2.35687594E-06
   4.30000019      -1.73524177E-06
   4.34999990      -1.25936549E-06
   4.40000010      -9.59656177E-07
   4.44999981      -7.41541612E-07
   4.50000000      -4.44944789E-07
   4.55000019       7.13694561E-08
   4.59999990       8.51966831E-07
   4.65000010       1.80219752E-06
   4.69999981       2.69766838E-06
   4.75000000       3.24516077E-06
   4.80000019       3.17744275E-06
   4.84999990       2.35298558E-06
   4.90000010       8.29001976E-07
   4.94999981      -1.11701058E-06
   5.00000000      -3.02819876E-06
   5.05000019      -4.36579739E-06
   5.09999990      -4.64171262E-06
   5.15000010      -3.55480483E-06
   5.19999981      -1.09698942E-06
   5.25000000       2.39917813E-06
   5.30000019       6.28755242E-06
   5.34999990       9.70989822E-06
   5.40000010       1.17545769E-05
   5.44999981       1.16408628E-05
   5.50000000       8.88908289E-06
   5.55000019       3.43700003E-06
   5.59999990      -4.32749130E-06
   5.65000010      -1.36294157E-05
   5.69999981      -2.34551699E-05
   5.75000000      -3.27542402E-05
   5.80000019      -4.06475992E-05
   5.84999990      -4.65935991E-05
   5.90000010      -5.04737145E-05
   5.94999981      -5.25834657E-05
   6.00000000      -5.35413237E-05
   6.05000019      -5.41516019E-05
   6.09999990      -5.52671590E-05
   6.15000010      -5.76905404E-05
   6.19999981      -6.21295185E-05
   6.25000000      -6.91942914E-05
   6.30000019      -7.94003208E-05
   6.34999990      -9.31360410E-05
   6.40000010      -1.10571549E-04
   6.44999981      -1.31520952E-04
   6.50000000      -1.55311689E-04
   6.55000019      -1.80740768E-04
   6.59999990      -2.06194571E-04
   6.65000010      -2.29966521E-04
   6.69999981      -2.50736455E-04
   6.75000000      -2.68097589E-04
   6.80000019      -2.82961875E-04
   6.84999990      -2.97672144E-04
   6.90000010      -3.15710175E-04
   6.94999981      -3.41004255E-04
   7.00000000      -3.76979238E-04
   7.05000019      -4.25603241E-04
   7.09999990      -4.86731849E-04
   7.15000010      -5.57997031E-04
   7.19999981      -6.35347213E-04
   7.25000000      -7.14147987E-04
   7.30000019      -7.90562888E-04
   7.34999990      -8.62818619E-04
   7.40000010      -9.31960705E-04
   7.44999981      -1.00183673E-03
   7.50000000      -1.07826886E-03
   7.55000019      -1.16763113E-03
   7.59999990      -1.27523777E-03
   7.65000010      -1.40402862E-03
   7.69999981      -1.55395246E-03
   7.75000000      -1.72224734E-03
   7.80000019      -1.90453627E-03
   7.84999990      -2.09641433E-03
   7.90000010      -2.29505030E-03
   7.94999981      -2.50033243E-03
   8.00000000      -2.71523395E-03
   8.05000019      -2.94532184E-03
   8.10000038      -3.19758616E-03
   8.14999962      -3.47895687E-03
   8.19999981      -3.79494228E-03
   8.25000000      -4.14875243E-03
   8.30000019      -4.54110978E-03
   8.35000038      -4.97072935E-03
   8.39999962      -5.43528190E-03
   8.44999981      -5.93255227E-03
   8.50000000      -6.46148575E-03
   8.55000019      -7.02290703E-03
   8.60000038      -7.61978561E-03
   8.64999962      -8.25706590E-03
   8.69999981      -8.94113537E-03
   8.75000000      -9.67908651E-03
   8.80000019      -1.04779238E-02
   8.85000038      -1.13438899E-02
   8.89999962      -1.22820353E-02
   8.94999981      -1.32961916E-02
   9.00000000      -1.43893510E-02
   9.05000019      -1.55644249E-02
   9.10000038      -1.68252252E-02
   9.14999962      -1.81773566E-02
   9.19999981      -1.96287110E-02
   9.25000000      -2.11893264E-02
   9.30000019      -2.28704531E-02
   9.35000038      -2.46830638E-02
   9.39999962      -2.66361684E-02
   9.44999981      -2.87355520E-02
   9.50000000      -3.09834741E-02
   9.55000019      -3.33796404E-02
   9.60000038      -3.59234028E-02
   9.64999962      -3.86166237E-02
   9.69999981      -4.14664112E-02
   9.75000000      -4.44867536E-02
   9.80000019      -4.76984978E-02
   9.85000038      -5.11273183E-02
   9.89999962      -5.48003241E-02
   9.94999981      -5.87421246E-02
   10.0000000      -6.29715547E-02
   10.0500002      -6.75001368E-02
   10.1000004      -7.23327473E-02
   10.1499996      -7.74702728E-02
   10.1999998      -8.29135627E-02
   10.2500000      -8.86674225E-02
   10.3000002      -9.47434604E-02
   10.3500004     -0.101161167    
   10.3999996     -0.107946984    
   10.4499998     -0.115132011    
   10.5000000     -0.122748986    
   10.5500002     -0.130829647    
   10.6000004     -0.139402971    
   10.6499996     -0.148494408    
   10.6999998     -0.158126041    
   10.7500000     -0.168317109    
   10.8000002     -0.179084614    
   10.8500004     -0.190443933    
   10.8999996     -0.202409834    
   10.9499998     -0.214997888    
   11.0000000     -0.228226781    
   11.0500002     -0.242120832    
   11.1000004     -0.256712317    
   11.1499996     -0.272042334    
   11.1999998     -0.288159639    
   11.2500000     -0.305117011    
   11.3000002     -0.322966129    
   11.3500004     -0.341752112    
   11.3999996     -0.361509740    
   11.4499998     -0.382262886    
   11.5000000     -0.404027611    
   11.5500002     -0.426818252    
   11.6000004     -0.450654387    
   11.6499996     -0.475566655    
   11.6999998     -0.501598775    
   11.7500000     -0.528805435    
   11.8000002     -0.557245910    
   11.8500004     -0.586976707    
   11.8999996     -0.618045270    
   11.9499998     -0.650487125    
   12.0000000     -0.684328377    
   12.0500002     -0.719591498    
   12.1000004     -0.756302774    
   12.1499996     -0.794498801    
   12.1999998     -0.834227502    
   12.2500000     -0.875546455    
   12.3000002     -0.918515563    
   12.3500004     -0.963190079    
   12.3999996      -1.00961626    
   12.4499998      -1.05783081    
   12.5000000      -1.10786581    
   12.5500002      -1.15975630    
   12.6000004      -1.21354663    
   12.6499996      -1.26929283    
   12.6999998      -1.32705891    
   12.7500000      -1.38690805    
   12.8000002      -1.44889188    
   12.8500004      -1.51304209    
   12.8999996      -1.57937062    
   12.9499998      -1.64787602    
   13.0000000      -1.71855831    
   13.0500002      -1.79143310    
   13.1000004      -1.86654234    
   13.1499996      -1.94395316    
   13.1999998      -2.02374816    
   13.2500000      -2.10600615    
   13.3000002      -2.19078231    
   13.3500004      -2.27809668    
   13.3999996      -2.36793566    
   13.4499998      -2.46026635    
   13.5000000      -2.55506206    
   13.5500002      -2.65232587    
   13.6000004      -2.75210571    
   13.6499996      -2.85449171    
   13.6999998      -2.95959520    
   13.7500000      -3.06751704    
   13.8000002      -3.17831516    
   13.8500004      -3.29198408    
   13.8999996      -3.40845728    
   13.9499998      -3.52763009    
   14.0000000      -3.64939833    
   14.0500002      -3.77369881    
   14.1000004      -3.90053272    
   14.1499996      -4.02996778    
   14.1999998      -4.16211462    
   14.2500000      -4.29708338    
   14.3000002      -4.43494081    
   14.3500004      -4.57568312    
   14.3999996      -4.71923399    
   14.4499998      -4.86546898    
   14.5000000      -5.01426363    
   14.5500002      -5.16553545    
   14.6000004      -5.31927443    
   14.6499996      -5.47554016    
   14.6999998      -5.63443661    
   14.7500000      -5.79606009    
   14.8000002      -5.96045065    
   14.8500004      -6.12756824    
   14.8999996      -6.29729223    
   14.9499998      -6.46945524    
   15.0000000      -6.64389753    
   15.0500002      -6.82051325    
   15.1000004      -6.99927521    
   15.1499996      -7.18022823    
   15.1999998      -7.36345100    
   15.2500000      -7.54899883    
   15.3000002      -7.73686028    
   15.3500004      -7.92693663    
   15.3999996      -8.11906052    
   15.4499998      -8.31304646    
   15.5000000      -8.50874519    
   15.5500002      -8.70609856    
   15.6000004      -8.90514469    
   15.6499996      -9.10599232    
   15.6999998      -9.30875587    
   15.7500000      -9.51348782    
   15.8000002      -9.72012615    
   15.8500004      -9.92849159    
   15.8999996      -10.1383219    
   15.9499998      -10.3493471    
   16.0000000      -10.5613766    
   16.0499992      -10.7743435    
   16.1000004      -10.9883165    
   16.1499996      -11.2034521    
   16.2000008      -11.4199038    
   16.2500000      -11.6377401    
   16.2999992      -11.8568897    
   16.3500004      -12.0771341    
   16.3999996      -12.2981777    
   16.4500008      -12.5197334    
   16.5000000      -12.7416182    
   16.5499992      -12.9638119    
   16.6000004      -13.1864424    
   16.6499996      -13.4097185    
   16.7000008      -13.6338243    
   16.7500000      -13.8588190    
   16.7999992      -14.0845881    
   16.8500004      -14.3108549    
   16.8999996      -14.5372686    
   16.9500008      -14.7635212    
   17.0000000      -14.9894514    
   17.0499992      -15.2150936    
   17.1000004      -15.4406576    
   17.1499996      -15.6664238    
   17.2000008      -15.8926210    
   17.2500000      -16.1193104    
   17.2999992      -16.3463421    
   17.3500004      -16.5733891    
   17.3999996      -16.8000622    
   17.4500008      -17.0260468    
   17.5000000      -17.2512169    
   17.5499992      -17.4756813    
   17.6000004      -17.6997375    
   17.6499996      -17.9237404    
   17.7000008      -18.1479568    
   17.7500000      -18.3724442    
   17.7999992      -18.5970249    
   17.8500004      -18.8213329    
   17.8999996      -19.0449505    
   17.9500008      -19.2675724    
   18.0000000      -19.4891090    
   18.0499992      -19.7097340    
   18.1000004      -19.9297924    
   18.1499996      -20.1496716    
   18.2000008      -20.3696346    
   18.2500000      -20.5897045    
   18.2999992      -20.8096581    
   18.3500004      -21.0290985    
   18.3999996      -21.2476254    
   18.4500008      -21.4649868    
   18.5000000      -21.6811962    
   18.5499992      -21.8965187    
   18.6000004      -22.1113834    
   18.6499996      -22.3261967    
   18.7000008      -22.5411892    
   18.7500000      -22.7563190    
   18.7999992      -22.9712811    
   18.8500004      -23.1856365    
   18.8999996      -23.3989887    
   18.9500008      -23.6111584    
   19.0000000      -23.8222618    
   19.0499992      -24.0326843    
   19.1000004      -24.2429256    
   19.1499996      -24.4534073    
   19.2000008      -24.6643085    
   19.2500000      -24.8754883    
   19.2999992      -25.0865364    
   19.3500004      -25.2969418    
   19.3999996      -25.5063019    
   19.4500008      -25.7144852    
   19.5000000      -25.9217052    
   19.5499992      -26.1284428    
   19.6000004      -26.3352661    
   19.6499996      -26.5426140    
   19.7000008      -26.7506218    
   19.7500000      -26.9590759    
   19.7999992      -27.1674976    
   19.8500004      -27.3753471    
   19.8999996      -27.5822430    
   19.9500008      -27.7881184    
   20.0000000      -27.9932613    
   20.0499992      -28.1982079    
   20.1000004      -28.4035206    
   20.1499996      -28.6095695    
   20.2000008      -28.8163853    
   20.2500000      -29.0236320    
   20.2999992      -29.2307491    
   20.3500004      -29.4371700    
   20.3999996      -29.6425571    
   20.4500008      -29.8469391    
   20.5000000      -30.0507107    
   20.5499992      -30.2544823    
   20.6000004      -30.4588223    
   20.6499996      -30.6640530    
   20.7000008      -30.8700886    
   20.7500000      -31.0764771    
   20.7999992      -31.2825699    
   20.8500004      -31.4877567    
   20.8999996      -31.6917210    
   20.9500008      -31.8945446    
   21.0000000      -32.0966644    
   21.0499992      -32.2987022    
   21.1000004      -32.5012054    
   21.1499996      -32.7043991    
   21.2000008      -32.9081192    
   21.2500000      -33.1118393    
   21.2999992      -33.3148956    
   21.3500004      -33.5167236    
   21.3999996      -33.7170830    
   21.4500008      -33.9161263    
   21.5000000      -34.1143112    
   21.5499992      -34.3122025    
   21.6000004      -34.5101814    
   21.6499996      -34.7082825    
   21.7000008      -34.9061050    
   21.7500000      -35.1029472    
   21.7999992      -35.2980499    
   21.8500004      -35.4908409    
   21.8999996      -35.6811485    
   21.9500008      -35.8692207    
   22.0000000      -36.0555916    
   22.0499992      -36.2408218    
   22.1000004      -36.4252205    
   22.1499996      -36.6086731    
   22.2000008      -36.7905998    
   22.2500000      -36.9701500    
   22.2999992      -37.1464310    
   22.3500004      -37.3188019    
   22.3999996      -37.4870491    
   22.4500008      -37.6513748    
   22.5000000      -37.8122444    
   22.5499992      -37.9701080    
   22.6000004      -38.1251335    
   22.6499996      -38.2770500    
   22.7000008      -38.4251556    
   22.7500000      -38.5684929    
   22.7999992      -38.7061195    
   22.8500004      -38.8373680    
   22.8999996      -38.9619827    
   22.9500008      -39.0800705    
   23.0000000      -39.1919403    
   23.0499992      -39.2978134    
   23.1000004      -39.3975945    
   23.1499996      -39.4907494    
   23.2000008      -39.5763741    
   23.2500000      -39.6533661    
   23.2999992      -39.7207184    
   23.3500004      -39.7777481    
   23.3999996      -39.8241844    
   23.4500008      -39.8600960    
   23.5000000      -39.8856850    
   23.5499992      -39.9010162    
   23.6000004      -39.9057808    
   23.6499996      -39.8992119    
   23.7000008      -39.8801918    
   23.7500000      -39.8474350    
   23.7999992      -39.7997704    
   23.8500004      -39.7363739    
   23.8999996      -39.6568298    
   23.9500008      -39.5610504    
   24.0000000      -39.4490776    
   24.0499992      -39.3208008    
   24.1000004      -39.1758003    
   24.1499996      -39.0132294    
   24.2000008      -38.8319397    
   24.2500000      -38.6306648    
   24.2999992      -38.4082642    
   24.3500004      -38.1639099    
   24.3999996      -37.8971138    
   24.4500008      -37.6076698    
   24.5000000      -37.2954178    
   24.5499992      -36.9600563    
   24.6000004      -36.6009827    
   24.6499996      -36.2172318    
   24.7000008      -35.8076210    
   24.7500000      -35.3709335    
   24.7999992      -34.9061394    
   24.8500004      -34.4125252    
   24.8999996      -33.8897438    
   24.9500008      -33.3376770    
   25.0000000      -32.7562599    
   25.0499992      -32.1452713    
   25.1000004      -31.5041847    
   25.1499996      -30.8321648    
   25.2000008      -30.1281738    
   25.2500000      -29.3911591    
   25.2999992      -28.6202583    
   25.3500004      -27.8149357    
   25.3999996      -26.9750061    
   25.4500008      -26.1005383    
   25.5000000      -25.1916962    
   25.5499992      -24.2485371    
   25.6000004      -23.2709007    
   25.6499996      -22.2583790    
   25.7000008      -21.2104130    
   25.7500000      -20.1264439    
   25.7999992      -19.0060883    
   25.8500004      -17.8492527    
   25.8999996      -16.6561680    
   25.9500008      -15.4272938    
   26.0000000      -14.1631899    
   26.0499992      -12.8643608    
   26.1000004      -11.5311394    
   26.1499996      -10.1636791    
   26.2000008      -8.76202488    
   26.2500000      -7.32625675    
   26.2999992      -5.85663795    
   26.3500004      -4.35372162    
   26.3999996      -2.81837583    
   26.4500008      -1.25171185    
   26.5000000      0.345047414    
   26.5499992       1.97072041    
   26.6000004       3.62427711    
   26.6499996       5.30486059    
   26.7000008       7.01173830    
   26.7500000       8.74416065    
   26.7999992       10.5012217    
   26.8500004       12.2817335    
   26.8999996       14.0841923    
   26.9500008       15.9068241    
   27.0000000       17.7477112    
   27.0499992       19.6049385    
   27.1000004       21.4767265    
   27.1499996       23.3614750    
   27.2000008       25.2577343    
   27.2500000       27.1640987    
   27.2999992       29.0790443    
   27.3500004       31.0008202    
   27.3999996       32.9273911    
   27.4500008       34.8564529    
   27.5000000       36.7855721    
   27.5499992       38.7123222    
   27.6000004       40.6344299    
   27.6499996       42.5498314    
   27.7000008       44.4566612    
   27.7500000       46.3531418    
   27.7999992       48.2374229    
   27.8500004       50.1074677    
   27.8999996       51.9609566    
   27.9500008       53.7953644    
   28.0000000       55.6080322    
   28.0499992       57.3963776    
   28.1000004       59.1580353    
   28.1499996       60.8909111    
   28.2000008       62.5931931    
   28.2500000       64.2631989    
   28.2999992       65.8992157    
   28.3500004       67.4993515    
   28.3999996       69.0614700    
   28.4500008       70.5831985    
   28.5000000       72.0621414    
   28.5499992       73.4960022    
   28.6000004       74.8827820    
   28.6499996       76.2208633    
   28.7000008       77.5089417    
   28.7500000       78.7459030    
   28.7999992       79.9306488    
   28.8500004       81.0618896    
   28.8999996       82.1380768    
   28.9500008       83.1575012    
   29.0000000       84.1184158    
   29.0499992       85.0192642    
   29.1000004       85.8588486    
   29.1499996       86.6364288    
   29.2000008       87.3516235    
   29.2500000       88.0042343    
   29.2999992       88.5940704    
   29.3500004       89.1207275    
   29.3999996       89.5835495    
   29.4500008       89.9817429    
   29.5000000       90.3145142    
   29.5499992       90.5813446    
   29.6000004       90.7821503    
   29.6499996       90.9173126    
   29.7000008       90.9875946    
   29.7500000       90.9939117    
   29.7999992       90.9370956    
   29.8500004       90.8177490    
   29.8999996       90.6361771    
   29.9500008       90.3925018    
   30.0000000       90.0869293    
   30.0499992       89.7199554    
   30.1000004       89.2925491    
   30.1499996       88.8061752    
   30.2000008       88.2626038    
   30.2500000       87.6637344    
   30.2999992       87.0112762    
   30.3500004       86.3066177    
   30.3999996       85.5508194    
   30.4500008       84.7447739    
   30.5000000       83.8894424    
   30.5499992       82.9861450    
   30.6000004       82.0366287    
   30.6499996       81.0431213    
   30.7000008       80.0080872    
   30.7500000       78.9339981    
   30.7999992       77.8230362    
   30.8500004       76.6770020    
   30.8999996       75.4973450    
   30.9500008       74.2853165    
   31.0000000       73.0423279    
   31.0499992       71.7701111    
   31.1000004       70.4708481    
   31.1499996       69.1471176    
   31.2000008       67.8016205    
   31.2500000       66.4369202    
   31.2999992       65.0552444    
   31.3500004       63.6583176    
   31.3999996       62.2475319    
   31.4500008       60.8241119    
   31.5000000       59.3894539    
   31.5499992       57.9452934    
   31.6000004       56.4937859    
   31.6499996       55.0373611    
   31.7000008       53.5784912    
   31.7500000       52.1193962    
   31.7999992       50.6618423    
   31.8500004       49.2071266    
   31.8999996       47.7562103    
   31.9500008       46.3100014    
   32.0000000       44.8696060    
   32.0499992       43.4365196    
   32.0999985       42.0125999    
   32.1500015       40.5998917    
   32.2000008       39.2003479    
   32.2500000       37.8155556    
   32.2999992       36.4465752    
   32.3499985       35.0939941    
   32.4000015       33.7581253    
   32.4500008       32.4393005    
   32.5000000       31.1381435    
   32.5499992       29.8556881    
   32.5999985       28.5933151    
   32.6500015       27.3525238    
   32.7000008       26.1346283    
   32.7500000       24.9404907    
   32.7999992       23.7704315    