  -10.0000000       0.00000000    
  -9.94999981       0.00000000    
  -9.89999962       0.00000000    
  -9.85000038       0.00000000    
  -9.80000019       0.00000000    
  -9.75000000       0.00000000    
  -9.69999981       0.00000000    
  -9.64999962       0.00000000    
  -9.60000038       0.00000000    
  -9.55000019       2.38700790E-26
  -9.50000000       1.68287697E-25
  -9.44999981       3.00012135E-25
  -9.39999962      -8.63133084E-26
  -9.35000038       1.16860427E-23
  -9.30000019       1.49378916E-22
  -9.25000000       9.22235297E-22
  -9.19999981       3.80122369E-21
  -9.14999962       1.14992532E-20
  -9.10000038       2.58257177E-20
  -9.05000019       3.91351168E-20
  -9.00000000       1.67463103E-20
  -8.94999981      -1.21303245E-19
  -8.89999962      -4.85724126E-19
  -8.85000038      -1.10809053E-18
  -8.80000019      -1.67915545E-18
  -8.75000000      -1.18717520E-18
  -8.69999981       2.23243164E-18
  -8.64999962       1.05835576E-17
  -8.60000038       2.36590861E-17
  -8.55000019       3.49207464E-17
  -8.50000000       2.73767980E-17
  -8.44999981      -2.57910564E-17
  -8.39999962      -1.48684034E-16
  -8.35000038      -3.32634497E-16
  -8.30000019      -4.92689155E-16
  -8.25000000      -4.33843499E-16
  -8.19999981       1.26846082E-16
  -8.14999962       1.42606668E-15
  -8.10000038       3.37954033E-15
  -8.05000019       5.22512179E-15
  -8.00000000       5.28248413E-15
  -7.94999981       1.16654606E-15
  -7.90000010      -9.18586733E-15
  -7.84999990      -2.55514502E-14
  -7.80000019      -4.29710317E-14
  -7.75000000      -5.01017515E-14
  -7.69999981      -3.03861076E-14
  -7.65000010       3.19420665E-14
  -7.59999990       1.40389219E-13
  -7.55000019       2.71747306E-13
  -7.50000000       3.65358460E-13
  -7.44999981       3.26350898E-13
  -7.40000010       5.31013222E-14
  -7.34999990      -5.07243553E-13
  -7.30000019      -1.28532352E-12
  -7.25000000      -2.02717790E-12
  -7.19999981      -2.28799943E-12
  -7.15000010      -1.52896521E-12
  -7.09999990       6.59648659E-13
  -7.05000019       4.23965290E-12
  -7.00000000       8.41521904E-12
  -6.94999981       1.15043053E-11
  -6.90000010       1.11823537E-11
  -6.84999990       5.21906520E-12
  -6.80000019      -7.34911264E-12
  -6.75000000      -2.49266927E-11
  -6.69999981      -4.25162162E-11
  -6.65000010      -5.20090186E-11
  -6.59999990      -4.41344565E-11
  -6.55000019      -1.20842624E-11
  -6.50000000       4.39668475E-11
  -6.44999981       1.13070754E-10
  -6.40000010       1.72588971E-10
  -6.34999990       1.92062352E-10
  -6.30000019       1.42539855E-10
  -6.25000000       9.87852682E-12
  -6.19999981      -1.91986774E-10
  -6.15000010      -4.13673901E-10
  -6.09999990      -5.74826353E-10
  -6.05000019      -5.83809334E-10
  -6.00000000      -3.70817294E-10
  -5.94999981       7.40430148E-11
  -5.90000010       6.71828149E-10
  -5.84999990       1.25099575E-09
  -5.80000019       1.58046887E-09
  -5.75000000       1.44007961E-09
  -5.69999981       7.13288151E-10
  -5.65000010      -5.28085575E-10
  -5.59999990      -1.98526751E-09
  -5.55000019      -3.17275339E-09
  -5.50000000      -3.54870378E-09
  -5.44999981      -2.71312861E-09
  -5.40000010      -6.15333395E-10
  -5.34999990       2.31185049E-09
  -5.30000019       5.17098320E-09
  -5.25000000       6.81505075E-09
  -5.19999981       6.23425889E-09
  -5.15000010       3.01089642E-09
  -5.09999990      -2.32346031E-09
  -5.05000019      -8.20720736E-09
  -5.00000000      -1.23662582E-08
  -4.94999981      -1.25260664E-08
  -4.90000010      -7.35060901E-09
  -4.84999990       2.70529643E-09
  -4.80000019       1.50066679E-08
  -4.75000000       2.51166483E-08
  -4.69999981       2.80292181E-08
  -4.65000010       2.00241175E-08
  -4.59999990       5.90385907E-10
  -4.55000019      -2.63300688E-08
  -4.50000000      -5.24810808E-08
  -4.44999981      -6.71767850E-08
  -4.40000010      -6.07162036E-08
  -4.34999990      -2.84517014E-08
  -4.30000019       2.58694541E-08
  -4.25000000       8.89812810E-08
  -4.19999981       1.40250648E-07
  -4.15000010       1.57207623E-07
  -4.09999990       1.23311565E-07
  -4.05000019       3.56690002E-08
  -4.00000000      -9.01580393E-08
  -3.95000005      -2.20771810E-07
  -3.90000010      -3.12146227E-07
  -3.84999990      -3.22464473E-07
  -3.79999995      -2.27358385E-07
  -3.75000000      -3.26906324E-08
  -3.70000005       2.20226369E-07
  -3.65000010       4.60552315E-07
  -3.59999990       6.05412083E-07
  -3.54999995       5.85414000E-07
  -3.50000000       3.71081285E-07
  -3.45000005      -8.71722783E-09
  -3.40000010      -4.64302275E-07
  -3.34999990      -8.62736840E-07
  -3.29999995      -1.06337552E-06
  -3.25000000      -9.62859758E-07
  -3.20000005      -5.36204254E-07
  -3.15000010       1.40496809E-07
  -3.09999990       8.96598749E-07
  -3.04999995       1.50561868E-06
  -3.00000000       1.74883019E-06
  -2.95000005       1.48696790E-06
  -2.90000010       7.17868829E-07
  -2.84999990      -4.00963529E-07
  -2.79999995      -1.57759189E-06
  -2.75000000      -2.45765000E-06
  -2.70000005      -2.72670286E-06
  -2.65000010      -2.21437404E-06
  -2.59999990      -9.67172923E-07
  -2.54999995       7.37334858E-07
  -2.50000000       2.44702142E-06
  -2.45000005       3.65319602E-06
  -2.40000010       3.94016934E-06
  -2.34999990       3.12288284E-06
  -2.29999995       1.32799380E-06
  -2.25000000      -1.01306443E-06
  -2.20000005      -3.26590362E-06
  -2.15000010      -4.76735659E-06
  -2.09999990      -5.02436114E-06
  -2.04999995      -3.87759428E-06
  -2.00000000      -1.57559623E-06
  -1.95000005       1.27130681E-06
  -1.89999998       3.85252361E-06
  -1.85000002       5.39244775E-06
  -1.79999995       5.39103075E-06
  -1.75000000       3.79437256E-06
  -1.70000005       1.03664638E-06
  -1.64999998      -2.06854656E-06
  -1.60000002      -4.56283487E-06
  -1.54999995      -5.63723233E-06
  -1.50000000      -4.89582317E-06
  -1.45000005      -2.50296171E-06
  -1.39999998       8.40029884E-07
  -1.35000002       4.09106678E-06
  -1.29999995       6.18316517E-06
  -1.25000000       6.36486129E-06
  -1.20000005       4.45667183E-06
  -1.14999998       9.36318827E-07
  -1.10000002      -3.18350590E-06
  -1.04999995      -6.65514972E-06
  -1.00000000      -8.38426786E-06
 -0.949999988      -7.78331832E-06
 -0.899999976      -4.97277097E-06
 -0.850000024      -7.57631369E-07
 -0.800000012       3.62134551E-06
 -0.750000000       6.88647060E-06
 -0.699999988       8.14230134E-06
 -0.649999976       7.17250896E-06
 -0.600000024       4.50720881E-06
 -0.550000012       1.22833501E-06
 -0.500000000      -1.42855981E-06
 -0.449999988      -2.54158863E-06
 -0.400000006      -1.87079900E-06
 -0.349999994       1.65719243E-08
 -0.300000012       1.92994639E-06
 -0.250000000       2.50587664E-06
 -0.200000003       7.79508184E-07
 -0.150000006      -3.32889726E-06
 -0.100000001      -8.80983407E-06
  -5.00000007E-02  -1.37590268E-05
   0.00000000      -1.59539068E-05
   5.00000007E-02  -1.36528542E-05
  0.100000001      -6.35520428E-06
  0.150000006       4.76196283E-06
  0.200000003       1.69378964E-05
  0.250000000       2.65014205E-05
  0.300000012       2.99746225E-05
  0.349999994       2.52875197E-05
  0.400000006       1.27016656E-05
  0.449999988      -4.91464107E-06
  0.500000000      -2.26448974E-05
  0.550000012      -3.48458525E-05
  0.600000024      -3.68964866E-05
  0.649999976      -2.68538552E-05
  0.699999988      -6.45958471E-06
  0.750000000       1.89160673E-05
  0.800000012       4.15109316E-05
  0.850000024       5.33395541E-05
  0.899999976       4.87163052E-05
  0.949999988       2.63753755E-05
   1.00000000      -9.52879418E-06
   1.04999995      -4.99847520E-05
   1.10000002      -8.32556325E-05
   1.14999998      -9.80981640E-05
   1.20000005      -8.72042292E-05
   1.25000000      -4.98464542E-05
   1.29999995       7.14736279E-06
   1.35000002       7.05430793E-05
   1.39999998       1.23829290E-04
   1.45000005       1.51582775E-04
   1.50000000       1.43901329E-04
   1.54999995       9.96259987E-05
   1.60000002       2.73364258E-05
   1.64999998      -5.63181056E-05
   1.70000005      -1.30646280E-04
   1.75000000      -1.76297224E-04
   1.79999995      -1.80550618E-04
   1.85000002      -1.41020035E-04
   1.89999998      -6.66614142E-05
   1.95000005       2.43007908E-05
   2.00000000       1.09052889E-04
   2.04999995       1.66242447E-04
   2.09999990       1.81738927E-04
   2.15000010       1.52481720E-04
   2.20000005       8.73013050E-05
   2.25000000       4.43960562E-06
   2.29999995      -7.35657813E-05
   2.34999990      -1.26207437E-04
   2.40000010      -1.40756878E-04
   2.45000005      -1.15803181E-04
   2.50000000      -6.15790705E-05
   2.54999995       3.00188390E-06
   2.59999990       5.57200874E-05
   2.65000010       7.72650237E-05
   2.70000005       5.64886250E-05
   2.75000000      -6.79880077E-06
   2.79999995      -1.02234815E-04
   2.84999990      -2.12289931E-04
   2.90000010      -3.17518134E-04
   2.95000005      -4.02023026E-04
   3.00000000      -4.57470305E-04
   3.04999995      -4.84483666E-04
   3.09999990      -4.91129176E-04
   3.15000010      -4.89147787E-04
   3.20000005      -4.89327183E-04
   3.25000000      -4.97670961E-04
   3.29999995      -5.13732259E-04
   3.34999990      -5.31716214E-04
   3.40000010      -5.43969276E-04
   3.45000005      -5.45589428E-04
   3.50000000      -5.38413704E-04
   3.54999995      -5.32758306E-04
   3.59999990      -5.45973831E-04
   3.65000010      -5.97954146E-04
   3.70000005      -7.04835402E-04
   3.75000000      -8.72886216E-04
   3.79999995      -1.09473523E-03
   3.84999990      -1.34950888E-03
   3.90000010      -1.60731515E-03
   3.95000005      -1.83712272E-03
   4.00000000      -2.01590662E-03
   4.05000019      -2.13633780E-03
   4.09999990      -2.21053045E-03
   4.15000010      -2.26839725E-03
   4.19999981      -2.35071871E-03
   4.25000000      -2.49864743E-03
   4.30000019      -2.74255523E-03
   4.34999990      -3.09346337E-03
   4.40000010      -3.53968563E-03
   4.44999981      -4.04985482E-03
   4.50000000      -4.58166981E-03
   4.55000019      -5.09397639E-03
   4.59999990      -5.55878598E-03
   4.65000010      -5.96979540E-03
   4.69999981      -6.34495914E-03
   4.75000000      -6.72240602E-03
   4.80000019      -7.15093361E-03
   4.84999990      -7.67788477E-03
   4.90000010      -8.33792426E-03
   4.94999981      -9.14589223E-03
   5.00000000      -1.00955991E-02
   5.05000019      -1.11646028E-02
   5.09999990      -1.23232054E-02
   5.15000010      -1.35447038E-02
   5.19999981      -1.48137119E-02
   5.25000000      -1.61301345E-02
   5.30000019      -1.75079107E-02
   5.34999990      -1.89693831E-02
   5.40000010      -2.05376148E-02
   5.44999981      -2.22295132E-02
   5.50000000      -2.40523070E-02
   5.55000019      -2.60046460E-02
   5.59999990      -2.80818958E-02
   5.65000010      -3.02837025E-02
   5.69999981      -3.26209441E-02
   5.75000000      -3.51193100E-02
   5.80000019      -3.78177650E-02
   5.84999990      -4.07618992E-02
   5.90000010      -4.39938903E-02
   5.94999981      -4.75422032E-02
   6.00000000      -5.14144562E-02
   6.05000019      -5.55961542E-02
   6.09999990      -6.00563474E-02
   6.15000010      -6.47592247E-02
   6.19999981      -6.96785599E-02
   6.25000000      -7.48110861E-02
   6.30000019      -8.01845938E-02
   6.34999990      -8.58581662E-02
   6.40000010      -9.19137746E-02
   6.44999981      -9.84411612E-02
   6.50000000     -0.105519719    
   6.55000019     -0.113202475    
   6.59999990     -0.121506505    
   6.65000010     -0.130412981    
   6.69999981     -0.139877051    
   6.75000000     -0.149845526    
   6.80000019     -0.160277590    
   6.84999990     -0.171163350    
   6.90000010     -0.182534754    
   6.94999981     -0.194466054    
   7.00000000     -0.207063124    
   7.05000019     -0.220444426    
   7.09999990     -0.234718725    
   7.15000010     -0.249965250    
   7.19999981     -0.266222298    
   7.25000000     -0.283487260    
   7.30000019     -0.301728189    
   7.34999990     -0.320904195    
   7.40000010     -0.340988398    
   7.44999981     -0.361987531    
   7.50000000     -0.383952379    
   7.55000019     -0.406975597    
   7.59999990     -0.431177765    
   7.65000010     -0.456685513    
   7.69999981     -0.483607769    
   7.75000000     -0.512017310    
   7.80000019     -0.541943133    
   7.84999990     -0.573375344    
   7.90000010     -0.606282175    
   7.94999981     -0.640633464    
   8.00000000     -0.676423132    
   8.05000019     -0.713685751    
   8.10000038     -0.752499759    
   8.14999962     -0.792978585    
   8.19999981     -0.835251153    
   8.25000000     -0.879438162    
   8.30000019     -0.925631523    
   8.35000038     -0.973882616    
   8.39999962      -1.02420306    
   8.44999981      -1.07657778    
   8.50000000      -1.13098550    
   8.55000019      -1.18742085    
   8.60000038      -1.24591064    
   8.64999962      -1.30652070    
   8.69999981      -1.36934960    
   8.75000000      -1.43451309    
   8.80000019      -1.50212383    
   8.85000038      -1.57227182    
   8.89999962      -1.64501238    
   8.94999981      -1.72036386    
   9.00000000      -1.79831529    
   9.05000019      -1.87884080    
   9.10000038      -1.96191812    
   9.14999962      -2.04754090    
   9.19999981      -2.13572812    
   9.25000000      -2.22652221    
   9.30000019      -2.31998253    
   9.35000038      -2.41617346    
   9.39999962      -2.51515269    
   9.44999981      -2.61696053    
   9.50000000      -2.72161841    
   9.55000019      -2.82912731    
   9.60000038      -2.93947411    
   9.64999962      -3.05263925    
   9.69999981      -3.16860056    
   9.75000000      -3.28733945    
   9.80000019      -3.40884185    
   9.85000038      -3.53309727    
   9.89999962      -3.66009426    
   9.94999981      -3.78981829    
   10.0000000      -3.92224693    
   10.0500002      -4.05734777    
   10.1000004      -4.19507837    
   10.1499996      -4.33539009    
   10.1999998      -4.47822714    
   10.2500000      -4.62353849    
   10.3000002      -4.77127600    
   10.3500004      -4.92140293    
   10.3999996      -5.07388830    
   10.4499998      -5.22870445    
   10.5000000      -5.38581896    
   10.5500002      -5.54518223    
   10.6000004      -5.70671654    
   10.6499996      -5.87031221    
   10.6999998      -6.03582859    
   10.7500000      -6.20310211    
   10.8000002      -6.37196207    
   10.8500004      -6.54225349    
   10.8999996      -6.71384716    
   10.9499998      -6.88665628    
   11.0000000      -7.06062889    
   11.0500002      -7.23573780    
   11.1000004      -7.41195917    
   11.1499996      -7.58924961    
   11.1999998      -7.76752710    
   11.2500000      -7.94666243    
   11.3000002      -8.12648487    
   11.3500004      -8.30679607    
   11.3999996      -8.48739052    
   11.4499998      -8.66807556    
   11.5000000      -8.84869003    
   11.5500002      -9.02910328    
   11.6000004      -9.20921040    
   11.6499996      -9.38891315    
   11.6999998      -9.56811047    
   11.7500000      -9.74668217    
   11.8000002      -9.92448711    
   11.8500004      -10.1013727    
   11.8999996      -10.2771845    
   11.9499998      -10.4517784    
   12.0000000      -10.6250391    
   12.0500002      -10.7968655    
   12.1000004      -10.9671764    
   12.1499996      -11.1358881    
   12.1999998      -11.3029051    
   12.2500000      -11.4681120    
   12.3000002      -11.6313705    
   12.3500004      -11.7925291    
   12.3999996      -11.9514370    
   12.4499998      -12.1079607    
   12.5000000      -12.2619877    
   12.5500002      -12.4134350    
   12.6000004      -12.5622406    
   12.6499996      -12.7083521    
   12.6999998      -12.8517151    
   12.7500000      -12.9922590    
   12.8000002      -13.1299057    
   12.8500004      -13.2645626    
   12.8999996      -13.3961439    
   12.9499998      -13.5245790    
   13.0000000      -13.6498241    
   13.0500002      -13.7718630    
   13.1000004      -13.8907003    
   13.1499996      -14.0063601    
   13.1999998      -14.1188622    
   13.2500000      -14.2282181    
   13.3000002      -14.3344231    
   13.3500004      -14.4374552    
   13.3999996      -14.5372791    
   13.4499998      -14.6338625    
   13.5000000      -14.7271757    
   13.5500002      -14.8172064    
   13.6000004      -14.9039612    
   13.6499996      -14.9874649    
   13.6999998      -15.0677605    
   13.7500000      -15.1449099    
   13.8000002      -15.2189837    
   13.8500004      -15.2900629    
   13.8999996      -15.3582354    
   13.9499998      -15.4235916    
   14.0000000      -15.4862223    
   14.0500002      -15.5462170    
   14.1000004      -15.6036558    
   14.1499996      -15.6586189    
   14.1999998      -15.7111769    
   14.2500000      -15.7614050    
   14.3000002      -15.8093767    
   14.3500004      -15.8551731    
   14.3999996      -15.8988762    
   14.4499998      -15.9405766    
   14.5000000      -15.9803658    
   14.5500002      -16.0183296    
   14.6000004      -16.0545616    
   14.6499996      -16.0891457    
   14.6999998      -16.1221733    
   14.7500000      -16.1537437    
   14.8000002      -16.1839695    
   14.8500004      -16.2129745    
   14.8999996      -16.2409000    
   14.9499998      -16.2679043    
   15.0000000      -16.2941456    
   15.0500002      -16.3197842    
   15.1000004      -16.3449650    
   15.1499996      -16.3698235    
   15.1999998      -16.3944626    
   15.2500000      -16.4189606    
   15.3000002      -16.4433765    
   15.3500004      -16.4677467    
   15.3999996      -16.4920940    
   15.4499998      -16.5164452    
   15.5000000      -16.5408401    
   15.5500002      -16.5653496    
   15.6000004      -16.5900688    
   15.6499996      -16.6151295    
   15.6999998      -16.6406860    
   15.7500000      -16.6669006    
   15.8000002      -16.6939354    
   15.8500004      -16.7219257    
   15.8999996      -16.7509880    
   15.9499998      -16.7811966    
   16.0000000      -16.8126087    
   16.0499992      -16.8452587    
   16.1000004      -16.8791790    
   16.1499996      -16.9144001    
   16.2000008      -16.9509544    
   16.2500000      -16.9888706    
   16.2999992      -17.0281715    
   16.3500004      -17.0688782    
   16.3999996      -17.1110058    
   16.4500008      -17.1545677    
   16.5000000      -17.1995964    
   16.5499992      -17.2461472    
   16.6000004      -17.2943134    
   16.6499996      -17.3442059    
   16.7000008      -17.3959503    
   16.7500000      -17.4496574    
   16.7999992      -17.5054131    
   16.8500004      -17.5632553    
   16.8999996      -17.6231842    
   16.9500008      -17.6851768    
   17.0000000      -17.7491932    
   17.0499992      -17.8152103    
   17.1000004      -17.8832302    
   17.1499996      -17.9532681    
   17.2000008      -18.0253544    
   17.2500000      -18.0995121    
   17.2999992      -18.1757469    
   17.3500004      -18.2540417    
   17.3999996      -18.3343678    
   17.4500008      -18.4167194    
   17.5000000      -18.5011139    
   17.5499992      -18.5876312    
   17.6000004      -18.6763954    
   17.6499996      -18.7675571    
   17.7000008      -18.8612614    
   17.7500000      -18.9576054    
   17.7999992      -19.0566082    
   17.8500004      -19.1582127    
   17.8999996      -19.2623062    
   17.9500008      -19.3687649    
   18.0000000      -19.4774952    
   18.0499992      -19.5884743    
   18.1000004      -19.7017555    
   18.1499996      -19.8174553    
   18.2000008      -19.9357147    
   18.2500000      -20.0566578    
   18.2999992      -20.1803589    
   18.3500004      -20.3068295    
   18.3999996      -20.4360466    
   18.4500008      -20.5679798    
   18.5000000      -20.7026405    
   18.5499992      -20.8400917    
   18.6000004      -20.9804630    
   18.6499996      -21.1239052    
   18.7000008      -21.2705555    
   18.7500000      -21.4204960    
   18.7999992      -21.5737171    
   18.8500004      -21.7301445    
   18.8999996      -21.8896599    
   18.9500008      -22.0521736    
   19.0000000      -22.2176590    
   19.0499992      -22.3861885    
   19.1000004      -22.5579205    
   19.1499996      -22.7330666    
   19.2000008      -22.9118309    
   19.2500000      -23.0943642    
   19.2999992      -23.2807331    
   19.3500004      -23.4709206    
   19.3999996      -23.6648693    
   19.4500008      -23.8625317    
   19.5000000      -24.0639114    
   19.5499992      -24.2690792    
   19.6000004      -24.4781551    
   19.6499996      -24.6912613    
   19.7000008      -24.9084797    
   19.7500000      -25.1298103    
   19.7999992      -25.3551750    
   19.8500004      -25.5844383    
   19.8999996      -25.8174820    
   19.9500008      -26.0542622    
   20.0000000      -26.2948360    
   20.0499992      -26.5393810    
   20.1000004      -26.7881393    
   20.1499996      -27.0413399    
   20.2000008      -27.2991390    
   20.2500000      -27.5615597    
   20.2999992      -27.8284836    
   20.3500004      -28.0996838    
   20.3999996      -28.3749065    
   20.4500008      -28.6539364    
   20.5000000      -28.9366589    
   20.5499992      -29.2230663    
   20.6000004      -29.5132313    
   20.6499996      -29.8072453    
   20.7000008      -30.1051521    
   20.7500000      -30.4069080    
   20.7999992      -30.7123718    
   20.8500004      -31.0213432    
   20.8999996      -31.3336105    
   20.9500008      -31.6490078    
   21.0000000      -31.9674473    
   21.0499992      -32.2889061    
   21.1000004      -32.6133804    
   21.1499996      -32.9408417    
   21.2000008      -33.2711601    
   21.2500000      -33.6041107    
   21.2999992      -33.9393654    
   21.3500004      -34.2765579    
   21.3999996      -34.6153450    
   21.4500008      -34.9554405    
   21.5000000      -35.2966614    
   21.5499992      -35.6388931    
   21.6000004      -35.9820557    
   21.6499996      -36.3260345    
   21.7000008      -36.6706390    
   21.7500000      -37.0155754    
   21.7999992      -37.3604774    
   21.8500004      -37.7049294    
   21.8999996      -38.0485268    
   21.9500008      -38.3909340    
   22.0000000      -38.7318573    
   22.0499992      -39.0710640    
   22.1000004      -39.4083366    
   22.1499996      -39.7434273    
   22.2000008      -40.0760498    
   22.2500000      -40.4058609    
   22.2999992      -40.7324753    
   22.3500004      -41.0555077    
   22.3999996      -41.3745880    
   22.4500008      -41.6893654    
   22.5000000      -41.9995079    
   22.5499992      -42.3046875    
   22.6000004      -42.6045570    
   22.6499996      -42.8987389    
   22.7000008      -43.1868401    
   22.7500000      -43.4684715    
   22.7999992      -43.7432594    
   22.8500004      -44.0109100    
   22.8999996      -44.2711678    
   22.9500008      -44.5238152    
   23.0000000      -44.7686348    
   23.0499992      -45.0053711    
   23.1000004      -45.2337112    
   23.1499996      -45.4532776    
   23.2000008      -45.6636887    
   23.2500000      -45.8645706    
   23.2999992      -46.0556068    
   23.3500004      -46.2365646    
   23.3999996      -46.4072685    
   23.4500008      -46.5676041    
   23.5000000      -46.7174225    
   23.5499992      -46.8565483    
   23.6000004      -46.9847374    
   23.6499996      -47.1017189    
   23.7000008      -47.2072296    
   23.7500000      -47.3010483    
   23.7999992      -47.3830490    
   23.8500004      -47.4531937    
   23.8999996      -47.5115013    
   23.9500008      -47.5580177    
   24.0000000      -47.5927467    
   24.0499992      -47.6156197    
   24.1000004      -47.6265335    
   24.1499996      -47.6253281    
   24.2000008      -47.6118965    
   24.2500000      -47.5861931    
   24.2999992      -47.5482826    
   24.3500004      -47.4983253    
   24.3999996      -47.4365387    
   24.4500008      -47.3631210    
   24.5000000      -47.2782173    
   24.5499992      -47.1819115    
   24.6000004      -47.0742340    
   24.6499996      -46.9552193    
   24.7000008      -46.8249512    
   24.7500000      -46.6836166    
   24.7999992      -46.5315018    
   24.8500004      -46.3689423    
   24.8999996      -46.1963120    
   24.9500008      -46.0139084    
   25.0000000      -45.8219528    
   25.0499992      -45.6205902    
   25.1000004      -45.4099236    
   25.1499996      -45.1900902    
   25.2000008      -44.9613190    
   25.2500000      -44.7239609    
   25.2999992      -44.4784851    
   25.3500004      -44.2254219    
   25.3999996      -43.9652672    
   25.4500008      -43.6984634    
   25.5000000      -43.4253044    
   25.5499992      -43.1460114    
   25.6000004      -42.8607368    
   25.6499996      -42.5696869    
   25.7000008      -42.2731361    
   25.7500000      -41.9714699    
   25.7999992      -41.6651688    
   25.8500004      -41.3547440    
   25.8999996      -41.0406685    
   25.9500008      -40.7233315    
   26.0000000      -40.4030342    
   26.0499992      -40.0799904    
   26.1000004      -39.7544365    
   26.1499996      -39.4266357    
   26.2000008      -39.0969582    
   26.2500000      -38.7658653    
   26.2999992      -38.4338646    
   26.3500004      -38.1014366    
   26.3999996      -37.7689857    
   26.4500008      -37.4367790    
   26.5000000      -37.1049919    
   26.5499992      -36.7737350    
   26.6000004      -36.4431343    
   26.6499996      -36.1133919    
   26.7000008      -35.7848129    
   26.7500000      -35.4577751    
   26.7999992      -35.1327133    
   26.8500004      -34.8100014    
   26.8999996      -34.4899368    
   26.9500008      -34.1726990    
   27.0000000      -33.8583984    
   27.0499992      -33.5470963    
   27.1000004      -33.2388840    
   27.1499996      -32.9339256    
   27.2000008      -32.6324539    
   27.2500000      -32.3347397    
   27.2999992      -32.0410461    
   27.3500004      -31.7515564    
   27.3999996      -31.4663754    
   27.4500008      -31.1855164    
   27.5000000      -30.9089680    
   27.5499992      -30.6367416    
   27.6000004      -30.3689194    
   27.6499996      -30.1056728    
   27.7000008      -29.8472195    
   27.7500000      -29.5937710    
   27.7999992      -29.3454742    
   27.8500004      -29.1023560    
   27.8999996      -28.8643322    
   27.9500008      -28.6312370    
   28.0000000      -28.4029045    
   28.0499992      -28.1792316    
   28.1000004      -27.9602146    
   28.1499996      -27.7459545    
   28.2000008      -27.5366058    
   28.2500000      -27.3323021    
   28.2999992      -27.1331062    
   28.3500004      -26.9389648    
   28.3999996      -26.7497311    
   28.4500008      -26.5652161    
   28.5000000      -26.3852596    
   28.5499992      -26.2097893    
   28.6000004      -26.0388298    
   28.6499996      -25.8724728    
   28.7000008      -25.7108097    
   28.7500000      -25.5538635    
   28.7999992      -25.4015350    
   28.8500004      -25.2536030    
   28.8999996      -25.1097717    
   28.9500008      -24.9697533    
   29.0000000      -24.8333473    
   29.0499992      -24.7004929    
   29.1000004      -24.5712719    
   29.1499996      -24.4458370    
   29.2000008      -24.3243389    
   29.2500000      -24.2068195    
   29.2999992      -24.0931759    
   29.3500004      -23.9831696    
   29.3999996      -23.8764744    
   29.4500008      -23.7727871    
   29.5000000      -23.6719074    
   29.5499992      -23.5737801    
   29.6000004      -23.4784870    
   29.6499996      -23.3861713    
   29.7000008      -23.2969341    
   29.7500000      -23.2107582    
   29.7999992      -23.1274662    
   29.8500004      -23.0467510    
   29.8999996      -22.9682388    
   29.9500008      -22.8916187    
   30.0000000      -22.8167305    
   30.0499992      -22.7436008    
   30.1000004      -22.6724148    
   30.1499996      -22.6034298    
   30.2000008      -22.5368652    
   30.2500000      -22.4728031    
   30.2999992      -22.4111309    
   30.3500004      -22.3515663    
   30.3999996      -22.2937317    
   30.4500008      -22.2372589    
   30.5000000      -22.1818962    
   30.5499992      -22.1275558    
   30.6000004      -22.0743008    
   30.6499996      -22.0222950    
   30.7000008      -21.9716969    
   30.7500000      -21.9225903    
   30.7999992      -21.8749256    
   30.8500004      -21.8285446    
   30.8999996      -21.7832222    
   30.9500008      -21.7387581    
   31.0000000      -21.6950455    
   31.0499992      -21.6521015    
   31.1000004      -21.6100674    
   31.1499996      -21.5691223    
   31.2000008      -21.5294209    
   31.2500000      -21.4910107    
   31.2999992      -21.4537983    
   31.3500004      -21.4175568    
   31.3999996      -21.3819981    
   31.4500008      -21.3468342    
   31.5000000      -21.3118668    
   31.5499992      -21.2770329    
   31.6000004      -21.2423992    
   31.6499996      -21.2081242    
   31.7000008      -21.1743946    
   31.7500000      -21.1413612    
   31.7999992      -21.1090832    
   31.8500004      -21.0775242    
   31.8999996      -21.0465698    
   31.9500008      -21.0160866    
   32.0000000      -20.9859505    
   32.0499992      -20.9561100    
   32.0999985      -20.9265785    
   32.1500015      -20.8974304    
   32.2000008      -20.8687534    
   32.2500000      -20.8406105    
   32.2999992      -20.8129978    
   32.3499985      -20.7858372    
   32.4000015      -20.7589989    
   32.4500008      -20.7323208    
   32.5000000      -20.7056770    
   32.5499992      -20.6789951    
   32.5999985      -20.6522884    
   32.6500015      -20.6256428    
   32.7000008      -20.5991783    
   32.7500000      -20.5730228    
   32.7999992      -20.5472584    