  -10.0000000       0.00000000    
  -9.94999981       0.00000000    
  -9.89999962       0.00000000    
  -9.85000038       0.00000000    
  -9.80000019       0.00000000    
  -9.75000000       0.00000000    
  -9.69999981       0.00000000    
  -9.64999962       0.00000000    
  -9.60000038       0.00000000    
  -9.55000019      -2.84441056E-26
  -9.50000000      -7.23993908E-25
  -9.44999981      -7.51793830E-24
  -9.39999962      -4.66374125E-23
  -9.35000038      -1.98332266E-22
  -9.30000019      -6.08020664E-22
  -9.25000000      -1.31894302E-21
  -9.19999981      -1.67258363E-21
  -9.14999962       6.76582547E-22
  -9.10000038       9.82307835E-21
  -9.05000019       2.73095392E-20
  -9.00000000       3.93944088E-20
  -8.94999981      -1.74437164E-21
  -8.89999962      -1.81328821E-19
  -8.85000038      -5.60572495E-19
  -8.80000019      -9.93080266E-19
  -8.75000000      -8.28311885E-19
  -8.69999981       1.29459546E-18
  -8.64999962       7.06808794E-18
  -8.60000038       1.68839756E-17
  -8.55000019       2.66511704E-17
  -8.50000000       2.41430562E-17
  -8.44999981      -1.16670790E-17
  -8.39999962      -1.02569886E-16
  -8.35000038      -2.49147489E-16
  -8.30000019      -3.96210408E-16
  -8.25000000      -4.01426013E-16
  -8.19999981      -4.16291283E-17
  -8.14999962       8.97748621E-16
  -8.10000038       2.42091757E-15
  -8.05000019       4.03987240E-15
  -8.00000000       4.55104535E-15
  -7.94999981       2.12239436E-15
  -7.90000010      -5.02075815E-15
  -7.84999990      -1.71727002E-14
  -7.80000019      -3.12601846E-14
  -7.75000000      -3.93891056E-14
  -7.69999981      -2.93103622E-14
  -7.65000010       1.16144556E-14
  -7.59999990       8.82801048E-14
  -7.55000019       1.87064651E-13
  -7.50000000       2.67058511E-13
  -7.44999981       2.60703514E-13
  -7.40000010       9.15956154E-14
  -7.34999990      -2.87032523E-13
  -7.30000019      -8.39409271E-13
  -7.25000000      -1.39974122E-12
  -7.19999981      -1.66204962E-12
  -7.15000010      -1.24154690E-12
  -7.09999990       1.73926669E-13
  -7.05000019       2.60111702E-12
  -7.00000000       5.53829899E-12
  -6.94999981       7.86144413E-12
  -6.90000010       7.97450560E-12
  -6.84999990       4.30189001E-12
  -6.80000019      -3.91132916E-12
  -6.75000000      -1.57051629E-11
  -6.69999981      -2.78065383E-11
  -6.65000010      -3.47983274E-11
  -6.59999990      -3.04174949E-11
  -6.55000019      -9.99480967E-12
  -6.50000000       2.64972714E-11
  -6.44999981       7.18985427E-11
  -6.40000010       1.11269563E-10
  -6.34999990       1.24532606E-10
  -6.30000019       9.27571978E-11
  -6.25000000       7.02365726E-12
  -6.19999981      -1.22890767E-10
  -6.15000010      -2.63965544E-10
  -6.09999990      -3.63438835E-10
  -6.05000019      -3.62416402E-10
  -6.00000000      -2.18056462E-10
  -5.94999981       7.16420048E-11
  -5.90000010       4.50073395E-10
  -5.84999990       8.01803901E-10
  -5.80000019       9.77042669E-10
  -5.75000000       8.40107428E-10
  -5.69999981       3.30582395E-10
  -5.65000010      -4.83897811E-10
  -5.59999990      -1.38863565E-09
  -5.55000019      -2.05702455E-09
  -5.50000000      -2.14468154E-09
  -5.44999981      -1.42413048E-09
  -5.40000010       8.20280302E-11
  -5.34999990       2.02552508E-09
  -5.30000019       3.76559273E-09
  -5.25000000       4.53391324E-09
  -5.19999981       3.70708086E-09
  -5.15000010       1.10949516E-09
  -5.09999990      -2.76831469E-09
  -5.05000019      -6.75326950E-09
  -5.00000000      -9.24702714E-09
  -4.94999981      -8.73917294E-09
  -4.90000010      -4.44821691E-09
  -4.84999990       3.12954640E-09
  -4.80000019       1.20135430E-08
  -4.75000000       1.90628420E-08
  -4.69999981       2.08619788E-08
  -4.65000010       1.49850088E-08
  -4.59999990       1.25005861E-09
  -4.55000019      -1.75314394E-08
  -4.50000000      -3.57490499E-08
  -4.44999981      -4.63233896E-08
  -4.40000010      -4.29758771E-08
  -4.34999990      -2.28258017E-08
  -4.30000019       1.15866632E-08
  -4.25000000       5.17700371E-08
  -4.19999981       8.48317043E-08
  -4.15000010       9.70593419E-08
  -4.09999990       7.87087657E-08
  -4.05000019       2.85215283E-08
  -4.00000000      -4.37568488E-08
  -3.95000005      -1.18251677E-07
  -3.90000010      -1.69691447E-07
  -3.84999990      -1.75152124E-07
  -3.79999995      -1.22682025E-07
  -3.75000000      -1.78947204E-08
  -3.70000005       1.14265269E-07
  -3.65000010       2.34220622E-07
  -3.59999990       2.98574605E-07
  -3.54999995       2.74435592E-07
  -3.50000000       1.52889086E-07
  -3.45000005      -4.32806395E-08
  -3.40000010      -2.61409696E-07
  -3.34999990      -4.31447262E-07
  -3.29999995      -4.86724161E-07
  -3.25000000      -3.87290669E-07
  -3.20000005      -1.38240196E-07
  -3.15000010       2.04114983E-07
  -3.09999990       5.42348403E-07
  -3.04999995       7.63532853E-07
  -3.00000000       7.74186447E-07
  -2.95000005       5.34267826E-07
  -2.90000010       7.87250940E-08
  -2.84999990      -4.82381495E-07
  -2.79999995      -9.88273428E-07
  -2.75000000      -1.27173087E-06
  -2.70000005      -1.21144171E-06
  -2.65000010      -7.76464276E-07
  -2.59999990      -4.74779291E-08
  -2.54999995       7.94739890E-07
  -2.50000000       1.51363508E-06
  -2.45000005       1.88344791E-06
  -2.40000010       1.75927289E-06
  -2.34999990       1.12890950E-06
  -2.29999995       1.28605706E-07
  -2.25000000      -9.85329393E-07
  -2.20000005      -1.90380183E-06
  -2.15000010      -2.35324433E-06
  -2.09999990      -2.17925503E-06
  -2.04999995      -1.39962367E-06
  -2.00000000      -2.08728792E-07
  -1.95000005       1.07066421E-06
  -1.89999998       2.07618450E-06
  -1.85000002       2.51022834E-06
  -1.79999995       2.22923336E-06
  -1.75000000       1.29076921E-06
  -1.70000005      -5.65853178E-08
  -1.64999998      -1.43871773E-06
  -1.60000002      -2.45844080E-06
  -1.54999995      -2.80560971E-06
  -1.50000000      -2.34356708E-06
  -1.45000005      -1.14807347E-06
  -1.39999998       5.10706514E-07
  -1.35000002       2.23599091E-06
  -1.29999995       3.60128206E-06
  -1.25000000       4.24946711E-06
  -1.20000005       3.96959285E-06
  -1.14999998       2.73625096E-06
  -1.10000002       7.09055257E-07
  -1.04999995      -1.79948381E-06
  -1.00000000      -4.37405834E-06
 -0.949999988      -6.55239319E-06
 -0.899999976      -7.88093712E-06
 -0.850000024      -7.97175926E-06
 -0.800000012      -6.56552402E-06
 -0.750000000      -3.60211698E-06
 -0.699999988       7.09489370E-07
 -0.649999976       5.84324698E-06
 -0.600000024       1.09601970E-05
 -0.550000012       1.49937987E-05
 -0.500000000       1.68299157E-05
 -0.449999988       1.55663020E-05
 -0.400000006       1.08017603E-05
 -0.349999994       2.87629541E-06
 -0.300000012      -7.02683292E-06
 -0.250000000      -1.69886571E-05
 -0.200000003      -2.46962773E-05
 -0.150000006      -2.79758260E-05
 -0.100000001      -2.54030401E-05
  -5.00000007E-02  -1.68274655E-05
   0.00000000      -3.63694471E-06
   5.00000007E-02   1.13674841E-05
  0.100000001       2.45232113E-05
  0.150000006       3.21987973E-05
  0.200000003       3.18239618E-05
  0.250000000       2.27759047E-05
  0.300000012       6.83684766E-06
  0.349999994      -1.19805554E-05
  0.400000006      -2.82869478E-05
  0.449999988      -3.67012508E-05
  0.500000000      -3.34392425E-05
  0.550000012      -1.76697959E-05
  0.600000024       7.79122911E-06
  0.649999976       3.67456669E-05
  0.699999988       6.08938171E-05
  0.750000000       7.19023810E-05
  0.800000012       6.37748235E-05
  0.850000024       3.48928370E-05
  0.899999976      -1.08852455E-05
  0.949999988      -6.44890679E-05
   1.00000000      -1.13350201E-04
   1.04999995      -1.44260048E-04
   1.10000002      -1.46721854E-04
   1.14999998      -1.15951458E-04
   1.20000005      -5.47009877E-05
   1.25000000       2.66734623E-05
   1.29999995       1.12057365E-04
   1.35000002       1.83002092E-04
   1.39999998       2.22960167E-04
   1.45000005       2.21310780E-04
   1.50000000       1.76158370E-04
   1.54999995       9.51566399E-05
   1.60000002      -5.91668413E-06
   1.64999998      -1.06552012E-04
   1.70000005      -1.86087345E-04
   1.75000000      -2.28390025E-04
   1.79999995      -2.25520911E-04
   1.85000002      -1.79507595E-04
   1.89999998      -1.01813617E-04
   1.95000005      -1.06482985E-05
   2.00000000       7.32296903E-05
   2.04999995       1.31223453E-04
   2.09999990       1.51043219E-04
   2.15000010       1.29373264E-04
   2.20000005       7.25175487E-05
   2.25000000      -5.04844456E-06
   2.29999995      -8.38388733E-05
   2.34999990      -1.43514888E-04
   2.40000010      -1.67163656E-04
   2.45000005      -1.44857084E-04
   2.50000000      -7.58373353E-05
   2.54999995       3.10377945E-05
   2.59999990       1.58641240E-04
   2.65000010       2.84476759E-04
   2.70000005       3.84663435E-04
   2.75000000       4.38378105E-04
   2.79999995       4.32047615E-04
   2.84999990       3.62577237E-04
   2.90000010       2.38980982E-04
   2.95000005       8.19581037E-05
   3.00000000      -7.87608951E-05
   3.04999995      -2.09101694E-04
   3.09999990      -2.76750507E-04
   3.15000010      -2.57668464E-04
   3.20000005      -1.41751632E-04
   3.25000000       6.36601399E-05
   3.29999995       3.33459204E-04
   3.34999990       6.28116890E-04
   3.40000010       9.00426763E-04
   3.45000005       1.10456138E-03
   3.50000000       1.20569207E-03
   3.54999995       1.18809356E-03
   3.59999990       1.05978572E-03
   3.65000010       8.52391298E-04
   3.70000005       6.15885016E-04
   3.75000000       4.09079366E-04
   3.79999995       2.87745555E-04
   3.84999990       2.92929326E-04
   3.90000010       4.42104356E-04
   3.95000005       7.25253485E-04
   4.00000000       1.10688922E-03
   4.05000019       1.53366907E-03
   4.09999990       1.94595638E-03
   4.15000010       2.29075272E-03
   4.19999981       2.53310823E-03
   4.25000000       2.66349455E-03
   4.30000019       2.69958936E-03
   4.34999990       2.68223439E-03
   4.40000010       2.66665709E-03
   4.44999981       2.71105161E-03
   4.50000000       2.86509353E-03
   4.55000019       3.16078914E-03
   4.59999990       3.60737578E-03
   4.65000010       4.19094879E-03
   4.69999981       4.87844460E-03
   4.75000000       5.62476227E-03
   4.80000019       6.38137246E-03
   4.84999990       7.10477866E-03
   4.90000010       7.76352081E-03
   4.94999981       8.34296737E-03
   5.00000000       8.84764269E-03
   5.05000019       9.30117350E-03
   5.09999990       9.74410120E-03
   5.15000010       1.02297831E-02
   5.19999981       1.08185634E-02
   5.25000000       1.15705011E-02
   5.30000019       1.25371609E-02
   5.34999990       1.37534104E-02
   5.40000010       1.52306221E-02
   5.44999981       1.69528667E-02
   5.50000000       1.88776124E-02
   5.55000019       2.09417623E-02
   5.59999990       2.30727810E-02
   5.65000010       2.52033453E-02
   5.69999981       2.72867940E-02
   5.75000000       2.93099042E-02
   5.80000019       3.12997364E-02
   5.84999990       3.33222970E-02
   5.90000010       3.54725458E-02
   5.94999981       3.78574617E-02
   6.00000000       4.05756757E-02
   6.05000019       4.36984375E-02
   6.09999990       4.72564995E-02
   6.15000010       5.12363724E-02
   6.19999981       5.55869490E-02
   6.25000000       6.02351353E-02
   6.30000019       6.51065409E-02
   6.34999990       7.01461211E-02
   6.40000010       7.53336102E-02
   6.44999981       8.06900337E-02
   6.50000000       8.62740874E-02
   6.55000019       9.21698064E-02
   6.59999990       9.84692872E-02
   6.65000010      0.105255455    
   6.69999981      0.112589382    
   6.75000000      0.120505355    
   6.80000019      0.129014105    
   6.84999990      0.138112441    
   6.90000010      0.147795513    
   6.94999981      0.158067495    
   7.00000000      0.168947354    
   7.05000019      0.180467874    
   7.09999990      0.192669183    
   7.15000010      0.205589086    
   7.19999981      0.219254434    
   7.25000000      0.233676851    
   7.30000019      0.248854980    
   7.34999990      0.264783084    
   7.40000010      0.281463593    
   7.44999981      0.298919827    
   7.50000000      0.317204595    
   7.55000019      0.336401671    
   7.59999990      0.356618822    
   7.65000010      0.377974302    
   7.69999981      0.400579035    
   7.75000000      0.424520522    
   7.80000019      0.449851632    
   7.84999990      0.476587653    
   7.90000010      0.504712701    
   7.94999981      0.534193516    
   8.00000000      0.564997315    
   8.05000019      0.597109139    
   8.10000038      0.630545139    
   8.14999962      0.665358424    
   8.19999981      0.701636970    
   8.25000000      0.739493489    
   8.30000019      0.779051900    
   8.35000038      0.820431948    
   8.39999962      0.863736391    
   8.44999981      0.909042537    
   8.50000000      0.956400454    
   8.55000019       1.00583589    
   8.60000038       1.05735815    
   8.64999962       1.11097002    
   8.69999981       1.16667581    
   8.75000000       1.22448945    
   8.80000019       1.28443718    
   8.85000038       1.34655809    
   8.89999962       1.41090202    
   8.94999981       1.47752631    
   9.00000000       1.54649293    
   9.05000019       1.61786735    
   9.10000038       1.69171810    
   9.14999962       1.76811743    
   9.19999981       1.84714139    
   9.25000000       1.92886901    
   9.30000019       2.01337671    
   9.35000038       2.10073233    
   9.39999962       2.19098759    
   9.44999981       2.28417015    
   9.50000000       2.38028073    
   9.55000019       2.47929478    
   9.60000038       2.58117080    
   9.64999962       2.68586373    
   9.69999981       2.79333925    
   9.75000000       2.90358734    
   9.80000019       3.01663136    
   9.85000038       3.13252616    
   9.89999962       3.25135159    
   9.94999981       3.37319517    
   10.0000000       3.49813533    
   10.0500002       3.62622547    
   10.1000004       3.75748348    
   10.1499996       3.89189172    
   10.1999998       4.02940321    
   10.2500000       4.16995573    
   10.3000002       4.31348515    
   10.3500004       4.45993900    
   10.3999996       4.60928106    
   10.4499998       4.76148939    
   10.5000000       4.91654825    
   10.5500002       5.07444048    
   10.6000004       5.23513317    
   10.6499996       5.39857769    
   10.6999998       5.56470728    
   10.7500000       5.73344660    
   10.8000002       5.90472317    
   10.8500004       6.07847404    
   10.8999996       6.25465488    
   10.9499998       6.43323851    
   11.0000000       6.61421013    
   11.0500002       6.79755545    
   11.1000004       6.98325205    
   11.1499996       7.17125416    
   11.1999998       7.36148882    
   11.2500000       7.55385256    
   11.3000002       7.74821901    
   11.3500004       7.94444609    
   11.3999996       8.14238644    
   11.4499998       8.34190083    
   11.5000000       8.54286480    
   11.5500002       8.74517727    
   11.6000004       8.94875908    
   11.6499996       9.15355396    
   11.6999998       9.35951614    
   11.7500000       9.56660271    
   11.8000002       9.77476501    
   11.8500004       9.98393536    
   11.8999996       10.1940250    
   11.9499998       10.4049187    
   12.0000000       10.6164827    
   12.0500002       10.8285780    
   12.1000004       11.0410652    
   12.1499996       11.2538176    
   12.1999998       11.4667301    
   12.2500000       11.6797104    
   12.3000002       11.8926821    
   12.3500004       12.1055679    
   12.3999996       12.3182840    
   12.4499998       12.5307293    
   12.5000000       12.7427893    
   12.5500002       12.9543428    
   12.6000004       13.1652784    
   12.6499996       13.3755035    
   12.6999998       13.5849571    
   12.7500000       13.7936077    
   12.8000002       14.0014439    
   12.8500004       14.2084627    
   12.8999996       14.4146490    
   12.9499998       14.6199608    
   13.0000000       14.8243237    
   13.0500002       15.0276327    
   13.1000004       15.2297707    
   13.1499996       15.4306211    
   13.1999998       15.6300888    
   13.2500000       15.8281145    
   13.3000002       16.0246696    
   13.3500004       16.2197552    
   13.3999996       16.4133835    
   13.4499998       16.6055603    
   13.5000000       16.7962837    
   13.5500002       16.9855309    
   13.6000004       17.1732750    
   13.6499996       17.3594913    
   13.6999998       17.5441647    
   13.7500000       17.7273140    
   13.8000002       17.9089737    
   13.8500004       18.0891953    
   13.8999996       18.2680359    
   13.9499998       18.4455433    
   14.0000000       18.6217365    
   14.0500002       18.7966137    
   14.1000004       18.9701500    
   14.1499996       19.1423092    
   14.1999998       19.3130665    
   14.2500000       19.4824028    
   14.3000002       19.6503334    
   14.3500004       19.8169022    
   14.3999996       19.9821758    
   14.4499998       20.1462460    
   14.5000000       20.3092117    
   14.5500002       20.4711761    
   14.6000004       20.6322346    
   14.6499996       20.7924709    
   14.6999998       20.9519577    
   14.7500000       21.1107521    
   14.8000002       21.2688866    
   14.8500004       21.4263840    
   14.8999996       21.5832577    
   14.9499998       21.7395115    
   15.0000000       21.8951530    
   15.0500002       22.0502110    
   15.1000004       22.2047272    
   15.1499996       22.3587666    
   15.1999998       22.5124111    
   15.2500000       22.6657619    
   15.3000002       22.8189259    
   15.3500004       22.9720154    
   15.3999996       23.1251278    
   15.4499998       23.2783546    
   15.5000000       23.4317627    
   15.5500002       23.5854034    
   15.6000004       23.7393017    
   15.6499996       23.8934669    
   15.6999998       24.0478859    
   15.7500000       24.2025433    
   15.8000002       24.3574162    
   15.8500004       24.5124855    
   15.8999996       24.6677666    
   15.9499998       24.8232956    
   16.0000000       24.9791451    
   16.0499992       25.1354084    
   16.1000004       25.2922077    
   16.1499996       25.4496517    
   16.2000008       25.6078377    
   16.2500000       25.7668324    
   16.2999992       25.9266624    
   16.3500004       26.0873127    
   16.3999996       26.2487507    
   16.4500008       26.4109154    
   16.5000000       26.5737572    
   16.5499992       26.7372246    
   16.6000004       26.9012680    
   16.6499996       27.0658531    
   16.7000008       27.2309399    
   16.7500000       27.3964958    
   16.7999992       27.5624924    
   16.8500004       27.7289143    
   16.8999996       27.8957653    
   16.9500008       28.0630836    
   17.0000000       28.2309170    
   17.0499992       28.3993340    
   17.1000004       28.5683842    
   17.1499996       28.7380905    
   17.2000008       28.9084263    
   17.2500000       29.0793095    
   17.2999992       29.2506065    
   17.3500004       29.4221573    
   17.3999996       29.5937939    
   17.4500008       29.7653561    
   17.5000000       29.9367218    
   17.5499992       30.1078014    
   17.6000004       30.2785263    
   17.6499996       30.4488430    
   17.7000008       30.6186962    
   17.7500000       30.7880287    
   17.7999992       30.9567757    
   17.8500004       31.1248722    
   17.8999996       31.2922688    
   17.9500008       31.4589329    
   18.0000000       31.6248322    
   18.0499992       31.7899323    
   18.1000004       31.9541702    
   18.1499996       32.1174278    
   18.2000008       32.2795219    
   18.2500000       32.4402122    
   18.2999992       32.5992126    
   18.3500004       32.7562218    
   18.3999996       32.9109688    
   18.4500008       33.0632095    
   18.5000000       33.2127838    
   18.5499992       33.3595695    
   18.6000004       33.5034981    
   18.6499996       33.6445198    
   18.7000008       33.7825928    
   18.7500000       33.9176559    
   18.7999992       34.0496178    
   18.8500004       34.1783676    
   18.8999996       34.3037682    
   18.9500008       34.4256592    
   19.0000000       34.5438347    
   19.0499992       34.6580620    
   19.1000004       34.7680511    
   19.1499996       34.8734779    
   19.2000008       34.9739952    
   19.2500000       35.0692596    
   19.2999992       35.1589699    
   19.3500004       35.2428970    
   19.3999996       35.3208733    
   19.4500008       35.3928185    
   19.5000000       35.4586983    
   19.5499992       35.5184860    
   19.6000004       35.5721283    
   19.6499996       35.6195221    
   19.7000008       35.6604843    
   19.7500000       35.6947784    
   19.7999992       35.7221260    
   19.8500004       35.7422256    
   19.8999996       35.7548103    
   19.9500008       35.7596359    
   20.0000000       35.7564926    
   20.0499992       35.7451897    
   20.1000004       35.7255554    
   20.1499996       35.6974068    
   20.2000008       35.6605682    
   20.2500000       35.6148834    
   20.2999992       35.5602226    
   20.3500004       35.4964943    
   20.3999996       35.4236488    
   20.4500008       35.3416634    
   20.5000000       35.2505264    
   20.5499992       35.1501999    
   20.6000004       35.0406113    
   20.6499996       34.9216423    
   20.7000008       34.7931252    
   20.7500000       34.6549072    
   20.7999992       34.5068398    
   20.8500004       34.3488350    
   20.8999996       34.1808586    
   20.9500008       34.0029564    
   21.0000000       33.8152046    
   21.0499992       33.6176987    
   21.1000004       33.4105339    
   21.1499996       33.1937866    
   21.2000008       32.9674988    
   21.2500000       32.7317162    
   21.2999992       32.4864922    
   21.3500004       32.2319031    
   21.3999996       31.9680691    
   21.4500008       31.6951256    
   21.5000000       31.4132442    
   21.5499992       31.1225967    
   21.6000004       30.8233604    
   21.6499996       30.5157127    
   21.7000008       30.1998444    
   21.7500000       29.8759689    
   21.7999992       29.5443401    
   21.8500004       29.2052441    
   21.8999996       28.8590012    
   21.9500008       28.5059433    
   22.0000000       28.1464005    
   22.0499992       27.7806873    
   22.1000004       27.4090919    
   22.1499996       27.0318871    
   22.2000008       26.6493626    
   22.2500000       26.2618332    
   22.2999992       25.8696556    
   22.3500004       25.4732380    
   22.3999996       25.0730324    
   22.4500008       24.6695042    
   22.5000000       24.2631168    
   22.5499992       23.8543110    
   22.6000004       23.4434891    
   22.6499996       23.0310307    
   22.7000008       22.6173038    
   22.7500000       22.2026844    
   22.7999992       21.7875710    
   22.8500004       21.3723946    
   22.8999996       20.9576206    
   22.9500008       20.5437279    
   23.0000000       20.1311855    
   23.0499992       19.7204552    
   23.1000004       19.3119717    
   23.1499996       18.9061432    
   23.2000008       18.5033607    
   23.2500000       18.1040192    
   23.2999992       17.7085152    
   23.3500004       17.3172493    
   23.3999996       16.9306240    
   23.4500008       16.5490379    
   23.5000000       16.1728783    
   23.5499992       15.8025093    
   23.6000004       15.4382849    
   23.6499996       15.0805368    
   23.7000008       14.7295952    
   23.7500000       14.3857851    
   23.7999992       14.0494223    
   23.8500004       13.7208176    
   23.8999996       13.4002609    
   23.9500008       13.0880156    
   24.0000000       12.7843189    
   24.0499992       12.4893818    
   24.1000004       12.2033892    
   24.1499996       11.9265127    
   24.2000008       11.6589127    
   24.2500000       11.4007416    
   24.2999992       11.1521320    
   24.3500004       10.9132042    
   24.3999996       10.6840544    
   24.4500008       10.4647579    
   24.5000000       10.2553730    
   24.5499992       10.0559454    
   24.6000004       9.86651802    
   24.6499996       9.68712711    
   24.7000008       9.51780033    
   24.7500000       9.35854816    
   24.7999992       9.20934963    
   24.8500004       9.07014179    
   24.8999996       8.94082069    
   24.9500008       8.82124710    
   25.0000000       8.71126270    
   25.0499992       8.61070728    
   25.1000004       8.51943302    
   25.1499996       8.43731117    
   25.2000008       8.36421776    
   25.2500000       8.30002689    
   25.2999992       8.24458408    
   25.3500004       8.19770050    
   25.3999996       8.15914345    
   25.4500008       8.12865353    
   25.5000000       8.10596180    
   25.5499992       8.09081554    
   25.6000004       8.08299065    
   25.6499996       8.08229542    
   25.7000008       8.08854866    
   25.7500000       8.10156536    
   25.7999992       8.12111950    
   25.8500004       8.14693165    
   25.8999996       8.17866611    
   25.9500008       8.21595097    
   26.0000000       8.25840378    
   26.0499992       8.30566788    
   26.1000004       8.35744190    
   26.1499996       8.41348076    
   26.2000008       8.47358608    
   26.2500000       8.53758049    
   26.2999992       8.60527420    
   26.3500004       8.67644024    
   26.3999996       8.75080395    
   26.4500008       8.82805061    
   26.5000000       8.90785122    
   26.5499992       8.98989105    
   26.6000004       9.07388592    
   26.6499996       9.15959644    
   26.7000008       9.24682236    
   26.7500000       9.33537960    
   26.7999992       9.42508030    
   26.8500004       9.51572323    
   26.8999996       9.60707951    
   26.9500008       9.69891262    
   27.0000000       9.79098892    
   27.0499992       9.88309383    
   27.1000004       9.97504616    
   27.1499996       10.0666895    
   27.2000008       10.1578865    
   27.2500000       10.2484932    
   27.2999992       10.3383579    
   27.3500004       10.4273119    
   27.3999996       10.5151825    
   27.4500008       10.6018133    
   27.5000000       10.6870832    
   27.5499992       10.7709112    
   27.6000004       10.8532591    
   27.6499996       10.9341059    
   27.7000008       11.0134277    
   27.7500000       11.0911722    
   27.7999992       11.1672468    
   27.8500004       11.2415285    
   27.8999996       11.3138828    
   27.9500008       11.3841953    
   28.0000000       11.4523907    
   28.0499992       11.5184517    
   28.1000004       11.5824041    
   28.1499996       11.6442909    
   28.2000008       11.7041502    
   28.2500000       11.7619839    
   28.2999992       11.8177500    
   28.3500004       11.8713818    
   28.3999996       11.9228106    
   28.4500008       11.9719982    
   28.5000000       12.0189610    
   28.5499992       12.0637732    
   28.6000004       12.1065531    
   28.6499996       12.1474266    
   28.7000008       12.1864920    
   28.7500000       12.2237978    
   28.7999992       12.2593317    
   28.8500004       12.2930441    
   28.8999996       12.3248711    
   28.9500008       12.3547773    
   29.0000000       12.3827715    
   29.0499992       12.4089155    
   29.1000004       12.4333057    
   29.1499996       12.4560432    
   29.2000008       12.4771986    
   29.2500000       12.4968081    
   29.2999992       12.5148640    
   29.3500004       12.5313482    
   29.3999996       12.5462618    
   29.4500008       12.5596514    
   29.5000000       12.5716248    
   29.5499992       12.5823412    
   29.6000004       12.5919771    
   29.6499996       12.6006908    
   29.7000008       12.6085901    
   29.7500000       12.6157093    
   29.7999992       12.6220226    
   29.8500004       12.6274672    
   29.8999996       12.6319761    
   29.9500008       12.6355076    
   30.0000000       12.6380634    
   30.0499992       12.6396828    
   30.1000004       12.6404247    
   30.1499996       12.6403513    
   30.2000008       12.6395054    
   30.2500000       12.6379223    
   30.2999992       12.6356297    
   30.3500004       12.6326780    
   30.3999996       12.6291523    
   30.4500008       12.6251755    
   30.5000000       12.6208858    
   30.5499992       12.6164131    
   30.6000004       12.6118393    
   30.6499996       12.6071777    
   30.7000008       12.6023731    
   30.7500000       12.5973215    
   30.7999992       12.5919085    
   30.8500004       12.5860510    
   30.8999996       12.5797262    
   30.9500008       12.5729780    
   31.0000000       12.5658989    
   31.0499992       12.5585909    
   31.1000004       12.5511389    
   31.1499996       12.5435791    
   31.2000008       12.5359049    
   31.2500000       12.5280848    
   31.2999992       12.5200987    
   31.3500004       12.5119686    
   31.3999996       12.5037670    
   31.4500008       12.4956083    
   31.5000000       12.4876108    
   31.5499992       12.4798594    
   31.6000004       12.4723644    
   31.6499996       12.4650583    
   31.7000008       12.4578133    
   31.7500000       12.4504833    
   31.7999992       12.4429541    
   31.8500004       12.4351826    
   31.8999996       12.4272146    
   31.9500008       12.4191599    
   32.0000000       12.4111547    
   32.0499992       12.4033089    
   32.0999985       12.3956680    
   32.1500015       12.3881998    
   32.2000008       12.3808146    
   32.2500000       12.3734026    
   32.2999992       12.3658867    
   32.3499985       12.3582525    
   32.4000015       12.3505602    
   32.4500008       12.3429174    
   32.5000000       12.3354435    
   32.5499992       12.3282185    
   32.5999985       12.3212566    
   32.6500015       12.3144979    
   32.7000008       12.3078413    
   32.7500000       12.3011789    
   32.7999992       12.2944479    