  -10.0000000       0.00000000    
  -9.94999981       0.00000000    
  -9.89999962       0.00000000    
  -9.85000038       0.00000000    
  -9.80000019       0.00000000    
  -9.75000000       0.00000000    
  -9.69999981       0.00000000    
  -9.64999962       0.00000000    
  -9.60000038       0.00000000    
  -9.55000019       0.00000000    
  -9.50000000       0.00000000    
  -9.44999981       2.27348050E-38
  -9.39999962       1.18327750E-36
  -9.35000038       1.39093942E-35
  -9.30000019       9.88751920E-35
  -9.25000000       6.34436066E-34
  -9.19999981       4.30115293E-33
  -9.14999962       2.75156162E-32
  -9.10000038       1.48281771E-31
  -9.05000019       6.52550862E-31
  -9.00000000       2.35316873E-30
  -8.94999981       7.00933627E-30
  -8.89999962       1.72786475E-29
  -8.85000038       3.49053045E-29
  -8.80000019       5.60877985E-29
  -8.75000000       6.68369131E-29
  -8.69999981       5.03143992E-29
  -8.64999962       2.52547194E-29
  -8.60000038       1.11670847E-28
  -8.55000019       5.20269174E-28
  -8.50000000       1.16848895E-27
  -8.44999981       4.76494665E-28
  -8.39999962      -6.76212878E-27
  -8.35000038      -3.09746943E-26
  -8.30000019      -8.41820836E-26
  -8.25000000      -1.62879612E-25
  -8.19999981      -2.10160039E-25
  -8.14999962      -6.44479946E-26
  -8.10000038       5.60888042E-25
  -8.05000019       1.96819277E-24
  -8.00000000       4.10249204E-24
  -7.94999981       5.84811304E-24
  -7.90000010       4.20667690E-24
  -7.84999990      -5.89227939E-24
  -7.80000019      -2.97599070E-23
  -7.75000000      -6.75153358E-23
  -7.69999981      -1.04653841E-22
  -7.65000010      -1.01715100E-22
  -7.59999990       8.02551113E-24
  -7.55000019       2.98024859E-22
  -7.50000000       7.89829601E-22
  -7.44999981       1.35408921E-21
  -7.40000010       1.60210405E-21
  -7.34999990       8.49407154E-22
  -7.30000019      -1.71993791E-21
  -7.25000000      -6.55986537E-21
  -7.19999981      -1.29168162E-20
  -7.15000010      -1.78616615E-20
  -7.09999990      -1.58003097E-20
  -7.05000019       5.94230416E-22
  -7.00000000       3.70661345E-20
  -6.94999981       9.17828428E-20
  -6.90000010       1.47970269E-19
  -6.84999990       1.68852159E-19
  -6.80000019       1.00826221E-19
  -6.75000000      -1.08706034E-19
  -6.69999981      -4.75787257E-19
  -6.65000010      -9.32187779E-19
  -6.59999990      -1.28429799E-18
  -6.55000019      -1.21092159E-18
  -6.50000000      -3.37795204E-19
  -6.44999981       1.58631249E-18
  -6.40000010       4.42663182E-18
  -6.34999990       7.39208135E-18
  -6.30000019       8.90961201E-18
  -6.25000000       6.83889273E-18
  -6.19999981      -8.10662643E-19
  -6.15000010      -1.46515557E-17
  -6.09999990      -3.24481481E-17
  -6.05000019      -4.80188404E-17
  -6.00000000      -5.13938531E-17
  -5.94999981      -3.11040954E-17
  -5.90000010       2.10060316E-17
  -5.84999990       1.03088575E-16
  -5.80000019       1.96811824E-16
  -5.75000000       2.64545515E-16
  -5.69999981       2.54208961E-16
  -5.65000010       1.14663684E-16
  -5.59999990      -1.78771531E-16
  -5.55000019      -5.94371913E-16
  -5.50000000      -1.02119118E-15
  -5.44999981      -1.26894885E-15
  -5.40000010      -1.10519864E-15
  -5.34999990      -3.35806371E-16
  -5.30000019       1.08186023E-15
  -5.25000000       2.92526471E-15
  -5.19999981       4.64427741E-15
  -5.15000010       5.40875684E-15
  -5.09999990       4.30916958E-15
  -5.05000019       7.09117402E-16
  -5.00000000      -5.31970318E-15
  -4.94999981      -1.26247643E-14
  -4.90000010      -1.88589802E-14
  -4.84999990      -2.08165377E-14
  -4.80000019      -1.53164038E-14
  -4.75000000      -5.48181989E-16
  -4.69999981       2.24463206E-14
  -4.65000010       4.87077352E-14
  -4.59999990       6.93666045E-14
  -4.55000019       7.32609164E-14
  -4.50000000       5.02985342E-14
  -4.44999981      -3.95412344E-15
  -4.40000010      -8.37271062E-14
  -4.34999990      -1.70401115E-13
  -4.30000019      -2.33718237E-13
  -4.25000000      -2.38162165E-13
  -4.19999981      -1.54355546E-13
  -4.15000010       2.67404795E-14
  -4.09999990       2.81132593E-13
  -4.05000019       5.46218181E-13
  -4.00000000       7.27592357E-13
  -3.95000005       7.20952107E-13
  -3.90000010       4.47126656E-13
  -3.84999990      -1.07607899E-13
  -3.79999995      -8.59021838E-13
  -3.75000000      -1.61568588E-12
  -3.70000005      -2.10584328E-12
  -3.65000010      -2.04475564E-12
  -3.59999990      -1.23341983E-12
  -3.54999995       3.35654681E-13
  -3.50000000       2.40179317E-12
  -3.45000005       4.42766396E-12
  -3.40000010       5.68741321E-12
  -3.34999990       5.45495853E-12
  -3.29999995       3.26082130E-12
  -3.25000000      -8.50205106E-13
  -3.20000005      -6.15228138E-12
  -3.15000010      -1.12534444E-11
  -3.09999990      -1.43490402E-11
  -3.04999995      -1.37047474E-11
  -3.00000000      -8.27601009E-12
  -2.95000005       1.70772619E-12
  -2.90000010       1.44082671E-11
  -2.84999990       2.64882716E-11
  -2.79999995       3.37660282E-11
  -2.75000000       3.23582688E-11
  -2.70000005       2.00681850E-11
  -2.65000010      -2.38034223E-12
  -2.59999990      -3.07252349E-11
  -2.54999995      -5.75508009E-11
  -2.50000000      -7.38284572E-11
  -2.45000005      -7.14191206E-11
  -2.40000010      -4.59657173E-11
  -2.34999990       6.79823331E-13
  -2.29999995       5.94207947E-11
  -2.25000000       1.14972108E-10
  -2.20000005       1.49193019E-10
  -2.15000010       1.46172283E-10
  -2.09999990       9.78347056E-11
  -2.04999995       8.36962184E-12
  -2.00000000      -1.04232289E-10
  -1.95000005      -2.10699166E-10
  -1.89999998      -2.77160683E-10
  -1.85000002      -2.74766349E-10
  -1.79999995      -1.89790156E-10
  -1.75000000      -3.10861822E-11
  -1.70000005       1.68044134E-10
  -1.64999998       3.55317636E-10
  -1.60000002       4.72001827E-10
  -1.54999995       4.69919326E-10
  -1.50000000       3.28382099E-10
  -1.45000005       6.56594085E-11
  -1.39999998      -2.59683691E-10
  -1.35000002      -5.59861768E-10
  -1.29999995      -7.40080830E-10
  -1.25000000      -7.26813110E-10
  -1.20000005      -4.94218444E-10
  -1.14999998      -8.00048708E-11
  -1.10000002       4.16097601E-10
  -1.04999995       8.53672188E-10
  -1.00000000       1.08924714E-09
 -0.949999988       1.02090914E-09
 -0.899999976       6.26823426E-10
 -0.850000024      -1.55904786E-11
 -0.800000012      -7.39009964E-10
 -0.750000000      -1.32560196E-09
 -0.699999988      -1.56858881E-09
 -0.649999976      -1.33978872E-09
 -0.600000024      -6.42498832E-10
 -0.550000012       3.69417247E-10
 -0.500000000       1.41750933E-09
 -0.449999988       2.16840368E-09
 -0.400000006       2.33162689E-09
 -0.349999994       1.75877513E-09
 -0.300000012       5.12783482E-10
 -0.250000000      -1.11910170E-09
 -0.200000003      -2.68111600E-09
 -0.150000006      -3.66614716E-09
 -0.100000001      -3.66653574E-09
  -5.00000007E-02  -2.51629739E-09
   0.00000000      -3.79309695E-10
   5.00000007E-02   2.25145835E-09
  0.100000001       4.65581262E-09
  0.150000006       6.07188211E-09
  0.200000003       5.92000182E-09
  0.250000000       4.00205602E-09
  0.300000012       6.13038509E-10
  0.349999994      -3.47960039E-09
  0.400000006      -7.19874826E-09
  0.449999988      -9.43114564E-09
  0.500000000      -9.34382172E-09
  0.550000012      -6.65573419E-09
  0.600000024      -1.78108639E-09
  0.649999976       4.20994750E-09
  0.699999988       9.81948212E-09
  0.750000000       1.34917331E-08
  0.800000012       1.40325609E-08
  0.850000024       1.09657385E-08
  0.899999976       4.72268802E-09
  0.949999988      -3.39781958E-09
   1.00000000      -1.15034746E-08
   1.04999995      -1.75553918E-08
   1.10000002      -1.98780139E-08
   1.14999998      -1.76007742E-08
   1.20000005      -1.09147447E-08
   1.25000000      -1.07393572E-09
   1.29999995       9.86328086E-09
   1.35000002       1.94903258E-08
   1.39999998       2.55942734E-08
   1.45000005       2.66525682E-08
   1.50000000       2.21693366E-08
   1.54999995       1.27804682E-08
   1.60000002       1.16089673E-10
   1.64999998      -1.35336595E-08
   1.70000005      -2.56634518E-08
   1.75000000      -3.40081314E-08
   1.79999995      -3.69208166E-08
   1.85000002      -3.36172583E-08
   1.89999998      -2.42679494E-08
   1.95000005      -9.95217420E-09
   2.00000000       7.49279838E-09
   2.04999995       2.56912998E-08
   2.09999990       4.19900275E-08
   2.15000010       5.37454632E-08
   2.20000005       5.86315849E-08
   2.25000000       5.49603811E-08
   2.29999995       4.19957722E-08
   2.34999990       2.02240855E-08
   2.40000010      -8.47308357E-09
   2.45000005      -4.08051406E-08
   2.50000000      -7.22730960E-08
   2.54999995      -9.76162724E-08
   2.59999990      -1.11498736E-07
   2.65000010      -1.09381006E-07
   2.70000005      -8.84714950E-08
   2.75000000      -4.86070135E-08
   2.79999995       7.11871584E-09
   2.84999990       7.21646032E-08
   2.90000010       1.36945431E-07
   2.95000005       1.89911901E-07
   3.00000000       2.19276359E-07
   3.04999995       2.15205873E-07
   3.09999990       1.72149782E-07
   3.15000010       9.08430451E-08
   3.20000005      -2.05277679E-08
   3.25000000      -1.46454241E-07
   3.29999995      -2.65805909E-07
   3.34999990      -3.55072103E-07
   3.40000010      -3.92747211E-07
   3.45000005      -3.64099662E-07
   3.50000000      -2.65317169E-07
   3.54999995      -1.05971104E-07
   3.59999990       9.10483138E-08
   3.65000010       2.92513789E-07
   3.70000005       4.60511245E-07
   3.75000000       5.59831335E-07
   3.79999995       5.65628113E-07
   3.84999990       4.69615117E-07
   3.90000010       2.83213438E-07
   3.95000005       3.66284638E-08
   4.00000000      -2.26289870E-07
   4.05000019      -4.56539937E-07
   4.09999990      -6.10065683E-07
   4.15000010      -6.57192572E-07
   4.19999981      -5.89154581E-07
   4.25000000      -4.20066812E-07
   4.30000019      -1.83758573E-07
   4.34999990       7.38375050E-08
   4.40000010       3.04895423E-07
   4.44999981       4.69955864E-07
   4.50000000       5.45664591E-07
   4.55000019       5.28116743E-07
   4.59999990       4.31188084E-07
   4.65000010       2.80697805E-07
   4.69999981       1.06472818E-07
   4.75000000      -6.50309175E-08
   4.80000019      -2.15184883E-07
   4.84999990      -3.33482376E-07
   4.90000010      -4.14071479E-07
   4.94999981      -4.50531104E-07
   5.00000000      -4.31863839E-07
   5.05000019      -3.42553903E-07
   5.09999990      -1.68189558E-07
   5.15000010       9.41239122E-08
   5.19999981       4.23823735E-07
   5.25000000       7.68484995E-07
   5.30000019       1.04426272E-06
   5.34999990       1.14874069E-06
   5.40000010       9.86156238E-07
   5.44999981       5.00405008E-07
   5.50000000      -2.92922380E-07
   5.55000019      -1.28642239E-06
   5.59999990      -2.28268414E-06
   5.65000010      -3.02355511E-06
   5.69999981      -3.24513235E-06
   5.75000000      -2.74842478E-06
   5.80000019      -1.46871162E-06
   5.84999990       4.76498911E-07
   5.90000010       2.77869731E-06
   5.94999981       4.97860174E-06
   6.00000000       6.55308668E-06
   6.05000019       7.03317528E-06
   6.09999990       6.12663598E-06
   6.15000010       3.81384825E-06
   6.19999981       3.88813731E-07
   6.25000000      -3.57155068E-06
   6.30000019      -7.30967031E-06
   6.34999990      -1.00423604E-05
   6.40000010      -1.11347299E-05
   6.44999981      -1.02516524E-05
   6.50000000      -7.44855470E-06
   6.55000019      -3.17650552E-06
   6.59999990       1.80304596E-06
   6.65000010       6.57606415E-06
   6.69999981       1.02698987E-05
   6.75000000       1.22374549E-05
   6.80000019       1.21876892E-05
   6.84999990       1.02320200E-05
   6.90000010       6.83763483E-06
   6.94999981       2.70228838E-06
   7.00000000      -1.41522321E-06
   7.05000019      -4.86449835E-06
   7.09999990      -7.23023231E-06
   7.15000010      -8.38675169E-06
   7.19999981      -8.47183765E-06
   7.25000000      -7.79393031E-06
   7.30000019      -6.70493182E-06
   7.34999990      -5.47922127E-06
   7.40000010      -4.23592155E-06
   7.44999981      -2.92699883E-06
   7.50000000      -1.39263818E-06
   7.55000019       5.36211132E-07
   7.59999990       2.92374966E-06
   7.65000010       5.64402671E-06
   7.69999981       8.35692299E-06
   7.75000000       1.05595745E-05
   7.80000019       1.17038026E-05
   7.84999990       1.13483229E-05
   7.90000010       9.30126953E-06
   7.94999981       5.70849534E-06
   8.00000000       1.05674485E-06
   8.05000019      -3.91531057E-06
   8.10000038      -8.37790230E-06
   8.14999962      -1.16002420E-05
   8.19999981      -1.31169518E-05
   8.25000000      -1.28234642E-05
   8.30000019      -1.09732882E-05
   8.35000038      -8.07930701E-06
   8.39999962      -4.75059005E-06
   8.44999981      -1.51634435E-06
   8.50000000       1.30725482E-06
   8.55000019       3.66525956E-06
   8.60000038       5.71274768E-06
   8.64999962       7.68283007E-06
   8.69999981       9.72025919E-06
   8.75000000       1.17402624E-05
   8.80000019       1.33661106E-05
   8.85000038       1.39748536E-05
   8.89999962       1.28460078E-05
   8.94999981       9.37386631E-06
   9.00000000       3.28144938E-06
   9.05000019      -5.22943719E-06
   9.10000038      -1.54408954E-05
   9.14999962      -2.62114954E-05
   9.19999981      -3.61792663E-05
   9.25000000      -4.40256845E-05
   9.30000019      -4.87367797E-05
   9.35000038      -4.98021436E-05
   9.39999962      -4.73130167E-05
   9.44999981      -4.19495482E-05
   9.50000000      -3.48736467E-05
   9.55000019      -2.75605635E-05
   9.60000038      -2.16052049E-05
   9.64999962      -1.85307308E-05
   9.69999981      -1.96138244E-05
   9.75000000      -2.57308347E-05
   9.80000019      -3.72274953E-05
   9.85000038      -5.38224958E-05
   9.89999962      -7.45676734E-05
   9.94999981      -9.78958851E-05
   10.0000000      -1.21784637E-04
   10.0500002      -1.44043719E-04
   10.1000004      -1.62702170E-04
   10.1499996      -1.76431451E-04
   10.1999998      -1.84912584E-04
   10.2500000      -1.89046666E-04
   10.3000002      -1.90928709E-04
   10.3500004      -1.93553686E-04
   10.3999996      -2.00289156E-04
   10.4499998      -2.14214699E-04
   10.5000000      -2.37473796E-04
   10.5500002      -2.70796096E-04
   10.6000004      -3.13317694E-04
   10.6499996      -3.62763007E-04
   10.6999998      -4.15965420E-04
   10.7500000      -4.69620631E-04
   10.8000002      -5.21103619E-04
   10.8500004      -5.69158932E-04
   10.8999996      -6.14295481E-04
   10.9499998      -6.58782374E-04
   11.0000000      -7.06233142E-04
   11.0500002      -7.60863535E-04
   11.1000004      -8.26589880E-04
   11.1499996      -9.06179368E-04
   11.1999998      -1.00066327E-03
   11.2500000      -1.10916630E-03
   11.3000002      -1.22921786E-03
   11.3500004      -1.35748636E-03
   11.3999996      -1.49077585E-03
   11.4499998      -1.62703940E-03
   11.5000000      -1.76614907E-03
   11.5500002      -1.91020663E-03
   11.6000004      -2.06329091E-03
   11.6499996      -2.23068497E-03
   11.6999998      -2.41777278E-03
   11.7500000      -2.62890407E-03
   11.8000002      -2.86654290E-03
   11.8500004      -3.13096237E-03
   11.8999996      -3.42058600E-03
   11.9499998      -3.73289571E-03
   12.0000000      -4.06565005E-03
   12.0500002      -4.41803597E-03
   12.1000004      -4.79140179E-03
   12.1499996      -5.18932287E-03
   12.1999998      -5.61696105E-03
   12.2500000      -6.07990660E-03
   12.3000002      -6.58287946E-03
   12.3500004      -7.12871412E-03
   12.3999996      -7.71799916E-03
   12.4499998      -8.34952947E-03
   12.5000000      -9.02147777E-03
   12.5500002      -9.73294675E-03
   12.6000004      -1.04854163E-02
   12.6499996      -1.12836184E-02
   12.6999998      -1.21355299E-02
   12.7500000      -1.30514363E-02
   12.8000002      -1.40423169E-02
   12.8500004      -1.51180141E-02
   12.8999996      -1.62856951E-02
   12.9499998      -1.75490920E-02
   13.0000000      -1.89086925E-02
   13.0500002      -2.03628410E-02
   13.1000004      -2.19094176E-02
   13.1499996      -2.35476010E-02
   13.1999998      -2.52792686E-02
   13.2500000      -2.71096732E-02
   13.3000002      -2.90472768E-02
   13.3500004      -3.11028734E-02
   13.3999996      -3.32883112E-02
   13.4499998      -3.56151834E-02
   13.5000000      -3.80938053E-02
   13.5500002      -4.07327376E-02
   13.6000004      -4.35389020E-02
   13.6499996      -4.65181619E-02
   13.6999998      -4.96762469E-02
   13.7500000      -5.30197322E-02
   13.8000002      -5.65568954E-02
   13.8500004      -6.02982268E-02
   13.8999996      -6.42565638E-02
   13.9499998      -6.84467033E-02
   14.0000000      -7.28846341E-02
   14.0500002      -7.75863975E-02
   14.1000004      -8.25669020E-02
   14.1499996      -8.78388137E-02
   14.1999998      -9.34119672E-02
   14.2500000      -9.92933735E-02
   14.3000002     -0.105488047    
   14.3500004     -0.112000458    
   14.3999996     -0.118836470    
   14.4499998     -0.126005188    
   14.5000000     -0.133520409    
   14.5500002     -0.141401082    
   14.6000004     -0.149670824    
   14.6499996     -0.158356503    
   14.6999998     -0.167485967    
   14.7500000     -0.177085787    
   14.8000002     -0.187179327    
   14.8500004     -0.197785422    
   14.8999996     -0.208918095    
   14.9499998     -0.220587313    
   15.0000000     -0.232800454    
   15.0500002     -0.245564282    
   15.1000004     -0.258887053    
   15.1499996     -0.272780478    
   15.1999998     -0.287261099    
   15.2500000     -0.302351058    
   15.3000002     -0.318077832    
   15.3500004     -0.334472924    
   15.3999996     -0.351569623    
   15.4499998     -0.369400054    
   15.5000000     -0.387991995    
   15.5500002     -0.407366693    
   15.6000004     -0.427537650    
   15.6499996     -0.448511928    
   15.6999998     -0.470293105    
   15.7500000     -0.492885947    
   15.8000002     -0.516301155    
   15.8500004     -0.540558994    
   15.8999996     -0.565690458    
   15.9499998     -0.591735303    
   16.0000000     -0.618736625    
   16.0499992     -0.646734178    
   16.1000004     -0.675757766    
   16.1499996     -0.705823302    
   16.2000008     -0.736931980    
   16.2500000     -0.769074798    
   16.2999992     -0.802239597    
   16.3500004     -0.836419940    
   16.3999996     -0.871622026    
   16.4500008     -0.907868266    
   16.5000000     -0.945195436    
   16.5499992     -0.983649015    
   16.6000004      -1.02327394    
   16.6499996      -1.06410670    
   16.7000008      -1.10616803    
   16.7500000      -1.14946342    
   16.7999992      -1.19398594    
   16.8500004      -1.23972273    
   16.8999996      -1.28666461    
   16.9500008      -1.33480966    
   17.0000000      -1.38416779    
   17.0499992      -1.43475747    
   17.1000004      -1.48660088    
   17.1499996      -1.53971684    
   17.2000008      -1.59411645    
   17.2500000      -1.64979959    
   17.2999992      -1.70675778    
   17.3500004      -1.76497757    
   17.3999996      -1.82444656    
   17.4500008      -1.88515770    
   17.5000000      -1.94711101    
   17.5499992      -2.01031327    
   17.6000004      -2.07477450    
   17.6499996      -2.14050388    
   17.7000008      -2.20750499    
   17.7500000      -2.27577639    
   17.7999992      -2.34530997    
   17.8500004      -2.41609287    
   17.8999996      -2.48811007    
   17.9500008      -2.56134367    
   18.0000000      -2.63577437    
   18.0499992      -2.71137810    
   18.1000004      -2.78812957    
   18.1499996      -2.86599994    
   18.2000008      -2.94496179    
   18.2500000      -3.02499223    
   18.2999992      -3.10607576    
   18.3500004      -3.18820643    
   18.3999996      -3.27138400    
   18.4500008      -3.35560894    
   18.5000000      -3.44087577    
   18.5499992      -3.52716541    
   18.6000004      -3.61444330    
   18.6499996      -3.70266080    
   18.7000008      -3.79176354    
   18.7500000      -3.88169885    
   18.7999992      -3.97242808    
   18.8500004      -4.06392860    
   18.8999996      -4.15619326    
   18.9500008      -4.24922276    
   19.0000000      -4.34301424    
   19.0499992      -4.43755293    
   19.1000004      -4.53280163    
   19.1499996      -4.62870741    
   19.2000008      -4.72520542    
   19.2500000      -4.82223272    
   19.2999992      -4.91973829    
   19.3500004      -5.01769352    
   19.3999996      -5.11608696    
   19.4500008      -5.21491766    
   19.5000000      -5.31418133    
   19.5499992      -5.41385984    
   19.6000004      -5.51391506    
   19.6499996      -5.61429214    
   19.7000008      -5.71492815    
   19.7500000      -5.81576633    
   19.7999992      -5.91676807    
   19.8500004      -6.01791811    
   19.8999996      -6.11921883    
   19.9500008      -6.22067881    
   20.0000000      -6.32229710    
   20.0499992      -6.42404747    
   20.1000004      -6.52587891    
   20.1499996      -6.62771702    
   20.2000008      -6.72948456    
   20.2500000      -6.83111906    
   20.2999992      -6.93258810    
   20.3500004      -7.03389454    
   20.3999996      -7.13506985    
   20.4500008      -7.23615551    
   20.5000000      -7.33717823    
   20.5499992      -7.43813467    
   20.6000004      -7.53897953    
   20.6499996      -7.63963556    
   20.7000008      -7.74001169    
   20.7500000      -7.84002924    
   20.7999992      -7.93964148    
   20.8500004      -8.03884602    
   20.8999996      -8.13767529    
   20.9500008      -8.23618412    
   21.0000000      -8.33442402    
   21.0499992      -8.43241596    
   21.1000004      -8.53014755    
   21.1499996      -8.62756729    
   21.2000008      -8.72460938    
   21.2500000      -8.82120609    
   21.2999992      -8.91731739    
   21.3500004      -9.01294041    
   21.3999996      -9.10810471    
   21.4500008      -9.20286369    
   21.5000000      -9.29726315    
   21.5499992      -9.39133453    
   21.6000004      -9.48507309    
   21.6499996      -9.57844734    
   21.7000008      -9.67140770    
   21.7500000      -9.76390266    
   21.7999992      -9.85590267    
   21.8500004      -9.94740391    
   21.8999996      -10.0384245    
   21.9500008      -10.1290007    
   22.0000000      -10.2191668    
   22.0499992      -10.3089495    
   22.1000004      -10.3983555    
   22.1499996      -10.4873810    
   22.2000008      -10.5760183    
   22.2500000      -10.6642647    
   22.2999992      -10.7521315    
   22.3500004      -10.8396406    
   22.3999996      -10.9268169    
   22.4500008      -11.0136814    
   22.5000000      -11.1002378    
   22.5499992      -11.1864710    
   22.6000004      -11.2723579    
   22.6499996      -11.3578749    
   22.7000008      -11.4430170    
   22.7500000      -11.5278044    
   22.7999992      -11.6122837    
   22.8500004      -11.6965141    
   22.8999996      -11.7805510    
   22.9500008      -11.8644228    
   23.0000000      -11.9481239    
   23.0499992      -12.0316181    
   23.1000004      -12.1148453    
   23.1499996      -12.1977549    
   23.2000008      -12.2803192    
   23.2500000      -12.3625593    
   23.2999992      -12.4445353    
   23.3500004      -12.5263386    
   23.3999996      -12.6080608    
   23.4500008      -12.6897707    
   23.5000000      -12.7714920    
   23.5499992      -12.8532009    
   23.6000004      -12.9348345    
   23.6499996      -13.0163240    
   23.7000008      -13.0976162    
   23.7500000      -13.1786976    
   23.7999992      -13.2596045    
   23.8500004      -13.3404036    
   23.8999996      -13.4211798    
   23.9500008      -13.5019989    
   24.0000000      -13.5828924    
   24.0499992      -13.6638451    
   24.1000004      -13.7448053    
   24.1499996      -13.8257103    
   24.2000008      -13.9065056    
   24.2500000      -13.9871721    
   24.2999992      -14.0677357    
   24.3500004      -14.1482611    
   24.3999996      -14.2288246    
   24.4500008      -14.3094988    
   24.5000000      -14.3903217    
   24.5499992      -14.4712849    
   24.6000004      -14.5523491    
   24.6499996      -14.6334553    
   24.7000008      -14.7145472    
   24.7500000      -14.7956028    
   24.7999992      -14.8766365    
   24.8500004      -14.9577007    
   24.8999996      -15.0388689    
   24.9500008      -15.1202097    
   25.0000000      -15.2017660    
   25.0499992      -15.2835340    
   25.1000004      -15.3654804    
   25.1499996      -15.4475393    
   25.2000008      -15.5296450    
   25.2500000      -15.6117516    
   25.2999992      -15.6938524    
   25.3500004      -15.7759781    
   25.3999996      -15.8581877    
   25.4500008      -15.9405460    
   25.5000000      -16.0231056    
   25.5499992      -16.1058884    
   25.6000004      -16.1888790    
   25.6499996      -16.2720394    
   25.7000008      -16.3553219    
   25.7500000      -16.4386921    
   25.7999992      -16.5221405    
   25.8500004      -16.6056900    
   25.8999996      -16.6893902    
   25.9500008      -16.7732868    
   26.0000000      -16.8574162    
   26.0499992      -16.9417820    
   26.1000004      -17.0263538    
   26.1499996      -17.1110744    
   26.2000008      -17.1958885    
   26.2500000      -17.2807503    
   26.2999992      -17.3656502    
   26.3500004      -17.4506130    
   26.3999996      -17.5356903    
   26.4500008      -17.6209393    
   26.5000000      -17.7063980    
   26.5499992      -17.7920647    
   26.6000004      -17.8779030    
   26.6499996      -17.9638443    
   26.7000008      -18.0498161    
   26.7500000      -18.1357651    
   26.7999992      -18.2216740    
   26.8500004      -18.3075676    
   26.8999996      -18.3935032    
   26.9500008      -18.4795418    
   27.0000000      -18.5657215    
   27.0499992      -18.6520252    
   27.1000004      -18.7383995    
   27.1499996      -18.8247509    
   27.2000008      -18.9109840    
   27.2500000      -18.9970341    
   27.2999992      -19.0828819    
   27.3500004      -19.1685638    
   27.3999996      -19.2541409    
   27.4500008      -19.3396702    
   27.5000000      -19.4251671    
   27.5499992      -19.5105839    
   27.6000004      -19.5958061    
   27.6499996      -19.6806755    
   27.7000008      -19.7650356    
   27.7500000      -19.8487797    
   27.7999992      -19.9318676    
   27.8500004      -20.0143356    
   27.8999996      -20.0962696    
   27.9500008      -20.1777534    
   28.0000000      -20.2588215    
   28.0499992      -20.3394241    
   28.1000004      -20.4194202    
   28.1499996      -20.4986134    
   28.2000008      -20.5767918    
   28.2500000      -20.6537838    
   28.2999992      -20.7294903    
   28.3500004      -20.8038902    
   28.3999996      -20.8770008    
   28.4500008      -20.9488449    
   28.5000000      -21.0193787    
   28.5499992      -21.0884724    
   28.6000004      -21.1559105    
   28.6499996      -21.2214317    
   28.7000008      -21.2847843    
   28.7500000      -21.3457699    
   28.7999992      -21.4042873    
   28.8500004      -21.4603100    
   28.8999996      -21.5138378    
   28.9500008      -21.5648422    
   29.0000000      -21.6131935    
   29.0499992      -21.6586494    
   29.1000004      -21.7008610    
   29.1499996      -21.7394371    
   29.2000008      -21.7740173    
   29.2500000      -21.8043308    
   29.2999992      -21.8302231    
   29.3500004      -21.8516369    
   29.3999996      -21.8685436    
   29.4500008      -21.8808594    
   29.5000000      -21.8883781    
   29.5499992      -21.8907394    
   29.6000004      -21.8874626    
   29.6499996      -21.8780193    
   29.7000008      -21.8619213    
   29.7500000      -21.8387966    
   29.7999992      -21.8084164    
   29.8500004      -21.7706566    
   29.8999996      -21.7254238    
   29.9500008      -21.6725540    
   30.0000000      -21.6117363    
   30.0499992      -21.5425014    
   30.1000004      -21.4642410    
   30.1499996      -21.3763161    
   30.2000008      -21.2781448    
   30.2500000      -21.1692963    
   30.2999992      -21.0494938    
   30.3500004      -20.9185829    
   30.3999996      -20.7764244    
   30.4500008      -20.6227970    
   30.5000000      -20.4573040    
   30.5499992      -20.2793655    
   30.6000004      -20.0882778    
   30.6499996      -19.8833103    
   30.7000008      -19.6638279    
   30.7500000      -19.4293747    
   30.7999992      -19.1796799    
   30.8500004      -18.9146080    
   30.8999996      -18.6340389    
   30.9500008      -18.3377476    
   31.0000000      -18.0253239    
   31.0499992      -17.6961632    
   31.1000004      -17.3495350    
   31.1499996      -16.9847088    
   31.2000008      -16.6010723    
   31.2500000      -16.1982212    
   31.2999992      -15.7759647    
   31.3500004      -15.3342524    
   31.3999996      -14.8730602    
   31.4500008      -14.3922548    
   31.5000000      -13.8915262    
   31.5499992      -13.3703814    
   31.6000004      -12.8282251    
   31.6499996      -12.2644863    
   31.7000008      -11.6787462    
   31.7500000      -11.0708132    
   31.7999992      -10.4407158    
   31.8500004      -9.78862190    
   31.8999996      -9.11470890    
   31.9500008      -8.41904068    
   32.0000000      -7.70150471    
   32.0499992      -6.96182728    
   32.0999985      -6.19967222    
   32.1500015      -5.41477585    
   32.2000008      -4.60706949    
   32.2500000      -3.77674174    
   32.2999992      -2.92421222    
   32.3499985      -2.05002785    
   32.4000015      -1.15472293    
   32.4500008     -0.238699153    
   32.5000000      0.697828054    
   32.5499992       1.65479267    
   32.5999985       2.63216591    
   32.6500015       3.62980962    
   32.7000008       4.64735556    
   32.7500000       5.68415546    
   32.7999992       6.73932648    