  -10.0000000       0.00000000    
  -9.94999981       0.00000000    
  -9.89999962       0.00000000    
  -9.85000038       0.00000000    
  -9.80000019       0.00000000    
  -9.75000000       0.00000000    
  -9.69999981       0.00000000    
  -9.64999962       0.00000000    
  -9.60000038       0.00000000    
  -9.55000019       0.00000000    
  -9.50000000       0.00000000    
  -9.44999981       2.25136400E-37
  -9.39999962       1.98270684E-35
  -9.35000038       2.64196763E-34
  -9.30000019       1.79597996E-33
  -9.25000000       8.06015832E-33
  -9.19999981       2.81233732E-32
  -9.14999962       9.27450584E-32
  -9.10000038       3.36063937E-31
  -9.05000019       1.24793330E-30
  -9.00000000       4.00575185E-30
  -8.94999981       9.63800645E-30
  -8.89999962       1.30202975E-29
  -8.85000038      -1.45476187E-29
  -8.80000019      -1.52611050E-28
  -8.75000000      -5.31310049E-28
  -8.69999981      -1.19455959E-27
  -8.64999962      -1.66411421E-27
  -8.60000038      -1.88296401E-28
  -8.55000019       6.70896464E-27
  -8.50000000       2.25513870E-26
  -8.44999981       4.42580673E-26
  -8.39999962       4.91986724E-26
  -8.35000038      -1.76939806E-26
  -8.30000019      -2.34975952E-25
  -8.25000000      -6.36088081E-25
  -8.19999981      -1.04986796E-24
  -8.14999962      -8.85717937E-25
  -8.10000038       9.47609400E-25
  -8.05000019       5.60183697E-24
  -8.00000000       1.28727585E-23
  -7.94999981       1.87431710E-23
  -7.90000010       1.29941468E-23
  -7.84999990      -2.01129081E-23
  -7.80000019      -9.34676416E-23
  -7.75000000      -1.97377012E-22
  -7.69999981      -2.71257458E-22
  -7.65000010      -1.83119393E-22
  -7.59999990       2.49587487E-22
  -7.55000019       1.15544712E-21
  -7.50000000       2.39876198E-21
  -7.44999981       3.31101699E-21
  -7.40000010       2.53213536E-21
  -7.34999990      -1.74255653E-21
  -7.30000019      -1.07825901E-20
  -7.25000000      -2.34959328E-20
  -7.19999981      -3.42152921E-20
  -7.15000010      -3.14411868E-20
  -7.09999990       2.76945057E-22
  -7.05000019       7.30702983E-20
  -7.00000000       1.82441069E-19
  -6.94999981       2.91119496E-19
  -6.90000010       3.18897849E-19
  -6.84999990       1.52288991E-19
  -6.80000019      -3.11878007E-19
  -6.75000000      -1.08423143E-18
  -6.69999981      -1.97921594E-18
  -6.65000010      -2.53848805E-18
  -6.59999990      -2.05798793E-18
  -6.55000019       2.00949170E-19
  -6.50000000       4.58093657E-18
  -6.44999981       1.04497371E-17
  -6.40000010       1.56989699E-17
  -6.34999990       1.66910555E-17
  -6.30000019       9.06479688E-18
  -6.25000000      -1.03640735E-17
  -6.19999981      -4.08220316E-17
  -6.15000010      -7.48063765E-17
  -6.09999990      -9.68887835E-17
  -6.05000019      -8.59489890E-17
  -6.00000000      -2.21560112E-17
  -5.94999981       1.01634186E-16
  -5.90000010       2.67010778E-16
  -5.84999990       4.21423773E-16
  -5.80000019       4.81248386E-16
  -5.75000000       3.52638318E-16
  -5.69999981      -2.89071103E-17
  -5.65000010      -6.48297313E-16
  -5.59999990      -1.36830073E-15
  -5.55000019      -1.92028595E-15
  -5.50000000      -1.95243360E-15
  -5.44999981      -1.14530851E-15
  -5.40000010       6.22560322E-16
  -5.34999990       3.11017623E-15
  -5.30000019       5.62873510E-15
  -5.25000000       7.11692329E-15
  -5.19999981       6.42410031E-15
  -5.15000010       2.77434334E-15
  -5.09999990      -3.71402941E-15
  -5.05000019      -1.16653191E-14
  -5.00000000      -1.84785743E-14
  -4.94999981      -2.09199994E-14
  -4.90000010      -1.62539931E-14
  -4.84999990      -3.62969500E-15
  -4.80000019       1.48043385E-14
  -4.75000000       3.36856160E-14
  -4.69999981       4.55955464E-14
  -4.65000010       4.36097522E-14
  -4.59999990       2.46016518E-14
  -4.55000019      -7.97549367E-15
  -4.50000000      -4.33913769E-14
  -4.44999981      -6.62337752E-14
  -4.40000010      -6.23906512E-14
  -4.34999990      -2.68561469E-14
  -4.30000019       2.98271743E-14
  -4.25000000       8.04437558E-14
  -4.19999981       8.83834089E-14
  -4.15000010       2.35799065E-14
  -4.09999990      -1.16928453E-13
  -4.05000019      -2.92178310E-13
  -4.00000000      -4.14801250E-13
  -3.95000005      -3.71561560E-13
  -3.90000010      -6.84856902E-14
  -3.84999990       5.09130552E-13
  -3.79999995       1.24358705E-12
  -3.75000000       1.86770152E-12
  -3.70000005       2.01020298E-12
  -3.65000010       1.31366977E-12
  -3.59999990      -3.93477595E-13
  -3.54999995      -2.92266124E-12
  -3.50000000      -5.62529710E-12
  -3.45000005      -7.44633782E-12
  -3.40000010      -7.17853684E-12
  -3.34999990      -3.89897316E-12
  -3.29999995       2.51650241E-12
  -3.25000000       1.09825803E-11
  -3.20000005       1.91118180E-11
  -3.15000010       2.36105094E-11
  -3.09999990       2.12018233E-11
  -3.04999995       9.91602026E-12
  -3.00000000      -9.62260480E-12
  -2.95000005      -3.34218000E-11
  -2.90000010      -5.43568489E-11
  -2.84999990      -6.36960554E-11
  -2.79999995      -5.37930152E-11
  -2.75000000      -2.13258178E-11
  -2.70000005       2.99617518E-11
  -2.65000010       8.82252604E-11
  -2.59999990       1.35149780E-10
  -2.54999995       1.50505691E-10
  -2.50000000       1.18869331E-10
  -2.45000005       3.66951400E-11
  -2.40000010      -8.27648644E-11
  -2.34999990      -2.09155165E-10
  -2.29999995      -3.00805325E-10
  -2.25000000      -3.16274118E-10
  -2.20000005      -2.29093827E-10
  -2.15000010      -4.12651233E-11
  -2.09999990       2.09719617E-10
  -2.04999995       4.54605548E-10
  -2.00000000       6.08368356E-10
  -1.95000005       5.95928751E-10
  -1.89999998       3.80872167E-10
  -1.85000002      -1.23298914E-11
  -1.79999995      -4.92125007E-10
  -1.75000000      -9.15806764E-10
  -1.70000005      -1.12718013E-09
  -1.64999998      -1.00769282E-09
  -1.60000002      -5.26008515E-10
  -1.54999995       2.31893768E-10
  -1.50000000       1.06709497E-09
  -1.45000005       1.71261338E-09
  -1.39999998       1.91167393E-09
  -1.35000002       1.50881307E-09
  -1.29999995       5.24307209E-10
  -1.25000000      -8.17838686E-10
  -1.20000005      -2.12771600E-09
  -1.14999998      -2.95302227E-09
  -1.10000002      -2.92467406E-09
  -1.04999995      -1.90120986E-09
  -1.00000000      -6.05481359E-11
 -0.949999988       2.10360063E-09
 -0.899999976       3.89754984E-09
 -0.850000024       4.63567762E-09
 -0.800000012       3.88385413E-09
 -0.750000000       1.65800196E-09
 -0.699999988      -1.50148138E-09
 -0.649999976      -4.62896210E-09
 -0.600000024      -6.60284538E-09
 -0.550000012      -6.51949428E-09
 -0.500000000      -4.05666789E-09
 -0.449999988       3.06076720E-10
 -0.400000006       5.31545696E-09
 -0.349999994       9.25639387E-09
 -0.300000012       1.04874980E-08
 -0.250000000       8.04838329E-09
 -0.200000003       2.13351781E-09
 -0.150000006      -5.76216852E-09
 -0.100000001      -1.31384015E-08
  -5.00000007E-02  -1.72004082E-08
   0.00000000      -1.58072702E-08
   5.00000007E-02  -8.36256042E-09
  0.100000001       3.68056607E-09
  0.150000006       1.69492758E-08
  0.200000003       2.69847451E-08
  0.250000000       2.96116447E-08
  0.300000012       2.24567653E-08
  0.349999994       6.11009288E-09
  0.400000006      -1.55409499E-08
  0.449999988      -3.60648968E-08
  0.500000000      -4.82532130E-08
  0.550000012      -4.64617962E-08
  0.600000024      -2.88151334E-08
  0.649999976       1.50895341E-09
  0.699999988       3.65074158E-08
  0.750000000       6.52621495E-08
  0.800000012       7.71519453E-08
  0.850000024       6.54805561E-08
  0.899999976       3.03548404E-08
  0.949999988      -2.02780654E-08
   1.00000000      -7.20676425E-08
   1.04999995      -1.08062267E-07
   1.10000002      -1.13954059E-07
   1.14999998      -8.32228793E-08
   1.20000005      -2.04468460E-08
   1.25000000       5.85861031E-08
   1.29999995       1.30454524E-07
   1.35000002       1.70696183E-07
   1.39999998       1.61652892E-07
   1.45000005       9.91527074E-08
   1.50000000      -4.31707692E-09
   1.54999995      -1.21438802E-07
   1.60000002      -2.16931539E-07
   1.64999998      -2.57845898E-07
   1.70000005      -2.24360235E-07
   1.75000000      -1.17642784E-07
   1.79999995       3.80951768E-08
   1.85000002       2.00665639E-07
   1.89999998       3.21232932E-07
   1.95000005       3.58929043E-07
   2.00000000       2.94407897E-07
   2.04999995       1.37897246E-07
   2.09999990      -7.13473369E-08
   2.15000010      -2.74798680E-07
   2.20000005      -4.11318524E-07
   2.25000000      -4.35982827E-07
   2.29999995      -3.35225280E-07
   2.34999990      -1.33159190E-07
   2.40000010       1.13617567E-07
   2.45000005       3.31900821E-07
   2.50000000       4.54069635E-07
   2.54999995       4.39832633E-07
   2.59999990       2.90439544E-07
   2.65000010       5.02417343E-08
   2.70000005      -2.05694747E-07
   2.75000000      -3.94693018E-07
   2.79999995      -4.53281558E-07
   2.84999990      -3.59019140E-07
   2.90000010      -1.39734752E-07
   2.95000005       1.33660791E-07
   3.00000000       3.69314222E-07
   3.04999995       4.84849693E-07
   3.09999990       4.36118938E-07
   3.15000010       2.34239621E-07
   3.20000005      -5.57423760E-08
   3.25000000      -3.35277662E-07
   3.29999995      -5.05872663E-07
   3.34999990      -5.04723005E-07
   3.40000010      -3.29741255E-07
   3.45000005      -4.40432899E-08
   3.50000000       2.43501461E-07
   3.54999995       4.16672293E-07
   3.59999990       3.96851476E-07
   3.65000010       1.78414126E-07
   3.70000005      -1.59859042E-07
   3.75000000      -4.74649170E-07
   3.79999995      -6.05956188E-07
   3.84999990      -4.38943260E-07
   3.90000010       4.12659062E-08
   3.95000005       7.23287087E-07
   4.00000000       1.38593316E-06
   4.05000019       1.75845616E-06
   4.09999990       1.61017249E-06
   4.15000010       8.42515988E-07
   4.19999981      -4.48391717E-07
   4.25000000      -1.96521637E-06
   4.30000019      -3.27033035E-06
   4.34999990      -3.90442710E-06
   4.40000010      -3.53231781E-06
   4.44999981      -2.07198832E-06
   4.50000000       2.37661979E-07
   4.55000019       2.86108843E-06
   4.59999990       5.08738322E-06
   4.65000010       6.22307562E-06
   4.69999981       5.80495589E-06
   4.75000000       3.76879098E-06
   4.80000019       5.16153705E-07
   4.84999990      -3.15307557E-06
   4.90000010      -6.23662800E-06
   4.94999981      -7.80772825E-06
   5.00000000      -7.29827661E-06
   5.05000019      -4.70134046E-06
   5.09999990      -6.23467599E-07
   5.15000010       3.84309124E-06
   5.19999981       7.40567066E-06
   5.25000000       8.94122786E-06
   5.30000019       7.84620443E-06
   5.34999990       4.25863527E-06
   5.40000010      -9.24927235E-07
   5.44999981      -6.25893244E-06
   5.50000000      -1.01389805E-05
   5.55000019      -1.12686685E-05
   5.59999990      -9.06851983E-06
   5.65000010      -3.90040850E-06
   5.69999981       2.97211727E-06
   5.75000000       9.69299890E-06
   5.80000019       1.43171937E-05
   5.84999990       1.53707297E-05
   5.90000010       1.23046621E-05
   5.94999981       5.70317297E-06
   6.00000000      -2.82779797E-06
   6.05000019      -1.10733563E-05
   6.09999990      -1.68153001E-05
   6.15000010      -1.84601031E-05
   6.19999981      -1.55054840E-05
   6.25000000      -8.70342683E-06
   6.30000019       1.36467861E-07
   6.34999990       8.65354832E-06
   6.40000010       1.46086368E-05
   6.44999981       1.65253095E-05
   6.50000000       1.41079736E-05
   6.55000019       8.30886802E-06
   6.59999990       1.02089746E-06
   6.65000010      -5.51255926E-06
   6.69999981      -9.39109850E-06
   6.75000000      -9.63975344E-06
   6.80000019      -6.49781578E-06
   6.84999990      -1.32099285E-06
   6.90000010       3.87530372E-06
   6.94999981       7.08914922E-06
   7.00000000       7.00754390E-06
   7.05000019       3.46487877E-06
   7.09999990      -2.46957575E-06
   7.15000010      -8.81262713E-06
   7.19999981      -1.33022158E-05
   7.25000000      -1.41472519E-05
   7.30000019      -1.06494690E-05
   7.34999990      -3.48881667E-06
   7.40000010       5.43284432E-06
   7.44999981       1.35539458E-05
   7.50000000       1.84514247E-05
   7.55000019       1.86219095E-05
   7.59999990       1.39897102E-05
   7.65000010       5.96616746E-06
   7.69999981      -2.97379643E-06
   7.75000000      -1.00743937E-05
   7.80000019      -1.31946799E-05
   7.84999990      -1.15248922E-05
   7.90000010      -5.88001922E-06
   7.94999981       1.54119778E-06
   8.00000000       7.86953024E-06
   8.05000019       1.05281833E-05
   8.10000038       8.13000133E-06
   8.14999962       1.00272496E-06
   8.19999981      -8.85118607E-06
   8.25000000      -1.83701977E-05
   8.30000019      -2.44386683E-05
   8.35000038      -2.49517652E-05
   8.39999962      -1.95721259E-05
   8.44999981      -9.89511864E-06
   8.50000000       1.07278947E-06
   8.55000019       9.98456653E-06
   8.60000038       1.44311653E-05
   8.64999962       1.39861504E-05
   8.69999981       1.06172483E-05
   8.75000000       8.24950530E-06
   8.80000019       1.15390640E-05
   8.85000038       2.41967882E-05
   8.89999962       4.73936452E-05
   8.94999981       7.88125253E-05
   9.00000000       1.12758658E-04
   9.05000019       1.41435972E-04
   9.10000038       1.57124465E-04
   9.14999962       1.54669877E-04
   9.19999981       1.33528854E-04
   9.25000000       9.86693121E-05
   9.30000019       5.99096566E-05
   9.35000038       2.97211427E-05
   9.39999962       1.99920505E-05
   9.44999981       3.86164829E-05
   9.50000000       8.69011783E-05
   9.55000019       1.58625829E-04
   9.60000038       2.41169837E-04
   9.64999962       3.18541162E-04
   9.69999981       3.75575037E-04
   9.75000000       4.02179954E-04
   9.80000019       3.96426272E-04
   9.85000038       3.65537679E-04
   9.89999962       3.24400171E-04
   9.94999981       2.91897537E-04
   10.0000000       2.86016904E-04
   10.0500002       3.19057581E-04
   10.1000004       3.94290400E-04
   10.1499996       5.05043194E-04
   10.1999998       6.36518118E-04
   10.2500000       7.69874663E-04
   10.3000002       8.87452334E-04
   10.3500004       9.77668213E-04
   10.3999996       1.03819871E-03
   10.4499998       1.07654440E-03
   10.5000000       1.10782986E-03
   10.5500002       1.15049910E-03
   10.6000004       1.22118229E-03
   10.6499996       1.33025297E-03
   10.6999998       1.47938216E-03
   10.7500000       1.66178914E-03
   10.8000002       1.86507136E-03
   10.8500004       2.07570568E-03
   10.8999996       2.28379946E-03
   10.9499998       2.48659751E-03
   11.0000000       2.68962723E-03
   11.0500002       2.90511549E-03
   11.1000004       3.14816739E-03
   11.1499996       3.43192718E-03
   11.1999998       3.76329268E-03
   11.2500000       4.14061639E-03
   11.3000002       4.55423351E-03
   11.3500004       4.98976326E-03
   11.3999996       5.43324836E-03
   11.4499998       5.87654905E-03
   11.5000000       6.32126629E-03
   11.5500002       6.77984767E-03
   11.6000004       7.27335410E-03
   11.6499996       7.82640092E-03
   11.6999998       8.46067723E-03
   11.7500000       9.18899849E-03
   11.8000002       1.00117410E-02
   11.8500004       1.09169176E-02
   11.8999996       1.18840588E-02
   11.9499998       1.28909592E-02
   12.0000000       1.39214015E-02
   12.0500002       1.49716232E-02
   12.1000004       1.60535406E-02
   12.1499996       1.71936192E-02
   12.1999998       1.84275415E-02
   12.2500000       1.97920073E-02
   12.3000002       2.13159397E-02
   12.3500004       2.30135582E-02
   12.3999996       2.48813536E-02
   12.4499998       2.68999394E-02
   12.5000000       2.90403496E-02
   12.5500002       3.12731713E-02
   12.6000004       3.35779972E-02
   12.6499996       3.59506682E-02
   12.6999998       3.84063236E-02
   12.7500000       4.09774594E-02
   12.8000002       4.37075906E-02
   12.8500004       4.66423482E-02
   12.8999996       4.98203896E-02
   12.9499998       5.32666855E-02
   13.0000000       5.69897145E-02
   13.0500002       6.09832853E-02
   13.1000004       6.52320758E-02
   13.1499996       6.97191432E-02
   13.1999998       7.44332224E-02
   13.2500000       7.93737918E-02
   13.3000002       8.45526084E-02
   13.3500004       8.99917856E-02
   13.3999996       9.57193002E-02
   13.4499998      0.101763554    
   13.5000000      0.108149044    
   13.5500002      0.114894122    
   13.6000004      0.122011684    
   13.6499996      0.129511863    
   13.6999998      0.137405783    
   13.7500000      0.145708382    
   13.8000002      0.154439554    
   13.8500004      0.163622513    
   13.8999996      0.173280239    
   13.9499998      0.183431402    
   14.0000000      0.194087043    
   14.0500002      0.205250040    
   14.1000004      0.216917619    
   14.1499996      0.229086995    
   14.1999998      0.241762206    
   14.2500000      0.254960120    
   14.3000002      0.268713623    
   14.3500004      0.283070266    
   14.3999996      0.298086315    
   14.4499998      0.313817203    
   14.5000000      0.330307335    
   14.5500002      0.347581625    
   14.6000004      0.365641713    
   14.6499996      0.384468287    
   14.6999998      0.404029280    
   14.7500000      0.424291909    
   14.8000002      0.445235223    
   14.8500004      0.466860563    
   14.8999996      0.489195555    
   14.9499998      0.512291789    
   15.0000000      0.536215723    
   15.0500002      0.561035752    
   15.1000004      0.586808562    
   15.1499996      0.613569140    
   15.1999998      0.641326368    
   15.2500000      0.670065880    
   15.3000002      0.699758530    
   15.3500004      0.730373144    
   15.3999996      0.761888206    
   15.4499998      0.794300079    
   15.5000000      0.827625871    
   15.5500002      0.861899018    
   15.6000004      0.897160769    
   15.6499996      0.933448792    
   15.6999998      0.970787585    
   15.7500000       1.00918305    
   15.8000002       1.04862285    
   15.8500004       1.08908188    
   15.8999996       1.13053143    
   15.9499998       1.17294848    
   16.0000000       1.21632314    
   16.0499992       1.26066029    
   16.1000004       1.30597663    
   16.1499996       1.35229278    
   16.2000008       1.39962482    
   16.2500000       1.44797599    
   16.2999992       1.49733233    
   16.3500004       1.54766512    
   16.3999996       1.59893525    
   16.4500008       1.65110302    
   16.5000000       1.70413637    
   16.5499992       1.75801587    
   16.6000004       1.81273615    
   16.6499996       1.86830080    
   16.7000008       1.92471480    
   16.7500000       1.98197508    
   16.7999992       2.04006267    
   16.8500004       2.09894109    
   16.8999996       2.15855742    
   16.9500008       2.21885133    
   17.0000000       2.27976370    
   17.0499992       2.34124613    
   17.1000004       2.40326619    
   17.1499996       2.46580768    
   17.2000008       2.52886343    
   17.2500000       2.59242654    
   17.2999992       2.65647888    
   17.3500004       2.72098374    
   17.3999996       2.78588319    
   17.4500008       2.85110211    
   17.5000000       2.91656017    
   17.5499992       2.98218203    
   17.6000004       3.04791141    
   17.6499996       3.11371684    
   17.7000008       3.17959142    
   17.7500000       3.24554348    
   17.7999992       3.31158352    
   17.8500004       3.37770629    
   17.8999996       3.44387841    
   17.9500008       3.51003242    
   18.0000000       3.57606864    
   18.0499992       3.64186835    
   18.1000004       3.70731163    
   18.1499996       3.77229691    
   18.2000008       3.83675814    
   18.2500000       3.90067220    
   18.2999992       3.96405458    
   18.3500004       4.02694702    
   18.3999996       4.08939838    
   18.4500008       4.15144205    
   18.5000000       4.21307707    
   18.5499992       4.27426195    
   18.6000004       4.33491421    
   18.6499996       4.39492130    
   18.7000008       4.45416164    
   18.7500000       4.51252079    
   18.7999992       4.56991339    
   18.8500004       4.62629080    
   18.8999996       4.68164492    
   18.9500008       4.73599768    
   19.0000000       4.78939152    
   19.0499992       4.84187269    
   19.1000004       4.89347649    
   19.1499996       4.94422102    
   19.2000008       4.99410152    
   19.2500000       5.04309416    
   19.2999992       5.09115982    
   19.3500004       5.13825083    
   19.3999996       5.18431711    
   19.4500008       5.22931337    
   19.5000000       5.27319622    
   19.5499992       5.31593227    
   19.6000004       5.35749865    
   19.6499996       5.39788628    
   19.7000008       5.43710423    
   19.7500000       5.47518063    
   19.7999992       5.51216507    
   19.8500004       5.54812050    
   19.8999996       5.58311892    
   19.9500008       5.61722279    
   20.0000000       5.65047932    
   20.0499992       5.68290377    
   20.1000004       5.71448040    
   20.1499996       5.74516344    
   20.2000008       5.77489042    
   20.2500000       5.80359936    
   20.2999992       5.83124828    
   20.3500004       5.85783052    
   20.3999996       5.88338280    
   20.4500008       5.90798187    
   20.5000000       5.93173504    
   20.5499992       5.95476198    
   20.6000004       5.97716999    
   20.6499996       5.99904060    
   20.7000008       6.02041578    
   20.7500000       6.04129934    
   20.7999992       6.06166315    
   20.8500004       6.08146143    
   20.8999996       6.10065126    
   20.9500008       6.11920595    
   21.0000000       6.13712978    
   21.0499992       6.15445614    
   21.1000004       6.17124748    
   21.1499996       6.18758392    
   21.2000008       6.20355177    
   21.2500000       6.21923161    
   21.2999992       6.23468876    
   21.3500004       6.24996948    
   21.3999996       6.26510191    
   21.4500008       6.28009987    
   21.5000000       6.29496956    
   21.5499992       6.30971670    
   21.6000004       6.32435083    
   21.6499996       6.33889008    
   21.7000008       6.35335779    
   21.7500000       6.36778402    
   21.7999992       6.38219976    
   21.8500004       6.39663267    
   21.8999996       6.41110611    
   21.9500008       6.42563820    
   22.0000000       6.44024372    
   22.0499992       6.45493984    
   22.1000004       6.46975040    
   22.1499996       6.48471165    
   22.2000008       6.49986839    
   22.2500000       6.51527596    
   22.2999992       6.53098822    
   22.3500004       6.54705238    
   22.3999996       6.56349421    
   22.4500008       6.58031368    
   22.5000000       6.59748650    
   22.5499992       6.61496353    
   22.6000004       6.63269043    
   22.6499996       6.65061855    
   22.7000008       6.66872454    
   22.7500000       6.68701744    
   22.7999992       6.70554256    
   22.8500004       6.72437668    
   22.8999996       6.74361038    
   22.9500008       6.76333141    
   23.0000000       6.78360510    
   23.0499992       6.80446148    
   23.1000004       6.82588959    
   23.1499996       6.84784508    
   23.2000008       6.87025690    
   23.2500000       6.89305019    
   23.2999992       6.91615772    
   23.3500004       6.93953514    
   23.3999996       6.96316290    
   23.4500008       6.98705149    
   23.5000000       7.01123047    
   23.5499992       7.03574276    
   23.6000004       7.06063652    
   23.6499996       7.08595514    
   23.7000008       7.11173677    
   23.7500000       7.13800335    
   23.7999992       7.16476393    
   23.8500004       7.19201183    
   23.8999996       7.21972227    
   23.9500008       7.24785471    
   24.0000000       7.27635908    
   24.0499992       7.30517960    
   24.1000004       7.33426619    
   24.1499996       7.36358261    
   24.2000008       7.39311314    
   24.2500000       7.42286491    
   24.2999992       7.45286846    
   24.3500004       7.48316479    
   24.3999996       7.51380014    
   24.4500008       7.54480934    
   24.5000000       7.57621145    
   24.5499992       7.60800171    
   24.6000004       7.64015388    
   24.6499996       7.67262697    
   24.7000008       7.70537138    
   24.7500000       7.73833609    
   24.7999992       7.77147913    
   24.8500004       7.80476761    
   24.8999996       7.83818102    
   24.9500008       7.87171507    
   25.0000000       7.90537643    
   25.0499992       7.93918419    
   25.1000004       7.97317028    
   25.1499996       8.00737190    
   25.2000008       8.04182625    
   25.2500000       8.07655907    
   25.2999992       8.11157513    
   25.3500004       8.14684963    
   25.3999996       8.18233109    
   25.4500008       8.21794224    
   25.5000000       8.25359344    
   25.5499992       8.28920746    
   25.6000004       8.32473469    
   25.6499996       8.36016083    
   25.7000008       8.39551735    
   25.7500000       8.43086433    
   25.7999992       8.46627903    
   25.8500004       8.50182724    
   25.8999996       8.53754616    
   25.9500008       8.57343197    
   26.0000000       8.60944080    
   26.0499992       8.64550400    
   26.1000004       8.68154144    
   26.1499996       8.71748924    
   26.2000008       8.75330353    
   26.2500000       8.78897190    
   26.2999992       8.82449818    
   26.3500004       8.85989571    
   26.3999996       8.89516544    
   26.4500008       8.93029022    
   26.5000000       8.96523571    
   26.5499992       8.99995995    
   26.6000004       9.03442574    
   26.6499996       9.06862259    
   26.7000008       9.10256481    
   26.7500000       9.13629436    
   26.7999992       9.16986561    
   26.8500004       9.20332336    
   26.8999996       9.23667908    
   26.9500008       9.26990128    
   27.0000000       9.30290985    
   27.0499992       9.33558846    
   27.1000004       9.36781025    
   27.1499996       9.39946079    
   27.2000008       9.43046093    
   27.2500000       9.46077824    
   27.2999992       9.49042988    
   27.3500004       9.51946926    
   27.3999996       9.54796886    
   27.4500008       9.57599640    
   27.5000000       9.60360432    
   27.5499992       9.63081360    
   27.6000004       9.65761375    
   27.6499996       9.68396664    
   27.7000008       9.70981407    
   27.7500000       9.73508072    
   27.7999992       9.75968170    
   27.8500004       9.78353024    
   27.8999996       9.80653858    
   27.9500008       9.82863140    
   28.0000000       9.84974766    
   28.0499992       9.86985207    
   28.1000004       9.88893795    
   28.1499996       9.90702915    
   28.2000008       9.92417526    
   28.2500000       9.94043827    
   28.2999992       9.95587635    
   28.3500004       9.97053242    
   28.3999996       9.98442268    
   28.4500008       9.99752903    
   28.5000000       10.0098085    
   28.5499992       10.0211935    
   28.6000004       10.0316076    
   28.6499996       10.0409765    
   28.7000008       10.0492344    
   28.7500000       10.0563269    
   28.7999992       10.0622196    
   28.8500004       10.0668964    
   28.8999996       10.0703573    
   28.9500008       10.0726280    
   29.0000000       10.0737572    
   29.0499992       10.0738106    
   29.1000004       10.0728693    
   29.1499996       10.0710192    
   29.2000008       10.0683317    
   29.2500000       10.0648527    
   29.2999992       10.0605965    
   29.3500004       10.0555382    
   29.3999996       10.0496216    
   29.4500008       10.0427780    
   29.5000000       10.0349388    
   29.5499992       10.0260601    
   29.6000004       10.0161343    
   29.6499996       10.0051937    
   29.7000008       9.99330902    
   29.7500000       9.98058033    
   29.7999992       9.96712303    
   29.8500004       9.95305824    
   29.8999996       9.93850422    
   29.9500008       9.92356586    
   30.0000000       9.90834332    
   30.0499992       9.89291954    
   30.1000004       9.87736416    
   30.1499996       9.86172676    
   30.2000008       9.84603405    
   30.2500000       9.83028793    
   30.2999992       9.81447601    
   30.3500004       9.79857254    
   30.3999996       9.78256321    
   30.4500008       9.76646137    
   30.5000000       9.75032711    
   30.5499992       9.73427677    
   30.6000004       9.71847916    
   30.6499996       9.70314121    
   30.7000008       9.68848801    
   30.7500000       9.67473412    
   30.7999992       9.66205692    
   30.8500004       9.65058231    
   30.8999996       9.64037704    
   30.9500008       9.63145542    
   31.0000000       9.62379646    
   31.0499992       9.61736488    
   31.1000004       9.61213207    
   31.1499996       9.60809612    
   31.2000008       9.60528946    
   31.2500000       9.60378551    
   31.2999992       9.60369205    
   31.3500004       9.60514545    
   31.3999996       9.60830212    
   31.4500008       9.61332130    
   31.5000000       9.62036133    
   31.5499992       9.62956333    
   31.6000004       9.64104843    
   31.6499996       9.65490532    
   31.7000008       9.67119122    
   31.7500000       9.68993187    
   31.7999992       9.71111584    
   31.8500004       9.73471069    
   31.8999996       9.76066017    
   31.9500008       9.78890228    
   32.0000000       9.81937408    
   32.0499992       9.85203075    
   32.0999985       9.88685036    
   32.1500015       9.92384434    
   32.2000008       9.96306324    
   32.2500000       10.0045910    
   32.2999992       10.0485325    
   32.3499985       10.0949945    
   32.4000015       10.1440659    
   32.4500008       10.1957912    
   32.5000000       10.2501488    
   32.5499992       10.3070459    
   32.5999985       10.3663235    
   32.6500015       10.4277754    
   32.7000008       10.4911766    
   32.7500000       10.5563164    
   32.7999992       10.6230259    