  -10.0000000       0.00000000    
  -9.94999981       0.00000000    
  -9.89999962       0.00000000    
  -9.85000038       0.00000000    
  -9.80000019       0.00000000    
  -9.75000000       0.00000000    
  -9.69999981       0.00000000    
  -9.64999962       0.00000000    
  -9.60000038       0.00000000    
  -9.55000019       6.38223420E-31
  -9.50000000       6.12278181E-30
  -9.44999981       6.95744299E-29
  -9.39999962       7.46129335E-28
  -9.35000038       5.44415213E-27
  -9.30000019       2.77101506E-26
  -9.25000000       1.04609772E-25
  -9.19999981       3.06185760E-25
  -9.14999962       7.18503141E-25
  -9.10000038       1.41173828E-24
  -9.05000019       2.55328321E-24
  -9.00000000       5.02112057E-24
  -8.94999981       1.16370079E-23
  -8.89999962       2.75726513E-23
  -8.85000038       5.52640294E-23
  -8.80000019       7.69271280E-23
  -8.75000000       2.41942441E-23
  -8.69999981      -2.40581346E-22
  -8.64999962      -8.64171096E-22
  -8.60000038      -1.76996375E-21
  -8.55000019      -2.22860653E-21
  -8.50000000      -4.61435515E-22
  -8.44999981       6.06591576E-21
  -8.39999962       1.86780048E-20
  -8.35000038       3.32724419E-20
  -8.30000019       3.51325578E-20
  -8.25000000      -2.51994778E-21
  -8.19999981      -1.08118090E-19
  -8.14999962      -2.81948829E-19
  -8.10000038      -4.49238896E-19
  -8.05000019      -4.20195576E-19
  -8.00000000       9.12000100E-20
  -7.94999981       1.32411877E-18
  -7.90000010       3.16993395E-18
  -7.84999990       4.78487464E-18
  -7.80000019       4.35891302E-18
  -7.75000000      -5.53936955E-19
  -7.69999981      -1.17367921E-17
  -7.65000010      -2.79768332E-17
  -7.59999990      -4.24107709E-17
  -7.55000019      -4.13137971E-17
  -7.50000000      -6.87594546E-18
  -7.44999981       7.38629803E-17
  -7.40000010       1.94129536E-16
  -7.34999990       3.11357294E-16
  -7.30000019       3.40221954E-16
  -7.25000000       1.68434474E-16
  -7.19999981      -2.93989889E-16
  -7.15000010      -1.03407053E-15
  -7.09999990      -1.84840313E-15
  -7.05000019      -2.29903673E-15
  -7.00000000      -1.77742008E-15
  -6.94999981       2.73055629E-16
  -6.90000010       3.98189087E-15
  -6.84999990       8.62591079E-15
  -6.80000019       1.23630964E-14
  -6.75000000       1.23990707E-14
  -6.69999981       5.81093401E-15
  -6.65000010      -8.95698039E-15
  -6.59999990      -3.02724730E-14
  -6.55000019      -5.19286457E-14
  -6.50000000      -6.32173350E-14
  -6.44999981      -5.13776711E-14
  -6.40000010      -6.67001854E-15
  -6.34999990       7.08738149E-14
  -6.30000019       1.65395895E-13
  -6.25000000       2.43265775E-13
  -6.19999981       2.58570129E-13
  -6.15000010       1.67577798E-13
  -6.09999990      -4.97942413E-14
  -6.05000019      -3.67900236E-13
  -6.00000000      -7.02669856E-13
  -5.94999981      -9.18960654E-13
  -5.90000010      -8.64564171E-13
  -5.84999990      -4.28362071E-13
  -5.80000019       3.92113561E-13
  -5.75000000       1.43952168E-12
  -5.69999981       2.39195642E-12
  -5.65000010       2.82695308E-12
  -5.59999990       2.35554653E-12
  -5.55000019       7.97159810E-13
  -5.50000000      -1.66383259E-12
  -5.44999981      -4.41451780E-12
  -5.40000010      -6.50575991E-12
  -5.34999990      -6.91899142E-12
  -5.30000019      -4.95660804E-12
  -5.25000000      -6.32313809E-13
  -5.19999981       5.10664731E-12
  -5.15000010       1.04789103E-11
  -5.09999990       1.33551139E-11
  -5.05000019       1.20465356E-11
  -5.00000000       6.14786911E-12
  -4.94999981      -2.92392499E-12
  -4.90000010      -1.20382671E-11
  -4.84999990      -1.72739444E-11
  -4.80000019      -1.55068527E-11
  -4.75000000      -6.15165471E-12
  -4.69999981       7.70955955E-12
  -4.65000010       1.95729127E-11
  -4.59999990       2.15327253E-11
  -4.55000019       7.79330680E-12
  -4.50000000      -2.14205806E-11
  -4.44999981      -5.72637250E-11
  -4.40000010      -8.27573912E-11
  -4.34999990      -7.74213263E-11
  -4.30000019      -2.56319202E-11
  -4.25000000       7.35746880E-11
  -4.19999981       1.99100472E-10
  -4.15000010       3.07101455E-10
  -4.09999990       3.40101586E-10
  -4.05000019       2.45946374E-10
  -4.00000000       2.44251321E-12
  -3.95000005      -3.60467739E-10
  -3.90000010      -7.51190499E-10
  -3.84999990      -1.02837461E-09
  -3.79999995      -1.03741804E-09
  -3.75000000      -6.66001698E-10
  -3.70000005       9.65029306E-11
  -3.65000010       1.11766185E-09
  -3.59999990       2.12089768E-09
  -3.54999995       2.73869749E-09
  -3.50000000       2.61776112E-09
  -3.45000005       1.55318114E-09
  -3.40000010      -3.89388882E-10
  -3.34999990      -2.81263457E-09
  -3.29999995      -5.02847897E-09
  -3.25000000      -6.21608542E-09
  -3.20000005      -5.67323655E-09
  -3.15000010      -3.09652326E-09
  -3.09999990       1.20249677E-09
  -3.04999995       6.23979002E-09
  -3.00000000       1.05223590E-08
  -2.95000005       1.24319435E-08
  -2.90000010       1.07491349E-08
  -2.84999990       5.16839194E-09
  -2.79999995      -3.37869444E-09
  -2.75000000      -1.27502462E-08
  -2.70000005      -2.00431032E-08
  -2.65000010      -2.24043433E-08
  -2.59999990      -1.80053465E-08
  -2.54999995      -6.87779034E-09
  -2.50000000       8.70584049E-09
  -2.45000005       2.45335237E-08
  -2.40000010       3.54738532E-08
  -2.34999990       3.70111017E-08
  -2.29999995       2.68730034E-08
  -2.25000000       6.21442720E-09
  -2.20000005      -2.01302139E-08
  -2.15000010      -4.45852031E-08
  -2.09999990      -5.88617830E-08
  -2.04999995      -5.65848630E-08
  -2.00000000      -3.57346863E-08
  -1.95000005      -4.65387624E-11
  -1.89999998       4.12798755E-08
  -1.85000002       7.57434151E-08
  -1.79999995       9.11518185E-08
  -1.75000000       7.96944093E-08
  -1.70000005       4.11788506E-08
  -1.64999998      -1.57842592E-08
  -1.60000002      -7.53544072E-08
  -1.54999995      -1.18668112E-07
  -1.50000000      -1.29645258E-07
  -1.45000005      -1.00668451E-07
  -1.39999998      -3.62090482E-08
  -1.35000002       4.70990535E-08
  -1.29999995       1.24436013E-07
  -1.25000000       1.70013607E-07
  -1.20000005       1.65517605E-07
  -1.14999998       1.07080737E-07
  -1.10000002       8.24694002E-09
  -1.04999995      -1.02567071E-07
  -1.00000000      -1.89918083E-07
 -0.949999988      -2.22460571E-07
 -0.899999976      -1.83953318E-07
 -0.850000024      -8.03866129E-08
 -0.800000012       5.96501977E-08
 -0.750000000       1.92260444E-07
 -0.699999988       2.71565966E-07
 -0.649999976       2.65178784E-07
 -0.600000024       1.66743092E-07
 -0.550000012       9.01886232E-10
 -0.500000000      -1.81872068E-07
 -0.449999988      -3.19929342E-07
 -0.400000006      -3.60573125E-07
 -0.349999994      -2.79306562E-07
 -0.300000012      -9.14275802E-08
 -0.250000000       1.48910246E-07
 -0.200000003       3.63251985E-07
 -0.150000006       4.73486267E-07
 -0.100000001       4.29150020E-07
  -5.00000007E-02   2.28198758E-07
   0.00000000      -7.67280568E-08
   5.00000007E-02  -3.90378233E-07
  0.100000001      -6.03198714E-07
  0.150000006      -6.27913266E-07
  0.200000003      -4.32617185E-07
  0.250000000      -5.85069664E-08
  0.300000012       3.85674014E-07
  0.349999994       7.53248230E-07
  0.400000006       9.05831826E-07
  0.449999988       7.62162870E-07
  0.500000000       3.33036013E-07
  0.550000012      -2.71252134E-07
  0.600000024      -8.66648406E-07
  0.649999976      -1.24927271E-06
  0.699999988      -1.26234795E-06
  0.750000000      -8.54846519E-07
  0.800000012      -1.11035284E-07
  0.850000024       7.62298271E-07
  0.899999976       1.49127118E-06
  0.949999988       1.81895825E-06
   1.00000000       1.59291244E-06
   1.04999995       8.27184465E-07
   1.10000002      -2.84588793E-07
   1.14999998      -1.41448811E-06
   1.20000005      -2.19491676E-06
   1.25000000      -2.33604351E-06
   1.29999995      -1.72937234E-06
   1.35000002      -5.01688362E-07
   1.39999998       1.00338036E-06
   1.45000005       2.31719059E-06
   1.50000000       2.98809573E-06
   1.54999995       2.73165119E-06
   1.60000002       1.54034672E-06
   1.64999998      -2.87026324E-07
   1.70000005      -2.21356413E-06
   1.75000000      -3.61674097E-06
   1.79999995      -3.98314478E-06
   1.85000002      -3.08581480E-06
   1.89999998      -1.08490474E-06
   1.95000005       1.48783568E-06
   2.00000000       3.86597321E-06
   2.04999995       5.27297198E-06
   2.09999990       5.16957243E-06
   2.15000010       3.44633395E-06
   2.20000005       4.95088329E-07
   2.25000000      -2.87331591E-06
   2.29999995      -5.65083155E-06
   2.34999990      -6.93369839E-06
   2.40000010      -6.21373874E-06
   2.45000005      -3.56626924E-06
   2.50000000       3.32221873E-07
   2.54999995       4.37400649E-06
   2.59999990       7.33655770E-06
   2.65000010       8.25514962E-06
   2.70000005       6.73769819E-06
   2.75000000       3.11901522E-06
   2.79999995      -1.60354477E-06
   2.84999990      -6.04528077E-06
   2.90000010      -8.84503879E-06
   2.95000005      -9.08941092E-06
   3.00000000      -6.61687864E-06
   3.04999995      -2.09962536E-06
   3.09999990       3.13386477E-06
   3.15000010       7.49154424E-06
   3.20000005       9.61095520E-06
   3.25000000       8.79995696E-06
   3.29999995       5.28132659E-06
   3.34999990       1.53389337E-07
   3.40000010      -4.93415564E-06
   3.45000005      -8.29802684E-06
   3.50000000      -8.77428010E-06
   3.54999995      -6.12804115E-06
   3.59999990      -1.17857621E-06
   3.65000010       4.41708971E-06
   3.70000005       8.67105700E-06
   3.75000000       9.91352044E-06
   3.79999995       7.38036761E-06
   3.84999990       1.54342138E-06
   3.90000010      -5.94164931E-06
   3.95000005      -1.26792520E-05
   4.00000000      -1.62537181E-05
   4.05000019      -1.50135074E-05
   4.09999990      -8.67423114E-06
   4.15000010       1.46307457E-06
   4.19999981       1.27732465E-05
   4.25000000       2.19982176E-05
   4.30000019       2.61818386E-05
   4.34999990       2.35765383E-05
   4.40000010       1.42447661E-05
   4.44999981       1.58449637E-07
   4.50000000      -1.52563025E-05
   4.55000019      -2.80159784E-05
   4.59999990      -3.46679881E-05
   4.65000010      -3.32558302E-05
   4.69999981      -2.38762750E-05
   4.75000000      -8.66083883E-06
   4.80000019       8.81550295E-06
   4.84999990       2.45234769E-05
   4.90000010       3.50717200E-05
   4.94999981       3.85770800E-05
   5.00000000       3.50584487E-05
   5.05000019       2.62490721E-05
   5.09999990       1.49040516E-05
   5.15000010       3.83665929E-06
   5.19999981      -5.00157830E-06
   5.25000000      -1.11022537E-05
   5.30000019      -1.54640638E-05
   5.34999990      -2.01340390E-05
   5.40000010      -2.73955084E-05
   5.44999981      -3.88898188E-05
   5.50000000      -5.49797041E-05
   5.55000019      -7.45779980E-05
   5.59999990      -9.55035648E-05
   5.65000010      -1.15240990E-04
   5.69999981      -1.31834371E-04
   5.75000000      -1.44591671E-04
   5.80000019      -1.54334441E-04
   5.84999990      -1.63083183E-04
   5.90000010      -1.73270120E-04
   5.94999981      -1.86750069E-04
   6.00000000      -2.03972406E-04
   6.05000019      -2.23644834E-04
   6.09999990      -2.43068003E-04
   6.15000010      -2.59091903E-04
   6.19999981      -2.69416487E-04
   6.25000000      -2.73808197E-04
   6.30000019      -2.74788792E-04
   6.34999990      -2.77487125E-04
   6.40000010      -2.88597716E-04
   6.44999981      -3.14681587E-04
   6.50000000      -3.60284350E-04
   6.55000019      -4.26450773E-04
   6.59999990      -5.10137819E-04
   6.65000010      -6.04787550E-04
   6.69999981      -7.01978046E-04
   6.75000000      -7.93731946E-04
   6.80000019      -8.74835241E-04
   6.84999990      -9.44478088E-04
   6.90000010      -1.00670161E-03
   6.94999981      -1.06947136E-03
   7.00000000      -1.14260335E-03
   7.05000019      -1.23512547E-03
   7.09999990      -1.35283999E-03
   7.15000010      -1.49682001E-03
   7.19999981      -1.66330650E-03
   7.25000000      -1.84506760E-03
   7.30000019      -2.03384226E-03
   7.34999990      -2.22316268E-03
   7.40000010      -2.41072802E-03
   7.44999981      -2.59961933E-03
   7.50000000      -2.79799267E-03
   7.55000019      -3.01733101E-03
   7.59999990      -3.26976064E-03
   7.65000010      -3.56521504E-03
   7.69999981      -3.90926516E-03
   7.75000000      -4.30222880E-03
   7.80000019      -4.73977719E-03
   7.84999990      -5.21482620E-03
   7.90000010      -5.72008919E-03
   7.94999981      -6.25052862E-03
   8.00000000      -6.80496870E-03
   8.05000019      -7.38643715E-03
   8.10000038      -8.00121669E-03
   8.14999962      -8.65699537E-03
   8.19999981      -9.36080143E-03
   8.25000000      -1.01174600E-02
   8.30000019      -1.09291356E-02
   8.35000038      -1.17961569E-02
   8.39999962      -1.27188778E-02
   8.44999981      -1.36999628E-02
   8.50000000      -1.47462990E-02
   8.55000019      -1.58697944E-02
   8.60000038      -1.70866642E-02
   8.64999962      -1.84152368E-02
   8.69999981      -1.98727548E-02
   8.75000000      -2.14721020E-02
   8.80000019      -2.32193433E-02
   8.85000038      -2.51128972E-02
   8.89999962      -2.71447171E-02
   8.94999981      -2.93032750E-02
   9.00000000      -3.15776840E-02
   9.05000019      -3.39619108E-02
   9.10000038      -3.64579782E-02
   9.14999962      -3.90773118E-02
   9.19999981      -4.18398455E-02
   9.25000000      -4.47710641E-02
   9.30000019      -4.78978232E-02
   9.35000038      -5.12439869E-02
   9.39999962      -5.48270345E-02
   9.44999981      -5.86566590E-02
   9.50000000      -6.27355352E-02
   9.55000019      -6.70622662E-02
   9.60000038      -7.16355145E-02
   9.64999962      -7.64583871E-02
   9.69999981      -8.15416649E-02
   9.75000000      -8.69051889E-02
   9.80000019      -9.25767720E-02
   9.85000038      -9.85889956E-02
   9.89999962     -0.104974613    
   9.94999981     -0.111761741    
   10.0000000     -0.118970126    
   10.0500002     -0.126609445    
   10.1000004     -0.134680212    
   10.1499996     -0.143177018    
   10.1999998     -0.152093574    
   10.2500000     -0.161428139    
   10.3000002     -0.171188116    
   10.3500004     -0.181392327    
   10.3999996     -0.192070797    
   10.4499998     -0.203261480    
   10.5000000     -0.215005100    
   10.5500002     -0.227339044    
   10.6000004     -0.240292206    
   10.6499996     -0.253882110    
   10.6999998     -0.268115222    
   10.7500000     -0.282990515    
   10.8000002     -0.298505485    
   10.8500004     -0.314663529    
   10.8999996     -0.331479907    
   10.9499998     -0.348985165    
   11.0000000     -0.367224276    
   11.0500002     -0.386251748    
   11.1000004     -0.406123310    
   11.1499996     -0.426886231    
   11.1999998     -0.448571205    
   11.2500000     -0.471187264    
   11.3000002     -0.494722664    
   11.3500004     -0.519150496    
   11.3999996     -0.544439256    
   11.4499998     -0.570564151    
   11.5000000     -0.597518146    
   11.5500002     -0.625317395    
   11.6000004     -0.654001236    
   11.6499996     -0.683625400    
   11.6999998     -0.714250565    
   11.7500000     -0.745929420    
   11.8000002     -0.778695405    
   11.8500004     -0.812556922    
   11.8999996     -0.847498298    
   11.9499998     -0.883487761    
   12.0000000     -0.920489490    
   12.0500002     -0.958476663    
   12.1000004     -0.997442365    
   12.1499996      -1.03740263    
   12.1999998      -1.07839370    
   12.2500000      -1.12046182    
   12.3000002      -1.16364956    
   12.3500004      -1.20798171    
   12.3999996      -1.25345707    
   12.4499998      -1.30004632    
   12.5000000      -1.34769702    
   12.5500002      -1.39634657    
   12.6000004      -1.44593549    
   12.6499996      -1.49642158    
   12.6999998      -1.54778552    
   12.7500000      -1.60003185    
   12.8000002      -1.65318048    
   12.8500004      -1.70725417    
   12.8999996      -1.76226485    
   12.9499998      -1.81820309    
   13.0000000      -1.87503302    
   13.0500002      -1.93269587    
   13.1000004      -1.99111879    
   13.1499996      -2.05022788    
   13.1999998      -2.10996008    
   13.2500000      -2.17027116    
   13.3000002      -2.23113608    
   13.3500004      -2.29254413    
   13.3999996      -2.35448813    
   13.4499998      -2.41695213    
   13.5000000      -2.47990227    
   13.5500002      -2.54328227    
   13.6000004      -2.60701585    
   13.6499996      -2.67101526    
   13.6999998      -2.73519254    
   13.7500000      -2.79946876    
   13.8000002      -2.86378193    
   13.8500004      -2.92808604    
   13.8999996      -2.99234557    
   13.9499998      -3.05652547    
   14.0000000      -3.12058210    
   14.0500002      -3.18445468    
   14.1000004      -3.24806404    
   14.1499996      -3.31131768    
   14.1999998      -3.37412024    
   14.2500000      -3.43638468    
   14.3000002      -3.49804139    
   14.3500004      -3.55904436    
   14.3999996      -3.61936665    
   14.4499998      -3.67898941    
   14.5000000      -3.73789215    
   14.5500002      -3.79603434    
   14.6000004      -3.85334849    
   14.6499996      -3.90973830    
   14.6999998      -3.96508598    
   14.7500000      -4.01926470    
   14.8000002      -4.07215786    
   14.8500004      -4.12367344    
   14.8999996      -4.17375135    
   14.9499998      -4.22236824    
   15.0000000      -4.26952457    
   15.0500002      -4.31523418    
   15.1000004      -4.35950232    
   15.1499996      -4.40231562    
   15.1999998      -4.44363308    
   15.2500000      -4.48338461    
   15.3000002      -4.52148342    
   15.3500004      -4.55783701    
   15.3999996      -4.59236240    
   15.4499998      -4.62499809    
   15.5000000      -4.65570927    
   15.5500002      -4.68448877    
   15.6000004      -4.71134710    
   15.6499996      -4.73630524    
   15.6999998      -4.75938034    
   15.7500000      -4.78058004    
   15.8000002      -4.79989624    
   15.8500004      -4.81730938    
   15.8999996      -4.83279085    
   15.9499998      -4.84631157    
   16.0000000      -4.85784674    
   16.0499992      -4.86738205    
   16.1000004      -4.87491322    
   16.1499996      -4.88044643    
   16.2000008      -4.88399410    
   16.2500000      -4.88557339    
   16.2999992      -4.88520098    
   16.3500004      -4.88289881    
   16.3999996      -4.87869072    
   16.4500008      -4.87260866    
   16.5000000      -4.86469364    
   16.5499992      -4.85499716    
   16.6000004      -4.84357691    
   16.6499996      -4.83049250    
   16.7000008      -4.81579781    
   16.7500000      -4.79953671    
   16.7999992      -4.78173542    
   16.8500004      -4.76240492    
   16.8999996      -4.74154711    
   16.9500008      -4.71916199    
   17.0000000      -4.69526386    
   17.0499992      -4.66988564    
   17.1000004      -4.64308691    
   17.1499996      -4.61495399    
   17.2000008      -4.58558846    
   17.2500000      -4.55509710    
   17.2999992      -4.52357483    
   17.3500004      -4.49109602    
   17.3999996      -4.45770979    
   17.4500008      -4.42344570    
   17.5000000      -4.38832188    
   17.5499992      -4.35236120    
   17.6000004      -4.31560087    
   17.6499996      -4.27810001    
   17.7000008      -4.23993540    
   17.7500000      -4.20119238    
   17.7999992      -4.16194963    
   17.8500004      -4.12226915    
   17.8999996      -4.08218813    
   17.9500008      -4.04172564    
   18.0000000      -4.00089169    
   18.0499992      -3.95970845    
   18.1000004      -3.91822052    
   18.1499996      -3.87650371    
   18.2000008      -3.83465981    
   18.2500000      -3.79280281    
   18.2999992      -3.75103855    
   18.3500004      -3.70944595    
   18.3999996      -3.66806793    
   18.4500008      -3.62691021    
   18.5000000      -3.58595443    
   18.5499992      -3.54517770    
   18.6000004      -3.50457048    
   18.6499996      -3.46414804    
   18.7000008      -3.42395020    
   18.7500000      -3.38403225    
   18.7999992      -3.34444737    
   18.8500004      -3.30523634    
   18.8999996      -3.26641965    
   18.9500008      -3.22800446    
   19.0000000      -3.18999672    
   19.0499992      -3.15241957    
   19.1000004      -3.11532307    
   19.1499996      -3.07878304    
   19.2000008      -3.04288888    
   19.2500000      -3.00771952    
   19.2999992      -2.97331977    
   19.3500004      -2.93968630    
   19.3999996      -2.90676498    
   19.4500008      -2.87446952    
   19.5000000      -2.84271049    
   19.5499992      -2.81142497    
   19.6000004      -2.78059745    
   19.6499996      -2.75026369    
   19.7000008      -2.72049475    
   19.7500000      -2.69136930    
   19.7999992      -2.66294432    
   19.8500004      -2.63523340    
   19.8999996      -2.60820913    
   19.9500008      -2.58181715    
   20.0000000      -2.55600739    
   20.0499992      -2.53076172    
   20.1000004      -2.50610757    
   20.1499996      -2.48211265    
   20.2000008      -2.45885730    
   20.2500000      -2.43639994    
   20.2999992      -2.41474462    
   20.3500004      -2.39382911    
   20.3999996      -2.37353683    
   20.4500008      -2.35372901    
   20.5000000      -2.33429050    
   20.5499992      -2.31516600    
   20.6000004      -2.29637671    
   20.6499996      -2.27800775    
   20.7000008      -2.26017213    
   20.7500000      -2.24296689    
   20.7999992      -2.22643399    
   20.8500004      -2.21054697    
   20.8999996      -2.19522786    
   20.9500008      -2.18038368    
   21.0000000      -2.16595149    
   21.0499992      -2.15192676    
   21.1000004      -2.13836980    
   21.1499996      -2.12537503    
   21.2000008      -2.11302543    
   21.2500000      -2.10134315    
   21.2999992      -2.09026146    
   21.3500004      -2.07963347    
   21.3999996      -2.06927419    
   21.4500008      -2.05902576    
   21.5000000      -2.04881859    
   21.5499992      -2.03870630    
   21.6000004      -2.02885604    
   21.6499996      -2.01949644    
   21.7000008      -2.01084161    
   21.7500000      -2.00301623    
   21.7999992      -1.99601316    
   21.8500004      -1.98969996    
   21.8999996      -1.98386967    
   21.9500008      -1.97831917    
   22.0000000      -1.97292542    
   22.0499992      -1.96768928    
   22.1000004      -1.96273172    
   22.1499996      -1.95824289    
   22.2000008      -1.95440602    
   22.2500000      -1.95132732    
   22.2999992      -1.94900060    
   22.3500004      -1.94732022    
   22.3999996      -1.94613802    
   22.4500008      -1.94534111    
   22.5000000      -1.94491446    
   22.5499992      -1.94496667    
   22.6000004      -1.94570148    
   22.6499996      -1.94735193    
   22.7000008      -1.95009387    
   22.7500000      -1.95398426    
   22.7999992      -1.95894527    
   22.8500004      -1.96480203    
   22.8999996      -1.97136343    
   22.9500008      -1.97851348    
   23.0000000      -1.98627603    
   23.0499992      -1.99482441    
   23.1000004      -2.00443387    
   23.1499996      -2.01539493    
   23.2000008      -2.02791882    
   23.2500000      -2.04207897    
   23.2999992      -2.05780768    
   23.3500004      -2.07495189    
   23.3999996      -2.09336758    
   23.4500008      -2.11300898    
   23.5000000      -2.13398123    
   23.5499992      -2.15653229    
   23.6000004      -2.18098330    
   23.6499996      -2.20762897    
   23.7000008      -2.23664761    
   23.7500000      -2.26805806    
   23.7999992      -2.30174136    
   23.8500004      -2.33752322    
   23.8999996      -2.37528062    
   23.9500008      -2.41503310    
   24.0000000      -2.45697784    
   24.0499992      -2.50145555    
   24.1000004      -2.54885674    
   24.1499996      -2.59950757    
   24.2000008      -2.65358329    
   24.2500000      -2.71108174    
   24.2999992      -2.77186823    
   24.3500004      -2.83577871    
   24.3999996      -2.90273976    
   24.4500008      -2.97284985    
   24.5000000      -3.04639387    
   24.5499992      -3.12377906    
   24.6000004      -3.20542264    
   24.6499996      -3.29162765    
   24.7000008      -3.38250589    
   24.7500000      -3.47797418    
   24.7999992      -3.57782912    
   24.8500004      -3.68187165    
   24.8999996      -3.79003477    
   24.9500008      -3.90245891    
   25.0000000      -4.01948595    
   25.0499992      -4.14157629    
   25.1000004      -4.26917696    
   25.1499996      -4.40259552    
   25.2000008      -4.54192734    
   25.2500000      -4.68707037    
   25.2999992      -4.83781147    
   25.3500004      -4.99395752    
   25.3999996      -5.15545321    
   25.4500008      -5.32243824    
   25.5000000      -5.49522495    
   25.5499992      -5.67419910    
   25.6000004      -5.85969067    
   25.6499996      -6.05186510    
   25.7000008      -6.25067949    
   25.7500000      -6.45591831    
   25.7999992      -6.66730261    
   25.8500004      -6.88461399    
   25.8999996      -7.10779810    
   25.9500008      -7.33699703    
   26.0000000      -7.57249880    
   26.0499992      -7.81462622    
   26.1000004      -8.06361103    
   26.1499996      -8.31950474    
   26.2000008      -8.58215427    
   26.2500000      -8.85126591    
   26.2999992      -9.12650871    
   26.3500004      -9.40763092    
   26.3999996      -9.69453430    
   26.4500008      -9.98727226    
   26.5000000      -10.2859821    
   26.5499992      -10.5907745    
   26.6000004      -10.9016314    
   26.6499996      -11.2183504    
   26.7000008      -11.5405664    
   26.7500000      -11.8678398    
   26.7999992      -12.1997681    
   26.8500004      -12.5360785    
   26.8999996      -12.8766708    
   26.9500008      -13.2215815    
   27.0000000      -13.5708771    
   27.0499992      -13.9245481    
   27.1000004      -14.2824144    
   27.1499996      -14.6440945    
   27.2000008      -15.0090675    
   27.2500000      -15.3767576    
   27.2999992      -15.7466593    
   27.3500004      -16.1184044    
   27.3999996      -16.4917793    
   27.4500008      -16.8666725    
   27.5000000      -17.2429695    
   27.5499992      -17.6204491    
   27.6000004      -17.9987392    
   27.6499996      -18.3773060    
   27.7000008      -18.7555370    
   27.7500000      -19.1328335    
   27.7999992      -19.5087070    
   27.8500004      -19.8828182    
   27.8999996      -20.2549686    
   27.9500008      -20.6250076    
   28.0000000      -20.9927464    
   28.0499992      -21.3578701    
   28.1000004      -21.7199116    
   28.1499996      -22.0782871    
   28.2000008      -22.4323692    
   28.2500000      -22.7815914    
   28.2999992      -23.1254959    
   28.3500004      -23.4637623    
   28.3999996      -23.7961597    
   28.4500008      -24.1224651    
   28.5000000      -24.4423885    
   28.5499992      -24.7555370    
   28.6000004      -25.0614204    
   28.6499996      -25.3595123    
   28.7000008      -25.6493206    
   28.7500000      -25.9304638    
   28.7999992      -26.2026901    
   28.8500004      -26.4658432    
   28.8999996      -26.7198009    
   28.9500008      -26.9644032    
   29.0000000      -27.1993999    
   29.0499992      -27.4244480    
   29.1000004      -27.6391525    
   29.1499996      -27.8431454    
   29.2000008      -28.0361404    
   29.2500000      -28.2179642    
   29.2999992      -28.3885441    
   29.3500004      -28.5478420    
   29.3999996      -28.6957874    
   29.4500008      -28.8322353    
   29.5000000      -28.9569511    
   29.5499992      -29.0696735    
   29.6000004      -29.1701794    
   29.6499996      -29.2583714    
   29.7000008      -29.3343182    
   29.7500000      -29.3982220    
   29.7999992      -29.4503632    
   29.8500004      -29.4909821    
   29.8999996      -29.5202007    
   29.9500008      -29.5379982    
   30.0000000      -29.5442314    
   30.0499992      -29.5387268    
   30.1000004      -29.5213871    
   30.1499996      -29.4922714    
   30.2000008      -29.4516106    
   30.2500000      -29.3997650    
   30.2999992      -29.3371239    
   30.3500004      -29.2640190    
   30.3999996      -29.1806431    
   30.4500008      -29.0870686    
   30.5000000      -28.9833107    
   30.5499992      -28.8694324    
   30.6000004      -28.7456532    
   30.6499996      -28.6123791    
   30.7000008      -28.4701748    
   30.7500000      -28.3196659    
   30.7999992      -28.1614037    
   30.8500004      -27.9957657    
   30.8999996      -27.8229122    
   30.9500008      -27.6428528    
   31.0000000      -27.4555531    
   31.0499992      -27.2610817    
   31.1000004      -27.0597019    
   31.1499996      -26.8518963    
   31.2000008      -26.6382999    
   31.2500000      -26.4195709    
   31.2999992      -26.1962509    
   31.3500004      -25.9686680    
   31.3999996      -25.7369633    
   31.4500008      -25.5011768    
   31.5000000      -25.2613945    
   31.5499992      -25.0178719    
   31.6000004      -24.7711124    
   31.6499996      -24.5218143    
   31.7000008      -24.2707539    
   31.7500000      -24.0185890    
   31.7999992      -23.7657433    
   31.8500004      -23.5123196    
   31.8999996      -23.2581921    
   31.9500008      -23.0031338    
   32.0000000      -22.7470264    
   32.0499992      -22.4900017    
   32.0999985      -22.2324944    
   32.1500015      -21.9751720    
   32.2000008      -21.7187672    
   32.2500000      -21.4638901    
   32.2999992      -21.2108898    
   32.3499985      -20.9598217    
   32.4000015      -20.7105350    
   32.4500008      -20.4628372    
   32.5000000      -20.2166882    
   32.5499992      -19.9722977    
   32.5999985      -19.7301483    
   32.6500015      -19.4908600    
   32.7000008      -19.2550201    
   32.7500000      -19.0229855    
   32.7999992      -18.7947845    