  -10.0000000       0.00000000    
  -9.94999981       0.00000000    
  -9.89999962       0.00000000    
  -9.85000038       0.00000000    
  -9.80000019       0.00000000    
  -9.75000000       0.00000000    
  -9.69999981       0.00000000    
  -9.64999962       0.00000000    
  -9.60000038       0.00000000    
  -9.55000019      -6.22681158E-22
  -9.50000000      -6.69272884E-21
  -9.44999981      -2.77860114E-20
  -9.39999962      -4.33724319E-21
  -9.35000038       6.08117337E-19
  -9.30000019       4.13693290E-18
  -9.25000000       1.72378798E-17
  -9.19999981       5.32048129E-17
  -9.14999962       1.27827714E-16
  -9.10000038       2.36291143E-16
  -9.05000019       2.98326380E-16
  -9.00000000       7.95159855E-17
  -8.94999981      -8.47515862E-16
  -8.89999962      -2.95600501E-15
  -8.85000038      -6.23830025E-15
  -8.80000019      -9.21666037E-15
  -8.75000000      -7.81616169E-15
  -8.69999981       4.85850306E-15
  -8.64999962       3.60804119E-14
  -8.60000038       8.66577250E-14
  -8.55000019       1.39759637E-13
  -8.50000000       1.49721083E-13
  -8.44999981       4.10460104E-14
  -8.39999962      -2.67796175E-13
  -8.35000038      -8.03970063E-13
  -8.30000019      -1.44736046E-12
  -8.25000000      -1.84004981E-12
  -8.19999981      -1.37071626E-12
  -8.14999962       6.70658516E-13
  -8.10000038       4.69613671E-12
  -8.05000019       1.02084782E-11
  -8.00000000       1.51780671E-11
  -7.94999981       1.58138225E-11
  -7.90000010       7.25214420E-12
  -7.84999990      -1.44289025E-11
  -7.80000019      -4.89380723E-11
  -7.75000000      -8.81399051E-11
  -7.69999981      -1.13920817E-10
  -7.65000010      -1.00022060E-10
  -7.59999990      -1.99551417E-11
  -7.55000019       1.38709058E-10
  -7.50000000       3.56700447E-10
  -7.44999981       5.69078618E-10
  -7.40000010       6.64911681E-10
  -7.34999990       5.10246234E-10
  -7.30000019      -1.57866233E-12
  -7.25000000      -8.79430695E-10
  -7.19999981      -1.96541294E-09
  -7.15000010      -2.90170155E-09
  -7.09999990      -3.17070281E-09
  -7.05000019      -2.23307373E-09
  -7.00000000       2.43674442E-10
  -6.94999981       4.11900558E-09
  -6.90000010       8.57420801E-09
  -6.84999990       1.20911992E-08
  -6.80000019       1.27197781E-08
  -6.75000000       8.66413785E-09
  -6.69999981      -9.02845854E-10
  -6.65000010      -1.50288013E-08
  -6.59999990      -3.05105416E-08
  -6.55000019      -4.21080735E-08
  -6.50000000      -4.36603074E-08
  -6.44999981      -3.00463476E-08
  -6.40000010       4.24311364E-10
  -6.34999990       4.39457892E-08
  -6.30000019       9.03950266E-08
  -6.25000000       1.24546915E-07
  -6.19999981       1.29631815E-07
  -6.15000010       9.27690422E-08
  -6.09999990       1.09464979E-08
  -6.05000019      -1.04435742E-07
  -6.00000000      -2.26569824E-07
  -5.94999981      -3.17299538E-07
  -5.90000010      -3.36403161E-07
  -5.84999990      -2.54473690E-07
  -5.80000019      -6.60347084E-08
  -5.75000000       2.01506538E-07
  -5.69999981       4.87252578E-07
  -5.65000010       7.07033394E-07
  -5.59999990       7.73940656E-07
  -5.55000019       6.25129871E-07
  -5.50000000       2.47806383E-07
  -5.44999981      -3.04091884E-07
  -5.40000010      -9.09962750E-07
  -5.34999990      -1.40316115E-06
  -5.30000019      -1.61038201E-06
  -5.25000000      -1.40186364E-06
  -5.19999981      -7.39582447E-07
  -5.15000010       2.91301546E-07
  -5.09999990       1.48035031E-06
  -5.05000019       2.52549330E-06
  -5.00000000       3.09969118E-06
  -4.94999981       2.93803123E-06
  -4.90000010       1.92472635E-06
  -4.84999990       1.55880102E-07
  -4.80000019      -2.04374783E-06
  -4.75000000      -4.16319426E-06
  -4.69999981      -5.60672243E-06
  -4.65000010      -5.83830206E-06
  -4.59999990      -4.53890107E-06
  -4.55000019      -1.73720298E-06
  -4.50000000       2.12639952E-06
  -4.44999981       6.23322239E-06
  -4.40000010       9.52844584E-06
  -4.34999990       1.09567818E-05
  -4.30000019       9.74805334E-06
  -4.25000000       5.68583937E-06
  -4.19999981      -7.18040781E-07
  -4.15000010      -8.21190861E-06
  -4.09999990      -1.49943353E-05
  -4.05000019      -1.90967276E-05
  -4.00000000      -1.88922495E-05
  -3.95000005      -1.36138324E-05
  -3.90000010      -3.73561420E-06
  -3.84999990       8.91970285E-06
  -3.79999995       2.14338670E-05
  -3.75000000       3.04046916E-05
  -3.70000005       3.28082206E-05
  -3.65000010       2.69083102E-05
  -3.59999990       1.29580594E-05
  -3.54999995      -6.54686664E-06
  -3.50000000      -2.72117850E-05
  -3.45000005      -4.36794799E-05
  -3.40000010      -5.09788697E-05
  -3.34999990      -4.59551193E-05
  -3.29999995      -2.83783793E-05
  -3.25000000      -1.36850804E-06
  -3.20000005       2.90712687E-05
  -3.15000010       5.53807040E-05
  -3.09999990       7.03410187E-05
  -3.04999995       6.90595116E-05
  -3.00000000       5.04827294E-05
  -2.95000005       1.79701910E-05
  -2.90000010      -2.13017120E-05
  -2.84999990      -5.80116757E-05
  -2.79999995      -8.30299687E-05
  -2.75000000      -8.97961872E-05
  -2.70000005      -7.60790790E-05
  -2.65000010      -4.46187914E-05
  -2.59999990      -2.46366767E-06
  -2.54999995       4.08139240E-05
  -2.50000000       7.55205110E-05
  -2.45000005       9.41954495E-05
  -2.40000010       9.32859111E-05
  -2.34999990       7.37375085E-05
  -2.29999995       4.04297643E-05
  -2.25000000       7.19067486E-07
  -2.20000005      -3.74230185E-05
  -2.15000010      -6.71372982E-05
  -2.09999990      -8.38558553E-05
  -2.04999995      -8.57574414E-05
  -2.00000000      -7.35805152E-05
  -1.95000005      -5.00504502E-05
  -1.89999998      -1.92143834E-05
  -1.85000002       1.41208102E-05
  -1.79999995       4.48224200E-05
  -1.75000000       6.78619035E-05
  -1.70000005       7.89102269E-05
  -1.64999998       7.51745101E-05
  -1.60000002       5.63547874E-05
  -1.54999995       2.53919388E-05
  -1.50000000      -1.14262048E-05
  -1.45000005      -4.53481771E-05
  -1.39999998      -6.70920272E-05
  -1.35000002      -6.94784976E-05
  -1.29999995      -5.00307833E-05
  -1.25000000      -1.26191962E-05
  -1.20000005       3.26423215E-05
  -1.14999998       7.15820497E-05
  -1.10000002       8.98965664E-05
  -1.04999995       7.77982423E-05
  -1.00000000       3.39381440E-05
 -0.949999988      -3.28246388E-05
 -0.899999976      -1.04718602E-04
 -0.850000024      -1.59428440E-04
 -0.800000012      -1.76523798E-04
 -0.750000000      -1.44132515E-04
 -0.699999988      -6.37574412E-05
 -0.649999976       4.84906523E-05
 -0.600000024       1.64998972E-04
 -0.550000012       2.53556063E-04
 -0.500000000       2.86285242E-04
 -0.449999988       2.48084660E-04
 -0.400000006       1.42031349E-04
 -0.349999994      -1.00356865E-05
 -0.300000012      -1.72202694E-04
 -0.250000000      -3.03368026E-04
 -0.200000003      -3.68007226E-04
 -0.150000006      -3.45890818E-04
 -0.100000001      -2.38056979E-04
  -5.00000007E-02  -6.73341128E-05
   0.00000000       1.26823346E-04
   5.00000007E-02   2.97898514E-04
  0.100000001       4.03830752E-04
  0.150000006       4.17556439E-04
  0.200000003       3.33923497E-04
  0.250000000       1.71275664E-04
  0.300000012      -3.26603804E-05
  0.349999994      -2.29577985E-04
  0.400000006      -3.71991016E-04
  0.449999988      -4.24573169E-04
  0.500000000      -3.72825802E-04
  0.550000012      -2.27080760E-04
  0.600000024      -2.08773145E-05
  0.649999976       1.96019464E-04
  0.699999988       3.68514244E-04
  0.750000000       4.48648003E-04
  0.800000012       4.06867301E-04
  0.850000024       2.39481611E-04
  0.899999976      -2.95604968E-05
  0.949999988      -3.53224401E-04
   1.00000000      -6.71464310E-04
   1.04999995      -9.24647320E-04
   1.10000002      -1.06723653E-03
   1.14999998      -1.07844220E-03
   1.20000005      -9.67186410E-04
   1.25000000      -7.70084618E-04
   1.29999995      -5.42902679E-04
   1.35000002      -3.47623863E-04
   1.39999998      -2.38385866E-04
   1.45000005      -2.49785080E-04
   1.50000000      -3.90316185E-04
   1.54999995      -6.42243132E-04
   1.60000002      -9.67432919E-04
   1.64999998      -1.31716765E-03
   1.70000005      -1.64313067E-03
   1.75000000      -1.90683978E-03
   1.79999995      -2.08567316E-03
   1.85000002      -2.17491249E-03
   1.89999998      -2.18644249E-03
   1.95000005      -2.14545266E-03
   2.00000000      -2.08650460E-03
   2.04999995      -2.04976741E-03
   2.09999990      -2.07741885E-03
   2.15000010      -2.20963638E-03
   2.20000005      -2.47956929E-03
   2.25000000      -2.90729268E-03
   2.29999995      -3.49374791E-03
   2.34999990      -4.21658438E-03
   2.40000010      -5.03015099E-03
   2.45000005      -5.87127078E-03
   2.50000000      -6.67093368E-03
   2.54999995      -7.37001793E-03
   2.59999990      -7.93537125E-03
   2.65000010      -8.37167352E-03
   2.70000005      -8.72503500E-03
   2.75000000      -9.07623302E-03
   2.79999995      -9.52435285E-03
   2.84999990      -1.01645701E-02
   2.90000010      -1.10658398E-02
   2.95000005      -1.22546842E-02
   3.00000000      -1.37098376E-02
   3.04999995      -1.53695056E-02
   3.09999990      -1.71494763E-02
   3.15000010      -1.89671367E-02
   3.20000005      -2.07648203E-02
   3.25000000      -2.25261319E-02
   3.29999995      -2.42809616E-02
   3.34999990      -2.60982383E-02
   3.40000010      -2.80688573E-02
   3.45000005      -3.02838273E-02
   3.50000000      -3.28137800E-02
   3.54999995      -3.56951505E-02
   3.59999990      -3.89263742E-02
   3.65000010      -4.24743146E-02
   3.70000005      -4.62887101E-02
   3.75000000      -5.03202863E-02
   3.79999995      -5.45377582E-02
   3.84999990      -5.89395538E-02
   3.90000010      -6.35578036E-02
   3.95000005      -6.84541091E-02
   4.00000000      -7.37086907E-02
   4.05000019      -7.94058442E-02
   4.09999990      -8.56194422E-02
   4.15000010      -9.24016908E-02
   4.19999981      -9.97778103E-02
   4.25000000     -0.107747622    
   4.30000019     -0.116293378    
   4.34999990     -0.125392050    
   4.40000010     -0.135028720    
   4.44999981     -0.145208001    
   4.50000000     -0.155960649    
   4.55000019     -0.167343721    
   4.59999990     -0.179434702    
   4.65000010     -0.192321435    
   4.69999981     -0.206090957    
   4.75000000     -0.220820531    
   4.80000019     -0.236573353    
   4.84999990     -0.253399521    
   4.90000010     -0.271341294    
   4.94999981     -0.290440053    
   5.00000000     -0.310741335    
   5.05000019     -0.332296431    
   5.09999990     -0.355159223    
   5.15000010     -0.379380524    
   5.19999981     -0.405002564    
   5.25000000     -0.432057619    
   5.30000019     -0.460573345    
   5.34999990     -0.490583986    
   5.40000010     -0.522145510    
   5.44999981     -0.555348694    
   5.50000000     -0.590325534    
   5.55000019     -0.627243519    
   5.59999990     -0.666289151    
   5.65000010     -0.707642555    
   5.69999981     -0.751450419    
   5.75000000     -0.797806561    
   5.80000019     -0.846745193    
   5.84999990     -0.898251772    
   5.90000010     -0.952287912    
   5.94999981      -1.00882542    
   6.00000000      -1.06787860    
   6.05000019      -1.12952554    
   6.09999990      -1.19391334    
   6.15000010      -1.26124454    
   6.19999981      -1.33174968    
   6.25000000      -1.40565443    
   6.30000019      -1.48315048    
   6.34999990      -1.56437790    
   6.40000010      -1.64942384    
   6.44999981      -1.73833561    
   6.50000000      -1.83114314    
   6.55000019      -1.92788315    
   6.59999990      -2.02861762    
   6.65000010      -2.13344169    
   6.69999981      -2.24248052    
   6.75000000      -2.35587835    
   6.80000019      -2.47378230    
   6.84999990      -2.59632826    
   6.90000010      -2.72363353    
   6.94999981      -2.85579610    
   7.00000000      -2.99290013    
   7.05000019      -3.13502455    
   7.09999990      -3.28225470    
   7.15000010      -3.43468714    
   7.19999981      -3.59243250    
   7.25000000      -3.75561309    
   7.30000019      -3.92435551    
   7.34999990      -4.09878254    
   7.40000010      -4.27900553    
   7.44999981      -4.46511364    
   7.50000000      -4.65717316    
   7.55000019      -4.85522461    
   7.59999990      -5.05928564    
   7.65000010      -5.26935959    
   7.69999981      -5.48544645    
   7.75000000      -5.70755291    
   7.80000019      -5.93570089    
   7.84999990      -6.16993523    
   7.90000010      -6.41032028    
   7.94999981      -6.65693474    
   8.00000000      -6.90985537    
   8.05000019      -7.16914749    
   8.10000038      -7.43484783    
   8.14999962      -7.70696020    
   8.19999981      -7.98545551    
   8.25000000      -8.27027512    
   8.30000019      -8.56134987    
   8.35000038      -8.85859966    
   8.39999962      -9.16195202    
   8.44999981      -9.47133636    
   8.50000000      -9.78669262    
   8.55000019      -10.1079531    
   8.60000038      -10.4350481    
   8.64999962      -10.7678967    
   8.69999981      -11.1064062    
   8.75000000      -11.4504786    
   8.80000019      -11.8000126    
   8.85000038      -12.1549044    
   8.89999962      -12.5150471    
   8.94999981      -12.8803244    
   9.00000000      -13.2506027    
   9.05000019      -13.6257277    
   9.10000038      -14.0055199    
   9.14999962      -14.3897781    
   9.19999981      -14.7782955    
   9.25000000      -15.1708622    
   9.30000019      -15.5672827    
   9.35000038      -15.9673777    
   9.39999962      -16.3709831    
   9.44999981      -16.7779408    
   9.50000000      -17.1880779    
   9.55000019      -17.6012058    
   9.60000038      -18.0171089    
   9.64999962      -18.4355469    
   9.69999981      -18.8562565    
   9.75000000      -19.2789783    
   9.80000019      -19.7034531    
   9.85000038      -20.1294270    
   9.89999962      -20.5566616    
   9.94999981      -20.9849262    
   10.0000000      -21.4139938    
   10.0500002      -21.8436413    
   10.1000004      -22.2736473    
   10.1499996      -22.7038021    
   10.1999998      -23.1339073    
   10.2500000      -23.5637798    
   10.3000002      -23.9932442    
   10.3500004      -24.4221268    
   10.3999996      -24.8502293    
   10.4499998      -25.2773304    
   10.5000000      -25.7031746    
   10.5500002      -26.1274757    
   10.6000004      -26.5499363    
   10.6499996      -26.9702759    
   10.6999998      -27.3882599    
   10.7500000      -27.8036919    
   10.8000002      -28.2164421    
   10.8500004      -28.6264153    
   10.8999996      -29.0335350    
   10.9499998      -29.4377308    
   11.0000000      -29.8389015    
   11.0500002      -30.2369232    
   11.1000004      -30.6316586    
   11.1499996      -31.0229683    
   11.1999998      -31.4107418    
   11.2500000      -31.7948895    
   11.3000002      -32.1753578    
   11.3500004      -32.5521164    
   11.3999996      -32.9251099    
   11.4499998      -33.2942772    
   11.5000000      -33.6595154    
   11.5500002      -34.0206871    
   11.6000004      -34.3776588    
   11.6499996      -34.7303162    
   11.6999998      -35.0786018    
   11.7500000      -35.4225349    
   11.8000002      -35.7622147    
   11.8500004      -36.0978050    
   11.8999996      -36.4295044    
   11.9499998      -36.7574959    
   12.0000000      -37.0819321    
   12.0500002      -37.4028854    
   12.1000004      -37.7203865    
   12.1499996      -38.0344048    
   12.1999998      -38.3448982    
   12.2500000      -38.6518555    
   12.3000002      -38.9552879    
   12.3500004      -39.2552719    
   12.3999996      -39.5519409    
   12.4499998      -39.8454857    
   12.5000000      -40.1360931    
   12.5500002      -40.4239769    
   12.6000004      -40.7093277    
   12.6499996      -40.9923096    
   12.6999998      -41.2730560    
   12.7500000      -41.5516891    
   12.8000002      -41.8283081    
   12.8500004      -42.1030273    
   12.8999996      -42.3759651    
   12.9499998      -42.6472855    
   13.0000000      -42.9171562    
   13.0500002      -43.1857872    
   13.1000004      -43.4533997    
   13.1499996      -43.7202263    
   13.1999998      -43.9864807    
   13.2500000      -44.2523689    
   13.3000002      -44.5180550    
   13.3500004      -44.7836800    
   13.3999996      -45.0493774    
   13.4499998      -45.3152580    
   13.5000000      -45.5814438    
   13.5500002      -45.8480606    
   13.6000004      -46.1152382    
   13.6499996      -46.3831100    
   13.6999998      -46.6517944    
   13.7500000      -46.9214020    
   13.8000002      -47.1920433    
   13.8500004      -47.4638329    
   13.8999996      -47.7369080    
   13.9499998      -48.0114174    
   14.0000000      -48.2875443    
   14.0500002      -48.5654869    
   14.1000004      -48.8454475    
   14.1499996      -49.1276054    
   14.1999998      -49.4120941    
   14.2500000      -49.6989708    
   14.3000002      -49.9882698    
   14.3500004      -50.2799683    
   14.3999996      -50.5740433    
   14.4499998      -50.8704758    
   14.5000000      -51.1692924    
   14.5500002      -51.4705582    
   14.6000004      -51.7743568    
   14.6499996      -52.0807800    
   14.6999998      -52.3898926    
   14.7500000      -52.7017288    
   14.8000002      -53.0162697    
   14.8500004      -53.3334808    
   14.8999996      -53.6533356    
   14.9499998      -53.9758110    
   15.0000000      -54.3009338    
   15.0500002      -54.6287689    
   15.1000004      -54.9593925    
   15.1499996      -55.2928543    
   15.1999998      -55.6291885    
   15.2500000      -55.9683342    
   15.3000002      -56.3101883    
   15.3500004      -56.6546021    
   15.3999996      -57.0014076    
   15.4499998      -57.3504524    
   15.5000000      -57.7016296    
   15.5500002      -58.0548668    
   15.6000004      -58.4101105    
   15.6499996      -58.7673264    
   15.6999998      -59.1264534    
   15.7500000      -59.4874001    
   15.8000002      -59.8500481    
   15.8500004      -60.2142677    
   15.8999996      -60.5799255    
   15.9499998      -60.9469032    
   16.0000000      -61.3151131    
   16.0499992      -61.6844673    
   16.1000004      -62.0548706    
   16.1499996      -62.4261971    
   16.2000008      -62.7982674    
   16.2500000      -63.1708755    
   16.2999992      -63.5437851    
   16.3500004      -63.9167557    
   16.3999996      -64.2895813    
   16.4500008      -64.6620865    
   16.5000000      -65.0341568    
   16.5499992      -65.4056778    
   16.6000004      -65.7765350    
   16.6499996      -66.1465988    
   16.7000008      -66.5156479    
   16.7500000      -66.8834229    
   16.7999992      -67.2496338    
   16.8500004      -67.6139679    
   16.8999996      -67.9761429    
   16.9500008      -68.3359375    
   17.0000000      -68.6931610    
   17.0499992      -69.0476532    
   17.1000004      -69.3992538    
   17.1499996      -69.7477798    
   17.2000008      -70.0930252    
   17.2500000      -70.4347153    
   17.2999992      -70.7725677    
   17.3500004      -71.1062927    
   17.3999996      -71.4356003    
   17.4500008      -71.7602463    
   17.5000000      -72.0800171    
   17.5499992      -72.3946915    
   17.6000004      -72.7040863    
   17.6499996      -73.0079575    
   17.7000008      -73.3060379    
   17.7500000      -73.5980606    
   17.7999992      -73.8837128    
   17.8500004      -74.1626892    
   17.8999996      -74.4347305    
   17.9500008      -74.6995621    
   18.0000000      -74.9569550    
   18.0499992      -75.2066727    
   18.1000004      -75.4484863    
   18.1499996      -75.6821747    
   18.2000008      -75.9075012    
   18.2500000      -76.1242447    
   18.2999992      -76.3321686    
   18.3500004      -76.5310593    
   18.3999996      -76.7207031    
   18.4500008      -76.9009094    
   18.5000000      -77.0714569    
   18.5499992      -77.2321167    
   18.6000004      -77.3826828    
   18.6499996      -77.5229492    
   18.7000008      -77.6527100    
   18.7500000      -77.7717743    
   18.7999992      -77.8800049    
   18.8500004      -77.9772568    
   18.8999996      -78.0633698    
   18.9500008      -78.1382217    
   19.0000000      -78.2016296    
   19.0499992      -78.2534180    
   19.1000004      -78.2934341    
   19.1499996      -78.3215637    
   19.2000008      -78.3377304    
   19.2500000      -78.3418961    
   19.2999992      -78.3340530    
   19.3500004      -78.3142242    
   19.3999996      -78.2823868    
   19.4500008      -78.2384872    
   19.5000000      -78.1824265    
   19.5499992      -78.1141205    
   19.6000004      -78.0334625    
   19.6499996      -77.9404602    
   19.7000008      -77.8351593    
   19.7500000      -77.7176971    
   19.7999992      -77.5882721    
   19.8500004      -77.4470673    
   19.8999996      -77.2942276    
   19.9500008      -77.1297913    
   20.0000000      -76.9537354    
   20.0499992      -76.7659836    
   20.1000004      -76.5664902    
   20.1499996      -76.3553009    
   20.2000008      -76.1325836    
   20.2500000      -75.8986206    
   20.2999992      -75.6538010    
   20.3500004      -75.3985443    
   20.3999996      -75.1331940    
   20.4500008      -74.8580322    
   20.5000000      -74.5732117    
   20.5499992      -74.2788010    
   20.6000004      -73.9748688    
   20.6499996      -73.6615219    
   20.7000008      -73.3389816    
   20.7500000      -73.0075760    
   20.7999992      -72.6677170    
   20.8500004      -72.3198547    
   20.8999996      -71.9644089    
   20.9500008      -71.6017303    
   21.0000000      -71.2320480    
   21.0499992      -70.8555603    
   21.1000004      -70.4724350    
   21.1499996      -70.0829086    
   21.2000008      -69.6873016    
   21.2500000      -69.2860565    
   21.2999992      -68.8796844    
   21.3500004      -68.4687195    
   21.3999996      -68.0536194    
   21.4500008      -67.6347809    
   21.5000000      -67.2124710    
   21.5499992      -66.7868958    
   21.6000004      -66.3582306    
   21.6499996      -65.9267044    
   21.7000008      -65.4926071    
   21.7500000      -65.0563354    
   21.7999992      -64.6183472    
   21.8500004      -64.1791229    
   21.8999996      -63.7391281    
   21.9500008      -63.2987633    
   22.0000000      -62.8583488    
   22.0499992      -62.4181328    
   22.1000004      -61.9783478    
   22.1499996      -61.5392227    
   22.2000008      -61.1010399    
   22.2500000      -60.6641197    
   22.2999992      -60.2288208    
   22.3500004      -59.7954941    
   22.3999996      -59.3644638    
   22.4500008      -58.9360046    
   22.5000000      -58.5103264    
   22.5499992      -58.0876045    
   22.6000004      -57.6680183    
   22.6499996      -57.2517509    
   22.7000008      -56.8390312    
   22.7500000      -56.4301033    
   22.7999992      -56.0252609    
   22.8500004      -55.6248016    
   22.8999996      -55.2289963    
   22.9500008      -54.8380890    
   23.0000000      -54.4522705    
   23.0499992      -54.0716705    
   23.1000004      -53.6963882    
   23.1499996      -53.3264580    
   23.2000008      -52.9618988    
   23.2500000      -52.6027184    
   23.2999992      -52.2489319    
   23.3500004      -51.9005928    
   23.3999996      -51.5577774    
   23.4500008      -51.2206345    
   23.5000000      -50.8893509    
   23.5499992      -50.5641212    
   23.6000004      -50.2451324    
   23.6499996      -49.9325218    
   23.7000008      -49.6263351    
   23.7500000      -49.3265648    
   23.7999992      -49.0331154    
   23.8500004      -48.7458763    
   23.8999996      -48.4647331    
   23.9500008      -48.1896286    
   24.0000000      -47.9205399    
   24.0499992      -47.6574898    
   24.1000004      -47.4005127    
   24.1499996      -47.1495934    
   24.2000008      -46.9046669    
   24.2500000      -46.6656151    
   24.2999992      -46.4322891    
   24.3500004      -46.2045593    
   24.3999996      -45.9823570    
   24.4500008      -45.7657051    
   24.5000000      -45.5546989    
   24.5499992      -45.3494682    
   24.6000004      -45.1501160    
   24.6499996      -44.9566231    
   24.7000008      -44.7688446    
   24.7500000      -44.5864754    
   24.7999992      -44.4091606    
   24.8500004      -44.2365227    
   24.8999996      -44.0682945    
   24.9500008      -43.9043465    
   25.0000000      -43.7447128    
   25.0499992      -43.5895348    
   25.1000004      -43.4389954    
   25.1499996      -43.2932053    
   25.2000008      -43.1521530    
   25.2500000      -43.0156670    
   25.2999992      -42.8834572    
   25.3500004      -42.7551880    
   25.3999996      -42.6305656    
   25.4500008      -42.5093994    
   25.5000000      -42.3916359    
   25.5499992      -42.2773247    
   25.6000004      -42.1665497    
   25.6499996      -42.0593491    
   25.7000008      -41.9556503    
   25.7500000      -41.8552818    
   25.7999992      -41.7579613    
   25.8500004      -41.6633949    
   25.8999996      -41.5713501    
   25.9500008      -41.4817123    
   26.0000000      -41.3944969    
   26.0499992      -41.3098259    
   26.1000004      -41.2278328    
   26.1499996      -41.1486168    
   26.2000008      -41.0721588    
   26.2500000      -40.9983025    
   26.2999992      -40.9267769    
   26.3500004      -40.8572884    
   26.3999996      -40.7895584    
   26.4500008      -40.7234001    
   26.5000000      -40.6587563    
   26.5499992      -40.5956764    
   26.6000004      -40.5342560    
   26.6499996      -40.4745827    
   26.7000008      -40.4166832    
   26.7500000      -40.3605042    
   26.7999992      -40.3059120    
   26.8500004      -40.2527161    
   26.8999996      -40.2007561    
   26.9500008      -40.1499252    
   27.0000000      -40.1001854    
   27.0499992      -40.0515785    
   27.1000004      -40.0041847    
   27.1499996      -39.9580917    
   27.2000008      -39.9133148    
   27.2500000      -39.8698044    
   27.2999992      -39.8274345    
   27.3500004      -39.7860107    
   27.3999996      -39.7453423    
   27.4500008      -39.7052536    
   27.5000000      -39.6656342    
   27.5499992      -39.6264648    
   27.6000004      -39.5878029    
   27.6499996      -39.5497627    
   27.7000008      -39.5124855    
   27.7500000      -39.4761009    
   27.7999992      -39.4406700    
   27.8500004      -39.4061852    
   27.8999996      -39.3725433    
   27.9500008      -39.3395844    
   28.0000000      -39.3071022    
   28.0499992      -39.2749138    
   28.1000004      -39.2428894    
   28.1499996      -39.2109909    
   28.2000008      -39.1792717    
   28.2500000      -39.1478729    
   28.2999992      -39.1169701    
   28.3500004      -39.0867195    
   28.3999996      -39.0571899    
   28.4500008      -39.0283661    
   28.5000000      -39.0001221    
   28.5499992      -38.9722862    
   28.6000004      -38.9446678    
   28.6499996      -38.9171257    
   28.7000008      -38.8896332    
   28.7500000      -38.8622360    
   28.7999992      -38.8350716    
   28.8500004      -38.8082771    
   28.8999996      -38.7819328    
   28.9500008      -38.7560310    
   29.0000000      -38.7304649    
   29.0499992      -38.7050476    
   29.1000004      -38.6795998    
   29.1499996      -38.6540070    
   29.2000008      -38.6282768    
   29.2500000      -38.6025505    
   29.2999992      -38.5770760    
   29.3500004      -38.5521202    
   29.3999996      -38.5278816    
   29.4500008      -38.5044212    
   29.5000000      -38.4816322    
   29.5499992      -38.4592705    
   29.6000004      -38.4369926    
   29.6499996      -38.4145050    
   29.7000008      -38.3916016    
   29.7500000      -38.3682518    
   29.7999992      -38.3445740    
   29.8500004      -38.3208237    
   29.8999996      -38.2972794    
   29.9500008      -38.2741814    
   30.0000000      -38.2516403    
   30.0499992      -38.2296295    
   30.1000004      -38.2080193    
   30.1499996      -38.1865959    
   30.2000008      -38.1651802    
   30.2500000      -38.1436386    
   30.2999992      -38.1219673    
   30.3500004      -38.1002502    
   30.3999996      -38.0786247    
   30.4500008      -38.0572357    
   30.5000000      -38.0361633    
   30.5499992      -38.0154076    
   30.6000004      -37.9948807    
   30.6499996      -37.9744530    
   30.7000008      -37.9539757    
   30.7500000      -37.9333572    
   30.7999992      -37.9125786    
   30.8500004      -37.8917160    
   30.8999996      -37.8709068    
   30.9500008      -37.8503075    
   31.0000000      -37.8300552    
   31.0499992      -37.8101959    
   31.1000004      -37.7906876    
   31.1499996      -37.7714119    
   31.2000008      -37.7521896    
   31.2500000      -37.7328529    
   31.2999992      -37.7132759    
   31.3500004      -37.6934357    
   31.3999996      -37.6733894    
   31.4500008      -37.6532898    
   31.5000000      -37.6333122    
   31.5499992      -37.6135979    
   31.6000004      -37.5942421    
   31.6499996      -37.5752296    
   31.7000008      -37.5564728    
   31.7500000      -37.5378532    
   31.7999992      -37.5192299    
   31.8500004      -37.5005379    
   31.8999996      -37.4817734    
   31.9500008      -37.4630203    
   32.0000000      -37.4443779    
   32.0499992      -37.4259491    
   32.0999985      -37.4077606    
   32.1500015      -37.3897438    
   32.2000008      -37.3717499    
   32.2500000      -37.3535919    
   32.2999992      -37.3351021    
   32.3499985      -37.3162041    
   32.4000015      -37.2969666    
   32.4500008      -37.2775726    
   32.5000000      -37.2583008    
   32.5499992      -37.2394371    
   32.5999985      -37.2211723    
   32.6500015      -37.2035561    
   32.7000008      -37.1864738    
   32.7500000      -37.1696701    
   32.7999992      -37.1528358    