  -3.99999991E-02   0.00000000    
  -3.99499983E-02   0.00000000    
  -3.99000011E-02  -4.40910416E-12
  -3.98500003E-02  -2.12864934E-11
  -3.97999994E-02  -4.98590856E-11
  -3.97499986E-02  -7.77495429E-11
  -3.97000015E-02  -9.85627829E-11
  -3.96500006E-02  -1.26433128E-10
  -3.95999998E-02  -1.79910767E-10
  -3.95499989E-02  -2.49120363E-10
  -3.95000018E-02  -2.93017749E-10
  -3.94500010E-02  -2.83286644E-10
  -3.94000001E-02  -2.47002752E-10
  -3.93499993E-02  -2.48322474E-10
  -3.92999984E-02  -3.19076737E-10
  -3.92500013E-02  -4.18255430E-10
  -3.92000005E-02  -4.75099848E-10
  -3.91499996E-02  -4.69447425E-10
  -3.90999988E-02  -4.50683990E-10
  -3.90500017E-02  -4.67916650E-10
  -3.90000008E-02  -4.97645425E-10
  -3.89500000E-02  -4.65510935E-10
  -3.88999991E-02  -3.42196882E-10
  -3.88499983E-02  -1.92212940E-10
  -3.88000011E-02  -1.03479496E-10
  -3.87500003E-02  -7.52602078E-11
  -3.86999995E-02  -5.43386213E-12
  -3.86499986E-02   1.95609889E-10
  -3.86000015E-02   4.96723274E-10
  -3.85500006E-02   7.79669607E-10
  -3.84999998E-02   9.82168680E-10
  -3.84499989E-02   1.17857402E-09
  -3.84000018E-02   1.49477286E-09
  -3.83500010E-02   1.95531480E-09
  -3.83000001E-02   2.44865639E-09
  -3.82499993E-02   2.85558488E-09
  -3.81999984E-02   3.18447158E-09
  -3.81500013E-02   3.54604035E-09
  -3.81000005E-02   4.00018552E-09
  -3.80499996E-02   4.47205206E-09
  -3.79999988E-02   4.85276797E-09
  -3.79500017E-02   5.16500620E-09
  -3.79000008E-02   5.57748780E-09
  -3.78500000E-02   6.22670360E-09
  -3.77999991E-02   7.04469816E-09
  -3.77499983E-02   7.80117126E-09
  -3.77000012E-02   8.32337665E-09
  -3.76500003E-02   8.64832383E-09
  -3.75999995E-02   8.94241214E-09
  -3.75499986E-02   9.29790289E-09
  -3.75000015E-02   9.65119540E-09
  -3.74500006E-02   9.90242732E-09
  -3.73999998E-02   1.00586171E-08
  -3.73499990E-02   1.01977795E-08
  -3.73000018E-02   1.02932693E-08
  -3.72500010E-02   1.01414477E-08
  -3.72000001E-02   9.53402335E-09
  -3.71499993E-02   8.51588133E-09
  -3.70999984E-02   7.43334683E-09
  -3.70500013E-02   6.68587941E-09
  -3.70000005E-02   6.41487308E-09
  -3.69499996E-02   6.42594422E-09
  -3.68999988E-02   6.37910080E-09
  -3.68500017E-02   6.00857808E-09
  -3.68000008E-02   5.16330045E-09
  -3.67500000E-02   3.72569042E-09
  -3.66999991E-02   1.62063241E-09
  -3.66499983E-02  -1.02870434E-09
  -3.66000012E-02  -3.80215814E-09
  -3.65500003E-02  -6.15899776E-09
  -3.64999995E-02  -7.81828646E-09
  -3.64499986E-02  -9.00594710E-09
  -3.64000015E-02  -1.03147109E-08
  -3.63500006E-02  -1.22864261E-08
  -3.62999998E-02  -1.50773865E-08
  -3.62499990E-02  -1.84453643E-08
  -3.62000018E-02  -2.19658052E-08
  -3.61500010E-02  -2.52235441E-08
  -3.61000001E-02  -2.78778618E-08
  -3.60499993E-02  -2.97201481E-08
  -3.59999985E-02  -3.08299306E-08
  -3.59500013E-02  -3.17069073E-08
  -3.59000005E-02  -3.31345404E-08
  -3.58499996E-02  -3.57298973E-08
  -3.57999988E-02  -3.94765749E-08
  -3.57500017E-02  -4.36374812E-08
  -3.57000008E-02  -4.71545967E-08
  -3.56500000E-02  -4.92408709E-08
  -3.55999991E-02  -4.97491541E-08
  -3.55499983E-02  -4.91470615E-08
  -3.55000012E-02  -4.82412865E-08
  -3.54500003E-02  -4.78706497E-08
  -3.53999995E-02  -4.86351972E-08
  -3.53499986E-02  -5.06240028E-08
  -3.53000015E-02  -5.32096216E-08
  -3.52500007E-02  -5.51305597E-08
  -3.51999998E-02  -5.50045769E-08
  -3.51499990E-02  -5.20768495E-08
  -3.51000018E-02  -4.67232510E-08
  -3.50500010E-02  -4.03234282E-08
  -3.50000001E-02  -3.45537572E-08
  -3.49499993E-02  -3.05515755E-08
  -3.48999985E-02  -2.84291826E-08
  -3.48500013E-02  -2.73059744E-08
  -3.48000005E-02  -2.57119179E-08
  -3.47499996E-02  -2.21391314E-08
  -3.46999988E-02  -1.56088600E-08
  -3.46500017E-02  -6.14359896E-09
  -3.46000008E-02   5.06816944E-09
  -3.45500000E-02   1.60506737E-08
  -3.44999991E-02   2.49475463E-08
  -3.44499983E-02   3.10263069E-08
  -3.44000012E-02   3.51532634E-08
  -3.43500003E-02   3.93887092E-08
  -3.42999995E-02   4.59265372E-08
  -3.42499986E-02   5.60119346E-08
  -3.42000015E-02   6.94053739E-08
  -3.41500007E-02   8.45480201E-08
  -3.40999998E-02   9.92166918E-08
  -3.40499990E-02   1.11367335E-07
  -3.40000018E-02   1.19938875E-07
  -3.39500010E-02   1.25388283E-07
  -3.39000002E-02   1.29656485E-07
  -3.38499993E-02   1.35369632E-07
  -3.37999985E-02   1.44498344E-07
  -3.37500013E-02   1.57174796E-07
  -3.37000005E-02   1.71432490E-07
  -3.36499996E-02   1.84107819E-07
  -3.35999988E-02   1.92389678E-07
  -3.35500017E-02   1.95128408E-07
  -3.35000008E-02   1.93274261E-07
  -3.34500000E-02   1.89394882E-07
  -3.33999991E-02   1.86623481E-07
  -3.33499983E-02   1.87430842E-07
  -3.33000012E-02   1.92544434E-07
  -3.32500003E-02   2.00387674E-07
  -3.31999995E-02   2.07451407E-07
  -3.31499986E-02   2.09711743E-07
  -3.31000015E-02   2.04552009E-07
  -3.30500007E-02   1.92129292E-07
  -3.29999998E-02   1.75319272E-07
  -3.29499990E-02   1.58245143E-07
  -3.29000019E-02   1.44274694E-07
  -3.28500010E-02   1.34574421E-07
  -3.28000002E-02   1.27786606E-07
  -3.27499993E-02   1.20721069E-07
  -3.26999985E-02   1.09649747E-07
  -3.26500013E-02   9.18174337E-08
  -3.26000005E-02   6.67582967E-08
  -3.25499997E-02   3.68345532E-08
  -3.24999988E-02   6.46350440E-09
  -3.24500017E-02  -1.98917505E-08
  -3.24000008E-02  -3.99971540E-08
  -3.23500000E-02  -5.50362920E-08
  -3.22999991E-02  -6.89667701E-08
  -3.22499983E-02  -8.64747705E-08
  -3.22000012E-02  -1.10755522E-07
  -3.21500003E-02  -1.42206417E-07
  -3.20999995E-02  -1.78377988E-07
  -3.20499986E-02  -2.14937998E-07
  -3.20000015E-02  -2.47272084E-07
  -3.19500007E-02  -2.72342731E-07
  -3.18999998E-02  -2.90190485E-07
  -3.18499990E-02  -3.04218759E-07
  -3.18000019E-02  -3.19740423E-07
  -3.17500010E-02  -3.41285869E-07
  -3.17000002E-02  -3.70139645E-07
  -3.16499993E-02  -4.03574774E-07
  -3.15999985E-02  -4.36176435E-07
  -3.15500014E-02  -4.62354450E-07
  -3.15000005E-02  -4.78658535E-07
  -3.14499997E-02  -4.84981399E-07
  -3.13999988E-02  -4.84478221E-07
  -3.13500017E-02  -4.82389851E-07
  -3.13000008E-02  -4.84026316E-07
  -3.12500000E-02  -4.92412710E-07
  -3.11999992E-02  -5.06596280E-07
  -3.11500002E-02  -5.21724587E-07
  -3.10999993E-02  -5.31204137E-07
  -3.10500003E-02  -5.29911915E-07
  -3.09999995E-02  -5.16639943E-07
  -3.09500005E-02  -4.94447761E-07
  -3.08999997E-02  -4.68967841E-07
  -3.08500007E-02  -4.45813015E-07
  -3.07999998E-02  -4.28332925E-07
  -3.07500008E-02  -4.16402600E-07
  -3.07000000E-02  -4.06429649E-07
  -3.06499992E-02  -3.92618119E-07
  -3.06000002E-02  -3.69318542E-07
  -3.05499993E-02  -3.33694487E-07
  -3.05000003E-02  -2.87348996E-07
  -3.04499995E-02  -2.35766265E-07
  -3.04000005E-02  -1.85653874E-07
  -3.03499997E-02  -1.41654581E-07
  -3.03000007E-02  -1.04283167E-07
  -3.02499998E-02  -7.00423541E-08
  -3.02000009E-02  -3.33152883E-08
  -3.01500000E-02   1.11142642E-08
  -3.00999992E-02   6.59232597E-08
  -3.00500002E-02   1.30051760E-07
  -2.99999993E-02   1.98794950E-07
  -2.99500003E-02   2.65402008E-07
  -2.98999995E-02   3.23896529E-07
  -2.98500005E-02   3.71961363E-07
  -2.97999997E-02   4.12270339E-07
  -2.97500007E-02   4.51307784E-07
  -2.96999998E-02   4.96208315E-07
  -2.96500009E-02   5.51365872E-07
  -2.96000000E-02   6.16549187E-07
  -2.95499992E-02   6.87190550E-07
  -2.95000002E-02   7.56332895E-07
  -2.94499993E-02   8.17247098E-07
  -2.94000003E-02   8.65869254E-07
  -2.93499995E-02   9.02370687E-07
  -2.93000005E-02   9.31209001E-07
  -2.92499997E-02   9.59290901E-07
  -2.92000007E-02   9.92735750E-07
  -2.91499998E-02   1.03374725E-06
  -2.91000009E-02   1.07934420E-06
  -2.90500000E-02   1.12272573E-06
  -2.89999992E-02   1.15647333E-06
  -2.89500002E-02   1.17581828E-06
  -2.88999993E-02   1.18043283E-06
  -2.88500004E-02   1.17424509E-06
  -2.87999995E-02   1.16369040E-06
  -2.87500005E-02   1.15514820E-06
  -2.86999997E-02   1.15234229E-06
  -2.86500007E-02   1.15455953E-06
  -2.85999998E-02   1.15658167E-06
  -2.85500009E-02   1.15074783E-06
  -2.85000000E-02   1.13044769E-06
  -2.84499992E-02   1.09330415E-06
  -2.84000002E-02   1.04226910E-06
  -2.83499993E-02   9.84053827E-07
  -2.83000004E-02   9.25867937E-07
  -2.82499995E-02   8.72229691E-07
  -2.82000005E-02   8.23260336E-07
  -2.81499997E-02   7.74869875E-07
  -2.81000007E-02   7.20507160E-07
  -2.80499998E-02   6.53854670E-07
  -2.80000009E-02   5.71655448E-07
  -2.79500000E-02   4.75623295E-07
  -2.78999992E-02   3.72318993E-07
  -2.78500002E-02   2.70596786E-07
  -2.77999993E-02   1.77633069E-07
  -2.77500004E-02   9.55726236E-08
  -2.76999995E-02   2.06468744E-08
  -2.76500005E-02  -5.48317658E-08
  -2.75999997E-02  -1.38823268E-07
  -2.75500007E-02  -2.36108519E-07
  -2.74999999E-02  -3.46386997E-07
  -2.74500009E-02  -4.64346670E-07
  -2.74000000E-02  -5.81495271E-07
  -2.73499992E-02  -6.89252204E-07
  -2.73000002E-02  -7.82418851E-07
  -2.72499993E-02  -8.61589399E-07
  -2.72000004E-02  -9.33042884E-07
  -2.71499995E-02  -1.00577995E-06
  -2.71000005E-02  -1.08704944E-06
  -2.70499997E-02  -1.17875550E-06
  -2.70000007E-02  -1.27666112E-06
  -2.69499999E-02  -1.37252198E-06
  -2.69000009E-02  -1.45772231E-06
  -2.68500000E-02  -1.52662847E-06
  -2.67999992E-02  -1.57850002E-06
  -2.67500002E-02  -1.61760352E-06
  -2.66999993E-02  -1.65152255E-06
  -2.66500004E-02  -1.68794475E-06
  -2.65999995E-02  -1.73095339E-06
  -2.65500005E-02  -1.77863797E-06
  -2.64999997E-02  -1.82365920E-06
  -2.64500007E-02  -1.85680574E-06
  -2.63999999E-02  -1.87165085E-06
  -2.63500009E-02  -1.86766295E-06
  -2.63000000E-02  -1.85020372E-06
  -2.62499992E-02  -1.82784095E-06
  -2.62000002E-02  -1.80862878E-06
  -2.61499994E-02  -1.79698702E-06
  -2.61000004E-02  -1.79198958E-06
  -2.60499995E-02  -1.78747928E-06
  -2.60000005E-02  -1.77426045E-06
  -2.59499997E-02  -1.74398667E-06
  -2.59000007E-02  -1.69328280E-06
  -2.58499999E-02  -1.62580284E-06
  -2.58000009E-02  -1.55073053E-06
  -2.57500000E-02  -1.47833362E-06
  -2.56999992E-02  -1.41514329E-06
  -2.56500002E-02  -1.36135293E-06
  -2.55999994E-02  -1.31142860E-06
  -2.55500004E-02  -1.25705606E-06
  -2.54999995E-02  -1.19074821E-06
  -2.54500005E-02  -1.10890448E-06
  -2.53999997E-02  -1.01356534E-06
  -2.53500007E-02  -9.12205280E-07
  -2.52999999E-02  -8.15117062E-07
  -2.52500009E-02  -7.31005287E-07
  -2.52000000E-02  -6.62860032E-07
  -2.51499992E-02  -6.06551225E-07
  -2.51000002E-02  -5.53147686E-07
  -2.50499994E-02  -4.93598804E-07
  -2.50000004E-02  -4.22999847E-07
  -2.49499995E-02  -3.42342531E-07
  -2.49000005E-02  -2.57481673E-07
  -2.48499997E-02  -1.76468120E-07
  -2.48000007E-02  -1.06551802E-07
  -2.47499999E-02  -5.15758103E-08
  -2.47000009E-02  -1.04584306E-08
  -2.46500000E-02   2.23656222E-08
  -2.45999992E-02   5.41968284E-08
  -2.45500002E-02   8.99714152E-08
  -2.44999994E-02   1.29186077E-07
  -2.44500004E-02   1.65894846E-07
  -2.43999995E-02   1.91772443E-07
  -2.43500005E-02   2.00386395E-07
  -2.42999997E-02   1.90030633E-07
  -2.42500007E-02   1.63901504E-07
  -2.41999999E-02   1.28254101E-07
  -2.41500009E-02   8.97429615E-08
  -2.41000000E-02   5.29083657E-08
  -2.40499992E-02   1.82610336E-08
  -2.40000002E-02  -1.84484961E-08
  -2.39499994E-02  -6.48931859E-08
  -2.39000004E-02  -1.28801702E-07
  -2.38499995E-02  -2.14192710E-07
  -2.38000005E-02  -3.19398879E-07
  -2.37499997E-02  -4.38157286E-07
  -2.37000007E-02  -5.63056744E-07
  -2.36499999E-02  -6.89089688E-07
  -2.36000009E-02  -8.15417422E-07
  -2.35500000E-02  -9.44967326E-07
  -2.34999992E-02  -1.08262680E-06
  -2.34500002E-02  -1.23313976E-06
  -2.33999994E-02  -1.39949464E-06
  -2.33500004E-02  -1.58176476E-06
  -2.32999995E-02  -1.77677509E-06
  -2.32500006E-02  -1.97942200E-06
  -2.31999997E-02  -2.18519062E-06
  -2.31500007E-02  -2.39251335E-06
  -2.30999999E-02  -2.60347815E-06
  -2.30500009E-02  -2.82212841E-06
  -2.30000000E-02  -3.05168146E-06
  -2.29499992E-02  -3.29273325E-06
  -2.29000002E-02  -3.54335111E-06
  -2.28499994E-02  -3.80062147E-06
  -2.28000004E-02  -4.06231266E-06
  -2.27499995E-02  -4.32741945E-06
  -2.27000006E-02  -4.59619923E-06
  -2.26499997E-02  -4.87016860E-06
  -2.26000007E-02  -5.15164675E-06
  -2.25499999E-02  -5.44269460E-06
  -2.25000009E-02  -5.74367004E-06
  -2.24500000E-02  -6.05257128E-06
  -2.23999992E-02  -6.36605319E-06
  -2.23500002E-02  -6.68184884E-06
  -2.22999994E-02  -7.00069359E-06
  -2.22500004E-02  -7.32602530E-06
  -2.21999995E-02  -7.66165158E-06
  -2.21500006E-02  -8.00955968E-06
  -2.20999997E-02  -8.36918935E-06
  -2.20500007E-02  -8.73816134E-06
  -2.19999999E-02  -9.11360348E-06
  -2.19500009E-02  -9.49312107E-06
  -2.19000001E-02  -9.87531985E-06
  -2.18499992E-02  -1.02607200E-05
  -2.18000002E-02  -1.06523612E-05
  -2.17499994E-02  -1.10547244E-05
  -2.17000004E-02  -1.14713175E-05
  -2.16499995E-02  -1.19026063E-05
  -2.16000006E-02  -1.23459304E-05
  -2.15499997E-02  -1.27976700E-05
  -2.15000007E-02  -1.32562427E-05
  -2.14499999E-02  -1.37238239E-05
  -2.14000009E-02  -1.42053277E-05
  -2.13500001E-02  -1.47057654E-05
  -2.12999992E-02  -1.52279945E-05
  -2.12500002E-02  -1.57713057E-05
  -2.11999994E-02  -1.63314471E-05
  -2.11500004E-02  -1.69019568E-05
  -2.10999995E-02  -1.74762845E-05
  -2.10500006E-02  -1.80503939E-05
  -2.09999997E-02  -1.86255820E-05
  -2.09500007E-02  -1.92094431E-05
  -2.08999999E-02  -1.98128764E-05
  -2.08500009E-02  -2.04449261E-05
  -2.08000001E-02  -2.11081879E-05
  -2.07499992E-02  -2.17976976E-05
  -2.07000002E-02  -2.25038730E-05
  -2.06499994E-02  -2.32171897E-05
  -2.06000004E-02  -2.39322198E-05
  -2.05499995E-02  -2.46494765E-05
  -2.05000006E-02  -2.53748713E-05
  -2.04499997E-02  -2.61180394E-05
  -2.04000007E-02  -2.68883723E-05
  -2.03499999E-02  -2.76898882E-05
  -2.03000009E-02  -2.85183669E-05
  -2.02500001E-02  -2.93625781E-05
  -2.01999992E-02  -3.02095086E-05
  -2.01500002E-02  -3.10504474E-05
  -2.00999994E-02  -3.18856510E-05
  -2.00500004E-02  -3.27239759E-05
  -1.99999996E-02  -3.35781806E-05
  -1.99500006E-02  -3.44592881E-05
  -1.98999997E-02  -3.53712530E-05
  -1.98500007E-02  -3.63092149E-05
  -1.97999999E-02  -3.72617615E-05
  -1.97500009E-02  -3.82156286E-05
  -1.97000001E-02  -3.91607391E-05
  -1.96499992E-02  -4.00947611E-05
  -1.96000002E-02  -4.10257235E-05
  -1.95499994E-02  -4.19689386E-05
  -1.95000004E-02  -4.29395550E-05
  -1.94499996E-02  -4.39444193E-05
  -1.94000006E-02  -4.49772269E-05
  -1.93499997E-02  -4.60216834E-05
  -1.93000007E-02  -4.70601335E-05
  -1.92499999E-02  -4.80817762E-05
  -1.92000009E-02  -4.90861457E-05
  -1.91500001E-02  -5.00829010E-05
  -1.90999992E-02  -5.10889295E-05
  -1.90500002E-02  -5.21220245E-05
  -1.89999994E-02  -5.31940314E-05
  -1.89500004E-02  -5.43032074E-05
  -1.88999996E-02  -5.54327016E-05
  -1.88500006E-02  -5.65592381E-05
  -1.87999997E-02  -5.76653001E-05
  -1.87500007E-02  -5.87465474E-05
  -1.86999999E-02  -5.98135266E-05
  -1.86500009E-02  -6.08873961E-05
  -1.86000001E-02  -6.19900675E-05
  -1.85499992E-02  -6.31364674E-05
  -1.85000002E-02  -6.43296225E-05
  -1.84499994E-02  -6.55595431E-05
  -1.84000004E-02  -6.68067587E-05
  -1.83499996E-02  -6.80513258E-05
  -1.83000006E-02  -6.92841641E-05
  -1.82499997E-02  -7.05122875E-05
  -1.82000007E-02  -7.17564399E-05
  -1.81499999E-02  -7.30414395E-05
  -1.81000009E-02  -7.43846322E-05
  -1.80500001E-02  -7.57883099E-05
  -1.79999992E-02  -7.72409476E-05
  -1.79500002E-02  -7.87234458E-05
  -1.78999994E-02  -8.02181385E-05
  -1.78500004E-02  -8.17177352E-05
  -1.77999996E-02  -8.32317237E-05
  -1.77500006E-02  -8.47857955E-05
  -1.76999997E-02  -8.64097456E-05
  -1.76500008E-02  -8.81265078E-05
  -1.75999999E-02  -8.99436418E-05
  -1.75500009E-02  -9.18507576E-05
  -1.75000001E-02  -9.38257581E-05
  -1.74499992E-02  -9.58447781E-05
  -1.74000002E-02  -9.78942771E-05
  -1.73499994E-02  -9.99799086E-05
  -1.73000004E-02  -1.02127218E-04
  -1.72499996E-02  -1.04371415E-04
  -1.72000006E-02  -1.06741172E-04
  -1.71499997E-02  -1.09246706E-04
  -1.71000008E-02  -1.11879308E-04
  -1.70499999E-02  -1.14618706E-04
  -1.70000009E-02  -1.17442534E-04
  -1.69500001E-02  -1.20336554E-04
  -1.68999992E-02  -1.23303835E-04
  -1.68500002E-02  -1.26366707E-04
  -1.67999994E-02  -1.29560300E-04
  -1.67500004E-02  -1.32919347E-04
  -1.66999996E-02  -1.36463656E-04
  -1.66500006E-02  -1.40189091E-04
  -1.65999997E-02  -1.44068530E-04
  -1.65500008E-02  -1.48069623E-04
  -1.64999999E-02  -1.52174456E-04
  -1.64500009E-02  -1.56385286E-04
  -1.64000001E-02  -1.60723299E-04
  -1.63499992E-02  -1.65217440E-04
  -1.63000003E-02  -1.69897743E-04
  -1.62499994E-02  -1.74788656E-04
  -1.62000004E-02  -1.79892959E-04
  -1.61499996E-02  -1.85189099E-04
  -1.61000006E-02  -1.90645631E-04
  -1.60499997E-02  -1.96240959E-04
  -1.60000008E-02  -2.01974181E-04
  -1.59499999E-02  -2.07867313E-04
  -1.59000009E-02  -2.13955413E-04
  -1.58500001E-02  -2.20271104E-04
  -1.57999992E-02  -2.26831398E-04
  -1.57500003E-02  -2.33629486E-04
  -1.56999994E-02  -2.40643858E-04
  -1.56500004E-02  -2.47844931E-04
  -1.55999996E-02  -2.55204330E-04
  -1.55499997E-02  -2.62710033E-04
  -1.54999997E-02  -2.70377699E-04
  -1.54499998E-02  -2.78245629E-04
  -1.53999999E-02  -2.86356662E-04
  -1.53500000E-02  -2.94741913E-04
  -1.53000001E-02  -3.03401845E-04
  -1.52500002E-02  -3.12306016E-04
  -1.52000003E-02  -3.21412721E-04
  -1.51500003E-02  -3.30693583E-04
  -1.51000004E-02  -3.40142054E-04
  -1.50499996E-02  -3.49767448E-04
  -1.49999997E-02  -3.59594385E-04
  -1.49499997E-02  -3.69662623E-04
  -1.48999998E-02  -3.80008714E-04
  -1.48499999E-02  -3.90642177E-04
  -1.48000000E-02  -4.01539583E-04
  -1.47500001E-02  -4.12660389E-04
  -1.47000002E-02  -4.23966383E-04
  -1.46500003E-02  -4.35444585E-04
  -1.46000003E-02  -4.47113445E-04
  -1.45500004E-02  -4.59003175E-04
  -1.44999996E-02  -4.71147272E-04
  -1.44499997E-02  -4.83574928E-04
  -1.43999998E-02  -4.96295863E-04
  -1.43499998E-02  -5.09293284E-04
  -1.42999999E-02  -5.22531685E-04
  -1.42500000E-02  -5.35967352E-04
  -1.42000001E-02  -5.49571472E-04
  -1.41500002E-02  -5.63356443E-04
  -1.41000003E-02  -5.77360450E-04
  -1.40500003E-02  -5.91631455E-04
  -1.40000004E-02  -6.06206071E-04
  -1.39499996E-02  -6.21087034E-04
  -1.38999997E-02  -6.36254728E-04
  -1.38499998E-02  -6.51670794E-04
  -1.37999998E-02  -6.67297863E-04
  -1.37499999E-02  -6.83124410E-04
  -1.37000000E-02  -6.99156080E-04
  -1.36500001E-02  -7.15415285E-04
  -1.36000002E-02  -7.31943524E-04
  -1.35500003E-02  -7.48793304E-04
  -1.35000004E-02  -7.65994890E-04
  -1.34500004E-02  -7.83525407E-04
  -1.33999996E-02  -8.01324670E-04
  -1.33499997E-02  -8.19331093E-04
  -1.32999998E-02  -8.37530475E-04
  -1.32499998E-02  -8.55948601E-04
  -1.31999999E-02  -8.74618359E-04
  -1.31500000E-02  -8.93579097E-04
  -1.31000001E-02  -9.12871328E-04
  -1.30500002E-02  -9.32532013E-04
  -1.30000003E-02  -9.52570699E-04
  -1.29500004E-02  -9.72953159E-04
  -1.29000004E-02  -9.93621419E-04
  -1.28499996E-02  -1.01453438E-03
  -1.27999997E-02  -1.03569229E-03
  -1.27499998E-02  -1.05714449E-03
  -1.26999998E-02  -1.07895245E-03
  -1.26499999E-02  -1.10113551E-03
  -1.26000000E-02  -1.12367654E-03
  -1.25500001E-02  -1.14656158E-03
  -1.25000002E-02  -1.16979354E-03
  -1.24500003E-02  -1.19337358E-03
  -1.24000004E-02  -1.21726957E-03
  -1.23500004E-02  -1.24144705E-03
  -1.22999996E-02  -1.26594317E-03
  -1.22499997E-02  -1.29085477E-03
  -1.21999998E-02  -1.31628255E-03
  -1.21499998E-02  -1.34225795E-03
  -1.20999999E-02  -1.36870786E-03
  -1.20500000E-02  -1.39553857E-03
  -1.20000001E-02  -1.42271398E-03
  -1.19500002E-02  -1.45022653E-03
  -1.19000003E-02  -1.47805805E-03
  -1.18500004E-02  -1.50619645E-03
  -1.18000004E-02  -1.53468456E-03
  -1.17499996E-02  -1.56360236E-03
  -1.16999997E-02  -1.59303076E-03
  -1.16499998E-02  -1.62302190E-03
  -1.15999999E-02  -1.65357336E-03
  -1.15499999E-02  -1.68464566E-03
  -1.15000000E-02  -1.71620131E-03
  -1.14500001E-02  -1.74826989E-03
  -1.14000002E-02  -1.78091845E-03
  -1.13500003E-02  -1.81416865E-03
  -1.13000004E-02  -1.84801547E-03
  -1.12500004E-02  -1.88244309E-03
  -1.11999996E-02  -1.91740959E-03
  -1.11499997E-02  -1.95285794E-03
  -1.10999998E-02  -1.98871898E-03
  -1.10499999E-02  -2.02493439E-03
  -1.09999999E-02  -2.06148904E-03
  -1.09500000E-02  -2.09843554E-03
  -1.09000001E-02  -2.13589985E-03
  -1.08500002E-02  -2.17402843E-03
  -1.08000003E-02  -2.21295538E-03
  -1.07500004E-02  -2.25274777E-03
  -1.07000005E-02  -2.29338300E-03
  -1.06499996E-02  -2.33481708E-03
  -1.05999997E-02  -2.37701996E-03
  -1.05499998E-02  -2.41996278E-03
  -1.04999999E-02  -2.46359454E-03
  -1.04499999E-02  -2.50789197E-03
  -1.04000000E-02  -2.55286600E-03
  -1.03500001E-02  -2.59851455E-03
  -1.03000002E-02  -2.64483201E-03
  -1.02500003E-02  -2.69181654E-03
  -1.02000004E-02  -2.73944158E-03
  -1.01500005E-02  -2.78764288E-03
  -1.00999996E-02  -2.83640227E-03
  -1.00499997E-02  -2.88580614E-03
  -9.99999978E-03  -2.93603796E-03
  -9.94999986E-03  -2.98726652E-03
  -9.89999995E-03  -3.03948624E-03
  -9.85000003E-03  -3.09264683E-03
  -9.80000012E-03  -3.14676156E-03
  -9.75000020E-03  -3.20188119E-03
  -9.70000029E-03  -3.25801340E-03
  -9.65000037E-03  -3.31501267E-03
  -9.60000046E-03  -3.37274885E-03
  -9.54999961E-03  -3.43130040E-03
  -9.49999969E-03  -3.49088479E-03
  -9.44999978E-03  -3.55164963E-03
  -9.39999986E-03  -3.61357257E-03
  -9.34999995E-03  -3.67650064E-03
  -9.30000003E-03  -3.74034140E-03
  -9.25000012E-03  -3.80515330E-03
  -9.20000020E-03  -3.87095986E-03
  -9.15000029E-03  -3.93772125E-03
  -9.10000037E-03  -4.00534831E-03
  -9.05000046E-03  -4.07385547E-03
  -8.99999961E-03  -4.14341409E-03
  -8.94999970E-03  -4.21419926E-03
  -8.89999978E-03  -4.28626221E-03
  -8.84999987E-03  -4.35945624E-03
  -8.79999995E-03  -4.43364214E-03
  -8.75000004E-03  -4.50886786E-03
  -8.70000012E-03  -4.58530150E-03
  -8.65000021E-03  -4.66303248E-03
  -8.60000029E-03  -4.74204635E-03
  -8.55000038E-03  -4.82235802E-03
  -8.50000046E-03  -4.90397587E-03
  -8.44999962E-03  -4.98696789E-03
  -8.39999970E-03  -5.07141603E-03
  -8.34999979E-03  -5.15720202E-03
  -8.29999987E-03  -5.24411770E-03
  -8.24999996E-03  -5.33209182E-03
  -8.20000004E-03  -5.42123895E-03
  -8.15000013E-03  -5.51176025E-03
  -8.10000021E-03  -5.60378190E-03
  -8.05000030E-03  -5.69719821E-03
  -8.00000038E-03  -5.79190860E-03
  -7.95000046E-03  -5.88800805E-03
  -7.89999962E-03  -5.98558318E-03
  -7.84999970E-03  -6.08455157E-03
  -7.79999979E-03  -6.18469249E-03
  -7.74999987E-03  -6.28592679E-03
  -7.69999996E-03  -6.38843141E-03
  -7.65000004E-03  -6.49247970E-03
  -7.60000013E-03  -6.59818947E-03
  -7.55000021E-03  -6.70542475E-03
  -7.49999983E-03  -6.81409799E-03
  -7.44999992E-03  -6.92432420E-03
  -7.40000000E-03  -7.03615742E-03
  -7.35000009E-03  -7.14957435E-03
  -7.30000017E-03  -7.26437848E-03
  -7.24999979E-03  -7.38042267E-03
  -7.19999988E-03  -7.49793975E-03
  -7.14999996E-03  -7.61726499E-03
  -7.10000005E-03  -7.73853436E-03
  -7.05000013E-03  -7.86151178E-03
  -7.00000022E-03  -7.98590202E-03
  -6.94999984E-03  -8.11158121E-03
  -6.89999992E-03  -8.23869277E-03
  -6.85000001E-03  -8.36751517E-03
  -6.80000009E-03  -8.49800184E-03
  -6.75000018E-03  -8.62982683E-03
  -6.69999979E-03  -8.76293983E-03
  -6.64999988E-03  -8.89768451E-03
  -6.59999996E-03  -9.03446879E-03
  -6.55000005E-03  -9.17320047E-03
  -6.50000013E-03  -9.31327511E-03
  -6.45000022E-03  -9.45445523E-03
  -6.39999984E-03  -9.59699787E-03
  -6.34999992E-03  -9.74121969E-03
  -6.30000001E-03  -9.88726970E-03
  -6.25000009E-03  -1.00350827E-02
  -6.20000018E-03  -1.01845544E-02
  -6.14999980E-03  -1.03358570E-02
  -6.09999988E-03  -1.04892477E-02
  -6.04999997E-03  -1.06446119E-02
  -6.00000005E-03  -1.08015854E-02
  -5.95000014E-03  -1.09599158E-02
  -5.90000022E-03  -1.11197438E-02
  -5.84999984E-03  -1.12813096E-02
  -5.79999993E-03  -1.14448052E-02
  -5.75000001E-03  -1.16102044E-02
  -5.70000010E-03  -1.17771635E-02
  -5.65000018E-03  -1.19456584E-02
  -5.59999980E-03  -1.21160178E-02
  -5.54999989E-03  -1.22882398E-02
  -5.49999997E-03  -1.24619892E-02
  -5.45000006E-03  -1.26369298E-02
  -5.40000014E-03  -1.28131695E-02
  -5.35000023E-03  -1.29912663E-02
  -5.29999984E-03  -1.31715350E-02
  -5.24999993E-03  -1.33538488E-02
  -5.20000001E-03  -1.35378810E-02
  -5.15000010E-03  -1.37235196E-02
  -5.10000018E-03  -1.39109269E-02
  -5.04999980E-03  -1.41002694E-02
  -4.99999989E-03  -1.42916730E-02
  -4.94999997E-03  -1.44850137E-02
  -4.90000006E-03  -1.46799330E-02
  -4.85000014E-03  -1.48765650E-02
  -4.80000023E-03  -1.50752654E-02
  -4.74999985E-03  -1.52763352E-02
  -4.69999993E-03  -1.54796867E-02
  -4.65000002E-03  -1.56845283E-02
  -4.60000010E-03  -1.58903394E-02
  -4.55000019E-03  -1.60973035E-02
  -4.49999981E-03  -1.63060613E-02
  -4.44999989E-03  -1.65171623E-02
  -4.39999998E-03  -1.67303011E-02
  -4.35000006E-03  -1.69446915E-02
  -4.30000015E-03  -1.71605386E-02
  -4.25000023E-03  -1.73786730E-02
  -4.19999985E-03  -1.75992791E-02
  -4.14999994E-03  -1.78217590E-02
  -4.10000002E-03  -1.80452298E-02
  -4.05000011E-03  -1.82698108E-02
  -4.00000019E-03  -1.84964240E-02
  -3.94999981E-03  -1.87257100E-02
  -3.89999989E-03  -1.89574137E-02
  -3.84999998E-03  -1.91908181E-02
  -3.80000006E-03  -1.94259323E-02
  -3.74999992E-03  -1.96628422E-02
  -3.70000000E-03  -1.99015830E-02
  -3.65000009E-03  -2.01422460E-02
  -3.59999994E-03  -2.03844793E-02
  -3.55000002E-03  -2.06279159E-02
  -3.50000011E-03  -2.08726935E-02
  -3.44999996E-03  -2.11196076E-02
  -3.40000005E-03  -2.13690605E-02
  -3.34999990E-03  -2.16204543E-02
  -3.29999998E-03  -2.18730401E-02
  -3.25000007E-03  -2.21266802E-02
  -3.19999992E-03  -2.23818459E-02
  -3.15000000E-03  -2.26390678E-02
  -3.10000009E-03  -2.28979997E-02
  -3.04999994E-03  -2.31581070E-02
  -3.00000003E-03  -2.34197285E-02
  -2.95000011E-03  -2.36835685E-02
  -2.89999996E-03  -2.39498578E-02
  -2.85000005E-03  -2.42176969E-02
  -2.79999990E-03  -2.44864337E-02
  -2.74999999E-03  -2.47563124E-02
  -2.70000007E-03  -2.50278283E-02
  -2.64999992E-03  -2.53012180E-02
  -2.60000001E-03  -2.55761445E-02
  -2.55000009E-03  -2.58521773E-02
  -2.49999994E-03  -2.61294544E-02
  -2.45000003E-03  -2.64085699E-02
  -2.40000011E-03  -2.66897790E-02
  -2.34999997E-03  -2.69726142E-02
  -2.30000005E-03  -2.72561572E-02
  -2.24999990E-03  -2.75402423E-02
  -2.19999999E-03  -2.78253295E-02
  -2.15000007E-03  -2.81117000E-02
  -2.09999993E-03  -2.83994190E-02
  -2.05000001E-03  -2.86882017E-02
  -2.00000009E-03  -2.89779529E-02
  -1.94999995E-03  -2.92690229E-02
  -1.90000003E-03  -2.95610633E-02
  -1.85000000E-03  -2.98536774E-02
  -1.79999997E-03  -3.01468987E-02
  -1.75000005E-03  -3.04408986E-02
  -1.70000002E-03  -3.07360273E-02
  -1.64999999E-03  -3.10322847E-02
  -1.59999996E-03  -3.13293412E-02
  -1.55000004E-03  -3.16269621E-02
  -1.50000001E-03  -3.19250412E-02
  -1.44999998E-03  -3.22240293E-02
  -1.39999995E-03  -3.25242430E-02
  -1.35000004E-03  -3.28249820E-02
  -1.30000000E-03  -3.31251882E-02
  -1.24999997E-03  -3.34244743E-02
  -1.20000006E-03  -3.37240100E-02
  -1.15000003E-03  -3.40251662E-02
  -1.09999999E-03  -3.43277715E-02
  -1.04999996E-03  -3.46298367E-02
  -1.00000005E-03  -3.49299759E-02
  -9.50000016E-04  -3.52291018E-02
  -8.99999985E-04  -3.55286598E-02
  -8.50000011E-04  -3.58295478E-02
  -7.99999980E-04  -3.61302756E-02
  -7.50000007E-04  -3.64286192E-02
  -6.99999975E-04  -3.67252938E-02
  -6.50000002E-04  -3.70225757E-02
  -6.00000028E-04  -3.73212397E-02
  -5.49999997E-04  -3.76197957E-02
  -5.00000024E-04  -3.79156843E-02
  -4.49999992E-04  -3.82082798E-02
  -3.99999990E-04  -3.85000184E-02
  -3.49999988E-04  -3.87928560E-02
  -3.00000014E-04  -3.90858836E-02
  -2.50000012E-04  -3.93764600E-02
  -1.99999995E-04  -3.96635756E-02
  -1.50000007E-04  -3.99486646E-02
  -9.99999975E-05  -4.02337462E-02
  -4.99999987E-05  -4.05189358E-02
   0.00000000      -4.08014208E-02
   4.99999987E-05  -4.10791487E-02
   9.99999975E-05  -4.13528457E-02
   1.50000007E-04  -4.16252688E-02
   1.99999995E-04  -4.18979637E-02
   2.50000012E-04  -4.21685241E-02
   3.00000014E-04  -4.24346551E-02
   3.49999988E-04  -4.26961556E-02
   3.99999990E-04  -4.29545827E-02
   4.49999992E-04  -4.32112478E-02
   5.00000024E-04  -4.34654988E-02
   5.49999997E-04  -4.37154733E-02
   6.00000028E-04  -4.39596102E-02
   6.50000002E-04  -4.41993475E-02
   6.99999975E-04  -4.44366299E-02
   7.50000007E-04  -4.46715392E-02
   7.99999980E-04  -4.49028462E-02
   8.50000011E-04  -4.51289415E-02
   8.99999985E-04  -4.53485847E-02
   9.50000016E-04  -4.55616601E-02
   1.00000005E-03  -4.57707979E-02
   1.04999996E-03  -4.59777415E-02
   1.09999999E-03  -4.61799018E-02
   1.15000003E-03  -4.63744141E-02
   1.20000006E-03  -4.65605594E-02
   1.24999997E-03  -4.67398837E-02
   1.30000000E-03  -4.69151475E-02
   1.35000004E-03  -4.70867157E-02
   1.39999995E-03  -4.72512916E-02
   1.44999998E-03  -4.74049002E-02
   1.50000001E-03  -4.75479290E-02
   1.55000004E-03  -4.76857759E-02
   1.59999996E-03  -4.78212573E-02
   1.64999999E-03  -4.79508787E-02
   1.70000002E-03  -4.80688363E-02
   1.75000005E-03  -4.81732711E-02
   1.79999997E-03  -4.82697189E-02
   1.85000000E-03  -4.83631790E-02
   1.90000003E-03  -4.84513529E-02
   1.94999995E-03  -4.85276803E-02
   2.00000009E-03  -4.85879332E-02
   2.05000001E-03  -4.86365594E-02
   2.09999993E-03  -4.86810803E-02
   2.15000007E-03  -4.87207919E-02
   2.19999999E-03  -4.87480648E-02
   2.24999990E-03  -4.87589464E-02
   2.30000005E-03  -4.87557761E-02
   2.34999997E-03  -4.87434044E-02
   2.40000011E-03  -4.87242490E-02
   2.45000003E-03  -4.86938767E-02
   2.49999994E-03  -4.86463532E-02
   2.55000009E-03  -4.85809036E-02
   2.60000001E-03  -4.85041477E-02
   2.64999992E-03  -4.84216139E-02
   2.70000007E-03  -4.83285673E-02
   2.74999999E-03  -4.82171848E-02
   2.79999990E-03  -4.80850972E-02