  -3.99999991E-02   0.00000000    
  -3.99499983E-02   0.00000000    
  -3.99000011E-02   0.00000000    
  -3.98500003E-02   1.85469489E-15
  -3.97999994E-02   1.50212925E-14
  -3.97499986E-02   6.31928049E-14
  -3.97000015E-02   1.82950524E-13
  -3.96500006E-02   4.05934807E-13
  -3.95999998E-02   7.27717366E-13
  -3.95499989E-02   1.08342686E-12
  -3.95000018E-02   1.35626113E-12
  -3.94500010E-02   1.42936975E-12
  -3.94000001E-02   1.26145849E-12
  -3.93499993E-02   9.43082418E-13
  -3.92999984E-02   6.91499104E-13
  -3.92500013E-02   7.68359226E-13
  -3.92000005E-02   1.34410126E-12
  -3.91499996E-02   2.36880676E-12
  -3.90999988E-02   3.52399989E-12
  -3.90500017E-02   4.30751311E-12
  -3.90000008E-02   4.24109099E-12
  -3.89500000E-02   3.11288929E-12
  -3.88999991E-02   1.12349084E-12
  -3.88499983E-02  -1.16536089E-12
  -3.88000011E-02  -3.08180846E-12
  -3.87500003E-02  -4.18672909E-12
  -3.86999995E-02  -4.54288603E-12
  -3.86499986E-02  -4.76980608E-12
  -3.86000015E-02  -5.83432044E-12
  -3.85500006E-02  -8.64303941E-12
  -3.84999998E-02  -1.36036148E-11
  -3.84499989E-02  -2.03650343E-11
  -3.84000018E-02  -2.78953718E-11
  -3.83500010E-02  -3.49039443E-11
  -3.83000001E-02  -4.04269153E-11
  -3.82499993E-02  -4.42847668E-11
  -3.81999984E-02  -4.71725541E-11
  -3.81500013E-02  -5.03384522E-11
  -3.81000005E-02  -5.50211265E-11
  -3.80499996E-02  -6.19227516E-11
  -3.79999988E-02  -7.09491146E-11
  -3.79500017E-02  -8.13044007E-11
  -3.79000008E-02  -9.18687210E-11
  -3.78500000E-02  -1.01668354E-10
  -3.77999991E-02  -1.10207045E-10
  -3.77499983E-02  -1.17490892E-10
  -3.77000012E-02  -1.23749774E-10
  -3.76500003E-02  -1.29054892E-10
  -3.75999995E-02  -1.33113937E-10
  -3.75499986E-02  -1.35394626E-10
  -3.75000015E-02  -1.35459102E-10
  -3.74500006E-02  -1.33194886E-10
  -3.73999998E-02  -1.28681246E-10
  -3.73499990E-02  -1.21717456E-10
  -3.73000018E-02  -1.11349187E-10
  -3.72500010E-02  -9.58298649E-11
  -3.72000001E-02  -7.32650329E-11
  -3.71499993E-02  -4.28013180E-11
  -3.70999984E-02  -5.82526302E-12
  -3.70500013E-02   3.35827199E-11
  -3.70000005E-02   6.95697805E-11
  -3.69499996E-02   9.68906622E-11
  -3.68999988E-02   1.13983163E-10
  -3.68500017E-02   1.25237459E-10
  -3.68000008E-02   1.40873271E-10
  -3.67500000E-02   1.73705786E-10
  -3.66999991E-02   2.33647157E-10
  -3.66499983E-02   3.22261773E-10
  -3.66000012E-02   4.30192076E-10
  -3.65500003E-02   5.39356615E-10
  -3.64999995E-02   6.29763131E-10
  -3.64499986E-02   6.88446578E-10
  -3.64000015E-02   7.16512183E-10
  -3.63500006E-02   7.30419669E-10
  -3.62999998E-02   7.55759066E-10
  -3.62499990E-02   8.15228662E-10
  -3.62000018E-02   9.15865161E-10
  -3.61500010E-02   1.04196385E-09
  -3.61000001E-02   1.15839516E-09
  -3.60499993E-02   1.22448351E-09
  -3.59999985E-02   1.21319921E-09
  -3.59500013E-02   1.12684762E-09
  -3.59000005E-02   1.00081265E-09
  -3.58499996E-02   8.91563101E-10
  -3.57999988E-02   8.52320381E-10
  -3.57500017E-02   9.06381359E-10
  -3.57000008E-02   1.03080777E-09
  -3.56500000E-02   1.16010401E-09
  -3.55999991E-02   1.21116484E-09
  -3.55499983E-02   1.12044962E-09
  -3.55000012E-02   8.76895612E-10
  -3.54500003E-02   5.33777467E-10
  -3.53999995E-02   1.90782404E-10
  -3.53499986E-02  -4.89023891E-11
  -3.53000015E-02  -1.28764832E-10
  -3.52500007E-02  -7.28422669E-11
  -3.51999998E-02   1.53263340E-11
  -3.51499990E-02  -7.29251815E-12
  -3.51000018E-02  -2.58576799E-10
  -3.50500010E-02  -7.70033148E-10
  -3.50000001E-02  -1.45905965E-09
  -3.49499993E-02  -2.15239271E-09
  -3.48999985E-02  -2.65590305E-09
  -3.48500013E-02  -2.84286195E-09
  -3.48000005E-02  -2.72049250E-09
  -3.47499996E-02  -2.44039100E-09
  -3.46999988E-02  -2.24153740E-09
  -3.46500017E-02  -2.34572806E-09
  -3.46000008E-02  -2.85017387E-09
  -3.45500000E-02  -3.66808783E-09
  -3.44999991E-02  -4.55051019E-09
  -3.44499983E-02  -5.18738119E-09
  -3.44000012E-02  -5.34788924E-09
  -3.43500003E-02  -4.99724084E-09
  -3.42999995E-02  -4.33175718E-09
  -3.42499986E-02  -3.70722963E-09
  -3.42000015E-02  -3.48399620E-09
  -3.41500007E-02  -3.85433685E-09
  -3.40999998E-02  -4.73269202E-09
  -3.40499990E-02  -5.76702730E-09
  -3.40000018E-02  -6.47755360E-09
  -3.39500010E-02  -6.46909548E-09
  -3.39000002E-02  -5.62351721E-09
  -3.38499993E-02  -4.17949320E-09
  -3.37999985E-02  -2.65176259E-09
  -3.37500013E-02  -1.61355751E-09
  -3.37000005E-02  -1.43271006E-09
  -3.36499996E-02  -2.08189799E-09
  -3.35999988E-02  -3.11905413E-09
  -3.35500017E-02  -3.86186239E-09
  -3.35000008E-02  -3.69049946E-09
  -3.34500000E-02  -2.34656561E-09
  -3.33999991E-02  -8.68459957E-11
  -3.33499983E-02   2.39272557E-09
  -3.33000012E-02   4.24617985E-09
  -3.32500003E-02   4.86133178E-09
  -3.31999995E-02   4.16580992E-09
  -3.31499986E-02   2.70542833E-09
  -3.31000015E-02   1.43984591E-09
  -3.30500007E-02   1.32860822E-09
  -3.29999998E-02   2.88456681E-09
  -3.29499990E-02   5.90063465E-09
  -3.29000019E-02   9.49042978E-09
  -3.28500010E-02   1.24471278E-08
  -3.28000002E-02   1.37764680E-08
  -3.27499993E-02   1.31680871E-08
  -3.26999985E-02   1.11813172E-08
  -3.26500013E-02   9.03906461E-09
  -3.26000005E-02   8.09874923E-09
  -3.25499997E-02   9.22464505E-09
  -3.24999988E-02   1.23473427E-08
  -3.24500017E-02   1.64283644E-08
  -3.24000008E-02   1.98740224E-08
  -3.23500000E-02   2.12363105E-08
  -3.22999991E-02   1.98941041E-08
  -3.22499983E-02   1.63966067E-08
  -3.22000012E-02   1.22870372E-08
  -3.21500003E-02   9.45430578E-09
  -3.20999995E-02   9.28273014E-09
  -3.20499986E-02   1.19808226E-08
  -3.20000015E-02   1.64111267E-08
  -3.19500007E-02   2.05308908E-08
  -3.18999998E-02   2.22770371E-08
  -3.18499990E-02   2.05131609E-08
  -3.18000019E-02   1.56044724E-08
  -3.17500010E-02   9.33296729E-09
  -3.17000002E-02   4.15322665E-09
  -3.16499993E-02   2.09435669E-09
  -3.15999985E-02   3.79506782E-09
  -3.15500014E-02   8.12565304E-09
  -3.15000005E-02   1.26055744E-08
  -3.14499997E-02   1.44696761E-08
  -3.13999988E-02   1.19281589E-08
  -3.13500017E-02   5.05032549E-09
  -3.13000008E-02  -4.15619317E-09
  -3.12500000E-02  -1.25519763E-08
  -3.11999992E-02  -1.72359318E-08
  -3.11500002E-02  -1.68801630E-08
  -3.10999993E-02  -1.24149642E-08
  -3.10500003E-02  -6.71545175E-09
  -3.09999995E-02  -3.38166051E-09
  -3.09500005E-02  -5.12484544E-09
  -3.08999997E-02  -1.24796493E-08
  -3.08500007E-02  -2.34487025E-08
  -3.07999998E-02  -3.42887496E-08
  -3.07500008E-02  -4.11340650E-08
  -3.07000000E-02  -4.17541095E-08
  -3.06499992E-02  -3.66464867E-08
  -3.06000002E-02  -2.89326891E-08
  -3.05499993E-02  -2.30470008E-08
  -3.05000003E-02  -2.27612666E-08
  -3.04499995E-02  -2.94176647E-08
  -3.04000005E-02  -4.11874090E-08
  -3.03499997E-02  -5.37421023E-08
  -3.03000007E-02  -6.20966887E-08
  -3.02499998E-02  -6.28366124E-08
  -3.02000009E-02  -5.57305846E-08
  -3.01500000E-02  -4.39661036E-08
  -3.00999992E-02  -3.28397931E-08
  -3.00500002E-02  -2.74322325E-08
  -2.99999993E-02  -3.02832461E-08
  -2.99500003E-02  -4.01269880E-08
  -2.98999995E-02  -5.23079606E-08
  -2.98500005E-02  -6.07592554E-08
  -2.97999997E-02  -6.07077340E-08
  -2.97500007E-02  -5.09048128E-08
  -2.96999998E-02  -3.43476607E-08
  -2.96500009E-02  -1.70995804E-08
  -2.96000000E-02  -5.66728886E-09
  -2.95499992E-02  -4.06778788E-09
  -2.95000002E-02  -1.19047812E-08
  -2.94499993E-02  -2.43689087E-08
  -2.94000003E-02  -3.42388269E-08
  -2.93499995E-02  -3.50546792E-08
  -2.93000005E-02  -2.40716194E-08
  -2.92499997E-02  -3.64729358E-09
  -2.92000007E-02   1.96241388E-08
  -2.91499998E-02   3.77237015E-08
  -2.91000009E-02   4.47647537E-08
  -2.90500000E-02   3.97135729E-08
  -2.89999992E-02   2.70121010E-08
  -2.89500002E-02   1.47451660E-08
  -2.88999993E-02   1.10932419E-08
  -2.88500004E-02   2.06142641E-08
  -2.87999995E-02   4.20305462E-08
  -2.87500005E-02   6.85752184E-08
  -2.86999997E-02   9.08323941E-08
  -2.86500007E-02   1.00875369E-07
  -2.85999998E-02   9.58796420E-08
  -2.85500009E-02   7.95617510E-08
  -2.85000000E-02   6.07204811E-08
  -2.84499992E-02   4.94398158E-08
  -2.84000002E-02   5.25864081E-08
  -2.83499993E-02   7.06070509E-08
  -2.83000004E-02   9.71115099E-08
  -2.82499995E-02   1.21519221E-07
  -2.82000005E-02   1.33676451E-07
  -2.81499997E-02   1.28427189E-07
  -2.81000007E-02   1.08077948E-07
  -2.80499998E-02   8.15799126E-08
  -2.80000009E-02   6.06941128E-08
  -2.79500000E-02   5.47721832E-08
  -2.78999992E-02   6.64592505E-08
  -2.78500002E-02   9.02823203E-08
  -2.77999993E-02   1.14849655E-07
  -2.77500004E-02   1.27784745E-07
  -2.76999995E-02   1.21261280E-07
  -2.76500005E-02   9.56700532E-08
  -2.75999997E-02   5.97131091E-08
  -2.75500007E-02   2.67739360E-08
  -2.74999999E-02   9.08077968E-09
  -2.74500009E-02   1.22159962E-08
  -2.74000000E-02   3.24439320E-08
  -2.73499992E-02   5.81364823E-08
  -2.73000002E-02   7.47744124E-08
  -2.72499993E-02   7.13839086E-08
  -2.72000004E-02   4.55637164E-08
  -2.71499995E-02   4.81027973E-09
  -2.71000005E-02  -3.65558286E-08
  -2.70499997E-02  -6.36070823E-08
  -2.70000007E-02  -6.74704381E-08
  -2.69499999E-02  -4.94604429E-08
  -2.69000009E-02  -2.07624815E-08
  -2.68500000E-02   2.31407427E-09
  -2.67999992E-02   5.50756285E-09
  -2.67500002E-02  -1.69443144E-08
  -2.66999993E-02  -5.94794614E-08
  -2.66500004E-02  -1.07373531E-07
  -2.65999995E-02  -1.43053654E-07
  -2.65500005E-02  -1.53849072E-07
  -2.64999997E-02  -1.37750575E-07
  -2.64500007E-02  -1.04552988E-07
  -2.63999999E-02  -7.17523747E-08
  -2.63500009E-02  -5.68996796E-08
  -2.63000000E-02  -6.97403095E-08
  -2.62499992E-02  -1.07648916E-07
  -2.62000002E-02  -1.56483210E-07
  -2.61499994E-02  -1.96610515E-07
  -2.61000004E-02  -2.11541590E-07
  -2.60499995E-02  -1.95376643E-07
  -2.60000005E-02  -1.55705820E-07
  -2.59499997E-02  -1.10555256E-07
  -2.59000007E-02  -8.05960809E-08
  -2.58499999E-02  -7.99798343E-08
  -2.58000009E-02  -1.09859222E-07
  -2.57500000E-02  -1.57551540E-07
  -2.56999992E-02  -2.01853751E-07
  -2.56500002E-02  -2.22283845E-07
  -2.55999994E-02  -2.08217912E-07
  -2.55500004E-02  -1.63844291E-07
  -2.54999995E-02  -1.06627667E-07
  -2.54500005E-02  -5.98203869E-08
  -2.53999997E-02  -4.22263327E-08
  -2.53500007E-02  -5.97219341E-08
  -2.52999999E-02  -1.02357319E-07
  -2.52500009E-02  -1.48455868E-07
  -2.52000000E-02  -1.74040409E-07
  -2.51499992E-02  -1.63500275E-07
  -2.51000002E-02  -1.16769236E-07
  -2.50499994E-02  -4.97356432E-08
  -2.50000004E-02   1.24482309E-08
  -2.49499995E-02   4.63309284E-08
  -2.49000005E-02   4.06072260E-08
  -2.48499997E-02   1.37961764E-09
  -2.48000007E-02  -5.02181940E-08
  -2.47499999E-02  -8.71364989E-08
  -2.47000009E-02  -8.83417428E-08
  -2.46500000E-02  -4.83085465E-08
  -2.45999992E-02   2.02064978E-08
  -2.45500002E-02   9.14795351E-08
  -2.44999994E-02   1.38014855E-07
  -2.44500004E-02   1.42748874E-07
  -2.43999995E-02   1.06843984E-07
  -2.43500005E-02   4.95104473E-08
  -2.42999997E-02  -2.21408572E-10
  -2.42500007E-02  -1.62696558E-08
  -2.41999999E-02   1.27925279E-08
  -2.41500009E-02   7.83308849E-08
  -2.41000000E-02   1.55078155E-07
  -2.40499992E-02   2.12040547E-07
  -2.40000002E-02   2.26168851E-07
  -2.39499994E-02   1.92758776E-07
  -2.39000004E-02   1.27889066E-07
  -2.38499995E-02   6.16627531E-08
  -2.38000005E-02   2.50919765E-08
  -2.37499997E-02   3.63477604E-08
  -2.37000007E-02   9.24829422E-08
  -2.36499999E-02   1.70409848E-07
  -2.36000009E-02   2.36860629E-07
  -2.35500000E-02   2.63051959E-07
  -2.34999992E-02   2.37606642E-07
  -2.34500002E-02   1.71948599E-07
  -2.33999994E-02   9.56403099E-08
  -2.33500004E-02   4.35662599E-08
  -2.32999995E-02   4.05300931E-08
  -2.32500006E-02   9.00761137E-08
  -2.31999997E-02   1.72580727E-07
  -2.31500007E-02   2.53616548E-07
  -2.30999999E-02   2.99035179E-07
  -2.30500009E-02   2.90169680E-07
  -2.30000000E-02   2.32396815E-07
  -2.29499992E-02   1.53146559E-07
  -2.29000002E-02   9.00825725E-08
  -2.28499994E-02   7.45598712E-08
  -2.28000004E-02   1.17642713E-07
  -2.27499995E-02   2.04938829E-07
  -2.27000006E-02   3.02675147E-07
  -2.26499997E-02   3.72471305E-07
  -2.26000007E-02   3.88363446E-07
  -2.25499999E-02   3.48538919E-07
  -2.25000009E-02   2.76486219E-07
  -2.24500000E-02   2.10897099E-07
  -2.23999992E-02   1.88655392E-07
  -2.23500002E-02   2.28382987E-07
  -2.22999994E-02   3.21865656E-07
  -2.22500004E-02   4.37278999E-07
  -2.21999995E-02   5.32940078E-07
  -2.21500006E-02   5.75611466E-07
  -2.20999997E-02   5.55280053E-07
  -2.20500007E-02   4.89798026E-07
  -2.19999999E-02   4.17199061E-07
  -2.19500009E-02   3.78955690E-07
  -2.19000001E-02   4.01502973E-07
  -2.18499992E-02   4.84219186E-07
  -2.18000002E-02   5.99287375E-07
  -2.17499994E-02   7.03630633E-07
  -2.17000004E-02   7.57765292E-07
  -2.16499995E-02   7.43275564E-07
  -2.16000006E-02   6.71120119E-07
  -2.15499997E-02   5.76975822E-07
  -2.15000007E-02   5.05546723E-07
  -2.14499999E-02   4.90679270E-07
  -2.14000009E-02   5.40060853E-07
  -2.13500001E-02   6.31357352E-07
  -2.12999992E-02   7.21619188E-07
  -2.12500002E-02   7.65910272E-07
  -2.11999994E-02   7.37005564E-07
  -2.11500004E-02   6.37425842E-07
  -2.10999995E-02   4.98392865E-07
  -2.10500006E-02   3.66051239E-07
  -2.09999997E-02   2.80963604E-07
  -2.09500007E-02   2.59909456E-07
  -2.08999999E-02   2.88084152E-07
  -2.08500009E-02   3.25261851E-07
  -2.08000001E-02   3.23292795E-07
  -2.07499992E-02   2.47266314E-07
  -2.07000002E-02   9.09786522E-08
  -2.06499994E-02  -1.20200653E-07
  -2.06000004E-02  -3.40452090E-07
  -2.05499995E-02  -5.23797553E-07
  -2.05000006E-02  -6.44619945E-07
  -2.04499997E-02  -7.09329299E-07
  -2.04000007E-02  -7.53922166E-07
  -2.03499999E-02  -8.28406257E-07
  -2.03000009E-02  -9.74899308E-07
  -2.02500001E-02  -1.20906623E-06
  -2.01999992E-02  -1.51313179E-06
  -2.01500002E-02  -1.84365308E-06
  -2.00999994E-02  -2.15069804E-06
  -2.00500004E-02  -2.39998644E-06
  -1.99999996E-02  -2.58821751E-06
  -1.99500006E-02  -2.74472131E-06
  -1.98999997E-02  -2.91864990E-06
  -1.98500007E-02  -3.15729176E-06
  -1.97999999E-02  -3.48503158E-06
  -1.97500009E-02  -3.89234128E-06
  -1.97000001E-02  -4.33972991E-06
  -1.96499992E-02  -4.77496860E-06
  -1.96000002E-02  -5.15607417E-06
  -1.95499994E-02  -5.46987167E-06
  -1.95000004E-02  -5.73790021E-06
  -1.94499996E-02  -6.00697649E-06
  -1.94000006E-02  -6.32852607E-06
  -1.93499997E-02  -6.73578506E-06
  -1.93000007E-02  -7.22893174E-06
  -1.92499999E-02  -7.77474906E-06
  -1.92000009E-02  -8.32106343E-06
  -1.91500001E-02  -8.81960386E-06
  -1.90999992E-02  -9.24719006E-06
  -1.90500002E-02  -9.61588103E-06
  -1.89999994E-02  -9.96754534E-06
  -1.89500004E-02  -1.03552011E-05
  -1.88999996E-02  -1.08193681E-05
  -1.88500006E-02  -1.13698179E-05
  -1.87999997E-02  -1.19809019E-05
  -1.87500007E-02  -1.26025661E-05
  -1.86999999E-02  -1.31821598E-05
  -1.86500009E-02  -1.36875015E-05
  -1.86000001E-02  -1.41209684E-05
  -1.85499992E-02  -1.45183221E-05
  -1.85000002E-02  -1.49328389E-05
  -1.84499994E-02  -1.54116187E-05
  -1.84000004E-02  -1.59746123E-05
  -1.83499996E-02  -1.66056161E-05
  -1.83000006E-02  -1.72593172E-05
  -1.82499997E-02  -1.78811788E-05
  -1.82000007E-02  -1.84314522E-05
  -1.81499999E-02  -1.89027214E-05
  -1.81000009E-02  -1.93231808E-05
  -1.80500001E-02  -1.97441295E-05
  -1.79999992E-02  -2.02172323E-05
  -1.79500002E-02  -2.07716494E-05
  -1.78999994E-02  -2.14010288E-05
  -1.78500004E-02  -2.20662223E-05
  -1.77999996E-02  -2.27125438E-05
  -1.77500006E-02  -2.32940056E-05
  -1.76999997E-02  -2.37937693E-05
  -1.76500008E-02  -2.42317401E-05
  -1.75999999E-02  -2.46560030E-05
  -1.75500009E-02  -2.51218280E-05
  -1.75000001E-02  -2.56675576E-05
  -1.74499992E-02  -2.62980175E-05
  -1.74000002E-02  -2.69827215E-05
  -1.73499994E-02  -2.76698192E-05
  -1.73000004E-02  -2.83094123E-05
  -1.72499996E-02  -2.88760129E-05
  -1.72000006E-02  -2.93803441E-05
  -1.71499997E-02  -2.98650430E-05
  -1.71000008E-02  -3.03862216E-05
  -1.70499999E-02  -3.09891002E-05
  -1.70000009E-02  -3.16884543E-05
  -1.69500001E-02  -3.24625180E-05
  -1.68999992E-02  -3.32631607E-05
  -1.68500002E-02  -3.40376610E-05
  -1.67999994E-02  -3.47525456E-05
  -1.67500004E-02  -3.54089570E-05
  -1.66999996E-02  -3.60427875E-05
  -1.66500006E-02  -3.67094399E-05
  -1.65999997E-02  -3.74599404E-05
  -1.65500008E-02  -3.83191291E-05
  -1.64999999E-02  -3.92755210E-05
  -1.64500009E-02  -4.02872392E-05
  -1.64000001E-02  -4.13013659E-05
  -1.63499992E-02  -4.22781231E-05
  -1.63000003E-02  -4.32093475E-05
  -1.62499994E-02  -4.41228003E-05
  -1.62000004E-02  -4.50704974E-05
  -1.61499996E-02  -4.61064228E-05
  -1.61000006E-02  -4.72631873E-05
  -1.60499997E-02  -4.85381825E-05
  -1.60000008E-02  -4.98955596E-05
  -1.59499999E-02  -5.12826773E-05
  -1.59000009E-02  -5.26539843E-05
  -1.58500001E-02  -5.39919893E-05
  -1.57999992E-02  -5.53157297E-05
  -1.57500003E-02  -5.66728922E-05
  -1.56999994E-02  -5.81193708E-05
  -1.56500004E-02  -5.96955142E-05
  -1.55999996E-02  -6.14089367E-05
  -1.55499997E-02  -6.32317315E-05
  -1.54999997E-02  -6.51137816E-05
  -1.54499998E-02  -6.70059308E-05
  -1.53999999E-02  -6.88823711E-05
  -1.53500000E-02  -7.07526488E-05
  -1.53000001E-02  -7.26579674E-05
  -1.52500002E-02  -7.46535079E-05
  -1.52000003E-02  -7.67843958E-05
  -1.51500003E-02  -7.90661361E-05
  -1.51000004E-02  -8.14782616E-05
  -1.50499996E-02  -8.39740460E-05
  -1.49999997E-02  -8.65016045E-05
  -1.49499997E-02  -8.90270749E-05
  -1.48999998E-02  -9.15503624E-05
  -1.48499999E-02  -9.41056423E-05
  -1.48000000E-02  -9.67463493E-05
  -1.47500001E-02  -9.95219671E-05
  -1.47000002E-02  -1.02456383E-04
  -1.46500003E-02  -1.05538042E-04
  -1.46000003E-02  -1.08725486E-04
  -1.45500004E-02  -1.11966416E-04
  -1.44999996E-02  -1.15221286E-04
  -1.44499997E-02  -1.18481577E-04
  -1.43999998E-02  -1.21774101E-04
  -1.43499998E-02  -1.25148974E-04
  -1.42999999E-02  -1.28658183E-04
  -1.42500000E-02  -1.32332527E-04
  -1.42000001E-02  -1.36168281E-04
  -1.41500002E-02  -1.40129603E-04
  -1.41000003E-02  -1.44164340E-04
  -1.40500003E-02  -1.48227788E-04
  -1.40000004E-02  -1.52303139E-04
  -1.39499996E-02  -1.56409340E-04
  -1.38999997E-02  -1.60592943E-04
  -1.38499998E-02  -1.64908211E-04
  -1.37999998E-02  -1.69393199E-04
  -1.37499999E-02  -1.74053304E-04
  -1.37000000E-02  -1.78860268E-04
  -1.36500001E-02  -1.83764685E-04
  -1.36000002E-02  -1.88719307E-04
  -1.35500003E-02  -1.93701053E-04
  -1.35000004E-02  -1.98721522E-04
  -1.34500004E-02  -2.03823191E-04
  -1.33999996E-02  -2.09061152E-04
  -1.33499997E-02  -2.14479747E-04
  -1.32999998E-02  -2.20093803E-04
  -1.32499998E-02  -2.25882453E-04
  -1.31999999E-02  -2.31799509E-04
  -1.31500000E-02  -2.37794942E-04
  -1.31000001E-02  -2.43838629E-04
  -1.30500002E-02  -2.49934819E-04
  -1.30000003E-02  -2.56120722E-04
  -1.29500004E-02  -2.62451736E-04
  -1.29000004E-02  -2.68978096E-04
  -1.28499996E-02  -2.75723083E-04
  -1.27999997E-02  -2.82674911E-04
  -1.27499998E-02  -2.89793912E-04
  -1.26999998E-02  -2.97031162E-04
  -1.26499999E-02  -3.04352085E-04
  -1.26000000E-02  -3.11754819E-04
  -1.25500001E-02  -3.19272222E-04
  -1.25000002E-02  -3.26958805E-04
  -1.24500003E-02  -3.34869343E-04
  -1.24000004E-02  -3.43035441E-04
  -1.23500004E-02  -3.51452967E-04
  -1.22999996E-02  -3.60086764E-04
  -1.22499997E-02  -3.68886773E-04
  -1.21999998E-02  -3.77812219E-04
  -1.21499998E-02  -3.86852480E-04
  -1.20999999E-02  -3.96033545E-04
  -1.20500000E-02  -4.05408529E-04
  -1.20000001E-02  -4.15036397E-04
  -1.19500002E-02  -4.24958300E-04
  -1.19000003E-02  -4.35181457E-04
  -1.18500004E-02  -4.45677579E-04
  -1.18000004E-02  -4.56397713E-04
  -1.17499996E-02  -4.67296719E-04
  -1.16999997E-02  -4.78357426E-04
  -1.16499998E-02  -4.89601109E-04
  -1.15999999E-02  -5.01077448E-04
  -1.15499999E-02  -5.12846105E-04
  -1.15000000E-02  -5.24953823E-04
  -1.14500001E-02  -5.37414104E-04
  -1.14000002E-02  -5.50203898E-04
  -1.13500003E-02  -5.63276350E-04
  -1.13000004E-02  -5.76583203E-04
  -1.12500004E-02  -5.90100011E-04
  -1.11999996E-02  -6.03839930E-04
  -1.11499997E-02  -6.17849932E-04
  -1.10999998E-02  -6.32193638E-04
  -1.10499999E-02  -6.46926812E-04
  -1.09999999E-02  -6.62073144E-04
  -1.09500000E-02  -6.77615404E-04
  -1.09000001E-02  -6.93507376E-04
  -1.08500002E-02  -7.09696324E-04
  -1.08000003E-02  -7.26150291E-04
  -1.07500004E-02  -7.42873584E-04
  -1.07000005E-02  -7.59906601E-04
  -1.06499996E-02  -7.77314592E-04
  -1.05999997E-02  -7.95159664E-04
  -1.05499998E-02  -8.13475228E-04
  -1.04999999E-02  -8.32253194E-04
  -1.04499999E-02  -8.51450895E-04
  -1.04000000E-02  -8.71013384E-04
  -1.03500001E-02  -8.90900148E-04
  -1.03000002E-02  -9.11106414E-04
  -1.02500003E-02  -9.31667513E-04
  -1.02000004E-02  -9.52649221E-04
  -1.01500005E-02  -9.74118535E-04
  -1.00999996E-02  -9.96117946E-04
  -1.00499997E-02  -1.01864769E-03
  -9.99999978E-03  -1.04166777E-03
  -9.94999986E-03  -1.06512208E-03
  -9.89999995E-03  -1.08896312E-03
  -9.85000003E-03  -1.11317495E-03
  -9.80000012E-03  -1.13778620E-03
  -9.75000020E-03  -1.16286078E-03
  -9.70000029E-03  -1.18847110E-03
  -9.65000037E-03  -1.21467107E-03
  -9.60000046E-03  -1.24147476E-03
  -9.54999961E-03  -1.26885122E-03
  -9.49999969E-03  -1.29674212E-03
  -9.44999978E-03  -1.32508879E-03
  -9.39999986E-03  -1.35386223E-03
  -9.34999995E-03  -1.38308364E-03
  -9.30000003E-03  -1.41281378E-03
  -9.25000012E-03  -1.44313276E-03
  -9.20000020E-03  -1.47410831E-03
  -9.15000029E-03  -1.50576804E-03
  -9.10000037E-03  -1.53808971E-03
  -9.05000046E-03  -1.57100917E-03
  -8.99999961E-03  -1.60446111E-03
  -8.94999970E-03  -1.63840957E-03
  -8.89999978E-03  -1.67286152E-03
  -8.84999987E-03  -1.70787028E-03
  -8.79999995E-03  -1.74352096E-03
  -8.75000004E-03  -1.77989295E-03
  -8.70000012E-03  -1.81702361E-03
  -8.65000021E-03  -1.85489992E-03
  -8.60000029E-03  -1.89346750E-03
  -8.55000038E-03  -1.93265441E-03
  -8.50000046E-03  -1.97241060E-03
  -8.44999962E-03  -2.01273290E-03
  -8.39999970E-03  -2.05366942E-03
  -8.34999979E-03  -2.09530722E-03
  -8.29999987E-03  -2.13773153E-03
  -8.24999996E-03  -2.18099565E-03
  -8.20000004E-03  -2.22510379E-03
  -8.15000013E-03  -2.27000937E-03
  -8.10000021E-03  -2.31563975E-03
  -8.05000030E-03  -2.36193091E-03
  -8.00000038E-03  -2.40886351E-03
  -7.95000046E-03  -2.45647272E-03
  -7.89999962E-03  -2.50484073E-03
  -7.84999970E-03  -2.55406718E-03
  -7.79999979E-03  -2.60421750E-03
  -7.74999987E-03  -2.65530474E-03
  -7.69999996E-03  -2.70728883E-03
  -7.65000004E-03  -2.76009156E-03
  -7.60000013E-03  -2.81363633E-03
  -7.55000021E-03  -2.86788424E-03
  -7.49999983E-03  -2.92285625E-03
  -7.44999992E-03  -2.97863060E-03
  -7.40000000E-03  -3.03530856E-03
  -7.35000009E-03  -3.09297349E-03
  -7.30000017E-03  -3.15166125E-03
  -7.24999979E-03  -3.21134296E-03
  -7.19999988E-03  -3.27194273E-03
  -7.14999996E-03  -3.33337835E-03
  -7.10000005E-03  -3.39560048E-03
  -7.05000013E-03  -3.45861656E-03
  -7.00000022E-03  -3.52249667E-03
  -6.94999984E-03  -3.58734047E-03
  -6.89999992E-03  -3.65323457E-03
  -6.85000001E-03  -3.72022600E-03
  -6.80000009E-03  -3.78829776E-03
  -6.75000018E-03  -3.85737978E-03
  -6.69999979E-03  -3.92738171E-03
  -6.64999988E-03  -3.99823720E-03
  -6.59999996E-03  -4.06993460E-03
  -6.55000005E-03  -4.14251955E-03
  -6.50000013E-03  -4.21608193E-03
  -6.45000022E-03  -4.29073162E-03
  -6.39999984E-03  -4.36653104E-03
  -6.34999992E-03  -4.44347830E-03
  -6.30000001E-03  -4.52151662E-03
  -6.25000009E-03  -4.60054958E-03
  -6.20000018E-03  -4.68049012E-03
  -6.14999980E-03  -4.76130005E-03
  -6.09999988E-03  -4.84301243E-03
  -6.04999997E-03  -4.92573157E-03
  -6.00000005E-03  -5.00957388E-03
  -5.95000014E-03  -5.09462040E-03
  -5.90000022E-03  -5.18089579E-03
  -5.84999984E-03  -5.26834605E-03
  -5.79999993E-03  -5.35686128E-03
  -5.75000001E-03  -5.44633390E-03
  -5.70000010E-03  -5.53671923E-03
  -5.65000018E-03  -5.62803308E-03
  -5.59999980E-03  -5.72034996E-03
  -5.54999989E-03  -5.81378303E-03
  -5.49999997E-03  -5.90843055E-03
  -5.45000006E-03  -6.00433769E-03
  -5.40000014E-03  -6.10145787E-03
  -5.35000023E-03  -6.19969564E-03
  -5.29999984E-03  -6.29895460E-03
  -5.24999993E-03  -6.39915979E-03
  -5.20000001E-03  -6.50029397E-03
  -5.15000010E-03  -6.60240697E-03
  -5.10000018E-03  -6.70557469E-03
  -5.04999980E-03  -6.80990703E-03
  -4.99999989E-03  -6.91549992E-03
  -4.94999997E-03  -7.02235801E-03
  -4.90000006E-03  -7.13041564E-03
  -4.85000014E-03  -7.23956618E-03
  -4.80000023E-03  -7.34970719E-03
  -4.74999985E-03  -7.46077998E-03
  -4.69999993E-03  -7.57279480E-03
  -4.65000002E-03  -7.68582849E-03
  -4.60000010E-03  -7.80000351E-03
  -4.55000019E-03  -7.91540276E-03
  -4.49999981E-03  -8.03204160E-03
  -4.44999989E-03  -8.14989768E-03
  -4.39999998E-03  -8.26887321E-03
  -4.35000006E-03  -8.38886388E-03
  -4.30000015E-03  -8.50978307E-03
  -4.25000023E-03  -8.63158237E-03
  -4.19999985E-03  -8.75431299E-03
  -4.14999994E-03  -8.87807179E-03
  -4.10000002E-03  -9.00297612E-03
  -4.05000011E-03  -9.12907999E-03
  -4.00000019E-03  -9.25638620E-03
  -3.94999981E-03  -9.38483886E-03
  -3.89999989E-03  -9.51433182E-03
  -3.84999998E-03  -9.64473374E-03
  -3.80000006E-03  -9.77595150E-03
  -3.74999992E-03  -9.90798511E-03
  -3.70000000E-03  -1.00409221E-02
  -3.65000009E-03  -1.01748640E-02
  -3.59999994E-03  -1.03099225E-02
  -3.55000002E-03  -1.04461685E-02
  -3.50000011E-03  -1.05835507E-02
  -3.44999996E-03  -1.07219247E-02
  -3.40000005E-03  -1.08611146E-02
  -3.34999990E-03  -1.10010048E-02
  -3.29999998E-03  -1.11415805E-02
  -3.25000007E-03  -1.12829050E-02
  -3.19999992E-03  -1.14250844E-02
  -3.15000000E-03  -1.15682511E-02
  -3.10000009E-03  -1.17124636E-02
  -3.04999994E-03  -1.18576838E-02
  -3.00000003E-03  -1.20037794E-02
  -2.95000011E-03  -1.21505773E-02
  -2.89999996E-03  -1.22979144E-02
  -2.85000005E-03  -1.24457218E-02
  -2.79999990E-03  -1.25940396E-02
  -2.74999999E-03  -1.27429599E-02
  -2.70000007E-03  -1.28926262E-02
  -2.64999992E-03  -1.30431456E-02
  -2.60000001E-03  -1.31945321E-02
  -2.55000009E-03  -1.33466944E-02
  -2.49999994E-03  -1.34994071E-02
  -2.45000003E-03  -1.36524709E-02
  -2.40000011E-03  -1.38057871E-02
  -2.34999997E-03  -1.39593147E-02
  -2.30000005E-03  -1.41130891E-02
  -2.24999990E-03  -1.42672649E-02
  -2.19999999E-03  -1.44219929E-02
  -2.15000007E-03  -1.45773590E-02
  -2.09999993E-03  -1.47333173E-02
  -2.05000001E-03  -1.48896258E-02
  -2.00000009E-03  -1.50460256E-02
  -1.94999995E-03  -1.52022922E-02
  -1.90000003E-03  -1.53583232E-02
  -1.85000000E-03  -1.55141633E-02
  -1.79999997E-03  -1.56699624E-02
  -1.75000005E-03  -1.58259626E-02
  -1.70000002E-03  -1.59822684E-02
  -1.64999999E-03  -1.61388107E-02
  -1.59999996E-03  -1.62954535E-02
  -1.55000004E-03  -1.64518841E-02
  -1.50000001E-03  -1.66077744E-02
  -1.44999998E-03  -1.67629588E-02
  -1.39999995E-03  -1.69174410E-02
  -1.35000004E-03  -1.70713756E-02
  -1.30000000E-03  -1.72250364E-02
  -1.24999997E-03  -1.73785836E-02
  -1.20000006E-03  -1.75320171E-02
  -1.15000003E-03  -1.76851638E-02
  -1.09999999E-03  -1.78376734E-02
  -1.04999996E-03  -1.79891791E-02
  -1.00000005E-03  -1.81394462E-02
  -9.50000016E-04  -1.82884280E-02
  -8.99999985E-04  -1.84362438E-02
  -8.50000011E-04  -1.85831375E-02
  -7.99999980E-04  -1.87293161E-02
  -7.50000007E-04  -1.88748483E-02
  -6.99999975E-04  -1.90196093E-02
  -6.50000002E-04  -1.91632975E-02
  -6.00000028E-04  -1.93055011E-02
  -5.49999997E-04  -1.94458514E-02
  -5.00000024E-04  -1.95842031E-02
  -4.49999992E-04  -1.97206065E-02
  -3.99999990E-04  -1.98553093E-02
  -3.49999988E-04  -1.99886207E-02
  -3.00000014E-04  -2.01207250E-02
  -2.50000012E-04  -2.02515572E-02
  -1.99999995E-04  -2.03807782E-02
  -1.50000007E-04  -2.05078982E-02
  -9.99999975E-05  -2.06324961E-02
  -4.99999987E-05  -2.07544062E-02
   0.00000000      -2.08735894E-02
   4.99999987E-05  -2.09902134E-02
   9.99999975E-05  -2.11046282E-02
   1.50000007E-04  -2.12171003E-02
   1.99999995E-04  -2.13276446E-02
   2.50000012E-04  -2.14359295E-02
   3.00000014E-04  -2.15414427E-02
   3.49999988E-04  -2.16437690E-02
   3.99999990E-04  -2.17425283E-02
   4.49999992E-04  -2.18375549E-02
   5.00000024E-04  -2.19290387E-02
   5.49999997E-04  -2.20172517E-02
   6.00000028E-04  -2.21025180E-02
   6.50000002E-04  -2.21850276E-02
   6.99999975E-04  -2.22645923E-02
   7.50000007E-04  -2.23408006E-02
   7.99999980E-04  -2.24131271E-02
   8.50000011E-04  -2.24810597E-02
   8.99999985E-04  -2.25442499E-02
   9.50000016E-04  -2.26027388E-02
   1.00000005E-03  -2.26568989E-02
   1.04999996E-03  -2.27071065E-02
   1.09999999E-03  -2.27537155E-02
   1.15000003E-03  -2.27966979E-02
   1.20000006E-03  -2.28355359E-02
   1.24999997E-03  -2.28694845E-02
   1.30000000E-03  -2.28979625E-02
   1.35000004E-03  -2.29206569E-02
   1.39999995E-03  -2.29375381E-02
   1.44999998E-03  -2.29489412E-02
   1.50000001E-03  -2.29553804E-02
   1.55000004E-03  -2.29570922E-02
   1.59999996E-03  -2.29539964E-02
   1.64999999E-03  -2.29458176E-02
   1.70000002E-03  -2.29319762E-02
   1.75000005E-03  -2.29118615E-02
   1.79999997E-03  -2.28849519E-02
   1.85000000E-03  -2.28510294E-02
   1.90000003E-03  -2.28102952E-02
   1.94999995E-03  -2.27631144E-02
   2.00000009E-03  -2.27098595E-02
   2.05000001E-03  -2.26508118E-02
   2.09999993E-03  -2.25858036E-02
   2.15000007E-03  -2.25143563E-02
   2.19999999E-03  -2.24357489E-02
   2.24999990E-03  -2.23491639E-02
   2.30000005E-03  -2.22542081E-02
   2.34999997E-03  -2.21509840E-02
   2.40000011E-03  -2.20399480E-02
   2.45000003E-03  -2.19216570E-02
   2.49999994E-03  -2.17964891E-02
   2.55000009E-03  -2.16643158E-02
   2.60000001E-03  -2.15246715E-02
   2.64999992E-03  -2.13768873E-02
   2.70000007E-03  -2.12201532E-02
   2.74999999E-03  -2.10538339E-02
   2.79999990E-03  -2.08777469E-02