  -3.99999991E-02   0.00000000    
  -3.99499983E-02   0.00000000    
  -3.99000011E-02   0.00000000    
  -3.98500003E-02   0.00000000    
  -3.97999994E-02   0.00000000    
  -3.97499986E-02  -2.66832239E-22
  -3.97000015E-02  -3.13139318E-21
  -3.96500006E-02  -1.93528000E-20
  -3.95999998E-02  -8.32445617E-20
  -3.95499989E-02  -2.78499408E-19
  -3.95000018E-02  -7.68854712E-19
  -3.94500010E-02  -1.81629589E-18
  -3.94000001E-02  -3.76210800E-18
  -3.93499993E-02  -6.95359373E-18
  -3.92999984E-02  -1.16278268E-17
  -3.92500013E-02  -1.78056665E-17
  -3.92000005E-02  -2.52797033E-17
  -3.91499996E-02  -3.37671173E-17
  -3.90999988E-02  -4.32262618E-17
  -3.90500017E-02  -5.42243097E-17
  -3.90000008E-02  -6.81529856E-17
  -3.89500000E-02  -8.70920865E-17
  -3.88999991E-02  -1.13253268E-16
  -3.88499983E-02  -1.48163069E-16
  -3.88000011E-02  -1.91954051E-16
  -3.87500003E-02  -2.43194806E-16
  -3.86999995E-02  -2.99518685E-16
  -3.86499986E-02  -3.58937861E-16
  -3.86000015E-02  -4.21305929E-16
  -3.85500006E-02  -4.89142045E-16
  -3.84999998E-02  -5.67148062E-16
  -3.84499989E-02  -6.60276423E-16
  -3.84000018E-02  -7.70960971E-16
  -3.83500010E-02  -8.96746793E-16
  -3.83000001E-02  -1.02965082E-15
  -3.82499993E-02  -1.15798457E-15
  -3.81999984E-02  -1.27023972E-15
  -3.81500013E-02  -1.35950302E-15
  -3.81000005E-02  -1.42632037E-15
  -3.80499996E-02  -1.47835995E-15
  -3.79999988E-02  -1.52654162E-15
  -3.79500017E-02  -1.57895994E-15
  -3.79000008E-02  -1.63514501E-15
  -3.78500000E-02  -1.68334934E-15
  -3.77999991E-02  -1.70238937E-15
  -3.77499983E-02  -1.66755916E-15
  -3.77000012E-02  -1.55814516E-15
  -3.76500003E-02  -1.36312271E-15
  -3.75999995E-02  -1.08228142E-15
  -3.75499986E-02  -7.22098287E-16
  -3.75000015E-02  -2.88183849E-16
  -3.74500006E-02   2.22184895E-16
  -3.73999998E-02   8.23912654E-16
  -3.73499990E-02   1.54241513E-15
  -3.73000018E-02   2.40697033E-15
  -3.72500010E-02   3.44171022E-15
  -3.72000001E-02   4.65764910E-15
  -3.71499993E-02   6.04846365E-15
  -3.70999984E-02   7.59106353E-15
  -3.70500013E-02   9.25029096E-15
  -3.70000005E-02   1.09861190E-14
  -3.69499996E-02   1.27617338E-14
  -3.68999988E-02   1.45514060E-14
  -3.68500017E-02   1.63472666E-14
  -3.68000008E-02   1.81634018E-14
  -3.67500000E-02   2.00346467E-14
  -3.66999991E-02   2.20072712E-14
  -3.66499983E-02   2.41207844E-14
  -3.66000012E-02   2.63844292E-14
  -3.65500003E-02   2.87567957E-14
  -3.64999995E-02   3.11392181E-14
  -3.64499986E-02   3.33906622E-14
  -3.64000015E-02   3.53633206E-14
  -3.63500006E-02   3.69470588E-14
  -3.62999998E-02   3.81026184E-14
  -3.62499990E-02   3.88638435E-14
  -3.62000018E-02   3.93000519E-14
  -3.61500010E-02   3.94490654E-14
  -3.61000001E-02   3.92501956E-14
  -3.60499993E-02   3.85147135E-14
  -3.59999985E-02   3.69610382E-14
  -3.59500013E-02   3.43139891E-14
  -3.59000005E-02   3.04324606E-14
  -3.58499996E-02   2.54052489E-14
  -3.57999988E-02   1.95564458E-14
  -3.57500017E-02   1.33346610E-14
  -3.57000008E-02   7.11468797E-15
  -3.56500000E-02   9.91544709E-16
  -3.55999991E-02  -5.33145534E-15
  -3.55499983E-02  -1.24848608E-14
  -3.55000012E-02  -2.11994390E-14
  -3.54500003E-02  -3.19776012E-14
  -3.53999995E-02  -4.48138129E-14
  -3.53499986E-02  -5.91102891E-14
  -3.53000015E-02  -7.38629603E-14
  -3.52500007E-02  -8.80706844E-14
  -3.51999998E-02  -1.01200718E-13
  -3.51499990E-02  -1.13487006E-13
  -3.51000018E-02  -1.25883990E-13
  -3.50500010E-02  -1.39641648E-13
  -3.50000001E-02  -1.55650964E-13
  -3.49499993E-02  -1.73847929E-13
  -3.48999985E-02  -1.92982186E-13
  -3.48500013E-02  -2.10924824E-13
  -3.48000005E-02  -2.25451209E-13
  -3.47499996E-02  -2.35191044E-13
  -3.46999988E-02  -2.40308316E-13
  -3.46500017E-02  -2.42542070E-13
  -3.46000008E-02  -2.44497510E-13
  -3.45500000E-02  -2.48428096E-13
  -3.44999991E-02  -2.55031212E-13
  -3.44499983E-02  -2.62842862E-13
  -3.44000012E-02  -2.68603932E-13
  -3.43500003E-02  -2.68544112E-13
  -3.42999995E-02  -2.60076167E-13
  -3.42499986E-02  -2.43127756E-13
  -3.42000015E-02  -2.20415794E-13
  -3.41500007E-02  -1.96396651E-13
  -3.40999998E-02  -1.75238486E-13
  -3.40499990E-02  -1.58682610E-13
  -3.40000018E-02  -1.44824026E-13
  -3.39500010E-02  -1.28522762E-13
  -3.39000002E-02  -1.03451658E-13
  -3.38499993E-02  -6.49934072E-14
  -3.37999985E-02  -1.26924982E-14
  -3.37500013E-02   4.89699664E-14
  -3.37000005E-02   1.12047050E-13
  -3.36499996E-02   1.68394148E-13
  -3.35999988E-02   2.13371896E-13
  -3.35500017E-02   2.48259665E-13
  -3.35000008E-02   2.80086447E-13
  -3.34500000E-02   3.18685182E-13
  -3.33999991E-02   3.72089133E-13
  -3.33499983E-02   4.42305047E-13
  -3.33000012E-02   5.23532227E-13
  -3.32500003E-02   6.03938069E-13
  -3.31999995E-02   6.70510576E-13
  -3.31499986E-02   7.14982273E-13
  -3.31000015E-02   7.38100661E-13
  -3.30500007E-02   7.50034475E-13
  -3.29999998E-02   7.66327811E-13
  -3.29499990E-02   8.00881280E-13
  -3.29000019E-02   8.59002593E-13
  -3.28500010E-02   9.33831463E-13
  -3.28000002E-02   1.00815808E-12
  -3.27499993E-02   1.06128127E-12
  -3.26999985E-02   1.07812576E-12
  -3.26500013E-02   1.05651241E-12
  -3.26000005E-02   1.00897665E-12
  -3.25499997E-02   9.57799270E-13
  -3.24999988E-02   9.25016248E-13
  -3.24500017E-02   9.21716046E-13
  -3.24000008E-02   9.41647042E-13
  -3.23500000E-02   9.62550677E-13
  -3.22999991E-02   9.55261261E-13
  -3.22499983E-02   8.96934111E-13
  -3.22000012E-02   7.82484700E-13
  -3.21500003E-02   6.28663300E-13
  -3.20999995E-02   4.68199698E-13
  -3.20499986E-02   3.35932345E-13
  -3.20000015E-02   2.52786859E-13
  -3.19500007E-02   2.14972070E-13
  -3.18999998E-02   1.93903609E-13
  -3.18499990E-02   1.47756360E-13
  -3.18000019E-02   4.01397496E-14
  -3.17500010E-02  -1.42316538E-13
  -3.17000002E-02  -3.81806972E-13
  -3.16499993E-02  -6.35173609E-13
  -3.15999985E-02  -8.52027270E-13
  -3.15500014E-02  -9.97578539E-13
  -3.15000005E-02  -1.06979703E-12
  -3.14499997E-02  -1.10241731E-12
  -3.13999988E-02  -1.15132188E-12
  -3.13500017E-02  -1.26947042E-12
  -3.13000008E-02  -1.48130314E-12
  -3.12500000E-02  -1.76859352E-12
  -3.11999992E-02  -2.07522888E-12
  -3.11500002E-02  -2.33005629E-12
  -3.10999993E-02  -2.47840832E-12
  -3.10500003E-02  -2.50819678E-12
  -3.09999995E-02  -2.45800971E-12
  -3.09500005E-02  -2.40219563E-12
  -3.08999997E-02  -2.41832227E-12
  -3.08500007E-02  -2.55099175E-12
  -3.07999998E-02  -2.78863412E-12
  -3.07500008E-02  -3.06493763E-12
  -3.07000000E-02  -3.28584122E-12
  -3.06499992E-02  -3.37115036E-12
  -3.06000002E-02  -3.29230068E-12
  -3.05499993E-02  -3.08841733E-12
  -3.05000003E-02  -2.85179996E-12
  -3.04499995E-02  -2.68767083E-12
  -3.04000005E-02  -2.66533757E-12
  -3.03499997E-02  -2.78299454E-12
  -3.03000007E-02  -2.96343874E-12
  -3.02499998E-02  -3.08464300E-12
  -3.02000009E-02  -3.03315337E-12
  -3.01500000E-02  -2.75692728E-12
  -3.00999992E-02  -2.29305398E-12
  -3.00500002E-02  -1.75600517E-12
  -2.99999993E-02  -1.28951407E-12
  -2.99500003E-02  -1.00225687E-12
  -2.98999995E-02  -9.16185313E-13
  -2.98500005E-02  -9.52159358E-13
  -2.97999997E-02  -9.61633008E-13
  -2.97500007E-02  -7.92296079E-13
  -2.96999998E-02  -3.59150074E-13
  -2.96500009E-02   3.11612444E-13
  -2.96000000E-02   1.08776757E-12
  -2.95499992E-02   1.78559305E-12
  -2.95000002E-02   2.25126276E-12
  -2.94499993E-02   2.43292040E-12
  -2.94000003E-02   2.40960051E-12
  -2.93499995E-02   2.36129367E-12
  -2.93000005E-02   2.49081441E-12
  -2.92499997E-02   2.93095431E-12
  -2.92000007E-02   3.67896425E-12
  -2.91499998E-02   4.58997163E-12
  -2.91000009E-02   5.43537437E-12
  -2.90500000E-02   6.00260553E-12
  -2.89999992E-02   6.19239642E-12
  -2.89500002E-02   6.06863995E-12
  -2.88999993E-02   5.83557855E-12
  -2.88500004E-02   5.74930034E-12
  -2.87999995E-02   6.00112191E-12
  -2.87500005E-02   6.62522641E-12
  -2.86999997E-02   7.47427033E-12
  -2.86500007E-02   8.27746205E-12
  -2.85999998E-02   8.75834388E-12
  -2.85500009E-02   8.76093295E-12
  -2.85000000E-02   8.32660156E-12
  -2.84499992E-02   7.68403657E-12
  -2.84000002E-02   7.15280005E-12
  -2.83499993E-02   7.00074764E-12
  -2.83000004E-02   7.31859538E-12
  -2.82499995E-02   7.96993548E-12
  -2.82000005E-02   8.64298737E-12
  -2.81499997E-02   8.98490657E-12
  -2.81000007E-02   8.76073779E-12
  -2.80499998E-02   7.96529075E-12
  -2.80000009E-02   6.83467172E-12
  -2.79500000E-02   5.74791907E-12
  -2.78999992E-02   5.05912586E-12
  -2.78500002E-02   4.93403018E-12
  -2.77999993E-02   5.26609529E-12
  -2.77500004E-02   5.71389203E-12
  -2.76999995E-02   5.84774330E-12
  -2.76500005E-02   5.34312915E-12
  -2.75999997E-02   4.13429447E-12
  -2.75500007E-02   2.45619519E-12
  -2.74999999E-02   7.50985537E-13
  -2.74500009E-02  -5.23777419E-13
  -2.74000000E-02  -1.10165360E-12
  -2.73499992E-02  -1.03496844E-12
  -2.73000002E-02  -6.82281759E-13
  -2.72499993E-02  -5.55986084E-13
  -2.72000004E-02  -1.09413509E-12
  -2.71499995E-02  -2.45765821E-12
  -2.71000005E-02  -4.44632222E-12
  -2.70499997E-02  -6.57619358E-12
  -2.70000007E-02  -8.28925383E-12
  -2.69499999E-02  -9.20451822E-12
  -2.69000009E-02  -9.29765466E-12
  -2.68500000E-02  -8.92459457E-12
  -2.67999992E-02  -8.67259476E-12
  -2.67500002E-02  -9.10023445E-12
  -2.66999993E-02  -1.04807109E-11
  -2.66500004E-02  -1.26654104E-11
  -2.65999995E-02  -1.51341717E-11
  -2.65500005E-02  -1.72161001E-11
  -2.64999997E-02  -1.83865822E-11
  -2.64500007E-02  -1.85081603E-11
  -2.63999999E-02  -1.79039214E-11
  -2.63500009E-02  -1.72242377E-11
  -2.63000000E-02  -1.71603617E-11
  -2.62499992E-02  -1.81297859E-11
  -2.62000002E-02  -2.00752609E-11
  -2.61499994E-02  -2.24725863E-11
  -2.61000004E-02  -2.45505265E-11
  -2.60499995E-02  -2.56300606E-11
  -2.60000005E-02  -2.54328260E-11
  -2.59499997E-02  -2.42177563E-11
  -2.59000007E-02  -2.26782655E-11
  -2.58499999E-02  -2.16388261E-11
  -2.58000009E-02  -2.16821040E-11
  -2.57500000E-02  -2.28735329E-11
  -2.56999992E-02  -2.47113285E-11
  -2.56500002E-02  -2.63318378E-11
  -2.55999994E-02  -2.68852735E-11
  -2.55500004E-02  -2.59170532E-11
  -2.54999995E-02  -2.35823236E-11
  -2.54500005E-02  -2.05915007E-11
  -2.53999997E-02  -1.79034305E-11
  -2.53500007E-02  -1.62974807E-11
  -2.52999999E-02  -1.60147624E-11
  -2.52500009E-02  -1.66328635E-11
  -2.52000000E-02  -1.72377373E-11
  -2.51499992E-02  -1.68235963E-11
  -2.51000002E-02  -1.47464714E-11
  -2.50499994E-02  -1.10276554E-11
  -2.50000004E-02  -6.36532537E-12
  -2.49499995E-02  -1.84051580E-12
  -2.49000005E-02   1.55832378E-12
  -2.48499997E-02   3.38247681E-12
  -2.48000007E-02   3.93875947E-12
  -2.47499999E-02   4.16992222E-12
  -2.47000009E-02   5.24424341E-12
  -2.46500000E-02   8.03161010E-12
  -2.45999992E-02   1.26996330E-11
  -2.45500002E-02   1.86154529E-11
  -2.44999994E-02   2.46057532E-11
  -2.44500004E-02   2.94671683E-11
  -2.43999995E-02   3.25030558E-11
  -2.43500005E-02   3.38448922E-11
  -2.42999997E-02   3.44073312E-11
  -2.42500007E-02   3.54876233E-11
  -2.41999999E-02   3.81809653E-11
  -2.41500009E-02   4.28711858E-11
  -2.41000000E-02   4.90287567E-11
  -2.40499992E-02   5.54155472E-11
  -2.40000002E-02   6.06144579E-11
  -2.39499994E-02   6.36533604E-11
  -2.39000004E-02   6.44443041E-11
  -2.38499995E-02   6.38351871E-11
  -2.38000005E-02   6.32409611E-11
  -2.37499997E-02   6.40102624E-11
  -2.37000007E-02   6.68066644E-11
  -2.36499999E-02   7.12838261E-11
  -2.36000009E-02   7.62081648E-11
  -2.35500000E-02   7.99843733E-11
  -2.34999992E-02   8.13561649E-11
  -2.34500002E-02   7.99705718E-11
  -2.33999994E-02   7.65479000E-11
  -2.33500004E-02   7.25716293E-11
  -2.32999995E-02   6.96270958E-11
  -2.32500006E-02   6.86792359E-11
  -2.31999997E-02   6.96139327E-11
  -2.31500007E-02   7.12560774E-11
  -2.30999999E-02   7.18671442E-11
  -2.30500009E-02   6.99090577E-11
  -2.30000000E-02   6.47360013E-11
  -2.29499992E-02   5.69008035E-11
  -2.29000002E-02   4.79293688E-11
  -2.28499994E-02   3.96532217E-11
  -2.28000004E-02   3.33914597E-11
  -2.27499995E-02   2.93475348E-11
  -2.27000006E-02   2.64973165E-11
  -2.26499997E-02   2.30291168E-11
  -2.26000007E-02   1.71488327E-11
  -2.25499999E-02   7.89471266E-12
  -2.25000009E-02  -4.40538014E-12
  -2.24500000E-02  -1.82477800E-11
  -2.23999992E-02  -3.15983073E-11
  -2.23500002E-02  -4.27886684E-11
  -2.22999994E-02  -5.12650790E-11
  -2.22500004E-02  -5.78482470E-11
  -2.21999995E-02  -6.43776213E-11
  -2.21500006E-02  -7.28879526E-11
  -2.20999997E-02  -8.46797771E-11
  -2.20500007E-02  -9.97004423E-11
  -2.19999999E-02  -1.16520446E-10
  -2.19500009E-02  -1.32926836E-10
  -2.19000001E-02  -1.46877913E-10
  -2.18499992E-02  -1.57395680E-10
  -2.18000002E-02  -1.64992811E-10
  -2.17499994E-02  -1.71433701E-10
  -2.17000004E-02  -1.78925319E-10
  -2.16499995E-02  -1.89092797E-10
  -2.16000006E-02  -2.02198092E-10
  -2.15499997E-02  -2.16958243E-10
  -2.15000007E-02  -2.31055911E-10
  -2.14499999E-02  -2.42124348E-10
  -2.14000009E-02  -2.48770782E-10
  -2.13500001E-02  -2.51178078E-10
  -2.12999992E-02  -2.51006022E-10
  -2.12500002E-02  -2.50625853E-10
  -2.11999994E-02  -2.52021348E-10
  -2.11500004E-02  -2.55847343E-10
  -2.10999995E-02  -2.61071831E-10
  -2.10500006E-02  -2.65372779E-10
  -2.09999997E-02  -2.66122319E-10
  -2.09500007E-02  -2.61524219E-10
  -2.08999999E-02  -2.51394044E-10
  -2.08500009E-02  -2.37225961E-10
  -2.08000001E-02  -2.21505425E-10
  -2.07499992E-02  -2.06567541E-10
  -2.07000002E-02  -1.93510111E-10
  -2.06499994E-02  -1.81652429E-10
  -2.06000004E-02  -1.68793146E-10
  -2.05499995E-02  -1.52161714E-10
  -2.05000006E-02  -1.29645197E-10
  -2.04499997E-02  -1.00740458E-10
  -2.04000007E-02  -6.67990663E-11
  -2.03499999E-02  -3.04447578E-11
  -2.03000009E-02   5.58503114E-12
  -2.02500001E-02   3.96585334E-11
  -2.01999992E-02   7.19808102E-11
  -2.01500002E-02   1.04501491E-10
  -2.00999994E-02   1.40029974E-10
  -2.00500004E-02   1.80947826E-10
  -1.99999996E-02   2.28094252E-10
  -1.99500006E-02   2.80328788E-10
  -1.98999997E-02   3.34976352E-10
  -1.98500007E-02   3.88962862E-10
  -1.97999999E-02   4.40136011E-10
  -1.97500009E-02   4.88176999E-10
  -1.97000001E-02   5.34686129E-10
  -1.96499992E-02   5.82394799E-10
  -1.96000002E-02   6.33849584E-10
  -1.95499994E-02   6.90157154E-10
  -1.95000004E-02   7.50357609E-10
  -1.94499996E-02   8.11714529E-10
  -1.94000006E-02   8.70801431E-10
  -1.93499997E-02   9.24901378E-10
  -1.93000007E-02   9.73091274E-10
  -1.92499999E-02   1.01651987E-09
  -1.92000009E-02   1.05774589E-09
  -1.91500001E-02   1.09942844E-09
  -1.90999992E-02   1.14295617E-09
  -1.90500002E-02   1.18763388E-09
  -1.89999994E-02   1.23079835E-09
  -1.89500004E-02   1.26882038E-09
  -1.88999996E-02   1.29854383E-09
  -1.88500006E-02   1.31851763E-09
  -1.87999997E-02   1.32945899E-09
  -1.87500007E-02   1.33373457E-09
  -1.86999999E-02   1.33408562E-09
  -1.86500009E-02   1.33216893E-09
  -1.86000001E-02   1.32757272E-09
  -1.85499992E-02   1.31775524E-09
  -1.85000002E-02   1.29894218E-09
  -1.84499994E-02   1.26758337E-09
  -1.84000004E-02   1.22171340E-09
  -1.83499996E-02   1.16160215E-09
  -1.83000006E-02   1.08939713E-09
  -1.82499997E-02   1.00791431E-09
  -1.82000007E-02   9.19121779E-10
  -1.81499999E-02   8.23000501E-10
  -1.81000009E-02   7.17302051E-10
  -1.80500001E-02   5.98316618E-10
  -1.79999992E-02   4.62307748E-10
  -1.79500002E-02   3.06969422E-10
  -1.78999994E-02   1.32240649E-10
  -1.78500004E-02  -5.98898500E-11
  -1.77999996E-02  -2.66509259E-10
  -1.77500006E-02  -4.85326168E-10
  -1.76999997E-02  -7.15939974E-10
  -1.76500008E-02  -9.60253099E-10
  -1.75999999E-02  -1.22184085E-09
  -1.75500009E-02  -1.50455581E-09
  -1.75000001E-02  -1.81099624E-09
  -1.74499992E-02  -2.14153895E-09
  -1.74000002E-02  -2.49436560E-09
  -1.73499994E-02  -2.86648483E-09
  -1.73000004E-02  -3.25527449E-09
  -1.72499996E-02  -3.65985708E-09
  -1.72000006E-02  -4.08166656E-09
  -1.71499997E-02  -4.52395987E-09
  -1.71000008E-02  -4.99048713E-09
  -1.70499999E-02  -5.48392354E-09
  -1.70000009E-02  -6.00477845E-09
  -1.69500001E-02  -6.55128263E-09
  -1.68999992E-02  -7.12029991E-09
  -1.68500002E-02  -7.70886555E-09
  -1.67999994E-02  -8.31563352E-09
  -1.67500004E-02  -8.94159502E-09
  -1.66999996E-02  -9.58971658E-09
  -1.66500006E-02  -1.02636868E-08
  -1.65999997E-02  -1.09663185E-08
  -1.65500008E-02  -1.16983498E-08
  -1.64999999E-02  -1.24581891E-08
  -1.64500009E-02  -1.32427100E-08
  -1.64000001E-02  -1.40487550E-08
  -1.63499992E-02  -1.48746482E-08
  -1.63000003E-02  -1.57210138E-08
  -1.62499994E-02  -1.65905600E-08
  -1.62000004E-02  -1.74868884E-08
  -1.61499996E-02  -1.84128996E-08
  -1.61000006E-02  -1.93695229E-08
  -1.60499997E-02  -2.03553263E-08
  -1.60000008E-02  -2.13672440E-08
  -1.59499999E-02  -2.24020269E-08
  -1.59000009E-02  -2.34578170E-08
  -1.58500001E-02  -2.45350655E-08
  -1.57999992E-02  -2.56364192E-08
  -1.57500003E-02  -2.67655977E-08
  -1.56999994E-02  -2.79258057E-08
  -1.56500004E-02  -2.91183646E-08
  -1.55999996E-02  -3.03422496E-08
  -1.55499997E-02  -3.15947020E-08
  -1.54999997E-02  -3.28726451E-08
  -1.54499998E-02  -3.41742812E-08
  -1.53999999E-02  -3.55000864E-08
  -1.53500000E-02  -3.68527928E-08
  -1.53000001E-02  -3.82363226E-08
  -1.52500002E-02  -3.96541999E-08
  -1.52000003E-02  -4.11081444E-08
  -1.51500003E-02  -4.25975166E-08
  -1.51000004E-02  -4.41198722E-08
  -1.50499996E-02  -4.56723761E-08
  -1.49999997E-02  -4.72534296E-08
  -1.49499997E-02  -4.88637255E-08
  -1.48999998E-02  -5.05063333E-08
  -1.48499999E-02  -5.21856585E-08
  -1.48000000E-02  -5.39058220E-08
  -1.47500001E-02  -5.56692150E-08
  -1.47000002E-02  -5.74758445E-08
  -1.46500003E-02  -5.93238347E-08
  -1.46000003E-02  -6.12108337E-08
  -1.45500004E-02  -6.31356514E-08
  -1.44999996E-02  -6.50994494E-08
  -1.44499997E-02  -6.71057734E-08
  -1.43999998E-02  -6.91596256E-08
  -1.43499998E-02  -7.12657879E-08
  -1.42999999E-02  -7.34272945E-08
  -1.42500000E-02  -7.56447136E-08
  -1.42000001E-02  -7.79166598E-08
  -1.41500002E-02  -8.02411932E-08
  -1.41000003E-02  -8.26175395E-08
  -1.40500003E-02  -8.50473256E-08
  -1.40000004E-02  -8.75347084E-08
  -1.39499996E-02  -9.00854289E-08
  -1.38999997E-02  -9.27050721E-08
  -1.38499998E-02  -9.53974890E-08
  -1.37999998E-02  -9.81640014E-08
  -1.37499999E-02  -1.01003842E-07
  -1.37000000E-02  -1.03915596E-07
  -1.36500001E-02  -1.06899002E-07
  -1.36000002E-02  -1.09956268E-07
  -1.35500003E-02  -1.13092284E-07
  -1.35000004E-02  -1.16313608E-07
  -1.34500004E-02  -1.19626662E-07
  -1.33999996E-02  -1.23036045E-07
  -1.33499997E-02  -1.26543668E-07
  -1.32999998E-02  -1.30149175E-07
  -1.32499998E-02  -1.33851486E-07
  -1.31999999E-02  -1.37650673E-07
  -1.31500000E-02  -1.41549393E-07
  -1.31000001E-02  -1.45553216E-07
  -1.30500002E-02  -1.49669575E-07
  -1.30000003E-02  -1.53905845E-07
  -1.29500004E-02  -1.58267497E-07
  -1.29000004E-02  -1.62757203E-07
  -1.28499996E-02  -1.67375106E-07
  -1.27999997E-02  -1.72120508E-07
  -1.27499998E-02  -1.76993851E-07
  -1.26999998E-02  -1.81998303E-07
  -1.26499999E-02  -1.87140202E-07
  -1.26000000E-02  -1.92427862E-07
  -1.25500001E-02  -1.97869724E-07
  -1.25000002E-02  -2.03472112E-07
  -1.24500003E-02  -2.09238323E-07
  -1.24000004E-02  -2.15168882E-07
  -1.23500004E-02  -2.21263221E-07
  -1.22999996E-02  -2.27521909E-07
  -1.22499997E-02  -2.33948469E-07
  -1.21999998E-02  -2.40549724E-07
  -1.21499998E-02  -2.47334867E-07
  -1.20999999E-02  -2.54313306E-07
  -1.20500000E-02  -2.61492517E-07
  -1.20000001E-02  -2.68876505E-07
  -1.19500002E-02  -2.76466324E-07
  -1.19000003E-02  -2.84261773E-07
  -1.18500004E-02  -2.92263763E-07
  -1.18000004E-02  -3.00476330E-07
  -1.17499996E-02  -3.08907204E-07
  -1.16999997E-02  -3.17566901E-07
  -1.16499998E-02  -3.26466306E-07
  -1.15999999E-02  -3.35614118E-07
  -1.15499999E-02  -3.45015593E-07
  -1.15000000E-02  -3.54672437E-07
  -1.14500001E-02  -3.64584736E-07
  -1.14000002E-02  -3.74753569E-07
  -1.13500003E-02  -3.85183284E-07
  -1.13000004E-02  -3.95882381E-07
  -1.12500004E-02  -4.06862398E-07
  -1.11999996E-02  -4.18135670E-07
  -1.11499997E-02  -4.29712543E-07
  -1.10999998E-02  -4.41599639E-07
  -1.10499999E-02  -4.53799686E-07
  -1.09999999E-02  -4.66313651E-07
  -1.09500000E-02  -4.79143409E-07
  -1.09000001E-02  -4.92294248E-07
  -1.08500002E-02  -5.05775915E-07
  -1.08000003E-02  -5.19601997E-07
  -1.07500004E-02  -5.33786817E-07
  -1.07000005E-02  -5.48342882E-07
  -1.06499996E-02  -5.63278718E-07
  -1.05999997E-02  -5.78598303E-07
  -1.05499998E-02  -5.94303344E-07
  -1.04999999E-02  -6.10396171E-07
  -1.04499999E-02  -6.26882525E-07
  -1.04000000E-02  -6.43772978E-07
  -1.03500001E-02  -6.61082481E-07
  -1.03000002E-02  -6.78827462E-07
  -1.02500003E-02  -6.97022472E-07
  -1.02000004E-02  -7.15678141E-07
  -1.01500005E-02  -7.34800551E-07
  -1.00999996E-02  -7.54392829E-07
  -1.00499997E-02  -7.74458272E-07
  -9.99999978E-03  -7.95004041E-07
  -9.94999986E-03  -8.16042302E-07
  -9.89999995E-03  -8.37590278E-07
  -9.85000003E-03  -8.59667239E-07
  -9.80000012E-03  -8.82290976E-07
  -9.75000020E-03  -9.05474849E-07
  -9.70000029E-03  -9.29227326E-07
  -9.65000037E-03  -9.53553126E-07
  -9.60000046E-03  -9.78456910E-07
  -9.54999961E-03  -1.00394664E-06
  -9.49999969E-03  -1.03003629E-06
  -9.44999978E-03  -1.05674451E-06
  -9.39999986E-03  -1.08409301E-06
  -9.34999995E-03  -1.11210204E-06
  -9.30000003E-03  -1.14078773E-06
  -9.25000012E-03  -1.17016043E-06
  -9.20000020E-03  -1.20022662E-06
  -9.15000029E-03  -1.23099255E-06
  -9.10000037E-03  -1.26246732E-06
  -9.05000046E-03  -1.29466673E-06
  -8.99999961E-03  -1.32761170E-06
  -8.94999970E-03  -1.36132701E-06
  -8.89999978E-03  -1.39583688E-06
  -8.84999987E-03  -1.43116097E-06
  -8.79999995E-03  -1.46731327E-06
  -8.75000004E-03  -1.50430333E-06
  -8.70000012E-03  -1.54213944E-06
  -8.65000021E-03  -1.58083310E-06
  -8.60000029E-03  -1.62040124E-06
  -8.55000038E-03  -1.66086761E-06
  -8.50000046E-03  -1.70225985E-06
  -8.44999962E-03  -1.74460513E-06
  -8.39999970E-03  -1.78792686E-06
  -8.34999979E-03  -1.83224154E-06
  -8.29999987E-03  -1.87756098E-06
  -8.24999996E-03  -1.92389530E-06
  -8.20000004E-03  -1.97125678E-06
  -8.15000013E-03  -2.01966486E-06
  -8.10000021E-03  -2.06914501E-06
  -8.05000030E-03  -2.11972747E-06
  -8.00000038E-03  -2.17144338E-06
  -7.95000046E-03  -2.22432004E-06
  -7.89999962E-03  -2.27837745E-06
  -7.84999970E-03  -2.33363130E-06
  -7.79999979E-03  -2.39009387E-06
  -7.74999987E-03  -2.44778084E-06
  -7.69999996E-03  -2.50671337E-06
  -7.65000004E-03  -2.56692033E-06
  -7.60000013E-03  -2.62843605E-06
  -7.55000021E-03  -2.69129532E-06
  -7.49999983E-03  -2.75552952E-06
  -7.44999992E-03  -2.82116343E-06
  -7.40000000E-03  -2.88821525E-06
  -7.35000009E-03  -2.95670065E-06
  -7.30000017E-03  -3.02663716E-06
  -7.24999979E-03  -3.09804864E-06
  -7.19999988E-03  -3.17096647E-06
  -7.14999996E-03  -3.24542816E-06
  -7.10000005E-03  -3.32147306E-06
  -7.05000013E-03  -3.39913595E-06
  -7.00000022E-03  -3.47844593E-06
  -6.94999984E-03  -3.55942484E-06
  -6.89999992E-03  -3.64209131E-06
  -6.85000001E-03  -3.72646514E-06
  -6.80000009E-03  -3.81257337E-06
  -6.75000018E-03  -3.90045079E-06
  -6.69999979E-03  -3.99013788E-06
  -6.64999988E-03  -4.08167898E-06
  -6.59999996E-03  -4.17511410E-06
  -6.55000005E-03  -4.27047735E-06
  -6.50000013E-03  -4.36779419E-06
  -6.45000022E-03  -4.46708827E-06
  -6.39999984E-03  -4.56838234E-06
  -6.34999992E-03  -4.67170730E-06
  -6.30000001E-03  -4.77710091E-06
  -6.25000009E-03  -4.88460910E-06
  -6.20000018E-03  -4.99428052E-06
  -6.14999980E-03  -5.10615928E-06
  -6.09999988E-03  -5.22028495E-06
  -6.04999997E-03  -5.33668845E-06
  -6.00000005E-03  -5.45539569E-06
  -5.95000014E-03  -5.57643352E-06
  -5.90000022E-03  -5.69983422E-06
  -5.84999984E-03  -5.82564007E-06
  -5.79999993E-03  -5.95389974E-06
  -5.75000001E-03  -6.08466598E-06
  -5.70000010E-03  -6.21798836E-06
  -5.65000018E-03  -6.35391189E-06
  -5.59999980E-03  -6.49247158E-06
  -5.54999989E-03  -6.63369610E-06
  -5.49999997E-03  -6.77761682E-06
  -5.45000006E-03  -6.92426875E-06
  -5.40000014E-03  -7.07369782E-06
  -5.35000023E-03  -7.22595678E-06
  -5.29999984E-03  -7.38110430E-06
  -5.24999993E-03  -7.53919539E-06
  -5.20000001E-03  -7.70027964E-06
  -5.15000010E-03  -7.86439614E-06
  -5.10000018E-03  -8.03158127E-06
  -5.04999980E-03  -8.20186597E-06
  -4.99999989E-03  -8.37529115E-06
  -4.94999997E-03  -8.55190319E-06
  -4.90000006E-03  -8.73176032E-06
  -4.85000014E-03  -8.91492436E-06
  -4.80000023E-03  -9.10145536E-06
  -4.74999985E-03  -9.29140697E-06
  -4.69999993E-03  -9.48482102E-06
  -4.65000002E-03  -9.68173663E-06
  -4.60000010E-03  -9.88218744E-06
  -4.55000019E-03  -1.00862162E-05
  -4.49999981E-03  -1.02938729E-05
  -4.44999989E-03  -1.05052177E-05
  -4.39999998E-03  -1.07203159E-05
  -4.35000006E-03  -1.09392322E-05
  -4.30000015E-03  -1.11620257E-05
  -4.25000023E-03  -1.13887445E-05
  -4.19999985E-03  -1.16194287E-05
  -4.14999994E-03  -1.18541166E-05
  -4.10000002E-03  -1.20928526E-05
  -4.05000011E-03  -1.23356895E-05
  -4.00000019E-03  -1.25826882E-05
  -3.94999981E-03  -1.28339207E-05
  -3.89999989E-03  -1.30894541E-05
  -3.84999998E-03  -1.33493531E-05
  -3.80000006E-03  -1.36136650E-05
  -3.74999992E-03  -1.38824334E-05
  -3.70000000E-03  -1.41556984E-05
  -3.65000009E-03  -1.44335027E-05
  -3.59999994E-03  -1.47158980E-05
  -3.55000002E-03  -1.50029491E-05
  -3.50000011E-03  -1.52947287E-05
  -3.44999996E-03  -1.55913058E-05
  -3.40000005E-03  -1.58927469E-05
  -3.34999990E-03  -1.61991084E-05
  -3.29999998E-03  -1.65104320E-05
  -3.25000007E-03  -1.68267579E-05
  -3.19999992E-03  -1.71481261E-05
  -3.15000000E-03  -1.74745910E-05
  -3.10000009E-03  -1.78062164E-05
  -3.04999994E-03  -1.81430787E-05
  -3.00000003E-03  -1.84852506E-05
  -2.95000011E-03  -1.88328031E-05
  -2.89999996E-03  -1.91857926E-05
  -2.85000005E-03  -1.95442608E-05
  -2.79999990E-03  -1.99082424E-05
  -2.74999999E-03  -2.02777810E-05
  -2.70000007E-03  -2.06529239E-05
  -2.64999992E-03  -2.10337384E-05
  -2.60000001E-03  -2.14202992E-05
  -2.55000009E-03  -2.18126788E-05
  -2.49999994E-03  -2.22109484E-05
  -2.45000003E-03  -2.26151678E-05
  -2.40000011E-03  -2.30253791E-05
  -2.34999997E-03  -2.34416148E-05
  -2.30000005E-03  -2.38639113E-05
  -2.24999990E-03  -2.42923143E-05
  -2.19999999E-03  -2.47268836E-05
  -2.15000007E-03  -2.51676920E-05
  -2.09999993E-03  -2.56148178E-05
  -2.05000001E-03  -2.60683373E-05
  -2.00000009E-03  -2.65283034E-05
  -1.94999995E-03  -2.69947595E-05
  -1.90000003E-03  -2.74677332E-05
  -1.85000000E-03  -2.79472551E-05
  -1.79999997E-03  -2.84333619E-05
  -1.75000005E-03  -2.89261079E-05
  -1.70000002E-03  -2.94255715E-05
  -1.64999999E-03  -2.99318253E-05
  -1.59999996E-03  -3.04449422E-05
  -1.55000004E-03  -3.09649768E-05
  -1.50000001E-03  -3.14919635E-05
  -1.44999998E-03  -3.20259278E-05
  -1.39999995E-03  -3.25668880E-05
  -1.35000004E-03  -3.31148804E-05
  -1.30000000E-03  -3.36699486E-05
  -1.24999997E-03  -3.42321619E-05
  -1.20000006E-03  -3.48015892E-05
  -1.15000003E-03  -3.53783034E-05
  -1.09999999E-03  -3.59623482E-05
  -1.04999996E-03  -3.65537599E-05
  -1.00000005E-03  -3.71525530E-05
  -9.50000016E-04  -3.77587276E-05
  -8.99999985E-04  -3.83723163E-05
  -8.50000011E-04  -3.89933557E-05
  -7.99999980E-04  -3.96219002E-05
  -7.50000007E-04  -4.02580190E-05
  -6.99999975E-04  -4.09017703E-05
  -6.50000002E-04  -4.15532049E-05
  -6.00000028E-04  -4.22123412E-05
  -5.49999997E-04  -4.28791864E-05
  -5.00000024E-04  -4.35537331E-05
  -4.49999992E-04  -4.42359924E-05
  -3.99999990E-04  -4.49259860E-05
  -3.49999988E-04  -4.56237576E-05
  -3.00000014E-04  -4.63293691E-05
  -2.50000012E-04  -4.70428677E-05
  -1.99999995E-04  -4.77642971E-05
  -1.50000007E-04  -4.84936718E-05
  -9.99999975E-05  -4.92309846E-05
  -4.99999987E-05  -4.99762100E-05
   0.00000000      -5.07293298E-05
   4.99999987E-05  -5.14903513E-05
   9.99999975E-05  -5.22593000E-05
   1.50000007E-04  -5.30362158E-05
   1.99999995E-04  -5.38211498E-05
   2.50000012E-04  -5.46141237E-05
   3.00000014E-04  -5.54151411E-05
   3.49999988E-04  -5.62241730E-05
   3.99999990E-04  -5.70411867E-05
   4.49999992E-04  -5.78661420E-05
   5.00000024E-04  -5.86990318E-05
   5.49999997E-04  -5.95398524E-05
   6.00000028E-04  -6.03886292E-05
   6.50000002E-04  -6.12453878E-05
   6.99999975E-04  -6.21101353E-05
   7.50000007E-04  -6.29828719E-05
   7.99999980E-04  -6.38635465E-05
   8.50000011E-04  -6.47521010E-05
   8.99999985E-04  -6.56484772E-05
   9.50000016E-04  -6.65526313E-05
   1.00000005E-03  -6.74645198E-05
   1.04999996E-03  -6.83841572E-05
   1.09999999E-03  -6.93115362E-05
   1.15000003E-03  -7.02466641E-05
   1.20000006E-03  -7.11894972E-05
   1.24999997E-03  -7.21399847E-05
   1.30000000E-03  -7.30980391E-05
   1.35000004E-03  -7.40635733E-05
   1.39999995E-03  -7.50364852E-05
   1.44999998E-03  -7.60167459E-05
   1.50000001E-03  -7.70043189E-05
   1.55000004E-03  -7.79991678E-05
   1.59999996E-03  -7.90012782E-05
   1.64999999E-03  -8.00105990E-05
   1.70000002E-03  -8.10270431E-05
   1.75000005E-03  -8.20504865E-05
   1.79999997E-03  -8.30808058E-05
   1.85000000E-03  -8.41178771E-05
   1.90000003E-03  -8.51616278E-05
   1.94999995E-03  -8.62119705E-05
   2.00000009E-03  -8.72688688E-05
   2.05000001E-03  -8.83322718E-05
   2.09999993E-03  -8.94020850E-05
   2.15000007E-03  -9.04782064E-05
   2.19999999E-03  -9.15604833E-05
   2.24999990E-03  -9.26487555E-05
   2.30000005E-03  -9.37428485E-05
   2.34999997E-03  -9.48426314E-05
   2.40000011E-03  -9.59480021E-05
   2.45000003E-03  -9.70588735E-05
   2.49999994E-03  -9.81751582E-05
   2.55000009E-03  -9.92967616E-05
   2.60000001E-03  -1.00423524E-04
   2.64999992E-03  -1.01555248E-04
   2.70000007E-03  -1.02691738E-04
   2.74999999E-03  -1.03832790E-04
   2.79999990E-03  -1.04978230E-04