  -3.99999991E-02   0.00000000    
  -3.99499983E-02   0.00000000    
  -3.99000011E-02   0.00000000    
  -3.98500003E-02  -1.64706870E-18
  -3.97999994E-02  -9.18076099E-18
  -3.97499986E-02  -2.62480257E-17
  -3.97000015E-02  -4.73006557E-17
  -3.96500006E-02  -4.78369566E-17
  -3.95999998E-02   1.72538659E-17
  -3.95499989E-02   1.99539535E-16
  -3.95000018E-02   5.29267478E-16
  -3.94500010E-02   9.88272197E-16
  -3.94000001E-02   1.50239155E-15
  -3.93499993E-02   1.96412477E-15
  -3.92999984E-02   2.27978812E-15
  -3.92500013E-02   2.42031681E-15
  -3.92000005E-02   2.44925739E-15
  -3.91499996E-02   2.50841798E-15
  -3.90999988E-02   2.75937457E-15
  -3.90500017E-02   3.30186995E-15
  -3.90000008E-02   4.10765282E-15
  -3.89500000E-02   5.00820554E-15
  -3.88999991E-02   5.75160994E-15
  -3.88499983E-02   6.10675053E-15
  -3.88000011E-02   5.96369640E-15
  -3.87500003E-02   5.37684318E-15
  -3.86999995E-02   4.52486949E-15
  -3.86499986E-02   3.60332644E-15
  -3.86000015E-02   2.69958802E-15
  -3.85500006E-02   1.71067685E-15
  -3.84999998E-02   3.47911769E-16
  -3.84499989E-02  -1.76589662E-15
  -3.84000018E-02  -4.94707221E-15
  -3.83500010E-02  -9.32200077E-15
  -3.83000001E-02  -1.47875198E-14
  -3.82499993E-02  -2.10856824E-14
  -3.81999984E-02  -2.79541998E-14
  -3.81500013E-02  -3.52697065E-14
  -3.81000005E-02  -4.31053407E-14
  -3.80499996E-02  -5.16741225E-14
  -3.79999988E-02  -6.11932719E-14
  -3.79500017E-02  -7.17454863E-14
  -3.79000008E-02  -8.32127065E-14
  -3.78500000E-02  -9.53198431E-14
  -3.77999991E-02  -1.07767995E-13
  -3.77499983E-02  -1.20383724E-13
  -3.77000012E-02  -1.33190727E-13
  -3.76500003E-02  -1.46343603E-13
  -3.75999995E-02  -1.59943930E-13
  -3.75499986E-02  -1.73843091E-13
  -3.75000015E-02  -1.87564672E-13
  -3.74500006E-02  -2.00420924E-13
  -3.73999998E-02  -2.11780233E-13
  -3.73499990E-02  -2.21337746E-13
  -3.73000018E-02  -2.29219936E-13
  -3.72500010E-02  -2.35829612E-13
  -3.72000001E-02  -2.41477330E-13
  -3.71499993E-02  -2.45974465E-13
  -3.70999984E-02  -2.48421726E-13
  -3.70500013E-02  -2.47369291E-13
  -3.70000005E-02  -2.41356007E-13
  -3.69499996E-02  -2.29616781E-13
  -3.68999988E-02  -2.12591771E-13
  -3.68500017E-02  -1.91893146E-13
  -3.68000008E-02  -1.69619716E-13
  -3.67500000E-02  -1.47260635E-13
  -3.66999991E-02  -1.24710043E-13
  -3.66499983E-02  -9.99507484E-14
  -3.66000012E-02  -6.97042860E-14
  -3.65500003E-02  -3.08899939E-14
  -3.64999995E-02   1.77055839E-14
  -3.64499986E-02   7.43569431E-14
  -3.64000015E-02   1.34576324E-13
  -3.63500006E-02   1.92679450E-13
  -3.62999998E-02   2.44202716E-13
  -3.62499990E-02   2.88103525E-13
  -3.62000018E-02   3.27599926E-13
  -3.61500010E-02   3.69013386E-13
  -3.61000001E-02   4.18898477E-13
  -3.60499993E-02   4.80650025E-13
  -3.59999985E-02   5.52198207E-13
  -3.59500013E-02   6.26065877E-13
  -3.59000005E-02   6.92058986E-13
  -3.58499996E-02   7.41609627E-13
  -3.57999988E-02   7.71866837E-13
  -3.57500017E-02   7.87510844E-13
  -3.57000008E-02   7.99115602E-13
  -3.56500000E-02   8.18423400E-13
  -3.55999991E-02   8.52469679E-13
  -3.55499983E-02   8.99315344E-13
  -3.55000012E-02   9.47698192E-13
  -3.54500003E-02   9.81253598E-13
  -3.53999995E-02   9.85780359E-13
  -3.53499986E-02   9.56363027E-13
  -3.53000015E-02   9.00882179E-13
  -3.52500007E-02   8.37812133E-13
  -3.51999998E-02   7.88732035E-13
  -3.51499990E-02   7.68554111E-13
  -3.51000018E-02   7.77901181E-13
  -3.50500010E-02   8.01523073E-13
  -3.50000001E-02   8.14169207E-13
  -3.49499993E-02   7.91894762E-13
  -3.48999985E-02   7.23938270E-13
  -3.48500013E-02   6.19519789E-13
  -3.48000005E-02   5.05781777E-13
  -3.47499996E-02   4.16975943E-13
  -3.46999988E-02   3.79198761E-13
  -3.46500017E-02   3.97503482E-13
  -3.46000008E-02   4.51722996E-13
  -3.45500000E-02   5.03798175E-13
  -3.44999991E-02   5.14227007E-13
  -3.44499983E-02   4.60716426E-13
  -3.44000012E-02   3.50435365E-13
  -3.43500003E-02   2.19496540E-13
  -3.42999995E-02   1.18758573E-13
  -3.42499986E-02   9.14315146E-14
  -3.42000015E-02   1.52322463E-13
  -3.41500007E-02   2.78612257E-13
  -3.40999998E-02   4.17421468E-13
  -3.40499990E-02   5.07944760E-13
  -3.40000018E-02   5.08912682E-13
  -3.39500010E-02   4.18927832E-13
  -3.39000002E-02   2.79600046E-13
  -3.38499993E-02   1.58685117E-13
  -3.37999985E-02   1.19591064E-13
  -3.37500013E-02   1.90506234E-13
  -3.37000005E-02   3.47611073E-13
  -3.36499996E-02   5.21339211E-13
  -3.35999988E-02   6.24514275E-13
  -3.35500017E-02   5.90832775E-13
  -3.35000008E-02   4.06464088E-13
  -3.34500000E-02   1.19521756E-13
  -3.33999991E-02  -1.78587220E-13
  -3.33499983E-02  -3.93220721E-13
  -3.33000012E-02  -4.70809969E-13
  -3.32500003E-02  -4.27091413E-13
  -3.31999995E-02  -3.45007443E-13
  -3.31499986E-02  -3.41149824E-13
  -3.31000015E-02  -5.14173665E-13
  -3.30500007E-02  -8.97915910E-13
  -3.29999998E-02  -1.44129966E-12
  -3.29499990E-02  -2.02613035E-12
  -3.29000019E-02  -2.51701437E-12
  -3.28500010E-02  -2.82234219E-12
  -3.28000002E-02  -2.93880718E-12
  -3.27499993E-02  -2.95781780E-12
  -3.26999985E-02  -3.02844100E-12
  -3.26500013E-02  -3.29127784E-12
  -3.26000005E-02  -3.81196723E-12
  -3.25499997E-02  -4.54493951E-12
  -3.24999988E-02  -5.34592899E-12
  -3.24500017E-02  -6.03040144E-12
  -3.24000008E-02  -6.45371473E-12
  -3.23500000E-02  -6.57742090E-12
  -3.22999991E-02  -6.49046485E-12
  -3.22499983E-02  -6.37301713E-12
  -3.22000012E-02  -6.41641688E-12
  -3.21500003E-02  -6.73362754E-12
  -3.20999995E-02  -7.30084396E-12
  -3.20499986E-02  -7.95878381E-12
  -3.20000015E-02  -8.47629172E-12
  -3.19500007E-02  -8.65042499E-12
  -3.18999998E-02  -8.39906270E-12
  -3.18499990E-02  -7.80320340E-12
  -3.18000019E-02  -7.07692759E-12
  -3.17500010E-02  -6.47504272E-12
  -3.17000002E-02  -6.17748431E-12
  -3.16499993E-02  -6.20221149E-12
  -3.15999985E-02  -6.38791277E-12
  -3.15500014E-02  -6.45793878E-12
  -3.15000005E-02  -6.14029574E-12
  -3.14499997E-02  -5.29163866E-12
  -3.13999988E-02  -3.96883524E-12
  -3.13500017E-02  -2.41291622E-12
  -3.13000008E-02  -9.48532052E-13
  -3.12500000E-02   1.59229062E-13
  -3.11999992E-02   8.27383734E-13
  -3.11500002E-02   1.20010642E-12
  -3.10999993E-02   1.59212682E-12
  -3.10500003E-02   2.35149248E-12
  -3.09999995E-02   3.70044360E-12
  -3.09500005E-02   5.62580364E-12
  -3.08999997E-02   7.87101807E-12
  -3.08500007E-02   1.00380971E-11
  -3.07999998E-02   1.17581092E-11
  -3.07500008E-02   1.28559125E-11
  -3.07000000E-02   1.34342199E-11
  -3.06499992E-02   1.38354484E-11
  -3.06000002E-02   1.44934967E-11
  -3.05499993E-02   1.57379838E-11
  -3.05000003E-02   1.76376327E-11
  -3.04499995E-02   1.99553030E-11
  -3.04000005E-02   2.22396112E-11
  -3.03499997E-02   2.40172014E-11
  -3.03000007E-02   2.50027117E-11
  -3.02499998E-02   2.52321306E-11
  -3.02000009E-02   2.50561481E-11
  -3.01500000E-02   2.49909798E-11
  -3.00999992E-02   2.54885488E-11
  -3.00500002E-02   2.67267892E-11
  -2.99999993E-02   2.85156204E-11
  -2.99500003E-02   3.03655746E-11
  -2.98999995E-02   3.16942896E-11
  -2.98500005E-02   3.20830168E-11
  -2.97999997E-02   3.14693029E-11
  -2.97500007E-02   3.01865893E-11
  -2.96999998E-02   2.88272097E-11
  -2.96500009E-02   2.79840370E-11
  -2.96000000E-02   2.79827880E-11
  -2.95499992E-02   2.87253710E-11
  -2.95000002E-02   2.97188385E-11
  -2.94499993E-02   3.02836124E-11
  -2.94000003E-02   2.98535363E-11
  -2.93499995E-02   2.82359032E-11
  -2.93000005E-02   2.57129804E-11
  -2.92499997E-02   2.29336636E-11
  -2.92000007E-02   2.06366434E-11
  -2.91499998E-02   1.93235601E-11
  -2.91000009E-02   1.90273127E-11
  -2.90500000E-02   1.92829173E-11
  -2.89999992E-02   1.93209893E-11
  -2.89500002E-02   1.84045956E-11
  -2.88999993E-02   1.61631524E-11
  -2.88500004E-02   1.27734819E-11
  -2.87999995E-02   8.90180724E-12
  -2.87500005E-02   5.42496733E-12
  -2.86999997E-02   3.04866679E-12
  -2.86500007E-02   1.99055898E-12
  -2.85999998E-02   1.87215889E-12
  -2.85500009E-02   1.87459922E-12
  -2.85000000E-02   1.09666941E-12
  -2.84499992E-02  -1.03896221E-12
  -2.84000002E-02  -4.51187395E-12
  -2.83499993E-02  -8.68920040E-12
  -2.83000004E-02  -1.25847943E-11
  -2.82499995E-02  -1.52846191E-11
  -2.82000005E-02  -1.63530526E-11
  -2.81499997E-02  -1.60377302E-11
  -2.81000007E-02  -1.51753211E-11
  -2.80499998E-02  -1.48315075E-11
  -2.80000009E-02  -1.58283924E-11
  -2.79500000E-02  -1.83673632E-11
  -2.78999992E-02  -2.19187619E-11
  -2.78500002E-02  -2.54354697E-11
  -2.77999993E-02  -2.78042901E-11
  -2.77500004E-02  -2.83401930E-11
  -2.76999995E-02  -2.71036735E-11
  -2.76500005E-02  -2.48944840E-11
  -2.75999997E-02  -2.29153398E-11
  -2.75500007E-02  -2.22466715E-11
  -2.74999999E-02  -2.33619773E-11
  -2.74500009E-02  -2.59013800E-11
  -2.74000000E-02  -2.88118435E-11
  -2.73499992E-02  -3.08015835E-11
  -2.73000002E-02  -3.09145903E-11
  -2.72499993E-02  -2.89722742E-11
  -2.72000004E-02  -2.56814049E-11
  -2.71499995E-02  -2.23514627E-11
  -2.71000005E-02  -2.03365397E-11
  -2.70499997E-02  -2.04435652E-11
  -2.70000007E-02  -2.25693231E-11
  -2.69499999E-02  -2.57341023E-11
  -2.69000009E-02  -2.85068948E-11
  -2.68500000E-02  -2.96426182E-11
  -2.67999992E-02  -2.86526202E-11
  -2.67500002E-02  -2.60527086E-11
  -2.66999993E-02  -2.31701828E-11
  -2.66500004E-02  -2.15846490E-11
  -2.65999995E-02  -2.24426328E-11
  -2.65500005E-02  -2.59478810E-11
  -2.64999997E-02  -3.12584091E-11
  -2.64500007E-02  -3.68458389E-11
  -2.63999999E-02  -4.11677289E-11
  -2.63500009E-02  -4.33612139E-11
  -2.63000000E-02  -4.36496429E-11
  -2.62499992E-02  -4.32743529E-11
  -2.62000002E-02  -4.39711496E-11
  -2.61499994E-02  -4.72137503E-11
  -2.61000004E-02  -5.35550146E-11
  -2.60499995E-02  -6.23612550E-11
  -2.60000005E-02  -7.20656868E-11
  -2.59499997E-02  -8.08403622E-11
  -2.59000007E-02  -8.73954381E-11
  -2.58499999E-02  -9.15543405E-11
  -2.58000009E-02  -9.43435816E-11
  -2.57500000E-02  -9.75463946E-11
  -2.56999992E-02  -1.02907446E-10
  -2.56500002E-02  -1.11335101E-10
  -2.55999994E-02  -1.22454241E-10
  -2.55500004E-02  -1.34717459E-10
  -2.54999995E-02  -1.46035198E-10
  -2.54500005E-02  -1.54656565E-10
  -2.53999997E-02  -1.59914748E-10
  -2.53500007E-02  -1.62503636E-10
  -2.52999999E-02  -1.64153496E-10
  -2.52500009E-02  -1.66837599E-10
  -2.52000000E-02  -1.71852976E-10
  -2.51499992E-02  -1.79180393E-10
  -2.51000002E-02  -1.87411808E-10
  -2.50499994E-02  -1.94289904E-10
  -2.50000004E-02  -1.97629801E-10
  -2.49499995E-02  -1.96223010E-10
  -2.49000005E-02  -1.90321717E-10
  -2.48499997E-02  -1.81482537E-10
  -2.48000007E-02  -1.71826539E-10
  -2.47499999E-02  -1.63034600E-10
  -2.47000009E-02  -1.55516378E-10
  -2.46500000E-02  -1.48127025E-10
  -2.45999992E-02  -1.38562689E-10
  -2.45500002E-02  -1.24274271E-10
  -2.44999994E-02  -1.03503595E-10
  -2.44500004E-02  -7.59838165E-11
  -2.43999995E-02  -4.29926927E-11
  -2.43500005E-02  -6.72193638E-12
  -2.42999997E-02   3.07662125E-11
  -2.42500007E-02   6.85423246E-11
  -2.41999999E-02   1.07327293E-10
  -2.41500009E-02   1.49288762E-10
  -2.41000000E-02   1.97194025E-10
  -2.40499992E-02   2.53289223E-10
  -2.40000002E-02   3.18390148E-10
  -2.39499994E-02   3.91590982E-10
  -2.39000004E-02   4.70730843E-10
  -2.38499995E-02   5.53419977E-10
  -2.38000005E-02   6.38178288E-10
  -2.37499997E-02   7.25189908E-10
  -2.37000007E-02   8.16331724E-10
  -2.36499999E-02   9.14453513E-10
  -2.36000009E-02   1.02221920E-09
  -2.35500000E-02   1.14101306E-09
  -2.34999992E-02   1.27039068E-09
  -2.34500002E-02   1.40832823E-09
  -2.33999994E-02   1.55216950E-09
  -2.33500004E-02   1.69985315E-09
  -2.32999995E-02   1.85089777E-09
  -2.32500006E-02   2.00669570E-09
  -2.31999997E-02   2.16998552E-09
  -2.31500007E-02   2.34372388E-09
  -2.30999999E-02   2.52984256E-09
  -2.30500009E-02   2.72844547E-09
  -2.30000000E-02   2.93779312E-09
  -2.29499992E-02   3.15509263E-09
  -2.29000002E-02   3.37776163E-09
  -2.28499994E-02   3.60460506E-09
  -2.28000004E-02   3.83639653E-09
  -2.27499995E-02   4.07559941E-09
  -2.27000006E-02   4.32534142E-09
  -2.26499997E-02   4.58808769E-09
  -2.26000007E-02   4.86458829E-09
  -2.25499999E-02   5.15356824E-09
  -2.25000009E-02   5.45229772E-09
  -2.24500000E-02   5.75780446E-09
  -2.23999992E-02   6.06820150E-09
  -2.23500002E-02   6.38354747E-09
  -2.22999994E-02   6.70586520E-09
  -2.22500004E-02   7.03829883E-09
  -2.21999995E-02   7.38377359E-09
  -2.21500006E-02   7.74374076E-09
  -2.20999997E-02   8.11756529E-09
  -2.20500007E-02   8.50281001E-09
  -2.19999999E-02   8.89632013E-09
  -2.19500009E-02   9.29563182E-09
  -2.19000001E-02   9.70009317E-09
  -2.18499992E-02   1.01111963E-08
  -2.18000002E-02   1.05319948E-08
  -2.17499994E-02   1.09658265E-08
  -2.17000004E-02   1.14149206E-08
  -2.16499995E-02   1.18794681E-08
  -2.16000006E-02   1.23575949E-08
  -2.15499997E-02   1.28462281E-08
  -2.15000007E-02   1.33425022E-08
  -2.14499999E-02   1.38450895E-08
  -2.14000009E-02   1.43548702E-08
  -2.13500001E-02   1.48746677E-08
  -2.12999992E-02   1.54081299E-08
  -2.12500002E-02   1.59582516E-08
  -2.11999994E-02   1.65261902E-08
  -2.11500004E-02   1.71108709E-08
  -2.10999995E-02   1.77095707E-08
  -2.10500006E-02   1.83192359E-08
  -2.09999997E-02   1.89379428E-08
  -2.09500007E-02   1.95659187E-08
  -2.08999999E-02   2.02056079E-08
  -2.08500009E-02   2.08608189E-08
  -2.08000001E-02   2.15352749E-08
  -2.07499992E-02   2.22311805E-08
  -2.07000002E-02   2.29484893E-08
  -2.06499994E-02   2.36851250E-08
  -2.06000004E-02   2.44380782E-08
  -2.05499995E-02   2.52049652E-08
  -2.05000006E-02   2.59852992E-08
  -2.04499997E-02   2.67809650E-08
  -2.04000007E-02   2.75956786E-08
  -2.03499999E-02   2.84336732E-08
  -2.03000009E-02   2.92981426E-08
  -2.02500001E-02   3.01901473E-08
  -2.01999992E-02   3.11084491E-08
  -2.01500002E-02   3.20503304E-08
  -2.00999994E-02   3.30130874E-08
  -2.00500004E-02   3.39955122E-08
  -1.99999996E-02   3.49987808E-08
  -1.99500006E-02   3.60262860E-08
  -1.98999997E-02   3.70825539E-08
  -1.98500007E-02   3.81716347E-08
  -1.97999999E-02   3.92957595E-08
  -1.97500009E-02   4.04547045E-08
  -1.97000001E-02   4.16462740E-08
  -1.96499992E-02   4.28676152E-08
  -1.96000002E-02   4.41168666E-08
  -1.95499994E-02   4.53943407E-08
  -1.95000004E-02   4.67028407E-08
  -1.94499996E-02   4.80468820E-08
  -1.94000006E-02   4.94312005E-08
  -1.93499997E-02   5.08591143E-08
  -1.93000007E-02   5.23315720E-08
  -1.92499999E-02   5.38471028E-08
  -1.92000009E-02   5.54029462E-08
  -1.91500001E-02   5.69966652E-08
  -1.90999992E-02   5.86276627E-08
  -1.90500002E-02   6.02979568E-08
  -1.89999994E-02   6.20117930E-08
  -1.89500004E-02   6.37743724E-08
  -1.88999996E-02   6.55900649E-08
  -1.88500006E-02   6.74610803E-08
  -1.87999997E-02   6.93869850E-08
  -1.87500007E-02   7.13653989E-08
  -1.86999999E-02   7.33935437E-08
  -1.86500009E-02   7.54699556E-08
  -1.86000001E-02   7.75956863E-08
  -1.85499992E-02   7.97744377E-08
  -1.85000002E-02   8.20115531E-08
  -1.84499994E-02   8.43123402E-08
  -1.84000004E-02   8.66803305E-08
  -1.83499996E-02   8.91163481E-08
  -1.83000006E-02   9.16187588E-08
  -1.82499997E-02   9.41847134E-08
  -1.82000007E-02   9.68120517E-08
  -1.81499999E-02   9.95008662E-08
  -1.81000009E-02   1.02254099E-07
  -1.80500001E-02   1.05077071E-07
  -1.79999992E-02   1.07975801E-07
  -1.79500002E-02   1.10955206E-07
  -1.78999994E-02   1.14017602E-07
  -1.78500004E-02   1.17162479E-07
  -1.77999996E-02   1.20387384E-07
  -1.77500006E-02   1.23689745E-07
  -1.76999997E-02   1.27068773E-07
  -1.76500008E-02   1.30526630E-07
  -1.75999999E-02   1.34068330E-07
  -1.75500009E-02   1.37700553E-07
  -1.75000001E-02   1.41429496E-07
  -1.74499992E-02   1.45259179E-07
  -1.74000002E-02   1.49190598E-07
  -1.73499994E-02   1.53222132E-07
  -1.73000004E-02   1.57351124E-07
  -1.72499996E-02   1.61576125E-07
  -1.72000006E-02   1.65898427E-07
  -1.71499997E-02   1.70322650E-07
  -1.71000008E-02   1.74855856E-07
  -1.70499999E-02   1.79505591E-07
  -1.70000009E-02   1.84277781E-07
  -1.69500001E-02   1.89175225E-07
  -1.68999992E-02   1.94197625E-07
  -1.68500002E-02   1.99342793E-07
  -1.67999994E-02   2.04608881E-07
  -1.67500004E-02   2.09996429E-07
  -1.66999996E-02   2.15509502E-07
  -1.66500006E-02   2.21155318E-07
  -1.65999997E-02   2.26942532E-07
  -1.65500008E-02   2.32878946E-07
  -1.64999999E-02   2.38969562E-07
  -1.64500009E-02   2.45215773E-07
  -1.64000001E-02   2.51616314E-07
  -1.63499992E-02   2.58169223E-07
  -1.63000003E-02   2.64874416E-07
  -1.62499994E-02   2.71735189E-07
  -1.62000004E-02   2.78758705E-07
  -1.61499996E-02   2.85954513E-07
  -1.61000006E-02   2.93332192E-07
  -1.60499997E-02   3.00899046E-07
  -1.60000008E-02   3.08658542E-07
  -1.59499999E-02   3.16610851E-07
  -1.59000009E-02   3.24754240E-07
  -1.58500001E-02   3.33088082E-07
  -1.57999992E-02   3.41614992E-07
  -1.57500003E-02   3.50341708E-07
  -1.56999994E-02   3.59278289E-07
  -1.56500004E-02   3.68435906E-07
  -1.55999996E-02   3.77824108E-07
  -1.55499997E-02   3.87448637E-07
  -1.54999997E-02   3.97311254E-07
  -1.54499998E-02   4.07411051E-07
  -1.53999999E-02   4.17747003E-07
  -1.53500000E-02   4.28320845E-07
  -1.53000001E-02   4.39138745E-07
  -1.52500002E-02   4.50210791E-07
  -1.52000003E-02   4.61549604E-07
  -1.51500003E-02   4.73166722E-07
  -1.51000004E-02   4.85070416E-07
  -1.50499996E-02   4.97264466E-07
  -1.49999997E-02   5.09748759E-07
  -1.49499997E-02   5.22522328E-07
  -1.48999998E-02   5.35586082E-07
  -1.48499999E-02   5.48945195E-07
  -1.48000000E-02   5.62609728E-07
  -1.47500001E-02   5.76593095E-07
  -1.47000002E-02   5.90908712E-07
  -1.46500003E-02   6.05567266E-07
  -1.46000003E-02   6.20574838E-07
  -1.45500004E-02   6.35932793E-07
  -1.44999996E-02   6.51640391E-07
  -1.44499997E-02   6.67697975E-07
  -1.43999998E-02   6.84109693E-07
  -1.43499998E-02   7.00885209E-07
  -1.42999999E-02   7.18038166E-07
  -1.42500000E-02   7.35583797E-07
  -1.42000001E-02   7.53534835E-07
  -1.41500002E-02   7.71899920E-07
  -1.41000003E-02   7.90682464E-07
  -1.40500003E-02   8.09882351E-07
  -1.40000004E-02   8.29499584E-07
  -1.39499996E-02   8.49537400E-07
  -1.38999997E-02   8.70004612E-07
  -1.38499998E-02   8.90914805E-07
  -1.37999998E-02   9.12284577E-07
  -1.37499999E-02   9.34129218E-07
  -1.37000000E-02   9.56459758E-07
  -1.36500001E-02   9.79281708E-07
  -1.36000002E-02   1.00259626E-06
  -1.35500003E-02   1.02640331E-06
  -1.35000004E-02   1.05070546E-06
  -1.34500004E-02   1.07551023E-06
  -1.33999996E-02   1.10083135E-06
  -1.33499997E-02   1.12668624E-06
  -1.32999998E-02   1.15309240E-06
  -1.32499998E-02   1.18006346E-06
  -1.31999999E-02   1.20760751E-06
  -1.31500000E-02   1.23572738E-06
  -1.31000001E-02   1.26442353E-06
  -1.30500002E-02   1.29369766E-06
  -1.30000003E-02   1.32355683E-06
  -1.29500004E-02   1.35401422E-06
  -1.29000004E-02   1.38508778E-06
  -1.28499996E-02   1.41679698E-06
  -1.27999997E-02   1.44915839E-06
  -1.27499998E-02   1.48218305E-06
  -1.26999998E-02   1.51587585E-06
  -1.26499999E-02   1.55023793E-06
  -1.26000000E-02   1.58527098E-06
  -1.25500001E-02   1.62098092E-06
  -1.25000002E-02   1.65738084E-06
  -1.24500003E-02   1.69448879E-06
  -1.24000004E-02   1.73232593E-06
  -1.23500004E-02   1.77091101E-06
  -1.22999996E-02   1.81025814E-06
  -1.22499997E-02   1.85037482E-06
  -1.21999998E-02   1.89126411E-06
  -1.21499998E-02   1.93292772E-06
  -1.20999999E-02   1.97537156E-06
  -1.20500000E-02   2.01860780E-06
  -1.20000001E-02   2.06265508E-06
  -1.19500002E-02   2.10753569E-06
  -1.19000003E-02   2.15327077E-06
  -1.18500004E-02   2.19987783E-06
  -1.18000004E-02   2.24736664E-06
  -1.17499996E-02   2.29574175E-06
  -1.16999997E-02   2.34500544E-06
  -1.16499998E-02   2.39516316E-06
  -1.15999999E-02   2.44622584E-06
  -1.15499999E-02   2.49821233E-06
  -1.15000000E-02   2.55114605E-06
  -1.14500001E-02   2.60505067E-06
  -1.14000002E-02   2.65994618E-06
  -1.13500003E-02   2.71584577E-06
  -1.13000004E-02   2.77275626E-06
  -1.12500004E-02   2.83068221E-06
  -1.11999996E-02   2.88962747E-06
  -1.11499997E-02   2.94960319E-06
  -1.10999998E-02   3.01062710E-06
  -1.10499999E-02   3.07272308E-06
  -1.09999999E-02   3.13591659E-06
  -1.09500000E-02   3.20022991E-06
  -1.09000001E-02   3.26567920E-06
  -1.08500002E-02   3.33227354E-06
  -1.08000003E-02   3.40001702E-06
  -1.07500004E-02   3.46891466E-06
  -1.07000005E-02   3.53897599E-06
  -1.06499996E-02   3.61021785E-06
  -1.05999997E-02   3.68266456E-06
  -1.05499998E-02   3.75634249E-06
  -1.04999999E-02   3.83127781E-06
  -1.04499999E-02   3.90748937E-06
  -1.04000000E-02   3.98498787E-06
  -1.03500001E-02   4.06377967E-06
  -1.03000002E-02   4.14387023E-06
  -1.02500003E-02   4.22526728E-06
  -1.02000004E-02   4.30798809E-06
  -1.01500005E-02   4.39205451E-06
  -1.00999996E-02   4.47749426E-06
  -1.00499997E-02   4.56433418E-06
  -9.99999978E-03   4.65259518E-06
  -9.94999986E-03   4.74229137E-06
  -9.89999995E-03   4.83343092E-06
  -9.85000003E-03   4.92601748E-06
  -9.80000012E-03   5.02005878E-06
  -9.75000020E-03   5.11556891E-06
  -9.70000029E-03   5.21256925E-06
  -9.65000037E-03   5.31108753E-06
  -9.60000046E-03   5.41115060E-06
  -9.54999961E-03   5.51278299E-06
  -9.49999969E-03   5.61599973E-06
  -9.44999978E-03   5.72080990E-06
  -9.39999986E-03   5.82721850E-06
  -9.34999995E-03   5.93523237E-06
  -9.30000003E-03   6.04486331E-06
  -9.25000012E-03   6.15613135E-06
  -9.20000020E-03   6.26906376E-06
  -9.15000029E-03   6.38368965E-06
  -9.10000037E-03   6.50003267E-06
  -9.05000046E-03   6.61811055E-06
  -8.99999961E-03   6.73793193E-06
  -8.94999970E-03   6.85950135E-06
  -8.89999978E-03   6.98282383E-06
  -8.84999987E-03   7.10790891E-06
  -8.79999995E-03   7.23477388E-06
  -8.75000004E-03   7.36344282E-06
  -8.70000012E-03   7.49394394E-06
  -8.65000021E-03   7.62630316E-06
  -8.60000029E-03   7.76053639E-06
  -8.55000038E-03   7.89665501E-06
  -8.50000046E-03   8.03466082E-06
  -8.44999962E-03   8.17455657E-06
  -8.39999970E-03   8.31635043E-06
  -8.34999979E-03   8.46005696E-06
  -8.29999987E-03   8.60569799E-06
  -8.24999996E-03   8.75329897E-06
  -8.20000004E-03   8.90288538E-06
  -8.15000013E-03   9.05447450E-06
  -8.10000021E-03   9.20807724E-06
  -8.05000030E-03   9.36369543E-06
  -8.00000038E-03   9.52132905E-06
  -7.95000046E-03   9.68098266E-06
  -7.89999962E-03   9.84266444E-06
  -7.84999970E-03   1.00063926E-05
  -7.79999979E-03   1.01721898E-05
  -7.74999987E-03   1.03400798E-05
  -7.69999996E-03   1.05100780E-05
  -7.65000004E-03   1.06821926E-05
  -7.60000013E-03   1.08564263E-05
  -7.55000021E-03   1.10327746E-05
  -7.49999983E-03   1.12112357E-05
  -7.44999992E-03   1.13918131E-05
  -7.40000000E-03   1.15745179E-05
  -7.35000009E-03   1.17593690E-05
  -7.30000017E-03   1.19463875E-05
  -7.24999979E-03   1.21355879E-05
  -7.19999988E-03   1.23269774E-05
  -7.14999996E-03   1.25205543E-05
  -7.10000005E-03   1.27163094E-05
  -7.05000013E-03   1.29142354E-05
  -7.00000022E-03   1.31143297E-05
  -6.94999984E-03   1.33165968E-05
  -6.89999992E-03   1.35210494E-05
  -6.85000001E-03   1.37277048E-05
  -6.80000009E-03   1.39365739E-05
  -6.75000018E-03   1.41476603E-05
  -6.69999979E-03   1.43609568E-05
  -6.64999988E-03   1.45764516E-05
  -6.59999996E-03   1.47941282E-05
  -6.55000005E-03   1.50139758E-05
  -6.50000013E-03   1.52359898E-05
  -6.45000022E-03   1.54601748E-05
  -6.39999984E-03   1.56865426E-05
  -6.34999992E-03   1.59150968E-05
  -6.30000001E-03   1.61458374E-05
  -6.25000009E-03   1.63787499E-05
  -6.20000018E-03   1.66138143E-05
  -6.14999980E-03   1.68510087E-05
  -6.09999988E-03   1.70903095E-05
  -6.04999997E-03   1.73317039E-05
  -6.00000005E-03   1.75751939E-05
  -5.95000014E-03   1.78207738E-05
  -5.90000022E-03   1.80684474E-05
  -5.84999984E-03   1.83182019E-05
  -5.79999993E-03   1.85700210E-05
  -5.75000001E-03   1.88238773E-05
  -5.70000010E-03   1.90797346E-05
  -5.65000018E-03   1.93375636E-05
  -5.59999980E-03   1.95973353E-05
  -5.54999989E-03   1.98590387E-05
  -5.49999997E-03   2.01226630E-05
  -5.45000006E-03   2.03881991E-05
  -5.40000014E-03   2.06556306E-05
  -5.35000023E-03   2.09249265E-05
  -5.29999984E-03   2.11960505E-05
  -5.24999993E-03   2.14689571E-05
  -5.20000001E-03   2.17436009E-05
  -5.15000010E-03   2.20199418E-05
  -5.10000018E-03   2.22979561E-05
  -5.04999980E-03   2.25776184E-05
  -4.99999989E-03   2.28589070E-05
  -4.94999997E-03   2.31417962E-05
  -4.90000006E-03   2.34262479E-05
  -4.85000014E-03   2.37122131E-05
  -4.80000023E-03   2.39996352E-05
  -4.74999985E-03   2.42884562E-05
  -4.69999993E-03   2.45786232E-05
  -4.65000002E-03   2.48700908E-05
  -4.60000010E-03   2.51628244E-05
  -4.55000019E-03   2.54567876E-05
  -4.49999981E-03   2.57519405E-05
  -4.44999989E-03   2.60482357E-05
  -4.39999998E-03   2.63456059E-05
  -4.35000006E-03   2.66439856E-05
  -4.30000015E-03   2.69432949E-05
  -4.25000023E-03   2.72434700E-05
  -4.19999985E-03   2.75444472E-05
  -4.14999994E-03   2.78461703E-05
  -4.10000002E-03   2.81485918E-05
  -4.05000011E-03   2.84516591E-05
  -4.00000019E-03   2.87553030E-05
  -3.94999981E-03   2.90594489E-05
  -3.89999989E-03   2.93640060E-05
  -3.84999998E-03   2.96688886E-05
  -3.80000006E-03   2.99740004E-05
  -3.74999992E-03   3.02792705E-05
  -3.70000000E-03   3.05846224E-05
  -3.65000009E-03   3.08899907E-05
  -3.59999994E-03   3.11953008E-05
  -3.55000002E-03   3.15004763E-05
  -3.50000011E-03   3.18054226E-05
  -3.44999996E-03   3.21100379E-05
  -3.40000005E-03   3.24142056E-05
  -3.34999990E-03   3.27178204E-05
  -3.29999998E-03   3.30207840E-05
  -3.25000007E-03   3.33229982E-05
  -3.19999992E-03   3.36243793E-05
  -3.15000000E-03   3.39248327E-05
  -3.10000009E-03   3.42242638E-05
  -3.04999994E-03   3.45225635E-05
  -3.00000003E-03   3.48196045E-05
  -2.95000011E-03   3.51152521E-05
  -2.89999996E-03   3.54093754E-05
  -2.85000005E-03   3.57018544E-05
  -2.79999990E-03   3.59925725E-05
  -2.74999999E-03   3.62814208E-05
  -2.70000007E-03   3.65682936E-05
  -2.64999992E-03   3.68530636E-05
  -2.60000001E-03   3.71356073E-05
  -2.55000009E-03   3.74157753E-05
  -2.49999994E-03   3.76934149E-05
  -2.45000003E-03   3.79683734E-05
  -2.40000011E-03   3.82404978E-05
  -2.34999997E-03   3.85096464E-05
  -2.30000005E-03   3.87756882E-05
  -2.24999990E-03   3.90384994E-05
  -2.19999999E-03   3.92979418E-05
  -2.15000007E-03   3.95538555E-05
  -2.09999993E-03   3.98060802E-05
  -2.05000001E-03   4.00544377E-05
  -2.00000009E-03   4.02987353E-05
  -1.94999995E-03   4.05388091E-05
  -1.90000003E-03   4.07744847E-05
  -1.85000000E-03   4.10056018E-05
  -1.79999997E-03   4.12320114E-05
  -1.75000005E-03   4.14535534E-05
  -1.70000002E-03   4.16700568E-05
  -1.64999999E-03   4.18813252E-05
  -1.59999996E-03   4.20871584E-05
  -1.55000004E-03   4.22873527E-05
  -1.50000001E-03   4.24817008E-05
  -1.44999998E-03   4.26700026E-05
  -1.39999995E-03   4.28520761E-05
  -1.35000004E-03   4.30277432E-05
  -1.30000000E-03   4.31968183E-05
  -1.24999997E-03   4.33591122E-05
  -1.20000006E-03   4.35144102E-05
  -1.15000003E-03   4.36624905E-05
  -1.09999999E-03   4.38031166E-05
  -1.04999996E-03   4.39360520E-05
  -1.00000005E-03   4.40610747E-05
  -9.50000016E-04   4.41779666E-05
  -8.99999985E-04   4.42865276E-05
  -8.50000011E-04   4.43865465E-05
  -7.99999980E-04   4.44778052E-05
  -7.50000007E-04   4.45600745E-05
  -6.99999975E-04   4.46331032E-05
  -6.50000002E-04   4.46966296E-05
  -6.00000028E-04   4.47503917E-05
  -5.49999997E-04   4.47941311E-05
  -5.00000024E-04   4.48276041E-05
  -4.49999992E-04   4.48505743E-05
  -3.99999990E-04   4.48628198E-05
  -3.49999988E-04   4.48640967E-05
  -3.00000014E-04   4.48541541E-05
  -2.50000012E-04   4.48327228E-05
  -1.99999995E-04   4.47995226E-05
  -1.50000007E-04   4.47542552E-05
  -9.99999975E-05   4.46966333E-05
  -4.99999987E-05   4.46263912E-05
   0.00000000       4.45432634E-05
   4.99999987E-05   4.44469915E-05
   9.99999975E-05   4.43373283E-05
   1.50000007E-04   4.42139972E-05
   1.99999995E-04   4.40767108E-05
   2.50000012E-04   4.39251635E-05
   3.00000014E-04   4.37590315E-05
   3.49999988E-04   4.35780021E-05
   3.99999990E-04   4.33817768E-05
   4.49999992E-04   4.31700610E-05
   5.00000024E-04   4.29425745E-05
   5.49999997E-04   4.26990482E-05
   6.00000028E-04   4.24391874E-05
   6.50000002E-04   4.21626937E-05
   6.99999975E-04   4.18692362E-05
   7.50000007E-04   4.15584800E-05
   7.99999980E-04   4.12300797E-05
   8.50000011E-04   4.08837004E-05
   8.99999985E-04   4.05190294E-05
   9.50000016E-04   4.01357793E-05
   1.00000005E-03   3.97336516E-05
   1.04999996E-03   3.93123446E-05
   1.09999999E-03   3.88715380E-05
   1.15000003E-03   3.84108935E-05
   1.20000006E-03   3.79300473E-05
   1.24999997E-03   3.74286428E-05
   1.30000000E-03   3.69063309E-05
   1.35000004E-03   3.63627696E-05
   1.39999995E-03   3.57976387E-05
   1.44999998E-03   3.52106326E-05
   1.50000001E-03   3.46014458E-05
   1.55000004E-03   3.39697363E-05
   1.59999996E-03   3.33151693E-05
   1.64999999E-03   3.26373665E-05
   1.70000002E-03   3.19359569E-05
   1.75000005E-03   3.12105549E-05
   1.79999997E-03   3.04608129E-05
   1.85000000E-03   2.96863873E-05
   1.90000003E-03   2.88869633E-05
   1.94999995E-03   2.80622171E-05
   2.00000009E-03   2.72118286E-05
   2.05000001E-03   2.63354359E-05
   2.09999993E-03   2.54326715E-05
   2.15000007E-03   2.45031461E-05
   2.19999999E-03   2.35464777E-05
   2.24999990E-03   2.25622935E-05
   2.30000005E-03   2.15502423E-05
   2.34999997E-03   2.05099968E-05
   2.40000011E-03   1.94412405E-05
   2.45000003E-03   1.83436496E-05
   2.49999994E-03   1.72168766E-05
   2.55000009E-03   1.60605487E-05
   2.60000001E-03   1.48742656E-05
   2.64999992E-03   1.36576455E-05
   2.70000007E-03   1.24102990E-05
   2.74999999E-03   1.11318732E-05
   2.79999990E-03   9.82204438E-06