  -3.99999991E-02   0.00000000    
  -3.99499983E-02   0.00000000    
  -3.99000011E-02   0.00000000    
  -3.98500003E-02   0.00000000    
  -3.97999994E-02   0.00000000    
  -3.97499986E-02   2.06179248E-22
  -3.97000015E-02   1.61635575E-21
  -3.96500006E-02   6.66962554E-21
  -3.95999998E-02   1.95462003E-20
  -3.95499989E-02   4.66229334E-20
  -3.95000018E-02   9.82804887E-20
  -3.94500010E-02   1.91945077E-19
  -3.94000001E-02   3.53904650E-19
  -3.93499993E-02   6.17603082E-19
  -3.92999984E-02   1.01987244E-18
  -3.92500013E-02   1.59944936E-18
  -3.92000005E-02   2.39922723E-18
  -3.91499996E-02   3.46761330E-18
  -3.90999988E-02   4.85409560E-18
  -3.90500017E-02   6.60308835E-18
  -3.90000008E-02   8.75842986E-18
  -3.89500000E-02   1.13851485E-17
  -3.88999991E-02   1.45967980E-17
  -3.88499983E-02   1.85647305E-17
  -3.88000011E-02   2.34956782E-17
  -3.87500003E-02   2.95878502E-17
  -3.86999995E-02   3.69893200E-17
  -3.86499986E-02   4.57750038E-17
  -3.86000015E-02   5.59461026E-17
  -3.85500006E-02   6.74568635E-17
  -3.84999998E-02   8.02798372E-17
  -3.84499989E-02   9.45030623E-17
  -3.84000018E-02   1.10406304E-16
  -3.83500010E-02   1.28433316E-16
  -3.83000001E-02   1.49014112E-16
  -3.82499993E-02   1.72291001E-16
  -3.81999984E-02   1.97887609E-16
  -3.81500013E-02   2.24854266E-16
  -3.81000005E-02   2.51829169E-16
  -3.80499996E-02   2.77349451E-16
  -3.79999988E-02   3.00197979E-16
  -3.79500017E-02   3.19670790E-16
  -3.79000008E-02   3.35660681E-16
  -3.78500000E-02   3.48469302E-16
  -3.77999991E-02   3.58342423E-16
  -3.77499983E-02   3.64887024E-16
  -3.77000012E-02   3.66664099E-16
  -3.76500003E-02   3.61218206E-16
  -3.75999995E-02   3.45560749E-16
  -3.75499986E-02   3.16840138E-16
  -3.75000015E-02   2.72825580E-16
  -3.74500006E-02   2.11966858E-16
  -3.73999998E-02   1.33042830E-16
  -3.73499990E-02   3.45752761E-17
  -3.73000018E-02  -8.57754068E-17
  -3.72500010E-02  -2.31617268E-16
  -3.72000001E-02  -4.07811874E-16
  -3.71499993E-02  -6.19877928E-16
  -3.70999984E-02  -8.72893128E-16
  -3.70500013E-02  -1.17029259E-15
  -3.70000005E-02  -1.51309688E-15
  -3.69499996E-02  -1.89988283E-15
  -3.68999988E-02  -2.32739539E-15
  -3.68500017E-02  -2.79143075E-15
  -3.68000008E-02  -3.28769867E-15
  -3.67500000E-02  -3.81261600E-15
  -3.66999991E-02  -4.36404715E-15
  -3.66499983E-02  -4.94180705E-15
  -3.66000012E-02  -5.54755166E-15
  -3.65500003E-02  -6.18382248E-15
  -3.64999995E-02  -6.85244064E-15
  -3.64499986E-02  -7.55282254E-15
  -3.64000015E-02  -8.28083634E-15
  -3.63500006E-02  -9.02857924E-15
  -3.62999998E-02  -9.78514060E-15
  -3.62499990E-02  -1.05382054E-14
  -3.62000018E-02  -1.12759186E-14
  -3.61500010E-02  -1.19879607E-14
  -3.61000001E-02  -1.26646147E-14
  -3.60499993E-02  -1.32933037E-14
  -3.59999985E-02  -1.38537990E-14
  -3.59500013E-02  -1.43147704E-14
  -3.59000005E-02  -1.46348337E-14
  -3.58499996E-02  -1.47693832E-14
  -3.57999988E-02  -1.46817390E-14
  -3.57500017E-02  -1.43543082E-14
  -3.57000008E-02  -1.37944948E-14
  -3.56500000E-02  -1.30312665E-14
  -3.55999991E-02  -1.21015470E-14
  -3.55499983E-02  -1.10299529E-14
  -3.55000012E-02  -9.80957327E-15
  -3.54500003E-02  -8.39300722E-15
  -3.53999995E-02  -6.70023983E-15
  -3.53499986E-02  -4.64294164E-15
  -3.53000015E-02  -2.15638918E-15
  -3.52500007E-02   7.75389048E-16
  -3.51999998E-02   4.11442612E-15
  -3.51499990E-02   7.78863143E-15
  -3.51000018E-02   1.17297868E-14
  -3.50500010E-02   1.59130081E-14
  -3.50000001E-02   2.03778865E-14
  -3.49499993E-02   2.52175176E-14
  -3.48999985E-02   3.05352430E-14
  -3.48500013E-02   3.63850084E-14
  -3.48000005E-02   4.27225699E-14
  -3.47499996E-02   4.93945908E-14
  -3.46999988E-02   5.61781253E-14
  -3.46500017E-02   6.28595890E-14
  -3.46000008E-02   6.93198754E-14
  -3.45500000E-02   7.55838670E-14
  -3.44999991E-02   8.18041923E-14
  -3.44499983E-02   8.81778171E-14
  -3.44000012E-02   9.48268970E-14
  -3.43500003E-02   1.01697242E-13
  -3.42999995E-02   1.08526686E-13
  -3.42499986E-02   1.14908720E-13
  -3.42000015E-02   1.20434045E-13
  -3.41500007E-02   1.24852060E-13
  -3.40999998E-02   1.28175058E-13
  -3.40499990E-02   1.30665471E-13
  -3.40000018E-02   1.32695070E-13
  -3.39500010E-02   1.34527955E-13
  -3.39000002E-02   1.36123968E-13
  -3.38499993E-02   1.37062155E-13
  -3.37999985E-02   1.36637663E-13
  -3.37500013E-02   1.34107257E-13
  -3.37000005E-02   1.28984930E-13
  -3.36499996E-02   1.21252753E-13
  -3.35999988E-02   1.11377331E-13
  -3.35500017E-02   1.00102794E-13
  -3.35000008E-02   8.80945504E-14
  -3.34500000E-02   7.55893761E-14
  -3.33999991E-02   6.22216376E-14
  -3.33499983E-02   4.71302108E-14
  -3.33000012E-02   2.93240909E-14
  -3.32500003E-02   8.15645294E-15
  -3.31999995E-02  -1.63127754E-14
  -3.31499986E-02  -4.32544151E-14
  -3.31000015E-02  -7.13696612E-14
  -3.30500007E-02  -9.94446360E-14
  -3.29999998E-02  -1.26918549E-13
  -3.29499990E-02  -1.54192306E-13
  -3.29000019E-02  -1.82501136E-13
  -3.28500010E-02  -2.13365160E-13
  -3.28000002E-02  -2.47837043E-13
  -3.27499993E-02  -2.85886142E-13
  -3.26999985E-02  -3.26228953E-13
  -3.26500013E-02  -3.66729704E-13
  -3.26000005E-02  -4.05234494E-13
  -3.25499997E-02  -4.40477299E-13
  -3.24999988E-02  -4.72629097E-13
  -3.24500017E-02  -5.03192702E-13
  -3.24000008E-02  -5.34235471E-13
  -3.23500000E-02  -5.67266449E-13
  -3.22999991E-02  -6.02266175E-13
  -3.22499983E-02  -6.37349060E-13
  -3.22000012E-02  -6.69281796E-13
  -3.21500003E-02  -6.94692730E-13
  -3.20999995E-02  -7.11462573E-13
  -3.20499986E-02  -7.19651715E-13
  -3.20000015E-02  -7.21482336E-13
  -3.19500007E-02  -7.20302398E-13
  -3.18999998E-02  -7.18936575E-13
  -3.18499990E-02  -7.18155299E-13
  -3.18000019E-02  -7.15997194E-13
  -3.17500010E-02  -7.08332427E-13
  -3.17000002E-02  -6.90498169E-13
  -3.16499993E-02  -6.59315972E-13
  -3.15999985E-02  -6.14569973E-13
  -3.15500014E-02  -5.59209309E-13
  -3.15000005E-02  -4.98085351E-13
  -3.14499997E-02  -4.35715727E-13
  -3.13999988E-02  -3.74066148E-13
  -3.13500017E-02  -3.11408803E-13
  -3.13000008E-02  -2.42881534E-13
  -3.12500000E-02  -1.62611976E-13
  -3.11999992E-02  -6.65132215E-14
  -3.11500002E-02   4.55274043E-14
  -3.10999993E-02   1.69149322E-13
  -3.10500003E-02   2.97070663E-13
  -3.09999995E-02   4.22107770E-13
  -3.09500005E-02   5.40345112E-13
  -3.08999997E-02   6.52975287E-13
  -3.08500007E-02   7.65852117E-13
  -3.07999998E-02   8.86808530E-13
  -3.07500008E-02   1.02184721E-12
  -3.07000000E-02   1.17191944E-12
  -3.06499992E-02   1.33184544E-12
  -3.06000002E-02   1.49202439E-12
  -3.05499993E-02   1.64230738E-12
  -3.05000003E-02   1.77635033E-12
  -3.04499995E-02   1.89442407E-12
  -3.04000005E-02   2.00326452E-12
  -3.03499997E-02   2.11284506E-12
  -3.03000007E-02   2.23138912E-12
  -3.02499998E-02   2.36085240E-12
  -3.02000009E-02   2.49501266E-12
  -3.01500000E-02   2.62123006E-12
  -3.00999992E-02   2.72528224E-12
  -3.00500002E-02   2.79721277E-12
  -2.99999993E-02   2.83552934E-12
  -2.99500003E-02   2.84771642E-12
  -2.98999995E-02   2.84662420E-12
  -2.98500005E-02   2.84420534E-12
  -2.97999997E-02   2.84537866E-12
  -2.97500007E-02   2.84490552E-12
  -2.96999998E-02   2.82888665E-12
  -2.96500009E-02   2.78043127E-12
  -2.96000000E-02   2.68707430E-12
  -2.95499992E-02   2.54657927E-12
  -2.95000002E-02   2.36834012E-12
  -2.94499993E-02   2.16949874E-12
  -2.94000003E-02   1.96730479E-12
  -2.93499995E-02   1.77108317E-12
  -2.93000005E-02   1.57751904E-12
  -2.92499997E-02   1.37162569E-12
  -2.92000007E-02   1.13323153E-12
  -2.91499998E-02   8.46238986E-13
  -2.91000009E-02   5.06497893E-13
  -2.90500000E-02   1.24582704E-13
  -2.89999992E-02  -2.78046222E-13
  -2.89500002E-02  -6.78023501E-13
  -2.88999993E-02  -1.06027947E-12
  -2.88500004E-02  -1.42479919E-12
  -2.87999995E-02  -1.78665329E-12
  -2.87500005E-02  -2.16897919E-12
  -2.86999997E-02  -2.59183408E-12
  -2.86500007E-02  -3.06188516E-12
  -2.85999998E-02  -3.56774311E-12
  -2.85500009E-02  -4.08334000E-12
  -2.85000000E-02  -4.57814429E-12
  -2.84499992E-02  -5.02980383E-12
  -2.84000002E-02  -5.43350694E-12
  -2.83499993E-02  -5.80363275E-12
  -2.83000004E-02  -6.16663838E-12
  -2.82499995E-02  -6.54808412E-12
  -2.82000005E-02  -6.95953798E-12
  -2.81499997E-02  -7.39132627E-12
  -2.81000007E-02  -7.81468206E-12
  -2.80499998E-02  -8.19265662E-12
  -2.80000009E-02  -8.49511694E-12
  -2.79500000E-02  -8.71113251E-12
  -2.78999992E-02  -8.85296524E-12
  -2.78500002E-02  -8.94960234E-12
  -2.77999993E-02  -9.03241978E-12
  -2.77500004E-02  -9.11933289E-12
  -2.76999995E-02  -9.20462578E-12
  -2.76500005E-02  -9.25931380E-12
  -2.75999997E-02  -9.24227882E-12
  -2.75500007E-02  -9.11744204E-12
  -2.74999999E-02  -8.86939220E-12
  -2.74500009E-02  -8.51028709E-12
  -2.74000000E-02  -8.07460522E-12
  -2.73499992E-02  -7.60375530E-12
  -2.73000002E-02  -7.12722069E-12
  -2.72499993E-02  -6.64871110E-12
  -2.72000004E-02  -6.14374567E-12
  -2.71499995E-02  -5.57013290E-12
  -2.71000005E-02  -4.88695629E-12
  -2.70499997E-02  -4.07370752E-12
  -2.70000007E-02  -3.14090008E-12
  -2.69499999E-02  -2.12712985E-12
  -2.69000009E-02  -1.08350861E-12
  -2.68500000E-02  -5.21617763E-14
  -2.67999992E-02   9.51668540E-13
  -2.67500002E-02   1.94572570E-12
  -2.66999993E-02   2.97195211E-12
  -2.66500004E-02   4.07635557E-12
  -2.65999995E-02   5.28628140E-12
  -2.65500005E-02   6.59525819E-12
  -2.64999997E-02   7.96242672E-12
  -2.64500007E-02   9.32718746E-12
  -2.63999999E-02   1.06328956E-11
  -2.63500009E-02   1.18492048E-11
  -2.63000000E-02   1.29830695E-11
  -2.62499992E-02   1.40732330E-11
  -2.62000002E-02   1.51702782E-11
  -2.61499994E-02   1.63108797E-11
  -2.61000004E-02   1.74976388E-11
  -2.60499995E-02   1.86936352E-11
  -2.60000005E-02   1.98345316E-11
  -2.59499997E-02   2.08531976E-11
  -2.59000007E-02   2.17062028E-11
  -2.58499999E-02   2.23903465E-11
  -2.58000009E-02   2.29417024E-11
  -2.57500000E-02   2.34171241E-11
  -2.56999992E-02   2.38661868E-11
  -2.56500002E-02   2.43057501E-11
  -2.55999994E-02   2.47085824E-11
  -2.55500004E-02   2.50114252E-11
  -2.54999995E-02   2.51393645E-11
  -2.54500005E-02   2.50361624E-11
  -2.53999997E-02   2.46872332E-11
  -2.53500007E-02   2.41249503E-11
  -2.52999999E-02   2.34135003E-11
  -2.52500009E-02   2.26195850E-11
  -2.52000000E-02   2.17816511E-11
  -2.51499992E-02   2.08913286E-11
  -2.51000002E-02   1.98955574E-11
  -2.50499994E-02   1.87189934E-11
  -2.50000004E-02   1.72973233E-11
  -2.49499995E-02   1.56070643E-11
  -2.49000005E-02   1.36786164E-11
  -2.48499997E-02   1.15863256E-11
  -2.48000007E-02   9.41935245E-12
  -2.47499999E-02   7.24557480E-12
  -2.47000009E-02   5.08425680E-12
  -2.46500000E-02   2.89970413E-12
  -2.45999992E-02   6.19259852E-13
  -2.45500002E-02  -1.83169864E-12
  -2.44999994E-02  -4.49275122E-12
  -2.44500004E-02  -7.34564319E-12
  -2.43999995E-02  -1.03160987E-11
  -2.43500005E-02  -1.33000919E-11
  -2.42999997E-02  -1.62036756E-11
  -2.42500007E-02  -1.89792609E-11
  -2.41999999E-02  -2.16422661E-11
  -2.41500009E-02  -2.42602119E-11
  -2.41000000E-02  -2.69182870E-11
  -2.40499992E-02  -2.96758382E-11
  -2.40000002E-02  -3.25328341E-11
  -2.39499994E-02  -3.54213534E-11
  -2.39000004E-02  -3.82267655E-11
  -2.38499995E-02  -4.08300754E-11
  -2.38000005E-02  -4.31535363E-11
  -2.37499997E-02  -4.51894737E-11
  -2.37000007E-02  -4.69991407E-11
  -2.36499999E-02  -4.86811771E-11
  -2.36000009E-02  -5.03226696E-11
  -2.35500000E-02  -5.19538093E-11
  -2.34999992E-02  -5.35266276E-11
  -2.34500002E-02  -5.49278574E-11
  -2.33999994E-02  -5.60216144E-11
  -2.33500004E-02  -5.67038985E-11
  -2.32999995E-02  -5.69451535E-11
  -2.32500006E-02  -5.68016849E-11
  -2.31999997E-02  -5.63895979E-11
  -2.31500007E-02  -5.58316934E-11
  -2.30999999E-02  -5.51999488E-11
  -2.30500009E-02  -5.44790602E-11
  -2.30000000E-02  -5.35681603E-11
  -2.29499992E-02  -5.23213001E-11
  -2.29000002E-02  -5.06101445E-11
  -2.28499994E-02  -4.83819859E-11
  -2.28000004E-02  -4.56868744E-11
  -2.27499995E-02  -4.26607395E-11
  -2.27000006E-02  -3.94703471E-11
  -2.26499997E-02  -3.62433070E-11
  -2.26000007E-02  -3.30139353E-11
  -2.25499999E-02  -2.97096271E-11
  -2.25000009E-02  -2.61852519E-11
  -2.24500000E-02  -2.22919062E-11
  -2.23999992E-02  -1.79503495E-11
  -2.23500002E-02  -1.31964249E-11
  -2.22999994E-02  -8.17703717E-12
  -2.22500004E-02  -3.09668046E-12
  -2.21999995E-02   1.86334672E-12
  -2.21500006E-02   6.61776276E-12
  -2.20999997E-02   1.12091942E-11
  -2.20500007E-02   1.57833885E-11
  -2.19999999E-02   2.05169510E-11
  -2.19500009E-02   2.55285584E-11
  -2.19000001E-02   3.08130743E-11
  -2.18499992E-02   3.62290579E-11
  -2.18000002E-02   4.15471615E-11
  -2.17499994E-02   4.65396298E-11
  -2.17000004E-02   5.10720424E-11
  -2.16499995E-02   5.51559839E-11
  -2.16000006E-02   5.89377019E-11
  -2.15499997E-02   6.26257102E-11
  -2.15000007E-02   6.63880270E-11
  -2.14499999E-02   7.02647940E-11
  -2.14000009E-02   7.41362388E-11
  -2.13500001E-02   7.77625950E-11
  -2.12999992E-02   8.08802955E-11
  -2.12500002E-02   8.33128219E-11
  -2.11999994E-02   8.50466017E-11
  -2.11500004E-02   8.62366775E-11
  -2.10999995E-02   8.71370892E-11
  -2.10500006E-02   8.79854384E-11
  -2.09999997E-02   8.88921645E-11
  -2.09500007E-02   8.97849711E-11
  -2.08999999E-02   9.04348957E-11
  -2.08500009E-02   9.05550010E-11
  -2.08000001E-02   8.99291822E-11
  -2.07499992E-02   8.85134188E-11
  -2.07000002E-02   8.64630659E-11
  -2.06499994E-02   8.40716941E-11
  -2.06000004E-02   8.16466686E-11
  -2.05499995E-02   7.93763805E-11
  -2.05000006E-02   7.72489780E-11
  -2.04499997E-02   7.50607909E-11
  -2.04000007E-02   7.25131621E-11
  -2.03499999E-02   6.93561111E-11
  -2.03000009E-02   6.55149823E-11
  -2.02500001E-02   6.11420151E-11
  -2.01999992E-02   5.65677435E-11
  -2.01500002E-02   5.21712326E-11
  -2.00999994E-02   4.82260586E-11
  -2.00500004E-02   4.47910459E-11
  -1.99999996E-02   4.16961222E-11
  -1.99500006E-02   3.86319206E-11
  -1.98999997E-02   3.53044365E-11
  -1.98500007E-02   3.15860012E-11
  -1.97999999E-02   2.75937207E-11
  -1.97500009E-02   2.36580928E-11
  -1.97000001E-02   2.01934441E-11
  -1.96499992E-02   1.75267856E-11
  -1.96000002E-02   1.57617825E-11
  -1.95499994E-02   1.47403183E-11
  -1.95000004E-02   1.41212380E-11
  -1.94499996E-02   1.35430512E-11
  -1.94000006E-02   1.27984342E-11
  -1.93499997E-02   1.19414686E-11
  -1.93000007E-02   1.12774443E-11
  -1.92499999E-02   1.12374363E-11
  -1.92000009E-02   1.21920382E-11
  -1.91500001E-02   1.42874653E-11
  -1.90999992E-02   1.73785136E-11
  -1.90500002E-02   2.10903447E-11
  -1.89999994E-02   2.49832724E-11
  -1.89500004E-02   2.87475998E-11
  -1.88999996E-02   3.23406822E-11
  -1.88500006E-02   3.60029367E-11
  -1.87999997E-02   4.01433262E-11
  -1.87500007E-02   4.51439892E-11
  -1.86999999E-02   5.11711749E-11
  -1.86500009E-02   5.80781569E-11
  -1.86000001E-02   6.54455656E-11
  -1.85499992E-02   7.27428257E-11
  -1.85000002E-02   7.95393196E-11
  -1.84499994E-02   8.56705887E-11
  -1.84000004E-02   9.12836126E-11
  -1.83499996E-02   9.67391167E-11
  -1.83000006E-02   1.02413321E-10
  -1.82499997E-02   1.08487351E-10
  -1.82000007E-02   1.14819522E-10
  -1.81499999E-02   1.20959562E-10
  -1.81000009E-02   1.26299568E-10
  -1.80500001E-02   1.30295608E-10
  -1.79999992E-02   1.32659786E-10
  -1.79500002E-02   1.33436012E-10
  -1.78999994E-02   1.32923450E-10
  -1.78500004E-02   1.31481229E-10
  -1.77999996E-02   1.29301417E-10
  -1.77500006E-02   1.26253077E-10
  -1.76999997E-02   1.21868696E-10
  -1.76500008E-02   1.15481028E-10
  -1.75999999E-02   1.06450494E-10
  -1.75500009E-02   9.43812806E-11
  -1.75000001E-02   7.92289429E-11
  -1.74499992E-02   6.12498108E-11
  -1.74000002E-02   4.08138627E-11
  -1.73499994E-02   1.81643815E-11
  -1.73000004E-02  -6.76660551E-12
  -1.72499996E-02  -3.44037923E-11
  -1.72000006E-02  -6.54132790E-11
  -1.71499997E-02  -1.00476821E-10
  -1.71000008E-02  -1.40057119E-10
  -1.70499999E-02  -1.84259608E-10
  -1.70000009E-02  -2.32853320E-10
  -1.69500001E-02  -2.85442892E-10
  -1.68999992E-02  -3.41714795E-10
  -1.68500002E-02  -4.01647215E-10
  -1.67999994E-02  -4.65588040E-10
  -1.67500004E-02  -5.34165379E-10
  -1.66999996E-02  -6.08069151E-10
  -1.66500006E-02  -6.87801982E-10
  -1.65999997E-02  -7.73510422E-10
  -1.65500008E-02  -8.64973315E-10
  -1.64999999E-02  -9.61752677E-10
  -1.64500009E-02  -1.06343934E-09
  -1.64000001E-02  -1.16988319E-09
  -1.63499992E-02  -1.28130551E-09
  -1.63000003E-02  -1.39824063E-09
  -1.62499994E-02  -1.52133384E-09
  -1.62000004E-02  -1.65108682E-09
  -1.61499996E-02  -1.78766413E-09
  -1.61000006E-02  -1.93084926E-09
  -1.60499997E-02  -2.08017004E-09
  -1.60000008E-02  -2.23513674E-09
  -1.59499999E-02  -2.39548692E-09
  -1.59000009E-02  -2.56132671E-09
  -1.58500001E-02  -2.73310286E-09
  -1.57999992E-02  -2.91142155E-09
  -1.57500003E-02  -3.09679060E-09
  -1.56999994E-02  -3.28940009E-09
  -1.56500004E-02  -3.48904772E-09
  -1.55999996E-02  -3.69523812E-09
  -1.55499997E-02  -3.90740951E-09
  -1.54999997E-02  -4.12518997E-09
  -1.54499998E-02  -4.34856506E-09
  -1.53999999E-02  -4.57789140E-09
  -1.53500000E-02  -4.81373830E-09
  -1.53000001E-02  -5.05663644E-09
  -1.52500002E-02  -5.30683986E-09
  -1.52000003E-02  -5.56421931E-09
  -1.51500003E-02  -5.82832804E-09
  -1.51000004E-02  -6.09861095E-09
  -1.50499996E-02  -6.37466613E-09
  -1.49999997E-02  -6.65643940E-09
  -1.49499997E-02  -6.94426694E-09
  -1.48999998E-02  -7.23874516E-09
  -1.48499999E-02  -7.54049090E-09
  -1.48000000E-02  -7.84989052E-09
  -1.47500001E-02  -8.16695866E-09
  -1.47000002E-02  -8.49136761E-09
  -1.46500003E-02  -8.82263507E-09
  -1.46000003E-02  -9.16037646E-09
  -1.45500004E-02  -9.50453494E-09
  -1.44999996E-02  -9.85544801E-09
  -1.44499997E-02  -1.02137552E-08
  -1.43999998E-02  -1.05801643E-08
  -1.43499998E-02  -1.09552047E-08
  -1.42999999E-02  -1.13390595E-08
  -1.42500000E-02  -1.17315588E-08
  -1.42000001E-02  -1.21323449E-08
  -1.41500002E-02  -1.25411175E-08
  -1.41000003E-02  -1.29578801E-08
  -1.40500003E-02  -1.33830307E-08
  -1.40000004E-02  -1.38173020E-08
  -1.39499996E-02  -1.42615475E-08
  -1.38999997E-02  -1.47164902E-08
  -1.38499998E-02  -1.51825379E-08
  -1.37999998E-02  -1.56597242E-08
  -1.37499999E-02  -1.61478564E-08
  -1.37000000E-02  -1.66467462E-08
  -1.36500001E-02  -1.71564647E-08
  -1.36000002E-02  -1.76774950E-08
  -1.35500003E-02  -1.82106685E-08
  -1.35000004E-02  -1.87569729E-08
  -1.34500004E-02  -1.93173015E-08
  -1.33999996E-02  -1.98922638E-08
  -1.33499997E-02  -2.04820942E-08
  -1.32999998E-02  -2.10867643E-08
  -1.32499998E-02  -2.17062084E-08
  -1.31999999E-02  -2.23405703E-08
  -1.31500000E-02  -2.29903971E-08
  -1.31000001E-02  -2.36566198E-08
  -1.30500002E-02  -2.43403804E-08
  -1.30000003E-02  -2.50427732E-08
  -1.29500004E-02  -2.57646118E-08
  -1.29000004E-02  -2.65063331E-08
  -1.28499996E-02  -2.72680740E-08
  -1.27999997E-02  -2.80498949E-08
  -1.27499998E-02  -2.88520141E-08
  -1.26999998E-02  -2.96749771E-08
  -1.26499999E-02  -3.05197219E-08
  -1.26000000E-02  -3.13874473E-08
  -1.25500001E-02  -3.22793561E-08
  -1.25000002E-02  -3.31964181E-08
  -1.24500003E-02  -3.41392195E-08
  -1.24000004E-02  -3.51080409E-08
  -1.23500004E-02  -3.61030459E-08
  -1.22999996E-02  -3.71245505E-08
  -1.22499997E-02  -3.81732121E-08
  -1.21999998E-02  -3.92500681E-08
  -1.21499998E-02  -4.03563796E-08
  -1.20999999E-02  -4.14934433E-08
  -1.20500000E-02  -4.26623394E-08
  -1.20000001E-02  -4.38637677E-08
  -1.19500002E-02  -4.50980515E-08
  -1.19000003E-02  -4.63653400E-08
  -1.18500004E-02  -4.76659174E-08
  -1.18000004E-02  -4.90004659E-08
  -1.17499996E-02  -5.03700974E-08
  -1.16999997E-02  -5.17762686E-08
  -1.16499998E-02  -5.32205426E-08
  -1.15999999E-02  -5.47043264E-08
  -1.15499999E-02  -5.62286857E-08
  -1.15000000E-02  -5.77943347E-08
  -1.14500001E-02  -5.94017528E-08
  -1.14000002E-02  -6.10514164E-08
  -1.13500003E-02  -6.27440571E-08
  -1.13000004E-02  -6.44807443E-08
  -1.12500004E-02  -6.62628921E-08
  -1.11999996E-02  -6.80919641E-08
  -1.11499997E-02  -6.99692251E-08
  -1.10999998E-02  -7.18956343E-08
  -1.10499999E-02  -7.38718455E-08
  -1.09999999E-02  -7.58984413E-08
  -1.09500000E-02  -7.79761464E-08
  -1.09000001E-02  -8.01060906E-08
  -1.08500002E-02  -8.22899153E-08
  -1.08000003E-02  -8.45297379E-08
  -1.07500004E-02  -8.68279102E-08
  -1.07000005E-02  -8.91866918E-08
  -1.06499996E-02  -9.16078875E-08
  -1.05999997E-02  -9.40928118E-08
  -1.05499998E-02  -9.66424452E-08
  -1.04999999E-02  -9.92577469E-08
  -1.04499999E-02  -1.01939868E-07
  -1.04000000E-02  -1.04690301E-07
  -1.03500001E-02  -1.07510843E-07
  -1.03000002E-02  -1.10403455E-07
  -1.02500003E-02  -1.13370135E-07
  -1.02000004E-02  -1.16412643E-07
  -1.01500005E-02  -1.19532444E-07
  -1.00999996E-02  -1.22730782E-07
  -1.00499997E-02  -1.26009112E-07
  -9.99999978E-03  -1.29369297E-07
  -9.94999986E-03  -1.32813838E-07
  -9.89999995E-03  -1.36345719E-07
  -9.85000003E-03  -1.39968151E-07
  -9.80000012E-03  -1.43684275E-07
  -9.75000020E-03  -1.47496948E-07
  -9.70000029E-03  -1.51408670E-07
  -9.65000037E-03  -1.55421517E-07
  -9.60000046E-03  -1.59537578E-07
  -9.54999961E-03  -1.63759140E-07
  -9.49999969E-03  -1.68088931E-07
  -9.44999978E-03  -1.72530179E-07
  -9.39999986E-03  -1.77086278E-07
  -9.34999995E-03  -1.81760441E-07
  -9.30000003E-03  -1.86555496E-07
  -9.25000012E-03  -1.91473887E-07
  -9.20000020E-03  -1.96517703E-07
  -9.15000029E-03  -2.01688977E-07
  -9.10000037E-03  -2.06990052E-07
  -9.05000046E-03  -2.12423828E-07
  -8.99999961E-03  -2.17993758E-07
  -8.94999970E-03  -2.23703722E-07
  -8.89999978E-03  -2.29557713E-07
  -8.84999987E-03  -2.35559497E-07
  -8.79999995E-03  -2.41712542E-07
  -8.75000004E-03  -2.48020115E-07
  -8.70000012E-03  -2.54485428E-07
  -8.65000021E-03  -2.61111950E-07
  -8.60000029E-03  -2.67903800E-07
  -8.55000038E-03  -2.74865556E-07
  -8.50000046E-03  -2.82002162E-07
  -8.44999962E-03  -2.89318365E-07
  -8.39999970E-03  -2.96818371E-07
  -8.34999979E-03  -3.04506045E-07
  -8.29999987E-03  -3.12384799E-07
  -8.24999996E-03  -3.20457872E-07
  -8.20000004E-03  -3.28728504E-07
  -8.15000013E-03  -3.37200447E-07
  -8.10000021E-03  -3.45877936E-07
  -8.05000030E-03  -3.54765632E-07
  -8.00000038E-03  -3.63868338E-07
  -7.95000046E-03  -3.73190289E-07
  -7.89999962E-03  -3.82735294E-07
  -7.84999970E-03  -3.92506763E-07
  -7.79999979E-03  -4.02508505E-07
  -7.74999987E-03  -4.12744271E-07
  -7.69999996E-03  -4.23218438E-07
  -7.65000004E-03  -4.33936094E-07
  -7.60000013E-03  -4.44902923E-07
  -7.55000021E-03  -4.56124809E-07
  -7.49999983E-03  -4.67607464E-07
  -7.44999992E-03  -4.79355890E-07
  -7.40000000E-03  -4.91374578E-07
  -7.35000009E-03  -5.03667934E-07
  -7.30000017E-03  -5.16240789E-07
  -7.24999979E-03  -5.29098315E-07
  -7.19999988E-03  -5.42246084E-07
  -7.14999996E-03  -5.55689837E-07
  -7.10000005E-03  -5.69435485E-07
  -7.05000013E-03  -5.83488770E-07
  -7.00000022E-03  -5.97854751E-07
  -6.94999984E-03  -6.12538031E-07
  -6.89999992E-03  -6.27542818E-07
  -6.85000001E-03  -6.42873374E-07
  -6.80000009E-03  -6.58534930E-07
  -6.75000018E-03  -6.74533339E-07
  -6.69999979E-03  -6.90875027E-07
  -6.64999988E-03  -7.07566471E-07
  -6.59999996E-03  -7.24613869E-07
  -6.55000005E-03  -7.42022962E-07
  -6.50000013E-03  -7.59799320E-07
  -6.45000022E-03  -7.77948458E-07
  -6.39999984E-03  -7.96476058E-07
  -6.34999992E-03  -8.15388546E-07
  -6.30000001E-03  -8.34693083E-07
  -6.25000009E-03  -8.54397115E-07
  -6.20000018E-03  -8.74508657E-07
  -6.14999980E-03  -8.95035612E-07
  -6.09999988E-03  -9.15985083E-07
  -6.04999997E-03  -9.37363268E-07
  -6.00000005E-03  -9.59176418E-07
  -5.95000014E-03  -9.81431072E-07
  -5.90000022E-03  -1.00413433E-06
  -5.84999984E-03  -1.02729393E-06
  -5.79999993E-03  -1.05091772E-06
  -5.75000001E-03  -1.07501364E-06
  -5.70000010E-03  -1.09959001E-06
  -5.65000018E-03  -1.12465420E-06
  -5.59999980E-03  -1.15021373E-06
  -5.54999989E-03  -1.17627485E-06
  -5.49999997E-03  -1.20284483E-06
  -5.45000006E-03  -1.22993151E-06
  -5.40000014E-03  -1.25754366E-06
  -5.35000023E-03  -1.28569081E-06
  -5.29999984E-03  -1.31438264E-06
  -5.24999993E-03  -1.34362881E-06
  -5.20000001E-03  -1.37343898E-06
  -5.15000010E-03  -1.40382247E-06
  -5.10000018E-03  -1.43478826E-06
  -5.04999980E-03  -1.46634557E-06
  -4.99999989E-03  -1.49850416E-06
  -4.94999997E-03  -1.53127439E-06
  -4.90000006E-03  -1.56466797E-06
  -4.85000014E-03  -1.59869626E-06
  -4.80000023E-03  -1.63336995E-06
  -4.74999985E-03  -1.66869825E-06
  -4.69999993E-03  -1.70469116E-06
  -4.65000002E-03  -1.74135869E-06
  -4.60000010E-03  -1.77870982E-06
  -4.55000019E-03  -1.81675489E-06
  -4.49999981E-03  -1.85550425E-06
  -4.44999989E-03  -1.89496984E-06
  -4.39999998E-03  -1.93516371E-06
  -4.35000006E-03  -1.97609847E-06
  -4.30000015E-03  -2.01778585E-06
  -4.25000023E-03  -2.06023719E-06
  -4.19999985E-03  -2.10346366E-06
  -4.14999994E-03  -2.14747706E-06
  -4.10000002E-03  -2.19229014E-06
  -4.05000011E-03  -2.23791676E-06
  -4.00000019E-03  -2.28437102E-06
  -3.94999981E-03  -2.33166702E-06
  -3.89999989E-03  -2.37981885E-06
  -3.84999998E-03  -2.42884016E-06
  -3.80000006E-03  -2.47874414E-06
  -3.74999992E-03  -2.52954351E-06
  -3.70000000E-03  -2.58125101E-06
  -3.65000009E-03  -2.63388029E-06
  -3.59999994E-03  -2.68744520E-06
  -3.55000002E-03  -2.74196054E-06
  -3.50000011E-03  -2.79744177E-06
  -3.44999996E-03  -2.85390365E-06
  -3.40000005E-03  -2.91136121E-06
  -3.34999990E-03  -2.96982694E-06
  -3.29999998E-03  -3.02931448E-06
  -3.25000007E-03  -3.08983795E-06
  -3.19999992E-03  -3.15141278E-06
  -3.15000000E-03  -3.21405423E-06
  -3.10000009E-03  -3.27777889E-06
  -3.04999994E-03  -3.34260335E-06
  -3.00000003E-03  -3.40854376E-06
  -2.95000011E-03  -3.47561809E-06
  -2.89999996E-03  -3.54384110E-06
  -2.85000005E-03  -3.61322691E-06
  -2.79999990E-03  -3.68379187E-06
  -2.74999999E-03  -3.75555305E-06
  -2.70000007E-03  -3.82852886E-06
  -2.64999992E-03  -3.90273681E-06
  -2.60000001E-03  -3.97819667E-06
  -2.55000009E-03  -4.05492574E-06
  -2.49999994E-03  -4.13294083E-06
  -2.45000003E-03  -4.21226014E-06
  -2.40000011E-03  -4.29289958E-06
  -2.34999997E-03  -4.37487552E-06
  -2.30000005E-03  -4.45820388E-06
  -2.24999990E-03  -4.54290148E-06
  -2.19999999E-03  -4.62898788E-06
  -2.15000007E-03  -4.71648355E-06
  -2.09999993E-03  -4.80540575E-06
  -2.05000001E-03  -4.89577224E-06
  -2.00000009E-03  -4.98759709E-06
  -1.94999995E-03  -5.08089852E-06
  -1.90000003E-03  -5.17569515E-06
  -1.85000000E-03  -5.27200564E-06
  -1.79999997E-03  -5.36984817E-06
  -1.75000005E-03  -5.46924321E-06
  -1.70000002E-03  -5.57021121E-06
  -1.64999999E-03  -5.67277402E-06
  -1.59999996E-03  -5.77695346E-06
  -1.55000004E-03  -5.88276635E-06
  -1.50000001E-03  -5.99022860E-06
  -1.44999998E-03  -6.09935660E-06
  -1.39999995E-03  -6.21017080E-06
  -1.35000004E-03  -6.32269393E-06
  -1.30000000E-03  -6.43694466E-06
  -1.24999997E-03  -6.55294207E-06
  -1.20000006E-03  -6.67070481E-06
  -1.15000003E-03  -6.79025106E-06
  -1.09999999E-03  -6.91159948E-06
  -1.04999996E-03  -7.03476690E-06
  -1.00000005E-03  -7.15977149E-06
  -9.50000016E-04  -7.28662826E-06
  -8.99999985E-04  -7.41535678E-06
  -8.50000011E-04  -7.54597659E-06
  -7.99999980E-04  -7.67850997E-06
  -7.50000007E-04  -7.81298149E-06
  -6.99999975E-04  -7.94940752E-06
  -6.50000002E-04  -8.08780442E-06
  -6.00000028E-04  -8.22818765E-06
  -5.49999997E-04  -8.37057814E-06
  -5.00000024E-04  -8.51499135E-06
  -4.49999992E-04  -8.66144910E-06
  -3.99999990E-04  -8.80996777E-06
  -3.49999988E-04  -8.96056645E-06
  -3.00000014E-04  -9.11327061E-06
  -2.50000012E-04  -9.26809935E-06
  -1.99999995E-04  -9.42506358E-06
  -1.50000007E-04  -9.58418241E-06
  -9.99999975E-05  -9.74547038E-06
  -4.99999987E-05  -9.90894023E-06
   0.00000000      -1.00746065E-05
   4.99999987E-05  -1.02424910E-05
   9.99999975E-05  -1.04126175E-05
   1.50000007E-04  -1.05850058E-05
   1.99999995E-04  -1.07596661E-05
   2.50000012E-04  -1.09366092E-05
   3.00000014E-04  -1.11158524E-05
   3.49999988E-04  -1.12974130E-05
   3.99999990E-04  -1.14813029E-05
   4.49999992E-04  -1.16675346E-05
   5.00000024E-04  -1.18561220E-05
   5.49999997E-04  -1.20470859E-05
   6.00000028E-04  -1.22404490E-05
   6.50000002E-04  -1.24362277E-05
   6.99999975E-04  -1.26344312E-05
   7.50000007E-04  -1.28350684E-05
   7.99999980E-04  -1.30381532E-05
   8.50000011E-04  -1.32437008E-05
   8.99999985E-04  -1.34517268E-05
   9.50000016E-04  -1.36622421E-05
   1.00000005E-03  -1.38752603E-05
   1.04999996E-03  -1.40907987E-05
   1.09999999E-03  -1.43088755E-05
   1.15000003E-03  -1.45295044E-05
   1.20000006E-03  -1.47526853E-05
   1.24999997E-03  -1.49784219E-05
   1.30000000E-03  -1.52067296E-05
   1.35000004E-03  -1.54376212E-05
   1.39999995E-03  -1.56711085E-05
   1.44999998E-03  -1.59072042E-05
   1.50000001E-03  -1.61459157E-05
   1.55000004E-03  -1.63872592E-05
   1.59999996E-03  -1.66312439E-05
   1.64999999E-03  -1.68778806E-05
   1.70000002E-03  -1.71271677E-05
   1.75000005E-03  -1.73791177E-05
   1.79999997E-03  -1.76337326E-05
   1.85000000E-03  -1.78910323E-05
   1.90000003E-03  -1.81510295E-05
   1.94999995E-03  -1.84137352E-05
   2.00000009E-03  -1.86791567E-05
   2.05000001E-03  -1.89472994E-05
   2.09999993E-03  -1.92181742E-05
   2.15000007E-03  -1.94917793E-05
   2.19999999E-03  -1.97681165E-05
   2.24999990E-03  -2.00471932E-05
   2.30000005E-03  -2.03290128E-05
   2.34999997E-03  -2.06135846E-05
   2.40000011E-03  -2.09009231E-05
   2.45000003E-03  -2.11910410E-05
   2.49999994E-03  -2.14839365E-05
   2.55000009E-03  -2.17796041E-05
   2.60000001E-03  -2.20780476E-05
   2.64999992E-03  -2.23792722E-05
   2.70000007E-03  -2.26832872E-05
   2.74999999E-03  -2.29900907E-05
   2.79999990E-03  -2.32996845E-05