  -3.99999991E-02   0.00000000    
  -3.99499983E-02   0.00000000    
  -3.99000011E-02   0.00000000    
  -3.98500003E-02   0.00000000    
  -3.97999994E-02  -1.96301979E-19
  -3.97499986E-02  -1.62361420E-18
  -3.97000015E-02  -7.21570328E-18
  -3.96500006E-02  -2.26827912E-17
  -3.95999998E-02  -5.62121835E-17
  -3.95499989E-02  -1.16397031E-16
  -3.95000018E-02  -2.09004678E-16
  -3.94500010E-02  -3.34378538E-16
  -3.94000001E-02  -4.87410075E-16
  -3.93499993E-02  -6.60879193E-16
  -3.92999984E-02  -8.51266577E-16
  -3.92500013E-02  -1.06486303E-15
  -3.92000005E-02  -1.32162604E-15
  -3.91499996E-02  -1.65476992E-15
  -3.90999988E-02  -2.10545455E-15
  -3.90500017E-02  -2.71397445E-15
  -3.90000008E-02  -3.51076967E-15
  -3.89500000E-02  -4.51115094E-15
  -3.88999991E-02  -5.71612561E-15
  -3.88499983E-02  -7.11892991E-15
  -3.88000011E-02  -8.71459683E-15
  -3.87500003E-02  -1.05093682E-14
  -3.86999995E-02  -1.25274614E-14
  -3.86499986E-02  -1.48133696E-14
  -3.86000015E-02  -1.74280502E-14
  -3.85500006E-02  -2.04380715E-14
  -3.84999998E-02  -2.38989194E-14
  -3.84499989E-02  -2.78365418E-14
  -3.84000018E-02  -3.22333035E-14
  -3.83500010E-02  -3.70241523E-14
  -3.83000001E-02  -4.21063636E-14
  -3.82499993E-02  -4.73626265E-14
  -3.81999984E-02  -5.26923916E-14
  -3.81500013E-02  -5.80416520E-14
  -3.81000005E-02  -6.34182106E-14
  -3.80499996E-02  -6.88814918E-14
  -3.79999988E-02  -7.45049706E-14
  -3.79500017E-02  -8.03214442E-14
  -3.79000008E-02  -8.62710172E-14
  -3.78500000E-02  -9.21718824E-14
  -3.77999991E-02  -9.77258435E-14
  -3.77499983E-02  -1.02556642E-13
  -3.77000012E-02  -1.06267879E-13
  -3.76500003E-02  -1.08499195E-13
  -3.75999995E-02  -1.08959154E-13
  -3.75499986E-02  -1.07419837E-13
  -3.75000015E-02  -1.03671859E-13
  -3.74500006E-02  -9.74549692E-14
  -3.73999998E-02  -8.83910390E-14
  -3.73499990E-02  -7.59478675E-14
  -3.73000018E-02  -5.94530664E-14
  -3.72500010E-02  -3.81638995E-14
  -3.72000001E-02  -1.13838933E-14
  -3.71499993E-02   2.13975634E-14
  -3.70999984E-02   6.03819634E-14
  -3.70500013E-02   1.05405952E-13
  -3.70000005E-02   1.56000497E-13
  -3.69499996E-02   2.11583409E-13
  -3.68999988E-02   2.71752429E-13
  -3.68500017E-02   3.36588233E-13
  -3.68000008E-02   4.06842420E-13
  -3.67500000E-02   4.83894392E-13
  -3.66999991E-02   5.69426505E-13
  -3.66499983E-02   6.64875761E-13
  -3.66000012E-02   7.70838254E-13
  -3.65500003E-02   8.86674469E-13
  -3.64999995E-02   1.01053530E-12
  -3.64499986E-02   1.13988517E-12
  -3.64000015E-02   1.27236871E-12
  -3.63500006E-02   1.40666200E-12
  -3.62999998E-02   1.54287824E-12
  -3.62499990E-02   1.68222630E-12
  -3.62000018E-02   1.82593719E-12
  -3.61500010E-02   1.97384990E-12
  -3.61000001E-02   2.12330782E-12
  -3.60499993E-02   2.26901072E-12
  -3.59999985E-02   2.40413288E-12
  -3.59500013E-02   2.52245143E-12
  -3.59000005E-02   2.62065521E-12
  -3.58499996E-02   2.69973562E-12
  -3.57999988E-02   2.76457221E-12
  -3.57500017E-02   2.82154617E-12
  -3.57000008E-02   2.87495635E-12
  -3.56500000E-02   2.92374024E-12
  -3.55999991E-02   2.96013734E-12
  -3.55499983E-02   2.97126776E-12
  -3.55000012E-02   2.94335021E-12
  -3.54500003E-02   2.86697098E-12
  -3.53999995E-02   2.74103288E-12
  -3.53499986E-02   2.57328989E-12
  -3.53000015E-02   2.37669216E-12
  -3.52500007E-02   2.16270274E-12
  -3.51999998E-02   1.93441313E-12
  -3.51499990E-02   1.68282911E-12
  -3.51000018E-02   1.38866078E-12
  -3.50500010E-02   1.02961639E-12
  -3.50000001E-02   5.90509846E-13
  -3.49499993E-02   7.17357217E-14
  -3.48999985E-02  -5.08194832E-13
  -3.48500013E-02  -1.11811103E-12
  -3.48000005E-02  -1.72614050E-12
  -3.47499996E-02  -2.31336109E-12
  -3.46999988E-02  -2.88288989E-12
  -3.46500017E-02  -3.45952780E-12
  -3.46000008E-02  -4.07897240E-12
  -3.45500000E-02  -4.77049129E-12
  -3.44999991E-02  -5.54055413E-12
  -3.44499983E-02  -6.36535703E-12
  -3.44000012E-02  -7.19683124E-12
  -3.43500003E-02  -7.98079311E-12
  -3.42999995E-02  -8.67990749E-12
  -3.42499986E-02  -9.29099853E-12
  -3.42000015E-02  -9.84773114E-12
  -3.41500007E-02  -1.04057154E-11
  -3.40999998E-02  -1.10151263E-11
  -3.40499990E-02  -1.16925254E-11
  -3.40000018E-02  -1.24052565E-11
  -3.39500010E-02  -1.30772780E-11
  -3.39000002E-02  -1.36160649E-11
  -3.38499993E-02  -1.39501240E-11
  -3.37999985E-02  -1.40605635E-11
  -3.37500013E-02  -1.39912162E-11
  -3.37000005E-02  -1.38304932E-11
  -3.36499996E-02  -1.36707668E-11
  -3.35999988E-02  -1.35623422E-11
  -3.35500017E-02  -1.34832822E-11
  -3.35000008E-02  -1.33408319E-11
  -3.34500000E-02  -1.30068005E-11
  -3.33999991E-02  -1.23733515E-11
  -3.33499983E-02  -1.14047122E-11
  -3.33000012E-02  -1.01599510E-11
  -3.32500003E-02  -8.77331888E-12
  -3.31999995E-02  -7.39747239E-12
  -3.31499986E-02  -6.13291145E-12
  -3.31000015E-02  -4.97557768E-12
  -3.30500007E-02  -3.80884603E-12
  -3.29999998E-02  -2.44763086E-12
  -3.29499990E-02  -7.18533360E-13
  -3.29000019E-02   1.45827480E-12
  -3.28500010E-02   4.02340617E-12
  -3.28000002E-02   6.79298848E-12
  -3.27499993E-02   9.53162202E-12
  -3.26999985E-02   1.20540071E-11
  -3.26500013E-02   1.43099716E-11
  -3.26000005E-02   1.64118944E-11
  -3.25499997E-02   1.85873747E-11
  -3.24999988E-02   2.10737278E-11
  -3.24500017E-02   2.39993910E-11
  -3.24000008E-02   2.73069241E-11
  -3.23500000E-02   3.07568380E-11
  -3.22999991E-02   3.40167339E-11
  -3.22499983E-02   3.68005522E-11
  -3.22000012E-02   3.89968162E-11
  -3.21500003E-02   4.07252843E-11
  -3.20999995E-02   4.22904385E-11
  -3.20499986E-02   4.40460134E-11
  -3.20000015E-02   4.62270812E-11
  -3.19500007E-02   4.88253327E-11
  -3.18999998E-02   5.15683191E-11
  -3.18499990E-02   5.40190843E-11
  -3.18000019E-02   5.57580093E-11
  -3.17500010E-02   5.65678962E-11
  -3.17000002E-02   5.65367198E-11
  -3.16499993E-02   5.60251880E-11
  -3.15999985E-02   5.55056695E-11
  -3.15500014E-02   5.53390979E-11
  -3.15000005E-02   5.55896648E-11
  -3.14499997E-02   5.59656974E-11
  -3.13999988E-02   5.59224715E-11
  -3.13500017E-02   5.48896414E-11
  -3.13000008E-02   5.25260703E-11
  -3.12500000E-02   4.88861451E-11
  -3.11999992E-02   4.44154852E-11
  -3.11500002E-02   3.97678245E-11
  -3.10999993E-02   3.55168152E-11
  -3.10500003E-02   3.18893037E-11
  -3.09999995E-02   2.86439171E-11
  -3.09500005E-02   2.51588507E-11
  -3.08999997E-02   2.07000476E-11
  -3.08500007E-02   1.47562622E-11
  -3.07999998E-02   7.29056225E-12
  -3.07500008E-02  -1.21176842E-12
  -3.07000000E-02  -9.93170303E-12
  -3.06499992E-02  -1.80668813E-11
  -3.06000002E-02  -2.51911252E-11
  -3.05499993E-02  -3.14579196E-11
  -3.05000003E-02  -3.75460218E-11
  -3.04499995E-02  -4.43585724E-11
  -3.04000005E-02  -5.26011908E-11
  -3.03499997E-02  -6.24265153E-11
  -3.03000007E-02  -7.33116970E-11
  -3.02499998E-02  -8.42368883E-11
  -3.02000009E-02  -9.40982084E-11
  -3.01500000E-02  -1.02177815E-10
  -3.00999992E-02  -1.08459165E-10
  -3.00500002E-02  -1.13636191E-10
  -2.99999993E-02  -1.18798249E-10
  -2.99500003E-02  -1.24920144E-10
  -2.98999995E-02  -1.32381911E-10
  -2.98500005E-02  -1.40739614E-10
  -2.97999997E-02  -1.48863463E-10
  -2.97500007E-02  -1.55397209E-10
  -2.96999998E-02  -1.59342942E-10
  -2.96500009E-02  -1.60509925E-10
  -2.96000000E-02  -1.59616431E-10
  -2.95499992E-02  -1.57982169E-10
  -2.95000002E-02  -1.56934091E-10
  -2.94499993E-02  -1.57183544E-10
  -2.94000003E-02  -1.58457608E-10
  -2.93499995E-02  -1.59563446E-10
  -2.93000005E-02  -1.58874913E-10
  -2.92499997E-02  -1.55037858E-10
  -2.92000007E-02  -1.47582835E-10
  -2.91499998E-02  -1.37163572E-10
  -2.91000009E-02  -1.25298480E-10
  -2.90500000E-02  -1.13713677E-10
  -2.89999992E-02  -1.03570971E-10
  -2.89500002E-02  -9.49274340E-11
  -2.88999993E-02  -8.66811206E-11
  -2.88500004E-02  -7.70459807E-11
  -2.87999995E-02  -6.43600243E-11
  -2.87500005E-02  -4.78720535E-11
  -2.86999997E-02  -2.81483413E-11
  -2.86500007E-02  -6.90014148E-12
  -2.85999998E-02   1.37116984E-11
  -2.85500009E-02   3.19992956E-11
  -2.85000000E-02   4.74879580E-11
  -2.84499992E-02   6.11324394E-11
  -2.84000002E-02   7.48930015E-11
  -2.83499993E-02   9.08407655E-11
  -2.83000004E-02   1.10181066E-10
  -2.82499995E-02   1.32633557E-10
  -2.82000005E-02   1.56461677E-10
  -2.81499997E-02   1.79159576E-10
  -2.81000007E-02   1.98507502E-10
  -2.80499998E-02   2.13530901E-10
  -2.80000009E-02   2.24926022E-10
  -2.79500000E-02   2.34742725E-10
  -2.78999992E-02   2.45444304E-10
  -2.78500002E-02   2.58749855E-10
  -2.77999993E-02   2.74776008E-10
  -2.77500004E-02   2.91876356E-10
  -2.76999995E-02   3.07274484E-10
  -2.76500005E-02   3.18230636E-10
  -2.75999997E-02   3.23233468E-10
  -2.75500007E-02   3.22681215E-10
  -2.74999999E-02   3.18729737E-10
  -2.74500009E-02   3.14351378E-10
  -2.74000000E-02   3.12004422E-10
  -2.73499992E-02   3.12501136E-10
  -2.73000002E-02   3.14588633E-10
  -2.72499993E-02   3.15451776E-10
  -2.72000004E-02   3.11937365E-10
  -2.71499995E-02   3.01968450E-10
  -2.71000005E-02   2.85517943E-10
  -2.70499997E-02   2.64690742E-10
  -2.70000007E-02   2.42853265E-10
  -2.69499999E-02   2.23176103E-10
  -2.69000009E-02   2.07229220E-10
  -2.68500000E-02   1.94263647E-10
  -2.67999992E-02   1.81520951E-10
  -2.67500002E-02   1.65459896E-10
  -2.66999993E-02   1.43373549E-10
  -2.66500004E-02   1.14681042E-10
  -2.65999995E-02   8.13058093E-11
  -2.65500005E-02   4.69469741E-11
  -2.64999997E-02   1.55425742E-11
  -2.64500007E-02  -1.04063650E-11
  -2.63999999E-02  -3.09030232E-11
  -2.63500009E-02  -4.84202851E-11
  -2.63000000E-02  -6.67539704E-11
  -2.62499992E-02  -8.92523208E-11
  -2.62000002E-02  -1.17201818E-10
  -2.61499994E-02  -1.49098192E-10
  -2.61000004E-02  -1.81151830E-10
  -2.60499995E-02  -2.08830758E-10
  -2.60000005E-02  -2.28774957E-10
  -2.59499997E-02  -2.40232750E-10
  -2.59000007E-02  -2.45364479E-10
  -2.58499999E-02  -2.48251558E-10
  -2.58000009E-02  -2.53024518E-10
  -2.57500000E-02  -2.61928867E-10
  -2.56999992E-02  -2.74192891E-10
  -2.56500002E-02  -2.86222906E-10
  -2.55999994E-02  -2.93068042E-10
  -2.55500004E-02  -2.90528296E-10
  -2.54999995E-02  -2.76977441E-10
  -2.54500005E-02  -2.54081117E-10
  -2.53999997E-02  -2.26066707E-10
  -2.53500007E-02  -1.97843048E-10
  -2.52999999E-02  -1.72788811E-10
  -2.52500009E-02  -1.51193155E-10
  -2.52000000E-02  -1.30060934E-10
  -2.51499992E-02  -1.04398316E-10
  -2.51000002E-02  -6.94352006E-11
  -2.50499994E-02  -2.28101912E-11
  -2.50000004E-02   3.42584815E-11
  -2.49499995E-02   9.73590791E-11
  -2.49000005E-02   1.60687505E-10
  -2.48499997E-02   2.19486498E-10
  -2.48000007E-02   2.72045997E-10
  -2.47499999E-02   3.20363680E-10
  -2.47000009E-02   3.69146297E-10
  -2.46500000E-02   4.23568014E-10
  -2.45999992E-02   4.86764073E-10
  -2.45500002E-02   5.58174396E-10
  -2.44999994E-02   6.33491204E-10
  -2.44500004E-02   7.06261438E-10
  -2.43999995E-02   7.70456809E-10
  -2.43500005E-02   8.22879154E-10
  -2.42999997E-02   8.64323835E-10
  -2.42500007E-02   8.98959407E-10
  -2.41999999E-02   9.32171007E-10
  -2.41500009E-02   9.67803726E-10
  -2.41000000E-02   1.00602726E-09
  -2.40499992E-02   1.04278908E-09
  -2.40000002E-02   1.07112486E-09
  -2.39499994E-02   1.08377707E-09
  -2.39000004E-02   1.07597442E-09
  -2.38499995E-02   1.04713926E-09
  -2.38000005E-02   1.00074538E-09
  -2.37499997E-02   9.42364076E-10
  -2.37000007E-02   8.76743733E-10
  -2.36499999E-02   8.05212452E-10
  -2.36000009E-02   7.24567351E-10
  -2.35500000E-02   6.27968122E-10
  -2.34999992E-02   5.07466902E-10
  -2.34500002E-02   3.57068708E-10
  -2.33999994E-02   1.74967305E-10
  -2.33500004E-02  -3.60522931E-11
  -2.32999995E-02  -2.70247658E-10
  -2.32500006E-02  -5.21887811E-10
  -2.31999997E-02  -7.88250354E-10
  -2.31500007E-02  -1.07130971E-09
  -2.30999999E-02  -1.37734613E-09
  -2.30500009E-02  -1.71462211E-09
  -2.30000000E-02  -2.09013296E-09
  -2.29499992E-02  -2.50686893E-09
  -2.29000002E-02  -2.96281044E-09
  -2.28499994E-02  -3.45212148E-09
  -2.28000004E-02  -3.96803479E-09
  -2.27499995E-02  -4.50615989E-09
  -2.27000006E-02  -5.06674303E-09
  -2.26499997E-02  -5.65486413E-09
  -2.26000007E-02  -6.27845553E-09
  -2.25499999E-02  -6.94500990E-09
  -2.25000009E-02  -7.65842767E-09
  -2.24500000E-02  -8.41741166E-09
  -2.23999992E-02  -9.21614340E-09
  -2.23500002E-02  -1.00469633E-08
  -2.22999994E-02  -1.09038742E-08
  -2.22500004E-02  -1.17853292E-08
  -2.21999995E-02  -1.26950468E-08
  -2.21500006E-02  -1.36404772E-08
  -2.20999997E-02  -1.46295793E-08
  -2.20500007E-02  -1.56673288E-08
  -2.19999999E-02  -1.67535141E-08
  -2.19500009E-02  -1.78828099E-08
  -2.19000001E-02  -1.90471017E-08
  -2.18499992E-02  -2.02390709E-08
  -2.18000002E-02  -2.14554152E-08
  -2.17499994E-02  -2.26983037E-08
  -2.17000004E-02  -2.39743922E-08
  -2.16499995E-02  -2.52918255E-08
  -2.16000006E-02  -2.66565330E-08
  -2.15499997E-02  -2.80695112E-08
  -2.15000007E-02  -2.95262499E-08
  -2.14499999E-02  -3.10186223E-08
  -2.14000009E-02  -3.25383880E-08
  -2.13500001E-02  -3.40807702E-08
  -2.12999992E-02  -3.56465293E-08
  -2.12500002E-02  -3.72416054E-08
  -2.11999994E-02  -3.88744539E-08
  -2.11500004E-02  -4.05522904E-08
  -2.10999995E-02  -4.22778825E-08
  -2.10500006E-02  -4.40483454E-08
  -2.09999997E-02  -4.58564244E-08
  -2.09500007E-02  -4.76937849E-08
  -2.08999999E-02  -4.95547852E-08
  -2.08500009E-02  -5.14390734E-08
  -2.08000001E-02  -5.33518829E-08
  -2.07499992E-02  -5.53018289E-08
  -2.07000002E-02  -5.72972780E-08
  -2.06499994E-02  -5.93428133E-08
  -2.06000004E-02  -6.14374116E-08
  -2.05499995E-02  -6.35751718E-08
  -2.05000006E-02  -6.57482175E-08
  -2.04499997E-02  -6.79505661E-08
  -2.04000007E-02  -7.01811445E-08
  -2.03499999E-02  -7.24447489E-08
  -2.03000009E-02  -7.47503748E-08
  -2.02500001E-02  -7.71077993E-08
  -2.01999992E-02  -7.95238577E-08
  -2.01500002E-02  -8.20000423E-08
  -2.00999994E-02  -8.45326156E-08
  -2.00500004E-02  -8.71149695E-08
  -1.99999996E-02  -8.97414338E-08
  -1.99500006E-02  -9.24105734E-08
  -1.98999997E-02  -9.51267509E-08
  -1.98500007E-02  -9.78990613E-08
  -1.97999999E-02  -1.00738291E-07
  -1.97500009E-02  -1.03653115E-07
  -1.97000001E-02  -1.06647356E-07
  -1.96499992E-02  -1.09719394E-07
  -1.96000002E-02  -1.12864043E-07
  -1.95499994E-02  -1.16076102E-07
  -1.95000004E-02  -1.19353857E-07
  -1.94499996E-02  -1.22701138E-07
  -1.94000006E-02  -1.26126963E-07
  -1.93499997E-02  -1.29642828E-07
  -1.93000007E-02  -1.33259192E-07
  -1.92499999E-02  -1.36982194E-07
  -1.92000009E-02  -1.40812688E-07
  -1.91500001E-02  -1.44747332E-07
  -1.90999992E-02  -1.48781851E-07
  -1.90500002E-02  -1.52914438E-07
  -1.89999994E-02  -1.57148293E-07
  -1.89500004E-02  -1.61491784E-07
  -1.88999996E-02  -1.65956450E-07
  -1.88500006E-02  -1.70553548E-07
  -1.87999997E-02  -1.75290836E-07
  -1.87500007E-02  -1.80170971E-07
  -1.86999999E-02  -1.85192206E-07
  -1.86500009E-02  -1.90350946E-07
  -1.86000001E-02  -1.95645228E-07
  -1.85499992E-02  -2.01077469E-07
  -1.85000002E-02  -2.06655102E-07
  -1.84499994E-02  -2.12389196E-07
  -1.84000004E-02  -2.18291433E-07
  -1.83499996E-02  -2.24370936E-07
  -1.83000006E-02  -2.30632196E-07
  -1.82499997E-02  -2.37075199E-07
  -1.82000007E-02  -2.43697599E-07
  -1.81499999E-02  -2.50497664E-07
  -1.81000009E-02  -2.57477268E-07
  -1.80500001E-02  -2.64643006E-07
  -1.79999992E-02  -2.72005167E-07
  -1.79500002E-02  -2.79575431E-07
  -1.78999994E-02  -2.87363747E-07
  -1.78500004E-02  -2.95376083E-07
  -1.77999996E-02  -3.03614058E-07
  -1.77500006E-02  -3.12076452E-07
  -1.76999997E-02  -3.20762069E-07
  -1.76500008E-02  -3.29672417E-07
  -1.75999999E-02  -3.38813294E-07
  -1.75500009E-02  -3.48194447E-07
  -1.75000001E-02  -3.57827560E-07
  -1.74499992E-02  -3.67723572E-07
  -1.74000002E-02  -3.77890245E-07
  -1.73499994E-02  -3.88331586E-07
  -1.73000004E-02  -3.99048673E-07
  -1.72499996E-02  -4.10041878E-07
  -1.72000006E-02  -4.21313558E-07
  -1.71499997E-02  -4.32869683E-07
  -1.71000008E-02  -4.44719916E-07
  -1.70499999E-02  -4.56876052E-07
  -1.70000009E-02  -4.69349942E-07
  -1.69500001E-02  -4.82151108E-07
  -1.68999992E-02  -4.95285690E-07
  -1.68500002E-02  -5.08757182E-07
  -1.67999994E-02  -5.22567973E-07
  -1.67500004E-02  -5.36721586E-07
  -1.66999996E-02  -5.51224616E-07
  -1.66500006E-02  -5.66086953E-07
  -1.65999997E-02  -5.81321046E-07
  -1.65500008E-02  -5.96939913E-07
  -1.64999999E-02  -6.12955205E-07
  -1.64500009E-02  -6.29376132E-07
  -1.64000001E-02  -6.46209401E-07
  -1.63499992E-02  -6.63460753E-07
  -1.63000003E-02  -6.81136328E-07
  -1.62499994E-02  -6.99244595E-07
  -1.62000004E-02  -7.17796922E-07
  -1.61499996E-02  -7.36806726E-07
  -1.61000006E-02  -7.56288557E-07
  -1.60499997E-02  -7.76256115E-07
  -1.60000008E-02  -7.96721565E-07
  -1.59499999E-02  -8.17694684E-07
  -1.59000009E-02  -8.39184509E-07
  -1.58500001E-02  -8.61200078E-07
  -1.57999992E-02  -8.83751852E-07
  -1.57500003E-02  -9.06852847E-07
  -1.56999994E-02  -9.30517842E-07
  -1.56500004E-02  -9.54763095E-07
  -1.55999996E-02  -9.79604692E-07
  -1.55499997E-02  -1.00505792E-06
  -1.54999997E-02  -1.03113689E-06
  -1.54499998E-02  -1.05785443E-06
  -1.53999999E-02  -1.08522386E-06
  -1.53500000E-02  -1.11325858E-06
  -1.53000001E-02  -1.14197417E-06
  -1.52500002E-02  -1.17138723E-06
  -1.52000003E-02  -1.20151583E-06
  -1.51500003E-02  -1.23237783E-06
  -1.51000004E-02  -1.26399118E-06
  -1.50499996E-02  -1.29637317E-06
  -1.49999997E-02  -1.32954017E-06
  -1.49499997E-02  -1.36350911E-06
  -1.48999998E-02  -1.39829672E-06
  -1.48499999E-02  -1.43392037E-06
  -1.48000000E-02  -1.47039850E-06
  -1.47500001E-02  -1.50775031E-06
  -1.47000002E-02  -1.54599570E-06
  -1.46500003E-02  -1.58515456E-06
  -1.46000003E-02  -1.62524759E-06
  -1.45500004E-02  -1.66629502E-06
  -1.44999996E-02  -1.70831743E-06
  -1.44499997E-02  -1.75133528E-06
  -1.43999998E-02  -1.79536880E-06
  -1.43499998E-02  -1.84043870E-06
  -1.42999999E-02  -1.88656543E-06
  -1.42500000E-02  -1.93377036E-06
  -1.42000001E-02  -1.98207499E-06
  -1.41500002E-02  -2.03150239E-06
  -1.41000003E-02  -2.08207575E-06
  -1.40500003E-02  -2.13381873E-06
  -1.40000004E-02  -2.18675518E-06
  -1.39499996E-02  -2.24090786E-06
  -1.38999997E-02  -2.29629882E-06
  -1.38499998E-02  -2.35295010E-06
  -1.37999998E-02  -2.41088378E-06
  -1.37499999E-02  -2.47012326E-06
  -1.37000000E-02  -2.53069334E-06
  -1.36500001E-02  -2.59262083E-06
  -1.36000002E-02  -2.65593280E-06
  -1.35500003E-02  -2.72065677E-06
  -1.35000004E-02  -2.78681887E-06
  -1.34500004E-02  -2.85444366E-06
  -1.33999996E-02  -2.92355526E-06
  -1.33499997E-02  -2.99417684E-06
  -1.32999998E-02  -3.06633387E-06
  -1.32499998E-02  -3.14005342E-06
  -1.31999999E-02  -3.21536504E-06
  -1.31500000E-02  -3.29229988E-06
  -1.31000001E-02  -3.37088863E-06
  -1.30500002E-02  -3.45116109E-06
  -1.30000003E-02  -3.53314408E-06
  -1.29500004E-02  -3.61686443E-06
  -1.29000004E-02  -3.70234739E-06
  -1.28499996E-02  -3.78961931E-06
  -1.27999997E-02  -3.87870978E-06
  -1.27499998E-02  -3.96965152E-06
  -1.26999998E-02  -4.06247955E-06
  -1.26499999E-02  -4.15723025E-06
  -1.26000000E-02  -4.25393819E-06
  -1.25500001E-02  -4.35263564E-06
  -1.25000002E-02  -4.45335218E-06
  -1.24500003E-02  -4.55611553E-06
  -1.24000004E-02  -4.66095480E-06
  -1.23500004E-02  -4.76790365E-06
  -1.22999996E-02  -4.87699754E-06
  -1.22499997E-02  -4.98827512E-06
  -1.21999998E-02  -5.10177733E-06
  -1.21499998E-02  -5.21754373E-06
  -1.20999999E-02  -5.33560979E-06
  -1.20500000E-02  -5.45600824E-06
  -1.20000001E-02  -5.57877047E-06
  -1.19500002E-02  -5.70392831E-06
  -1.19000003E-02  -5.83151632E-06
  -1.18500004E-02  -5.96157406E-06
  -1.18000004E-02  -6.09414747E-06
  -1.17499996E-02  -6.22928246E-06
  -1.16999997E-02  -6.36702498E-06
  -1.16499998E-02  -6.50741731E-06
  -1.15999999E-02  -6.65049674E-06
  -1.15499999E-02  -6.79629693E-06
  -1.15000000E-02  -6.94485198E-06
  -1.14500001E-02  -7.09620053E-06
  -1.14000002E-02  -7.25038444E-06
  -1.13500003E-02  -7.40745281E-06
  -1.13000004E-02  -7.56745658E-06
  -1.12500004E-02  -7.73044576E-06
  -1.11999996E-02  -7.89646674E-06
  -1.11499997E-02  -8.06556181E-06
  -1.10999998E-02  -8.23776918E-06
  -1.10499999E-02  -8.41312522E-06
  -1.09999999E-02  -8.59167085E-06
  -1.09500000E-02  -8.77345701E-06
  -1.09000001E-02  -8.95853736E-06
  -1.08500002E-02  -9.14696648E-06
  -1.08000003E-02  -9.33880165E-06
  -1.07500004E-02  -9.53409472E-06
  -1.07000005E-02  -9.73288934E-06
  -1.06499996E-02  -9.93522644E-06
  -1.05999997E-02  -1.01411470E-05
  -1.05499998E-02  -1.03506936E-05
  -1.04999999E-02  -1.05639147E-05
  -1.04499999E-02  -1.07808673E-05
  -1.04000000E-02  -1.10016117E-05
  -1.03500001E-02  -1.12262078E-05
  -1.03000002E-02  -1.14547129E-05
  -1.02500003E-02  -1.16871752E-05
  -1.02000004E-02  -1.19236392E-05
  -1.01500005E-02  -1.21641460E-05
  -1.00999996E-02  -1.24087437E-05
  -1.00499997E-02  -1.26574823E-05
  -9.99999978E-03  -1.29104228E-05
  -9.94999986E-03  -1.31676288E-05
  -9.89999995E-03  -1.34291658E-05
  -9.85000003E-03  -1.36950930E-05
  -9.80000012E-03  -1.39654621E-05
  -9.75000020E-03  -1.42403196E-05
  -9.70000029E-03  -1.45197082E-05
  -9.65000037E-03  -1.48036752E-05
  -9.60000046E-03  -1.50922697E-05
  -9.54999961E-03  -1.53855544E-05
  -9.49999969E-03  -1.56835958E-05
  -9.44999978E-03  -1.59864576E-05
  -9.39999986E-03  -1.62942033E-05
  -9.34999995E-03  -1.66068821E-05
  -9.30000003E-03  -1.69245450E-05
  -9.25000012E-03  -1.72472301E-05
  -9.20000020E-03  -1.75749792E-05
  -9.15000029E-03  -1.79078488E-05
  -9.10000037E-03  -1.82458989E-05
  -9.05000046E-03  -1.85892022E-05
  -8.99999961E-03  -1.89378243E-05
  -8.94999970E-03  -1.92918324E-05
  -8.89999978E-03  -1.96512792E-05
  -8.84999987E-03  -2.00162103E-05
  -8.79999995E-03  -2.03866657E-05
  -8.75000004E-03  -2.07626908E-05
  -8.70000012E-03  -2.11443330E-05
  -8.65000021E-03  -2.15316559E-05
  -8.60000029E-03  -2.19247304E-05
  -8.55000038E-03  -2.23236202E-05
  -8.50000046E-03  -2.27283927E-05
  -8.44999962E-03  -2.31391004E-05
  -8.39999970E-03  -2.35557800E-05
  -8.34999979E-03  -2.39784695E-05
  -8.29999987E-03  -2.44072053E-05
  -8.24999996E-03  -2.48420329E-05
  -8.20000004E-03  -2.52830068E-05
  -8.15000013E-03  -2.57301963E-05
  -8.10000021E-03  -2.61836685E-05
  -8.05000030E-03  -2.66434872E-05
  -8.00000038E-03  -2.71097033E-05
  -7.95000046E-03  -2.75823568E-05
  -7.89999962E-03  -2.80614768E-05
  -7.84999970E-03  -2.85470942E-05
  -7.79999979E-03  -2.90392509E-05
  -7.74999987E-03  -2.95379996E-05
  -7.69999996E-03  -3.00434094E-05
  -7.65000004E-03  -3.05555404E-05
  -7.60000013E-03  -3.10744581E-05
  -7.55000021E-03  -3.16002042E-05
  -7.49999983E-03  -3.21328116E-05
  -7.44999992E-03  -3.26722911E-05
  -7.40000000E-03  -3.32186646E-05
  -7.35000009E-03  -3.37719684E-05
  -7.30000017E-03  -3.43322354E-05
  -7.24999979E-03  -3.48995236E-05
  -7.19999988E-03  -3.54738950E-05
  -7.14999996E-03  -3.60553968E-05
  -7.10000005E-03  -3.66440654E-05
  -7.05000013E-03  -3.72399263E-05
  -7.00000022E-03  -3.78429795E-05
  -6.94999984E-03  -3.84532359E-05
  -6.89999992E-03  -3.90707028E-05
  -6.85000001E-03  -3.96954165E-05
  -6.80000009E-03  -4.03274207E-05
  -6.75000018E-03  -4.09667628E-05
  -6.69999979E-03  -4.16134826E-05
  -6.64999988E-03  -4.22676094E-05
  -6.59999996E-03  -4.29291504E-05
  -6.55000005E-03  -4.35980983E-05
  -6.50000013E-03  -4.42744386E-05
  -6.45000022E-03  -4.49581676E-05
  -6.39999984E-03  -4.56492889E-05
  -6.34999992E-03  -4.63478318E-05
  -6.30000001E-03  -4.70538253E-05
  -6.25000009E-03  -4.77672984E-05
  -6.20000018E-03  -4.84882621E-05
  -6.14999980E-03  -4.92167055E-05
  -6.09999988E-03  -4.99526031E-05
  -6.04999997E-03  -5.06959004E-05
  -6.00000005E-03  -5.14465792E-05
  -5.95000014E-03  -5.22046139E-05
  -5.90000022E-03  -5.29700083E-05
  -5.84999984E-03  -5.37427768E-05
  -5.79999993E-03  -5.45229232E-05
  -5.75000001E-03  -5.53104437E-05
  -5.70000010E-03  -5.61053057E-05
  -5.65000018E-03  -5.69074618E-05
  -5.59999980E-03  -5.77168394E-05
  -5.54999989E-03  -5.85333692E-05
  -5.49999997E-03  -5.93570076E-05
  -5.45000006E-03  -6.01877182E-05
  -5.40000014E-03  -6.10254829E-05
  -5.35000023E-03  -6.18702979E-05
  -5.29999984E-03  -6.27221452E-05
  -5.24999993E-03  -6.35809483E-05
  -5.20000001E-03  -6.44466199E-05
  -5.15000010E-03  -6.53190727E-05
  -5.10000018E-03  -6.61981903E-05
  -5.04999980E-03  -6.70838926E-05
  -4.99999989E-03  -6.79760997E-05
  -4.94999997E-03  -6.88747532E-05
  -4.90000006E-03  -6.97798168E-05
  -4.85000014E-03  -7.06912397E-05
  -4.80000023E-03  -7.16089198E-05
  -4.74999985E-03  -7.25327627E-05
  -4.69999993E-03  -7.34626010E-05
  -4.65000002E-03  -7.43983037E-05
  -4.60000010E-03  -7.53397253E-05
  -4.55000019E-03  -7.62867639E-05
  -4.49999981E-03  -7.72393105E-05
  -4.44999989E-03  -7.81972922E-05
  -4.39999998E-03  -7.91606144E-05
  -4.35000006E-03  -8.01291535E-05
  -4.30000015E-03  -8.11027567E-05
  -4.25000023E-03  -8.20812420E-05
  -4.19999985E-03  -8.30644058E-05
  -4.14999994E-03  -8.40520734E-05
  -4.10000002E-03  -8.50440629E-05
  -4.05000011E-03  -8.60402506E-05
  -4.00000019E-03  -8.70404911E-05
  -3.94999981E-03  -8.80446605E-05
  -3.89999989E-03  -8.90525916E-05
  -3.84999998E-03  -9.00640953E-05
  -3.80000006E-03  -9.10789313E-05
  -3.74999992E-03  -9.20968523E-05
  -3.70000000E-03  -9.31176037E-05
  -3.65000009E-03  -9.41409598E-05
  -3.59999994E-03  -9.51667171E-05
  -3.55000002E-03  -9.61946862E-05
  -3.50000011E-03  -9.72247144E-05
  -3.44999996E-03  -9.82565834E-05
  -3.40000005E-03  -9.92900532E-05
  -3.34999990E-03  -1.00324833E-04
  -3.29999998E-03  -1.01360602E-04
  -3.25000007E-03  -1.02397054E-04
  -3.19999992E-03  -1.03433900E-04
  -3.15000000E-03  -1.04470877E-04
  -3.10000009E-03  -1.05507745E-04
  -3.04999994E-03  -1.06544263E-04
  -3.00000003E-03  -1.07580177E-04
  -2.95000011E-03  -1.08615212E-04
  -2.89999996E-03  -1.09648994E-04
  -2.85000005E-03  -1.10681169E-04
  -2.79999990E-03  -1.11711328E-04
  -2.74999999E-03  -1.12739122E-04
  -2.70000007E-03  -1.13764196E-04
  -2.64999992E-03  -1.14786242E-04
  -2.60000001E-03  -1.15804993E-04
  -2.55000009E-03  -1.16820098E-04
  -2.49999994E-03  -1.17831230E-04
  -2.45000003E-03  -1.18837954E-04
  -2.40000011E-03  -1.19839831E-04
  -2.34999997E-03  -1.20836412E-04
  -2.30000005E-03  -1.21827245E-04
  -2.24999990E-03  -1.22811907E-04
  -2.19999999E-03  -1.23790000E-04
  -2.15000007E-03  -1.24761180E-04
  -2.09999993E-03  -1.25725055E-04
  -2.05000001E-03  -1.26681232E-04
  -2.00000009E-03  -1.27629231E-04
  -1.94999995E-03  -1.28568528E-04
  -1.90000003E-03  -1.29498585E-04
  -1.85000000E-03  -1.30418848E-04
  -1.79999997E-03  -1.31328823E-04
  -1.75000005E-03  -1.32228030E-04
  -1.70000002E-03  -1.33116046E-04
  -1.64999999E-03  -1.33992420E-04
  -1.59999996E-03  -1.34856673E-04
  -1.55000004E-03  -1.35708280E-04
  -1.50000001E-03  -1.36546616E-04
  -1.44999998E-03  -1.37371055E-04
  -1.39999995E-03  -1.38180942E-04
  -1.35000004E-03  -1.38975694E-04
  -1.30000000E-03  -1.39754760E-04
  -1.24999997E-03  -1.40517615E-04
  -1.20000006E-03  -1.41263736E-04
  -1.15000003E-03  -1.41992597E-04
  -1.09999999E-03  -1.42703560E-04
  -1.04999996E-03  -1.43395970E-04
  -1.00000005E-03  -1.44069098E-04
  -9.50000016E-04  -1.44722202E-04
  -8.99999985E-04  -1.45354599E-04
  -8.50000011E-04  -1.45965634E-04
  -7.99999980E-04  -1.46554710E-04
  -7.50000007E-04  -1.47121245E-04
  -6.99999975E-04  -1.47664643E-04
  -6.50000002E-04  -1.48184205E-04
  -6.00000028E-04  -1.48679144E-04
  -5.49999997E-04  -1.49148662E-04
  -5.00000024E-04  -1.49591928E-04
  -4.49999992E-04  -1.50008142E-04
  -3.99999990E-04  -1.50396576E-04
  -3.49999988E-04  -1.50756503E-04
  -3.00000014E-04  -1.51087253E-04
  -2.50000012E-04  -1.51388173E-04
  -1.99999995E-04  -1.51658489E-04
  -1.50000007E-04  -1.51897373E-04
  -9.99999975E-05  -1.52103938E-04
  -4.99999987E-05  -1.52277251E-04
   0.00000000      -1.52416411E-04
   4.99999987E-05  -1.52520603E-04
   9.99999975E-05  -1.52588967E-04
   1.50000007E-04  -1.52620822E-04
   1.99999995E-04  -1.52615408E-04
   2.50000012E-04  -1.52571898E-04
   3.00000014E-04  -1.52489403E-04
   3.49999988E-04  -1.52366949E-04
   3.99999990E-04  -1.52203531E-04
   4.49999992E-04  -1.51998116E-04
   5.00000024E-04  -1.51749759E-04
   5.49999997E-04  -1.51457571E-04
   6.00000028E-04  -1.51120723E-04
   6.50000002E-04  -1.50738415E-04
   6.99999975E-04  -1.50309745E-04
   7.50000007E-04  -1.49833781E-04
   7.99999980E-04  -1.49309490E-04
   8.50000011E-04  -1.48735751E-04
   8.99999985E-04  -1.48111489E-04
   9.50000016E-04  -1.47435625E-04
   1.00000005E-03  -1.46707200E-04
   1.04999996E-03  -1.45925282E-04
   1.09999999E-03  -1.45088998E-04
   1.15000003E-03  -1.44197416E-04
   1.20000006E-03  -1.43249548E-04
   1.24999997E-03  -1.42244287E-04
   1.30000000E-03  -1.41180484E-04
   1.35000004E-03  -1.40056989E-04
   1.39999995E-03  -1.38872594E-04
   1.44999998E-03  -1.37626266E-04
   1.50000001E-03  -1.36317001E-04
   1.55000004E-03  -1.34943853E-04
   1.59999996E-03  -1.33505862E-04
   1.64999999E-03  -1.32002009E-04
   1.70000002E-03  -1.30431159E-04
   1.75000005E-03  -1.28792104E-04
   1.79999997E-03  -1.27083578E-04
   1.85000000E-03  -1.25304345E-04
   1.90000003E-03  -1.23453254E-04
   1.94999995E-03  -1.21529207E-04
   2.00000009E-03  -1.19531207E-04
   2.05000001E-03  -1.17458272E-04
   2.09999993E-03  -1.15309354E-04
   2.15000007E-03  -1.13083304E-04
   2.19999999E-03  -1.10778885E-04
   2.24999990E-03  -1.08394794E-04
   2.30000005E-03  -1.05929728E-04
   2.34999997E-03  -1.03382437E-04
   2.40000011E-03  -1.00751815E-04
   2.45000003E-03  -9.80367913E-05
   2.49999994E-03  -9.52363698E-05
   2.55000009E-03  -9.23494808E-05
   2.60000001E-03  -8.93749966E-05
   2.64999992E-03  -8.63116584E-05
   2.70000007E-03  -8.31581201E-05
   2.74999999E-03  -7.99130576E-05
   2.79999990E-03  -7.65751756E-05