  -3.99999991E-02   0.00000000    
  -3.99499983E-02   0.00000000    
  -3.99000011E-02   0.00000000    
  -3.98500003E-02   0.00000000    
  -3.97999994E-02   1.87814319E-17
  -3.97499986E-02   1.44342210E-16
  -3.97000015E-02   5.58316738E-16
  -3.96500006E-02   1.46791985E-15
  -3.95999998E-02   3.01809973E-15
  -3.95499989E-02   5.34097853E-15
  -3.95000018E-02   8.68515058E-15
  -3.94500010E-02   1.32706253E-14
  -3.94000001E-02   1.86965159E-14
  -3.93499993E-02   2.34392888E-14
  -3.92999984E-02   2.53486756E-14
  -3.92500013E-02   2.32475782E-14
  -3.92000005E-02   1.83361440E-14
  -3.91499996E-02   1.37895795E-14
  -3.90999988E-02   1.25055157E-14
  -3.90500017E-02   1.48902869E-14
  -3.90000008E-02   1.85654104E-14
  -3.89500000E-02   1.97624052E-14
  -3.88999991E-02   1.45094745E-14
  -3.88499983E-02  -1.30862906E-15
  -3.88000011E-02  -3.15881015E-14
  -3.87500003E-02  -7.77021676E-14
  -3.86999995E-02  -1.35612387E-13
  -3.86499986E-02  -1.96398846E-13
  -3.86000015E-02  -2.52241018E-13
  -3.85500006E-02  -3.04167526E-13
  -3.84999998E-02  -3.64610956E-13
  -3.84499989E-02  -4.51506400E-13
  -3.84000018E-02  -5.78240960E-13
  -3.83500010E-02  -7.47192022E-13
  -3.83000001E-02  -9.50216902E-13
  -3.82499993E-02  -1.17264260E-12
  -3.81999984E-02  -1.39613147E-12
  -3.81500013E-02  -1.60094952E-12
  -3.81000005E-02  -1.77181100E-12
  -3.80499996E-02  -1.90727599E-12
  -3.79999988E-02  -2.02492580E-12
  -3.79500017E-02  -2.15401026E-12
  -3.79000008E-02  -2.31755392E-12
  -3.78500000E-02  -2.51714513E-12
  -3.77999991E-02  -2.73274957E-12
  -3.77499983E-02  -2.93632349E-12
  -3.77000012E-02  -3.10585780E-12
  -3.76500003E-02  -3.22878378E-12
  -3.75999995E-02  -3.29696622E-12
  -3.75499986E-02  -3.30376048E-12
  -3.75000015E-02  -3.24733773E-12
  -3.74500006E-02  -3.13270568E-12
  -3.73999998E-02  -2.96364951E-12
  -3.73499990E-02  -2.72824601E-12
  -3.73000018E-02  -2.39236235E-12
  -3.72500010E-02  -1.90976488E-12
  -3.72000001E-02  -1.24033043E-12
  -3.71499993E-02  -3.59501383E-13
  -3.70999984E-02   7.46050736E-13
  -3.70500013E-02   2.08290568E-12
  -3.70000005E-02   3.63997200E-12
  -3.69499996E-02   5.36656266E-12
  -3.68999988E-02   7.16434898E-12
  -3.68500017E-02   8.91369877E-12
  -3.68000008E-02   1.05267297E-11
  -3.67500000E-02   1.19951210E-11
  -3.66999991E-02   1.34034997E-11
  -3.66499983E-02   1.49036512E-11
  -3.66000012E-02   1.66646714E-11
  -3.65500003E-02   1.88152393E-11
  -3.64999995E-02   2.13883702E-11
  -3.64499986E-02   2.42841997E-11
  -3.64000015E-02   2.72789916E-11
  -3.63500006E-02   3.01013728E-11
  -3.62999998E-02   3.25563222E-11
  -3.62499990E-02   3.46288102E-11
  -3.62000018E-02   3.64899430E-11
  -3.61500010E-02   3.83802816E-11
  -3.61000001E-02   4.04247920E-11
  -3.60499993E-02   4.24834612E-11
  -3.59999985E-02   4.41268307E-11
  -3.59500013E-02   4.47634430E-11
  -3.59000005E-02   4.38779638E-11
  -3.58499996E-02   4.12908943E-11
  -3.57999988E-02   3.73287304E-11
  -3.57500017E-02   3.27997039E-11
  -3.57000008E-02   2.87247934E-11
  -3.56500000E-02   2.58848741E-11
  -3.55999991E-02   2.43720408E-11
  -3.55499983E-02   2.33893200E-11
  -3.55000012E-02   2.14608852E-11
  -3.54500003E-02   1.70160743E-11
  -3.53999995E-02   9.10235862E-12
  -3.53499986E-02  -2.11160256E-12
  -3.53000015E-02  -1.53047297E-11
  -3.52500007E-02  -2.85040342E-11
  -3.51999998E-02  -3.99417652E-11
  -3.51499990E-02  -4.89183208E-11
  -3.51000018E-02  -5.62691178E-11
  -3.50500010E-02  -6.41485406E-11
  -3.50000001E-02  -7.51195703E-11
  -3.49499993E-02  -9.08862915E-11
  -3.48999985E-02  -1.11259855E-10
  -3.48500013E-02  -1.33929298E-10
  -3.48000005E-02  -1.55269658E-10
  -3.47499996E-02  -1.71907405E-10
  -3.46999988E-02  -1.82339976E-10
  -3.46500017E-02  -1.87810753E-10
  -3.46000008E-02  -1.91936786E-10
  -3.45500000E-02  -1.99138359E-10
  -3.44999991E-02  -2.12492413E-10
  -3.44499983E-02  -2.31969721E-10
  -3.44000012E-02  -2.53957105E-10
  -3.43500003E-02  -2.72477263E-10
  -3.42999995E-02  -2.81747570E-10
  -3.42499986E-02  -2.78993190E-10
  -3.42000015E-02  -2.66136696E-10
  -3.41500007E-02  -2.49361892E-10
  -3.40999998E-02  -2.36501846E-10
  -3.40499990E-02  -2.33297964E-10
  -3.40000018E-02  -2.40252068E-10
  -3.39500010E-02  -2.51667381E-10
  -3.39000002E-02  -2.57565497E-10
  -3.38499993E-02  -2.47861343E-10
  -3.37999985E-02  -2.17051890E-10
  -3.37500013E-02  -1.67253475E-10
  -3.37000005E-02  -1.07964825E-10
  -3.36499996E-02  -5.23017463E-11
  -3.35999988E-02  -1.11177638E-11
  -3.35500017E-02   1.23714381E-11
  -3.35000008E-02   2.47886971E-11
  -3.34500000E-02   4.02277725E-11
  -3.33999991E-02   7.40363257E-11
  -3.33499983E-02   1.35422881E-10
  -3.33000012E-02   2.22362934E-10
  -3.32500003E-02   3.21449922E-10
  -3.31999995E-02   4.13172524E-10
  -3.31499986E-02   4.80565865E-10
  -3.31000015E-02   5.17419219E-10
  -3.30500007E-02   5.32090039E-10
  -3.29999998E-02   5.44697287E-10
  -3.29499990E-02   5.78405379E-10
  -3.29000019E-02   6.48433585E-10
  -3.28500010E-02   7.53890117E-10
  -3.28000002E-02   8.76630601E-10
  -3.27499993E-02   9.88305993E-10
  -3.26999985E-02   1.06285747E-09
  -3.26500013E-02   1.08885467E-09
  -3.26000005E-02   1.07573694E-09
  -3.25499997E-02   1.05050002E-09
  -3.24999988E-02   1.04568953E-09
  -3.24500017E-02   1.08375997E-09
  -3.24000008E-02   1.16496124E-09
  -3.23500000E-02   1.26483057E-09
  -3.22999991E-02   1.34332356E-09
  -3.22499983E-02   1.36223244E-09
  -3.22000012E-02   1.30326994E-09
  -3.21500003E-02   1.17820531E-09
  -3.20999995E-02   1.02554587E-09
  -3.20499986E-02   8.94280983E-10
  -3.20000015E-02   8.21483881E-10
  -3.19500007E-02   8.13983769E-10
  -3.18999998E-02   8.43062287E-10
  -3.18499990E-02   8.55530091E-10
  -3.18000019E-02   7.97041932E-10
  -3.17500010E-02   6.37532360E-10
  -3.17000002E-02   3.86957910E-10
  -3.16499993E-02   9.32847688E-11
  -3.15999985E-02  -1.77542453E-10
  -3.15500014E-02  -3.71392639E-10
  -3.15000005E-02  -4.72027917E-10
  -3.14499997E-02  -5.10816167E-10
  -3.13999988E-02  -5.54383761E-10
  -3.13500017E-02  -6.74707124E-10
  -3.13000008E-02  -9.14807508E-10
  -3.12500000E-02  -1.26606714E-09
  -3.11999992E-02  -1.66856362E-09
  -3.11500002E-02  -2.03561745E-09
  -3.10999993E-02  -2.29239627E-09
  -3.10500003E-02  -2.41125209E-09
  -3.09999995E-02  -2.42697684E-09
  -3.09500005E-02  -2.42355425E-09
  -3.08999997E-02  -2.49686805E-09
  -3.08500007E-02  -2.70951306E-09
  -3.07999998E-02  -3.05863734E-09
  -3.07500008E-02  -3.47281692E-09
  -3.07000000E-02  -3.84112075E-09
  -3.06499992E-02  -4.06241618E-09
  -3.06000002E-02  -4.09270395E-09
  -3.05499993E-02  -3.96809829E-09
  -3.05000003E-02  -3.79139209E-09
  -3.04499995E-02  -3.68655884E-09
  -3.04000005E-02  -3.74085296E-09
  -3.03499997E-02  -3.96091560E-09
  -3.03000007E-02  -4.26416413E-09
  -3.02499998E-02  -4.51146809E-09
  -3.02000009E-02  -4.56808502E-09
  -3.01500000E-02  -4.36579617E-09
  -3.00999992E-02  -3.93719191E-09
  -3.00500002E-02  -3.40468764E-09
  -2.99999993E-02  -2.92727842E-09
  -2.99500003E-02  -2.62804467E-09
  -2.98999995E-02  -2.53541277E-09
  -2.98500005E-02  -2.56616994E-09
  -2.97999997E-02  -2.55992161E-09
  -2.97500007E-02  -2.35105624E-09
  -2.96999998E-02  -1.84634497E-09
  -2.96500009E-02  -1.07234110E-09
  -2.96000000E-02  -1.69092337E-10
  -2.95499992E-02   6.69255151E-10
  -2.95000002E-02   1.28159328E-09
  -2.94499993E-02   1.61522073E-09
  -2.94000003E-02   1.75376236E-09
  -2.93499995E-02   1.88264382E-09
  -2.93000005E-02   2.20573360E-09
  -2.92499997E-02   2.85023116E-09
  -2.92000007E-02   3.80367871E-09
  -2.91499998E-02   4.91348562E-09
  -2.91000009E-02   5.95143668E-09
  -2.90500000E-02   6.71560318E-09
  -2.89999992E-02   7.12376158E-09
  -2.89500002E-02   7.25463201E-09
  -2.88999993E-02   7.31575600E-09
  -2.88500004E-02   7.55010543E-09
  -2.87999995E-02   8.12247158E-09
  -2.87500005E-02   9.03776698E-09
  -2.86999997E-02   1.01304494E-08
  -2.86500007E-02   1.11325100E-08
  -2.85999998E-02   1.17912151E-08
  -2.85500009E-02   1.19837820E-08
  -2.85000000E-02   1.17759553E-08
  -2.84499992E-02   1.13958469E-08
  -2.84000002E-02   1.11325260E-08
  -2.83499993E-02   1.12036123E-08
  -2.83000004E-02   1.16517258E-08
  -2.82499995E-02   1.23181740E-08
  -2.82000005E-02   1.29083224E-08
  -2.81499997E-02   1.31212365E-08
  -2.81000007E-02   1.27858186E-08
  -2.80499998E-02   1.19409265E-08
  -2.80000009E-02   1.08210987E-08
  -2.79500000E-02   9.75234737E-09
  -2.78999992E-02   9.00379948E-09
  -2.78500002E-02   8.66240413E-09
  -2.77999993E-02   8.58861693E-09
  -2.77500004E-02   8.47507220E-09
  -2.76999995E-02   7.98375410E-09
  -2.76500005E-02   6.90069468E-09
  -2.75999997E-02   5.23783106E-09
  -2.75500007E-02   3.23422600E-09
  -2.74999999E-02   1.25375199E-09
  -2.74500009E-02  -3.76261827E-10
  -2.74000000E-02  -1.51285950E-09
  -2.73499992E-02  -2.26384800E-09
  -2.73000002E-02  -2.94059710E-09
  -2.72499993E-02  -3.91685839E-09
  -2.72000004E-02  -5.45653478E-09
  -2.71499995E-02  -7.58822427E-09
  -2.71000005E-02  -1.00843511E-08
  -2.70499997E-02  -1.25560584E-08
  -2.70000007E-02  -1.46228123E-08
  -2.69499999E-02  -1.60812519E-08
  -2.69000009E-02  -1.69967436E-08
  -2.68500000E-02  -1.76747825E-08
  -2.67999992E-02  -1.85229592E-08
  -2.67500002E-02  -1.98640322E-08
  -2.66999993E-02  -2.17841638E-08
  -2.66500004E-02  -2.40855549E-08
  -2.65999995E-02  -2.63661217E-08
  -2.65500005E-02  -2.81917618E-08
  -2.64999997E-02  -2.92849887E-08
  -2.64500007E-02  -2.96455767E-08
  -2.63999999E-02  -2.95488007E-08
  -2.63500009E-02  -2.94210096E-08
  -2.63000000E-02  -2.96467348E-08
  -2.62499992E-02  -3.03927941E-08
  -2.62000002E-02  -3.15279500E-08
  -2.61499994E-02  -3.26750289E-08
  -2.61000004E-02  -3.33735031E-08
  -2.60499995E-02  -3.32806600E-08
  -2.60000005E-02  -3.23221379E-08
  -2.59499997E-02  -3.07242018E-08
  -2.59000007E-02  -2.89131279E-08
  -2.58499999E-02  -2.73259211E-08
  -2.58000009E-02  -2.62157656E-08
  -2.57500000E-02  -2.55381654E-08
  -2.56999992E-02  -2.49681467E-08
  -2.56500002E-02  -2.40417428E-08
  -2.55999994E-02  -2.23602061E-08
  -2.55500004E-02  -1.97676151E-08
  -2.54999995E-02  -1.64231011E-08
  -2.54500005E-02  -1.27353816E-08
  -2.53999997E-02  -9.18736109E-09
  -2.53500007E-02  -6.12728446E-09
  -2.52999999E-02  -3.61870311E-09
  -2.52500009E-02  -1.41506407E-09
  -2.52000000E-02   9.29435695E-10
  -2.51499992E-02   3.86038090E-09
  -2.51000002E-02   7.62091901E-09
  -2.50499994E-02   1.21344899E-08
  -2.50000004E-02   1.70245098E-08
  -2.49499995E-02   2.17642242E-08
  -2.49000005E-02   2.58938186E-08
  -2.48499997E-02   2.92115647E-08
  -2.48000007E-02   3.18559685E-08
  -2.47499999E-02   3.42422801E-08
  -2.47000009E-02   3.68791042E-08
  -2.46500000E-02   4.01426767E-08
  -2.45999992E-02   4.41051888E-08
  -2.45500002E-02   4.84914011E-08
  -2.44999994E-02   5.27837081E-08
  -2.44500004E-02   5.64329454E-08
  -2.43999995E-02   5.90865987E-08
  -2.43500005E-02   6.07366317E-08
  -2.42999997E-02   6.17222398E-08
  -2.42500007E-02   6.25832044E-08
  -2.41999999E-02   6.38233644E-08
  -2.41500009E-02   6.56840982E-08
  -2.41000000E-02   6.80255567E-08
  -2.40499992E-02   7.03695449E-08
  -2.40000002E-02   7.20902378E-08
  -2.39499994E-02   7.26744318E-08
  -2.39000004E-02   7.19408462E-08
  -2.38499995E-02   7.01227378E-08
  -2.38000005E-02   6.77744580E-08
  -2.37499997E-02   6.55366179E-08
  -2.37000007E-02   6.38564970E-08
  -2.36499999E-02   6.27842667E-08
  -2.36000009E-02   6.19358715E-08
  -2.35500000E-02   6.06455686E-08
  -2.34999992E-02   5.82496753E-08
  -2.34500002E-02   5.43814345E-08
  -2.33999994E-02   4.91476335E-08
  -2.33500004E-02   4.31041158E-08
  -2.32999995E-02   3.70326703E-08
  -2.32500006E-02   3.16095630E-08
  -2.31999997E-02   2.71068590E-08
  -2.31500007E-02   2.32602204E-08
  -2.30999999E-02   1.93697574E-08
  -2.30500009E-02   1.46004586E-08
  -2.30000000E-02   8.35782732E-09
  -2.29499992E-02   5.75398285E-10
  -2.29000002E-02  -8.21793655E-09
  -2.28499994E-02  -1.70930239E-08
  -2.28000004E-02  -2.51033914E-08
  -2.27499995E-02  -3.16933395E-08
  -2.27000006E-02  -3.69497073E-08
  -2.26499997E-02  -4.15765271E-08
  -2.26000007E-02  -4.65916017E-08
  -2.25499999E-02  -5.28682840E-08
  -2.25000009E-02  -6.07204811E-08
  -2.24500000E-02  -6.97202296E-08
  -2.23999992E-02  -7.88407846E-08
  -2.23500002E-02  -8.68755947E-08
  -2.22999994E-02  -9.29580182E-08
  -2.22500004E-02  -9.69513181E-08
  -2.21999995E-02  -9.95263321E-08
  -2.21500006E-02  -1.01877596E-07
  -2.20999997E-02  -1.05189628E-07
  -2.20500007E-02  -1.10085900E-07
  -2.19999999E-02  -1.16310844E-07
  -2.19500009E-02  -1.22798582E-07
  -2.19000001E-02  -1.28113655E-07
  -2.18499992E-02  -1.31078124E-07
  -2.18000002E-02  -1.31308042E-07
  -2.17499994E-02  -1.29410552E-07
  -2.17000004E-02  -1.26737248E-07
  -2.16499995E-02  -1.24787960E-07
  -2.16000006E-02  -1.24522757E-07
  -2.15499997E-02  -1.25893223E-07
  -2.15000007E-02  -1.27819050E-07
  -2.14499999E-02  -1.28639698E-07
  -2.14000009E-02  -1.26851504E-07
  -2.13500001E-02  -1.21804547E-07
  -2.12999992E-02  -1.14038002E-07
  -2.12500002E-02  -1.05084858E-07
  -2.11999994E-02  -9.68149152E-08
  -2.11500004E-02  -9.05991584E-08
  -2.10999995E-02  -8.66712782E-08
  -2.10500006E-02  -8.39873096E-08
  -2.09999997E-02  -8.06670855E-08
  -2.09500007E-02  -7.48359028E-08
  -2.08999999E-02  -6.54966854E-08
  -2.08500009E-02  -5.30335846E-08
  -2.08000001E-02  -3.91003034E-08
  -2.07499992E-02  -2.59216968E-08
  -2.07000002E-02  -1.53102686E-08
  -2.06499994E-02  -7.83994025E-09
  -2.06000004E-02  -2.56158716E-09
  -2.05499995E-02   2.59039301E-09
  -2.05000006E-02   9.86469040E-09
  -2.04499997E-02   2.06446948E-08
  -2.04000007E-02   3.47616265E-08
  -2.03499999E-02   5.04967019E-08
  -2.03000009E-02   6.52944365E-08
  -2.02500001E-02   7.68824648E-08
  -2.01999992E-02   8.42973407E-08
  -2.01500002E-02   8.83404425E-08
  -2.00999994E-02   9.12371405E-08
  -2.00500004E-02   9.56339719E-08
  -1.99999996E-02   1.03376237E-07
  -1.99500006E-02   1.14622409E-07
  -1.98999997E-02   1.27713065E-07
  -1.98500007E-02   1.39873720E-07
  -1.97999999E-02   1.48451136E-07
  -1.97500009E-02   1.52129346E-07
  -1.97000001E-02   1.51564805E-07
  -1.96499992E-02   1.49131282E-07
  -1.96000002E-02   1.47866430E-07
  -1.95499994E-02   1.50083650E-07
  -1.95000004E-02   1.56279725E-07
  -1.94499996E-02   1.64850732E-07
  -1.94000006E-02   1.72769475E-07
  -1.93499997E-02   1.76937917E-07
  -1.93000007E-02   1.75607966E-07
  -1.92499999E-02   1.69218453E-07
  -1.92000009E-02   1.60250664E-07
  -1.91500001E-02   1.52144409E-07
  -1.90999992E-02   1.47748224E-07
  -1.90500002E-02   1.48005086E-07
  -1.89999994E-02   1.51482823E-07
  -1.89500004E-02   1.54985983E-07
  -1.88999996E-02   1.54994055E-07
  -1.88500006E-02   1.49284688E-07
  -1.87999997E-02   1.37999564E-07
  -1.87500007E-02   1.23650196E-07
  -1.86999999E-02   1.10037639E-07
  -1.86500009E-02   1.00559284E-07
  -1.86000001E-02   9.66664828E-08
  -1.85499992E-02   9.71840919E-08
  -1.85000002E-02   9.88203936E-08
  -1.84499994E-02   9.76559278E-08
  -1.84000004E-02   9.09467914E-08
  -1.83499996E-02   7.84241507E-08
  -1.83000006E-02   6.24837071E-08
  -1.82499997E-02   4.71556234E-08
  -1.82000007E-02   3.63041259E-08
  -1.81499999E-02   3.18707158E-08
  -1.81000009E-02   3.29683090E-08
  -1.80500001E-02   3.62573758E-08
  -1.79999992E-02   3.74537450E-08
  -1.79500002E-02   3.32964625E-08
  -1.78999994E-02   2.30797177E-08
  -1.78500004E-02   9.03505981E-09
  -1.77999996E-02  -4.62870631E-09
  -1.77500006E-02  -1.36089424E-08
  -1.76999997E-02  -1.54704303E-08
  -1.76500008E-02  -1.07897904E-08
  -1.75999999E-02  -2.94309865E-09
  -1.75500009E-02   3.38744854E-09
  -1.75000001E-02   4.32920810E-09
  -1.74499992E-02  -1.40366374E-09
  -1.74000002E-02  -1.18924852E-08
  -1.73499994E-02  -2.28594619E-08
  -1.73000004E-02  -2.96108684E-08
  -1.72499996E-02  -2.91977358E-08
  -1.72000006E-02  -2.18146869E-08
  -1.71499997E-02  -1.07849942E-08
  -1.71000008E-02  -1.12009657E-09
  -1.70499999E-02   2.70978440E-09
  -1.70000009E-02  -1.20565646E-09
  -1.69500001E-02  -1.13348841E-08
  -1.68999992E-02  -2.33841480E-08
  -1.68500002E-02  -3.22536735E-08
  -1.67999994E-02  -3.43881297E-08
  -1.67500004E-02  -2.94515843E-08
  -1.66999996E-02  -2.05592023E-08
  -1.66500006E-02  -1.29474023E-08
  -1.65999997E-02  -1.16687380E-08
  -1.65500008E-02  -1.93420657E-08
  -1.64999999E-02  -3.49842608E-08
  -1.64500009E-02  -5.44733361E-08
  -1.64000001E-02  -7.24447204E-08
  -1.63499992E-02  -8.47774402E-08
  -1.63000003E-02  -9.05356998E-08
  -1.62499994E-02  -9.24765615E-08
  -1.62000004E-02  -9.58815249E-08
  -1.61499996E-02  -1.06212561E-07
  -1.61000006E-02  -1.26674266E-07
  -1.60499997E-02  -1.56775840E-07
  -1.60000008E-02  -1.92541947E-07
  -1.59499999E-02  -2.28319436E-07
  -1.59000009E-02  -2.59372825E-07
  -1.58500001E-02  -2.84097354E-07
  -1.57999992E-02  -3.04823942E-07
  -1.57500003E-02  -3.26838205E-07
  -1.56999994E-02  -3.56037873E-07
  -1.56500004E-02  -3.96281337E-07
  -1.55999996E-02  -4.47648375E-07
  -1.55499997E-02  -5.06391757E-07
  -1.54999997E-02  -5.66594053E-07
  -1.54499998E-02  -6.22818447E-07
  -1.53999999E-02  -6.72593330E-07
  -1.53500000E-02  -7.17563353E-07
  -1.53000001E-02  -7.62773141E-07
  -1.52500002E-02  -8.14392592E-07
  -1.52000003E-02  -8.76900117E-07
  -1.51500003E-02  -9.51005859E-07
  -1.51000004E-02  -1.03325931E-06
  -1.50499996E-02  -1.11753536E-06
  -1.49999997E-02  -1.19773256E-06
  -1.49499997E-02  -1.27046758E-06
  -1.48999998E-02  -1.33656954E-06
  -1.48499999E-02  -1.40071552E-06
  -1.48000000E-02  -1.46929960E-06
  -1.47500001E-02  -1.54750853E-06
  -1.47000002E-02  -1.63690356E-06
  -1.46500003E-02  -1.73462672E-06
  -1.46000003E-02  -1.83459997E-06
  -1.45500004E-02  -1.93019696E-06
  -1.44999996E-02  -2.01718899E-06
  -1.44499997E-02  -2.09561767E-06
  -1.43999998E-02  -2.16973399E-06
  -1.43499998E-02  -2.24602809E-06
  -1.42999999E-02  -2.33026799E-06
  -1.42500000E-02  -2.42483929E-06
  -1.42000001E-02  -2.52757536E-06
  -1.41500002E-02  -2.63258607E-06
  -1.41000003E-02  -2.73284036E-06
  -1.40500003E-02  -2.82328551E-06
  -1.40000004E-02  -2.90305252E-06
  -1.39499996E-02  -2.97588554E-06
  -1.38999997E-02  -3.04842820E-06
  -1.38499998E-02  -3.12717384E-06
  -1.37999998E-02  -3.21551033E-06
  -1.37499999E-02  -3.31209935E-06
  -1.37000000E-02  -3.41142572E-06
  -1.36500001E-02  -3.50621440E-06
  -1.36000002E-02  -3.59071237E-06
  -1.35500003E-02  -3.66328959E-06
  -1.35000004E-02  -3.72719205E-06
  -1.34500004E-02  -3.78913660E-06
  -1.33999996E-02  -3.85639532E-06
  -1.33499997E-02  -3.93355913E-06
  -1.32999998E-02  -4.02041042E-06
  -1.32499998E-02  -4.11202427E-06
  -1.31999999E-02  -4.20088145E-06
  -1.31500000E-02  -4.28029716E-06
  -1.31000001E-02  -4.34758658E-06
  -1.30500002E-02  -4.40530812E-06
  -1.30000003E-02  -4.46018839E-06
  -1.29500004E-02  -4.52018321E-06
  -1.29000004E-02  -4.59107514E-06
  -1.28499996E-02  -4.67402424E-06
  -1.27999997E-02  -4.76518653E-06
  -1.27499998E-02  -4.85746887E-06
  -1.26999998E-02  -4.94368851E-06
  -1.26499999E-02  -5.02001603E-06
  -1.26000000E-02  -5.08798212E-06
  -1.25500001E-02  -5.15390047E-06
  -1.25000002E-02  -5.22611845E-06
  -1.24500003E-02  -5.31136902E-06
  -1.24000004E-02  -5.41176041E-06
  -1.23500004E-02  -5.52408892E-06
  -1.22999996E-02  -5.64147831E-06
  -1.22499997E-02  -5.75658214E-06
  -1.21999998E-02  -5.86513443E-06
  -1.21499998E-02  -5.96811651E-06
  -1.20999999E-02  -6.07168067E-06
  -1.20500000E-02  -6.18481135E-06
  -1.20000001E-02  -6.31553667E-06
  -1.19500002E-02  -6.46726130E-06
  -1.19000003E-02  -6.63717765E-06
  -1.18500004E-02  -6.81757410E-06
  -1.18000004E-02  -6.99931479E-06
  -1.17499996E-02  -7.17600778E-06
  -1.16999997E-02  -7.34676814E-06
  -1.16499998E-02  -7.51649031E-06
  -1.15999999E-02  -7.69397775E-06
  -1.15499999E-02  -7.88836860E-06
  -1.15000000E-02  -8.10552228E-06
  -1.14500001E-02  -8.34560706E-06
  -1.14000002E-02  -8.60321325E-06
  -1.13500003E-02  -8.87041460E-06
  -1.13000004E-02  -9.14078464E-06
  -1.12500004E-02  -9.41268536E-06
  -1.11999996E-02  -9.69044686E-06
  -1.11499997E-02  -9.98216910E-06
  -1.10999998E-02  -1.02956174E-05
  -1.10499999E-02  -1.06345396E-05
  -1.09999999E-02  -1.09968996E-05
  -1.09500000E-02  -1.13752858E-05
  -1.09000001E-02  -1.17591089E-05
  -1.08500002E-02  -1.21391249E-05
  -1.08000003E-02  -1.25115967E-05
  -1.07500004E-02  -1.28801876E-05
  -1.07000005E-02  -1.32548766E-05
  -1.06499996E-02  -1.36478029E-05
  -1.05999997E-02  -1.40681268E-05
  -1.05499998E-02  -1.45184576E-05
  -1.04999999E-02  -1.49945809E-05
  -1.04499999E-02  -1.54881236E-05
  -1.04000000E-02  -1.59904848E-05
  -1.03500001E-02  -1.64964567E-05
  -1.03000002E-02  -1.70063886E-05
  -1.02500003E-02  -1.75260921E-05
  -1.02000004E-02  -1.80640218E-05
  -1.01500005E-02  -1.86268189E-05
  -1.00999996E-02  -1.92152311E-05
  -1.00499997E-02  -1.98229282E-05
  -9.99999978E-03  -2.04389562E-05
  -9.94999986E-03  -2.10525523E-05
  -9.89999995E-03  -2.16579101E-05
  -9.85000003E-03  -2.22563031E-05
  -9.80000012E-03  -2.28550671E-05
  -9.75000020E-03  -2.34649269E-05
  -9.70000029E-03  -2.40958780E-05
  -9.65000037E-03  -2.47526259E-05
  -9.60000046E-03  -2.54326333E-05
  -9.54999961E-03  -2.61274854E-05
  -9.49999969E-03  -2.68266613E-05
  -9.44999978E-03  -2.75234124E-05
  -9.39999986E-03  -2.82185702E-05
  -9.34999995E-03  -2.89200198E-05
  -9.30000003E-03  -2.96395665E-05
  -9.25000012E-03  -3.03875568E-05
  -9.20000020E-03  -3.11687691E-05
  -9.15000029E-03  -3.19806568E-05
  -9.10000037E-03  -3.28143324E-05
  -9.05000046E-03  -3.36579214E-05
  -8.99999961E-03  -3.45011285E-05
  -8.94999970E-03  -3.53400137E-05
  -8.89999978E-03  -3.61786879E-05
  -8.84999987E-03  -3.70271373E-05
  -8.79999995E-03  -3.78960831E-05
  -8.75000004E-03  -3.87915388E-05
  -8.70000012E-03  -3.97124422E-05
  -8.65000021E-03  -4.06512336E-05
  -8.60000029E-03  -4.15977156E-05
  -8.55000038E-03  -4.25444669E-05
  -8.50000046E-03  -4.34906033E-05
  -8.44999962E-03  -4.44424950E-05
  -8.39999970E-03  -4.54120491E-05
  -8.34999979E-03  -4.64127515E-05
  -8.29999987E-03  -4.74544395E-05
  -8.24999996E-03  -4.85395394E-05
  -8.20000004E-03  -4.96619141E-05
  -8.15000013E-03  -5.08109515E-05
  -8.10000021E-03  -5.19782625E-05
  -8.05000030E-03  -5.31607802E-05
  -8.00000038E-03  -5.43617425E-05
  -7.95000046E-03  -5.55909101E-05
  -7.89999962E-03  -5.68606665E-05
  -7.84999970E-03  -5.81794593E-05
  -7.79999979E-03  -5.95484998E-05
  -7.74999987E-03  -6.09610433E-05
  -7.69999996E-03  -6.24044333E-05
  -7.65000004E-03  -6.38669226E-05
  -7.60000013E-03  -6.53437455E-05
  -7.55000021E-03  -6.68386783E-05
  -7.49999983E-03  -6.83616890E-05
  -7.44999992E-03  -6.99252996E-05
  -7.40000000E-03  -7.15409624E-05
  -7.35000009E-03  -7.32141416E-05
  -7.30000017E-03  -7.49419414E-05
  -7.24999979E-03  -7.67168021E-05
  -7.19999988E-03  -7.85299562E-05
  -7.14999996E-03  -8.03758594E-05
  -7.10000005E-03  -8.22572256E-05
  -7.05000013E-03  -8.41851797E-05
  -7.00000022E-03  -8.61741064E-05
  -6.94999984E-03  -8.82345121E-05
  -6.89999992E-03  -9.03702021E-05
  -6.85000001E-03  -9.25774075E-05
  -6.80000009E-03  -9.48472662E-05
  -6.75000018E-03  -9.71699410E-05
  -6.69999979E-03  -9.95380033E-05
  -6.64999988E-03  -1.01950347E-04
  -6.59999996E-03  -1.04414059E-04
  -6.55000005E-03  -1.06940453E-04
  -6.50000013E-03  -1.09539600E-04
  -6.45000022E-03  -1.12216258E-04
  -6.39999984E-03  -1.14966038E-04
  -6.34999992E-03  -1.17780255E-04
  -6.30000001E-03  -1.20649573E-04
  -6.25000009E-03  -1.23566657E-04
  -6.20000018E-03  -1.26531595E-04
  -6.14999980E-03  -1.29551991E-04
  -6.09999988E-03  -1.32641711E-04
  -6.04999997E-03  -1.35813680E-04
  -6.00000005E-03  -1.39074269E-04
  -5.95000014E-03  -1.42420904E-04
  -5.90000022E-03  -1.45845159E-04
  -5.84999984E-03  -1.49341955E-04
  -5.79999993E-03  -1.52907305E-04
  -5.75000001E-03  -1.56539216E-04
  -5.70000010E-03  -1.60241209E-04
  -5.65000018E-03  -1.64021811E-04
  -5.59999980E-03  -1.67893726E-04
  -5.54999989E-03  -1.71865322E-04
  -5.49999997E-03  -1.75935333E-04
  -5.45000006E-03  -1.80091607E-04
  -5.40000014E-03  -1.84317862E-04
  -5.35000023E-03  -1.88608232E-04
  -5.29999984E-03  -1.92965264E-04
  -5.24999993E-03  -1.97392554E-04
  -5.20000001E-03  -2.01892675E-04
  -5.15000010E-03  -2.06469427E-04
  -5.10000018E-03  -2.11134451E-04
  -5.04999980E-03  -2.15896551E-04
  -4.99999989E-03  -2.20750022E-04
  -4.94999997E-03  -2.25682074E-04
  -4.90000006E-03  -2.30685298E-04
  -4.85000014E-03  -2.35762622E-04
  -4.80000023E-03  -2.40927751E-04
  -4.74999985E-03  -2.46194628E-04
  -4.69999993E-03  -2.51569465E-04
  -4.65000002E-03  -2.57054635E-04
  -4.60000010E-03  -2.62649177E-04
  -4.55000019E-03  -2.68350239E-04
  -4.49999981E-03  -2.74150312E-04
  -4.44999989E-03  -2.80040404E-04
  -4.39999998E-03  -2.86015973E-04
  -4.35000006E-03  -2.92075856E-04
  -4.30000015E-03  -2.98229104E-04
  -4.25000023E-03  -3.04488873E-04
  -4.19999985E-03  -3.10858595E-04
  -4.14999994E-03  -3.17332131E-04
  -4.10000002E-03  -3.23901768E-04
  -4.05000011E-03  -3.30563314E-04
  -4.00000019E-03  -3.37316771E-04
  -3.94999981E-03  -3.44161963E-04
  -3.89999989E-03  -3.51101451E-04
  -3.84999998E-03  -3.58147168E-04
  -3.80000006E-03  -3.65313113E-04
  -3.74999992E-03  -3.72603856E-04
  -3.70000000E-03  -3.80013662E-04
  -3.65000009E-03  -3.87539971E-04
  -3.59999994E-03  -3.95184761E-04
  -3.55000002E-03  -4.02945792E-04
  -3.50000011E-03  -4.10818524E-04
  -3.44999996E-03  -4.18802869E-04
  -3.40000005E-03  -4.26911574E-04
  -3.34999990E-03  -4.35156107E-04
  -3.29999998E-03  -4.43540601E-04
  -3.25000007E-03  -4.52066422E-04
  -3.19999992E-03  -4.60722134E-04
  -3.15000000E-03  -4.69491410E-04
  -3.10000009E-03  -4.78367205E-04
  -3.04999994E-03  -4.87361336E-04
  -3.00000003E-03  -4.96492081E-04
  -2.95000011E-03  -5.05765725E-04
  -2.89999996E-03  -5.15170570E-04
  -2.85000005E-03  -5.24701783E-04
  -2.79999990E-03  -5.34369319E-04
  -2.74999999E-03  -5.44177543E-04
  -2.70000007E-03  -5.54122031E-04
  -2.64999992E-03  -5.64183982E-04
  -2.60000001E-03  -5.74354257E-04
  -2.55000009E-03  -5.84652182E-04
  -2.49999994E-03  -5.95109304E-04
  -2.45000003E-03  -6.05742389E-04
  -2.40000011E-03  -6.16547710E-04
  -2.34999997E-03  -6.27505826E-04
  -2.30000005E-03  -6.38608995E-04
  -2.24999990E-03  -6.49863156E-04
  -2.19999999E-03  -6.61272206E-04
  -2.15000007E-03  -6.72839931E-04
  -2.09999993E-03  -6.84566272E-04
  -2.05000001E-03  -6.96449715E-04
  -2.00000009E-03  -7.08501088E-04
  -1.94999995E-03  -7.20740878E-04
  -1.90000003E-03  -7.33158726E-04
  -1.85000000E-03  -7.45722966E-04
  -1.79999997E-03  -7.58417998E-04
  -1.75000005E-03  -7.71247083E-04
  -1.70000002E-03  -7.84221804E-04
  -1.64999999E-03  -7.97352986E-04
  -1.59999996E-03  -8.10649595E-04
  -1.55000004E-03  -8.24133924E-04
  -1.50000001E-03  -8.37821513E-04
  -1.44999998E-03  -8.51704564E-04
  -1.39999995E-03  -8.65753798E-04
  -1.35000004E-03  -8.79955885E-04
  -1.30000000E-03  -8.94325378E-04
  -1.24999997E-03  -9.08876013E-04
  -1.20000006E-03  -9.23626940E-04
  -1.15000003E-03  -9.38586134E-04
  -1.09999999E-03  -9.53751151E-04
  -1.04999996E-03  -9.69126471E-04
  -1.00000005E-03  -9.84721701E-04
  -9.50000016E-04  -1.00052392E-03
  -8.99999985E-04  -1.01650041E-03
  -8.50000011E-04  -1.03262300E-03
  -7.99999980E-04  -1.04888994E-03
  -7.50000007E-04  -1.06534420E-03
  -6.99999975E-04  -1.08203501E-03
  -6.50000002E-04  -1.09896727E-03
  -6.00000028E-04  -1.11611909E-03
  -5.49999997E-04  -1.13348139E-03
  -5.00000024E-04  -1.15103787E-03
  -4.49999992E-04  -1.16878550E-03
  -3.99999990E-04  -1.18674093E-03
  -3.49999988E-04  -1.20488775E-03
  -3.00000014E-04  -1.22321001E-03
  -2.50000012E-04  -1.24173344E-03
  -1.99999995E-04  -1.26051030E-03
  -1.50000007E-04  -1.27958937E-03
  -9.99999975E-05  -1.29895553E-03
  -4.99999987E-05  -1.31853786E-03
   0.00000000      -1.33828877E-03
   4.99999987E-05  -1.35822047E-03
   9.99999975E-05  -1.37837790E-03
   1.50000007E-04  -1.39879342E-03
   1.99999995E-04  -1.41946226E-03
   2.50000012E-04  -1.44037255E-03
   3.00000014E-04  -1.46153965E-03
   3.49999988E-04  -1.48298929E-03
   3.99999990E-04  -1.50472228E-03
   4.49999992E-04  -1.52667938E-03
   5.00000024E-04  -1.54879398E-03
   5.49999997E-04  -1.57107692E-03
   6.00000028E-04  -1.59359269E-03
   6.50000002E-04  -1.61641336E-03
   6.99999975E-04  -1.63954450E-03
   7.50000007E-04  -1.66291848E-03
   7.99999980E-04  -1.68650050E-03
   8.50000011E-04  -1.71032385E-03
   8.99999985E-04  -1.73442846E-03
   9.50000016E-04  -1.75877672E-03
   1.00000005E-03  -1.78330101E-03
   1.04999996E-03  -1.80798699E-03
   1.09999999E-03  -1.83291757E-03
   1.15000003E-03  -1.85821741E-03
   1.20000006E-03  -1.88389735E-03
   1.24999997E-03  -1.90985261E-03
   1.30000000E-03  -1.93598343E-03
   1.35000004E-03  -1.96228642E-03
   1.39999995E-03  -1.98883028E-03
   1.44999998E-03  -2.01565144E-03
   1.50000001E-03  -2.04269588E-03
   1.55000004E-03  -2.06992449E-03
   1.59999996E-03  -2.09736871E-03
   1.64999999E-03  -2.12512654E-03
   1.70000002E-03  -2.15322059E-03
   1.75000005E-03  -2.18155445E-03
   1.79999997E-03  -2.21002428E-03
   1.85000000E-03  -2.23859376E-03
   1.90000003E-03  -2.26734602E-03
   1.94999995E-03  -2.29635369E-03
   2.00000009E-03  -2.32561491E-03
   2.05000001E-03  -2.35509803E-03
   2.09999993E-03  -2.38482258E-03
   2.15000007E-03  -2.41483399E-03
   2.19999999E-03  -2.44511850E-03
   2.24999990E-03  -2.47558788E-03
   2.30000005E-03  -2.50614434E-03
   2.34999997E-03  -2.53679231E-03
   2.40000011E-03  -2.56762048E-03
   2.45000003E-03  -2.59871734E-03
   2.49999994E-03  -2.63008196E-03
   2.55000009E-03  -2.66163424E-03
   2.60000001E-03  -2.69334670E-03
   2.64999992E-03  -2.72523961E-03
   2.70000007E-03  -2.75730481E-03
   2.74999999E-03  -2.78948061E-03
   2.79999990E-03  -2.82170065E-03