  -3.99999991E-02   0.00000000    
  -3.99499983E-02   0.00000000    
  -3.99000011E-02   0.00000000    
  -3.98500003E-02  -1.96301982E-15
  -3.97999994E-02  -1.62361410E-14
  -3.97499986E-02  -7.01940201E-14
  -3.97000015E-02  -2.10591798E-13
  -3.96500006E-02  -4.89964840E-13
  -3.95999998E-02  -9.37142399E-13
  -3.95499989E-02  -1.52792492E-12
  -3.95000018E-02  -2.17981492E-12
  -3.94500010E-02  -2.78405380E-12
  -3.94000001E-02  -3.26500675E-12
  -3.93499993E-02  -3.63856514E-12
  -3.92999984E-02  -4.03983791E-12
  -3.92500013E-02  -4.70359472E-12
  -3.92000005E-02  -5.89906813E-12
  -3.91499996E-02  -7.83828471E-12
  -3.90999988E-02  -1.05920463E-11
  -3.90500017E-02  -1.40531527E-11
  -3.90000008E-02  -1.79717630E-11
  -3.89500000E-02  -2.20535604E-11
  -3.88999991E-02  -2.60777979E-11
  -3.88499983E-02  -2.99847161E-11
  -3.88000011E-02  -3.39043724E-11
  -3.87500003E-02  -3.81286426E-11
  -3.86999995E-02  -4.30400229E-11
  -3.86499986E-02  -4.90058827E-11
  -3.86000015E-02  -5.62470175E-11
  -3.85500006E-02  -6.47086967E-11
  -3.84999998E-02  -7.39846934E-11
  -3.84499989E-02  -8.33438527E-11
  -3.84000018E-02  -9.18760901E-11
  -3.83500010E-02  -9.87306140E-11
  -3.83000001E-02  -1.03384815E-10
  -3.82499993E-02  -1.05860321E-10
  -3.81999984E-02  -1.06790278E-10
  -3.81500013E-02  -1.07258154E-10
  -3.81000005E-02  -1.08398374E-10
  -3.80499996E-02  -1.10867621E-10
  -3.79999988E-02  -1.14399525E-10
  -3.79500017E-02  -1.17660381E-10
  -3.79000008E-02  -1.18504401E-10
  -3.78500000E-02  -1.14548371E-10
  -3.77999991E-02  -1.03847646E-10
  -3.77499983E-02  -8.54203999E-11
  -3.77000012E-02  -5.94254437E-11
  -3.76500003E-02  -2.69126891E-11
  -3.75999995E-02   1.07935692E-11
  -3.75499986E-02   5.28729421E-11
  -3.75000015E-02   9.96487198E-11
  -3.74500006E-02   1.52808252E-10
  -3.73999998E-02   2.15071114E-10
  -3.73499990E-02   2.89379881E-10
  -3.73000018E-02   3.77839759E-10
  -3.72500010E-02   4.80691820E-10
  -3.72000001E-02   5.95614724E-10
  -3.71499993E-02   7.17658655E-10
  -3.70999984E-02   8.40084058E-10
  -3.70500013E-02   9.56185464E-10
  -3.70000005E-02   1.06177467E-09
  -3.69499996E-02   1.15751930E-09
  -3.68999988E-02   1.25004807E-09
  -3.68500017E-02   1.35089995E-09
  -3.68000008E-02   1.47306167E-09
  -3.67500000E-02   1.62584057E-09
  -3.66999991E-02   1.80981341E-09
  -3.66499983E-02   2.01411821E-09
  -3.66000012E-02   2.21798735E-09
  -3.65500003E-02   2.39696973E-09
  -3.64999995E-02   2.53210719E-09
  -3.64499986E-02   2.61833399E-09
  -3.64000015E-02   2.66776845E-09
  -3.63500006E-02   2.70509615E-09
  -3.62999998E-02   2.75564194E-09
  -3.62499990E-02   2.83058710E-09
  -3.62000018E-02   2.91623614E-09
  -3.61500010E-02   2.97370928E-09
  -3.61000001E-02   2.95161051E-09
  -3.60499993E-02   2.80825230E-09
  -3.59999985E-02   2.53440668E-09
  -3.59500013E-02   2.16522178E-09
  -3.59000005E-02   1.77284176E-09
  -3.58499996E-02   1.43916767E-09
  -3.57999988E-02   1.21810428E-09
  -3.57500017E-02   1.10384135E-09
  -3.57000008E-02   1.02193809E-09
  -3.56500000E-02   8.51808624E-10
  -3.55999991E-02   4.75274486E-10
  -3.55499983E-02  -1.67870495E-10
  -3.55000012E-02  -1.04296660E-09
  -3.54500003E-02  -2.02317629E-09
  -3.53999995E-02  -2.93681479E-09
  -3.53499986E-02  -3.64340980E-09
  -3.53000015E-02  -4.10587342E-09
  -3.52500007E-02  -4.42279191E-09
  -3.51999998E-02  -4.79873785E-09
  -3.51499990E-02  -5.45752465E-09
  -3.51000018E-02  -6.53212773E-09
  -3.50500010E-02  -7.98151056E-09
  -3.50000001E-02  -9.57880708E-09
  -3.49499993E-02  -1.09870468E-08
  -3.48999985E-02  -1.18984680E-08
  -3.48500013E-02  -1.21794574E-08
  -3.48000005E-02  -1.19524994E-08
  -3.47499996E-02  -1.15674936E-08
  -3.46999988E-02  -1.14616725E-08
  -3.46500017E-02  -1.19608305E-08
  -3.46000008E-02  -1.31096352E-08
  -3.45500000E-02  -1.46158152E-08
  -3.44999991E-02  -1.59486593E-08
  -3.44499983E-02  -1.65627743E-08
  -3.44000012E-02  -1.61543579E-08
  -3.43500003E-02  -1.48307615E-08
  -3.42999995E-02  -1.31020492E-08
  -3.42499986E-02  -1.16782299E-08
  -3.42000015E-02  -1.11471703E-08
  -3.41500007E-02  -1.16739525E-08
  -3.40999998E-02  -1.28681057E-08
  -3.40499990E-02  -1.39013077E-08
  -3.40000018E-02  -1.38475249E-08
  -3.39500010E-02  -1.21080692E-08
  -3.39000002E-02  -8.72844907E-09
  -3.38499993E-02  -4.44497461E-09
  -3.37999985E-02  -4.10917939E-10
  -3.37500013E-02   2.30068875E-09
  -3.37000005E-02   3.20450333E-09
  -3.36499996E-02   2.68152145E-09
  -3.35999988E-02   1.87484539E-09
  -3.35500017E-02   2.21510610E-09
  -3.35000008E-02   4.76481077E-09
  -3.34500000E-02   9.67479608E-09
  -3.33999991E-02   1.60208806E-08
  -3.33499983E-02   2.21340031E-08
  -3.33000012E-02   2.63139341E-08
  -3.32500003E-02   2.76247949E-08
  -3.31999995E-02   2.64040736E-08
  -3.31499986E-02   2.42189362E-08
  -3.31000015E-02   2.32406521E-08
  -3.30500007E-02   2.52794710E-08
  -3.29999998E-02   3.09031272E-08
  -3.29499990E-02   3.90590564E-08
  -3.29000019E-02   4.74193946E-08
  -3.28500010E-02   5.33471436E-08
  -3.28000002E-02   5.50821646E-08
  -3.27499993E-02   5.26101864E-08
  -3.26999985E-02   4.77834909E-08
  -3.26500013E-02   4.35788614E-08
  -3.26000005E-02   4.27740261E-08
  -3.25499997E-02   4.66183216E-08
  -3.24999988E-02   5.41201572E-08
  -3.24500017E-02   6.23319494E-08
  -3.24000008E-02   6.75744474E-08
  -3.23500000E-02   6.70980924E-08
  -3.22999991E-02   6.04371593E-08
  -3.22499983E-02   4.98008639E-08
  -3.22000012E-02   3.92473325E-08
  -3.21500003E-02   3.29362457E-08
  -3.20999995E-02   3.32073249E-08
  -3.20499986E-02   3.93663946E-08
  -3.20000015E-02   4.77931792E-08
  -3.19500007E-02   5.34123998E-08
  -3.18999998E-02   5.19375121E-08
  -3.18499990E-02   4.18969144E-08
  -3.18000019E-02   2.54881574E-08
  -3.17500010E-02   7.78712383E-09
  -3.17000002E-02  -5.42705836E-09
  -3.16499993E-02  -1.03104787E-08
  -3.15999985E-02  -6.86085810E-09
  -3.15500014E-02   8.39971259E-10
  -3.15000005E-02   6.26596020E-09
  -3.14499997E-02   3.32808048E-09
  -3.13999988E-02  -1.07605338E-08
  -3.13500017E-02  -3.39640138E-08
  -3.13000008E-02  -6.00349708E-08
  -3.12500000E-02  -8.11058314E-08
  -3.11999992E-02  -9.11831890E-08
  -3.11500002E-02  -8.89867167E-08
  -3.10999993E-02  -7.87852130E-08
  -3.10500003E-02  -6.87289869E-08
  -3.09999995E-02  -6.73045761E-08
  -3.09500005E-02  -7.94387347E-08
  -3.08999997E-02  -1.04025901E-07
  -3.08500007E-02  -1.34094847E-07
  -3.07999998E-02  -1.59680297E-07
  -3.07500008E-02  -1.72222670E-07
  -3.07000000E-02  -1.68551153E-07
  -3.06499992E-02  -1.52594225E-07
  -3.06000002E-02  -1.33910405E-07
  -3.05499993E-02  -1.23549000E-07
  -3.05000003E-02  -1.29006523E-07
  -3.04499995E-02  -1.50551685E-07
  -3.04000005E-02  -1.80679450E-07
  -3.03499997E-02  -2.07105032E-07
  -3.03000007E-02  -2.18103708E-07
  -3.02499998E-02  -2.07865156E-07
  -3.02000009E-02  -1.79409312E-07
  -3.01500000E-02  -1.43609583E-07
  -3.00999992E-02  -1.14583763E-07
  -3.00500002E-02  -1.03390825E-07
  -2.99999993E-02  -1.12839444E-07
  -2.99500003E-02  -1.35836615E-07
  -2.98999995E-02  -1.58194609E-07
  -2.98500005E-02  -1.64815461E-07
  -2.97999997E-02  -1.46576056E-07
  -2.97500007E-02  -1.04794701E-07
  -2.96999998E-02  -5.11271416E-08
  -2.96500009E-02  -2.73485923E-09
  -2.96000000E-02   2.52777212E-08
  -2.95499992E-02   2.68234608E-08
  -2.95000002E-02   7.98628452E-09
  -2.94499993E-02  -1.52350843E-08
  -2.94000003E-02  -2.37989557E-08
  -2.93499995E-02  -4.17317292E-09
  -2.93000005E-02   4.52557352E-08
  -2.92499997E-02   1.12920794E-07
  -2.92000007E-02   1.78742937E-07
  -2.91499998E-02   2.22843511E-07
  -2.91000009E-02   2.34498813E-07
  -2.90500000E-02   2.17275058E-07
  -2.89999992E-02   1.87862483E-07
  -2.89500002E-02   1.68898481E-07
  -2.88999993E-02   1.78814503E-07
  -2.88500004E-02   2.23210947E-07
  -2.87999995E-02   2.91739269E-07
  -2.87500005E-02   3.62116879E-07
  -2.86999997E-02   4.09719178E-07
  -2.86500007E-02   4.18600422E-07
  -2.85999998E-02   3.88994380E-07
  -2.85500009E-02   3.37762572E-07
  -2.85000000E-02   2.91331418E-07
  -2.84499992E-02   2.74050393E-07
  -2.84000002E-02   2.97083261E-07
  -2.83499993E-02   3.52880619E-07
  -2.83000004E-02   4.17927879E-07
  -2.82499995E-02   4.62806298E-07
  -2.82000005E-02   4.65260200E-07
  -2.81499997E-02   4.20458178E-07
  -2.81000007E-02   3.43713452E-07
  -2.80499998E-02   2.64185275E-07
  -2.80000009E-02   2.12118039E-07
  -2.79500000E-02   2.05182801E-07
  -2.78999992E-02   2.40071529E-07
  -2.78500002E-02   2.93317072E-07
  -2.77999993E-02   3.31265056E-07
  -2.77500004E-02   3.24984995E-07
  -2.76999995E-02   2.63542915E-07
  -2.76500005E-02   1.59589916E-07
  -2.75999997E-02   4.45058248E-08
  -2.75500007E-02  -4.50372184E-08
  -2.74999999E-02  -8.32983460E-08
  -2.74500009E-02  -6.72530973E-08
  -2.74000000E-02  -1.85022468E-08
  -2.73499992E-02   2.58419526E-08
  -2.73000002E-02   2.95062339E-08
  -2.72499993E-02  -2.65128257E-08
  -2.72000004E-02  -1.34833371E-07
  -2.71499995E-02  -2.64194256E-07
  -2.71000005E-02  -3.72777322E-07
  -2.70499997E-02  -4.26646892E-07
  -2.70000007E-02  -4.15146388E-07
  -2.69499999E-02  -3.56240264E-07
  -2.69000009E-02  -2.89124415E-07
  -2.68500000E-02  -2.57082831E-07
  -2.67999992E-02  -2.88037569E-07
  -2.67500002E-02  -3.81474052E-07
  -2.66999993E-02  -5.07788627E-07
  -2.66500004E-02  -6.20677440E-07
  -2.65999995E-02  -6.77340665E-07
  -2.65500005E-02  -6.57632370E-07
  -2.64999997E-02  -5.73533441E-07
  -2.64500007E-02  -4.64456008E-07
  -2.63999999E-02  -3.80139170E-07
  -2.63500009E-02  -3.58509453E-07
  -2.63000000E-02  -4.08320346E-07
  -2.62499992E-02  -5.04478351E-07
  -2.62000002E-02  -5.98458826E-07
  -2.61499994E-02  -6.39500286E-07
  -2.61000004E-02  -5.97325652E-07
  -2.60499995E-02  -4.76231378E-07
  -2.60000005E-02  -3.14019957E-07
  -2.59499997E-02  -1.65895315E-07
  -2.59000007E-02  -8.01881299E-08
  -2.58499999E-02  -7.66003510E-08
  -2.58000009E-02  -1.36773082E-07
  -2.57500000E-02  -2.11683840E-07
  -2.56999992E-02  -2.42940587E-07
  -2.56500002E-02  -1.88751514E-07
  -2.55999994E-02  -4.30537632E-08
  -2.55500004E-02   1.60905955E-07
  -2.54999995E-02   3.64471447E-07
  -2.54500005E-02   5.09107281E-07
  -2.53999997E-02   5.62380819E-07
  -2.53500007E-02   5.32778984E-07
  -2.52999999E-02   4.66498904E-07
  -2.52500009E-02   4.27278906E-07
  -2.52000000E-02   4.67948496E-07
  -2.51499992E-02   6.06257231E-07
  -2.51000002E-02   8.15881208E-07
  -2.50499994E-02   1.03693696E-06
  -2.50000004E-02   1.20169273E-06
  -2.49499995E-02   1.26429006E-06
  -2.49000005E-02   1.22127403E-06
  -2.48499997E-02   1.11358474E-06
  -2.48000007E-02   1.00877162E-06
  -2.47499999E-02   9.71002919E-07
  -2.47000009E-02   1.03204343E-06
  -2.46500000E-02   1.17617788E-06
  -2.45999992E-02   1.34606398E-06
  -2.45500002E-02   1.46727132E-06
  -2.44999994E-02   1.48087020E-06
  -2.44500004E-02   1.36965593E-06
  -2.43999995E-02   1.16617730E-06
  -2.43500005E-02   9.38669871E-07
  -2.42999997E-02   7.60802209E-07
  -2.42500007E-02   6.78472759E-07
  -2.41999999E-02   6.88443379E-07
  -2.41500009E-02   7.38562676E-07
  -2.41000000E-02   7.49854109E-07
  -2.40499992E-02   6.50975835E-07
  -2.40000002E-02   4.09878936E-07
  -2.39499994E-02   4.84939555E-08
  -2.39000004E-02  -3.66378515E-07
  -2.38499995E-02  -7.52289850E-07
  -2.38000005E-02  -1.04775188E-06
  -2.37499997E-02  -1.24001679E-06
  -2.37000007E-02  -1.37151608E-06
  -2.36499999E-02  -1.52176415E-06
  -2.36000009E-02  -1.77244408E-06
  -2.35500000E-02  -2.17100524E-06
  -2.34999992E-02  -2.70899454E-06
  -2.34500002E-02  -3.32499599E-06
  -2.33999994E-02  -3.93121036E-06
  -2.33500004E-02  -4.45214982E-06
  -2.32999995E-02  -4.85835562E-06
  -2.32500006E-02  -5.18002707E-06
  -2.31999997E-02  -5.49421793E-06
  -2.31500007E-02  -5.89095816E-06
  -2.30999999E-02  -6.43312478E-06
  -2.30500009E-02  -7.12786732E-06
  -2.30000000E-02  -7.92246828E-06
  -2.29499992E-02  -8.72677538E-06
  -2.29000002E-02  -9.45252577E-06
  -2.28499994E-02  -1.00522429E-05
  -2.28000004E-02  -1.05403824E-05
  -2.27499995E-02  -1.09870834E-05
  -2.27000006E-02  -1.14870436E-05
  -2.26499997E-02  -1.21171215E-05
  -2.26000007E-02  -1.29014543E-05
  -2.25499999E-02  -1.37997185E-05
  -2.25000009E-02  -1.47240189E-05
  -2.24500000E-02  -1.55771668E-05
  -2.23999992E-02  -1.62955203E-05
  -2.23500002E-02  -1.68772985E-05
  -2.22999994E-02  -1.73836488E-05
  -2.22500004E-02  -1.79117251E-05
  -2.21999995E-02  -1.85514909E-05
  -2.21500006E-02  -1.93453361E-05
  -2.20999997E-02  -2.02685223E-05
  -2.20500007E-02  -2.12393534E-05
  -2.19999999E-02  -2.21548053E-05
  -2.19500009E-02  -2.29358739E-05
  -2.19000001E-02  -2.35626139E-05
  -2.18499992E-02  -2.40831232E-05
  -2.18000002E-02  -2.45923184E-05
  -2.17499994E-02  -2.51897764E-05
  -2.17000004E-02  -2.59352073E-05
  -2.16499995E-02  -2.68214026E-05
  -2.16000006E-02  -2.77768759E-05
  -2.15499997E-02  -2.86971899E-05
  -2.15000007E-02  -2.94911388E-05
  -2.14499999E-02  -3.01213659E-05
  -2.14000009E-02  -3.06214351E-05
  -2.13500001E-02  -3.10814175E-05
  -2.12999992E-02  -3.16083824E-05
  -2.12500002E-02  -3.22792475E-05
  -2.11999994E-02  -3.31068477E-05
  -2.11500004E-02  -3.40343177E-05
  -2.10999995E-02  -3.49605580E-05
  -2.10500006E-02  -3.57853860E-05
  -2.09999997E-02  -3.64543994E-05
  -2.09500007E-02  -3.69836125E-05
  -2.08999999E-02  -3.74528972E-05
  -2.08500009E-02  -3.79709600E-05
  -2.08000001E-02  -3.86275242E-05
  -2.07499992E-02  -3.94539711E-05
  -2.07000002E-02  -4.04098391E-05
  -2.06499994E-02  -4.14013230E-05
  -2.06000004E-02  -4.23235688E-05
  -2.05499995E-02  -4.31080698E-05
  -2.05000006E-02  -4.37539566E-05
  -2.04499997E-02  -4.43292702E-05
  -2.04000007E-02  -4.49417930E-05
  -2.03499999E-02  -4.56922025E-05
  -2.03000009E-02  -4.66304627E-05
  -2.02500001E-02  -4.77347930E-05
  -2.01999992E-02  -4.89224512E-05
  -2.01500002E-02  -5.00876013E-05
  -2.00999994E-02  -5.11492872E-05
  -2.00500004E-02  -5.20882313E-05
  -1.99999996E-02  -5.29560930E-05
  -1.99500006E-02  -5.38532222E-05
  -1.98999997E-02  -5.48848475E-05
  -1.98500007E-02  -5.61153247E-05
  -1.97999999E-02  -5.75405284E-05
  -1.97500009E-02  -5.90907512E-05
  -1.97000001E-02  -6.06628528E-05
  -1.96499992E-02  -6.21669606E-05
  -1.96000002E-02  -6.35671677E-05
  -1.95499994E-02  -6.48981586E-05
  -1.95000004E-02  -6.62504754E-05
  -1.94499996E-02  -6.77310527E-05
  -1.94000006E-02  -6.94169066E-05
  -1.93499997E-02  -7.13222325E-05
  -1.93000007E-02  -7.33935740E-05
  -1.92499999E-02  -7.55349320E-05
  -1.92000009E-02  -7.76513480E-05
  -1.91500001E-02  -7.96915992E-05
  -1.90999992E-02  -8.16709289E-05
  -1.90500002E-02  -8.36643740E-05
  -1.89999994E-02  -8.57735213E-05
  -1.89500004E-02  -8.80816515E-05
  -1.88999996E-02  -9.06175701E-05
  -1.88500006E-02  -9.33437987E-05
  -1.87999997E-02  -9.61743208E-05
  -1.87500007E-02  -9.90136978E-05
  -1.86999999E-02  -1.01799567E-04
  -1.86500009E-02  -1.04530285E-04
  -1.86000001E-02  -1.07265339E-04
  -1.85499992E-02  -1.10098597E-04
  -1.85000002E-02  -1.13117079E-04
  -1.84499994E-02  -1.16363291E-04
  -1.84000004E-02  -1.19817450E-04
  -1.83499996E-02  -1.23407619E-04
  -1.83000006E-02  -1.27042833E-04
  -1.82499997E-02  -1.30654080E-04
  -1.82000007E-02  -1.34224756E-04
  -1.81499999E-02  -1.37797135E-04
  -1.81000009E-02  -1.41453376E-04
  -1.80500001E-02  -1.45278798E-04
  -1.79999992E-02  -1.49324609E-04
  -1.79500002E-02  -1.53586254E-04
  -1.78999994E-02  -1.58006718E-04
  -1.78500004E-02  -1.62503042E-04
  -1.77999996E-02  -1.67003585E-04
  -1.77500006E-02  -1.71480046E-04
  -1.76999997E-02  -1.75959489E-04
  -1.76500008E-02  -1.80512099E-04
  -1.75999999E-02  -1.85220211E-04
  -1.75500009E-02  -1.90142731E-04
  -1.75000001E-02  -1.95291170E-04
  -1.74499992E-02  -2.00626891E-04
  -1.74000002E-02  -2.06080367E-04
  -1.73499994E-02  -2.11584047E-04
  -1.73000004E-02  -2.17102745E-04
  -1.72499996E-02  -2.22649047E-04
  -1.72000006E-02  -2.28278237E-04
  -1.71499997E-02  -2.34063395E-04
  -1.71000008E-02  -2.40063644E-04
  -1.70499999E-02  -2.46300508E-04
  -1.70000009E-02  -2.52750469E-04
  -1.69500001E-02  -2.59357505E-04
  -1.68999992E-02  -2.66060641E-04
  -1.68500002E-02  -2.72822072E-04
  -1.67999994E-02  -2.79643602E-04
  -1.67500004E-02  -2.86566268E-04
  -1.66999996E-02  -2.93653691E-04
  -1.66500006E-02  -3.00964661E-04
  -1.65999997E-02  -3.08529910E-04
  -1.65500008E-02  -3.16341961E-04
  -1.64999999E-02  -3.24362423E-04
  -1.64500009E-02  -3.32542229E-04
  -1.64000001E-02  -3.40846105E-04
  -1.63499992E-02  -3.49268812E-04
  -1.63000003E-02  -3.57838668E-04
  -1.62499994E-02  -3.66606138E-04
  -1.62000004E-02  -3.75621603E-04
  -1.61499996E-02  -3.84916668E-04
  -1.61000006E-02  -3.94494331E-04
  -1.60499997E-02  -4.04329825E-04
  -1.60000008E-02  -4.14385315E-04
  -1.59499999E-02  -4.24629718E-04
  -1.59000009E-02  -4.35053371E-04
  -1.58500001E-02  -4.45673388E-04
  -1.57999992E-02  -4.56527458E-04
  -1.57500003E-02  -4.67659178E-04
  -1.56999994E-02  -4.79101727E-04
  -1.56500004E-02  -4.90867766E-04
  -1.55999996E-02  -5.02948358E-04
  -1.55499997E-02  -5.15321328E-04
  -1.54999997E-02  -5.27964614E-04
  -1.54499998E-02  -5.40868787E-04
  -1.53999999E-02  -5.54041006E-04
  -1.53500000E-02  -5.67503623E-04
  -1.53000001E-02  -5.81286848E-04
  -1.52500002E-02  -5.95416292E-04
  -1.52000003E-02  -6.09905284E-04
  -1.51500003E-02  -6.24753651E-04
  -1.51000004E-02  -6.39952603E-04
  -1.50499996E-02  -6.55490439E-04
  -1.49999997E-02  -6.71360642E-04
  -1.49499997E-02  -6.87564781E-04
  -1.48999998E-02  -7.04112463E-04
  -1.48499999E-02  -7.21019227E-04
  -1.48000000E-02  -7.38301198E-04
  -1.47500001E-02  -7.55972287E-04
  -1.47000002E-02  -7.74043088E-04
  -1.46500003E-02  -7.92519830E-04
  -1.46000003E-02  -8.11404607E-04
  -1.45500004E-02  -8.30699049E-04
  -1.44999996E-02  -8.50402808E-04
  -1.44499997E-02  -8.70514545E-04
  -1.43999998E-02  -8.91034782E-04
  -1.43499998E-02  -9.11966432E-04
  -1.42999999E-02  -9.33316303E-04
  -1.42500000E-02  -9.55095922E-04
  -1.42000001E-02  -9.77320131E-04
  -1.41500002E-02  -1.00000552E-03
  -1.41000003E-02  -1.02316251E-03
  -1.40500003E-02  -1.04679284E-03
  -1.40000004E-02  -1.07088860E-03
  -1.39499996E-02  -1.09543570E-03
  -1.38999997E-02  -1.12042215E-03
  -1.38499998E-02  -1.14584889E-03
  -1.37999998E-02  -1.17173116E-03
  -1.37499999E-02  -1.19809492E-03
  -1.37000000E-02  -1.22497370E-03
  -1.36500001E-02  -1.25239312E-03
  -1.36000002E-02  -1.28035981E-03
  -1.35500003E-02  -1.30886037E-03
  -1.35000004E-02  -1.33787002E-03
  -1.34500004E-02  -1.36736373E-03
  -1.33999996E-02  -1.39733125E-03
  -1.33499997E-02  -1.42778642E-03
  -1.32999998E-02  -1.45876431E-03
  -1.32499998E-02  -1.49031088E-03
  -1.31999999E-02  -1.52246305E-03
  -1.31500000E-02  -1.55523361E-03
  -1.31000001E-02  -1.58860919E-03
  -1.30500002E-02  -1.62255717E-03
  -1.30000003E-02  -1.65703846E-03
  -1.29500004E-02  -1.69203058E-03
  -1.29000004E-02  -1.72754424E-03
  -1.28499996E-02  -1.76362100E-03
  -1.27999997E-02  -1.80031988E-03
  -1.27499998E-02  -1.83769921E-03
  -1.26999998E-02  -1.87579275E-03
  -1.26499999E-02  -1.91459164E-03
  -1.26000000E-02  -1.95405702E-03
  -1.25500001E-02  -1.99413789E-03
  -1.25000002E-02  -2.03479477E-03
  -1.24500003E-02  -2.07602815E-03
  -1.24000004E-02  -2.11788062E-03
  -1.23500004E-02  -2.16041878E-03
  -1.22999996E-02  -2.20371061E-03
  -1.22499997E-02  -2.24779942E-03
  -1.21999998E-02  -2.29268591E-03
  -1.21499998E-02  -2.33832491E-03
  -1.20999999E-02  -2.38465029E-03
  -1.20500000E-02  -2.43161176E-03
  -1.20000001E-02  -2.47919862E-03
  -1.19500002E-02  -2.52745254E-03
  -1.19000003E-02  -2.57645873E-03
  -1.18500004E-02  -2.62631429E-03
  -1.18000004E-02  -2.67708744E-03
  -1.17499996E-02  -2.72878259E-03
  -1.16999997E-02  -2.78135133E-03
  -1.16499998E-02  -2.83471495E-03
  -1.15999999E-02  -2.88879429E-03
  -1.15499999E-02  -2.94355699E-03
  -1.15000000E-02  -2.99903867E-03
  -1.14500001E-02  -3.05532687E-03
  -1.14000002E-02  -3.11252568E-03
  -1.13500003E-02  -3.17071867E-03
  -1.13000004E-02  -3.22992797E-03
  -1.12500004E-02  -3.29010468E-03
  -1.11999996E-02  -3.35116149E-03
  -1.11499997E-02  -3.41301435E-03
  -1.10999998E-02  -3.47562181E-03
  -1.10499999E-02  -3.53902602E-03
  -1.09999999E-02  -3.60333594E-03
  -1.09500000E-02  -3.66866449E-03
  -1.09000001E-02  -3.73509456E-03
  -1.08500002E-02  -3.80264991E-03
  -1.08000003E-02  -3.87127697E-03
  -1.07500004E-02  -3.94086959E-03
  -1.07000005E-02  -4.01132368E-03
  -1.06499996E-02  -4.08258103E-03
  -1.05999997E-02  -4.15466400E-03
  -1.05499998E-02  -4.22766944E-03
  -1.04999999E-02  -4.30173241E-03
  -1.04499999E-02  -4.37696371E-03
  -1.04000000E-02  -4.45340481E-03
  -1.03500001E-02  -4.53101192E-03
  -1.03000002E-02  -4.60967189E-03
  -1.02500003E-02  -4.68926458E-03
  -1.02000004E-02  -4.76971921E-03
  -1.01500005E-02  -4.85104928E-03
  -1.00999996E-02  -4.93335910E-03
  -1.00499997E-02  -5.01679303E-03
  -9.99999978E-03  -5.10146748E-03
  -9.94999986E-03  -5.18743088E-03
  -9.89999995E-03  -5.27463900E-03
  -9.85000003E-03  -5.36296610E-03
  -9.80000012E-03  -5.45227248E-03
  -9.75000020E-03  -5.54247014E-03
  -9.70000029E-03  -5.63355768E-03
  -9.65000037E-03  -5.72562078E-03
  -9.60000046E-03  -5.81880985E-03
  -9.54999961E-03  -5.91326458E-03
  -9.49999969E-03  -6.00903993E-03
  -9.44999978E-03  -6.10608328E-03
  -9.39999986E-03  -6.20426051E-03
  -9.34999995E-03  -6.30342169E-03
  -9.30000003E-03  -6.40345272E-03
  -9.25000012E-03  -6.50433684E-03
  -9.20000020E-03  -6.60619466E-03
  -9.15000029E-03  -6.70920685E-03
  -9.10000037E-03  -6.81353454E-03
  -9.05000046E-03  -6.91924896E-03
  -8.99999961E-03  -7.02630356E-03
  -8.94999970E-03  -7.13454420E-03
  -8.89999978E-03  -7.24377669E-03
  -8.84999987E-03  -7.35386508E-03
  -8.79999995E-03  -7.46479398E-03
  -8.75000004E-03  -7.57667050E-03
  -8.70000012E-03  -7.68967066E-03
  -8.65000021E-03  -7.80397281E-03
  -8.60000029E-03  -7.91965146E-03
  -8.55000038E-03  -8.03664606E-03
  -8.50000046E-03  -8.15479178E-03
  -8.44999962E-03  -8.27386975E-03
  -8.39999970E-03  -8.39370117E-03
  -8.34999979E-03  -8.51425249E-03
  -8.29999987E-03  -8.63562524E-03
  -8.24999996E-03  -8.75801407E-03
  -8.20000004E-03  -8.88163503E-03
  -8.15000013E-03  -9.00661107E-03
  -8.10000021E-03  -9.13290959E-03
  -8.05000030E-03  -9.26035270E-03
  -8.00000038E-03  -9.38870013E-03
  -7.95000046E-03  -9.51773673E-03
  -7.89999962E-03  -9.64738242E-03
  -7.84999970E-03  -9.77775827E-03
  -7.79999979E-03  -9.90908779E-03
  -7.74999987E-03  -1.00416029E-02
  -7.69999996E-03  -1.01754339E-02
  -7.65000004E-03  -1.03105316E-02
  -7.60000013E-03  -1.04466584E-02
  -7.55000021E-03  -1.05835069E-02
  -7.49999983E-03  -1.07208425E-02
  -7.44999992E-03  -1.08585646E-02
  -7.40000000E-03  -1.09967729E-02
  -7.35000009E-03  -1.11357011E-02
  -7.30000017E-03  -1.12755960E-02
  -7.24999979E-03  -1.14166131E-02
  -7.19999988E-03  -1.15587227E-02
  -7.14999996E-03  -1.17017198E-02
  -7.10000005E-03  -1.18452860E-02
  -7.05000013E-03  -1.19891129E-02
  -7.00000022E-03  -1.21330628E-02
  -6.94999984E-03  -1.22772204E-02
  -6.89999992E-03  -1.24218222E-02
  -6.85000001E-03  -1.25671672E-02
  -6.80000009E-03  -1.27134416E-02
  -6.75000018E-03  -1.28606148E-02
  -6.69999979E-03  -1.30084790E-02
  -6.64999988E-03  -1.31566804E-02
  -6.59999996E-03  -1.33048752E-02
  -6.55000005E-03  -1.34528615E-02
  -6.50000013E-03  -1.36006624E-02
  -6.45000022E-03  -1.37485024E-02
  -6.39999984E-03  -1.38966581E-02
  -6.34999992E-03  -1.40453521E-02
  -6.30000001E-03  -1.41946496E-02
  -6.25000009E-03  -1.43443532E-02
  -6.20000018E-03  -1.44940680E-02
  -6.14999980E-03  -1.46433702E-02
  -6.09999988E-03  -1.47919441E-02
  -6.04999997E-03  -1.49397794E-02
  -6.00000005E-03  -1.50871119E-02
  -5.95000014E-03  -1.52342925E-02
  -5.90000022E-03  -1.53816193E-02
  -5.84999984E-03  -1.55291427E-02
  -5.79999993E-03  -1.56766903E-02
  -5.75000001E-03  -1.58238746E-02
  -5.70000010E-03  -1.59701966E-02
  -5.65000018E-03  -1.61153041E-02
  -5.59999980E-03  -1.62590686E-02
  -5.54999989E-03  -1.64016467E-02
  -5.49999997E-03  -1.65434349E-02
  -5.45000006E-03  -1.66847911E-02
  -5.40000014E-03  -1.68258846E-02
  -5.35000023E-03  -1.69665683E-02
  -5.29999984E-03  -1.71063915E-02
  -5.24999993E-03  -1.72447842E-02
  -5.20000001E-03  -1.73812788E-02
  -5.15000010E-03  -1.75157189E-02
  -5.10000018E-03  -1.76481996E-02
  -5.04999980E-03  -1.77790243E-02
  -4.99999989E-03  -1.79086328E-02
  -4.94999997E-03  -1.80372763E-02
  -4.90000006E-03  -1.81648731E-02
  -4.85000014E-03  -1.82910543E-02
  -4.80000023E-03  -1.84152313E-02
  -4.74999985E-03  -1.85367875E-02
  -4.69999993E-03  -1.86554324E-02
  -4.65000002E-03  -1.87712535E-02
  -4.60000010E-03  -1.88845657E-02
  -4.55000019E-03  -1.89958233E-02
  -4.49999981E-03  -1.91053413E-02
  -4.44999989E-03  -1.92130748E-02
  -4.39999998E-03  -1.93186328E-02
  -4.35000006E-03  -1.94214210E-02
  -4.30000015E-03  -1.95208360E-02
  -4.25000023E-03  -1.96164716E-02
  -4.19999985E-03  -1.97082963E-02
  -4.14999994E-03  -1.97965819E-02
  -4.10000002E-03  -1.98817756E-02
  -4.05000011E-03  -1.99642405E-02
  -4.00000019E-03  -2.00440586E-02
  -3.94999981E-03  -2.01209765E-02
  -3.89999989E-03  -2.01943591E-02
  -3.84999998E-03  -2.02634409E-02
  -3.80000006E-03  -2.03276239E-02
  -3.74999992E-03  -2.03867238E-02
  -3.70000000E-03  -2.04410385E-02
  -3.65000009E-03  -2.04910636E-02
  -3.59999994E-03  -2.05372591E-02
  -3.55000002E-03  -2.05799453E-02
  -3.50000011E-03  -2.06189137E-02
  -3.44999996E-03  -2.06533615E-02
  -3.40000005E-03  -2.06824187E-02
  -3.34999990E-03  -2.07054839E-02
  -3.29999998E-03  -2.07222849E-02
  -3.25000007E-03  -2.07329933E-02
  -3.19999992E-03  -2.07381658E-02
  -3.15000000E-03  -2.07383707E-02
  -3.10000009E-03  -2.07338594E-02
  -3.04999994E-03  -2.07244456E-02
  -3.00000003E-03  -2.07095053E-02
  -2.95000011E-03  -2.06881687E-02
  -2.89999996E-03  -2.06595957E-02
  -2.85000005E-03  -2.06233654E-02
  -2.79999990E-03  -2.05795653E-02
  -2.74999999E-03  -2.05286387E-02
  -2.70000007E-03  -2.04713047E-02
  -2.64999992E-03  -2.04079971E-02
  -2.60000001E-03  -2.03385372E-02
  -2.55000009E-03  -2.02623587E-02
  -2.49999994E-03  -2.01784819E-02
  -2.45000003E-03  -2.00860184E-02
  -2.40000011E-03  -1.99845769E-02
  -2.34999997E-03  -1.98740643E-02
  -2.30000005E-03  -1.97548568E-02
  -2.24999990E-03  -1.96275692E-02
  -2.19999999E-03  -1.94927249E-02
  -2.15000007E-03  -1.93505362E-02
  -2.09999993E-03  -1.92005448E-02
  -2.05000001E-03  -1.90416910E-02
  -2.00000009E-03  -1.88729074E-02
  -1.94999995E-03  -1.86934862E-02
  -1.90000003E-03  -1.85031984E-02
  -1.85000000E-03  -1.83023829E-02
  -1.79999997E-03  -1.80918258E-02
  -1.75000005E-03  -1.78722758E-02
  -1.70000002E-03  -1.76439509E-02
  -1.64999999E-03  -1.74064040E-02
  -1.59999996E-03  -1.71586126E-02
  -1.55000004E-03  -1.68993566E-02
  -1.50000001E-03  -1.66276507E-02
  -1.44999998E-03  -1.63432099E-02
  -1.39999995E-03  -1.60464756E-02
  -1.35000004E-03  -1.57381278E-02
  -1.30000000E-03  -1.54190417E-02
  -1.24999997E-03  -1.50896627E-02
  -1.20000006E-03  -1.47496806E-02
  -1.15000003E-03  -1.43981734E-02
  -1.09999999E-03  -1.40337730E-02
  -1.04999996E-03  -1.36553021E-02
  -1.00000005E-03  -1.32622616E-02
  -9.50000016E-04  -1.28549607E-02
  -8.99999985E-04  -1.24342870E-02
  -8.50000011E-04  -1.20011568E-02
  -7.99999980E-04  -1.15562147E-02
  -7.50000007E-04  -1.10993274E-02
  -6.99999975E-04  -1.06293978E-02
  -6.50000002E-04  -1.01448903E-02
  -6.00000028E-04  -9.64459218E-03
  -5.49999997E-04  -9.12791584E-03
  -5.00000024E-04  -8.59490316E-03
  -4.49999992E-04  -8.04638769E-03
  -3.99999990E-04  -7.48345116E-03
  -3.49999988E-04  -6.90688519E-03
  -3.00000014E-04  -6.31675823E-03
  -2.50000012E-04  -5.71223022E-03
  -1.99999995E-04  -5.09194797E-03
  -1.50000007E-04  -4.45446046E-03
  -9.99999975E-05  -3.79882194E-03
  -4.99999987E-05  -3.12492508E-03
   0.00000000      -2.43344042E-03
   4.99999987E-05  -1.72557775E-03
   9.99999975E-05  -1.00243906E-03
   1.50000007E-04  -2.64398288E-04
   1.99999995E-04   4.89255821E-04
   2.50000012E-04   1.26000319E-03
   3.00000014E-04   2.04941304E-03
   3.49999988E-04   2.85871653E-03
   3.99999990E-04   3.68834427E-03
   4.49999992E-04   4.53771744E-03
   5.00000024E-04   5.40553639E-03
   5.49999997E-04   6.29040366E-03
   6.00000028E-04   7.19168084E-03
   6.50000002E-04   8.10984522E-03
   6.99999975E-04   9.04626027E-03
   7.50000007E-04   1.00026093E-02
   7.99999980E-04   1.09803164E-02
   8.50000011E-04   1.19799757E-02
   8.99999985E-04   1.30012101E-02
   9.50000016E-04   1.40428049E-02
   1.00000005E-03   1.51033681E-02
   1.04999996E-03   1.61820129E-02
   1.09999999E-03   1.72787402E-02
   1.15000003E-03   1.83946006E-02
   1.20000006E-03   1.95312724E-02
   1.24999997E-03   2.06904206E-02
   1.30000000E-03   2.18730066E-02
   1.35000004E-03   2.30789185E-02
   1.39999995E-03   2.43070517E-02
   1.44999998E-03   2.55558789E-02
   1.50000001E-03   2.68241409E-02
   1.55000004E-03   2.81114075E-02
   1.59999996E-03   2.94184312E-02
   1.64999999E-03   3.07469685E-02
   1.70000002E-03   3.20989750E-02
   1.75000005E-03   3.34757455E-02
   1.79999997E-03   3.48775238E-02
   1.85000000E-03   3.63033526E-02
   1.90000003E-03   3.77515480E-02
   1.94999995E-03   3.92204821E-02
   2.00000009E-03   4.07093167E-02
   2.05000001E-03   4.22185436E-02
   2.09999993E-03   4.37496863E-02
   2.15000007E-03   4.53046747E-02
   2.19999999E-03   4.68851328E-02
   2.24999990E-03   4.84916270E-02
   2.30000005E-03   5.01234829E-02
   2.34999997E-03   5.17790578E-02
   2.40000011E-03   5.34564480E-02
   2.45000003E-03   5.51544465E-02
   2.49999994E-03   5.68730757E-02
   2.55000009E-03   5.86136803E-02
   2.60000001E-03   6.03782982E-02
   2.64999992E-03   6.21687323E-02
   2.70000007E-03   6.39858991E-02
   2.74999999E-03   6.58293888E-02
   2.79999990E-03   6.76976293E-02