  -3.99999991E-02   0.00000000    
  -3.99499983E-02   0.00000000    
  -3.99000011E-02   0.00000000    
  -3.98500003E-02   2.49202284E-18
  -3.97999994E-02   2.20664209E-17
  -3.97499986E-02   1.00079358E-16
  -3.97000015E-02   3.03868146E-16
  -3.96500006E-02   6.72005659E-16
  -3.95999998E-02   1.07667205E-15
  -3.95499989E-02   1.02807756E-15
  -3.95000018E-02  -4.72852649E-16
  -3.94500010E-02  -4.86888599E-15
  -3.94000001E-02  -1.36299494E-14
  -3.93499993E-02  -2.74999495E-14
  -3.92999984E-02  -4.56767125E-14
  -3.92500013E-02  -6.54323329E-14
  -3.92000005E-02  -8.27004548E-14
  -3.91499996E-02  -9.37969456E-14
  -3.90999988E-02  -9.77535313E-14
  -3.90500017E-02  -9.80811027E-14
  -3.90000008E-02  -1.02642667E-13
  -3.89500000E-02  -1.21009295E-13
  -3.88999991E-02  -1.60005364E-13
  -3.88499983E-02  -2.19434483E-13
  -3.88000011E-02  -2.90407076E-13
  -3.87500003E-02  -3.57823661E-13
  -3.86999995E-02  -4.06644580E-13
  -3.86499986E-02  -4.29444918E-13
  -3.86000015E-02  -4.31515853E-13
  -3.85500006E-02  -4.30269183E-13
  -3.84999998E-02  -4.48053758E-13
  -3.84499989E-02  -5.00843453E-13
  -3.84000018E-02  -5.87970428E-13
  -3.83500010E-02  -6.88482149E-13
  -3.83000001E-02  -7.67101823E-13
  -3.82499993E-02  -7.88119461E-13
  -3.81999984E-02  -7.31167026E-13
  -3.81500013E-02  -6.01213198E-13
  -3.81000005E-02  -4.27366719E-13
  -3.80499996E-02  -2.50276471E-13
  -3.79999988E-02  -1.03530310E-13
  -3.79500017E-02   2.35011705E-15
  -3.79000008E-02   8.56088272E-14
  -3.78500000E-02   1.85633369E-13
  -3.77999991E-02   3.45378972E-13
  -3.77499983E-02   5.92167537E-13
  -3.77000012E-02   9.26042988E-13
  -3.76500003E-02   1.32097827E-12
  -3.75999995E-02   1.73753156E-12
  -3.75499986E-02   2.13979810E-12
  -3.75000015E-02   2.50806494E-12
  -3.74500006E-02   2.84210849E-12
  -3.73999998E-02   3.15610060E-12
  -3.73499990E-02   3.47053679E-12
  -3.73000018E-02   3.80661822E-12
  -3.72500010E-02   4.18443535E-12
  -3.72000001E-02   4.62137273E-12
  -3.71499993E-02   5.12533809E-12
  -3.70999984E-02   5.68084121E-12
  -3.70500013E-02   6.23337710E-12
  -3.70000005E-02   6.68429765E-12
  -3.69499996E-02   6.90886931E-12
  -3.68999988E-02   6.80111132E-12
  -3.68500017E-02   6.33233700E-12
  -3.68000008E-02   5.59449449E-12
  -3.67500000E-02   4.79564522E-12
  -3.66999991E-02   4.19049864E-12
  -3.66499983E-02   3.96110922E-12
  -3.66000012E-02   4.09701439E-12
  -3.65500003E-02   4.34020268E-12
  -3.64999995E-02   4.24386307E-12
  -3.64499986E-02   3.34556428E-12
  -3.64000015E-02   1.39435176E-12
  -3.63500006E-02  -1.47251655E-12
  -3.62999998E-02  -4.70646655E-12
  -3.62499990E-02  -7.52560427E-12
  -3.62000018E-02  -9.24770503E-12
  -3.61500010E-02  -9.64161303E-12
  -3.61000001E-02  -9.12184824E-12
  -3.60499993E-02  -8.65600126E-12
  -3.59999985E-02  -9.37655509E-12
  -3.59500013E-02  -1.20390460E-11
  -3.59000005E-02  -1.65732254E-11
  -3.58499996E-02  -2.19703006E-11
  -3.57999988E-02  -2.66205183E-11
  -3.57500017E-02  -2.90066565E-11
  -3.57000008E-02  -2.84637973E-11
  -3.56500000E-02  -2.56350236E-11
  -3.55999991E-02  -2.23457364E-11
  -3.55499983E-02  -2.08666764E-11
  -3.55000012E-02  -2.28377872E-11
  -3.54500003E-02  -2.83379882E-11
  -3.53999995E-02  -3.55879597E-11
  -3.53499986E-02  -4.15304978E-11
  -3.53000015E-02  -4.31314880E-11
  -3.52500007E-02  -3.88629649E-11
  -3.51999998E-02  -2.96628035E-11
  -3.51499990E-02  -1.88260518E-11
  -3.51000018E-02  -1.07347447E-11
  -3.50500010E-02  -8.89077440E-12
  -3.50000001E-02  -1.41189230E-11
  -3.49499993E-02  -2.38364883E-11
  -3.48999985E-02  -3.28806912E-11
  -3.48500013E-02  -3.56879942E-11
  -3.48000005E-02  -2.89355484E-11
  -3.47499996E-02  -1.34206179E-11
  -3.46999988E-02   5.82357079E-12
  -3.46500017E-02   2.14393624E-11
  -3.46000008E-02   2.69951318E-11
  -3.45500000E-02   2.01599952E-11
  -3.44999991E-02   4.26696178E-12
  -3.44499983E-02  -1.26626522E-11
  -3.44000012E-02  -2.12396264E-11
  -3.43500003E-02  -1.50316148E-11
  -3.42999995E-02   6.07001949E-12
  -3.42499986E-02   3.51478777E-11
  -3.42000015E-02   6.08266562E-11
  -3.41500007E-02   7.22138113E-11
  -3.40999998E-02   6.40909409E-11
  -3.40499990E-02   3.99065815E-11
  -3.40000018E-02   1.09360585E-11
  -3.39500010E-02  -8.35030656E-12
  -3.39000002E-02  -6.85571218E-12
  -3.38499993E-02   1.75857506E-11
  -3.37999985E-02   5.63952669E-11
  -3.37500013E-02   9.33751618E-11
  -3.37000005E-02   1.11729272E-10
  -3.36499996E-02   1.01990603E-10
  -3.35999988E-02   6.71769723E-11
  -3.35500017E-02   2.24911895E-11
  -3.35000008E-02  -1.07638950E-11
  -3.34500000E-02  -1.46717534E-11
  -3.33999991E-02   1.66046170E-11
  -3.33499983E-02   7.30908736E-11
  -3.33000012E-02   1.32396566E-10
  -3.32500003E-02   1.69213074E-10
  -3.31999995E-02   1.66930983E-10
  -3.31499986E-02   1.26083519E-10
  -3.31000015E-02   6.54060972E-11
  -3.30500007E-02   1.44482204E-11
  -3.29999998E-02   5.58610287E-13
  -3.29499990E-02   3.59160930E-11
  -3.29000019E-02   1.10678626E-10
  -3.28500010E-02   1.95905195E-10
  -3.28000002E-02   2.55594795E-10
  -3.27499993E-02   2.62874500E-10
  -3.26999985E-02   2.13076112E-10
  -3.26500013E-02   1.27385713E-10
  -3.26000005E-02   4.47189473E-11
  -3.25499997E-02   4.80489953E-12
  -3.24999988E-02   2.97572002E-11
  -3.24500017E-02   1.12595218E-10
  -3.24000008E-02   2.18496610E-10
  -3.23500000E-02   2.99017949E-10
  -3.22999991E-02   3.13513854E-10
  -3.22499983E-02   2.48280119E-10
  -3.22000012E-02   1.24410218E-10
  -3.21500003E-02  -9.96338255E-12
  -3.20999995E-02  -1.00392368E-10
  -3.20499986E-02  -1.10978317E-10
  -3.20000015E-02  -4.21125808E-11
  -3.19500007E-02   6.75398903E-11
  -3.18999998E-02   1.56650845E-10
  -3.18499990E-02   1.68236078E-10
  -3.18000019E-02   7.62383837E-11
  -3.17500010E-02  -1.00607321E-10
  -3.17000002E-02  -3.04739095E-10
  -3.16499993E-02  -4.63922400E-10
  -3.15999985E-02  -5.23473431E-10
  -3.15500014E-02  -4.72156592E-10
  -3.15000005E-02  -3.49495211E-10
  -3.14499997E-02  -2.30134217E-10
  -3.13999988E-02  -1.91228991E-10
  -3.13500017E-02  -2.76955570E-10
  -3.13000008E-02  -4.76292839E-10
  -3.12500000E-02  -7.24959093E-10
  -3.11999992E-02  -9.31842270E-10
  -3.11500002E-02  -1.01904185E-09
  -3.10999993E-02  -9.57859347E-10
  -3.10500003E-02  -7.84057208E-10
  -3.09999995E-02  -5.84388593E-10
  -3.09500005E-02  -4.59162680E-10
  -3.08999997E-02  -4.76805262E-10
  -3.08500007E-02  -6.40796749E-10
  -3.07999998E-02  -8.84672724E-10
  -3.07500008E-02  -1.09868437E-09
  -3.07000000E-02  -1.17742416E-09
  -3.06499992E-02  -1.06766995E-09
  -3.06000002E-02  -7.94671495E-10
  -3.05499993E-02  -4.53970167E-10
  -3.05000003E-02  -1.70976996E-10
  -3.04499995E-02  -4.53104568E-11
  -3.04000005E-02  -1.04559812E-10
  -3.03499997E-02  -2.88891799E-10
  -3.03000007E-02  -4.74791317E-10
  -3.02499998E-02  -5.28776356E-10
  -3.02000009E-02  -3.67915060E-10
  -3.01500000E-02   7.23863176E-14
  -3.00999992E-02   4.76170048E-10
  -3.00500002E-02   9.10778675E-10
  -2.99999993E-02   1.16896692E-09
  -2.99500003E-02   1.19163679E-09
  -2.98999995E-02   1.02471387E-09
  -2.98500005E-02   8.01880840E-10
  -2.97999997E-02   6.86876056E-10
  -2.97500007E-02   7.99932398E-10
  -2.96999998E-02   1.16105670E-09
  -2.96500009E-02   1.67646208E-09
  -2.96000000E-02   2.17592122E-09
  -2.95499992E-02   2.48605425E-09
  -2.95000002E-02   2.50774757E-09
  -2.94499993E-02   2.26285390E-09
  -2.94000003E-02   1.88795690E-09
  -2.93499995E-02   1.57609614E-09
  -2.93000005E-02   1.49092105E-09
  -2.92499997E-02   1.69106795E-09
  -2.92000007E-02   2.09927653E-09
  -2.91499998E-02   2.53177679E-09
  -2.91000009E-02   2.77683054E-09
  -2.90500000E-02   2.68874145E-09
  -2.89999992E-02   2.25550534E-09
  -2.89500002E-02   1.60873059E-09
  -2.88999993E-02   9.69395231E-10
  -2.88500004E-02   5.51707902E-10
  -2.87999995E-02   4.66961803E-10
  -2.87500005E-02   6.70637712E-10
  -2.86999997E-02   9.77971037E-10
  -2.86500007E-02   1.14316856E-09
  -2.85999998E-02   9.68657599E-10
  -2.85500009E-02   3.96179228E-10
  -2.85000000E-02  -4.61835320E-10
  -2.84499992E-02  -1.36657141E-09
  -2.84000002E-02  -2.05523620E-09
  -2.83499993E-02  -2.35730879E-09
  -2.83000004E-02  -2.27277153E-09
  -2.82499995E-02  -1.97599559E-09
  -2.82000005E-02  -1.74128145E-09
  -2.81499997E-02  -1.82117765E-09
  -2.81000007E-02  -2.33088726E-09
  -2.80499998E-02  -3.19092464E-09
  -2.80000009E-02  -4.15553236E-09
  -2.79500000E-02  -4.91658891E-09
  -2.78999992E-02  -5.23851673E-09
  -2.78500002E-02  -5.06447240E-09
  -2.77999993E-02  -4.54528681E-09
  -2.77500004E-02  -3.97600042E-09
  -2.76999995E-02  -3.66593800E-09
  -2.76500005E-02  -3.79888965E-09
  -2.75999997E-02  -4.34599157E-09
  -2.75500007E-02  -5.07195708E-09
  -2.74999999E-02  -5.63444402E-09
  -2.74500009E-02  -5.73444403E-09
  -2.74000000E-02  -5.25146326E-09
  -2.73499992E-02  -4.30230873E-09
  -2.73000002E-02  -3.19500582E-09
  -2.72499993E-02  -2.29574493E-09
  -2.72000004E-02  -1.86636684E-09
  -2.71499995E-02  -1.94464755E-09
  -2.71000005E-02  -2.32225528E-09
  -2.70499997E-02  -2.63280020E-09
  -2.70000007E-02  -2.51321475E-09
  -2.69499999E-02  -1.76776682E-09
  -2.69000009E-02  -4.61104516E-10
  -2.68500000E-02   1.10320664E-09
  -2.67999992E-02   2.51176946E-09
  -2.67500002E-02   3.42257089E-09
  -2.66999993E-02   3.71809050E-09
  -2.66500004E-02   3.56078633E-09
  -2.65999995E-02   3.32381034E-09
  -2.65500005E-02   3.42530027E-09
  -2.64999997E-02   4.13863832E-09
  -2.64500007E-02   5.46354961E-09
  -2.63999999E-02   7.11737957E-09
  -2.63500009E-02   8.65311289E-09
  -2.63000000E-02   9.65373470E-09
  -2.62499992E-02   9.91707250E-09
  -2.62000002E-02   9.54772883E-09
  -2.61499994E-02   8.91279495E-09
  -2.61000004E-02   8.47859116E-09
  -2.60499995E-02   8.59965787E-09
  -2.60000005E-02   9.35423117E-09
  -2.59499997E-02   1.05012523E-08
  -2.59000007E-02   1.15806449E-08
  -2.58499999E-02   1.21143344E-08
  -2.58000009E-02   1.18191537E-08
  -2.57500000E-02   1.07357874E-08
  -2.56999992E-02   9.21401977E-09
  -2.56500002E-02   7.75837972E-09
  -2.55999994E-02   6.80145185E-09
  -2.55500004E-02   6.50601661E-09
  -2.54999995E-02   6.68601619E-09
  -2.54500005E-02   6.88407997E-09
  -2.53999997E-02   6.57325705E-09
  -2.53500007E-02   5.39376321E-09
  -2.52999999E-02   3.31828720E-09
  -2.52500009E-02   6.70023648E-10
  -2.52000000E-02  -2.01694039E-09
  -2.51499992E-02  -4.23403002E-09
  -2.51000002E-02  -5.72575676E-09
  -2.50499994E-02  -6.60531407E-09
  -2.50000004E-02  -7.30427940E-09
  -2.49499995E-02  -8.37698977E-09
  -2.49000005E-02  -1.02464108E-08
  -2.48499997E-02  -1.30060060E-08
  -2.48000007E-02  -1.63682152E-08
  -2.47499999E-02  -1.97847960E-08
  -2.47000009E-02  -2.26864465E-08
  -2.46500000E-02  -2.47341738E-08
  -2.45999992E-02  -2.59684043E-08
  -2.45500002E-02  -2.67869282E-08
  -2.44999994E-02  -2.77599277E-08
  -2.44500004E-02  -2.93646654E-08
  -2.43999995E-02  -3.17597575E-08
  -2.43500005E-02  -3.47023956E-08
  -2.42999997E-02  -3.76474425E-08
  -2.42500007E-02  -3.99849149E-08
  -2.41999999E-02  -4.13086774E-08
  -2.41500009E-02  -4.15938359E-08
  -2.41000000E-02  -4.12010444E-08
  -2.40499992E-02  -4.07044638E-08
  -2.40000002E-02  -4.06209040E-08
  -2.39499994E-02  -4.11636307E-08
  -2.39000004E-02  -4.21340651E-08
  -2.38499995E-02  -4.30022027E-08
  -2.38000005E-02  -4.31403748E-08
  -2.37499997E-02  -4.21040376E-08
  -2.37000007E-02  -3.98307662E-08
  -2.36499999E-02  -3.66653872E-08
  -2.36000009E-02  -3.31983792E-08
  -2.35500000E-02  -2.99909217E-08
  -2.34999992E-02  -2.73125575E-08
  -2.34500002E-02  -2.50130032E-08
  -2.33999994E-02  -2.25882584E-08
  -2.33500004E-02  -1.94116652E-08
  -2.32999995E-02  -1.50241792E-08
  -2.32500006E-02  -9.34957800E-09
  -2.31999997E-02  -2.73425904E-09
  -2.31500007E-02   4.20805568E-09
  -2.30999999E-02   1.08757350E-08
  -2.30500009E-02   1.69533987E-08
  -2.30000000E-02   2.25530066E-08
  -2.29499992E-02   2.81549699E-08
  -2.29000002E-02   3.43749491E-08
  -2.28499994E-02   4.16641370E-08
  -2.28000004E-02   5.00829067E-08
  -2.27499995E-02   5.92545284E-08
  -2.27000006E-02   6.85222830E-08
  -2.26499997E-02   7.72383331E-08
  -2.26000007E-02   8.50497557E-08
  -2.25499999E-02   9.20465979E-08
  -2.25000009E-02   9.87011575E-08
  -2.24500000E-02   1.05624316E-07
  -2.23999992E-02   1.13252113E-07
  -2.23500002E-02   1.21610512E-07
  -2.22999994E-02   1.30270834E-07
  -2.22500004E-02   1.38520335E-07
  -2.21999995E-02   1.45670157E-07
  -2.21500006E-02   1.51356701E-07
  -2.20999997E-02   1.55692518E-07
  -2.20500007E-02   1.59192382E-07
  -2.19999999E-02   1.62504648E-07
  -2.19500009E-02   1.66072724E-07
  -2.19000001E-02   1.69887045E-07
  -2.18499992E-02   1.73447660E-07
  -2.18000002E-02   1.75961262E-07
  -2.17499994E-02   1.76683926E-07
  -2.17000004E-02   1.75249298E-07
  -2.16499995E-02   1.71825306E-07
  -2.16000006E-02   1.67019593E-07
  -2.15499997E-02   1.61571450E-07
  -2.15000007E-02   1.55972003E-07
  -2.14499999E-02   1.50191539E-07
  -2.14000009E-02   1.43649629E-07
  -2.13500001E-02   1.35449270E-07
  -2.12999992E-02   1.24771901E-07
  -2.12500002E-02   1.11250813E-07
  -2.11999994E-02   9.51430081E-08
  -2.11500004E-02   7.72103093E-08
  -2.10999995E-02   5.83562141E-08
  -2.10500006E-02   3.91833943E-08
  -2.09999997E-02   1.96795611E-08
  -2.09500007E-02  -8.14621315E-10
  -2.08999999E-02  -2.33277557E-08
  -2.08500009E-02  -4.87902696E-08
  -2.08000001E-02  -7.75942794E-08
  -2.07499992E-02  -1.09388679E-07
  -2.07000002E-02  -1.43218713E-07
  -2.06499994E-02  -1.77956821E-07
  -2.06000004E-02  -2.12831338E-07
  -2.05499995E-02  -2.47805332E-07
  -2.05000006E-02  -2.83623336E-07
  -2.04499997E-02  -3.21488812E-07
  -2.04000007E-02  -3.62506199E-07
  -2.03499999E-02  -4.07142892E-07
  -2.03000009E-02  -4.54966880E-07
  -2.02500001E-02  -5.04796446E-07
  -2.01999992E-02  -5.55205020E-07
  -2.01500002E-02  -6.05163507E-07
  -2.00999994E-02  -6.54522580E-07
  -2.00500004E-02  -7.04099421E-07
  -1.99999996E-02  -7.55315455E-07
  -1.99500006E-02  -8.09533162E-07
  -1.98999997E-02  -8.67390213E-07
  -1.98500007E-02  -9.28443967E-07
  -1.97999999E-02  -9.91300340E-07
  -1.97500009E-02  -1.05419690E-06
  -1.97000001E-02  -1.11578174E-06
  -1.96499992E-02  -1.17572984E-06
  -1.96000002E-02  -1.23491191E-06
  -1.95499994E-02  -1.29501200E-06
  -1.95000004E-02  -1.35775247E-06
  -1.94499996E-02  -1.42406702E-06
  -1.94000006E-02  -1.49360574E-06
  -1.93499997E-02  -1.56481588E-06
  -1.93000007E-02  -1.63558082E-06
  -1.92499999E-02  -1.70414410E-06
  -1.92000009E-02  -1.76991102E-06
  -1.91500001E-02  -1.83374630E-06
  -1.90999992E-02  -1.89760488E-06
  -1.90500002E-02  -1.96365500E-06
  -1.89999994E-02  -2.03326545E-06
  -1.89500004E-02  -2.10632379E-06
  -1.88999996E-02  -2.18121136E-06
  -1.88500006E-02  -2.25547228E-06
  -1.87999997E-02  -2.32689990E-06
  -1.87500007E-02  -2.39454607E-06
  -1.86999999E-02  -2.45919910E-06
  -1.86500009E-02  -2.52308155E-06
  -1.86000001E-02  -2.58888667E-06
  -1.85499992E-02  -2.65856329E-06
  -1.85000002E-02  -2.73239243E-06
  -1.84499994E-02  -2.80880795E-06
  -1.84000004E-02  -2.88504816E-06
  -1.83499996E-02  -2.95838572E-06
  -1.83000006E-02  -3.02739318E-06
  -1.82499997E-02  -3.09265874E-06
  -1.82000007E-02  -3.15661237E-06
  -1.81499999E-02  -3.22250366E-06
  -1.81000009E-02  -3.29298041E-06
  -1.80500001E-02  -3.36889320E-06
  -1.79999992E-02  -3.44887053E-06
  -1.79500002E-02  -3.52991106E-06
  -1.78999994E-02  -3.60873810E-06
  -1.78500004E-02  -3.68331598E-06
  -1.77999996E-02  -3.75386526E-06
  -1.77500006E-02  -3.82289727E-06
  -1.76999997E-02  -3.89420074E-06
  -1.76500008E-02  -3.97121948E-06
  -1.75999999E-02  -4.05554420E-06
  -1.75500009E-02  -4.14619217E-06
  -1.75000001E-02  -4.24002928E-06
  -1.74499992E-02  -4.33319883E-06
  -1.74000002E-02  -4.42290957E-06
  -1.73499994E-02  -4.50880725E-06
  -1.73000004E-02  -4.59328476E-06
  -1.72499996E-02  -4.68055578E-06
  -1.72000006E-02  -4.77489266E-06
  -1.71499997E-02  -4.87876014E-06
  -1.71000008E-02  -4.99173393E-06
  -1.70499999E-02  -5.11069129E-06
  -1.70000009E-02  -5.23122026E-06
  -1.69500001E-02  -5.34966284E-06
  -1.68999992E-02  -5.46487581E-06
  -1.68500002E-02  -5.57891371E-06
  -1.67999994E-02  -5.69627991E-06
  -1.67500004E-02  -5.82204848E-06
  -1.66999996E-02  -5.95969095E-06
  -1.66500006E-02  -6.10953657E-06
  -1.65999997E-02  -6.26863175E-06
  -1.65500008E-02  -6.43208978E-06
  -1.64999999E-02  -6.59531861E-06
  -1.64500009E-02  -6.75619185E-06
  -1.64000001E-02  -6.91615605E-06
  -1.63499992E-02  -7.07977324E-06
  -1.63000003E-02  -7.25285008E-06
  -1.62499994E-02  -7.43991222E-06
  -1.62000004E-02  -7.64222932E-06
  -1.61499996E-02  -7.85726206E-06
  -1.61000006E-02  -8.07976812E-06
  -1.60499997E-02  -8.30417957E-06
  -1.60000008E-02  -8.52719313E-06
  -1.59499999E-02  -8.74938178E-06
  -1.59000009E-02  -8.97513019E-06
  -1.58500001E-02  -9.21085029E-06
  -1.57999992E-02  -9.46221735E-06
  -1.57500003E-02  -9.73166243E-06
  -1.56999994E-02  -1.00173202E-05
  -1.56500004E-02  -1.03138309E-05
  -1.55999996E-02  -1.06147299E-05
  -1.55499997E-02  -1.09154262E-05
  -1.54999997E-02  -1.12153530E-05
  -1.54499998E-02  -1.15183930E-05
  -1.53999999E-02  -1.18313237E-05
  -1.53500000E-02  -1.21609237E-05
  -1.53000001E-02  -1.25109618E-05
  -1.52500002E-02  -1.28805077E-05
  -1.52000003E-02  -1.32643436E-05
  -1.51500003E-02  -1.36552862E-05
  -1.51000004E-02  -1.40474112E-05
  -1.50499996E-02  -1.44387959E-05
  -1.49999997E-02  -1.48325462E-05
  -1.49499997E-02  -1.52355815E-05
  -1.48999998E-02  -1.56557089E-05
  -1.48499999E-02  -1.60981617E-05
  -1.48000000E-02  -1.65633010E-05
  -1.47500001E-02  -1.70464136E-05
  -1.47000002E-02  -1.75398036E-05
  -1.46500003E-02  -1.80362586E-05
  -1.46000003E-02  -1.85323515E-05
  -1.45500004E-02  -1.90301089E-05
  -1.44999996E-02  -1.95362918E-05
  -1.44499997E-02  -2.00595805E-05
  -1.43999998E-02  -2.06067652E-05
  -1.43499998E-02  -2.11797906E-05
  -1.42999999E-02  -2.17748184E-05
  -1.42500000E-02  -2.23839252E-05
  -1.42000001E-02  -2.29987272E-05
  -1.41500002E-02  -2.36141768E-05
  -1.41000003E-02  -2.42309270E-05
  -1.40500003E-02  -2.48553170E-05
  -1.40000004E-02  -2.54967235E-05
  -1.39499996E-02  -2.61635323E-05
  -1.38999997E-02  -2.68594868E-05
  -1.38499998E-02  -2.75820039E-05
  -1.37999998E-02  -2.83233621E-05
  -1.37499999E-02  -2.90742100E-05
  -1.37000000E-02  -2.98278610E-05
  -1.36500001E-02  -3.05834146E-05
  -1.36000002E-02  -3.13464734E-05
  -1.35500003E-02  -3.21268672E-05
  -1.35000004E-02  -3.29343602E-05
  -1.34500004E-02  -3.37745587E-05
  -1.33999996E-02  -3.46465386E-05
  -1.33499997E-02  -3.55432057E-05
  -1.32999998E-02  -3.64546686E-05
  -1.32499998E-02  -3.73727598E-05
  -1.31999999E-02  -3.82947401E-05
  -1.31500000E-02  -3.92249640E-05
  -1.31000001E-02  -4.01731995E-05
  -1.30500002E-02  -4.11504443E-05
  -1.30000003E-02  -4.21643454E-05
  -1.29500004E-02  -4.32159650E-05
  -1.29000004E-02  -4.42993733E-05
  -1.28499996E-02  -4.54043220E-05
  -1.27999997E-02  -4.65211670E-05
  -1.27499998E-02  -4.76454043E-05
  -1.26999998E-02  -4.87799698E-05
  -1.26499999E-02  -4.99342204E-05
  -1.26000000E-02  -5.11200669E-05
  -1.25500001E-02  -5.23470553E-05
  -1.25000002E-02  -5.36183506E-05
  -1.24500003E-02  -5.49294018E-05
  -1.24000004E-02  -5.62701716E-05
  -1.23500004E-02  -5.76299935E-05
  -1.22999996E-02  -5.90024065E-05
  -1.22499997E-02  -6.03884619E-05
  -1.21999998E-02  -6.17966070E-05
  -1.21499998E-02  -6.32392694E-05
  -1.20999999E-02  -6.47277921E-05
  -1.20500000E-02  -6.62675593E-05
  -1.20000001E-02  -6.78559663E-05
  -1.19500002E-02  -6.94837945E-05
  -1.19000003E-02  -7.11394023E-05
  -1.18500004E-02  -7.28144150E-05
  -1.18000004E-02  -7.45078214E-05
  -1.17499996E-02  -7.62266063E-05
  -1.16999997E-02  -7.79831244E-05
  -1.16499998E-02  -7.97901375E-05
  -1.15999999E-02  -8.16554893E-05
  -1.15499999E-02  -8.35785540E-05
  -1.15000000E-02  -8.55510443E-05
  -1.14500001E-02  -8.75611731E-05
  -1.14000002E-02  -8.95990670E-05
  -1.13500003E-02  -9.16616118E-05
  -1.13000004E-02  -9.37541918E-05
  -1.12500004E-02  -9.58887467E-05
  -1.11999996E-02  -9.80789555E-05
  -1.11499997E-02  -1.00334619E-04
  -1.10999998E-02  -1.02657155E-04
  -1.10499999E-02  -1.05039842E-04
  -1.09999999E-02  -1.07471125E-04
  -1.09500000E-02  -1.09939530E-04
  -1.09000001E-02  -1.12439418E-04
  -1.08500002E-02  -1.14973889E-04
  -1.08000003E-02  -1.17554169E-04
  -1.07500004E-02  -1.20194694E-04
  -1.07000005E-02  -1.22906888E-04
  -1.06499996E-02  -1.25695005E-04
  -1.05999997E-02  -1.28554573E-04
  -1.05499998E-02  -1.31474488E-04
  -1.04999999E-02  -1.34442511E-04
  -1.04499999E-02  -1.37451090E-04
  -1.04000000E-02  -1.40501172E-04
  -1.03500001E-02  -1.43602330E-04
  -1.03000002E-02  -1.46768667E-04
  -1.02500003E-02  -1.50013017E-04
  -1.02000004E-02  -1.53341971E-04
  -1.01500005E-02  -1.56752983E-04
  -1.00999996E-02  -1.60235955E-04
  -1.00499997E-02  -1.63778386E-04
  -9.99999978E-03  -1.67370948E-04
  -9.94999986E-03  -1.71012070E-04
  -9.89999995E-03  -1.74708912E-04
  -9.85000003E-03  -1.78474787E-04
  -9.80000012E-03  -1.82323900E-04
  -9.75000020E-03  -1.86265213E-04
  -9.70000029E-03  -1.90299063E-04
  -9.65000037E-03  -1.94417342E-04
  -9.60000046E-03  -1.98607231E-04
  -9.54999961E-03  -2.02857525E-04
  -9.49999969E-03  -2.07164587E-04
  -9.44999978E-03  -2.11534119E-04
  -9.39999986E-03  -2.15978842E-04
  -9.34999995E-03  -2.20513743E-04
  -9.30000003E-03  -2.25149401E-04
  -9.25000012E-03  -2.29888392E-04
  -9.20000020E-03  -2.34724517E-04
  -9.15000029E-03  -2.39645087E-04
  -9.10000037E-03  -2.44637631E-04
  -9.05000046E-03  -2.49696197E-04
  -8.99999961E-03  -2.54824379E-04
  -8.94999970E-03  -2.60033616E-04
  -8.89999978E-03  -2.65337876E-04
  -8.84999987E-03  -2.70749326E-04
  -8.79999995E-03  -2.76273116E-04
  -8.75000004E-03  -2.81904184E-04
  -8.70000012E-03  -2.87631294E-04
  -8.65000021E-03  -2.93441786E-04
  -8.60000029E-03  -2.99327803E-04
  -8.55000038E-03  -3.05290887E-04
  -8.50000046E-03  -3.11340875E-04
  -8.44999962E-03  -3.17492581E-04
  -8.39999970E-03  -3.23759450E-04
  -8.34999979E-03  -3.30148556E-04
  -8.29999987E-03  -3.36657802E-04
  -8.24999996E-03  -3.43277323E-04
  -8.20000004E-03  -3.49994225E-04
  -8.15000013E-03  -3.56798759E-04
  -8.10000021E-03  -3.63689876E-04
  -8.05000030E-03  -3.70675523E-04
  -8.00000038E-03  -3.77769349E-04
  -7.95000046E-03  -3.84985760E-04
  -7.89999962E-03  -3.92332819E-04
  -7.84999970E-03  -3.99809680E-04
  -7.79999979E-03  -4.07408021E-04
  -7.74999987E-03  -4.15114744E-04
  -7.69999996E-03  -4.22918674E-04
  -7.65000004E-03  -4.30815620E-04
  -7.60000013E-03  -4.38811461E-04
  -7.55000021E-03  -4.46919788E-04
  -7.49999983E-03  -4.55156201E-04
  -7.44999992E-03  -4.63531236E-04
  -7.40000000E-03  -4.72045969E-04
  -7.35000009E-03  -4.80692572E-04
  -7.30000017E-03  -4.89457801E-04
  -7.24999979E-03  -4.98331035E-04
  -7.19999988E-03  -5.07308461E-04
  -7.14999996E-03  -5.16394386E-04
  -7.10000005E-03  -5.25600859E-04
  -7.05000013E-03  -5.34943072E-04
  -7.00000022E-03  -5.44430863E-04
  -6.94999984E-03  -5.54066093E-04
  -6.89999992E-03  -5.63843118E-04
  -6.85000001E-03  -5.73749770E-04
  -6.80000009E-03  -5.83774003E-04
  -6.75000018E-03  -5.93909412E-04
  -6.69999979E-03  -6.04158093E-04
  -6.64999988E-03  -6.14530989E-04
  -6.59999996E-03  -6.25041605E-04
  -6.55000005E-03  -6.35701232E-04
  -6.50000013E-03  -6.46514469E-04
  -6.45000022E-03  -6.57476834E-04
  -6.39999984E-03  -6.68576395E-04
  -6.34999992E-03  -6.79799647E-04
  -6.30000001E-03  -6.91138266E-04
  -6.25000009E-03  -7.02593185E-04
  -6.20000018E-03  -7.14174239E-04
  -6.14999980E-03  -7.25895865E-04
  -6.09999988E-03  -7.37772323E-04
  -6.04999997E-03  -7.49810832E-04
  -6.00000005E-03  -7.62007316E-04
  -5.95000014E-03  -7.74348562E-04
  -5.90000022E-03  -7.86819204E-04
  -5.84999984E-03  -7.99409812E-04
  -5.79999993E-03  -8.12119630E-04
  -5.75000001E-03  -8.24956165E-04
  -5.70000010E-03  -8.37933621E-04
  -5.65000018E-03  -8.51065270E-04
  -5.59999980E-03  -8.64357746E-04
  -5.54999989E-03  -8.77810526E-04
  -5.49999997E-03  -8.91414180E-04
  -5.45000006E-03  -9.05152410E-04
  -5.40000014E-03  -9.19009326E-04
  -5.35000023E-03  -9.32981027E-04
  -5.29999984E-03  -9.47076944E-04
  -5.24999993E-03  -9.61310812E-04
  -5.20000001E-03  -9.75695322E-04
  -5.15000010E-03  -9.90237575E-04
  -5.10000018E-03  -1.00493769E-03
  -5.04999980E-03  -1.01978611E-03
  -4.99999989E-03  -1.03476970E-03
  -4.94999997E-03  -1.04987680E-03
  -4.90000006E-03  -1.06510078E-03
  -4.85000014E-03  -1.08044350E-03
  -4.80000023E-03  -1.09591661E-03
  -4.74999985E-03  -1.11153454E-03
  -4.69999993E-03  -1.12730660E-03
  -4.65000002E-03  -1.14323117E-03
  -4.60000010E-03  -1.15929917E-03
  -4.55000019E-03  -1.17549719E-03
  -4.49999981E-03  -1.19180931E-03
  -4.44999989E-03  -1.20822946E-03
  -4.39999998E-03  -1.22475938E-03
  -4.35000006E-03  -1.24140608E-03
  -4.30000015E-03  -1.25818315E-03
  -4.25000023E-03  -1.27510156E-03
  -4.19999985E-03  -1.29216269E-03
  -4.14999994E-03  -1.30935817E-03
  -4.10000002E-03  -1.32667308E-03
  -4.05000011E-03  -1.34409324E-03
  -4.00000019E-03  -1.36160525E-03
  -3.94999981E-03  -1.37920945E-03
  -3.89999989E-03  -1.39692076E-03
  -3.84999998E-03  -1.41474977E-03
  -3.80000006E-03  -1.43270171E-03
  -3.74999992E-03  -1.45077740E-03
  -3.70000000E-03  -1.46896916E-03
  -3.65000009E-03  -1.48726313E-03
  -3.59999994E-03  -1.50564488E-03
  -3.55000002E-03  -1.52410334E-03
  -3.50000011E-03  -1.54263363E-03
  -3.44999996E-03  -1.56124309E-03
  -3.40000005E-03  -1.57994474E-03
  -3.34999990E-03  -1.59874652E-03
  -3.29999998E-03  -1.61765434E-03
  -3.25000007E-03  -1.63665682E-03
  -3.19999992E-03  -1.65573251E-03
  -3.15000000E-03  -1.67486642E-03
  -3.10000009E-03  -1.69404503E-03
  -3.04999994E-03  -1.71326357E-03
  -3.00000003E-03  -1.73252937E-03
  -2.95000011E-03  -1.75185106E-03
  -2.89999996E-03  -1.77123712E-03
  -2.85000005E-03  -1.79069070E-03
  -2.79999990E-03  -1.81020750E-03
  -2.74999999E-03  -1.82976981E-03
  -2.70000007E-03  -1.84935436E-03
  -2.64999992E-03  -1.86894811E-03
  -2.60000001E-03  -1.88854197E-03
  -2.55000009E-03  -1.90814154E-03
  -2.49999994E-03  -1.92776218E-03
  -2.45000003E-03  -1.94741366E-03
  -2.40000011E-03  -1.96710136E-03
  -2.34999997E-03  -1.98680651E-03
  -2.30000005E-03  -2.00650515E-03
  -2.24999990E-03  -2.02617608E-03
  -2.19999999E-03  -2.04580207E-03
  -2.15000007E-03  -2.06538267E-03
  -2.09999993E-03  -2.08492135E-03
  -2.05000001E-03  -2.10442208E-03
  -2.00000009E-03  -2.12389044E-03
  -1.94999995E-03  -2.14333460E-03
  -1.90000003E-03  -2.16274592E-03
  -1.85000000E-03  -2.18210556E-03
  -1.79999997E-03  -2.20138673E-03
  -1.75000005E-03  -2.22056638E-03
  -1.70000002E-03  -2.23963498E-03
  -1.64999999E-03  -2.25859089E-03
  -1.59999996E-03  -2.27744342E-03
  -1.55000004E-03  -2.29620421E-03
  -1.50000001E-03  -2.31487677E-03
  -1.44999998E-03  -2.33344757E-03
  -1.39999995E-03  -2.35189428E-03
  -1.35000004E-03  -2.37018894E-03
  -1.30000000E-03  -2.38831039E-03
  -1.24999997E-03  -2.40625557E-03
  -1.20000006E-03  -2.42402358E-03
  -1.15000003E-03  -2.44161393E-03
  -1.09999999E-03  -2.45903013E-03
  -1.04999996E-03  -2.47627427E-03
  -1.00000005E-03  -2.49333936E-03
  -9.50000016E-04  -2.51020351E-03
  -8.99999985E-04  -2.52683670E-03
  -8.50000011E-04  -2.54321168E-03
  -7.99999980E-04  -2.55931984E-03
  -7.50000007E-04  -2.57515651E-03
  -6.99999975E-04  -2.59072287E-03
  -6.50000002E-04  -2.60602916E-03
  -6.00000028E-04  -2.62107537E-03
  -5.49999997E-04  -2.63584778E-03
  -5.00000024E-04  -2.65032402E-03
  -4.49999992E-04  -2.66447547E-03
  -3.99999990E-04  -2.67827068E-03
  -3.49999988E-04  -2.69169011E-03
  -3.00000014E-04  -2.70473422E-03
  -2.50000012E-04  -2.71741091E-03
  -1.99999995E-04  -2.72973068E-03
  -1.50000007E-04  -2.74169701E-03
  -9.99999975E-05  -2.75329687E-03
  -4.99999987E-05  -2.76449975E-03
   0.00000000      -2.77526560E-03
   4.99999987E-05  -2.78556161E-03
   9.99999975E-05  -2.79536494E-03
   1.50000007E-04  -2.80467025E-03
   1.99999995E-04  -2.81348685E-03
   2.50000012E-04  -2.82182498E-03
   3.00000014E-04  -2.82969302E-03
   3.49999988E-04  -2.83708214E-03
   3.99999990E-04  -2.84395507E-03
   4.49999992E-04  -2.85027153E-03
   5.00000024E-04  -2.85599986E-03
   5.49999997E-04  -2.86111492E-03
   6.00000028E-04  -2.86561297E-03
   6.50000002E-04  -2.86950427E-03
   6.99999975E-04  -2.87279277E-03
   7.50000007E-04  -2.87547149E-03
   7.99999980E-04  -2.87752016E-03
   8.50000011E-04  -2.87891505E-03
   8.99999985E-04  -2.87962938E-03
   9.50000016E-04  -2.87963590E-03
   1.00000005E-03  -2.87891598E-03
   1.04999996E-03  -2.87744915E-03
   1.09999999E-03  -2.87521840E-03
   1.15000003E-03  -2.87222350E-03
   1.20000006E-03  -2.86848587E-03
   1.24999997E-03  -2.86398805E-03
   1.30000000E-03  -2.85871024E-03
   1.35000004E-03  -2.85263406E-03
   1.39999995E-03  -2.84572644E-03
   1.44999998E-03  -2.83795735E-03
   1.50000001E-03  -2.82928976E-03
   1.55000004E-03  -2.81969598E-03
   1.59999996E-03  -2.80916668E-03
   1.64999999E-03  -2.79771723E-03
   1.70000002E-03  -2.78535183E-03
   1.75000005E-03  -2.77208234E-03
   1.79999997E-03  -2.75789108E-03
   1.85000000E-03  -2.74272845E-03
   1.90000003E-03  -2.72655278E-03
   1.94999995E-03  -2.70931283E-03
   2.00000009E-03  -2.69097346E-03
   2.05000001E-03  -2.67154234E-03
   2.09999993E-03  -2.65103881E-03
   2.15000007E-03  -2.62947986E-03
   2.19999999E-03  -2.60688993E-03
   2.24999990E-03  -2.58325017E-03
   2.30000005E-03  -2.55849957E-03
   2.34999997E-03  -2.53257994E-03
   2.40000011E-03  -2.50544492E-03
   2.45000003E-03  -2.47705309E-03
   2.49999994E-03  -2.44740164E-03
   2.55000009E-03  -2.41652108E-03
   2.60000001E-03  -2.38443096E-03
   2.64999992E-03  -2.35112803E-03
   2.70000007E-03  -2.31661694E-03
   2.74999999E-03  -2.28087837E-03
   2.79999990E-03  -2.24384316E-03