  -3.99999991E-02   0.00000000    
  -3.99499983E-02   0.00000000    
  -3.99000011E-02   0.00000000    
  -3.98500003E-02   2.24252481E-15
  -3.97999994E-02   1.88242874E-14
  -3.97499986E-02   8.10652814E-14
  -3.97000015E-02   2.39398589E-13
  -3.96500006E-02   5.50906163E-13
  -3.95999998E-02   1.07404862E-12
  -3.95499989E-02   1.88855377E-12
  -3.95000018E-02   3.11127925E-12
  -3.94500010E-02   4.84277722E-12
  -3.94000001E-02   7.03893280E-12
  -3.93499993E-02   9.43111648E-12
  -3.92999984E-02   1.16517507E-11
  -3.92500013E-02   1.35475563E-11
  -3.92000005E-02   1.54220976E-11
  -3.91499996E-02   1.79386662E-11
  -3.90999988E-02   2.17194301E-11
  -3.90500017E-02   2.69908870E-11
  -3.90000008E-02   3.35674127E-11
  -3.89500000E-02   4.10738041E-11
  -3.88999991E-02   4.90638259E-11
  -3.88499983E-02   5.69316330E-11
  -3.88000011E-02   6.39386391E-11
  -3.87500003E-02   6.96598820E-11
  -3.86999995E-02   7.45722720E-11
  -3.86499986E-02   8.00509589E-11
  -3.86000015E-02   8.74312844E-11
  -3.85500006E-02   9.67885563E-11
  -3.84999998E-02   1.06571620E-10
  -3.84499989E-02   1.14499965E-10
  -3.84000018E-02   1.18879434E-10
  -3.83500010E-02   1.19125501E-10
  -3.83000001E-02   1.15263479E-10
  -3.82499993E-02   1.07344370E-10
  -3.81999984E-02   9.56354787E-11
  -3.81500013E-02   8.12048970E-11
  -3.81000005E-02   6.57336616E-11
  -3.80499996E-02   5.02202620E-11
  -3.79999988E-02   3.37967501E-11
  -3.79500017E-02   1.41263954E-11
  -3.79000008E-02  -1.07959718E-11
  -3.78500000E-02  -4.13353587E-11
  -3.77999991E-02  -7.68981198E-11
  -3.77499983E-02  -1.17804017E-10
  -3.77000012E-02  -1.65999811E-10
  -3.76500003E-02  -2.23488339E-10
  -3.75999995E-02  -2.90088675E-10
  -3.75499986E-02  -3.63171049E-10
  -3.75000015E-02  -4.39947717E-10
  -3.74500006E-02  -5.20023136E-10
  -3.73999998E-02  -6.05591910E-10
  -3.73499990E-02  -6.99295233E-10
  -3.73000018E-02  -8.02138300E-10
  -3.72500010E-02  -9.13173925E-10
  -3.72000001E-02  -1.02995024E-09
  -3.71499993E-02  -1.14774490E-09
  -3.70999984E-02  -1.25798494E-09
  -3.70500013E-02  -1.34903799E-09
  -3.70000005E-02  -1.41156631E-09
  -3.69499996E-02  -1.44590573E-09
  -3.68999988E-02  -1.46536250E-09
  -3.68500017E-02  -1.49138268E-09
  -3.68000008E-02  -1.54287261E-09
  -3.67500000E-02  -1.62645131E-09
  -3.66999991E-02  -1.73300052E-09
  -3.66499983E-02  -1.84076532E-09
  -3.66000012E-02  -1.92204141E-09
  -3.65500003E-02  -1.95134553E-09
  -3.64999995E-02  -1.91450567E-09
  -3.64499986E-02  -1.81639226E-09
  -3.64000015E-02  -1.68174685E-09
  -3.63500006E-02  -1.54445057E-09
  -3.62999998E-02  -1.42803103E-09
  -3.62499990E-02  -1.32878697E-09
  -3.62000018E-02  -1.21378607E-09
  -3.61500010E-02  -1.03678854E-09
  -3.61000001E-02  -7.62972574E-10
  -3.60499993E-02  -3.88306165E-10
  -3.59999985E-02   5.57415537E-11
  -3.59500013E-02   5.12861364E-10
  -3.59000005E-02   9.23239651E-10
  -3.58499996E-02   1.24931110E-09
  -3.57999988E-02   1.49773249E-09
  -3.57500017E-02   1.72635928E-09
  -3.57000008E-02   2.02652273E-09
  -3.56500000E-02   2.48217469E-09
  -3.55999991E-02   3.12395776E-09
  -3.55499983E-02   3.90468680E-09
  -3.55000012E-02   4.71362416E-09
  -3.54500003E-02   5.42477263E-09
  -3.53999995E-02   5.95493432E-09
  -3.53499986E-02   6.30334318E-09
  -3.53000015E-02   6.55557342E-09
  -3.52500007E-02   6.85035983E-09
  -3.51999998E-02   7.32066585E-09
  -3.51499990E-02   8.02942779E-09
  -3.51000018E-02   8.92662033E-09
  -3.50500010E-02   9.85277193E-09
  -3.50000001E-02   1.05977227E-08
  -3.49499993E-02   1.09943539E-08
  -3.48999985E-02   1.10020579E-08
  -3.48500013E-02   1.07336664E-08
  -3.48000005E-02   1.04074003E-08
  -3.47499996E-02   1.02454187E-08
  -3.46999988E-02   1.03676303E-08
  -3.46500017E-02   1.07295994E-08
  -3.46000008E-02   1.11317746E-08
  -3.45500000E-02   1.12979741E-08
  -3.44999991E-02   1.09947713E-08
  -3.44499983E-02   1.01442135E-08
  -3.44000012E-02   8.87677043E-09
  -3.43500003E-02   7.48881224E-09
  -3.42999995E-02   6.31107078E-09
  -3.42499986E-02   5.54464386E-09
  -3.42000015E-02   5.14733189E-09
  -3.41500007E-02   4.83384532E-09
  -3.40999998E-02   4.19647961E-09
  -3.40499990E-02   2.89115687E-09
  -3.40000018E-02   8.02305056E-10
  -3.39500010E-02  -1.88850402E-09
  -3.39000002E-02  -4.76339457E-09
  -3.38499993E-02  -7.33909333E-09
  -3.37999985E-02  -9.28162969E-09
  -3.37500013E-02  -1.05725961E-08
  -3.37000005E-02  -1.15428609E-08
  -3.36499996E-02  -1.27399273E-08
  -3.35999988E-02  -1.46749235E-08
  -3.35500017E-02  -1.75645436E-08
  -3.35000008E-02  -2.11978932E-08
  -3.34500000E-02  -2.50024588E-08
  -3.33999991E-02  -2.82855748E-08
  -3.33499983E-02  -3.05419690E-08
  -3.33000012E-02  -3.16879820E-08
  -3.32500003E-02  -3.21162652E-08
  -3.31999995E-02  -3.25401111E-08
  -3.31499986E-02  -3.36837793E-08
  -3.31000015E-02  -3.59444705E-08
  -3.30500007E-02  -3.91771380E-08
  -3.29999998E-02  -4.27150475E-08
  -3.29499990E-02  -4.56390730E-08
  -3.29000019E-02  -4.71852850E-08
  -3.28500010E-02  -4.70998067E-08
  -3.28000002E-02  -4.57645122E-08
  -3.27499993E-02  -4.40252954E-08
  -3.26999985E-02  -4.27987388E-08
  -3.26500013E-02  -4.26377333E-08
  -3.26000005E-02  -4.34529781E-08
  -3.25499997E-02  -4.45183019E-08
  -3.24999988E-02  -4.47685053E-08
  -3.24500017E-02  -4.32729159E-08
  -3.24000008E-02  -3.96816127E-08
  -3.23500000E-02  -3.44334836E-08
  -3.22999991E-02  -2.86052746E-08
  -3.22499983E-02  -2.34444730E-08
  -3.22000012E-02  -1.97910488E-08
  -3.21500003E-02  -1.76642239E-08
  -3.20999995E-02  -1.62214153E-08
  -3.20499986E-02  -1.41195802E-08
  -3.20000015E-02  -1.01187636E-08
  -3.19500007E-02  -3.65638742E-09
  -3.18999998E-02   4.86443330E-09
  -3.18499990E-02   1.42080436E-08
  -3.18000019E-02   2.28199468E-08
  -3.17500010E-02   2.95128082E-08
  -3.17000002E-02   3.40239588E-08
  -3.16499993E-02   3.71749920E-08
  -3.15999985E-02   4.05295673E-08
  -3.15500014E-02   4.56803448E-08
  -3.15000005E-02   5.34883284E-08
  -3.14499997E-02   6.36370387E-08
  -3.13999988E-02   7.47201554E-08
  -3.13500017E-02   8.48297219E-08
  -3.13000008E-02   9.23815762E-08
  -3.12500000E-02   9.68120588E-08
  -3.11999992E-02   9.88375746E-08
  -3.11500002E-02   1.00152484E-07
  -3.10999993E-02   1.02676125E-07
  -3.10500003E-02   1.07664029E-07
  -3.09999995E-02   1.15082720E-07
  -3.09500005E-02   1.23556248E-07
  -3.08999997E-02   1.30941189E-07
  -3.08500007E-02   1.35283415E-07
  -3.07999998E-02   1.35712725E-07
  -3.07500008E-02   1.32851540E-07
  -3.07000000E-02   1.28541757E-07
  -3.06499992E-02   1.25012193E-07
  -3.06000002E-02   1.23860360E-07
  -3.05499993E-02   1.25298328E-07
  -3.05000003E-02   1.28000110E-07
  -3.04499995E-02   1.29635310E-07
  -3.04000005E-02   1.27882828E-07
  -3.03499997E-02   1.21491198E-07
  -3.03000007E-02   1.10895868E-07
  -3.02499998E-02   9.80795960E-08
  -3.02000009E-02   8.57056719E-08
  -3.01500000E-02   7.59111387E-08
  -3.00999992E-02   6.93214091E-08
  -3.00500002E-02   6.47440785E-08
  -2.99999993E-02   5.96860303E-08
  -2.99500003E-02   5.14623579E-08
  -2.98999995E-02   3.84095280E-08
  -2.98500005E-02   2.06769393E-08
  -2.97999997E-02   2.40662351E-10
  -2.97500007E-02  -1.98953813E-08
  -2.96999998E-02  -3.69920983E-08
  -2.96500009E-02  -4.98028534E-08
  -2.96000000E-02  -5.91631562E-08
  -2.95499992E-02  -6.76412384E-08
  -2.95000002E-02  -7.83867122E-08
  -2.94499993E-02  -9.36952205E-08
  -2.94000003E-02  -1.13948005E-07
  -2.93499995E-02  -1.37402679E-07
  -2.93000005E-02  -1.60918574E-07
  -2.92499997E-02  -1.81293714E-07
  -2.92000007E-02  -1.96636037E-07
  -2.91499998E-02  -2.07179340E-07
  -2.91000009E-02  -2.15174481E-07
  -2.90500000E-02  -2.23872405E-07
  -2.89999992E-02  -2.36020369E-07
  -2.89500002E-02  -2.52542520E-07
  -2.88999993E-02  -2.72027421E-07
  -2.88500004E-02  -2.91284977E-07
  -2.87999995E-02  -3.06731266E-07
  -2.87500005E-02  -3.15966531E-07
  -2.86999997E-02  -3.18830047E-07
  -2.86500007E-02  -3.17466800E-07
  -2.85999998E-02  -3.15382152E-07
  -2.85500009E-02  -3.15891384E-07
  -2.85000000E-02  -3.20621240E-07
  -2.84499992E-02  -3.28714009E-07
  -2.84000002E-02  -3.37110976E-07
  -2.83499993E-02  -3.41832362E-07
  -2.83000004E-02  -3.39720543E-07
  -2.82499995E-02  -3.29863184E-07
  -2.82000005E-02  -3.14026977E-07
  -2.81499997E-02  -2.95882472E-07
  -2.81000007E-02  -2.79367498E-07
  -2.80499998E-02  -2.66927628E-07
  -2.80000009E-02  -2.58410637E-07
  -2.79500000E-02  -2.51093951E-07
  -2.78999992E-02  -2.40830417E-07
  -2.78500002E-02  -2.23839763E-07
  -2.77999993E-02  -1.98399931E-07
  -2.77500004E-02  -1.65696164E-07
  -2.76999995E-02  -1.29415326E-07
  -2.76500005E-02  -9.42120337E-08
  -2.75999997E-02  -6.37015916E-08
  -2.75500007E-02  -3.88781949E-08
  -2.74999999E-02  -1.76870589E-08
  -2.74500009E-02   4.04459621E-09
  -2.74000000E-02   3.07376204E-08
  -2.73499992E-02   6.50782894E-08
  -2.73000002E-02   1.06786942E-07
  -2.72499993E-02   1.52654849E-07
  -2.72000004E-02   1.97837508E-07
  -2.71499995E-02   2.37886510E-07
  -2.71000005E-02   2.70665680E-07
  -2.70499997E-02   2.97299010E-07
  -2.70000007E-02   3.21679579E-07
  -2.69499999E-02   3.48704390E-07
  -2.69000009E-02   3.82007528E-07
  -2.68500000E-02   4.22224332E-07
  -2.67999992E-02   4.66584424E-07
  -2.67500002E-02   5.10024222E-07
  -2.66999993E-02   5.47321122E-07
  -2.66500004E-02   5.75315710E-07
  -2.65999995E-02   5.94268499E-07
  -2.65500005E-02   6.07756022E-07
  -2.64999997E-02   6.21110644E-07
  -2.64500007E-02   6.39026098E-07
  -2.63999999E-02   6.63350022E-07
  -2.63500009E-02   6.92070842E-07
  -2.63000000E-02   7.20026435E-07
  -2.62499992E-02   7.41083852E-07
  -2.62000002E-02   7.50829031E-07
  -2.61499994E-02   7.48546938E-07
  -2.61000004E-02   7.37589289E-07
  -2.60499995E-02   7.23953463E-07
  -2.60000005E-02   7.13686404E-07
  -2.59499997E-02   7.10218444E-07
  -2.59000007E-02   7.12770145E-07
  -2.58499999E-02   7.16550176E-07
  -2.58000009E-02   7.14728003E-07
  -2.57500000E-02   7.01393390E-07
  -2.56999992E-02   6.74223543E-07
  -2.56500002E-02   6.35628226E-07
  -2.55999994E-02   5.91783021E-07
  -2.55500004E-02   5.49941433E-07
  -2.54999995E-02   5.15216300E-07
  -2.54500005E-02   4.88290823E-07
  -2.53999997E-02   4.65085918E-07
  -2.53500007E-02   4.38538819E-07
  -2.52999999E-02   4.01740948E-07
  -2.52500009E-02   3.51067030E-07
  -2.52000000E-02   2.87939997E-07
  -2.51499992E-02   2.18415153E-07
  -2.51000002E-02   1.50668299E-07
  -2.50499994E-02   9.14227272E-08
  -2.50000004E-02   4.29068479E-08
  -2.49499995E-02   1.77593573E-09
  -2.49000005E-02  -3.94338464E-08
  -2.48499997E-02  -8.89304062E-08
  -2.48000007E-02  -1.51896913E-07
  -2.47499999E-02  -2.28041316E-07
  -2.47000009E-02  -3.11573388E-07
  -2.46500000E-02  -3.93630671E-07
  -2.45999992E-02  -4.66121833E-07
  -2.45500002E-02  -5.25323742E-07
  -2.44999994E-02  -5.73619218E-07
  -2.44500004E-02  -6.18544277E-07
  -2.43999995E-02  -6.69442386E-07
  -2.43500005E-02  -7.33143338E-07
  -2.42999997E-02  -8.10647975E-07
  -2.42500007E-02  -8.96408494E-07
  -2.41999999E-02  -9.80618438E-07
  -2.41500009E-02  -1.05351444E-06
  -2.41000000E-02  -1.10974020E-06
  -2.40499992E-02  -1.15079649E-06
  -2.40000002E-02  -1.18447178E-06
  -2.39499994E-02  -1.22147435E-06
  -2.39000004E-02  -1.27069563E-06
  -2.38499995E-02  -1.33515698E-06
  -2.38000005E-02  -1.41046257E-06
  -2.37499997E-02  -1.48655943E-06
  -2.37000007E-02  -1.55214047E-06
  -2.36499999E-02  -1.59975377E-06
  -2.36000009E-02  -1.62926574E-06
  -2.35500000E-02  -1.64801656E-06
  -2.34999992E-02  -1.66755410E-06
  -2.34500002E-02  -1.69843577E-06
  -2.33999994E-02  -1.74545357E-06
  -2.33500004E-02  -1.80542952E-06
  -2.32999995E-02  -1.86857767E-06
  -2.32500006E-02  -1.92284961E-06
  -2.31999997E-02  -1.95938946E-06
  -2.31500007E-02  -1.97669078E-06
  -2.30999999E-02  -1.98151042E-06
  -2.30500009E-02  -1.98601879E-06
  -2.30000000E-02  -2.00236309E-06
  -2.29499992E-02  -2.03710829E-06
  -2.29000002E-02  -2.08818574E-06
  -2.28499994E-02  -2.14580859E-06
  -2.28000004E-02  -2.19695835E-06
  -2.27499995E-02  -2.23138545E-06
  -2.27000006E-02  -2.24641758E-06
  -2.26499997E-02  -2.24838072E-06
  -2.26000007E-02  -2.24998416E-06
  -2.25499999E-02  -2.26478005E-06
  -2.25000009E-02  -2.30110072E-06
  -2.24500000E-02  -2.35818652E-06
  -2.23999992E-02  -2.42636634E-06
  -2.23500002E-02  -2.49138247E-06
  -2.22999994E-02  -2.54092652E-06
  -2.22500004E-02  -2.57040188E-06
  -2.21999995E-02  -2.58520390E-06
  -2.21500006E-02  -2.59838998E-06
  -2.20999997E-02  -2.62488061E-06
  -2.20500007E-02  -2.67483369E-06
  -2.19999999E-02  -2.74907961E-06
  -2.19500009E-02  -2.83871918E-06
  -2.19000001E-02  -2.92910431E-06
  -2.18499992E-02  -3.00646116E-06
  -2.18000002E-02  -3.06429206E-06
  -2.17499994E-02  -3.10656014E-06
  -2.17000004E-02  -3.14608133E-06
  -2.16499995E-02  -3.19885680E-06
  -2.16000006E-02  -3.27681232E-06
  -2.15499997E-02  -3.38230143E-06
  -2.15000007E-02  -3.50700748E-06
  -2.14499999E-02  -3.63576510E-06
  -2.14000009E-02  -3.75345712E-06
  -2.13500001E-02  -3.85183148E-06
  -2.12999992E-02  -3.93321852E-06
  -2.12500002E-02  -4.00954013E-06
  -2.11999994E-02  -4.09700124E-06
  -2.11500004E-02  -4.20872402E-06
  -2.10999995E-02  -4.34867570E-06
  -2.10500006E-02  -4.50972766E-06
  -2.09999997E-02  -4.67690279E-06
  -2.09500007E-02  -4.83429631E-06
  -2.08999999E-02  -4.97249948E-06
  -2.08500009E-02  -5.09311212E-06
  -2.08000001E-02  -5.20811409E-06
  -2.07499992E-02  -5.33442835E-06
  -2.07000002E-02  -5.48629441E-06
  -2.06499994E-02  -5.66879726E-06
  -2.06000004E-02  -5.87541990E-06
  -2.05499995E-02  -6.09088011E-06
  -2.05000006E-02  -6.29798797E-06
  -2.04499997E-02  -6.48546029E-06
  -2.04000007E-02  -6.65322932E-06
  -2.03499999E-02  -6.81271558E-06
  -2.03000009E-02  -6.98177564E-06
  -2.02500001E-02  -7.17669718E-06
  -2.01999992E-02  -7.40488349E-06
  -2.01500002E-02  -7.66155972E-06
  -2.00999994E-02  -7.93211075E-06
  -2.00500004E-02  -8.19894194E-06
  -1.99999996E-02  -8.44957594E-06
  -1.99500006E-02  -8.68237021E-06
  -1.98999997E-02  -8.90739011E-06
  -1.98500007E-02  -9.14218526E-06
  -1.97999999E-02  -9.40402697E-06
  -1.97500009E-02  -9.70203382E-06
  -1.97000001E-02  -1.00331117E-05
  -1.96499992E-02  -1.03834946E-05
  -1.96000002E-02  -1.07352080E-05
  -1.95499994E-02  -1.10745959E-05
  -1.95000004E-02  -1.13988181E-05
  -1.94499996E-02  -1.17172158E-05
  -1.94000006E-02  -1.20471905E-05
  -1.93499997E-02  -1.24064745E-05
  -1.93000007E-02  -1.28053816E-05
  -1.92499999E-02  -1.32423238E-05
  -1.92000009E-02  -1.37045581E-05
  -1.91500001E-02  -1.41741348E-05
  -1.90999992E-02  -1.46365246E-05
  -1.90500002E-02  -1.50874466E-05
  -1.89999994E-02  -1.55351718E-05
  -1.89500004E-02  -1.59971314E-05
  -1.88999996E-02  -1.64920421E-05
  -1.88500006E-02  -1.70315761E-05
  -1.87999997E-02  -1.76150807E-05
  -1.87500007E-02  -1.82301519E-05
  -1.86999999E-02  -1.88584418E-05
  -1.86500009E-02  -1.94842214E-05
  -1.86000001E-02  -2.01017428E-05
  -1.85499992E-02  -2.07179764E-05
  -1.85000002E-02  -2.13496842E-05
  -1.84499994E-02  -2.20161728E-05
  -1.84000004E-02  -2.27306664E-05
  -1.83499996E-02  -2.34943818E-05
  -1.83000006E-02  -2.42959359E-05
  -1.82499997E-02  -2.51163565E-05
  -1.82000007E-02  -2.59381413E-05
  -1.81499999E-02  -2.67534651E-05
  -1.81000009E-02  -2.75677394E-05
  -1.80500001E-02  -2.83968075E-05
  -1.79999992E-02  -2.92601453E-05
  -1.79500002E-02  -3.01722503E-05
  -1.78999994E-02  -3.11360855E-05
  -1.78500004E-02  -3.21421321E-05
  -1.77999996E-02  -3.31724113E-05
  -1.77500006E-02  -3.42084313E-05
  -1.76999997E-02  -3.52398674E-05
  -1.76500008E-02  -3.62695500E-05
  -1.75999999E-02  -3.73120383E-05
  -1.75500009E-02  -3.83866427E-05
  -1.75000001E-02  -3.95080242E-05
  -1.74499992E-02  -4.06794716E-05
  -1.74000002E-02  -4.18915733E-05
  -1.73499994E-02  -4.31265835E-05
  -1.73000004E-02  -4.43665849E-05
  -1.72499996E-02  -4.56010857E-05
  -1.72000006E-02  -4.68317266E-05
  -1.71499997E-02  -4.80720519E-05
  -1.71000008E-02  -4.93419029E-05
  -1.70499999E-02  -5.06583201E-05
  -1.70000009E-02  -5.20270187E-05
  -1.69500001E-02  -5.34397332E-05
  -1.68999992E-02  -5.48779972E-05
  -1.68500002E-02  -5.63215071E-05
  -1.67999994E-02  -5.77576575E-05
  -1.67500004E-02  -5.91869684E-05
  -1.66999996E-02  -6.06224166E-05
  -1.66500006E-02  -6.20831925E-05
  -1.65999997E-02  -6.35863398E-05
  -1.65500008E-02  -6.51403461E-05
  -1.64999999E-02  -6.67404674E-05
  -1.64500009E-02  -6.83697435E-05
  -1.64000001E-02  -7.00074233E-05
  -1.63499992E-02  -7.16393188E-05
  -1.63000003E-02  -7.32647677E-05
  -1.62499994E-02  -7.48966049E-05
  -1.62000004E-02  -7.65555815E-05
  -1.61499996E-02  -7.82609932E-05
  -1.61000006E-02  -8.00224734E-05
  -1.60499997E-02  -8.18369372E-05
  -1.60000008E-02  -8.36904001E-05
  -1.59499999E-02  -8.55639300E-05
  -1.59000009E-02  -8.74417819E-05
  -1.58500001E-02  -8.93196557E-05
  -1.57999992E-02  -9.12083997E-05
  -1.57500003E-02  -9.31297473E-05
  -1.56999994E-02  -9.51058828E-05
  -1.56500004E-02  -9.71491681E-05
  -1.55999996E-02  -9.92580317E-05
  -1.55499997E-02  -1.01419886E-04
  -1.54999997E-02  -1.03616592E-04
  -1.54499998E-02  -1.05833518E-04
  -1.53999999E-02  -1.08067827E-04
  -1.53500000E-02  -1.10329631E-04
  -1.53000001E-02  -1.12639573E-04
  -1.52500002E-02  -1.15022034E-04
  -1.52000003E-02  -1.17492913E-04
  -1.51500003E-02  -1.20052639E-04
  -1.51000004E-02  -1.22688594E-04
  -1.50499996E-02  -1.25382197E-04
  -1.49999997E-02  -1.28118219E-04
  -1.49499997E-02  -1.30892848E-04
  -1.48999998E-02  -1.33715803E-04
  -1.48499999E-02  -1.36607836E-04
  -1.48000000E-02  -1.39593831E-04
  -1.47500001E-02  -1.42693490E-04
  -1.47000002E-02  -1.45912141E-04
  -1.46500003E-02  -1.49238957E-04
  -1.46000003E-02  -1.52655164E-04
  -1.45500004E-02  -1.56142822E-04
  -1.44999996E-02  -1.59695075E-04
  -1.44499997E-02  -1.63321121E-04
  -1.43999998E-02  -1.67041610E-04
  -1.43499998E-02  -1.70880652E-04
  -1.42999999E-02  -1.74857865E-04
  -1.42500000E-02  -1.78981776E-04
  -1.42000001E-02  -1.83247874E-04
  -1.41500002E-02  -1.87639016E-04
  -1.41000003E-02  -1.92134292E-04
  -1.40500003E-02  -1.96723529E-04
  -1.40000004E-02  -2.01414514E-04
  -1.39499996E-02  -2.06229684E-04
  -1.38999997E-02  -2.11195147E-04
  -1.38499998E-02  -2.16329252E-04
  -1.37999998E-02  -2.21637907E-04
  -1.37499999E-02  -2.27114797E-04
  -1.37000000E-02  -2.32746082E-04
  -1.36500001E-02  -2.38516077E-04
  -1.36000002E-02  -2.44412455E-04
  -1.35500003E-02  -2.50433717E-04
  -1.35000004E-02  -2.56596832E-04
  -1.34500004E-02  -2.62933085E-04
  -1.33999996E-02  -2.69469601E-04
  -1.33499997E-02  -2.76215724E-04
  -1.32999998E-02  -2.83161004E-04
  -1.32499998E-02  -2.90284690E-04
  -1.31999999E-02  -2.97568622E-04
  -1.31500000E-02  -3.05005262E-04
  -1.31000001E-02  -3.12598975E-04
  -1.30500002E-02  -3.20362917E-04
  -1.30000003E-02  -3.28317343E-04
  -1.29500004E-02  -3.36488680E-04
  -1.29000004E-02  -3.44895874E-04
  -1.28499996E-02  -3.53534939E-04
  -1.27999997E-02  -3.62381921E-04
  -1.27499998E-02  -3.71408794E-04
  -1.26999998E-02  -3.80600890E-04
  -1.26499999E-02  -3.89963185E-04
  -1.26000000E-02  -3.99511337E-04
  -1.25500001E-02  -4.09265369E-04
  -1.25000002E-02  -4.19247546E-04
  -1.24500003E-02  -4.29475476E-04
  -1.24000004E-02  -4.39956173E-04
  -1.23500004E-02  -4.50677064E-04
  -1.22999996E-02  -4.61612566E-04
  -1.22499997E-02  -4.72742977E-04
  -1.21999998E-02  -4.84067918E-04
  -1.21499998E-02  -4.95606510E-04
  -1.20999999E-02  -5.07384364E-04
  -1.20500000E-02  -5.19416179E-04
  -1.20000001E-02  -5.31703176E-04
  -1.19500002E-02  -5.44242444E-04
  -1.19000003E-02  -5.57024265E-04
  -1.18500004E-02  -5.70035307E-04
  -1.18000004E-02  -5.83253801E-04
  -1.17499996E-02  -5.96661936E-04
  -1.16999997E-02  -6.10273622E-04
  -1.16499998E-02  -6.24132168E-04
  -1.15999999E-02  -6.38281752E-04
  -1.15499999E-02  -6.52740477E-04
  -1.15000000E-02  -6.67502696E-04
  -1.14500001E-02  -6.82548736E-04
  -1.14000002E-02  -6.97862066E-04
  -1.13500003E-02  -7.13432499E-04
  -1.13000004E-02  -7.29250605E-04
  -1.12500004E-02  -7.45310099E-04
  -1.11999996E-02  -7.61616277E-04
  -1.11499997E-02  -7.78191432E-04
  -1.10999998E-02  -7.95062573E-04
  -1.10499999E-02  -8.12237326E-04
  -1.09999999E-02  -8.29699216E-04
  -1.09500000E-02  -8.47425312E-04
  -1.09000001E-02  -8.65397684E-04
  -1.08500002E-02  -8.83628731E-04
  -1.08000003E-02  -9.02152096E-04
  -1.07500004E-02  -9.20994731E-04
  -1.07000005E-02  -9.40174737E-04
  -1.06499996E-02  -9.59708763E-04
  -1.05999997E-02  -9.79600241E-04
  -1.05499998E-02  -9.99842421E-04
  -1.04999999E-02  -1.02041801E-03
  -1.04499999E-02  -1.04129361E-03
  -1.04000000E-02  -1.06244918E-03
  -1.03500001E-02  -1.08388811E-03
  -1.03000002E-02  -1.10563484E-03
  -1.02500003E-02  -1.12773071E-03
  -1.02000004E-02  -1.15020550E-03
  -1.01500005E-02  -1.17305666E-03
  -1.00999996E-02  -1.19626627E-03
  -1.00499997E-02  -1.21983187E-03
  -9.99999978E-03  -1.24375441E-03
  -9.94999986E-03  -1.26802444E-03
  -9.89999995E-03  -1.29263336E-03
  -9.85000003E-03  -1.31758559E-03
  -9.80000012E-03  -1.34291092E-03
  -9.75000020E-03  -1.36865128E-03
  -9.70000029E-03  -1.39481213E-03
  -9.65000037E-03  -1.42136577E-03
  -9.60000046E-03  -1.44827866E-03
  -9.54999961E-03  -1.47555023E-03
  -9.49999969E-03  -1.50320632E-03
  -9.44999978E-03  -1.53126440E-03
  -9.39999986E-03  -1.55973202E-03
  -9.34999995E-03  -1.58862374E-03
  -9.30000003E-03  -1.61797891E-03
  -9.25000012E-03  -1.64782431E-03
  -9.20000020E-03  -1.67815760E-03
  -9.15000029E-03  -1.70894421E-03
  -9.10000037E-03  -1.74013327E-03
  -9.05000046E-03  -1.77171442E-03
  -8.99999961E-03  -1.80371501E-03
  -8.94999970E-03  -1.83616707E-03
  -8.89999978E-03  -1.86908373E-03
  -8.84999987E-03  -1.90247910E-03
  -8.79999995E-03  -1.93635898E-03
  -8.75000004E-03  -1.97071722E-03
  -8.70000012E-03  -2.00556894E-03
  -8.65000021E-03  -2.04091589E-03
  -8.60000029E-03  -2.07672361E-03
  -8.55000038E-03  -2.11296859E-03
  -8.50000046E-03  -2.14967784E-03
  -8.44999962E-03  -2.18691723E-03
  -8.39999970E-03  -2.22474523E-03
  -8.34999979E-03  -2.26316391E-03
  -8.29999987E-03  -2.30213371E-03
  -8.24999996E-03  -2.34161247E-03
  -8.20000004E-03  -2.38160975E-03
  -8.15000013E-03  -2.42217444E-03
  -8.10000021E-03  -2.46333028E-03
  -8.05000030E-03  -2.50502978E-03
  -8.00000038E-03  -2.54726340E-03
  -7.95000046E-03  -2.59009469E-03
  -7.89999962E-03  -2.63359025E-03
  -7.84999970E-03  -2.67775776E-03
  -7.79999979E-03  -2.72252341E-03
  -7.74999987E-03  -2.76782387E-03
  -7.69999996E-03  -2.81367940E-03
  -7.65000004E-03  -2.86016893E-03
  -7.60000013E-03  -2.90733785E-03
  -7.55000021E-03  -2.95518944E-03
  -7.49999983E-03  -3.00370599E-03
  -7.44999992E-03  -3.05287377E-03
  -7.40000000E-03  -3.10273422E-03
  -7.35000009E-03  -3.15334741E-03
  -7.30000017E-03  -3.20468354E-03
  -7.24999979E-03  -3.25663667E-03
  -7.19999988E-03  -3.30918352E-03
  -7.14999996E-03  -3.36241024E-03
  -7.10000005E-03  -3.41642904E-03
  -7.05000013E-03  -3.47129558E-03
  -7.00000022E-03  -3.52695375E-03
  -6.94999984E-03  -3.58331995E-03
  -6.89999992E-03  -3.64042632E-03
  -6.85000001E-03  -3.69838136E-03
  -6.80000009E-03  -3.75720835E-03
  -6.75000018E-03  -3.81682790E-03
  -6.69999979E-03  -3.87717132E-03
  -6.64999988E-03  -3.93827306E-03
  -6.59999996E-03  -4.00029682E-03
  -6.55000005E-03  -4.06334270E-03
  -6.50000013E-03  -4.12732409E-03
  -6.45000022E-03  -4.19210456E-03
  -6.39999984E-03  -4.25761426E-03
  -6.34999992E-03  -4.32392582E-03
  -6.30000001E-03  -4.39119851E-03
  -6.25000009E-03  -4.45948122E-03
  -6.20000018E-03  -4.52866871E-03
  -6.14999980E-03  -4.59868973E-03
  -6.09999988E-03  -4.66964347E-03
  -6.04999997E-03  -4.74167382E-03
  -6.00000005E-03  -4.81476262E-03
  -5.95000014E-03  -4.88876551E-03
  -5.90000022E-03  -4.96358192E-03
  -5.84999984E-03  -5.03929053E-03
  -5.79999993E-03  -5.11606690E-03
  -5.75000001E-03  -5.19400649E-03
  -5.70000010E-03  -5.27304411E-03
  -5.65000018E-03  -5.35310805E-03
  -5.59999980E-03  -5.43422811E-03
  -5.54999989E-03  -5.51649043E-03
  -5.49999997E-03  -5.59992297E-03
  -5.45000006E-03  -5.68437809E-03
  -5.40000014E-03  -5.76971611E-03
  -5.35000023E-03  -5.85603295E-03
  -5.29999984E-03  -5.94351022E-03
  -5.24999993E-03  -6.03222102E-03
  -5.20000001E-03  -6.12216070E-03
  -5.15000010E-03  -6.21322589E-03
  -5.10000018E-03  -6.30532159E-03
  -5.04999980E-03  -6.39846921E-03
  -4.99999989E-03  -6.49271626E-03
  -4.94999997E-03  -6.58808090E-03
  -4.90000006E-03  -6.68457197E-03
  -4.85000014E-03  -6.78223651E-03
  -4.80000023E-03  -6.88110758E-03
  -4.74999985E-03  -6.98122848E-03
  -4.69999993E-03  -7.08268350E-03
  -4.65000002E-03  -7.18547590E-03
  -4.60000010E-03  -7.28944736E-03
  -4.55000019E-03  -7.39447679E-03
  -4.49999981E-03  -7.50063127E-03
  -4.44999989E-03  -7.60803092E-03
  -4.39999998E-03  -7.71676283E-03
  -4.35000006E-03  -7.82680232E-03
  -4.30000015E-03  -7.93813355E-03
  -4.25000023E-03  -8.05074815E-03
  -4.19999985E-03  -8.16465169E-03
  -4.14999994E-03  -8.27980135E-03
  -4.10000002E-03  -8.39613099E-03
  -4.05000011E-03  -8.51363037E-03
  -4.00000019E-03  -8.63221474E-03
  -3.94999981E-03  -8.75199214E-03
  -3.89999989E-03  -8.87319352E-03
  -3.84999998E-03  -8.99590645E-03
  -3.80000006E-03  -9.12007876E-03
  -3.74999992E-03  -9.24547482E-03
  -3.70000000E-03  -9.37203318E-03
  -3.65000009E-03  -9.49987862E-03
  -3.59999994E-03  -9.62903444E-03
  -3.55000002E-03  -9.75943264E-03
  -3.50000011E-03  -9.89110395E-03
  -3.44999996E-03  -1.00242440E-02
  -3.40000005E-03  -1.01588992E-02
  -3.34999990E-03  -1.02950465E-02
  -3.29999998E-03  -1.04326606E-02
  -3.25000007E-03  -1.05716344E-02
  -3.19999992E-03  -1.07117789E-02
  -3.15000000E-03  -1.08531648E-02
  -3.10000009E-03  -1.09959347E-02
  -3.04999994E-03  -1.11400522E-02
  -3.00000003E-03  -1.12855928E-02
  -2.95000011E-03  -1.14327148E-02
  -2.89999996E-03  -1.15813706E-02
  -2.85000005E-03  -1.17314439E-02
  -2.79999990E-03  -1.18829347E-02
  -2.74999999E-03  -1.20356465E-02
  -2.70000007E-03  -1.21894302E-02
  -2.64999992E-03  -1.23445308E-02
  -2.60000001E-03  -1.25011327E-02
  -2.55000009E-03  -1.26592293E-02
  -2.49999994E-03  -1.28189065E-02
  -2.45000003E-03  -1.29801398E-02
  -2.40000011E-03  -1.31430272E-02
  -2.34999997E-03  -1.33076431E-02
  -2.30000005E-03  -1.34735983E-02
  -2.24999990E-03  -1.36405686E-02
  -2.19999999E-03  -1.38086919E-02
  -2.15000007E-03  -1.39783695E-02
  -2.09999993E-03  -1.41498195E-02
  -2.05000001E-03  -1.43229794E-02
  -2.00000009E-03  -1.44976992E-02
  -1.94999995E-03  -1.46738952E-02
  -1.90000003E-03  -1.48516316E-02
  -1.85000000E-03  -1.50308870E-02
  -1.79999997E-03  -1.52114425E-02
  -1.75000005E-03  -1.53931603E-02
  -1.70000002E-03  -1.55761065E-02
  -1.64999999E-03  -1.57605689E-02
  -1.59999996E-03  -1.59469638E-02
  -1.55000004E-03  -1.61352698E-02
  -1.50000001E-03  -1.63250696E-02
  -1.44999998E-03  -1.65162440E-02
  -1.39999995E-03  -1.67088881E-02
  -1.35000004E-03  -1.69030223E-02
  -1.30000000E-03  -1.70985740E-02
  -1.24999997E-03  -1.72953419E-02
  -1.20000006E-03  -1.74935311E-02
  -1.15000003E-03  -1.76935010E-02
  -1.09999999E-03  -1.78954620E-02
  -1.04999996E-03  -1.80993229E-02
  -1.00000005E-03  -1.83045249E-02
  -9.50000016E-04  -1.85108799E-02
  -8.99999985E-04  -1.87187120E-02
  -8.50000011E-04  -1.89281106E-02
  -7.99999980E-04  -1.91388484E-02
  -7.50000007E-04  -1.93508323E-02
  -6.99999975E-04  -1.95643641E-02
  -6.50000002E-04  -1.97798684E-02
  -6.00000028E-04  -1.99974328E-02
  -5.49999997E-04  -2.02166717E-02
  -5.00000024E-04  -2.04369705E-02
  -4.49999992E-04  -2.06581596E-02
  -3.99999990E-04  -2.08807252E-02
  -3.49999988E-04  -2.11048983E-02
  -3.00000014E-04  -2.13305354E-02
  -2.50000012E-04  -2.15576235E-02
  -1.99999995E-04  -2.17861068E-02
  -1.50000007E-04  -2.20162272E-02
  -9.99999975E-05  -2.22482681E-02
  -4.99999987E-05  -2.24821139E-02
   0.00000000      -2.27170289E-02
   4.99999987E-05  -2.29526795E-02
   9.99999975E-05  -2.31893249E-02
   1.50000007E-04  -2.34274548E-02
   1.99999995E-04  -2.36676503E-02
   2.50000012E-04  -2.39097979E-02
   3.00000014E-04  -2.41535120E-02
   3.49999988E-04  -2.43983641E-02
   3.99999990E-04  -2.46443953E-02
   4.49999992E-04  -2.48917136E-02
   5.00000024E-04  -2.51401160E-02
   5.49999997E-04  -2.53895726E-02
   6.00000028E-04  -2.56402567E-02
   6.50000002E-04  -2.58919969E-02
   6.99999975E-04  -2.61449274E-02
   7.50000007E-04  -2.63995584E-02
   7.99999980E-04  -2.66560558E-02
   8.50000011E-04  -2.69139428E-02
   8.99999985E-04  -2.71722842E-02
   9.50000016E-04  -2.74309926E-02
   1.00000005E-03  -2.76903994E-02
   1.04999996E-03  -2.79510207E-02
   1.09999999E-03  -2.82134190E-02
   1.15000003E-03  -2.84773353E-02
   1.20000006E-03  -2.87423264E-02
   1.24999997E-03  -2.90085282E-02
   1.30000000E-03  -2.92760152E-02
   1.35000004E-03  -2.95444522E-02
   1.39999995E-03  -2.98130289E-02
   1.44999998E-03  -3.00815031E-02
   1.50000001E-03  -3.03506590E-02
   1.55000004E-03  -3.06213591E-02
   1.59999996E-03  -3.08937002E-02
   1.64999999E-03  -3.11667342E-02
   1.70000002E-03  -3.14402096E-02
   1.75000005E-03  -3.17143612E-02
   1.79999997E-03  -3.19889784E-02
   1.85000000E-03  -3.22640389E-02
   1.90000003E-03  -3.25392112E-02
   1.94999995E-03  -3.28142531E-02
   2.00000009E-03  -3.30894887E-02
   2.05000001E-03  -3.33651528E-02
   2.09999993E-03  -3.36416848E-02
   2.15000007E-03  -3.39193195E-02
   2.19999999E-03  -3.41974348E-02
   2.24999990E-03  -3.44749913E-02
   2.30000005E-03  -3.47516462E-02
   2.34999997E-03  -3.50282378E-02
   2.40000011E-03  -3.53055708E-02
   2.45000003E-03  -3.55833285E-02
   2.49999994E-03  -3.58605087E-02
   2.55000009E-03  -3.61368321E-02
   2.60000001E-03  -3.64130624E-02
   2.64999992E-03  -3.66895348E-02
   2.70000007E-03  -3.69659327E-02
   2.74999999E-03  -3.72416601E-02
   2.79999990E-03  -3.75156216E-02