  -3.99999991E-02   0.00000000    
  -3.99499983E-02   0.00000000    
  -3.99000011E-02   0.00000000    
  -3.98500003E-02   0.00000000    
  -3.97999994E-02   0.00000000    
  -3.97499986E-02   9.93645864E-22
  -3.97000015E-02   1.11986248E-20
  -3.96500006E-02   6.69142651E-20
  -3.95999998E-02   2.79910449E-19
  -3.95499989E-02   9.15306574E-19
  -3.95000018E-02   2.48074319E-18
  -3.94500010E-02   5.77615217E-18
  -3.94000001E-02   1.18355376E-17
  -3.93499993E-02   2.17164689E-17
  -3.92999984E-02   3.61740342E-17
  -3.92500013E-02   5.53708779E-17
  -3.92000005E-02   7.88560211E-17
  -3.91499996E-02   1.06007285E-16
  -3.90999988E-02   1.36931982E-16
  -3.90500017E-02   1.73514832E-16
  -3.90000008E-02   2.20054355E-16
  -3.89500000E-02   2.82934442E-16
  -3.88999991E-02   3.69133782E-16
  -3.88499983E-02   4.83987638E-16
  -3.88000011E-02   6.29188514E-16
  -3.87500003E-02   8.02197958E-16
  -3.86999995E-02   9.97814553E-16
  -3.86499986E-02   1.21166486E-15
  -3.86000015E-02   1.44424824E-15
  -3.85500006E-02   1.70345081E-15
  -3.84999998E-02   2.00366978E-15
  -3.84499989E-02   2.36100291E-15
  -3.84000018E-02   2.78592821E-15
  -3.83500010E-02   3.27659491E-15
  -3.83000001E-02   3.81626375E-15
  -3.82499993E-02   4.37703725E-15
  -3.81999984E-02   4.92925064E-15
  -3.81500013E-02   5.45292452E-15
  -3.81000005E-02   5.94611200E-15
  -3.80499996E-02   6.42573085E-15
  -3.79999988E-02   6.91947440E-15
  -3.79500017E-02   7.45143100E-15
  -3.79000008E-02   8.02721604E-15
  -3.78500000E-02   8.62520436E-15
  -3.77999991E-02   9.19814507E-15
  -3.77499983E-02   9.68493999E-15
  -3.77000012E-02   1.00276063E-14
  -3.76500003E-02   1.01858338E-14
  -3.75999995E-02   1.01424462E-14
  -3.75499986E-02   9.89724626E-15
  -3.75000015E-02   9.45209148E-15
  -3.74500006E-02   8.79396128E-15
  -3.73999998E-02   7.88341696E-15
  -3.73499990E-02   6.65322315E-15
  -3.73000018E-02   5.01753265E-15
  -3.72500010E-02   2.88826673E-15
  -3.72000001E-02   1.93450480E-16
  -3.71499993E-02  -3.10734206E-15
  -3.70999984E-02  -7.01369538E-15
  -3.70500013E-02  -1.14830681E-14
  -3.70000005E-02  -1.64387326E-14
  -3.69499996E-02  -2.17879422E-14
  -3.68999988E-02  -2.74500424E-14
  -3.68500017E-02  -3.33904996E-14
  -3.68000008E-02  -3.96509065E-14
  -3.67500000E-02  -4.63602071E-14
  -3.66999991E-02  -5.37130426E-14
  -3.66499983E-02  -6.19108172E-14
  -3.66000012E-02  -7.10780447E-14
  -3.65500003E-02  -8.11844624E-14
  -3.64999995E-02  -9.20108919E-14
  -3.64499986E-02  -1.03186902E-13
  -3.64000015E-02  -1.14299886E-13
  -3.63500006E-02  -1.25039112E-13
  -3.62999998E-02  -1.35310491E-13
  -3.62499990E-02  -1.45257531E-13
  -3.62000018E-02  -1.55156134E-13
  -3.61500010E-02  -1.65209440E-13
  -3.61000001E-02  -1.75328109E-13
  -3.60499993E-02  -1.85009628E-13
  -3.59999985E-02  -1.93405770E-13
  -3.59500013E-02  -1.99588691E-13
  -3.59000005E-02  -2.02924794E-13
  -3.58499996E-02  -2.03387993E-13
  -3.57999988E-02  -2.01638389E-13
  -3.57500017E-02  -1.98774292E-13
  -3.57000008E-02  -1.95813309E-13
  -3.56500000E-02  -1.93105799E-13
  -3.55999991E-02  -1.89958441E-13
  -3.55499983E-02  -1.84694680E-13
  -3.55000012E-02  -1.75202802E-13
  -3.54500003E-02  -1.59790123E-13
  -3.53999995E-02  -1.37976951E-13
  -3.53499986E-02  -1.10831415E-13
  -3.53000015E-02  -8.06070366E-14
  -3.52500007E-02  -4.97523335E-14
  -3.51999998E-02  -1.96850101E-14
  -3.51499990E-02   1.00976991E-14
  -3.51000018E-02   4.20775983E-14
  -3.50500010E-02   7.97831175E-14
  -3.50000001E-02   1.26170179E-13
  -3.49499993E-02   1.82005967E-13
  -3.48999985E-02   2.45046930E-13
  -3.48500013E-02   3.10531061E-13
  -3.48000005E-02   3.72937954E-13
  -3.47499996E-02   4.28344805E-13
  -3.46999988E-02   4.76323733E-13
  -3.46500017E-02   5.20403002E-13
  -3.46000008E-02   5.66684612E-13
  -3.45500000E-02   6.21047864E-13
  -3.44999991E-02   6.86112517E-13
  -3.44499983E-02   7.59394229E-13
  -3.44000012E-02   8.33685226E-13
  -3.43500003E-02   8.99740623E-13
  -3.42999995E-02   9.50244657E-13
  -3.42499986E-02   9.83289622E-13
  -3.42000015E-02   1.00362774E-12
  -3.41500007E-02   1.02082882E-12
  -3.40999998E-02   1.04487675E-12
  -3.40499990E-02   1.08103652E-12
  -3.40000018E-02   1.12639141E-12
  -3.39500010E-02   1.16991681E-12
  -3.39000002E-02   1.19646242E-12
  -3.38499993E-02   1.19317555E-12
  -3.37999985E-02   1.15555926E-12
  -3.37500013E-02   1.09023489E-12
  -3.37000005E-02   1.01273970E-12
  -3.36499996E-02   9.40894389E-13
  -3.35999988E-02   8.86447545E-13
  -3.35500017E-02   8.48806865E-13
  -3.35000008E-02   8.14054011E-13
  -3.34500000E-02   7.60238552E-13
  -3.33999991E-02   6.67043081E-13
  -3.33499983E-02   5.25636609E-13
  -3.33000012E-02   3.44034127E-13
  -3.32500003E-02   1.44970800E-13
  -3.31999995E-02  -4.34159510E-14
  -3.31499986E-02  -2.00349719E-13
  -3.31000015E-02  -3.22880828E-13
  -3.30500007E-02  -4.28869071E-13
  -3.29999998E-02  -5.50367315E-13
  -3.29499990E-02  -7.19654750E-13
  -3.29000019E-02  -9.53843666E-13
  -3.28500010E-02  -1.24519492E-12
  -3.28000002E-02  -1.56219720E-12
  -3.27499993E-02  -1.86181843E-12
  -3.26999985E-02  -2.10809733E-12
  -3.26500013E-02  -2.28884186E-12
  -3.26000005E-02  -2.42241448E-12
  -3.25499997E-02  -2.55061987E-12
  -3.24999988E-02  -2.71994059E-12
  -3.24500017E-02  -2.95906203E-12
  -3.24000008E-02  -3.26300944E-12
  -3.23500000E-02  -3.59192038E-12
  -3.22999991E-02  -3.88620473E-12
  -3.22499983E-02  -4.09224564E-12
  -3.22000012E-02  -4.18736443E-12
  -3.21500003E-02  -4.19223510E-12
  -3.20999995E-02  -4.16393049E-12
  -3.20499986E-02  -4.17137028E-12
  -3.20000015E-02  -4.26334445E-12
  -3.19500007E-02  -4.44355577E-12
  -3.18999998E-02  -4.66487786E-12
  -3.18499990E-02  -4.84692885E-12
  -3.18000019E-02  -4.91041192E-12
  -3.17500010E-02  -4.81335284E-12
  -3.17000002E-02  -4.57243488E-12
  -3.16499993E-02  -4.25842347E-12
  -3.15999985E-02  -3.96605014E-12
  -3.15500014E-02  -3.77070640E-12
  -3.15000005E-02  -3.69131548E-12
  -3.14499997E-02  -3.67718312E-12
  -3.13999988E-02  -3.62660769E-12
  -3.13500017E-02  -3.43070255E-12
  -3.13000008E-02  -3.02365468E-12
  -3.12500000E-02  -2.41639326E-12
  -3.11999992E-02  -1.69687073E-12
  -3.11500002E-02  -9.94642628E-13
  -3.10999993E-02  -4.23927224E-13
  -3.10500003E-02  -3.02457983E-14
  -3.09999995E-02   2.34325932E-13
  -3.09500005E-02   4.94036344E-13
  -3.08999997E-02   8.95844705E-13
  -3.08500007E-02   1.54200502E-12
  -3.07999998E-02   2.43929182E-12
  -3.07500008E-02   3.48941405E-12
  -3.07000000E-02   4.52745307E-12
  -3.06499992E-02   5.39325225E-12
  -3.06000002E-02   6.00450765E-12
  -3.05499993E-02   6.39770745E-12
  -3.05000003E-02   6.71608819E-12
  -3.04499995E-02   7.14716697E-12
  -3.04000005E-02   7.83600615E-12
  -3.03499997E-02   8.81307267E-12
  -3.03000007E-02   9.97099105E-12
  -3.02499998E-02   1.11037212E-11
  -3.02000009E-02   1.19935251E-11
  -3.01500000E-02   1.25081369E-11
  -3.00999992E-02   1.26638006E-11
  -3.00500002E-02   1.26232557E-11
  -2.99999993E-02   1.26261441E-11
  -2.99500003E-02   1.28804927E-11
  -2.98999995E-02   1.34633398E-11
  -2.98500005E-02   1.42768540E-11
  -2.97999997E-02   1.50830338E-11
  -2.97500007E-02   1.56049253E-11
  -2.96999998E-02   1.56509840E-11
  -2.96500009E-02   1.52063379E-11
  -2.96000000E-02   1.44472091E-11
  -2.95499992E-02   1.36679843E-11
  -2.95000002E-02   1.31502795E-11
  -2.94499993E-02   1.30314553E-11
  -2.94000003E-02   1.32331368E-11
  -2.93499995E-02   1.34855573E-11
  -2.93000005E-02   1.34411267E-11
  -2.92499997E-02   1.28292680E-11
  -2.92000007E-02   1.15833419E-11
  -2.91499998E-02   9.88009327E-12
  -2.91000009E-02   8.06956411E-12
  -2.90500000E-02   6.52274198E-12
  -2.89999992E-02   5.46321712E-12
  -2.89500002E-02   4.85941452E-12
  -2.88999993E-02   4.42952359E-12
  -2.88500004E-02   3.76173268E-12
  -2.87999995E-02   2.49957086E-12
  -2.87500005E-02   5.10057166E-13
  -2.86999997E-02  -2.04328134E-12
  -2.86500007E-02  -4.76012415E-12
  -2.85999998E-02  -7.17411417E-12
  -2.85500009E-02  -8.96106193E-12
  -2.85000000E-02  -1.00907685E-11
  -2.84499992E-02  -1.08505045E-11
  -2.84000002E-02  -1.17240757E-11
  -2.83499993E-02  -1.31758294E-11
  -2.83000004E-02  -1.54345443E-11
  -2.82499995E-02  -1.83760333E-11
  -2.82000005E-02  -2.15620560E-11
  -2.81499997E-02  -2.44239681E-11
  -2.81000007E-02  -2.65127972E-11
  -2.80499998E-02  -2.77041202E-11
  -2.80000009E-02  -2.82623057E-11
  -2.79500000E-02  -2.87294789E-11
  -2.78999992E-02  -2.96832593E-11
  -2.78500002E-02  -3.14690808E-11
  -2.77999993E-02  -3.40284467E-11
  -2.77500004E-02  -3.69053087E-11
  -2.76999995E-02  -3.94343516E-11
  -2.76500005E-02  -4.10321568E-11
  -2.75999997E-02  -4.14621636E-11
  -2.75500007E-02  -4.09516171E-11
  -2.74999999E-02  -4.01017865E-11
  -2.74500009E-02  -3.96246785E-11
  -2.74000000E-02  -4.00200810E-11
  -2.73499992E-02  -4.13377110E-11
  -2.73000002E-02  -4.31358387E-11
  -2.72499993E-02  -4.46619443E-11
  -2.72000004E-02  -4.51808972E-11
  -2.71499995E-02  -4.43062496E-11
  -2.71000005E-02  -4.21840549E-11
  -2.70499997E-02  -3.94405168E-11
  -2.70000007E-02  -3.69095345E-11
  -2.69499999E-02  -3.52568252E-11
  -2.69000009E-02  -3.46683307E-11
  -2.68500000E-02  -3.47470039E-11
  -2.67999992E-02  -3.46718522E-11
  -2.67500002E-02  -3.35556548E-11
  -2.66999993E-02  -3.08451840E-11
  -2.66500004E-02  -2.65833518E-11
  -2.65999995E-02  -2.14096050E-11
  -2.65500005E-02  -1.62900058E-11
  -2.64999997E-02  -1.20909524E-11
  -2.64500007E-02  -9.18527233E-12
  -2.63999999E-02  -7.27061727E-12
  -2.63500009E-02  -5.48925879E-12
  -2.63000000E-02  -2.80420218E-12
  -2.62499992E-02   1.53126481E-12
  -2.62000002E-02   7.62100626E-12
  -2.61499994E-02   1.48540347E-11
  -2.61000004E-02   2.21543495E-11
  -2.60499995E-02   2.84488162E-11
  -2.60000005E-02   3.31472245E-11
  -2.59499997E-02   3.64168834E-11
  -2.59000007E-02   3.91209252E-11
  -2.58499999E-02   4.24383202E-11
  -2.58000009E-02   4.73285126E-11
  -2.57500000E-02   5.40790850E-11
  -2.56999992E-02   6.21439497E-11
  -2.56500002E-02   7.03541045E-11
  -2.55999994E-02   7.74160250E-11
  -2.55500004E-02   8.24802726E-11
  -2.54999995E-02   8.55245250E-11
  -2.54500005E-02   8.73724565E-11
  -2.53999997E-02   8.93298005E-11
  -2.53500007E-02   9.25920729E-11
  -2.52999999E-02   9.76862341E-11
  -2.52500009E-02   1.04200391E-10
  -2.52000000E-02   1.10931923E-10
  -2.51499992E-02   1.16398301E-10
  -2.51000002E-02   1.19488835E-10
  -2.50499994E-02   1.19965676E-10
  -2.50000004E-02   1.18582935E-10
  -2.49499995E-02   1.16759657E-10
  -2.49000005E-02   1.15942707E-10
  -2.48499997E-02   1.16940485E-10
  -2.48000007E-02   1.19528026E-10
  -2.47499999E-02   1.22510030E-10
  -2.47000009E-02   1.24224964E-10
  -2.46500000E-02   1.23273391E-10
  -2.45999992E-02   1.19146651E-10
  -2.45500002E-02   1.12468465E-10
  -2.44999994E-02   1.04730655E-10
  -2.44500004E-02   9.76300568E-11
  -2.43999995E-02   9.22973711E-11
  -2.43500005E-02   8.87648080E-11
  -2.42999997E-02   8.59199378E-11
  -2.42500007E-02   8.19787641E-11
  -2.41999999E-02   7.52765628E-11
  -2.41500009E-02   6.50259499E-11
  -2.41000000E-02   5.16978196E-11
  -2.40499992E-02   3.68431535E-11
  -2.40000002E-02   2.24228275E-11
  -2.39499994E-02   9.93686904E-12
  -2.39000004E-02  -2.57045443E-13
  -2.38499995E-02  -9.12290295E-12
  -2.38000005E-02  -1.85301479E-11
  -2.37499997E-02  -3.04166137E-11
  -2.37000007E-02  -4.58996972E-11
  -2.36499999E-02  -6.47370699E-11
  -2.36000009E-02  -8.53890014E-11
  -2.35500000E-02  -1.05667697E-10
  -2.34999992E-02  -1.23692445E-10
  -2.34500002E-02  -1.38724671E-10
  -2.33999994E-02  -1.51501603E-10
  -2.33500004E-02  -1.63906277E-10
  -2.32999995E-02  -1.78108431E-10
  -2.32500006E-02  -1.95554350E-10
  -2.31999997E-02  -2.16260246E-10
  -2.31500007E-02  -2.38736336E-10
  -2.30999999E-02  -2.60589827E-10
  -2.30500009E-02  -2.79548773E-10
  -2.30000000E-02  -2.94451796E-10
  -2.29499992E-02  -3.05754450E-10
  -2.29000002E-02  -3.15312665E-10
  -2.28499994E-02  -3.25526356E-10
  -2.28000004E-02  -3.38217981E-10
  -2.27499995E-02  -3.53749058E-10
  -2.27000006E-02  -3.70780240E-10
  -2.26499997E-02  -3.86796845E-10
  -2.26000007E-02  -3.99177302E-10
  -2.25499999E-02  -4.06330608E-10
  -2.25000009E-02  -4.08388490E-10
  -2.24500000E-02  -4.07129053E-10
  -2.23999992E-02  -4.05151718E-10
  -2.23500002E-02  -4.04662359E-10
  -2.22999994E-02  -4.06413153E-10
  -2.22500004E-02  -4.09281165E-10
  -2.21999995E-02  -4.10690010E-10
  -2.21500006E-02  -4.07700845E-10
  -2.20999997E-02  -3.98290484E-10
  -2.20500007E-02  -3.82241350E-10
  -2.19999999E-02  -3.61232322E-10
  -2.19500009E-02  -3.38074874E-10
  -2.19000001E-02  -3.15425214E-10
  -2.18499992E-02  -2.94547803E-10
  -2.18000002E-02  -2.74692907E-10
  -2.17499994E-02  -2.53382149E-10
  -2.17000004E-02  -2.27489222E-10
  -2.16499995E-02  -1.94639888E-10
  -2.16000006E-02  -1.54301114E-10
  -2.15499997E-02  -1.08059388E-10
  -2.15000007E-02  -5.89471527E-11
  -2.14499999E-02  -1.01068728E-11
  -2.14000009E-02   3.66124214E-11
  -2.13500001E-02   8.14890933E-11
  -2.12999992E-02   1.26804192E-10
  -2.12500002E-02   1.75798071E-10
  -2.11999994E-02   2.31165642E-10
  -2.11500004E-02   2.93766095E-10
  -2.10999995E-02   3.62136321E-10
  -2.10500006E-02   4.33042491E-10
  -2.09999997E-02   5.02835662E-10
  -2.09500007E-02   5.69008729E-10
  -2.08999999E-02   6.31248998E-10
  -2.08500009E-02   6.91501190E-10
  -2.08000001E-02   7.52993889E-10
  -2.07499992E-02   8.18657586E-10
  -2.07000002E-02   8.89643859E-10
  -2.06499994E-02   9.64620606E-10
  -2.06000004E-02   1.04017861E-09
  -2.05499995E-02   1.11218146E-09
  -2.05000006E-02   1.17746002E-09
  -2.04499997E-02   1.23508614E-09
  -2.04000007E-02   1.28664046E-09
  -2.03499999E-02   1.33533407E-09
  -2.03000009E-02   1.38436818E-09
  -2.02500001E-02   1.43526524E-09
  -2.01999992E-02   1.48692958E-09
  -2.01500002E-02   1.53587798E-09
  -2.00999994E-02   1.57755131E-09
  -2.00500004E-02   1.60812619E-09
  -1.99999996E-02   1.62601033E-09
  -1.99500006E-02   1.63233549E-09
  -1.98999997E-02   1.63021041E-09
  -1.98500007E-02   1.62305458E-09
  -1.97999999E-02   1.61276192E-09
  -1.97500009E-02   1.59852853E-09
  -1.97000001E-02   1.57688884E-09
  -1.96499992E-02   1.54296387E-09
  -1.96000002E-02   1.49236912E-09
  -1.95499994E-02   1.42292522E-09
  -1.95000004E-02   1.33538769E-09
  -1.94499996E-02   1.23285027E-09
  -1.94000006E-02   1.11907639E-09
  -1.93499997E-02   9.96501992E-10
  -1.93000007E-02   8.64819161E-10
  -1.92499999E-02   7.20791982E-10
  -1.92000009E-02   5.59406022E-10
  -1.91500001E-02   3.75846354E-10
  -1.90999992E-02   1.67413028E-10
  -1.90500002E-02  -6.55007576E-11
  -1.89999994E-02  -3.19825388E-10
  -1.89500004E-02  -5.91455163E-10
  -1.88999996E-02  -8.77378836E-10
  -1.88500006E-02  -1.17733356E-09
  -1.87999997E-02  -1.49421953E-09
  -1.87500007E-02  -1.83306792E-09
  -1.86999999E-02  -2.19901297E-09
  -1.86500009E-02  -2.59518007E-09
  -1.86000001E-02  -3.02145109E-09
  -1.85499992E-02  -3.47468387E-09
  -1.85000002E-02  -3.95030275E-09
  -1.84499994E-02  -4.44455583E-09
  -1.84000004E-02  -4.95641306E-09
  -1.83499996E-02  -5.48823520E-09
  -1.83000006E-02  -6.04489658E-09
  -1.82499997E-02  -6.63173472E-09
  -1.82000007E-02  -7.25225391E-09
  -1.81499999E-02  -7.90662913E-09
  -1.81000009E-02  -8.59170157E-09
  -1.80500001E-02  -9.30248856E-09
  -1.79999992E-02  -1.00345359E-08
  -1.79500002E-02  -1.07860592E-08
  -1.78999994E-02  -1.15588685E-08
  -1.78500004E-02  -1.23576660E-08
  -1.77999996E-02  -1.31879947E-08
  -1.77500006E-02  -1.40537688E-08
  -1.76999997E-02  -1.49555053E-08
  -1.76500008E-02  -1.58900715E-08
  -1.75999999E-02  -1.68521002E-08
  -1.75500009E-02  -1.78364239E-08
  -1.75000001E-02  -1.88404456E-08
  -1.74499992E-02  -1.98653662E-08
  -1.74000002E-02  -2.09156781E-08
  -1.73499994E-02  -2.19971454E-08
  -1.73000004E-02  -2.31141861E-08
  -1.72499996E-02  -2.42678322E-08
  -1.72000006E-02  -2.54552113E-08
  -1.71499997E-02  -2.66708273E-08
  -1.71000008E-02  -2.79090600E-08
  -1.70499999E-02  -2.91667615E-08
  -1.70000009E-02  -3.04447632E-08
  -1.69500001E-02  -3.17476001E-08
  -1.68999992E-02  -3.30815340E-08
  -1.68500002E-02  -3.44517801E-08
  -1.67999994E-02  -3.58601824E-08
  -1.67500004E-02  -3.73044102E-08
  -1.66999996E-02  -3.87790777E-08
  -1.66500006E-02  -4.02782696E-08
  -1.65999997E-02  -4.17983728E-08
  -1.65500008E-02  -4.33399059E-08
  -1.64999999E-02  -4.49074946E-08
  -1.64500009E-02  -4.65079886E-08
  -1.64000001E-02  -4.81475659E-08
  -1.63499992E-02  -4.98291293E-08
  -1.63000003E-02  -5.15511793E-08
  -1.62499994E-02  -5.33087423E-08
  -1.62000004E-02  -5.50959243E-08
  -1.61499996E-02  -5.69089380E-08
  -1.61000006E-02  -5.87482596E-08
  -1.60499997E-02  -6.06188806E-08
  -1.60000008E-02  -6.25285281E-08
  -1.59499999E-02  -6.44846807E-08
  -1.59000009E-02  -6.64916016E-08
  -1.58500001E-02  -6.85489496E-08
  -1.57999992E-02  -7.06523906E-08
  -1.57500003E-02  -7.27962046E-08
  -1.56999994E-02  -7.49764908E-08
  -1.56500004E-02  -7.71936470E-08
  -1.55999996E-02  -7.94530024E-08
  -1.55499997E-02  -8.17631687E-08
  -1.54999997E-02  -8.41329424E-08
  -1.54499998E-02  -8.65681145E-08
  -1.53999999E-02  -8.90696654E-08
  -1.53500000E-02  -9.16341776E-08
  -1.53000001E-02  -9.42563219E-08
  -1.52500002E-02  -9.69322542E-08
  -1.52000003E-02  -9.96625147E-08
  -1.51500003E-02  -1.02452937E-07
  -1.51000004E-02  -1.05313170E-07
  -1.50499996E-02  -1.08253559E-07
  -1.49999997E-02  -1.11281622E-07
  -1.49499997E-02  -1.14399867E-07
  -1.48999998E-02  -1.17605879E-07
  -1.48499999E-02  -1.20894697E-07
  -1.48000000E-02  -1.24262442E-07
  -1.47500001E-02  -1.27709555E-07
  -1.47000002E-02  -1.31242047E-07
  -1.46500003E-02  -1.34870362E-07
  -1.46000003E-02  -1.38606211E-07
  -1.45500004E-02  -1.42458717E-07
  -1.44999996E-02  -1.46431901E-07
  -1.44499997E-02  -1.50524386E-07
  -1.43999998E-02  -1.54731623E-07
  -1.43499998E-02  -1.59049705E-07
  -1.42999999E-02  -1.63478873E-07
  -1.42500000E-02  -1.68025323E-07
  -1.42000001E-02  -1.72700254E-07
  -1.41500002E-02  -1.77516725E-07
  -1.41000003E-02  -1.82485593E-07
  -1.40500003E-02  -1.87612443E-07
  -1.40000004E-02  -1.92896991E-07
  -1.39499996E-02  -1.98335087E-07
  -1.38999997E-02  -2.03922610E-07
  -1.38499998E-02  -2.09659390E-07
  -1.37999998E-02  -2.15551424E-07
  -1.37499999E-02  -2.21610279E-07
  -1.37000000E-02  -2.27850109E-07
  -1.36500001E-02  -2.34283178E-07
  -1.36000002E-02  -2.40916648E-07
  -1.35500003E-02  -2.47751245E-07
  -1.35000004E-02  -2.54783231E-07
  -1.34500004E-02  -2.62008314E-07
  -1.33999996E-02  -2.69425811E-07
  -1.33499997E-02  -2.77041494E-07
  -1.32999998E-02  -2.84867269E-07
  -1.32499998E-02  -2.92918344E-07
  -1.31999999E-02  -3.01208729E-07
  -1.31500000E-02  -3.09747236E-07
  -1.31000001E-02  -3.18535911E-07
  -1.30500002E-02  -3.27571655E-07
  -1.30000003E-02  -3.36849979E-07
  -1.29500004E-02  -3.46369632E-07
  -1.29000004E-02  -3.56136013E-07
  -1.28499996E-02  -3.66161260E-07
  -1.27999997E-02  -3.76461458E-07
  -1.27499998E-02  -3.87052211E-07
  -1.26999998E-02  -3.97944092E-07
  -1.26499999E-02  -4.09140739E-07
  -1.26000000E-02  -4.20639736E-07
  -1.25500001E-02  -4.32436821E-07
  -1.25000002E-02  -4.44530485E-07
  -1.24500003E-02  -4.56925846E-07
  -1.24000004E-02  -4.69635467E-07
  -1.23500004E-02  -4.82676739E-07
  -1.22999996E-02  -4.96067230E-07
  -1.22499997E-02  -5.09819984E-07
  -1.21999998E-02  -5.23940628E-07
  -1.21499998E-02  -5.38428367E-07
  -1.20999999E-02  -5.53279506E-07
  -1.20500000E-02  -5.68492794E-07
  -1.20000001E-02  -5.84073348E-07
  -1.19500002E-02  -6.00034411E-07
  -1.19000003E-02  -6.16394630E-07
  -1.18500004E-02  -6.33173897E-07
  -1.18000004E-02  -6.50387676E-07
  -1.17499996E-02  -6.68044038E-07
  -1.16999997E-02  -6.86143892E-07
  -1.16499998E-02  -7.04684680E-07
  -1.15999999E-02  -7.23665494E-07
  -1.15499999E-02  -7.43091903E-07
  -1.15000000E-02  -7.62977891E-07
  -1.14500001E-02  -7.83343864E-07
  -1.14000002E-02  -8.04212277E-07
  -1.13500003E-02  -8.25601830E-07
  -1.13000004E-02  -8.47524007E-07
  -1.12500004E-02  -8.69982443E-07
  -1.11999996E-02  -8.92976630E-07
  -1.11499997E-02  -9.16506735E-07
  -1.10999998E-02  -9.40579412E-07
  -1.10499999E-02  -9.65209551E-07
  -1.09999999E-02  -9.90419608E-07
  -1.09500000E-02  -1.01623459E-06
  -1.09000001E-02  -1.04267656E-06
  -1.08500002E-02  -1.06976029E-06
  -1.08000003E-02  -1.09749249E-06
  -1.07500004E-02  -1.12587452E-06
  -1.07000005E-02  -1.15490798E-06
  -1.06499996E-02  -1.18460036E-06
  -1.05999997E-02  -1.21496817E-06
  -1.05499998E-02  -1.24603571E-06
  -1.04999999E-02  -1.27783153E-06
  -1.04499999E-02  -1.31038144E-06
  -1.04000000E-02  -1.34370475E-06
  -1.03500001E-02  -1.37781205E-06
  -1.03000002E-02  -1.41270777E-06
  -1.02500003E-02  -1.44839589E-06
  -1.02000004E-02  -1.48488584E-06
  -1.01500005E-02  -1.52219559E-06
  -1.00999996E-02  -1.56035219E-06
  -1.00499997E-02  -1.59938702E-06
  -9.99999978E-03  -1.63932998E-06
  -9.94999986E-03  -1.68020438E-06
  -9.89999995E-03  -1.72202442E-06
  -9.85000003E-03  -1.76479762E-06
  -9.80000012E-03  -1.80853033E-06
  -9.75000020E-03  -1.85323336E-06
  -9.70000029E-03  -1.89892614E-06
  -9.65000037E-03  -1.94563791E-06
  -9.60000046E-03  -1.99340275E-06
  -9.54999961E-03  -2.04225466E-06
  -9.49999969E-03  -2.09222162E-06
  -9.44999978E-03  -2.14332204E-06
  -9.39999986E-03  -2.19556750E-06
  -9.34999995E-03  -2.24896712E-06
  -9.30000003E-03  -2.30353362E-06
  -9.25000012E-03  -2.35928928E-06
  -9.20000020E-03  -2.41626549E-06
  -9.15000029E-03  -2.47450089E-06
  -9.10000037E-03  -2.53403300E-06
  -9.05000046E-03  -2.59489480E-06
  -8.99999961E-03  -2.65710946E-06
  -8.94999970E-03  -2.72069178E-06
  -8.89999978E-03  -2.78565426E-06
  -8.84999987E-03  -2.85201168E-06
  -8.79999995E-03  -2.91978768E-06
  -8.75000004E-03  -2.98901659E-06
  -8.70000012E-03  -3.05973936E-06
  -8.65000021E-03  -3.13199780E-06
  -8.60000029E-03  -3.20582831E-06
  -8.55000038E-03  -3.28125884E-06
  -8.50000046E-03  -3.35830873E-06
  -8.44999962E-03  -3.43699253E-06
  -8.39999970E-03  -3.51732842E-06
  -8.34999979E-03  -3.59934324E-06
  -8.29999987E-03  -3.68307292E-06
  -8.24999996E-03  -3.76856224E-06
  -8.20000004E-03  -3.85585690E-06
  -8.15000013E-03  -3.94499875E-06
  -8.10000021E-03  -4.03602007E-06
  -8.05000030E-03  -4.12894497E-06
  -8.00000038E-03  -4.22379253E-06
  -7.95000046E-03  -4.32058459E-06
  -7.89999962E-03  -4.41934935E-06
  -7.84999970E-03  -4.52012682E-06
  -7.79999979E-03  -4.62296430E-06
  -7.74999987E-03  -4.72791316E-06
  -7.69999996E-03  -4.83501935E-06
  -7.65000004E-03  -4.94432061E-06
  -7.60000013E-03  -5.05584512E-06
  -7.55000021E-03  -5.16961745E-06
  -7.49999983E-03  -5.28566034E-06
  -7.44999992E-03  -5.40400697E-06
  -7.40000000E-03  -5.52469828E-06
  -7.35000009E-03  -5.64778566E-06
  -7.30000017E-03  -5.77332366E-06
  -7.24999979E-03  -5.90136415E-06
  -7.19999988E-03  -6.03194849E-06
  -7.14999996E-03  -6.16511124E-06
  -7.10000005E-03  -6.30088016E-06
  -7.05000013E-03  -6.43928206E-06
  -7.00000022E-03  -6.58035242E-06
  -6.94999984E-03  -6.72413671E-06
  -6.89999992E-03  -6.87068950E-06
  -6.85000001E-03  -7.02006901E-06
  -6.80000009E-03  -7.17233206E-06
  -6.75000018E-03  -7.32752733E-06
  -6.69999979E-03  -7.48569300E-06
  -6.64999988E-03  -7.64686229E-06
  -6.59999996E-03  -7.81106792E-06
  -6.55000005E-03  -7.97834582E-06
  -6.50000013E-03  -8.14874693E-06
  -6.45000022E-03  -8.32232763E-06
  -6.39999984E-03  -8.49915159E-06
  -6.34999992E-03  -8.67927793E-06
  -6.30000001E-03  -8.86276121E-06
  -6.25000009E-03  -9.04964327E-06
  -6.20000018E-03  -9.23996140E-06
  -6.14999980E-03  -9.43374926E-06
  -6.09999988E-03  -9.63104776E-06
  -6.04999997E-03  -9.83190785E-06
  -6.00000005E-03  -1.00363895E-05
  -5.95000014E-03  -1.02445611E-05
  -5.90000022E-03  -1.04564861E-05
  -5.84999984E-03  -1.06722218E-05
  -5.79999993E-03  -1.08918157E-05
  -5.75000001E-03  -1.11153076E-05
  -5.70000010E-03  -1.13427341E-05
  -5.65000018E-03  -1.15741414E-05
  -5.59999980E-03  -1.18095841E-05
  -5.54999989E-03  -1.20491250E-05
  -5.49999997E-03  -1.22928350E-05
  -5.45000006E-03  -1.25407823E-05
  -5.40000014E-03  -1.27930280E-05
  -5.35000023E-03  -1.30496210E-05
  -5.29999984E-03  -1.33106059E-05
  -5.24999993E-03  -1.35760201E-05
  -5.20000001E-03  -1.38459109E-05
  -5.15000010E-03  -1.41203318E-05
  -5.10000018E-03  -1.43993502E-05
  -5.04999980E-03  -1.46830371E-05
  -4.99999989E-03  -1.49714624E-05
  -4.94999997E-03  -1.52646899E-05
  -4.90000006E-03  -1.55627695E-05
  -4.85000014E-03  -1.58657458E-05
  -4.80000023E-03  -1.61736571E-05
  -4.74999985E-03  -1.64865542E-05
  -4.69999993E-03  -1.68044899E-05
  -4.65000002E-03  -1.71275351E-05
  -4.60000010E-03  -1.74557626E-05
  -4.55000019E-03  -1.77892471E-05
  -4.49999981E-03  -1.81280502E-05
  -4.44999989E-03  -1.84722267E-05
  -4.39999998E-03  -1.88218200E-05
  -4.35000006E-03  -1.91768686E-05
  -4.30000015E-03  -1.95374196E-05
  -4.25000023E-03  -1.99035312E-05
  -4.19999985E-03  -2.02752690E-05
  -4.14999994E-03  -2.06527093E-05
  -4.10000002E-03  -2.10359212E-05
  -4.05000011E-03  -2.14249703E-05
  -4.00000019E-03  -2.18199093E-05
  -3.94999981E-03  -2.22207782E-05
  -3.89999989E-03  -2.26276152E-05
  -3.84999998E-03  -2.30404676E-05
  -3.80000006E-03  -2.34593845E-05
  -3.74999992E-03  -2.38844350E-05
  -3.70000000E-03  -2.43156901E-05
  -3.65000009E-03  -2.47532225E-05
  -3.59999994E-03  -2.51970978E-05
  -3.55000002E-03  -2.56473631E-05
  -3.50000011E-03  -2.61040623E-05
  -3.44999996E-03  -2.65672279E-05
  -3.40000005E-03  -2.70368982E-05
  -3.34999990E-03  -2.75131242E-05
  -3.29999998E-03  -2.79959731E-05
  -3.25000007E-03  -2.84855123E-05
  -3.19999992E-03  -2.89818126E-05
  -3.15000000E-03  -2.94849397E-05
  -3.10000009E-03  -2.99949388E-05
  -3.04999994E-03  -3.05118447E-05
  -3.00000003E-03  -3.10356845E-05
  -2.95000011E-03  -3.15664984E-05
  -2.89999996E-03  -3.21043226E-05
  -2.85000005E-03  -3.26492191E-05
  -2.79999990E-03  -3.32012569E-05
  -2.74999999E-03  -3.37604943E-05
  -2.70000007E-03  -3.43270003E-05
  -2.64999992E-03  -3.49008078E-05
  -2.60000001E-03  -3.54819495E-05
  -2.55000009E-03  -3.60704435E-05
  -2.49999994E-03  -3.66663116E-05
  -2.45000003E-03  -3.72695940E-05
  -2.40000011E-03  -3.78803452E-05
  -2.34999997E-03  -3.84986270E-05
  -2.30000005E-03  -3.91244976E-05
  -2.24999990E-03  -3.97580043E-05
  -2.19999999E-03  -4.03991871E-05
  -2.15000007E-03  -4.10480643E-05
  -2.09999993E-03  -4.17046431E-05
  -2.05000001E-03  -4.23689416E-05
  -2.00000009E-03  -4.30409855E-05
  -1.94999995E-03  -4.37208182E-05
  -1.90000003E-03  -4.44084872E-05
  -1.85000000E-03  -4.51040469E-05
  -1.79999997E-03  -4.58075410E-05
  -1.75000005E-03  -4.65189878E-05
  -1.70000002E-03  -4.72383945E-05
  -1.64999999E-03  -4.79657574E-05
  -1.59999996E-03  -4.87010730E-05
  -1.55000004E-03  -4.94443520E-05
  -1.50000001E-03  -5.01956238E-05
  -1.44999998E-03  -5.09549282E-05
  -1.39999995E-03  -5.17223016E-05
  -1.35000004E-03  -5.24977768E-05
  -1.30000000E-03  -5.32813610E-05
  -1.24999997E-03  -5.40730543E-05
  -1.20000006E-03  -5.48728276E-05
  -1.15000003E-03  -5.56806554E-05
  -1.09999999E-03  -5.64965339E-05
  -1.04999996E-03  -5.73204670E-05
  -1.00000005E-03  -5.81524801E-05
  -9.50000016E-04  -5.89925949E-05
  -8.99999985E-04  -5.98408333E-05
  -8.50000011E-04  -6.06971953E-05
  -7.99999980E-04  -6.15616373E-05
  -7.50000007E-04  -6.24341337E-05
  -6.99999975E-04  -6.33146192E-05
  -6.50000002E-04  -6.42030573E-05
  -6.00000028E-04  -6.50994407E-05
  -5.49999997E-04  -6.60037695E-05
  -5.00000024E-04  -6.69160363E-05
  -4.49999992E-04  -6.78362485E-05
  -3.99999990E-04  -6.87643769E-05
  -3.49999988E-04  -6.97003707E-05
  -3.00000014E-04  -7.06441569E-05
  -2.50000012E-04  -7.15956558E-05
  -1.99999995E-04  -7.25547943E-05
  -1.50000007E-04  -7.35215217E-05
  -9.99999975E-05  -7.44958234E-05
  -4.99999987E-05  -7.54776847E-05
   0.00000000      -7.64670694E-05
   4.99999987E-05  -7.74639266E-05
   9.99999975E-05  -7.84681761E-05
   1.50000007E-04  -7.94797161E-05
   1.99999995E-04  -8.04984302E-05
   2.50000012E-04  -8.15242092E-05
   3.00000014E-04  -8.25569732E-05
   3.49999988E-04  -8.35966639E-05
   3.99999990E-04  -8.46432304E-05
   4.49999992E-04  -8.56966435E-05
   5.00000024E-04  -8.67568087E-05
   5.49999997E-04  -8.78236169E-05
   6.00000028E-04  -8.88969080E-05
   6.50000002E-04  -8.99765364E-05
   6.99999975E-04  -9.10623421E-05
   7.50000007E-04  -9.21542014E-05
   7.99999980E-04  -9.32520124E-05
   8.50000011E-04  -9.43557097E-05
   8.99999985E-04  -9.54652060E-05
   9.50000016E-04  -9.65803920E-05
   1.00000005E-03  -9.77011005E-05
   1.04999996E-03  -9.88271640E-05
   1.09999999E-03  -9.99583644E-05
   1.15000003E-03  -1.01094505E-04
   1.20000006E-03  -1.02235412E-04
   1.24999997E-03  -1.03380953E-04
   1.30000000E-03  -1.04531013E-04
   1.35000004E-03  -1.05685467E-04
   1.39999995E-03  -1.06844163E-04
   1.44999998E-03  -1.08006920E-04
   1.50000001E-03  -1.09173503E-04
   1.55000004E-03  -1.10343637E-04
   1.59999996E-03  -1.11517089E-04
   1.64999999E-03  -1.12693626E-04
   1.70000002E-03  -1.13873066E-04
   1.75000005E-03  -1.15055249E-04
   1.79999997E-03  -1.16239986E-04
   1.85000000E-03  -1.17427095E-04
   1.90000003E-03  -1.18616364E-04
   1.94999995E-03  -1.19807497E-04
   2.00000009E-03  -1.21000172E-04
   2.05000001E-03  -1.22194106E-04
   2.09999993E-03  -1.23389007E-04
   2.15000007E-03  -1.24584636E-04
   2.19999999E-03  -1.25780774E-04
   2.24999990E-03  -1.26977204E-04
   2.30000005E-03  -1.28173677E-04
   2.34999997E-03  -1.29369917E-04
   2.40000011E-03  -1.30565619E-04
   2.45000003E-03  -1.31760389E-04
   2.49999994E-03  -1.32953865E-04
   2.55000009E-03  -1.34145725E-04
   2.60000001E-03  -1.35335649E-04
   2.64999992E-03  -1.36523362E-04
   2.70000007E-03  -1.37708601E-04
   2.74999999E-03  -1.38891075E-04
   2.79999990E-03  -1.40070493E-04