  -3.99999991E-02   0.00000000    
  -3.99499983E-02   0.00000000    
  -3.99000011E-02   0.00000000    
  -3.98500003E-02   0.00000000    
  -3.97999994E-02  -1.69913238E-17
  -3.97499986E-02  -1.30522007E-16
  -3.97000015E-02  -5.04459419E-16
  -3.96500006E-02  -1.32461744E-15
  -3.95999998E-02  -2.71811518E-15
  -3.95499989E-02  -4.79695976E-15
  -3.95000018E-02  -7.77386425E-15
  -3.94500010E-02  -1.18291039E-14
  -3.94000001E-02  -1.65720234E-14
  -3.93499993E-02  -2.05869511E-14
  -3.92999984E-02  -2.18901300E-14
  -3.92500013E-02  -1.93962668E-14
  -3.92000005E-02  -1.42103482E-14
  -3.91499996E-02  -9.26900700E-15
  -3.90999988E-02  -7.27567336E-15
  -3.90500017E-02  -8.64274472E-15
  -3.90000008E-02  -1.11701470E-14
  -3.89500000E-02  -1.12863938E-14
  -3.88999991E-02  -5.15849968E-15
  -3.88499983E-02   1.11641628E-14
  -3.88000011E-02   4.13067475E-14
  -3.87500003E-02   8.63888564E-14
  -3.86999995E-02   1.42390074E-13
  -3.86499986E-02   2.00730938E-13
  -3.86000015E-02   2.53909171E-13
  -3.85500006E-02   3.02781807E-13
  -3.84999998E-02   3.59041085E-13
  -3.84499989E-02   4.39787963E-13
  -3.84000018E-02   5.58067102E-13
  -3.83500010E-02   7.16497066E-13
  -3.83000001E-02   9.07287808E-13
  -3.82499993E-02   1.11576623E-12
  -3.81999984E-02   1.32332470E-12
  -3.81500013E-02   1.51018510E-12
  -3.81000005E-02   1.66148952E-12
  -3.80499996E-02   1.77634990E-12
  -3.79999988E-02   1.87251755E-12
  -3.79500017E-02   1.97906340E-12
  -3.79000008E-02   2.11907640E-12
  -3.78500000E-02   2.29481321E-12
  -3.77999991E-02   2.48701905E-12
  -3.77499983E-02   2.66760420E-12
  -3.77000012E-02   2.81348816E-12
  -3.76500003E-02   2.91109172E-12
  -3.75999995E-02   2.95283286E-12
  -3.75499986E-02   2.93461739E-12
  -3.75000015E-02   2.85800008E-12
  -3.74500006E-02   2.73048446E-12
  -3.73999998E-02   2.55667644E-12
  -3.73499990E-02   2.32429570E-12
  -3.73000018E-02   1.99852439E-12
  -3.72500010E-02   1.53244583E-12
  -3.72000001E-02   8.85351796E-13
  -3.71499993E-02   3.29578419E-14
  -3.70999984E-02  -1.03558991E-12
  -3.70500013E-02  -2.32175780E-12
  -3.70000005E-02  -3.80856111E-12
  -3.69499996E-02  -5.44212895E-12
  -3.68999988E-02  -7.12614559E-12
  -3.68500017E-02  -8.74749578E-12
  -3.68000008E-02  -1.02258254E-11
  -3.67500000E-02  -1.15576871E-11
  -3.66999991E-02  -1.28284588E-11
  -3.66499983E-02  -1.41873102E-11
  -3.66000012E-02  -1.57988969E-11
  -3.65500003E-02  -1.77870253E-11
  -3.64999995E-02  -2.01810565E-11
  -3.64499986E-02  -2.28811900E-11
  -3.64000015E-02  -2.56695463E-11
  -3.63500006E-02  -2.82858337E-11
  -3.62999998E-02  -3.05474118E-11
  -3.62499990E-02  -3.24479679E-11
  -3.62000018E-02  -3.41613855E-11
  -3.61500010E-02  -3.59270495E-11
  -3.61000001E-02  -3.78686839E-11
  -3.60499993E-02  -3.98471846E-11
  -3.59999985E-02  -4.14350429E-11
  -3.59500013E-02  -4.20416341E-11
  -3.59000005E-02  -4.11509993E-11
  -3.58499996E-02  -3.85837334E-11
  -3.57999988E-02  -3.46699232E-11
  -3.57500017E-02  -3.02258878E-11
  -3.57000008E-02  -2.62845475E-11
  -3.56500000E-02  -2.36414551E-11
  -3.55999991E-02  -2.24042729E-11
  -3.55499983E-02  -2.17888641E-11
  -3.55000012E-02  -2.03237149E-11
  -3.54500003E-02  -1.64291341E-11
  -3.53999995E-02  -9.13132504E-12
  -3.53499986E-02   1.42571089E-12
  -3.53000015E-02   1.39367250E-11
  -3.52500007E-02   2.64288088E-11
  -3.51999998E-02   3.71230824E-11
  -3.51499990E-02   4.53118411E-11
  -3.51000018E-02   5.18405145E-11
  -3.50500010E-02   5.88976090E-11
  -3.50000001E-02   6.90962981E-11
  -3.49499993E-02   8.41871572E-11
  -3.48999985E-02   1.03999406E-10
  -3.48500013E-02   1.26192237E-10
  -3.48000005E-02   1.47060850E-10
  -3.47499996E-02   1.63125055E-10
  -3.46999988E-02   1.72796569E-10
  -3.46500017E-02   1.77310069E-10
  -3.46000008E-02   1.80384999E-10
  -3.45500000E-02   1.86643270E-10
  -3.44999991E-02   1.99398387E-10
  -3.44499983E-02   2.18798951E-10
  -3.44000012E-02   2.41270670E-10
  -3.43500003E-02   2.60708899E-10
  -3.42999995E-02   2.71082018E-10
  -3.42499986E-02   2.69349459E-10
  -3.42000015E-02   2.57276533E-10
  -3.41500007E-02   2.41090287E-10
  -3.40999998E-02   2.28877223E-10
  -3.40499990E-02   2.26748065E-10
  -3.40000018E-02   2.35518910E-10
  -3.39500010E-02   2.49580856E-10
  -3.39000002E-02   2.58733285E-10
  -3.38499993E-02   2.52418086E-10
  -3.37999985E-02   2.24603336E-10
  -3.37500013E-02   1.77072593E-10
  -3.37000005E-02   1.19378160E-10
  -3.36499996E-02   6.51010496E-11
  -3.35999988E-02   2.57982212E-11
  -3.35500017E-02   5.31299267E-12
  -3.35000008E-02  -2.74994524E-12
  -3.34500000E-02  -1.28373787E-11
  -3.33999991E-02  -4.11571610E-11
  -3.33499983E-02  -9.79550052E-11
  -3.33000012E-02  -1.81956283E-10
  -3.32500003E-02  -2.79826495E-10
  -3.31999995E-02  -3.71339209E-10
  -3.31499986E-02  -4.38294345E-10
  -3.31000015E-02  -4.73286688E-10
  -3.30500007E-02  -4.84136509E-10
  -3.29999998E-02  -4.91458541E-10
  -3.29499990E-02  -5.19870147E-10
  -3.29000019E-02  -5.86454829E-10
  -3.28500010E-02  -6.91781077E-10
  -3.28000002E-02  -8.18031698E-10
  -3.27499993E-02  -9.35765687E-10
  -3.26999985E-02  -1.01676523E-09
  -3.26500013E-02  -1.04727815E-09
  -3.26000005E-02  -1.03535458E-09
  -3.25499997E-02  -1.00831854E-09
  -3.24999988E-02  -1.00081521E-09
  -3.24500017E-02  -1.03838160E-09
  -3.24000008E-02  -1.12398613E-09
  -3.23500000E-02  -1.23420718E-09
  -3.22999991E-02  -1.32770839E-09
  -3.22499983E-02  -1.36304035E-09
  -3.22000012E-02  -1.31806843E-09
  -3.21500003E-02  -1.20187071E-09
  -3.20999995E-02  -1.05280817E-09
  -3.20499986E-02  -9.22593002E-10
  -3.20000015E-02  -8.52886428E-10
  -3.19500007E-02  -8.54957660E-10
  -3.18999998E-02  -9.02207087E-10
  -3.18499990E-02  -9.39953448E-10
  -3.18000019E-02  -9.09054221E-10
  -3.17500010E-02  -7.73247300E-10
  -3.17000002E-02  -5.37642264E-10
  -3.16499993E-02  -2.49070459E-10
  -3.15999985E-02   2.31314169E-11
  -3.15500014E-02   2.18178017E-10
  -3.15000005E-02   3.12841697E-10
  -3.14499997E-02   3.34526545E-10
  -3.13999988E-02   3.51178642E-10
  -3.13500017E-02   4.41347098E-10
  -3.13000008E-02   6.57333354E-10
  -3.12500000E-02   9.98409799E-10
  -3.11999992E-02   1.40730738E-09
  -3.11500002E-02   1.79302817E-09
  -3.10999993E-02   2.07086415E-09
  -3.10500003E-02   2.20191332E-09
  -3.09999995E-02   2.21354401E-09
  -3.09500005E-02   2.19001595E-09
  -3.08999997E-02   2.23579910E-09
  -3.08500007E-02   2.42716736E-09
  -3.07999998E-02   2.77417023E-09
  -3.07500008E-02   3.21150351E-09
  -3.07000000E-02   3.62422847E-09
  -3.06499992E-02   3.89819554E-09
  -3.06000002E-02   3.97281674E-09
  -3.05499993E-02   3.87160481E-09
  -3.05000003E-02   3.69500341E-09
  -3.04499995E-02   3.57682528E-09
  -3.04000005E-02   3.62267549E-09
  -3.03499997E-02   3.85808008E-09
  -3.03000007E-02   4.21103463E-09
  -3.02499998E-02   4.53902604E-09
  -3.02000009E-02   4.69040407E-09
  -3.01500000E-02   4.57333504E-09
  -3.00999992E-02   4.20056478E-09
  -3.00500002E-02   3.68793551E-09
  -2.99999993E-02   3.20512972E-09
  -2.99500003E-02   2.89936142E-09
  -2.98999995E-02   2.82622414E-09
  -2.98500005E-02   2.92004421E-09
  -2.97999997E-02   3.01923486E-09
  -2.97500007E-02   2.93727997E-09
  -2.96999998E-02   2.54850097E-09
  -2.96500009E-02   1.84957882E-09
  -2.96000000E-02   9.67198210E-10
  -2.95499992E-02   1.05844507E-10
  -2.95000002E-02  -5.42739353E-10
  -2.94499993E-02  -8.88057405E-10
  -2.94000003E-02  -9.86170812E-10
  -2.93499995E-02  -1.01903230E-09
  -2.93000005E-02  -1.21471011E-09
  -2.92499997E-02  -1.74314219E-09
  -2.92000007E-02  -2.63470379E-09
  -2.91499998E-02  -3.75997100E-09
  -2.91000009E-02  -4.88226659E-09
  -2.90500000E-02  -5.76152726E-09
  -2.89999992E-02  -6.26360253E-09
  -2.89500002E-02  -6.42481979E-09
  -2.88999993E-02  -6.44025366E-09
  -2.88500004E-02  -6.57809673E-09
  -2.87999995E-02  -7.05682446E-09
  -2.87500005E-02  -7.94048916E-09
  -2.86999997E-02  -9.10118203E-09
  -2.86500007E-02  -1.02683897E-08
  -2.85999998E-02  -1.11455920E-08
  -2.85500009E-02  -1.15429062E-08
  -2.85000000E-02  -1.14655476E-08
  -2.84499992E-02  -1.11162830E-08
  -2.84000002E-02  -1.08079012E-08
  -2.83499993E-02  -1.08226805E-08
  -2.83000004E-02  -1.12811662E-08
  -2.82499995E-02  -1.20804629E-08
  -2.82000005E-02  -1.29323556E-08
  -2.81499997E-02  -1.34869929E-08
  -2.81000007E-02  -1.34883322E-08
  -2.80499998E-02  -1.28912738E-08
  -2.80000009E-02  -1.18860815E-08
  -2.79500000E-02  -1.08164731E-08
  -2.78999992E-02  -1.00259836E-08
  -2.78500002E-02  -9.70076286E-09
  -2.77999993E-02  -9.78004966E-09
  -2.77500004E-02  -9.97660710E-09
  -2.76999995E-02  -9.90065541E-09
  -2.76500005E-02  -9.23399579E-09
  -2.75999997E-02  -7.87670018E-09
  -2.75500007E-02  -5.99899996E-09
  -2.74999999E-02  -3.97241839E-09
  -2.74500009E-02  -2.20828578E-09
  -2.74000000E-02  -9.74582637E-10
  -2.73499992E-02  -2.73562228E-10
  -2.73000002E-02   1.63097022E-10
  -2.72499993E-02   7.56969376E-10
  -2.72000004E-02   1.89372518E-09
  -2.71499995E-02   3.74574061E-09
  -2.71000005E-02   6.18662588E-09
  -2.70499997E-02   8.83810714E-09
  -2.70000007E-02   1.12311511E-08
  -2.69499999E-02   1.30115527E-08
  -2.69000009E-02   1.40985303E-08
  -2.68500000E-02   1.47240113E-08
  -2.67999992E-02   1.53321462E-08
  -2.67500002E-02   1.63809979E-08
  -2.66999993E-02   1.81333775E-08
  -2.66500004E-02   2.05303099E-08
  -2.65999995E-02   2.32053008E-08
  -2.65500005E-02   2.56358010E-08
  -2.64999997E-02   2.73671539E-08
  -2.64500007E-02   2.82109465E-08
  -2.63999999E-02   2.83291701E-08
  -2.63500009E-02   2.81647115E-08
  -2.63000000E-02   2.82460793E-08
  -2.62499992E-02   2.89504172E-08
  -2.62000002E-02   3.03290335E-08
  -2.61499994E-02   3.20742686E-08
  -2.61000004E-02   3.36450121E-08
  -2.60499995E-02   3.44981785E-08
  -2.60000005E-02   3.43256268E-08
  -2.59499997E-02   3.31916823E-08
  -2.59000007E-02   3.15089181E-08
  -2.58499999E-02   2.98599723E-08
  -2.58000009E-02   2.87411819E-08
  -2.57500000E-02   2.83397910E-08
  -2.56999992E-02   2.84434059E-08
  -2.56500002E-02   2.85238961E-08
  -2.55999994E-02   2.79627788E-08
  -2.55500004E-02   2.63216631E-08
  -2.54999995E-02   2.35393482E-08
  -2.54500005E-02   1.99677803E-08
  -2.53999997E-02   1.62270393E-08
  -2.53500007E-02   1.29391138E-08
  -2.52999999E-02   1.04559037E-08
  -2.52500009E-02   8.70093508E-09
  -2.52000000E-02   7.19740534E-09
  -2.51499992E-02   5.27380672E-09
  -2.51000002E-02   2.36096676E-09
  -2.50499994E-02  -1.74707149E-09
  -2.50000004E-02  -6.78425627E-09
  -2.49499995E-02  -1.21077015E-08
  -2.49000005E-02  -1.69615006E-08
  -2.48499997E-02  -2.07980442E-08
  -2.48000007E-02  -2.35171349E-08
  -2.47499999E-02  -2.55155008E-08
  -2.47000009E-02  -2.75190928E-08
  -2.46500000E-02  -3.02658272E-08
  -2.45999992E-02  -3.41739685E-08
  -2.45500002E-02  -3.91413586E-08
  -2.44999994E-02  -4.45672903E-08
  -2.44500004E-02  -4.95939148E-08
  -2.43999995E-02  -5.34679323E-08
  -2.43500005E-02  -5.58674280E-08
  -2.42999997E-02  -5.70492134E-08
  -2.42500007E-02  -5.77455950E-08
  -2.41999999E-02  -5.88472986E-08
  -2.41500009E-02  -6.10056006E-08
  -2.41000000E-02  -6.43266205E-08
  -2.40499992E-02  -6.82968420E-08
  -2.40000002E-02  -7.19811339E-08
  -2.39499994E-02  -7.44143449E-08
  -2.39000004E-02  -7.50196349E-08
  -2.38499995E-02  -7.38694936E-08
  -2.38000005E-02  -7.16688504E-08
  -2.37499997E-02  -6.94577906E-08
  -2.37000007E-02  -6.81559627E-08
  -2.36499999E-02  -6.81448782E-08
  -2.36000009E-02  -6.90752344E-08
  -2.35500000E-02  -6.99946412E-08
  -2.34999992E-02  -6.97504987E-08
  -2.34500002E-02  -6.74980001E-08
  -2.33999994E-02  -6.30895656E-08
  -2.33500004E-02  -5.71666874E-08
  -2.32999995E-02  -5.09023828E-08
  -2.32500006E-02  -4.54964919E-08
  -2.31999997E-02  -4.16411829E-08
  -2.31500007E-02  -3.91948696E-08
  -2.30999999E-02  -3.72185482E-08
  -2.30500009E-02  -3.43735529E-08
  -2.30000000E-02  -2.95154194E-08
  -2.29499992E-02  -2.22246186E-08
  -2.29000002E-02  -1.30338229E-08
  -2.28499994E-02  -3.23572102E-09
  -2.28000004E-02   5.65827296E-09
  -2.27499995E-02   1.25772344E-08
  -2.27000006E-02   1.73755517E-08
  -2.26499997E-02   2.09169908E-08
  -2.26000007E-02   2.47064644E-08
  -2.25499999E-02   3.02195140E-08
  -2.25000009E-02   3.82196603E-08
  -2.24500000E-02   4.83721614E-08
  -2.23999992E-02   5.93395129E-08
  -2.23500002E-02   6.93324722E-08
  -2.22999994E-02   7.68854420E-08
  -2.22500004E-02   8.15133490E-08
  -2.21999995E-02   8.39480521E-08
  -2.21500006E-02   8.58324469E-08
  -2.20999997E-02   8.89915412E-08
  -2.20500007E-02   9.45972616E-08
  -2.19999999E-02   1.02602677E-07
  -2.19500009E-02   1.11710754E-07
  -2.19000001E-02   1.19908933E-07
  -2.18499992E-02   1.25345352E-07
  -2.18000002E-02   1.27160050E-07
  -2.17499994E-02   1.25893010E-07
  -2.17000004E-02   1.23269629E-07
  -2.16499995E-02   1.21441076E-07
  -2.16000006E-02   1.22007791E-07
  -2.15499997E-02   1.25263327E-07
  -2.15000007E-02   1.30012509E-07
  -2.14499999E-02   1.34064223E-07
  -2.14000009E-02   1.35194796E-07
  -2.13500001E-02   1.32157723E-07
  -2.12999992E-02   1.25279982E-07
  -2.12500002E-02   1.16361633E-07
  -2.11999994E-02   1.07903638E-07
  -2.11500004E-02   1.01994956E-07
  -2.10999995E-02   9.93559510E-08
  -2.10500006E-02   9.89789442E-08
  -2.09999997E-02   9.85469129E-08
  -2.09500007E-02   9.54605355E-08
  -2.08999999E-02   8.80245565E-08
  -2.08500009E-02   7.62576420E-08
  -2.08000001E-02   6.19430196E-08
  -2.07499992E-02   4.78770836E-08
  -2.07000002E-02   3.66392818E-08
  -2.06499994E-02   2.94302129E-08
  -2.06000004E-02   2.55106105E-08
  -2.05499995E-02   2.25123280E-08
  -2.05000006E-02   1.74998362E-08
  -2.04499997E-02   8.31772073E-09
  -2.04000007E-02  -5.38181055E-09
  -2.03499999E-02  -2.19086314E-08
  -2.03000009E-02  -3.82263572E-08
  -2.02500001E-02  -5.12724121E-08
  -2.01999992E-02  -5.93210281E-08
  -2.01500002E-02  -6.27676044E-08
  -2.00999994E-02  -6.39639879E-08
  -2.00500004E-02  -6.61610926E-08
  -1.99999996E-02  -7.20223525E-08
  -1.99500006E-02  -8.23775110E-08
  -1.98999997E-02  -9.57902202E-08
  -1.98500007E-02  -1.09151223E-07
  -1.97999999E-02  -1.19047563E-07
  -1.97500009E-02  -1.23298761E-07
  -1.97000001E-02  -1.21961435E-07
  -1.96499992E-02  -1.17333066E-07
  -1.96000002E-02  -1.12933144E-07
  -1.95499994E-02  -1.11907966E-07
  -1.95000004E-02  -1.15575695E-07
  -1.94499996E-02  -1.22779582E-07
  -1.94000006E-02  -1.30361187E-07
  -1.93499997E-02  -1.34556899E-07
  -1.93000007E-02  -1.32696584E-07
  -1.92499999E-02  -1.24435672E-07
  -1.92000009E-02  -1.11952637E-07
  -1.91500001E-02  -9.90028326E-08
  -1.90999992E-02  -8.92411194E-08
  -1.90500002E-02  -8.45663166E-08
  -1.89999994E-02  -8.42421741E-08
  -1.89500004E-02  -8.52078088E-08
  -1.88999996E-02  -8.34548359E-08
  -1.88500006E-02  -7.58608465E-08
  -1.87999997E-02  -6.16502049E-08
  -1.87500007E-02  -4.28102354E-08
  -1.86999999E-02  -2.32594761E-08
  -1.86500009E-02  -7.12840098E-09
  -1.86000001E-02   3.07669268E-09
  -1.85499992E-02   7.59214913E-09
  -1.85000002E-02   9.28120336E-09
  -1.84499994E-02   1.23218689E-08
  -1.84000004E-02   2.02810799E-08
  -1.83499996E-02   3.44416549E-08
  -1.83000006E-02   5.31472004E-08
  -1.82499997E-02   7.24743003E-08
  -1.82000007E-02   8.79417072E-08
  -1.81499999E-02   9.64873621E-08
  -1.81000009E-02   9.78174270E-08
  -1.80500001E-02   9.45084935E-08
  -1.79999992E-02   9.08038515E-08
  -1.79500002E-02   9.06372364E-08
  -1.78999994E-02   9.57765991E-08
  -1.78500004E-02   1.04939495E-07
  -1.77999996E-02   1.14288333E-07
  -1.77500006E-02   1.19089933E-07
  -1.76999997E-02   1.15797683E-07
  -1.76500008E-02   1.03618667E-07
  -1.75999999E-02   8.48458370E-08
  -1.75500009E-02   6.37943174E-08
  -1.75000001E-02   4.48111876E-08
  -1.74499992E-02   3.02568175E-08
  -1.74000002E-02   1.93758041E-08
  -1.73499994E-02   8.58034976E-09
  -1.73000004E-02  -6.97467106E-09
  -1.72499996E-02  -3.12367128E-08
  -1.72000006E-02  -6.54868160E-08
  -1.71499997E-02  -1.07767988E-07
  -1.71000008E-02  -1.53775673E-07
  -1.70499999E-02  -1.98815073E-07
  -1.70000009E-02  -2.39948861E-07
  -1.69500001E-02  -2.77364393E-07
  -1.68999992E-02  -3.14330521E-07
  -1.68500002E-02  -3.55747090E-07
  -1.67999994E-02  -4.05944832E-07
  -1.67500004E-02  -4.66732445E-07
  -1.66999996E-02  -5.36570951E-07
  -1.66500006E-02  -6.11243706E-07
  -1.65999997E-02  -6.85733596E-07
  -1.65500008E-02  -7.56471252E-07
  -1.64999999E-02  -8.22932464E-07
  -1.64500009E-02  -8.87857141E-07
  -1.64000001E-02  -9.55992618E-07
  -1.63499992E-02  -1.03191383E-06
  -1.63000003E-02  -1.11791769E-06
  -1.62499994E-02  -1.21295034E-06
  -1.62000004E-02  -1.31303761E-06
  -1.61499996E-02  -1.41304599E-06
  -1.61000006E-02  -1.50896437E-06
  -1.60499997E-02  -1.59967544E-06
  -1.60000008E-02  -1.68743702E-06
  -1.59499999E-02  -1.77684035E-06
  -1.59000009E-02  -1.87269131E-06
  -1.58500001E-02  -1.97777285E-06
  -1.57999992E-02  -2.09151835E-06
  -1.57500003E-02  -2.21019945E-06
  -1.56999994E-02  -2.32856473E-06
  -1.56500004E-02  -2.44216312E-06
  -1.55999996E-02  -2.54928136E-06
  -1.55499997E-02  -2.65165500E-06
  -1.54999997E-02  -2.75366097E-06
  -1.54499998E-02  -2.86033332E-06
  -1.53999999E-02  -2.97503470E-06
  -1.53500000E-02  -3.09787447E-06
  -1.53000001E-02  -3.22560959E-06
  -1.52500002E-02  -3.35308027E-06
  -1.52000003E-02  -3.47553964E-06
  -1.51500003E-02  -3.59078467E-06
  -1.51000004E-02  -3.70012685E-06
  -1.50499996E-02  -3.80780034E-06
  -1.49999997E-02  -3.91907361E-06
  -1.49499997E-02  -4.03788272E-06
  -1.48999998E-02  -4.16508055E-06
  -1.48499999E-02  -4.29803367E-06
  -1.48000000E-02  -4.43179124E-06
  -1.47500001E-02  -4.56132375E-06
  -1.47000002E-02  -4.68381177E-06
  -1.46500003E-02  -4.79995242E-06
  -1.46000003E-02  -4.91370702E-06
  -1.45500004E-02  -5.03051751E-06
  -1.44999996E-02  -5.15484408E-06
  -1.44499997E-02  -5.28820829E-06
  -1.43999998E-02  -5.42857470E-06
  -1.43499998E-02  -5.57132853E-06
  -1.42999999E-02  -5.71139753E-06
  -1.42500000E-02  -5.84560348E-06
  -1.42000001E-02  -5.97414555E-06
  -1.41500002E-02  -6.10065945E-06
  -1.41000003E-02  -6.23066853E-06
  -1.40500003E-02  -6.36914638E-06
  -1.40000004E-02  -6.51838218E-06
  -1.39499996E-02  -6.67702079E-06
  -1.38999997E-02  -6.84078805E-06
  -1.38499998E-02  -7.00447390E-06
  -1.37999998E-02  -7.16440718E-06
  -1.37499999E-02  -7.32023045E-06
  -1.37000000E-02  -7.47521653E-06
  -1.36500001E-02  -7.63497064E-06
  -1.36000002E-02  -7.80489700E-06
  -1.35500003E-02  -7.98778910E-06
  -1.35000004E-02  -8.18277567E-06
  -1.34500004E-02  -8.38595315E-06
  -1.33999996E-02  -8.59201646E-06
  -1.33499997E-02  -8.79675918E-06
  -1.32999998E-02  -8.99920087E-06
  -1.32499998E-02  -9.20214370E-06
  -1.31999999E-02  -9.41123562E-06
  -1.31500000E-02  -9.63244747E-06
  -1.31000001E-02  -9.86938812E-06
  -1.30500002E-02  -1.01219184E-05
  -1.30000003E-02  -1.03862812E-05
  -1.29500004E-02  -1.06568978E-05
  -1.29000004E-02  -1.09290895E-05
  -1.28499996E-02  -1.12012349E-05
  -1.27999997E-02  -1.14754203E-05
  -1.27499998E-02  -1.17566042E-05
  -1.26999998E-02  -1.20507748E-05
  -1.26499999E-02  -1.23623113E-05
  -1.26000000E-02  -1.26919167E-05
  -1.25500001E-02  -1.30363396E-05
  -1.25000002E-02  -1.33899603E-05
  -1.24500003E-02  -1.37476436E-05
  -1.24000004E-02  -1.41071514E-05
  -1.23500004E-02  -1.44702271E-05
  -1.22999996E-02  -1.48418876E-05
  -1.22499997E-02  -1.52281282E-05
  -1.21999998E-02  -1.56332098E-05
  -1.21499998E-02  -1.60578911E-05
  -1.20999999E-02  -1.64991670E-05
  -1.20500000E-02  -1.69514315E-05
  -1.20000001E-02  -1.74088855E-05
  -1.19500002E-02  -1.78684113E-05
  -1.19000003E-02  -1.83314478E-05
  -1.18500004E-02  -1.88035392E-05
  -1.18000004E-02  -1.92918324E-05
  -1.17499996E-02  -1.98020953E-05
  -1.16999997E-02  -2.03363761E-05
  -1.16499998E-02  -2.08922720E-05
  -1.15999999E-02  -2.14640513E-05
  -1.15499999E-02  -2.20453294E-05
  -1.15000000E-02  -2.26318880E-05
  -1.14500001E-02  -2.32233560E-05
  -1.14000002E-02  -2.38234388E-05
  -1.13500003E-02  -2.44381445E-05
  -1.13000004E-02  -2.50730027E-05
  -1.12500004E-02  -2.57304309E-05
  -1.11999996E-02  -2.64084756E-05
  -1.11499997E-02  -2.71020181E-05
  -1.10999998E-02  -2.78056050E-05
  -1.10499999E-02  -2.85165297E-05
  -1.09999999E-02  -2.92361983E-05
  -1.09500000E-02  -2.99701478E-05
  -1.09000001E-02  -3.07263799E-05
  -1.08500002E-02  -3.15120851E-05
  -1.08000003E-02  -3.23310669E-05
  -1.07500004E-02  -3.31819356E-05
  -1.07000005E-02  -3.40582774E-05
  -1.06499996E-02  -3.49516995E-05
  -1.05999997E-02  -3.58560101E-05
  -1.05499998E-02  -3.67699104E-05
  -1.04999999E-02  -3.76968819E-05
  -1.04499999E-02  -3.86435786E-05
  -1.04000000E-02  -3.96168543E-05
  -1.03500001E-02  -4.06210675E-05
  -1.03000002E-02  -4.16568328E-05
  -1.02500003E-02  -4.27205669E-05
  -1.02000004E-02  -4.38062016E-05
  -1.01500005E-02  -4.49092113E-05
  -1.00999996E-02  -4.60299161E-05
  -1.00499997E-02  -4.71737840E-05
  -9.99999978E-03  -4.83497242E-05
  -9.94999986E-03  -4.95666682E-05
  -9.89999995E-03  -5.08293524E-05
  -9.85000003E-03  -5.21374313E-05
  -9.80000012E-03  -5.34869323E-05
  -9.75000020E-03  -5.48712414E-05
  -9.70000029E-03  -5.62841960E-05
  -9.65000037E-03  -5.77239662E-05
  -9.60000046E-03  -5.91938297E-05
  -9.54999961E-03  -6.07011425E-05
  -9.49999969E-03  -6.22550360E-05
  -9.44999978E-03  -6.38614511E-05
  -9.39999986E-03  -6.55197582E-05
  -9.34999995E-03  -6.72244933E-05
  -9.30000003E-03  -6.89677909E-05
  -9.25000012E-03  -7.07429499E-05
  -9.20000020E-03  -7.25480713E-05
  -9.15000029E-03  -7.43867859E-05
  -9.10000037E-03  -7.62675918E-05
  -9.05000046E-03  -7.82002899E-05
  -8.99999961E-03  -8.01926581E-05
  -8.94999970E-03  -8.22481816E-05
  -8.89999978E-03  -8.43648013E-05
  -8.84999987E-03  -8.65362454E-05
  -8.79999995E-03  -8.87561182E-05
  -8.75000004E-03  -9.10218441E-05
  -8.70000012E-03  -9.33367628E-05
  -8.65000021E-03  -9.57095181E-05
  -8.60000029E-03  -9.81506091E-05
  -8.55000038E-03  -1.00667465E-04
  -8.50000046E-03  -1.03260711E-04
  -8.44999962E-03  -1.05925195E-04
  -8.39999970E-03  -1.08653185E-04
  -8.34999979E-03  -1.11437555E-04
  -8.29999987E-03  -1.14273891E-04
  -8.24999996E-03  -1.17162635E-04
  -8.20000004E-03  -1.20110322E-04
  -8.15000013E-03  -1.23126811E-04
  -8.10000021E-03  -1.26220155E-04
  -8.05000030E-03  -1.29393593E-04
  -8.00000038E-03  -1.32643720E-04
  -7.95000046E-03  -1.35961658E-04
  -7.89999962E-03  -1.39339463E-04
  -7.84999970E-03  -1.42775869E-04
  -7.79999979E-03  -1.46273451E-04
  -7.74999987E-03  -1.49838423E-04
  -7.69999996E-03  -1.53482324E-04
  -7.65000004E-03  -1.57216127E-04
  -7.60000013E-03  -1.61045828E-04
  -7.55000021E-03  -1.64969199E-04
  -7.49999983E-03  -1.68977203E-04
  -7.44999992E-03  -1.73060631E-04
  -7.40000000E-03  -1.77214679E-04
  -7.35000009E-03  -1.81441879E-04
  -7.30000017E-03  -1.85750148E-04
  -7.24999979E-03  -1.90147155E-04
  -7.19999988E-03  -1.94638968E-04
  -7.14999996E-03  -1.99229893E-04
  -7.10000005E-03  -2.03919029E-04
  -7.05000013E-03  -2.08699275E-04
  -7.00000022E-03  -2.13560998E-04
  -6.94999984E-03  -2.18496614E-04
  -6.89999992E-03  -2.23503885E-04
  -6.85000001E-03  -2.28591074E-04
  -6.80000009E-03  -2.33772487E-04
  -6.75000018E-03  -2.39058820E-04
  -6.69999979E-03  -2.44453229E-04
  -6.64999988E-03  -2.49951758E-04
  -6.59999996E-03  -2.55548221E-04
  -6.55000005E-03  -2.61237874E-04
  -6.50000013E-03  -2.67017487E-04
  -6.45000022E-03  -2.72885431E-04
  -6.39999984E-03  -2.78848311E-04
  -6.34999992E-03  -2.84919137E-04
  -6.30000001E-03  -2.91109522E-04
  -6.25000009E-03  -2.97426246E-04
  -6.20000018E-03  -3.03868874E-04
  -6.14999980E-03  -3.10429663E-04
  -6.09999988E-03  -3.17096012E-04
  -6.04999997E-03  -3.23863176E-04
  -6.00000005E-03  -3.30734125E-04
  -5.95000014E-03  -3.37714329E-04
  -5.90000022E-03  -3.44813190E-04
  -5.84999984E-03  -3.52039351E-04
  -5.79999993E-03  -3.59398080E-04
  -5.75000001E-03  -3.66890017E-04
  -5.70000010E-03  -3.74509429E-04
  -5.65000018E-03  -3.82246973E-04
  -5.59999980E-03  -3.90093162E-04
  -5.54999989E-03  -3.98049597E-04
  -5.49999997E-03  -4.06127190E-04
  -5.45000006E-03  -4.14337352E-04
  -5.40000014E-03  -4.22691548E-04
  -5.35000023E-03  -4.31197986E-04
  -5.29999984E-03  -4.39859054E-04
  -5.24999993E-03  -4.48671723E-04
  -5.20000001E-03  -4.57630551E-04
  -5.15000010E-03  -4.66730184E-04
  -5.10000018E-03  -4.75968875E-04
  -5.04999980E-03  -4.85352735E-04
  -4.99999989E-03  -4.94895270E-04
  -4.94999997E-03  -5.04612108E-04
  -4.90000006E-03  -5.14509855E-04
  -4.85000014E-03  -5.24581061E-04
  -4.80000023E-03  -5.34813153E-04
  -4.74999985E-03  -5.45198855E-04
  -4.69999993E-03  -5.55740204E-04
  -4.65000002E-03  -5.66435105E-04
  -4.60000010E-03  -5.77286584E-04
  -4.55000019E-03  -5.88306866E-04
  -4.49999981E-03  -5.99509687E-04
  -4.44999989E-03  -6.10905874E-04
  -4.39999998E-03  -6.22497115E-04
  -4.35000006E-03  -6.34278927E-04
  -4.30000015E-03  -6.46240776E-04
  -4.25000023E-03  -6.58379227E-04
  -4.19999985E-03  -6.70698762E-04
  -4.14999994E-03  -6.83208520E-04
  -4.10000002E-03  -6.95922703E-04
  -4.05000011E-03  -7.08853710E-04
  -4.00000019E-03  -7.22009107E-04
  -3.94999981E-03  -7.35387381E-04
  -3.89999989E-03  -7.48984225E-04
  -3.84999998E-03  -7.62793352E-04
  -3.80000006E-03  -7.76807661E-04
  -3.74999992E-03  -7.91025930E-04
  -3.70000000E-03  -8.05454969E-04
  -3.65000009E-03  -8.20109155E-04
  -3.59999994E-03  -8.35002691E-04
  -3.55000002E-03  -8.50143551E-04
  -3.50000011E-03  -8.65530863E-04
  -3.44999996E-03  -8.81157874E-04
  -3.40000005E-03  -8.97007878E-04
  -3.34999990E-03  -9.13074240E-04
  -3.29999998E-03  -9.29367903E-04
  -3.25000007E-03  -9.45900741E-04
  -3.19999992E-03  -9.62682301E-04
  -3.15000000E-03  -9.79720848E-04
  -3.10000009E-03  -9.97026567E-04
  -3.04999994E-03  -1.01460470E-03
  -3.00000003E-03  -1.03246281E-03
  -2.95000011E-03  -1.05058576E-03
  -2.89999996E-03  -1.06894353E-03
  -2.85000005E-03  -1.08754809E-03
  -2.79999990E-03  -1.10642612E-03
  -2.74999999E-03  -1.12559728E-03
  -2.70000007E-03  -1.14507705E-03
  -2.64999992E-03  -1.16487127E-03
  -2.60000001E-03  -1.18496781E-03
  -2.55000009E-03  -1.20534841E-03
  -2.49999994E-03  -1.22601422E-03
  -2.45000003E-03  -1.24697399E-03
  -2.40000011E-03  -1.26821967E-03
  -2.34999997E-03  -1.28974358E-03
  -2.30000005E-03  -1.31154840E-03
  -2.24999990E-03  -1.33366138E-03
  -2.19999999E-03  -1.35611487E-03
  -2.15000007E-03  -1.37890282E-03
  -2.09999993E-03  -1.40200288E-03
  -2.05000001E-03  -1.42538559E-03
  -2.00000009E-03  -1.44904596E-03
  -1.94999995E-03  -1.47300994E-03
  -1.90000003E-03  -1.49730092E-03
  -1.85000000E-03  -1.52192195E-03
  -1.79999997E-03  -1.54687860E-03
  -1.75000005E-03  -1.57219381E-03
  -1.70000002E-03  -1.59787876E-03
  -1.64999999E-03  -1.62393111E-03
  -1.59999996E-03  -1.65031920E-03
  -1.55000004E-03  -1.67699729E-03
  -1.50000001E-03  -1.70397002E-03
  -1.44999998E-03  -1.73128291E-03
  -1.39999995E-03  -1.75897416E-03
  -1.35000004E-03  -1.78703002E-03
  -1.30000000E-03  -1.81544211E-03
  -1.24999997E-03  -1.84422091E-03
  -1.20000006E-03  -1.87334453E-03
  -1.15000003E-03  -1.90279563E-03
  -1.09999999E-03  -1.93257339E-03
  -1.04999996E-03  -1.96268084E-03
  -1.00000005E-03  -1.99310994E-03
  -9.50000016E-04  -2.02387990E-03
  -8.99999985E-04  -2.05501611E-03
  -8.50000011E-04  -2.08653370E-03
  -7.99999980E-04  -2.11846619E-03
  -7.50000007E-04  -2.15078052E-03
  -6.99999975E-04  -2.18341034E-03
  -6.50000002E-04  -2.21635797E-03
  -6.00000028E-04  -2.24964041E-03
  -5.49999997E-04  -2.28325883E-03
  -5.00000024E-04  -2.31723883E-03
  -4.49999992E-04  -2.35158764E-03
  -3.99999990E-04  -2.38630129E-03
  -3.49999988E-04  -2.42141681E-03
  -3.00000014E-04  -2.45692907E-03
  -2.50000012E-04  -2.49278336E-03
  -1.99999995E-04  -2.52896338E-03
  -1.50000007E-04  -2.56545353E-03
  -9.99999975E-05  -2.60223029E-03
  -4.99999987E-05  -2.63931206E-03
   0.00000000      -2.67675938E-03
   4.99999987E-05  -2.71463790E-03
   9.99999975E-05  -2.75292993E-03
   1.50000007E-04  -2.79154326E-03
   1.99999995E-04  -2.83040269E-03
   2.50000012E-04  -2.86953314E-03
   3.00000014E-04  -2.90900469E-03
   3.49999988E-04  -2.94880942E-03
   3.99999990E-04  -2.98888888E-03
   4.49999992E-04  -3.02924449E-03
   5.00000024E-04  -3.06994794E-03
   5.49999997E-04  -3.11105349E-03
   6.00000028E-04  -3.15254368E-03
   6.50000002E-04  -3.19434609E-03
   6.99999975E-04  -3.23638599E-03
   7.50000007E-04  -3.27864359E-03
   7.99999980E-04  -3.32118385E-03
   8.50000011E-04  -3.36406124E-03
   8.99999985E-04  -3.40725644E-03
   9.50000016E-04  -3.45073221E-03
   1.00000005E-03  -3.49449413E-03
   1.04999996E-03  -3.53860413E-03
   1.09999999E-03  -3.58305709E-03
   1.15000003E-03  -3.62772890E-03
   1.20000006E-03  -3.67252994E-03
   1.24999997E-03  -3.71753005E-03
   1.30000000E-03  -3.76280304E-03
   1.35000004E-03  -3.80835216E-03
   1.39999995E-03  -3.85418604E-03
   1.44999998E-03  -3.90029512E-03
   1.50000001E-03  -3.94665170E-03
   1.55000004E-03  -3.99322389E-03
   1.59999996E-03  -4.04000748E-03
   1.64999999E-03  -4.08698386E-03
   1.70000002E-03  -4.13414836E-03
   1.75000005E-03  -4.18149447E-03
   1.79999997E-03  -4.22903849E-03
   1.85000000E-03  -4.27685911E-03
   1.90000003E-03  -4.32497170E-03
   1.94999995E-03  -4.37331293E-03
   2.00000009E-03  -4.42182599E-03
   2.05000001E-03  -4.47048899E-03
   2.09999993E-03  -4.51928424E-03
   2.15000007E-03  -4.56818612E-03
   2.19999999E-03  -4.61720768E-03
   2.24999990E-03  -4.66639968E-03
   2.30000005E-03  -4.71578026E-03
   2.34999997E-03  -4.76538623E-03
   2.40000011E-03  -4.81522130E-03
   2.45000003E-03  -4.86516906E-03
   2.49999994E-03  -4.91515128E-03
   2.55000009E-03  -4.96520335E-03
   2.60000001E-03  -5.01539605E-03
   2.64999992E-03  -5.06574055E-03
   2.70000007E-03  -5.11613255E-03
   2.74999999E-03  -5.16655529E-03
   2.79999990E-03  -5.21718152E-03