  -3.99999991E-02   0.00000000    
  -3.99499983E-02   0.00000000    
  -3.99000011E-02   0.00000000    
  -3.98500003E-02   0.00000000    
  -3.97999994E-02   0.00000000    
  -3.97499986E-02  -3.67066567E-21
  -3.97000015E-02  -2.82233734E-20
  -3.96500006E-02  -1.12930109E-19
  -3.95999998E-02  -3.15912632E-19
  -3.95499989E-02  -7.05904406E-19
  -3.95000018E-02  -1.36928490E-18
  -3.94500010E-02  -2.42785740E-18
  -3.94000001E-02  -4.01849636E-18
  -3.93499993E-02  -6.19615354E-18
  -3.92999984E-02  -8.81547472E-18
  -3.92500013E-02  -1.15281027E-17
  -3.92000005E-02  -1.39710193E-17
  -3.91499996E-02  -1.60315825E-17
  -3.90999988E-02  -1.79558660E-17
  -3.90500017E-02  -2.01823781E-17
  -3.90000008E-02  -2.30352215E-17
  -3.89500000E-02  -2.65165186E-17
  -3.88999991E-02  -3.02752703E-17
  -3.88499983E-02  -3.36176987E-17
  -3.88000011E-02  -3.54627516E-17
  -3.87500003E-02  -3.43971477E-17
  -3.86999995E-02  -2.90613596E-17
  -3.86499986E-02  -1.87627410E-17
  -3.86000015E-02  -3.77618910E-18
  -3.85500006E-02   1.51583130E-17
  -3.84999998E-02   3.79726326E-17
  -3.84499989E-02   6.62168801E-17
  -3.84000018E-02   1.03067492E-16
  -3.83500010E-02   1.52435054E-16
  -3.83000001E-02   2.17885700E-16
  -3.82499993E-02   3.01971640E-16
  -3.81999984E-02   4.05929529E-16
  -3.81500013E-02   5.29430850E-16
  -3.81000005E-02   6.70508369E-16
  -3.80499996E-02   8.26236383E-16
  -3.79999988E-02   9.94347965E-16
  -3.79500017E-02   1.17490458E-15
  -3.79000008E-02   1.37063272E-15
  -3.78500000E-02   1.58543572E-15
  -3.77999991E-02   1.82216438E-15
  -3.77499983E-02   2.08134439E-15
  -3.77000012E-02   2.36151007E-15
  -3.76500003E-02   2.66024398E-15
  -3.75999995E-02   2.97464842E-15
  -3.75499986E-02   3.30109238E-15
  -3.75000015E-02   3.63515540E-15
  -3.74500006E-02   3.97234778E-15
  -3.73999998E-02   4.30885576E-15
  -3.73499990E-02   4.64102989E-15
  -3.73000018E-02   4.96349533E-15
  -3.72500010E-02   5.26733749E-15
  -3.72000001E-02   5.53981316E-15
  -3.71499993E-02   5.76540260E-15
  -3.70999984E-02   5.92665014E-15
  -3.70500013E-02   6.00406006E-15
  -3.70000005E-02   5.97638623E-15
  -3.69499996E-02   5.82342139E-15
  -3.68999988E-02   5.53130514E-15
  -3.68500017E-02   5.09725793E-15
  -3.68000008E-02   4.52983310E-15
  -3.67500000E-02   3.84336880E-15
  -3.66999991E-02   3.04903782E-15
  -3.66499983E-02   2.14658901E-15
  -3.66000012E-02   1.11982891E-15
  -3.65500003E-02  -6.29267923E-17
  -3.64999995E-02  -1.44304620E-15
  -3.64499986E-02  -3.06073047E-15
  -3.64000015E-02  -4.94170922E-15
  -3.63500006E-02  -7.08747238E-15
  -3.62999998E-02  -9.47591936E-15
  -3.62499990E-02  -1.20747071E-14
  -3.62000018E-02  -1.48611693E-14
  -3.61500010E-02  -1.78368283E-14
  -3.61000001E-02  -2.10261004E-14
  -3.60499993E-02  -2.44575071E-14
  -3.59999985E-02  -2.81356325E-14
  -3.59500013E-02  -3.20172931E-14
  -3.59000005E-02  -3.60044161E-14
  -3.58499996E-02  -3.99602430E-14
  -3.57999988E-02  -4.37470393E-14
  -3.57500017E-02  -4.72736338E-14
  -3.57000008E-02  -5.05322712E-14
  -3.56500000E-02  -5.36030435E-14
  -3.55999991E-02  -5.66144184E-14
  -3.55499983E-02  -5.96702592E-14
  -3.55000012E-02  -6.27742826E-14
  -3.54500003E-02  -6.57901739E-14
  -3.53999995E-02  -6.84620546E-14
  -3.53499986E-02  -7.04920876E-14
  -3.53000015E-02  -7.16441948E-14
  -3.52500007E-02  -7.18284143E-14
  -3.51999998E-02  -7.11252617E-14
  -3.51499990E-02  -6.97319264E-14
  -3.51000018E-02  -6.78449877E-14
  -3.50500010E-02  -6.55266653E-14
  -3.50000001E-02  -6.26179609E-14
  -3.49499993E-02  -5.87506186E-14
  -3.48999985E-02  -5.34678672E-14
  -3.48500013E-02  -4.64090402E-14
  -3.48000005E-02  -3.74734931E-14
  -3.47499996E-02  -2.68797419E-14
  -3.46999988E-02  -1.50798428E-14
  -3.46500017E-02  -2.55695149E-15
  -3.46000008E-02   1.04073270E-14
  -3.45500000E-02   2.38870626E-14
  -3.44999991E-02   3.83057572E-14
  -3.44499983E-02   5.42539985E-14
  -3.44000012E-02   7.21971311E-14
  -3.43500003E-02   9.22011897E-14
  -3.42999995E-02   1.13814706E-13
  -3.42499986E-02   1.36186066E-13
  -3.42000015E-02   1.58388439E-13
  -3.41500007E-02   1.79815432E-13
  -3.40999998E-02   2.00458289E-13
  -3.40499990E-02   2.20914094E-13
  -3.40000018E-02   2.42091693E-13
  -3.39500010E-02   2.64726609E-13
  -3.39000002E-02   2.88917219E-13
  -3.38499993E-02   3.13904528E-13
  -3.37999985E-02   3.38224593E-13
  -3.37500013E-02   3.60201208E-13
  -3.37000005E-02   3.78583314E-13
  -3.36499996E-02   3.93040879E-13
  -3.35999988E-02   4.04267494E-13
  -3.35500017E-02   4.13601797E-13
  -3.35000008E-02   4.22304823E-13
  -3.34500000E-02   4.30812016E-13
  -3.33999991E-02   4.38320224E-13
  -3.33499983E-02   4.42937841E-13
  -3.33000012E-02   4.42372538E-13
  -3.32500003E-02   4.34872624E-13
  -3.31999995E-02   4.19996774E-13
  -3.31499986E-02   3.98835235E-13
  -3.31000015E-02   3.73532341E-13
  -3.30500007E-02   3.46276014E-13
  -3.29999998E-02   3.18187452E-13
  -3.29499990E-02   2.88630583E-13
  -3.29000019E-02   2.55309554E-13
  -3.28500010E-02   2.15173948E-13
  -3.28000002E-02   1.65765310E-13
  -3.27499993E-02   1.06394216E-13
  -3.26999985E-02   3.85740430E-14
  -3.26500013E-02  -3.45449818E-14
  -3.26000005E-02  -1.09536342E-13
  -3.25499997E-02  -1.84257516E-13
  -3.24999988E-02  -2.58879561E-13
  -3.24500017E-02  -3.35856126E-13
  -3.24000008E-02  -4.18764849E-13
  -3.23500000E-02  -5.10480818E-13
  -3.22999991E-02  -6.11499404E-13
  -3.22499983E-02  -7.19222316E-13
  -3.22000012E-02  -8.28628832E-13
  -3.21500003E-02  -9.34125715E-13
  -3.20999995E-02  -1.03178794E-12
  -3.20499986E-02  -1.12095782E-12
  -3.20000015E-02  -1.20440593E-12
  -3.19500007E-02  -1.28688856E-12
  -3.18999998E-02  -1.37267693E-12
  -3.18499990E-02  -1.46315208E-12
  -3.18000019E-02  -1.55559105E-12
  -3.17500010E-02  -1.64378222E-12
  -3.17000002E-02  -1.72029806E-12
  -3.16499993E-02  -1.77946882E-12
  -3.15999985E-02  -1.81970801E-12
  -3.15500014E-02  -1.84405811E-12
  -3.15000005E-02  -1.85859553E-12
  -3.14499997E-02  -1.86932696E-12
  -3.13999988E-02  -1.87895641E-12
  -3.13500017E-02  -1.88504702E-12
  -3.13000008E-02  -1.88052113E-12
  -3.12500000E-02  -1.85638614E-12
  -3.11999992E-02  -1.80553044E-12
  -3.11500002E-02  -1.72587422E-12
  -3.10999993E-02  -1.62137534E-12
  -3.10500003E-02  -1.50031051E-12
  -3.09999995E-02  -1.37148897E-12
  -3.09500005E-02  -1.24006155E-12
  -3.08999997E-02  -1.10486598E-12
  -3.08500007E-02  -9.58643538E-13
  -3.07999998E-02  -7.91176044E-13
  -3.07500008E-02  -5.94017619E-13
  -3.07000000E-02  -3.64678204E-13
  -3.06499992E-02  -1.08269987E-13
  -3.06000002E-02   1.64268488E-13
  -3.05499993E-02   4.40696497E-13
  -3.05000003E-02   7.12760200E-13
  -3.04499995E-02   9.79818115E-13
  -3.04000005E-02   1.24903462E-12
  -3.03499997E-02   1.53188616E-12
  -3.03000007E-02   1.83841527E-12
  -3.02499998E-02   2.17179161E-12
  -3.02000009E-02   2.52572485E-12
  -3.01500000E-02   2.88606270E-12
  -3.00999992E-02   3.23602777E-12
  -3.00500002E-02   3.56281584E-12
  -2.99999993E-02   3.86256478E-12
  -2.99500003E-02   4.14133831E-12
  -2.98999995E-02   4.41154448E-12
  -2.98500005E-02   4.68528645E-12
  -2.97999997E-02   4.96760619E-12
  -2.97500007E-02   5.25274442E-12
  -2.96999998E-02   5.52524346E-12
  -2.96500009E-02   5.76557899E-12
  -2.96000000E-02   5.95789347E-12
  -2.95499992E-02   6.09634825E-12
  -2.95000002E-02   6.18711549E-12
  -2.94499993E-02   6.24493296E-12
  -2.94000003E-02   6.28565039E-12
  -2.93499995E-02   6.31807454E-12
  -2.93000005E-02   6.33885609E-12
  -2.92499997E-02   6.33286262E-12
  -2.92000007E-02   6.27901333E-12
  -2.91499998E-02   6.15904810E-12
  -2.91000009E-02   5.96529857E-12
  -2.90500000E-02   5.70387184E-12
  -2.89999992E-02   5.39167018E-12
  -2.89500002E-02   5.04843780E-12
  -2.88999993E-02   4.68735207E-12
  -2.88500004E-02   4.30846678E-12
  -2.87999995E-02   3.89813659E-12
  -2.87500005E-02   3.43486893E-12
  -2.86999997E-02   2.89911107E-12
  -2.86500007E-02   2.28258905E-12
  -2.85999998E-02   1.59291395E-12
  -2.85500009E-02   8.51243392E-13
  -2.85000000E-02   8.38851896E-14
  -2.84499992E-02  -6.88491527E-13
  -2.84000002E-02  -1.45921708E-12
  -2.83499993E-02  -2.23771414E-12
  -2.83000004E-02  -3.04423414E-12
  -2.82499995E-02  -3.89944370E-12
  -2.82000005E-02  -4.81347514E-12
  -2.81499997E-02  -5.77937394E-12
  -2.81000007E-02  -6.77401581E-12
  -2.80499998E-02  -7.76620174E-12
  -2.80000009E-02  -8.72838607E-12
  -2.79500000E-02  -9.64680679E-12
  -2.78999992E-02  -1.05254035E-11
  -2.78500002E-02  -1.13817263E-11
  -2.77999993E-02  -1.22365425E-11
  -2.77500004E-02  -1.31017558E-11
  -2.76999995E-02  -1.39720431E-11
  -2.76500005E-02  -1.48240187E-11
  -2.75999997E-02  -1.56234695E-11
  -2.75500007E-02  -1.63375233E-11
  -2.74999999E-02  -1.69464043E-11
  -2.74500009E-02  -1.74494776E-11
  -2.74000000E-02  -1.78628327E-11
  -2.73499992E-02  -1.82094392E-11
  -2.73000002E-02  -1.85062018E-11
  -2.72499993E-02  -1.87537381E-11
  -2.72000004E-02  -1.89334520E-11
  -2.71499995E-02  -1.90132961E-11
  -2.71000005E-02  -1.89597765E-11
  -2.70499997E-02  -1.87509071E-11
  -2.70000007E-02  -1.83844259E-11
  -2.69499999E-02  -1.78775241E-11
  -2.69000009E-02  -1.72581203E-11
  -2.68500000E-02  -1.65514789E-11
  -2.67999992E-02  -1.57680292E-11
  -2.67500002E-02  -1.48978781E-11
  -2.66999993E-02  -1.39145336E-11
  -2.66500004E-02  -1.27863024E-11
  -2.65999995E-02  -1.14904319E-11
  -2.65500005E-02  -1.00238420E-11
  -2.64999997E-02  -8.40571276E-12
  -2.64500007E-02  -6.67074035E-12
  -2.63999999E-02  -4.85588002E-12
  -2.63500009E-02  -2.98629871E-12
  -2.63000000E-02  -1.06664786E-12
  -2.62499992E-02   9.18504205E-13
  -2.62000002E-02   2.99511501E-12
  -2.61499994E-02   5.18504944E-12
  -2.61000004E-02   7.49274167E-12
  -2.60499995E-02   9.89894451E-12
  -2.60000005E-02   1.23643908E-11
  -2.59499997E-02   1.48418586E-11
  -2.59000007E-02   1.72915484E-11
  -2.58499999E-02   1.96931828E-11
  -2.58000009E-02   2.20495462E-11
  -2.57500000E-02   2.43799026E-11
  -2.56999992E-02   2.67059933E-11
  -2.56500002E-02   2.90365527E-11
  -2.55999994E-02   3.13570558E-11
  -2.55500004E-02   3.36292869E-11
  -2.54999995E-02   3.58010843E-11
  -2.54500005E-02   3.78222870E-11
  -2.53999997E-02   3.96600981E-11
  -2.53500007E-02   4.13071626E-11
  -2.52999999E-02   4.27787285E-11
  -2.52500009E-02   4.40999737E-11
  -2.52000000E-02   4.52888109E-11
  -2.51499992E-02   4.63416978E-11
  -2.51000002E-02   4.72286307E-11
  -2.50499994E-02   4.78999722E-11
  -2.50000004E-02   4.83024697E-11
  -2.49499995E-02   4.83979176E-11
  -2.49000005E-02   4.81763518E-11
  -2.48499997E-02   4.76578048E-11
  -2.48000007E-02   4.68814362E-11
  -2.47499999E-02   4.58863607E-11
  -2.47000009E-02   4.46923540E-11
  -2.46500000E-02   4.32888760E-11
  -2.45999992E-02   4.16375684E-11
  -2.45500002E-02   3.96876525E-11
  -2.44999994E-02   3.73978730E-11
  -2.44500004E-02   3.47557087E-11
  -2.43999995E-02   3.17851891E-11
  -2.43500005E-02   2.85395180E-11
  -2.42999997E-02   2.50810796E-11
  -2.42500007E-02   2.14572162E-11
  -2.41999999E-02   1.76823695E-11
  -2.41500009E-02   1.37348822E-11
  -2.41000000E-02   9.57045988E-12
  -2.40499992E-02   5.14705162E-12
  -2.40000002E-02   4.50387503E-13
  -2.39499994E-02  -4.49117132E-12
  -2.39000004E-02  -9.60957616E-12
  -2.38499995E-02  -1.48171527E-11
  -2.38000005E-02  -2.00355947E-11
  -2.37499997E-02  -2.52212973E-11
  -2.37000007E-02  -3.03755215E-11
  -2.36499999E-02  -3.55343532E-11
  -2.36000009E-02  -4.07420903E-11
  -2.35500000E-02  -4.60194972E-11
  -2.34999992E-02  -5.13413513E-11
  -2.34500002E-02  -5.66336943E-11
  -2.33999994E-02  -6.17930360E-11
  -2.33500004E-02  -6.67196159E-11
  -2.32999995E-02  -7.13500717E-11
  -2.32500006E-02  -7.56747859E-11
  -2.31999997E-02  -7.97314020E-11
  -2.31500007E-02  -8.35766317E-11
  -2.30999999E-02  -8.72483058E-11
  -2.30500009E-02  -9.07347877E-11
  -2.30000000E-02  -9.39660641E-11
  -2.29499992E-02  -9.68315983E-11
  -2.29000002E-02  -9.92179811E-11
  -2.28499994E-02  -1.01050023E-10
  -2.28000004E-02  -1.02316537E-10
  -2.27499995E-02  -1.03068470E-10
  -2.27000006E-02  -1.03389318E-10
  -2.26499997E-02  -1.03350294E-10
  -2.26000007E-02  -1.02970500E-10
  -2.25499999E-02  -1.02200415E-10
  -2.25000009E-02  -1.00937272E-10
  -2.24500000E-02  -9.90665466E-11
  -2.23999992E-02  -9.65115141E-11
  -2.23500002E-02  -9.32684069E-11
  -2.22999994E-02  -8.94107843E-11
  -2.22500004E-02  -8.50596885E-11
  -2.21999995E-02  -8.03324490E-11
  -2.21500006E-02  -7.52927373E-11
  -2.20999997E-02  -6.99249200E-11
  -2.20500007E-02  -6.41454320E-11
  -2.19999999E-02  -5.78468072E-11
  -2.19500009E-02  -5.09551602E-11
  -2.19000001E-02  -4.34750222E-11
  -2.18499992E-02  -3.55005157E-11
  -2.18000002E-02  -2.71866817E-11
  -2.17499994E-02  -1.86931338E-11
  -2.17000004E-02  -1.01250015E-11
  -2.16499995E-02  -1.49857524E-12
  -2.16000006E-02   7.25194254E-12
  -2.15499997E-02   1.62283971E-11
  -2.15000007E-02   2.55036599E-11
  -2.14499999E-02   3.50674073E-11
  -2.14000009E-02   4.48081572E-11
  -2.13500001E-02   5.45411633E-11
  -2.12999992E-02   6.40705336E-11
  -2.12500002E-02   7.32578304E-11
  -2.11999994E-02   8.20657986E-11
  -2.11500004E-02   9.05562778E-11
  -2.10999995E-02   9.88422191E-11
  -2.10500006E-02   1.07014855E-10
  -2.09999997E-02   1.15079245E-10
  -2.09500007E-02   1.22928404E-10
  -2.08999999E-02   1.30369104E-10
  -2.08500009E-02   1.37189107E-10
  -2.08000001E-02   1.43235646E-10
  -2.07499992E-02   1.48469181E-10
  -2.07000002E-02   1.52967014E-10
  -2.06499994E-02   1.56873958E-10
  -2.06000004E-02   1.60321520E-10
  -2.05499995E-02   1.63352915E-10
  -2.05000006E-02   1.65888345E-10
  -2.04499997E-02   1.67748024E-10
  -2.04000007E-02   1.68723591E-10
  -2.03499999E-02   1.68666220E-10
  -2.03000009E-02   1.67551167E-10
  -2.02500001E-02   1.65488331E-10
  -2.01999992E-02   1.62672931E-10
  -2.01500002E-02   1.59297672E-10
  -2.00999994E-02   1.55466723E-10
  -2.00500004E-02   1.51151022E-10
  -1.99999996E-02   1.46206589E-10
  -1.99500006E-02   1.40448472E-10
  -1.98999997E-02   1.33746778E-10
  -1.98500007E-02   1.26100741E-10
  -1.97999999E-02   1.17656010E-10
  -1.97500009E-02   1.08655897E-10
  -1.97000001E-02   9.93479674E-11
  -1.96499992E-02   8.98883398E-11
  -1.96000002E-02   8.02883038E-11
  -1.95499994E-02   7.04287878E-11
  -1.95000004E-02   6.01373049E-11
  -1.94499996E-02   4.92927747E-11
  -1.94000006E-02   3.79098176E-11
  -1.93499997E-02   2.61627543E-11
  -1.93000007E-02   1.43369648E-11
  -1.92499999E-02   2.72867601E-12
  -1.92000009E-02  -8.46147544E-12
  -1.91500001E-02  -1.91921427E-11
  -1.90999992E-02  -2.95718346E-11
  -1.90500002E-02  -3.97796553E-11
  -1.89999994E-02  -4.99517372E-11
  -1.89500004E-02  -6.00857142E-11
  -1.88999996E-02  -7.00080272E-11
  -1.88500006E-02  -7.94205812E-11
  -1.87999997E-02  -8.80069420E-11
  -1.87500007E-02  -9.55501095E-11
  -1.86999999E-02  -1.02007632E-10
  -1.86500009E-02  -1.07509050E-10
  -1.86000001E-02  -1.12275529E-10
  -1.85499992E-02  -1.16497978E-10
  -1.85000002E-02  -1.20229465E-10
  -1.84499994E-02  -1.23342225E-10
  -1.84000004E-02  -1.25569763E-10
  -1.83499996E-02  -1.26616481E-10
  -1.83000006E-02  -1.26285066E-10
  -1.82499997E-02  -1.24563151E-10
  -1.82000007E-02  -1.21628679E-10
  -1.81499999E-02  -1.17770210E-10
  -1.81000009E-02  -1.13258548E-10
  -1.80500001E-02  -1.08227781E-10
  -1.79999992E-02  -1.02621980E-10
  -1.79500002E-02  -9.62323277E-11
  -1.78999994E-02  -8.88099316E-11
  -1.78500004E-02  -8.02029346E-11
  -1.77999996E-02  -7.04546560E-11
  -1.77500006E-02  -5.98167488E-11
  -1.76999997E-02  -4.86706855E-11
  -1.76500008E-02  -3.73921311E-11
  -1.75999999E-02  -2.62197694E-11
  -1.75500009E-02  -1.51895892E-11
  -1.75000001E-02  -4.16495657E-12
  -1.74499992E-02   7.04839008E-12
  -1.74000002E-02   1.85562711E-11
  -1.73499994E-02   3.02644160E-11
  -1.73000004E-02   4.18553005E-11
  -1.72499996E-02   5.28640950E-11
  -1.72000006E-02   6.28214772E-11
  -1.71499997E-02   7.13978807E-11
  -1.71000008E-02   7.84834767E-11
  -1.70499999E-02   8.41657785E-11
  -1.70000009E-02   8.86149001E-11
  -1.69500001E-02   9.19260987E-11
  -1.68999992E-02   9.39925568E-11
  -1.68500002E-02   9.44668024E-11
  -1.67999994E-02   9.28314856E-11
  -1.67500004E-02   8.85468296E-11
  -1.66999996E-02   8.12092060E-11
  -1.66500006E-02   7.06487438E-11
  -1.65999997E-02   5.69208534E-11
  -1.65500008E-02   4.01954789E-11
  -1.64999999E-02   2.05925728E-11
  -1.64500009E-02  -1.96123434E-12
  -1.64000001E-02  -2.77865266E-11
  -1.63499992E-02  -5.73930660E-11
  -1.63000003E-02  -9.13304293E-11
  -1.62499994E-02  -1.30017969E-10
  -1.62000004E-02  -1.73630332E-10
  -1.61499996E-02  -2.22092025E-10
  -1.61000006E-02  -2.75184570E-10
  -1.60499997E-02  -3.32717437E-10
  -1.60000008E-02  -3.94684757E-10
  -1.59499999E-02  -4.61339383E-10
  -1.59000009E-02  -5.33146582E-10
  -1.58500001E-02  -6.10635931E-10
  -1.57999992E-02  -6.94217128E-10
  -1.57500003E-02  -7.84045773E-10
  -1.56999994E-02  -8.79998963E-10
  -1.56500004E-02  -9.81775328E-10
  -1.55999996E-02  -1.08907672E-09
  -1.55499997E-02  -1.20178112E-09
  -1.54999997E-02  -1.32003530E-09
  -1.54499998E-02  -1.44422774E-09
  -1.53999999E-02  -1.57484625E-09
  -1.53500000E-02  -1.71228165E-09
  -1.53000001E-02  -1.85667159E-09
  -1.52500002E-02  -2.00785344E-09
  -1.52000003E-02  -2.16545071E-09
  -1.51500003E-02  -2.32905850E-09
  -1.51000004E-02  -2.49843657E-09
  -1.50499996E-02  -2.67363331E-09
  -1.49999997E-02  -2.85497470E-09
  -1.49499997E-02  -3.04292858E-09
  -1.48999998E-02  -3.23790084E-09
  -1.48499999E-02  -3.44005957E-09
  -1.48000000E-02  -3.64925667E-09
  -1.47500001E-02  -3.86509447E-09
  -1.47000002E-02  -4.08710399E-09
  -1.46500003E-02  -4.31496217E-09
  -1.46000003E-02  -4.54863835E-09
  -1.45500004E-02  -4.78842210E-09
  -1.44999996E-02  -5.03479347E-09
  -1.44499997E-02  -5.28821564E-09
  -1.43999998E-02  -5.54892754E-09
  -1.43499998E-02  -5.81684434E-09
  -1.42999999E-02  -6.09160322E-09
  -1.42500000E-02  -6.37273478E-09
  -1.42000001E-02  -6.65988686E-09
  -1.41500002E-02  -6.95300306E-09
  -1.41000003E-02  -7.25238225E-09
  -1.40500003E-02  -7.55856622E-09
  -1.40000004E-02  -7.87213050E-09
  -1.39499996E-02  -8.19346013E-09
  -1.38999997E-02  -8.52260307E-09
  -1.38499998E-02  -8.85929730E-09
  -1.37999998E-02  -9.20312715E-09
  -1.37499999E-02  -9.55376755E-09
  -1.37000000E-02  -9.91118920E-09
  -1.36500001E-02  -1.02757447E-08
  -1.36000002E-02  -1.06480940E-08
  -1.35500003E-02  -1.10289804E-08
  -1.35000004E-02  -1.14189724E-08
  -1.34500004E-02  -1.18183072E-08
  -1.33999996E-02  -1.22268684E-08
  -1.33499997E-02  -1.26443256E-08
  -1.32999998E-02  -1.30703874E-08
  -1.32499998E-02  -1.35050486E-08
  -1.31999999E-02  -1.39487151E-08
  -1.31500000E-02  -1.44021683E-08
  -1.31000001E-02  -1.48663419E-08
  -1.30500002E-02  -1.53420388E-08
  -1.30000003E-02  -1.58297322E-08
  -1.29500004E-02  -1.63294889E-08
  -1.29000004E-02  -1.68411063E-08
  -1.28499996E-02  -1.73643571E-08
  -1.27999997E-02  -1.78992750E-08
  -1.27499998E-02  -1.84462916E-08
  -1.26999998E-02  -1.90062455E-08
  -1.26499999E-02  -1.95802148E-08
  -1.26000000E-02  -2.01692121E-08
  -1.25500001E-02  -2.07739177E-08
  -1.25000002E-02  -2.13945963E-08
  -1.24500003E-02  -2.20311538E-08
  -1.24000004E-02  -2.26834302E-08
  -1.23500004E-02  -2.33514736E-08
  -1.22999996E-02  -2.40357423E-08
  -1.22499997E-02  -2.47371510E-08
  -1.21999998E-02  -2.54568686E-08
  -1.21499998E-02  -2.61960178E-08
  -1.20999999E-02  -2.69554157E-08
  -1.20500000E-02  -2.77354246E-08
  -1.20000001E-02  -2.85360109E-08
  -1.19500002E-02  -2.93569808E-08
  -1.19000003E-02  -3.01983327E-08
  -1.18500004E-02  -3.10605159E-08
  -1.18000004E-02  -3.19445235E-08
  -1.17499996E-02  -3.28517160E-08
  -1.16999997E-02  -3.37835253E-08
  -1.16499998E-02  -3.47410740E-08
  -1.15999999E-02  -3.57249910E-08
  -1.15499999E-02  -3.67353934E-08
  -1.15000000E-02  -3.77721463E-08
  -1.14500001E-02  -3.88351822E-08
  -1.14000002E-02  -3.99247710E-08
  -1.13500003E-02  -4.10417123E-08
  -1.13000004E-02  -4.21871995E-08
  -1.12500004E-02  -4.33626042E-08
  -1.11999996E-02  -4.45690773E-08
  -1.11499997E-02  -4.58073082E-08
  -1.10999998E-02  -4.70775312E-08
  -1.10499999E-02  -4.83797500E-08
  -1.09999999E-02  -4.97141031E-08
  -1.09500000E-02  -5.10811340E-08
  -1.09000001E-02  -5.24820152E-08
  -1.08500002E-02  -5.39183773E-08
  -1.08000003E-02  -5.53920643E-08
  -1.07500004E-02  -5.69046961E-08
  -1.07000005E-02  -5.84573741E-08
  -1.06499996E-02  -6.00505246E-08
  -1.05999997E-02  -6.16841120E-08
  -1.05499998E-02  -6.33580299E-08
  -1.04999999E-02  -6.50725909E-08
  -1.04499999E-02  -6.68287257E-08
  -1.04000000E-02  -6.86279193E-08
  -1.03500001E-02  -7.04719980E-08
  -1.03000002E-02  -7.23627593E-08
  -1.02500003E-02  -7.43016741E-08
  -1.02000004E-02  -7.62896732E-08
  -1.01500005E-02  -7.83272327E-08
  -1.00999996E-02  -8.04147646E-08
  -1.00499997E-02  -8.25530577E-08
  -9.99999978E-03  -8.47435118E-08
  -9.94999986E-03  -8.69882086E-08
  -9.89999995E-03  -8.92895855E-08
  -9.85000003E-03  -9.16499587E-08
  -9.80000012E-03  -9.40712539E-08
  -9.75000020E-03  -9.65548779E-08
  -9.70000029E-03  -9.91017046E-08
  -9.65000037E-03  -1.01712430E-07
  -9.60000046E-03  -1.04388050E-07
  -9.54999961E-03  -1.07130198E-07
  -9.49999969E-03  -1.09941205E-07
  -9.44999978E-03  -1.12823955E-07
  -9.39999986E-03  -1.15781312E-07
  -9.34999995E-03  -1.18815727E-07
  -9.30000003E-03  -1.21929006E-07
  -9.25000012E-03  -1.25122369E-07
  -9.20000020E-03  -1.28396820E-07
  -9.15000029E-03  -1.31753609E-07
  -9.10000037E-03  -1.35194597E-07
  -9.05000046E-03  -1.38722484E-07
  -8.99999961E-03  -1.42340468E-07
  -8.94999970E-03  -1.46052017E-07
  -8.89999978E-03  -1.49860341E-07
  -8.84999987E-03  -1.53768084E-07
  -8.79999995E-03  -1.57777293E-07
  -8.75000004E-03  -1.61889702E-07
  -8.70000012E-03  -1.66107128E-07
  -8.65000021E-03  -1.70431989E-07
  -8.60000029E-03  -1.74867594E-07
  -8.55000038E-03  -1.79417796E-07
  -8.50000046E-03  -1.84086758E-07
  -8.44999962E-03  -1.88878190E-07
  -8.39999970E-03  -1.93795174E-07
  -8.34999979E-03  -1.98840297E-07
  -8.29999987E-03  -2.04015706E-07
  -8.24999996E-03  -2.09323645E-07
  -8.20000004E-03  -2.14766757E-07
  -8.15000013E-03  -2.20348483E-07
  -8.10000021E-03  -2.26072970E-07
  -8.05000030E-03  -2.31944583E-07
  -8.00000038E-03  -2.37967626E-07
  -7.95000046E-03  -2.44145696E-07
  -7.89999962E-03  -2.50481691E-07
  -7.84999970E-03  -2.56978012E-07
  -7.79999979E-03  -2.63637361E-07
  -7.74999987E-03  -2.70462692E-07
  -7.69999996E-03  -2.77457843E-07
  -7.65000004E-03  -2.84627390E-07
  -7.60000013E-03  -2.91976306E-07
  -7.55000021E-03  -2.99509594E-07
  -7.49999983E-03  -3.07231517E-07
  -7.44999992E-03  -3.15145769E-07
  -7.40000000E-03  -3.23255222E-07
  -7.35000009E-03  -3.31562973E-07
  -7.30000017E-03  -3.40072489E-07
  -7.24999979E-03  -3.48788006E-07
  -7.19999988E-03  -3.57714384E-07
  -7.14999996E-03  -3.66856938E-07
  -7.10000005E-03  -3.76220896E-07
  -7.05000013E-03  -3.85811006E-07
  -7.00000022E-03  -3.95631361E-07
  -6.94999984E-03  -4.05685398E-07
  -6.89999992E-03  -4.15976388E-07
  -6.85000001E-03  -4.26507796E-07
  -6.80000009E-03  -4.37284115E-07
  -6.75000018E-03  -4.48310544E-07
  -6.69999979E-03  -4.59592655E-07
  -6.64999988E-03  -4.71135991E-07
  -6.59999996E-03  -4.82945723E-07
  -6.55000005E-03  -4.95026313E-07
  -6.50000013E-03  -5.07381742E-07
  -6.45000022E-03  -5.20015703E-07
  -6.39999984E-03  -5.32932177E-07
  -6.34999992E-03  -5.46136107E-07
  -6.30000001E-03  -5.59633520E-07
  -6.25000009E-03  -5.73430384E-07
  -6.20000018E-03  -5.87532838E-07
  -6.14999980E-03  -6.01946908E-07
  -6.09999988E-03  -6.16677823E-07
  -6.04999997E-03  -6.31730018E-07
  -6.00000005E-03  -6.47108209E-07
  -5.95000014E-03  -6.62816944E-07
  -5.90000022E-03  -6.78861511E-07
  -5.84999984E-03  -6.95247877E-07
  -5.79999993E-03  -7.11982807E-07
  -5.75000001E-03  -7.29073463E-07
  -5.70000010E-03  -7.46526212E-07
  -5.65000018E-03  -7.64346396E-07
  -5.59999980E-03  -7.82538791E-07
  -5.54999989E-03  -8.01108342E-07
  -5.49999997E-03  -8.20060563E-07
  -5.45000006E-03  -8.39401366E-07
  -5.40000014E-03  -8.59137060E-07
  -5.35000023E-03  -8.79274637E-07
  -5.29999984E-03  -8.99821885E-07
  -5.24999993E-03  -9.20786363E-07
  -5.20000001E-03  -9.42174836E-07
  -5.15000010E-03  -9.63993671E-07
  -5.10000018E-03  -9.86248438E-07
  -5.04999980E-03  -1.00894522E-06
  -4.99999989E-03  -1.03209129E-06
  -4.94999997E-03  -1.05569427E-06
  -4.90000006E-03  -1.07976268E-06
  -4.85000014E-03  -1.10430506E-06
  -4.80000023E-03  -1.12932923E-06
  -4.74999985E-03  -1.15484238E-06
  -4.69999993E-03  -1.18085177E-06
  -4.65000002E-03  -1.20736468E-06
  -4.60000010E-03  -1.23438781E-06
  -4.55000019E-03  -1.26192822E-06
  -4.49999981E-03  -1.28999432E-06
  -4.44999989E-03  -1.31859576E-06
  -4.39999998E-03  -1.34774177E-06
  -4.35000006E-03  -1.37744155E-06
  -4.30000015E-03  -1.40770317E-06
  -4.25000023E-03  -1.43853470E-06
  -4.19999985E-03  -1.46994410E-06
  -4.14999994E-03  -1.50193955E-06
  -4.10000002E-03  -1.53453004E-06
  -4.05000011E-03  -1.56772467E-06
  -4.00000019E-03  -1.60153388E-06
  -3.94999981E-03  -1.63596803E-06
  -3.89999989E-03  -1.67103792E-06
  -3.84999998E-03  -1.70675355E-06
  -3.80000006E-03  -1.74312459E-06
  -3.74999992E-03  -1.78015932E-06
  -3.70000000E-03  -1.81786697E-06
  -3.65000009E-03  -1.85625811E-06
  -3.59999994E-03  -1.89534433E-06
  -3.55000002E-03  -1.93513711E-06
  -3.50000011E-03  -1.97564805E-06
  -3.44999996E-03  -2.01688817E-06
  -3.40000005E-03  -2.05886931E-06
  -3.34999990E-03  -2.10160147E-06
  -3.29999998E-03  -2.14509510E-06
  -3.25000007E-03  -2.18936020E-06
  -3.19999992E-03  -2.23440725E-06
  -3.15000000E-03  -2.28024828E-06
  -3.10000009E-03  -2.32689627E-06
  -3.04999994E-03  -2.37436461E-06
  -3.00000003E-03  -2.42266537E-06
  -2.95000011E-03  -2.47181083E-06
  -2.89999996E-03  -2.52181258E-06
  -2.85000005E-03  -2.57268198E-06
  -2.79999990E-03  -2.62443245E-06
  -2.74999999E-03  -2.67707674E-06
  -2.70000007E-03  -2.73062801E-06
  -2.64999992E-03  -2.78510015E-06
  -2.60000001E-03  -2.84050839E-06
  -2.55000009E-03  -2.89686864E-06
  -2.49999994E-03  -2.95419522E-06
  -2.45000003E-03  -3.01250043E-06
  -2.40000011E-03  -3.07179607E-06
  -2.34999997E-03  -3.13209534E-06
  -2.30000005E-03  -3.19341393E-06
  -2.24999990E-03  -3.25576571E-06
  -2.19999999E-03  -3.31916658E-06
  -2.15000007E-03  -3.38363043E-06
  -2.09999993E-03  -3.44917294E-06
  -2.05000001E-03  -3.51581070E-06
  -2.00000009E-03  -3.58355828E-06
  -1.94999995E-03  -3.65242863E-06
  -1.90000003E-03  -3.72243449E-06
  -1.85000000E-03  -3.79359062E-06
  -1.79999997E-03  -3.86591501E-06
  -1.75000005E-03  -3.93942537E-06
  -1.70000002E-03  -4.01413990E-06
  -1.64999999E-03  -4.09007453E-06
  -1.59999996E-03  -4.16724470E-06
  -1.55000004E-03  -4.24566679E-06
  -1.50000001E-03  -4.32535489E-06
  -1.44999998E-03  -4.40632493E-06
  -1.39999995E-03  -4.48859419E-06
  -1.35000004E-03  -4.57217857E-06
  -1.30000000E-03  -4.65709536E-06
  -1.24999997E-03  -4.74336412E-06
  -1.20000006E-03  -4.83100439E-06
  -1.15000003E-03  -4.92003301E-06
  -1.09999999E-03  -5.01046406E-06
  -1.04999996E-03  -5.10231166E-06
  -1.00000005E-03  -5.19559308E-06
  -9.50000016E-04  -5.29032468E-06
  -8.99999985E-04  -5.38652785E-06
  -8.50000011E-04  -5.48421667E-06
  -7.99999980E-04  -5.58340844E-06
  -7.50000007E-04  -5.68412452E-06
  -6.99999975E-04  -5.78638310E-06
  -6.50000002E-04  -5.89020192E-06
  -6.00000028E-04  -5.99559371E-06
  -5.49999997E-04  -6.10257302E-06
  -5.00000024E-04  -6.21115441E-06
  -4.49999992E-04  -6.32135925E-06
  -3.99999990E-04  -6.43320891E-06
  -3.49999988E-04  -6.54672158E-06
  -3.00000014E-04  -6.66191545E-06
  -2.50000012E-04  -6.77880598E-06
  -1.99999995E-04  -6.89740864E-06
  -1.50000007E-04  -7.01774479E-06
  -9.99999975E-05  -7.13983036E-06
  -4.99999987E-05  -7.26367762E-06
   0.00000000      -7.38929930E-06
   4.99999987E-05  -7.51671450E-06
   9.99999975E-05  -7.64594824E-06
   1.50000007E-04  -7.77702007E-06
   1.99999995E-04  -7.90994545E-06
   2.50000012E-04  -8.04473075E-06
   3.00000014E-04  -8.18138960E-06
   3.49999988E-04  -8.31994203E-06
   3.99999990E-04  -8.46040348E-06
   4.49999992E-04  -8.60278942E-06
   5.00000024E-04  -8.74711350E-06
   5.49999997E-04  -8.89338844E-06
   6.00000028E-04  -9.04163608E-06
   6.50000002E-04  -9.19187460E-06
   6.99999975E-04  -9.34411946E-06
   7.50000007E-04  -9.49838068E-06
   7.99999980E-04  -9.65466825E-06
   8.50000011E-04  -9.81299854E-06
   8.99999985E-04  -9.97338702E-06
   9.50000016E-04  -1.01358492E-05
   1.00000005E-03  -1.03003977E-05
   1.04999996E-03  -1.04670489E-05
   1.09999999E-03  -1.06358220E-05
   1.15000003E-03  -1.08067252E-05
   1.20000006E-03  -1.09797684E-05
   1.24999997E-03  -1.11549562E-05
   1.30000000E-03  -1.13323067E-05
   1.35000004E-03  -1.15118301E-05
   1.39999995E-03  -1.16935380E-05
   1.44999998E-03  -1.18774433E-05
   1.50000001E-03  -1.20635586E-05
   1.55000004E-03  -1.22518959E-05
   1.59999996E-03  -1.24424650E-05
   1.64999999E-03  -1.26352761E-05
   1.70000002E-03  -1.28303291E-05
   1.75000005E-03  -1.30276385E-05
   1.79999997E-03  -1.32272144E-05
   1.85000000E-03  -1.34290667E-05
   1.90000003E-03  -1.36332101E-05
   1.94999995E-03  -1.38396508E-05
   2.00000009E-03  -1.40483999E-05
   2.05000001E-03  -1.42594645E-05
   2.09999993E-03  -1.44728529E-05
   2.15000007E-03  -1.46885668E-05
   2.19999999E-03  -1.49066091E-05
   2.24999990E-03  -1.51269887E-05
   2.30000005E-03  -1.53497131E-05
   2.34999997E-03  -1.55747894E-05
   2.40000011E-03  -1.58022322E-05
   2.45000003E-03  -1.60320469E-05
   2.49999994E-03  -1.62642300E-05
   2.55000009E-03  -1.64987814E-05
   2.60000001E-03  -1.67357102E-05
   2.64999992E-03  -1.69750238E-05
   2.70000007E-03  -1.72167256E-05
   2.74999999E-03  -1.74608067E-05
   2.79999990E-03  -1.77072725E-05