  -3.99999991E-02   0.00000000    
  -3.99499983E-02   0.00000000    
  -3.99000011E-02   0.00000000    
  -3.98500003E-02   0.00000000    
  -3.97999994E-02   8.43747024E-19
  -3.97499986E-02   6.90602712E-18
  -3.97000015E-02   2.69545223E-17
  -3.96500006E-02   6.13402864E-17
  -3.95999998E-02   6.33503551E-17
  -3.95499989E-02  -1.15960452E-16
  -3.95000018E-02  -7.49747772E-16
  -3.94500010E-02  -2.14815115E-15
  -3.94000001E-02  -4.42086358E-15
  -3.93499993E-02  -7.16103253E-15
  -3.92999984E-02  -9.25809298E-15
  -3.92500013E-02  -9.09241757E-15
  -3.92000005E-02  -5.21910362E-15
  -3.91499996E-02   2.67997371E-15
  -3.90999988E-02   1.31419550E-14
  -3.90500017E-02   2.32324027E-14
  -3.90000008E-02   3.01362701E-14
  -3.89500000E-02   3.35971756E-14
  -3.88999991E-02   3.79800053E-14
  -3.88499983E-02   5.24421442E-14
  -3.88000011E-02   8.83129765E-14
  -3.87500003E-02   1.54229683E-13
  -3.86999995E-02   2.51209535E-13
  -3.86499986E-02   3.70682705E-13
  -3.86000015E-02   4.97785623E-13
  -3.85500006E-02   6.19849170E-13
  -3.84999998E-02   7.36882940E-13
  -3.84499989E-02   8.68556475E-13
  -3.84000018E-02   1.05233931E-12
  -3.83500010E-02   1.33080244E-12
  -3.83000001E-02   1.73166082E-12
  -3.82499993E-02   2.24935045E-12
  -3.81999984E-02   2.83862322E-12
  -3.81500013E-02   3.42686990E-12
  -3.81000005E-02   3.94346708E-12
  -3.80499996E-02   4.35501028E-12
  -3.79999988E-02   4.68981147E-12
  -3.79500017E-02   5.03711873E-12
  -3.79000008E-02   5.51643670E-12
  -3.78500000E-02   6.22642389E-12
  -3.77999991E-02   7.19465112E-12
  -3.77499983E-02   8.35275252E-12
  -3.77000012E-02   9.55290274E-12
  -3.76500003E-02   1.06234396E-11
  -3.75999995E-02   1.14414684E-11
  -3.75499986E-02   1.19885933E-11
  -3.75000015E-02   1.23598892E-11
  -3.74500006E-02   1.27159125E-11
  -3.73999998E-02   1.31945678E-11
  -3.73499990E-02   1.38211465E-11
  -3.73000018E-02   1.44595507E-11
  -3.72500010E-02   1.48322760E-11
  -3.72000001E-02   1.46070499E-11
  -3.71499993E-02   1.35173487E-11
  -3.70999984E-02   1.14661761E-11
  -3.70500013E-02   8.56691627E-12
  -3.70000005E-02   5.10071369E-12
  -3.69499996E-02   1.40578283E-12
  -3.68999988E-02  -2.25639299E-12
  -3.68500017E-02  -5.80418222E-12
  -3.68000008E-02  -9.36975757E-12
  -3.67500000E-02  -1.32566276E-11
  -3.66999991E-02  -1.78439694E-11
  -3.66499983E-02  -2.34767605E-11
  -3.66000012E-02  -3.03778530E-11
  -3.65500003E-02  -3.86025760E-11
  -3.64999995E-02  -4.80394370E-11
  -3.64499986E-02  -5.84504598E-11
  -3.64000015E-02  -6.95419000E-11
  -3.63500006E-02  -8.10555859E-11
  -3.62999998E-02  -9.28643135E-11
  -3.62499990E-02  -1.05041142E-10
  -3.62000018E-02  -1.17858751E-10
  -3.61500010E-02  -1.31678238E-10
  -3.61000001E-02  -1.46721330E-10
  -3.60499993E-02  -1.62784591E-10
  -3.59999985E-02  -1.79022935E-10
  -3.59500013E-02  -1.93958349E-10
  -3.59000005E-02  -2.05816419E-10
  -3.58499996E-02  -2.13155674E-10
  -3.57999988E-02  -2.15578666E-10
  -3.57500017E-02  -2.14189028E-10
  -3.57000008E-02  -2.11473367E-10
  -3.56500000E-02  -2.10480938E-10
  -3.55999991E-02  -2.13495305E-10
  -3.55499983E-02  -2.20710505E-10
  -3.55000012E-02  -2.29564839E-10
  -3.54500003E-02  -2.35228004E-10
  -3.53999995E-02  -2.32280833E-10
  -3.53499986E-02  -2.17033710E-10
  -3.53000015E-02  -1.89475519E-10
  -3.52500007E-02  -1.53802610E-10
  -3.51999998E-02  -1.16964036E-10
  -3.51499990E-02  -8.55453555E-11
  -3.51000018E-02  -6.22224355E-11
  -3.50500010E-02  -4.34906312E-11
  -3.50000001E-02  -2.00783903E-11
  -3.49499993E-02   1.96161386E-11
  -3.48999985E-02   8.41809192E-11
  -3.48500013E-02   1.74231143E-10
  -3.48000005E-02   2.80377555E-10
  -3.47499996E-02   3.85687232E-10
  -3.46999988E-02   4.72253125E-10
  -3.46500017E-02   5.29378374E-10
  -3.46000008E-02   5.59642055E-10
  -3.45500000E-02   5.79511772E-10
  -3.44999991E-02   6.13302298E-10
  -3.44499983E-02   6.82360557E-10
  -3.44000012E-02   7.94016131E-10
  -3.43500003E-02   9.35674205E-10
  -3.42999995E-02   1.07773979E-09
  -3.42499986E-02   1.18528698E-09
  -3.42000015E-02   1.23407251E-09
  -3.41500007E-02   1.22368127E-09
  -3.40999998E-02   1.18091226E-09
  -3.40499990E-02   1.15027732E-09
  -3.40000018E-02   1.17434729E-09
  -3.39500010E-02   1.27206545E-09
  -3.39000002E-02   1.42532686E-09
  -3.38499993E-02   1.58156688E-09
  -3.37999985E-02   1.67338909E-09
  -3.37500013E-02   1.64812242E-09
  -3.37000005E-02   1.49439383E-09
  -3.36499996E-02   1.25250865E-09
  -3.35999988E-02   1.00150821E-09
  -3.35500017E-02   8.26122559E-10
  -3.35000008E-02   7.76967990E-10
  -3.34500000E-02   8.42286352E-10
  -3.33999991E-02   9.46256962E-10
  -3.33499983E-02   9.77952275E-10
  -3.33000012E-02   8.40707615E-10
  -3.32500003E-02   5.00589292E-10
  -3.31999995E-02   1.05138424E-11
  -3.31499986E-02  -5.04496833E-10
  -3.31000015E-02  -8.98434327E-10
  -3.30500007E-02  -1.07151565E-09
  -3.29999998E-02  -1.02311681E-09
  -3.29499990E-02  -8.63417948E-10
  -3.29000019E-02  -7.73474451E-10
  -3.28500010E-02  -9.26988708E-10
  -3.28000002E-02  -1.40685619E-09
  -3.27499993E-02  -2.15568829E-09
  -3.26999985E-02  -2.98751468E-09
  -3.26500013E-02  -3.66155795E-09
  -3.26000005E-02  -3.98944078E-09
  -3.25499997E-02  -3.92823951E-09
  -3.24999988E-02  -3.61363894E-09
  -3.24500017E-02  -3.31134653E-09
  -3.24000008E-02  -3.30169603E-09
  -3.23500000E-02  -3.74573172E-09
  -3.22999991E-02  -4.59473215E-09
  -3.22499983E-02  -5.59059643E-09
  -3.22000012E-02  -6.36593889E-09
  -3.21500003E-02  -6.60615695E-09
  -3.20999995E-02  -6.20258334E-09
  -3.20499986E-02  -5.32321875E-09
  -3.20000015E-02  -4.35962288E-09
  -3.19500007E-02  -3.76333986E-09
  -3.18999998E-02  -3.83882393E-09
  -3.18499990E-02  -4.58662575E-09
  -3.18000019E-02  -5.67540326E-09
  -3.17500010E-02  -6.56753896E-09
  -3.17000002E-02  -6.75278633E-09
  -3.16499993E-02  -5.98932681E-09
  -3.15999985E-02  -4.43932446E-09
  -3.15500014E-02  -2.62604205E-09
  -3.15000005E-02  -1.21754218E-09
  -3.14499997E-02  -7.24176219E-10
  -3.13999988E-02  -1.24510957E-09
  -3.13500017E-02  -2.38739539E-09
  -3.13000008E-02  -3.41006867E-09
  -3.12500000E-02  -3.54410878E-09
  -3.11999992E-02  -2.35228415E-09
  -3.11500002E-02   3.69572324E-11
  -3.10999993E-02   2.94158808E-09
  -3.10500003E-02   5.39814415E-09
  -3.09999995E-02   6.58699584E-09
  -3.09500005E-02   6.22358387E-09
  -3.08999997E-02   4.72989026E-09
  -3.08500007E-02   3.08910497E-09
  -3.07999998E-02   2.42749554E-09
  -3.07500008E-02   3.49859652E-09
  -3.07000000E-02   6.30357455E-09
  -3.06499992E-02   1.00352278E-08
  -3.06000002E-02   1.33953701E-08
  -3.05499993E-02   1.51642485E-08
  -3.05000003E-02   1.47740042E-08
  -3.04499995E-02   1.26184414E-08
  -3.04000005E-02   9.93558391E-09
  -3.03499997E-02   8.28750490E-09
  -3.03000007E-02   8.85175666E-09
  -3.02499998E-02   1.18416894E-08
  -3.02000009E-02   1.63348410E-08
  -3.01500000E-02   2.06175681E-08
  -3.00999992E-02   2.29208670E-08
  -3.00500002E-02   2.22317453E-08
  -2.99999993E-02   1.88081710E-08
  -2.99500003E-02   1.41389043E-08
  -2.98999995E-02   1.03306510E-08
  -2.98500005E-02   9.17009757E-09
  -2.97999997E-02   1.12753202E-08
  -2.97500007E-02   1.57359761E-08
  -2.96999998E-02   2.04399981E-08
  -2.96500009E-02   2.29780692E-08
  -2.96000000E-02   2.17423146E-08
  -2.95499992E-02   1.67217458E-08
  -2.95000002E-02   9.60710445E-09
  -2.94499993E-02   3.11439607E-09
  -2.94000003E-02  -2.07004178E-10
  -2.93499995E-02   8.38937697E-10
  -2.93000005E-02   5.46262990E-09
  -2.92499997E-02   1.11360912E-08
  -2.92000007E-02   1.46569468E-08
  -2.91499998E-02   1.35851002E-08
  -2.91000009E-02   7.41029016E-09
  -2.90500000E-02  -2.10344364E-09
  -2.89999992E-02  -1.16014416E-08
  -2.89500002E-02  -1.75920789E-08
  -2.88999993E-02  -1.80424973E-08
  -2.88500004E-02  -1.33885552E-08
  -2.87999995E-02  -6.46171072E-09
  -2.87500005E-02  -1.30814048E-09
  -2.86999997E-02  -1.38485534E-09
  -2.86500007E-02  -7.93072985E-09
  -2.85999998E-02  -1.92718890E-08
  -2.85500009E-02  -3.14306696E-08
  -2.85000000E-02  -3.98262650E-08
  -2.84499992E-02  -4.13417531E-08
  -2.84000002E-02  -3.58262007E-08
  -2.83499993E-02  -2.63127831E-08
  -2.83000004E-02  -1.77875119E-08
  -2.82499995E-02  -1.50007988E-08
  -2.82000005E-02  -2.02781507E-08
  -2.81499997E-02  -3.23338405E-08
  -2.81000007E-02  -4.66802561E-08
  -2.80499998E-02  -5.75223531E-08
  -2.80000009E-02  -6.03403407E-08
  -2.79500000E-02  -5.40102398E-08
  -2.78999992E-02  -4.14695087E-08
  -2.78500002E-02  -2.85550144E-08
  -2.77999993E-02  -2.14605311E-08
  -2.77500004E-02  -2.39137972E-08
  -2.76999995E-02  -3.53519347E-08
  -2.76500005E-02  -5.09754585E-08
  -2.75999997E-02  -6.37414814E-08
  -2.75500007E-02  -6.74726124E-08
  -2.74999999E-02  -5.97114962E-08
  -2.74500009E-02  -4.30062350E-08
  -2.74000000E-02  -2.39714275E-08
  -2.73499992E-02  -1.04561293E-08
  -2.73000002E-02  -8.02864708E-09
  -2.72499993E-02  -1.73511570E-08
  -2.72000004E-02  -3.36778925E-08
  -2.71499995E-02  -4.87941811E-08
  -2.71000005E-02  -5.46140093E-08
  -2.70499997E-02  -4.68660204E-08
  -2.70000007E-02  -2.71932326E-08
  -2.69499999E-02  -2.64620592E-09
  -2.69000009E-02   1.73047265E-08
  -2.68500000E-02   2.49780978E-08
  -2.67999992E-02   1.80449931E-08
  -2.67500002E-02   8.01211320E-10
  -2.66999993E-02  -1.75210726E-08
  -2.66500004E-02  -2.67511151E-08
  -2.65999995E-02  -2.03608863E-08
  -2.65500005E-02   1.42780665E-09
  -2.64999997E-02   3.14773594E-08
  -2.64500007E-02   5.86966813E-08
  -2.63999999E-02   7.29063174E-08
  -2.63500009E-02   6.94717812E-08
  -2.63000000E-02   5.15963841E-08
  -2.62499992E-02   2.91488007E-08
  -2.62000002E-02   1.44302135E-08
  -2.61499994E-02   1.66874745E-08
  -2.61000004E-02   3.78118195E-08
  -2.60499995E-02   7.12126962E-08
  -2.60000005E-02   1.04489040E-07
  -2.59499997E-02   1.24823032E-07
  -2.59000007E-02   1.24751793E-07
  -2.58499999E-02   1.05719401E-07
  -2.58000009E-02   7.77265896E-08
  -2.57500000E-02   5.51013493E-08
  -2.56999992E-02   5.01689392E-08
  -2.56500002E-02   6.76085961E-08
  -2.55999994E-02   1.02068221E-07
  -2.55500004E-02   1.40222667E-07
  -2.54999995E-02   1.66494445E-07
  -2.54500005E-02   1.69976815E-07
  -2.53999997E-02   1.49476733E-07
  -2.53500007E-02   1.14343145E-07
  -2.52999999E-02   8.05722777E-08
  -2.52500009E-02   6.37953690E-08
  -2.52000000E-02   7.22103835E-08
  -2.51499992E-02   1.02641494E-07
  -2.51000002E-02   1.41600069E-07
  -2.50499994E-02   1.71025661E-07
  -2.50000004E-02   1.76267420E-07
  -2.49499995E-02   1.52781126E-07
  -2.49000005E-02   1.08487590E-07
  -2.48499997E-02   6.05972517E-08
  -2.48000007E-02   2.81605850E-08
  -2.47499999E-02   2.35646880E-08
  -2.47000009E-02   4.67676315E-08
  -2.46500000E-02   8.49443396E-08
  -2.45999992E-02   1.17863614E-07
  -2.45500002E-02   1.26749498E-07
  -2.44999994E-02   1.02748615E-07
  -2.44500004E-02   5.11889020E-08
  -2.43999995E-02  -1.04042828E-08
  -2.43500005E-02  -5.98225682E-08
  -2.42999997E-02  -8.00040070E-08
  -2.42500007E-02  -6.68304239E-08
  -2.41999999E-02  -3.13343946E-08
  -2.41500009E-02   4.83276441E-09
  -2.41000000E-02   1.88285600E-08
  -2.40499992E-02  -3.14941961E-09
  -2.40000002E-02  -5.93953118E-08
  -2.39499994E-02  -1.32994884E-07
  -2.39000004E-02  -1.98946353E-07
  -2.38499995E-02  -2.35098369E-07
  -2.38000005E-02  -2.32108150E-07
  -2.37499997E-02  -1.97932650E-07
  -2.37000007E-02  -1.54694206E-07
  -2.36499999E-02  -1.29121233E-07
  -2.36000009E-02  -1.40674402E-07
  -2.35500000E-02  -1.92614479E-07
  -2.34999992E-02  -2.70087327E-07
  -2.34500002E-02  -3.46266006E-07
  -2.33999994E-02  -3.94008680E-07
  -2.33500004E-02  -3.97955489E-07
  -2.32999995E-02  -3.61660511E-07
  -2.32500006E-02  -3.06439460E-07
  -2.31999997E-02  -2.62236966E-07
  -2.31500007E-02  -2.54398145E-07
  -2.30999999E-02  -2.92159882E-07
  -2.30500009E-02  -3.64055012E-07
  -2.30000000E-02  -4.42459083E-07
  -2.29499992E-02  -4.95475263E-07
  -2.29000002E-02  -5.01025852E-07
  -2.28499994E-02  -4.56903990E-07
  -2.28000004E-02  -3.82194287E-07
  -2.27499995E-02  -3.09217029E-07
  -2.27000006E-02  -2.69369110E-07
  -2.26499997E-02  -2.79043206E-07
  -2.26000007E-02  -3.31921342E-07
  -2.25499999E-02  -4.01238367E-07
  -2.25000009E-02  -4.51239686E-07
  -2.24500000E-02  -4.52928674E-07
  -2.23999992E-02  -3.97165678E-07
  -2.23500002E-02  -2.99203066E-07
  -2.22999994E-02  -1.92430051E-07
  -2.22500004E-02  -1.13869760E-07
  -2.21999995E-02  -8.77196769E-08
  -2.21500006E-02  -1.14243434E-07
  -2.20999997E-02  -1.69095301E-07
  -2.20500007E-02  -2.13617767E-07
  -2.19999999E-02  -2.11761829E-07
  -2.19500009E-02  -1.46223115E-07
  -2.19000001E-02  -2.65728985E-08
  -2.18499992E-02   1.14418725E-07
  -2.18000002E-02   2.34882535E-07
  -2.17499994E-02   3.02302482E-07
  -2.17000004E-02   3.08175061E-07
  -2.16499995E-02   2.72250873E-07
  -2.16000006E-02   2.34244254E-07
  -2.15499997E-02   2.36449395E-07
  -2.15000007E-02   3.04833264E-07
  -2.14499999E-02   4.37015331E-07
  -2.14000009E-02   6.02643581E-07
  -2.13500001E-02   7.56252575E-07
  -2.12999992E-02   8.57123609E-07
  -2.12500002E-02   8.87423084E-07
  -2.11999994E-02   8.60490502E-07
  -2.11500004E-02   8.15381611E-07
  -2.10999995E-02   7.99828626E-07
  -2.10500006E-02   8.48992499E-07
  -2.09999997E-02   9.69405505E-07
  -2.09500007E-02   1.13536612E-06
  -2.08999999E-02   1.29963109E-06
  -2.08500009E-02   1.41390319E-06
  -2.08000001E-02   1.45015906E-06
  -2.07499992E-02   1.41331452E-06
  -2.07000002E-02   1.33942115E-06
  -2.06499994E-02   1.27993417E-06
  -2.06000004E-02   1.27881844E-06
  -2.05499995E-02   1.35258165E-06
  -2.05000006E-02   1.48219533E-06
  -2.04499997E-02   1.62072206E-06
  -2.04000007E-02   1.71352769E-06
  -2.03499999E-02   1.72228192E-06
  -2.03000009E-02   1.64211417E-06
  -2.02500001E-02   1.50415644E-06
  -2.01999992E-02   1.36209439E-06
  -2.01500002E-02   1.26845657E-06
  -2.00999994E-02   1.25103804E-06
  -2.00500004E-02   1.29996943E-06
  -1.99999996E-02   1.37136408E-06
  -1.99500006E-02   1.40617465E-06
  -1.98999997E-02   1.35609071E-06
  -1.98500007E-02   1.20504149E-06
  -1.97999999E-02   9.76656452E-07
  -1.97500009E-02   7.24150595E-07
  -1.97000001E-02   5.06878052E-07
  -1.96499992E-02   3.63817975E-07
  -1.96000002E-02   2.95761936E-07
  -1.95499994E-02   2.64270795E-07
  -1.95000004E-02   2.08106329E-07
  -1.94499996E-02   7.00592935E-08
  -1.94000006E-02  -1.77629573E-07
  -1.93499997E-02  -5.20592437E-07
  -1.93000007E-02  -9.08218396E-07
  -1.92499999E-02  -1.27572639E-06
  -1.92000009E-02  -1.57280510E-06
  -1.91500001E-02  -1.78614368E-06
  -1.90999992E-02  -1.94575887E-06
  -1.90500002E-02  -2.11210954E-06
  -1.89999994E-02  -2.34949857E-06
  -1.89500004E-02  -2.69745442E-06
  -1.88999996E-02  -3.15280408E-06
  -1.88500006E-02  -3.67054349E-06
  -1.87999997E-02  -4.18332593E-06
  -1.87500007E-02  -4.63110155E-06
  -1.86999999E-02  -4.98781719E-06
  -1.86500009E-02  -5.27326665E-06
  -1.86000001E-02  -5.54466214E-06
  -1.85499992E-02  -5.87145905E-06
  -1.85000002E-02  -6.30446857E-06
  -1.84499994E-02  -6.85293799E-06
  -1.84000004E-02  -7.47986132E-06
  -1.83499996E-02  -8.11778227E-06
  -1.83000006E-02  -8.69824635E-06
  -1.82499997E-02  -9.18194382E-06
  -1.82000007E-02  -9.57614247E-06
  -1.81499999E-02  -9.93158119E-06
  -1.81000009E-02  -1.03200191E-05
  -1.80500001E-02  -1.08023023E-05
  -1.79999992E-02  -1.14010336E-05
  -1.79500002E-02  -1.20900449E-05
  -1.78999994E-02  -1.28054608E-05
  -1.78500004E-02  -1.34735965E-05
  -1.77999996E-02  -1.40434022E-05
  -1.77500006E-02  -1.45090753E-05
  -1.76999997E-02  -1.49127427E-05
  -1.76500008E-02  -1.53259134E-05
  -1.75999999E-02  -1.58177972E-05
  -1.75500009E-02  -1.64244120E-05
  -1.75000001E-02  -1.71322954E-05
  -1.74499992E-02  -1.78840401E-05
  -1.74000002E-02  -1.86033358E-05
  -1.73499994E-02  -1.92284733E-05
  -1.73000004E-02  -1.97395366E-05
  -1.72499996E-02  -2.01671774E-05
  -1.72000006E-02  -2.05790056E-05
  -1.71499997E-02  -2.10496455E-05
  -1.71000008E-02  -2.16275694E-05
  -1.70499999E-02  -2.23134648E-05
  -1.70000009E-02  -2.30597652E-05
  -1.69500001E-02  -2.37915756E-05
  -1.68999992E-02  -2.44397943E-05
  -1.68500002E-02  -2.49717832E-05
  -1.67999994E-02  -2.54060014E-05
  -1.67500004E-02  -2.58040764E-05
  -1.66999996E-02  -2.62438043E-05
  -1.66500006E-02  -2.67850246E-05
  -1.65999997E-02  -2.74433405E-05
  -1.65500008E-02  -2.81834564E-05
  -1.64999999E-02  -2.89349719E-05
  -1.64500009E-02  -2.96237140E-05
  -1.64000001E-02  -3.02047883E-05
  -1.63499992E-02  -3.06825787E-05
  -1.63000003E-02  -3.11090989E-05
  -1.62499994E-02  -3.15613579E-05
  -1.62000004E-02  -3.21076805E-05
  -1.61499996E-02  -3.27780217E-05
  -1.61000006E-02  -3.35512486E-05
  -1.60499997E-02  -3.43651045E-05
  -1.60000008E-02  -3.51443487E-05
  -1.59499999E-02  -3.58345860E-05
  -1.59000009E-02  -3.64267144E-05
  -1.58500001E-02  -3.69615154E-05
  -1.57999992E-02  -3.75123163E-05
  -1.57500003E-02  -3.81531754E-05
  -1.56999994E-02  -3.89270535E-05
  -1.56500004E-02  -3.98278025E-05
  -1.55999996E-02  -4.08038468E-05
  -1.55499997E-02  -4.17816773E-05
  -1.54999997E-02  -4.26989463E-05
  -1.54499998E-02  -4.35325310E-05
  -1.53999999E-02  -4.43091594E-05
  -1.53500000E-02  -4.50939733E-05
  -1.53000001E-02  -4.59623589E-05
  -1.52500002E-02  -4.69675033E-05
  -1.52000003E-02  -4.81180032E-05
  -1.51500003E-02  -4.93752086E-05
  -1.51000004E-02  -5.06712386E-05
  -1.50499996E-02  -5.19399728E-05
  -1.49999997E-02  -5.31468831E-05
  -1.49499997E-02  -5.43048009E-05
  -1.48999998E-02  -5.54688522E-05
  -1.48499999E-02  -5.67127245E-05
  -1.48000000E-02  -5.80972155E-05
  -1.47500001E-02  -5.96446116E-05
  -1.47000002E-02  -6.13299999E-05
  -1.46500003E-02  -6.30936775E-05
  -1.46000003E-02  -6.48682908E-05
  -1.45500004E-02  -6.66090273E-05
  -1.44999996E-02  -6.83136968E-05
  -1.44499997E-02  -7.00237724E-05
  -1.43999998E-02  -7.18065712E-05
  -1.43499998E-02  -7.37260780E-05
  -1.42999999E-02  -7.58156602E-05
  -1.42500000E-02  -7.80647024E-05
  -1.42000001E-02  -8.04246010E-05
  -1.41500002E-02  -8.28308330E-05
  -1.41000003E-02  -8.52321973E-05
  -1.40500003E-02  -8.76136692E-05
  -1.40000004E-02  -9.00028608E-05
  -1.39499996E-02  -9.24583146E-05
  -1.38999997E-02  -9.50441899E-05
  -1.38499998E-02  -9.78032404E-05
  -1.37999998E-02  -1.00738915E-04
  -1.37499999E-02  -1.03815284E-04
  -1.37000000E-02  -1.06974025E-04
  -1.36500001E-02  -1.10160414E-04
  -1.36000002E-02  -1.13347647E-04
  -1.35500003E-02  -1.16548268E-04
  -1.35000004E-02  -1.19808479E-04
  -1.34500004E-02  -1.23187812E-04
  -1.33999996E-02  -1.26733663E-04
  -1.33499997E-02  -1.30461762E-04
  -1.32999998E-02  -1.34350412E-04
  -1.32499998E-02  -1.38351155E-04
  -1.31999999E-02  -1.42410674E-04
  -1.31500000E-02  -1.46494756E-04
  -1.31000001E-02  -1.50603140E-04
  -1.30500002E-02  -1.54769295E-04
  -1.30000003E-02  -1.59046191E-04
  -1.29500004E-02  -1.63483710E-04
  -1.29000004E-02  -1.68107974E-04
  -1.28499996E-02  -1.72911474E-04
  -1.27999997E-02  -1.77857713E-04
  -1.27499998E-02  -1.82898293E-04
  -1.26999998E-02  -1.87994490E-04
  -1.26499999E-02  -1.93133790E-04
  -1.26000000E-02  -1.98335474E-04
  -1.25500001E-02  -2.03641626E-04
  -1.25000002E-02  -2.09099715E-04
  -1.24500003E-02  -2.14743355E-04
  -1.24000004E-02  -2.20578368E-04
  -1.23500004E-02  -2.26582153E-04
  -1.22999996E-02  -2.32715043E-04
  -1.22499997E-02  -2.38937733E-04
  -1.21999998E-02  -2.45229021E-04
  -1.21499998E-02  -2.51595542E-04
  -1.20999999E-02  -2.58068787E-04
  -1.20500000E-02  -2.64692178E-04
  -1.20000001E-02  -2.71504046E-04
  -1.19500002E-02  -2.78523308E-04
  -1.19000003E-02  -2.85743648E-04
  -1.18500004E-02  -2.93138146E-04
  -1.18000004E-02  -3.00672051E-04
  -1.17499996E-02  -3.08319228E-04
  -1.16999997E-02  -3.16074729E-04
  -1.16499998E-02  -3.23956192E-04
  -1.15999999E-02  -3.31997726E-04
  -1.15499999E-02  -3.40236671E-04
  -1.15000000E-02  -3.48698813E-04
  -1.14500001E-02  -3.57390993E-04
  -1.14000002E-02  -3.66299326E-04
  -1.13500003E-02  -3.75396281E-04
  -1.13000004E-02  -3.84655286E-04
  -1.12500004E-02  -3.94062430E-04
  -1.11999996E-02  -4.03624057E-04
  -1.11499997E-02  -4.13365284E-04
  -1.10999998E-02  -4.23321937E-04
  -1.10499999E-02  -4.33528796E-04
  -1.09999999E-02  -4.44007543E-04
  -1.09500000E-02  -4.54761030E-04
  -1.09000001E-02  -4.65774705E-04
  -1.08500002E-02  -4.77024354E-04
  -1.08000003E-02  -4.88487829E-04
  -1.07500004E-02  -5.00156137E-04
  -1.07000005E-02  -5.12038416E-04
  -1.06499996E-02  -5.24159172E-04
  -1.05999997E-02  -5.36551233E-04
  -1.05499998E-02  -5.49245044E-04
  -1.04999999E-02  -5.62256726E-04
  -1.04499999E-02  -5.75584418E-04
  -1.04000000E-02  -5.89210831E-04
  -1.03500001E-02  -6.03111985E-04
  -1.03000002E-02  -6.17270241E-04
  -1.02500003E-02  -6.31684496E-04
  -1.02000004E-02  -6.46373257E-04
  -1.01500005E-02  -6.61370752E-04
  -1.00999996E-02  -6.76715979E-04
  -1.00499997E-02  -6.92439673E-04
  -9.99999978E-03  -7.08554697E-04
  -9.94999986E-03  -7.25054357E-04
  -9.89999995E-03  -7.41915836E-04
  -9.85000003E-03  -7.59112823E-04
  -9.80000012E-03  -7.76628091E-04
  -9.75000020E-03  -7.94464024E-04
  -9.70000029E-03  -8.12646176E-04
  -9.65000037E-03  -8.31213547E-04
  -9.60000046E-03  -8.50206416E-04
  -9.54999961E-03  -8.69651907E-04
  -9.49999969E-03  -8.89552815E-04
  -9.44999978E-03  -9.09888302E-04
  -9.39999986E-03  -9.30622977E-04
  -9.34999995E-03  -9.51724884E-04
  -9.30000003E-03  -9.73183662E-04
  -9.25000012E-03  -9.95018054E-04
  -9.20000020E-03  -1.01727271E-03
  -9.15000029E-03  -1.04000221E-03
  -9.10000037E-03  -1.06325140E-03
  -9.05000046E-03  -1.08703971E-03
  -8.99999961E-03  -1.11135445E-03
  -8.94999970E-03  -1.13616162E-03
  -8.89999978E-03  -1.16142188E-03
  -8.84999987E-03  -1.18711090E-03
  -8.79999995E-03  -1.21323764E-03
  -8.75000004E-03  -1.23984169E-03
  -8.70000012E-03  -1.26697950E-03
  -8.65000021E-03  -1.29470450E-03
  -8.60000029E-03  -1.32304500E-03
  -8.55000038E-03  -1.35199563E-03
  -8.50000046E-03  -1.38151937E-03
  -8.44999962E-03  -1.41156476E-03
  -8.39999970E-03  -1.44209177E-03
  -8.34999979E-03  -1.47309341E-03
  -8.29999987E-03  -1.50460470E-03
  -8.24999996E-03  -1.53668574E-03
  -8.20000004E-03  -1.56940217E-03
  -8.15000013E-03  -1.60280289E-03
  -8.10000021E-03  -1.63689780E-03
  -8.05000030E-03  -1.67165592E-03
  -8.00000038E-03  -1.70702406E-03
  -7.95000046E-03  -1.74295297E-03
  -7.89999962E-03  -1.77942473E-03
  -7.84999970E-03  -1.81646855E-03
  -7.79999979E-03  -1.85415114E-03
  -7.74999987E-03  -1.89255131E-03
  -7.69999996E-03  -1.93173124E-03
  -7.65000004E-03  -1.97171350E-03
  -7.60000013E-03  -2.01246981E-03
  -7.55000021E-03  -2.05393718E-03
  -7.49999983E-03  -2.09604902E-03
  -7.44999992E-03  -2.13876902E-03
  -7.40000000E-03  -2.18210951E-03
  -7.35000009E-03  -2.22613453E-03
  -7.30000017E-03  -2.27094023E-03
  -7.24999979E-03  -2.31660460E-03
  -7.19999988E-03  -2.36316235E-03
  -7.14999996E-03  -2.41059158E-03
  -7.10000005E-03  -2.45882291E-03
  -7.05000013E-03  -2.50778045E-03
  -7.00000022E-03  -2.55741389E-03
  -6.94999984E-03  -2.60772393E-03
  -6.89999992E-03  -2.65877764E-03
  -6.85000001E-03  -2.71068071E-03
  -6.80000009E-03  -2.76353513E-03
  -6.75000018E-03  -2.81739072E-03
  -6.69999979E-03  -2.87223468E-03
  -6.64999988E-03  -2.92800204E-03
  -6.59999996E-03  -2.98460247E-03
  -6.55000005E-03  -3.04196915E-03
  -6.50000013E-03  -3.10009602E-03
  -6.45000022E-03  -3.15904105E-03
  -6.39999984E-03  -3.21891461E-03
  -6.34999992E-03  -3.27982963E-03
  -6.30000001E-03  -3.34185106E-03
  -6.25000009E-03  -3.40497773E-03
  -6.20000018E-03  -3.46913398E-03
  -6.14999980E-03  -3.53421085E-03
  -6.09999988E-03  -3.60012287E-03
  -6.04999997E-03  -3.66685120E-03
  -6.00000005E-03  -3.73445614E-03
  -5.95000014E-03  -3.80304060E-03
  -5.90000022E-03  -3.87272239E-03
  -5.84999984E-03  -3.94358905E-03
  -5.79999993E-03  -4.01564594E-03
  -5.75000001E-03  -4.08882974E-03
  -5.70000010E-03  -4.16304264E-03
  -5.65000018E-03  -4.23818454E-03
  -5.59999980E-03  -4.31419769E-03
  -5.54999989E-03  -4.39112401E-03
  -5.49999997E-03  -4.46908735E-03
  -5.45000006E-03  -4.54822928E-03
  -5.40000014E-03  -4.62864107E-03
  -5.35000023E-03  -4.71034460E-03
  -5.29999984E-03  -4.79327515E-03
  -5.24999993E-03  -4.87731257E-03
  -5.20000001E-03  -4.96234233E-03
  -5.15000010E-03  -5.04830945E-03
  -5.10000018E-03  -5.13524283E-03
  -5.04999980E-03  -5.22323651E-03
  -4.99999989E-03  -5.31243114E-03
  -4.94999997E-03  -5.40294172E-03
  -4.90000006E-03  -5.49479853E-03
  -4.85000014E-03  -5.58794383E-03
  -4.80000023E-03  -5.68225142E-03
  -4.74999985E-03  -5.77757461E-03
  -4.69999993E-03  -5.87384123E-03
  -4.65000002E-03  -5.97108435E-03
  -4.60000010E-03  -6.06940640E-03
  -4.55000019E-03  -6.16894849E-03
  -4.49999981E-03  -6.26983400E-03
  -4.44999989E-03  -6.37212116E-03
  -4.39999998E-03  -6.47575874E-03
  -4.35000006E-03  -6.58061448E-03
  -4.30000015E-03  -6.68654265E-03
  -4.25000023E-03  -6.79343473E-03
  -4.19999985E-03  -6.90128375E-03
  -4.14999994E-03  -7.01019773E-03
  -4.10000002E-03  -7.12033128E-03
  -4.05000011E-03  -7.23183388E-03
  -4.00000019E-03  -7.34478049E-03
  -3.94999981E-03  -7.45912362E-03
  -3.89999989E-03  -7.57471658E-03
  -3.84999998E-03  -7.69135775E-03
  -3.80000006E-03  -7.80890789E-03
  -3.74999992E-03  -7.92734511E-03
  -3.70000000E-03  -8.04676116E-03
  -3.65000009E-03  -8.16733949E-03
  -3.59999994E-03  -8.28926265E-03
  -3.55000002E-03  -8.41261819E-03
  -3.50000011E-03  -8.53736512E-03
  -3.44999996E-03  -8.66336189E-03
  -3.40000005E-03  -8.79041199E-03
  -3.34999990E-03  -8.91835429E-03
  -3.29999998E-03  -9.04712174E-03
  -3.25000007E-03  -9.17677209E-03
  -3.19999992E-03  -9.30750091E-03
  -3.15000000E-03  -9.43952054E-03
  -3.10000009E-03  -9.57297720E-03
  -3.04999994E-03  -9.70785692E-03
  -3.00000003E-03  -9.84399579E-03
  -2.95000011E-03  -9.98114981E-03
  -2.89999996E-03  -1.01190852E-02
  -2.85000005E-03  -1.02577107E-02
  -2.79999990E-03  -1.03970747E-02
  -2.74999999E-03  -1.05373710E-02
  -2.70000007E-03  -1.06788334E-02
  -2.64999992E-03  -1.08216377E-02
  -2.60000001E-03  -1.09658055E-02
  -2.55000009E-03  -1.11111803E-02
  -2.49999994E-03  -1.12575339E-02
  -2.45000003E-03  -1.14046168E-02
  -2.40000011E-03  -1.15522454E-02
  -2.34999997E-03  -1.17003955E-02
  -2.30000005E-03  -1.18492441E-02
  -2.24999990E-03  -1.19990939E-02
  -2.19999999E-03  -1.21501768E-02
  -2.15000007E-03  -1.23025570E-02
  -2.09999993E-03  -1.24561386E-02
  -2.05000001E-03  -1.26106301E-02
  -2.00000009E-03  -1.27657047E-02
  -1.94999995E-03  -1.29211275E-02
  -1.90000003E-03  -1.30768158E-02
  -1.85000000E-03  -1.32329213E-02
  -1.79999997E-03  -1.33897793E-02
  -1.75000005E-03  -1.35476962E-02
  -1.70000002E-03  -1.37067931E-02
  -1.64999999E-03  -1.38669731E-02
  -1.59999996E-03  -1.40279233E-02
  -1.55000004E-03  -1.41892424E-02
  -1.50000001E-03  -1.43506257E-02
  -1.44999998E-03  -1.45119531E-02
  -1.39999995E-03  -1.46733690E-02
  -1.35000004E-03  -1.48352403E-02
  -1.30000000E-03  -1.49979191E-02
  -1.24999997E-03  -1.51615767E-02
  -1.20000006E-03  -1.53261349E-02
  -1.15000003E-03  -1.54912677E-02
  -1.09999999E-03  -1.56564917E-02
  -1.04999996E-03  -1.58213954E-02
  -1.00000005E-03  -1.59857832E-02
  -9.50000016E-04  -1.61498338E-02
  -8.99999985E-04  -1.63139757E-02
  -8.50000011E-04  -1.64785758E-02
  -7.99999980E-04  -1.66439060E-02
  -7.50000007E-04  -1.68099310E-02
  -6.99999975E-04  -1.69762988E-02
  -6.50000002E-04  -1.71424672E-02
  -6.00000028E-04  -1.73079055E-02
  -5.49999997E-04  -1.74723212E-02
  -5.00000024E-04  -1.76358651E-02
  -4.49999992E-04  -1.77989621E-02
  -3.99999990E-04  -1.79620329E-02
  -3.49999988E-04  -1.81254074E-02
  -3.00000014E-04  -1.82891320E-02
  -2.50000012E-04  -1.84528586E-02
  -1.99999995E-04  -1.86159983E-02
  -1.50000007E-04  -1.87779963E-02
  -9.99999975E-05  -1.89384855E-02
  -4.99999987E-05  -1.90973766E-02
   0.00000000      -1.92550011E-02
   4.99999987E-05  -1.94119830E-02
   9.99999975E-05  -1.95687413E-02
   1.50000007E-04  -1.97253749E-02
   1.99999995E-04  -1.98816285E-02
   2.50000012E-04  -2.00369004E-02
   3.00000014E-04  -2.01905370E-02
   3.49999988E-04  -2.03420464E-02
   3.99999990E-04  -2.04913728E-02
   4.49999992E-04  -2.06388514E-02
   5.00000024E-04  -2.07849126E-02
   5.49999997E-04  -2.09300108E-02
   6.00000028E-04  -2.10743565E-02
   6.50000002E-04  -2.12177243E-02
   6.99999975E-04  -2.13595834E-02
   7.50000007E-04  -2.14992613E-02
   7.99999980E-04  -2.16361061E-02
   8.50000011E-04  -2.17698682E-02
   8.99999985E-04  -2.19007917E-02
   9.50000016E-04  -2.20294148E-02
   1.00000005E-03  -2.21563280E-02
   1.04999996E-03  -2.22818181E-02
   1.09999999E-03  -2.24057529E-02
   1.15000003E-03  -2.25276183E-02
   1.20000006E-03  -2.26466376E-02
   1.24999997E-03  -2.27620974E-02
   1.30000000E-03  -2.28736717E-02
   1.35000004E-03  -2.29814332E-02
   1.39999995E-03  -2.30859183E-02
   1.44999998E-03  -2.31877528E-02
   1.50000001E-03  -2.32872795E-02
   1.55000004E-03  -2.33845767E-02
   1.59999996E-03  -2.34791748E-02
   1.64999999E-03  -2.35701986E-02
   1.70000002E-03  -2.36567818E-02
   1.75000005E-03  -2.37384550E-02
   1.79999997E-03  -2.38152966E-02
   1.85000000E-03  -2.38877665E-02
   1.90000003E-03  -2.39564758E-02
   1.94999995E-03  -2.40220279E-02
   2.00000009E-03  -2.40846127E-02
   2.05000001E-03  -2.41437238E-02
   2.09999993E-03  -2.41985116E-02
   2.15000007E-03  -2.42480487E-02
   2.19999999E-03  -2.42915526E-02
   2.24999990E-03  -2.43288744E-02
   2.30000005E-03  -2.43604891E-02
   2.34999997E-03  -2.43873037E-02
   2.40000011E-03  -2.44100038E-02
   2.45000003E-03  -2.44287737E-02
   2.49999994E-03  -2.44433321E-02
   2.55000009E-03  -2.44527254E-02
   2.60000001E-03  -2.44558472E-02
   2.64999992E-03  -2.44519040E-02
   2.70000007E-03  -2.44407002E-02
   2.74999999E-03  -2.44225543E-02
   2.79999990E-03  -2.43982021E-02