  -3.99999991E-02   0.00000000    
  -3.99499983E-02   0.00000000    
  -3.99000011E-02  -8.56605368E-14
  -3.98500003E-02  -7.14378697E-13
  -3.97999994E-02  -3.14889651E-12
  -3.97499986E-02  -9.68574092E-12
  -3.97000015E-02  -2.31767210E-11
  -3.96500006E-02  -4.56863089E-11
  -3.95999998E-02  -7.68121886E-11
  -3.95499989E-02  -1.12752155E-10
  -3.95000018E-02  -1.47172219E-10
  -3.94500010E-02  -1.74168735E-10
  -3.94000001E-02  -1.92382249E-10
  -3.93499993E-02  -2.08215195E-10
  -3.92999984E-02  -2.35866465E-10
  -3.92500013E-02  -2.93014307E-10
  -3.92000005E-02  -3.93239968E-10
  -3.91499996E-02  -5.38579847E-10
  -3.90999988E-02  -7.16392168E-10
  -3.90500017E-02  -9.03098263E-10
  -3.90000008E-02  -1.07388787E-09
  -3.89500000E-02  -1.21410382E-09
  -3.88999991E-02  -1.32678701E-09
  -3.88499983E-02  -1.43254020E-09
  -3.88000011E-02  -1.56145619E-09
  -3.87500003E-02  -1.74045911E-09
  -3.86999995E-02  -1.98139172E-09
  -3.86499986E-02  -2.27489694E-09
  -3.86000015E-02  -2.59275978E-09
  -3.85500006E-02  -2.89774782E-09
  -3.84999998E-02  -3.15657434E-09
  -3.84499989E-02  -3.35023587E-09
  -3.84000018E-02  -3.47772300E-09
  -3.83500010E-02  -3.55312135E-09
  -3.83000001E-02  -3.59959285E-09
  -3.82499993E-02  -3.64404151E-09
  -3.81999984E-02  -3.71331743E-09
  -3.81500013E-02  -3.82947407E-09
  -3.81000005E-02  -4.00136591E-09
  -3.80499996E-02  -4.21354374E-09
  -3.79999988E-02  -4.41821824E-09
  -3.79500017E-02  -4.53798465E-09
  -3.79000008E-02  -4.48379422E-09
  -3.78500000E-02  -4.18548218E-09
  -3.77999991E-02  -3.62426578E-09
  -3.77499983E-02  -2.85166646E-09
  -3.77000012E-02  -1.98066941E-09
  -3.76500003E-02  -1.14434218E-09
  -3.75999995E-02  -4.33243469E-10
  -3.75499986E-02   1.60861199E-10
  -3.75000015E-02   7.61827768E-10
  -3.74500006E-02   1.56601632E-09
  -3.73999998E-02   2.74774381E-09
  -3.73499990E-02   4.35343495E-09
  -3.73000018E-02   6.24003782E-09
  -3.72500010E-02   8.10066680E-09
  -3.72000001E-02   9.58271240E-09
  -3.71499993E-02   1.04569011E-08
  -3.70999984E-02   1.07619575E-08
  -3.70500013E-02   1.08467280E-08
  -3.70000005E-02   1.12664758E-08
  -3.69499996E-02   1.25538868E-08
  -3.68999988E-02   1.49529651E-08
  -3.68500017E-02   1.82413515E-08
  -3.68000008E-02   2.17464091E-08
  -3.67500000E-02   2.45810554E-08
  -3.66999991E-02   2.60181885E-08
  -3.66499983E-02   2.58406203E-08
  -3.66000012E-02   2.44929854E-08
  -3.65500003E-02   2.29367352E-08
  -3.64999995E-02   2.22405880E-08
  -3.64499986E-02   2.30697221E-08
  -3.64000015E-02   2.53058072E-08
  -3.63500006E-02   2.79976575E-08
  -3.62999998E-02   2.97102609E-08
  -3.62499990E-02   2.91561850E-08
  -3.62000018E-02   2.58393165E-08
  -3.61500010E-02   2.03982609E-08
  -3.61000001E-02   1.44442511E-08
  -3.60499993E-02   9.91202498E-09
  -3.59999985E-02   8.18231793E-09
  -3.59500013E-02   9.37265376E-09
  -3.59000005E-02   1.21516681E-08
  -3.58499996E-02   1.42171812E-08
  -3.57999988E-02   1.32777833E-08
  -3.57500017E-02   8.12504464E-09
  -3.57000008E-02  -7.00132230E-10
  -3.56500000E-02  -1.10022613E-08
  -3.55999991E-02  -1.98173709E-08
  -3.55499983E-02  -2.47449883E-08
  -3.55000012E-02  -2.51306354E-08
  -3.54500003E-02  -2.25170087E-08
  -3.53999995E-02  -2.00805701E-08
  -3.53499986E-02  -2.12339710E-08
  -3.53000015E-02  -2.79899268E-08
  -3.52500007E-02  -3.98444229E-08
  -3.51999998E-02  -5.37521210E-08
  -3.51499990E-02  -6.52990479E-08
  -3.51000018E-02  -7.06246155E-08
  -3.50500010E-02  -6.82563979E-08
  -3.50000001E-02  -5.99890129E-08
  -3.49499993E-02  -5.03118187E-08
  -3.48999985E-02  -4.45314292E-08
  -3.48500013E-02  -4.63652263E-08
  -3.48000005E-02  -5.60968019E-08
  -3.47499996E-02  -7.02030221E-08
  -3.46999988E-02  -8.27338837E-08
  -3.46500017E-02  -8.79207320E-08
  -3.46000008E-02  -8.28781950E-08
  -3.45500000E-02  -6.91477311E-08
  -3.44999991E-02  -5.22871844E-08
  -3.44499983E-02  -3.95640853E-08
  -3.44000012E-02  -3.66926223E-08
  -3.43500003E-02  -4.50639170E-08
  -3.42999995E-02  -6.07927433E-08
  -3.42499986E-02  -7.61501440E-08
  -3.42000015E-02  -8.28752391E-08
  -3.41500007E-02  -7.59463106E-08
  -3.40999998E-02  -5.60864493E-08
  -3.40499990E-02  -2.97669196E-08
  -3.40000018E-02  -6.56619603E-09
  -3.39500010E-02   5.03925568E-09
  -3.39000002E-02   1.59595526E-09
  -3.38499993E-02  -1.35147342E-08
  -3.37999985E-02  -3.13206812E-08
  -3.37500013E-02  -4.11496863E-08
  -3.37000005E-02  -3.55131959E-08
  -3.36499996E-02  -1.37744260E-08
  -3.35999988E-02   1.71712760E-08
  -3.35500017E-02   4.56867681E-08
  -3.35000008E-02   6.05473289E-08
  -3.34500000E-02   5.61906504E-08
  -3.33999991E-02   3.56326701E-08
  -3.33499983E-02   9.58070157E-09
  -3.33000012E-02  -8.03944644E-09
  -3.32500003E-02  -6.26533536E-09
  -3.31999995E-02   1.77606907E-08
  -3.31499986E-02   5.70945389E-08
  -3.31000015E-02   9.76824595E-08
  -3.30500007E-02   1.24422968E-07
  -3.29999998E-02   1.27983327E-07
  -3.29499990E-02   1.09280506E-07
  -3.29000019E-02   7.94624242E-08
  -3.28500010E-02   5.51993473E-08
  -3.28000002E-02   5.12471949E-08
  -3.27499993E-02   7.35826688E-08
  -3.26999985E-02   1.16281967E-07
  -3.26500013E-02   1.63724224E-07
  -3.26000005E-02   1.97327552E-07
  -3.25499997E-02   2.03927144E-07
  -3.24999988E-02   1.82040523E-07
  -3.24500017E-02   1.43073237E-07
  -3.24000008E-02   1.06702352E-07
  -3.23500000E-02   9.22980306E-08
  -3.22999991E-02   1.10129520E-07
  -3.22499983E-02   1.56352513E-07
  -3.22000012E-02   2.14202373E-07
  -3.21500003E-02   2.61072984E-07
  -3.20999995E-02   2.78464938E-07
  -3.20499986E-02   2.60380006E-07
  -3.20000015E-02   2.16306148E-07
  -3.19500007E-02   1.67271608E-07
  -3.18999998E-02   1.36544756E-07
  -3.18499990E-02   1.39033276E-07
  -3.18000019E-02   1.74156739E-07
  -3.17500010E-02   2.25548618E-07
  -3.17000002E-02   2.67951378E-07
  -3.16499993E-02   2.78406048E-07
  -3.15999985E-02   2.46782832E-07
  -3.15500014E-02   1.80835713E-07
  -3.15000005E-02   1.03305872E-07
  -3.14499997E-02   4.21404600E-08
  -3.13999988E-02   1.80514164E-08
  -3.13500017E-02   3.49660603E-08
  -3.13000008E-02   7.77701317E-08
  -3.12500000E-02   1.18569822E-07
  -3.11999992E-02   1.28888558E-07
  -3.11500002E-02   9.24635088E-08
  -3.10999993E-02   1.28861046E-08
  -3.10500003E-02  -8.75040271E-08
  -3.09999995E-02  -1.77209088E-07
  -3.09500005E-02  -2.29540433E-07
  -3.08999997E-02  -2.34762595E-07
  -3.08500007E-02  -2.04877566E-07
  -3.07999998E-02  -1.68701604E-07
  -3.07500008E-02  -1.59213627E-07
  -3.07000000E-02  -1.98690557E-07
  -3.06499992E-02  -2.88268211E-07
  -3.06000002E-02  -4.06731090E-07
  -3.05499993E-02  -5.19294474E-07
  -3.05000003E-02  -5.92671768E-07
  -3.04499995E-02  -6.09815118E-07
  -3.04000005E-02  -5.77712967E-07
  -3.03499997E-02  -5.24596373E-07
  -3.03000007E-02  -4.87590341E-07
  -3.02499998E-02  -4.96160112E-07
  -3.02000009E-02  -5.58704301E-07
  -3.01500000E-02  -6.58373949E-07
  -3.00999992E-02  -7.60162266E-07
  -3.00500002E-02  -8.26279575E-07
  -2.99999993E-02  -8.33055310E-07
  -2.99500003E-02  -7.81804431E-07
  -2.98999995E-02  -6.98669453E-07
  -2.98500005E-02  -6.23306221E-07
  -2.97999997E-02  -5.91280241E-07
  -2.97500007E-02  -6.17948558E-07
  -2.96999998E-02  -6.91079947E-07
  -2.96500009E-02  -7.75683247E-07
  -2.96000000E-02  -8.29105431E-07
  -2.95499992E-02  -8.19820002E-07
  -2.95000002E-02  -7.41562246E-07
  -2.94499993E-02  -6.16421687E-07
  -2.94000003E-02  -4.85347869E-07
  -2.93499995E-02  -3.90139661E-07
  -2.93000005E-02  -3.54846463E-07
  -2.92499997E-02  -3.74880159E-07
  -2.92000007E-02  -4.18798010E-07
  -2.91499998E-02  -4.42128652E-07
  -2.91000009E-02  -4.07226935E-07
  -2.90500000E-02  -3.00367418E-07
  -2.89999992E-02  -1.38393673E-07
  -2.89500002E-02   3.82079364E-08
  -2.88999993E-02   1.82911336E-07
  -2.88500004E-02   2.63720437E-07
  -2.87999995E-02   2.77568802E-07
  -2.87500005E-02   2.52054491E-07
  -2.86999997E-02   2.33589660E-07
  -2.86500007E-02   2.67077951E-07
  -2.85999998E-02   3.76051332E-07
  -2.85500009E-02   5.52069878E-07
  -2.85000000E-02   7.58154329E-07
  -2.84499992E-02   9.44842441E-07
  -2.84000002E-02   1.07184633E-06
  -2.83499993E-02   1.12574912E-06
  -2.83000004E-02   1.12584985E-06
  -2.82499995E-02   1.11548320E-06
  -2.82000005E-02   1.14257898E-06
  -2.81499997E-02   1.23805910E-06
  -2.81000007E-02   1.40167981E-06
  -2.80499998E-02   1.60166417E-06
  -2.80000009E-02   1.78837365E-06
  -2.79500000E-02   1.91601748E-06
  -2.78999992E-02   1.96281167E-06
  -2.78500002E-02   1.94063909E-06
  -2.77999993E-02   1.88986348E-06
  -2.77500004E-02   1.86150169E-06
  -2.76999995E-02   1.89457489E-06
  -2.76500005E-02   1.99863825E-06
  -2.75999997E-02   2.14925831E-06
  -2.75500007E-02   2.29848888E-06
  -2.74999999E-02   2.39573910E-06
  -2.74500009E-02   2.40982172E-06
  -2.74000000E-02   2.34240952E-06
  -2.73499992E-02   2.22694166E-06
  -2.73000002E-02   2.11347492E-06
  -2.72499993E-02   2.04615981E-06
  -2.72000004E-02   2.04330240E-06
  -2.71499995E-02   2.08882898E-06
  -2.71000005E-02   2.13894168E-06
  -2.70499997E-02   2.14106603E-06
  -2.70000007E-02   2.05674155E-06
  -2.69499999E-02   1.87837327E-06
  -2.69000009E-02   1.63241646E-06
  -2.68500000E-02   1.36760673E-06
  -2.67999992E-02   1.13345197E-06
  -2.67500002E-02   9.58484065E-07
  -2.66999993E-02   8.37829816E-07
  -2.66500004E-02   7.35490346E-07
  -2.65999995E-02   6.00250189E-07
  -2.65500005E-02   3.88176375E-07
  -2.64999997E-02   8.17805841E-08
  -2.64500007E-02  -3.02536989E-07
  -2.63999999E-02  -7.21943707E-07
  -2.63500009E-02  -1.12618829E-06
  -2.63000000E-02  -1.47973344E-06
  -2.62499992E-02  -1.77725792E-06
  -2.62000002E-02  -2.04573598E-06
  -2.61499994E-02  -2.33232277E-06
  -2.61000004E-02  -2.68348663E-06
  -2.60499995E-02  -3.12459360E-06
  -2.60000005E-02  -3.64888797E-06
  -2.59499997E-02  -4.22054973E-06
  -2.59000007E-02  -4.79032315E-06
  -2.58499999E-02  -5.31676642E-06
  -2.58000009E-02  -5.78381059E-06
  -2.57500000E-02  -6.20696392E-06
  -2.56999992E-02  -6.62564889E-06
  -2.56500002E-02  -7.08522339E-06
  -2.55999994E-02  -7.61666752E-06
  -2.55500004E-02  -8.22292259E-06
  -2.54999995E-02  -8.87769693E-06
  -2.54500005E-02  -9.53711060E-06
  -2.53999997E-02  -1.01588794E-05
  -2.53500007E-02  -1.07205387E-05
  -2.52999999E-02  -1.12288462E-05
  -2.52500009E-02  -1.17163927E-05
  -2.52000000E-02  -1.22270685E-05
  -2.51499992E-02  -1.27968706E-05
  -2.51000002E-02  -1.34383636E-05
  -2.50499994E-02  -1.41354885E-05
  -2.50000004E-02  -1.48506906E-05
  -2.49499995E-02  -1.55410780E-05
  -2.49000005E-02  -1.61764656E-05
  -2.48499997E-02  -1.67514627E-05
  -2.48000007E-02  -1.72867767E-05
  -2.47499999E-02  -1.78193004E-05
  -2.47000009E-02  -1.83856482E-05
  -2.46500000E-02  -1.90063893E-05
  -2.45999992E-02  -1.96776327E-05
  -2.45500002E-02  -2.03733034E-05
  -2.44999994E-02  -2.10567960E-05
  -2.44500004E-02  -2.16969020E-05
  -2.43999995E-02  -2.22809249E-05
  -2.43500005E-02  -2.28196441E-05
  -2.42999997E-02  -2.33422415E-05
  -2.42500007E-02  -2.38836492E-05
  -2.41999999E-02  -2.44699040E-05
  -2.41500009E-02  -2.51076326E-05
  -2.41000000E-02  -2.57819902E-05
  -2.40499992E-02  -2.64634473E-05
  -2.40000002E-02  -2.71204026E-05
  -2.39499994E-02  -2.77321269E-05
  -2.39000004E-02  -2.82967394E-05
  -2.38499995E-02  -2.88311130E-05
  -2.38000005E-02  -2.93632456E-05
  -2.37499997E-02  -2.99205622E-05
  -2.37000007E-02  -3.05187714E-05
  -2.36499999E-02  -3.11560543E-05
  -2.36000009E-02  -3.18148050E-05
  -2.35500000E-02  -3.24696557E-05
  -2.34999992E-02  -3.30982039E-05
  -2.34500002E-02  -3.36904559E-05
  -2.33999994E-02  -3.42529202E-05
  -2.33500004E-02  -3.48060130E-05
  -2.32999995E-02  -3.53762953E-05
  -2.32500006E-02  -3.59862097E-05
  -2.31999997E-02  -3.66457643E-05
  -2.31500007E-02  -3.73493240E-05
  -2.30999999E-02  -3.80783713E-05
  -2.30500009E-02  -3.88092194E-05
  -2.30000000E-02  -3.95226998E-05
  -2.29499992E-02  -4.02120495E-05
  -2.29000002E-02  -4.08861706E-05
  -2.28499994E-02  -4.15666582E-05
  -2.28000004E-02  -4.22799640E-05
  -2.27499995E-02  -4.30478613E-05
  -2.27000006E-02  -4.38792922E-05
  -2.26499997E-02  -4.47672792E-05
  -2.26000007E-02  -4.56919770E-05
  -2.25499999E-02  -4.66288511E-05
  -2.25000009E-02  -4.75592424E-05
  -2.24500000E-02  -4.84789125E-05
  -2.23999992E-02  -4.94014275E-05
  -2.23500002E-02  -5.03543779E-05
  -2.22999994E-02  -5.13696432E-05
  -2.22500004E-02  -5.24716161E-05
  -2.21999995E-02  -5.36678999E-05
  -2.21500006E-02  -5.49462202E-05
  -2.20999997E-02  -5.62792848E-05
  -2.20500007E-02  -5.76361890E-05
  -2.19999999E-02  -5.89960364E-05
  -2.19500009E-02  -6.03579465E-05
  -2.19000001E-02  -6.17429905E-05
  -2.18499992E-02  -6.31867297E-05
  -2.18000002E-02  -6.47253546E-05
  -2.17499994E-02  -6.63805986E-05
  -2.17000004E-02  -6.81500169E-05
  -2.16499995E-02  -7.00078090E-05
  -2.16000006E-02  -7.19157033E-05
  -2.15499997E-02  -7.38396411E-05
  -2.15000007E-02  -7.57658418E-05
  -2.14499999E-02  -7.77090318E-05
  -2.14000009E-02  -7.97085886E-05
  -2.13500001E-02  -8.18135013E-05
  -2.12999992E-02  -8.40620705E-05
  -2.12500002E-02  -8.64653193E-05
  -2.11999994E-02  -8.90018346E-05
  -2.11500004E-02  -9.16258577E-05
  -2.10999995E-02  -9.42872648E-05
  -2.10500006E-02  -9.69544490E-05
  -2.09999997E-02  -9.96289309E-05
  -2.09500007E-02  -1.02346596E-04
  -2.08999999E-02  -1.05163694E-04
  -2.08500009E-02  -1.08133318E-04
  -2.08000001E-02  -1.11281777E-04
  -2.07499992E-02  -1.14596187E-04
  -2.07000002E-02  -1.18029551E-04
  -2.06499994E-02  -1.21520934E-04
  -2.06000004E-02  -1.25023202E-04
  -2.05499995E-02  -1.28526211E-04
  -2.05000006E-02  -1.32064597E-04
  -2.04499997E-02  -1.35704729E-04
  -2.04000007E-02  -1.39517302E-04
  -2.03499999E-02  -1.43547266E-04
  -2.03000009E-02  -1.47793457E-04
  -2.02500001E-02  -1.52208901E-04
  -2.01999992E-02  -1.56720591E-04
  -2.01500002E-02  -1.61261574E-04
  -2.00999994E-02  -1.65802077E-04
  -2.00500004E-02  -1.70364132E-04
  -1.99999996E-02  -1.75014546E-04
  -1.99500006E-02  -1.79836352E-04
  -1.98999997E-02  -1.84892764E-04
  -1.98500007E-02  -1.90198945E-04
  -1.97999999E-02  -1.95714762E-04
  -1.97500009E-02  -2.01362855E-04
  -1.97000001E-02  -2.07063407E-04
  -1.96499992E-02  -2.12771192E-04
  -1.96000002E-02  -2.18498666E-04
  -1.95499994E-02  -2.24312855E-04
  -1.95000004E-02  -2.30307967E-04
  -1.94499996E-02  -2.36565582E-04
  -1.94000006E-02  -2.43117596E-04
  -1.93499997E-02  -2.49931763E-04
  -1.93000007E-02  -2.56925909E-04
  -1.92499999E-02  -2.64004368E-04
  -1.92000009E-02  -2.71101919E-04
  -1.91500001E-02  -2.78215099E-04
  -1.90999992E-02  -2.85407063E-04
  -1.90500002E-02  -2.92780693E-04
  -1.89999994E-02  -3.00433720E-04
  -1.89500004E-02  -3.08415765E-04
  -1.88999996E-02  -3.16705904E-04
  -1.88500006E-02  -3.25220812E-04
  -1.87999997E-02  -3.33853008E-04
  -1.87500007E-02  -3.42520740E-04
  -1.86999999E-02  -3.51205876E-04
  -1.86500009E-02  -3.59966245E-04
  -1.86000001E-02  -3.68912471E-04
  -1.85499992E-02  -3.78160737E-04
  -1.85000002E-02  -3.87781824E-04
  -1.84499994E-02  -3.97770491E-04
  -1.84000004E-02  -4.08048130E-04
  -1.83499996E-02  -4.18498996E-04
  -1.83000006E-02  -4.29023145E-04
  -1.82499997E-02  -4.39583469E-04
  -1.82000007E-02  -4.50225227E-04
  -1.81499999E-02  -4.61060059E-04
  -1.81000009E-02  -4.72217856E-04
  -1.80500001E-02  -4.83788375E-04
  -1.79999992E-02  -4.95782879E-04
  -1.79500002E-02  -5.08129422E-04
  -1.78999994E-02  -5.20704489E-04
  -1.78500004E-02  -5.33389975E-04
  -1.77999996E-02  -5.46130235E-04
  -1.77500006E-02  -5.58960775E-04
  -1.76999997E-02  -5.71994344E-04
  -1.76500008E-02  -5.85374830E-04
  -1.75999999E-02  -5.99215447E-04
  -1.75500009E-02  -6.13548385E-04
  -1.75000001E-02  -6.28311071E-04
  -1.74499992E-02  -6.43376843E-04
  -1.74000002E-02  -6.58613804E-04
  -1.73499994E-02  -6.73948263E-04
  -1.73000004E-02  -6.89401932E-04
  -1.72499996E-02  -7.05082784E-04
  -1.72000006E-02  -7.21141929E-04
  -1.71499997E-02  -7.37705268E-04
  -1.71000008E-02  -7.54818146E-04
  -1.70499999E-02  -7.72423693E-04
  -1.70000009E-02  -7.90388498E-04
  -1.69500001E-02  -8.08567100E-04
  -1.68999992E-02  -8.26869218E-04
  -1.68500002E-02  -8.45301664E-04
  -1.67999994E-02  -8.63972469E-04
  -1.67500004E-02  -8.83045956E-04
  -1.66999996E-02  -9.02669504E-04
  -1.66500006E-02  -9.22909938E-04
  -1.65999997E-02  -9.43727617E-04
  -1.65500008E-02  -9.64993669E-04
  -1.64999999E-02  -9.86548839E-04
  -1.64500009E-02  -1.00828311E-03
  -1.64000001E-02  -1.03018549E-03
  -1.63499992E-02  -1.05235039E-03
  -1.63000003E-02  -1.07494229E-03
  -1.62499994E-02  -1.09812256E-03
  -1.62000004E-02  -1.12197408E-03
  -1.61499996E-02  -1.14646950E-03
  -1.61000006E-02  -1.17148261E-03
  -1.60499997E-02  -1.19684718E-03
  -1.60000008E-02  -1.22243376E-03
  -1.59499999E-02  -1.24821567E-03
  -1.59000009E-02  -1.27428584E-03
  -1.58500001E-02  -1.30081526E-03
  -1.57999992E-02  -1.32798322E-03
  -1.57500003E-02  -1.35590089E-03
  -1.56999994E-02  -1.38455874E-03
  -1.56500004E-02  -1.41383300E-03
  -1.55999996E-02  -1.44354720E-03
  -1.55499997E-02  -1.47355034E-03
  -1.54999997E-02  -1.50379539E-03
  -1.54499998E-02  -1.53436686E-03
  -1.53999999E-02  -1.56543870E-03
  -1.53500000E-02  -1.59720518E-03
  -1.53000001E-02  -1.62979367E-03
  -1.52500002E-02  -1.66320801E-03
  -1.52000003E-02  -1.69732829E-03
  -1.51500003E-02  -1.73196278E-03
  -1.51000004E-02  -1.76694302E-03
  -1.50499996E-02  -1.80220674E-03
  -1.49999997E-02  -1.83782610E-03
  -1.49499997E-02  -1.87398412E-03
  -1.48999998E-02  -1.91090012E-03
  -1.48499999E-02  -1.94872555E-03
  -1.48000000E-02  -1.98747870E-03
  -1.47500001E-02  -2.02704174E-03
  -1.47000002E-02  -2.06721248E-03
  -1.46500003E-02  -2.10780068E-03
  -1.46000003E-02  -2.14872207E-03
  -1.45500004E-02  -2.19004299E-03
  -1.44999996E-02  -2.23195646E-03
  -1.44499997E-02  -2.27469136E-03
  -1.43999998E-02  -2.31841090E-03
  -1.43499998E-02  -2.36315141E-03
  -1.42999999E-02  -2.40880251E-03
  -1.42500000E-02  -2.45515234E-03
  -1.42000001E-02  -2.50199577E-03
  -1.41500002E-02  -2.54923222E-03
  -1.41000003E-02  -2.59691221E-03
  -1.40500003E-02  -2.64522247E-03
  -1.40000004E-02  -2.69440445E-03
  -1.39499996E-02  -2.74464581E-03
  -1.38999997E-02  -2.79599847E-03
  -1.38499998E-02  -2.84835696E-03
  -1.37999998E-02  -2.90150917E-03
  -1.37499999E-02  -2.95523787E-03
  -1.37000000E-02  -3.00941849E-03
  -1.36500001E-02  -3.06409178E-03
  -1.36000002E-02  -3.11945076E-03
  -1.35500003E-02  -3.17574642E-03
  -1.35000004E-02  -3.23318667E-03
  -1.34500004E-02  -3.29184323E-03
  -1.33999996E-02  -3.35161784E-03
  -1.33499997E-02  -3.41228838E-03
  -1.32999998E-02  -3.47360456E-03
  -1.32499998E-02  -3.53541574E-03
  -1.31999999E-02  -3.59774288E-03
  -1.31500000E-02  -3.66076827E-03
  -1.31000001E-02  -3.72476946E-03
  -1.30500002E-02  -3.78998183E-03
  -1.30000003E-02  -3.85648850E-03
  -1.29500004E-02  -3.92420124E-03
  -1.29000004E-02  -3.99290165E-03
  -1.28499996E-02  -4.06232057E-03
  -1.27999997E-02  -4.13227780E-03
  -1.27499998E-02  -4.20279289E-03
  -1.26999998E-02  -4.27405071E-03
  -1.26499999E-02  -4.34632087E-03
  -1.26000000E-02  -4.41985065E-03
  -1.25500001E-02  -4.49474156E-03
  -1.25000002E-02  -4.57091676E-03
  -1.24500003E-02  -4.64813737E-03
  -1.24000004E-02  -4.72611841E-03
  -1.23500004E-02  -4.80466429E-03
  -1.22999996E-02  -4.88374755E-03
  -1.22499997E-02  -4.96352650E-03
  -1.21999998E-02  -5.04428847E-03
  -1.21499998E-02  -5.12631144E-03
  -1.20999999E-02  -5.20972908E-03
  -1.20500000E-02  -5.29447151E-03
  -1.20000001E-02  -5.38029475E-03
  -1.19500002E-02  -5.46689471E-03
  -1.19000003E-02  -5.55404695E-03
  -1.18500004E-02  -5.64169278E-03
  -1.18000004E-02  -5.72998729E-03
  -1.17499996E-02  -5.81921916E-03
  -1.16999997E-02  -5.90968365E-03
  -1.16499998E-02  -6.00156235E-03
  -1.15999999E-02  -6.09481987E-03
  -1.15499999E-02  -6.18921500E-03
  -1.15000000E-02  -6.28440548E-03
  -1.14500001E-02  -6.38009515E-03
  -1.14000002E-02  -6.47617690E-03
  -1.13500003E-02  -6.57276763E-03
  -1.13000004E-02  -6.67014904E-03
  -1.12500004E-02  -6.76865783E-03
  -1.11999996E-02  -6.86852727E-03
  -1.11499997E-02  -6.96973410E-03
  -1.10999998E-02  -7.07202638E-03
  -1.10499999E-02  -7.17506092E-03
  -1.09999999E-02  -7.27850199E-03
  -1.09500000E-02  -7.38220802E-03
  -1.09000001E-02  -7.48630194E-03
  -1.08500002E-02  -7.59109156E-03
  -1.08000003E-02  -7.69692892E-03
  -1.07500004E-02  -7.80406175E-03
  -1.07000005E-02  -7.91251194E-03
  -1.06499996E-02  -8.02203920E-03
  -1.05999997E-02  -8.13222583E-03
  -1.05499998E-02  -8.24268814E-03
  -1.04999999E-02  -8.35322775E-03
  -1.04499999E-02  -8.46389960E-03
  -1.04000000E-02  -8.57498124E-03
  -1.03500001E-02  -8.68683867E-03
  -1.03000002E-02  -8.79979786E-03
  -1.02500003E-02  -8.91392305E-03
  -1.02000004E-02  -9.02899448E-03
  -1.01500005E-02  -9.14463308E-03
  -1.00999996E-02  -9.26040672E-03
  -1.00499997E-02  -9.37602017E-03
  -9.99999978E-03  -9.49146878E-03
  -9.94999986E-03  -9.60702449E-03
  -9.89999995E-03  -9.72310361E-03
  -9.85000003E-03  -9.84005723E-03
  -9.80000012E-03  -9.95799527E-03
  -9.75000020E-03  -1.00767510E-02
  -9.70000029E-03  -1.01959147E-02
  -9.65000037E-03  -1.03150206E-02
  -9.60000046E-03  -1.04337186E-02
  -9.54999961E-03  -1.05519174E-02
  -9.49999969E-03  -1.06698293E-02
  -9.44999978E-03  -1.07878437E-02
  -9.39999986E-03  -1.09063461E-02
  -9.34999995E-03  -1.10255275E-02
  -9.30000003E-03  -1.11452611E-02
  -9.25000012E-03  -1.12651139E-02
  -9.20000020E-03  -1.13845514E-02
  -9.15000029E-03  -1.15031684E-02
  -9.10000037E-03  -1.16208317E-02
  -9.05000046E-03  -1.17377136E-02
  -8.99999961E-03  -1.18542099E-02
  -8.94999970E-03  -1.19707547E-02
  -8.89999978E-03  -1.20876199E-02
  -8.84999987E-03  -1.22047635E-02
  -8.79999995E-03  -1.23217842E-02
  -8.75000004E-03  -1.24381166E-02
  -8.70000012E-03  -1.25532774E-02
  -8.65000021E-03  -1.26670199E-02
  -8.60000029E-03  -1.27794193E-02
  -8.55000038E-03  -1.28908567E-02
  -8.50000046E-03  -1.30017791E-02
  -8.44999962E-03  -1.31124565E-02
  -8.39999970E-03  -1.32228769E-02
  -8.34999979E-03  -1.33327013E-02
  -8.29999987E-03  -1.34413717E-02
  -8.24999996E-03  -1.35483295E-02
  -8.20000004E-03  -1.36532523E-02
  -8.15000013E-03  -1.37561299E-02
  -8.10000021E-03  -1.38572846E-02
  -8.05000030E-03  -1.39571810E-02
  -8.00000038E-03  -1.40561648E-02
  -7.95000046E-03  -1.41542722E-02
  -7.89999962E-03  -1.42512340E-02
  -7.84999970E-03  -1.43465335E-02
  -7.79999979E-03  -1.44395791E-02
  -7.74999987E-03  -1.45299155E-02
  -7.69999996E-03  -1.46174263E-02
  -7.65000004E-03  -1.47024235E-02
  -7.60000013E-03  -1.47853671E-02
  -7.55000021E-03  -1.48666250E-02
  -7.49999983E-03  -1.49463043E-02
  -7.44999992E-03  -1.50241815E-02
  -7.40000000E-03  -1.50997238E-02
  -7.35000009E-03  -1.51722338E-02
  -7.30000017E-03  -1.52411498E-02
  -7.24999979E-03  -1.53062735E-02
  -7.19999988E-03  -1.53678013E-02
  -7.14999996E-03  -1.54261999E-02
  -7.10000005E-03  -1.54819218E-02
  -7.05000013E-03  -1.55351982E-02
  -7.00000022E-03  -1.55858835E-02
  -6.94999984E-03  -1.56334508E-02
  -6.89999992E-03  -1.56771895E-02
  -6.85000001E-03  -1.57164373E-02
  -6.80000009E-03  -1.57508515E-02
  -6.75000018E-03  -1.57805197E-02
  -6.69999979E-03  -1.58058386E-02
  -6.64999988E-03  -1.58272944E-02
  -6.59999996E-03  -1.58451740E-02
  -6.55000005E-03  -1.58594400E-02
  -6.50000013E-03  -1.58696547E-02
  -6.45000022E-03  -1.58750731E-02
  -6.39999984E-03  -1.58750433E-02
  -6.34999992E-03  -1.58691835E-02
  -6.30000001E-03  -1.58574395E-02
  -6.25000009E-03  -1.58400610E-02
  -6.20000018E-03  -1.58174206E-02
  -6.14999980E-03  -1.57899093E-02
  -6.09999988E-03  -1.57575905E-02
  -6.04999997E-03  -1.57200750E-02
  -6.00000005E-03  -1.56767052E-02
  -5.95000014E-03  -1.56267732E-02
  -5.90000022E-03  -1.55697362E-02
  -5.84999984E-03  -1.55053642E-02
  -5.79999993E-03  -1.54338321E-02
  -5.75000001E-03  -1.53555516E-02
  -5.70000010E-03  -1.52709205E-02
  -5.65000018E-03  -1.51800988E-02
  -5.59999980E-03  -1.50828175E-02
  -5.54999989E-03  -1.49784470E-02
  -5.49999997E-03  -1.48662133E-02
  -5.45000006E-03  -1.47454608E-02
  -5.40000014E-03  -1.46158775E-02
  -5.35000023E-03  -1.44775175E-02
  -5.29999984E-03  -1.43307382E-02
  -5.24999993E-03  -1.41760474E-02
  -5.20000001E-03  -1.40136620E-02
  -5.15000010E-03  -1.38433930E-02
  -5.10000018E-03  -1.36647271E-02
  -5.04999980E-03  -1.34768924E-02
  -4.99999989E-03  -1.32791586E-02
  -4.94999997E-03  -1.30710099E-02
  -4.90000006E-03  -1.28523195E-02
  -4.85000014E-03  -1.26233529E-02
  -4.80000023E-03  -1.23845926E-02
  -4.74999985E-03  -1.21363318E-02
  -4.69999993E-03  -1.18785407E-02
  -4.65000002E-03  -1.16108060E-02
  -4.60000010E-03  -1.13323657E-02
  -4.55000019E-03  -1.10423677E-02
  -4.49999981E-03  -1.07401684E-02
  -4.44999989E-03  -1.04256906E-02
  -4.39999998E-03  -1.00991176E-02
  -4.35000006E-03  -9.76075232E-03
  -4.30000015E-03  -9.41092707E-03
  -4.25000023E-03  -9.04968288E-03
  -4.19999985E-03  -8.67674593E-03
  -4.14999994E-03  -8.29147082E-03
  -4.10000002E-03  -7.89313018E-03
  -4.05000011E-03  -7.48106372E-03
  -4.00000019E-03  -7.05488166E-03
  -3.94999981E-03  -6.61464594E-03
  -3.89999989E-03  -6.16059359E-03
  -3.84999998E-03  -5.69304405E-03
  -3.80000006E-03  -5.21215657E-03
  -3.74999992E-03  -4.71774861E-03
  -3.70000000E-03  -4.20929911E-03
  -3.65000009E-03  -3.68603715E-03
  -3.59999994E-03  -3.14716878E-03
  -3.55000002E-03  -2.59209774E-03
  -3.50000011E-03  -2.02075788E-03
  -3.44999996E-03  -1.43339066E-03
  -3.40000005E-03  -8.30323261E-04
  -3.34999990E-03  -2.11867402E-04
  -3.29999998E-03   4.22044744E-04
  -3.25000007E-03   1.07179990E-03
  -3.19999992E-03   1.73809810E-03
  -3.15000000E-03   2.42178375E-03
  -3.10000009E-03   3.12341936E-03
  -3.04999994E-03   3.84323532E-03
  -3.00000003E-03   4.58123814E-03
  -2.95000011E-03   5.33710420E-03
  -2.89999996E-03   6.11042511E-03
  -2.85000005E-03   6.90110866E-03
  -2.79999990E-03   7.70951994E-03
  -2.74999999E-03   8.53632484E-03
  -2.70000007E-03   9.38235316E-03
  -2.64999992E-03   1.02483612E-02
  -2.60000001E-03   1.11346673E-02
  -2.55000009E-03   1.20412242E-02
  -2.49999994E-03   1.29677774E-02
  -2.45000003E-03   1.39140189E-02
  -2.40000011E-03   1.48798041E-02
  -2.34999997E-03   1.58652961E-02
  -2.30000005E-03   1.68710891E-02
  -2.24999990E-03   1.78979281E-02
  -2.19999999E-03   1.89464279E-02
  -2.15000007E-03   2.00169757E-02
  -2.09999993E-03   2.11097058E-02
  -2.05000001E-03   2.22245287E-02
  -2.00000009E-03   2.33610980E-02
  -1.94999995E-03   2.45191641E-02
  -1.90000003E-03   2.56987140E-02
  -1.85000000E-03   2.69001555E-02
  -1.79999997E-03   2.81241350E-02
  -1.75000005E-03   2.93712076E-02
  -1.70000002E-03   3.06419730E-02
  -1.64999999E-03   3.19367126E-02
  -1.59999996E-03   3.32554132E-02
  -1.55000004E-03   3.45979072E-02
  -1.50000001E-03   3.59639600E-02
  -1.44999998E-03   3.73534262E-02
  -1.39999995E-03   3.87663879E-02
  -1.35000004E-03   4.02033255E-02
  -1.30000000E-03   4.16649133E-02
  -1.24999997E-03   4.31516767E-02
  -1.20000006E-03   4.46639396E-02
  -1.15000003E-03   4.62017581E-02
  -1.09999999E-03   4.77649979E-02
  -1.04999996E-03   4.93534692E-02
  -1.00000005E-03   5.09668738E-02
  -9.50000016E-04   5.26052043E-02
  -8.99999985E-04   5.42686619E-02
  -8.50000011E-04   5.59576191E-02
  -7.99999980E-04   5.76726720E-02
  -7.50000007E-04   5.94142899E-02
  -6.99999975E-04   6.11827932E-02
  -6.50000002E-04   6.29781410E-02
  -6.00000028E-04   6.48000613E-02
  -5.49999997E-04   6.66482225E-02
  -5.00000024E-04   6.85223937E-02
  -4.49999992E-04   7.04226121E-02
  -3.99999990E-04   7.23492578E-02
  -3.49999988E-04   7.43028149E-02
  -3.00000014E-04   7.62838721E-02
  -2.50000012E-04   7.82927796E-02
  -1.99999995E-04   8.03295374E-02
  -1.50000007E-04   8.23939890E-02
  -9.99999975E-05   8.44856352E-02
  -4.99999987E-05   8.66039246E-02
   0.00000000       8.87486488E-02
   4.99999987E-05   9.09199789E-02
   9.99999975E-05   9.31183919E-02
   1.50000007E-04   9.53444391E-02
   1.99999995E-04   9.75986719E-02
   2.50000012E-04   9.98812541E-02
   3.00000014E-04  0.102191918    
   3.49999988E-04  0.104530223    
   3.99999990E-04  0.106895417    
   4.49999992E-04  0.109286919    
   5.00000024E-04  0.111704685    
   5.49999997E-04  0.114149228    
   6.00000028E-04  0.116621323    
   6.50000002E-04  0.119121239    
   6.99999975E-04  0.121649109    
   7.50000007E-04  0.124204867    
   7.99999980E-04  0.126787990    
   8.50000011E-04  0.129397839    
   8.99999985E-04  0.132033914    
   9.50000016E-04  0.134695962    
   1.00000005E-03  0.137383789    
   1.04999996E-03  0.140097782    
   1.09999999E-03  0.142838329    
   1.15000003E-03  0.145605713    
   1.20000006E-03  0.148400143    
   1.24999997E-03  0.151221231    
   1.30000000E-03  0.154068291    
   1.35000004E-03  0.156940416    
   1.39999995E-03  0.159836814    
   1.44999998E-03  0.162757143    
   1.50000001E-03  0.165701479    
   1.55000004E-03  0.168670446    
   1.59999996E-03  0.171664819    
   1.64999999E-03  0.174684823    
   1.70000002E-03  0.177729994    
   1.75000005E-03  0.180799499    
   1.79999997E-03  0.183892131    
   1.85000000E-03  0.187006429    
   1.90000003E-03  0.190141767    
   1.94999995E-03  0.193298459    
   2.00000009E-03  0.196477398    
   2.05000001E-03  0.199679077    
   2.09999993E-03  0.202903420    
   2.15000007E-03  0.206150293    
   2.19999999E-03  0.209419012    
   2.24999990E-03  0.212708160    
   2.30000005E-03  0.216016114    
   2.34999997E-03  0.219341591    
   2.40000011E-03  0.222684905    
   2.45000003E-03  0.226046905    
   2.49999994E-03  0.229428083    
   2.55000009E-03  0.232828468    
   2.60000001E-03  0.236247748    
   2.64999992E-03  0.239685282    
   2.70000007E-03  0.243139759    
   2.74999999E-03  0.246609330    
   2.79999990E-03  0.250092238    