  -3.99999991E-02   0.00000000    
  -3.99499983E-02   0.00000000    
  -3.99000011E-02   0.00000000    
  -3.98500003E-02   0.00000000    
  -3.97999994E-02   9.04765191E-19
  -3.97499986E-02   7.33085840E-18
  -3.97000015E-02   3.17721331E-17
  -3.96500006E-02   9.68436658E-17
  -3.95999998E-02   2.30972703E-16
  -3.95499989E-02   4.55809287E-16
  -3.95000018E-02   7.70355766E-16
  -3.94500010E-02   1.14251404E-15
  -3.94000001E-02   1.51780967E-15
  -3.93499993E-02   1.84631562E-15
  -3.92999984E-02   2.11703074E-15
  -3.92500013E-02   2.38130057E-15
  -3.92000005E-02   2.74818040E-15
  -3.91499996E-02   3.34560502E-15
  -3.90999988E-02   4.25845772E-15
  -3.90500017E-02   5.47098665E-15
  -3.90000008E-02   6.84656731E-15
  -3.89500000E-02   8.16496901E-15
  -3.88999991E-02   9.20831540E-15
  -3.88499983E-02   9.85675385E-15
  -3.88000011E-02   1.01429722E-14
  -3.87500003E-02   1.02311068E-14
  -3.86999995E-02   1.03224348E-14
  -3.86499986E-02   1.05277598E-14
  -3.86000015E-02   1.07656592E-14
  -3.85500006E-02   1.07387015E-14
  -3.84999998E-02   1.00084947E-14
  -3.84499989E-02   8.14553808E-15
  -3.84000018E-02   4.88885098E-15
  -3.83500010E-02   2.35841395E-16
  -3.83000001E-02  -5.58975253E-15
  -3.82499993E-02  -1.22825469E-14
  -3.81999984E-02  -1.96413337E-14
  -3.81500013E-02  -2.77012774E-14
  -3.81000005E-02  -3.67490292E-14
  -3.80499996E-02  -4.72220326E-14
  -3.79999988E-02  -5.95512951E-14
  -3.79500017E-02  -7.40277116E-14
  -3.79000008E-02  -9.07518757E-14
  -3.78500000E-02  -1.09681632E-13
  -3.77999991E-02  -1.30740864E-13
  -3.77499983E-02  -1.53917704E-13
  -3.77000012E-02  -1.79281733E-13
  -3.76500003E-02  -2.06897203E-13
  -3.75999995E-02  -2.36682608E-13
  -3.75499986E-02  -2.68319465E-13
  -3.75000015E-02  -3.01291950E-13
  -3.74500006E-02  -3.35050943E-13
  -3.73999998E-02  -3.69193933E-13
  -3.73499990E-02  -4.03517524E-13
  -3.73000018E-02  -4.37867868E-13
  -3.72500010E-02  -4.71846195E-13
  -3.72000001E-02  -5.04543185E-13
  -3.71499993E-02  -5.34505654E-13
  -3.70999984E-02  -5.60054173E-13
  -3.70500013E-02  -5.79895073E-13
  -3.70000005E-02  -5.93773945E-13
  -3.69499996E-02  -6.02795483E-13
  -3.68999988E-02  -6.09090577E-13
  -3.68500017E-02  -6.14778302E-13
  -3.68000008E-02  -6.20566424E-13
  -3.67500000E-02  -6.24643512E-13
  -3.66999991E-02  -6.22534576E-13
  -3.66499983E-02  -6.08227336E-13
  -3.66000012E-02  -5.76271940E-13
  -3.65500003E-02  -5.23998596E-13
  -3.64999995E-02  -4.52788875E-13
  -3.64499986E-02  -3.67626258E-13
  -3.64000015E-02  -2.74870946E-13
  -3.63500006E-02  -1.79076047E-13
  -3.62999998E-02  -8.02870208E-14
  -3.62499990E-02   2.67121157E-14
  -3.62000018E-02   1.50477273E-13
  -3.61500010E-02   2.98828833E-13
  -3.61000001E-02   4.74357153E-13
  -3.60499993E-02   6.71757300E-13
  -3.59999985E-02   8.78664058E-13
  -3.59500013E-02   1.08013566E-12
  -3.59000005E-02   1.26511605E-12
  -3.58499996E-02   1.43197487E-12
  -3.57999988E-02   1.59025701E-12
  -3.57500017E-02   1.75721558E-12
  -3.57000008E-02   1.95004581E-12
  -3.56500000E-02   2.17697258E-12
  -3.55999991E-02   2.43137303E-12
  -3.55499983E-02   2.69222058E-12
  -3.55000012E-02   2.93147949E-12
  -3.54500003E-02   3.12572971E-12
  -3.53999995E-02   3.26685467E-12
  -3.53499986E-02   3.36644081E-12
  -3.53000015E-02   3.45097648E-12
  -3.52500007E-02   3.54910133E-12
  -3.51999998E-02   3.67618479E-12
  -3.51499990E-02   3.82344720E-12
  -3.51000018E-02   3.95749883E-12
  -3.50500010E-02   4.03185514E-12
  -3.50000001E-02   4.00636945E-12
  -3.49499993E-02   3.86620900E-12
  -3.48999985E-02   3.63118823E-12
  -3.48500013E-02   3.34986314E-12
  -3.48000005E-02   3.07948350E-12
  -3.47499996E-02   2.85984300E-12
  -3.46999988E-02   2.69284660E-12
  -3.46500017E-02   2.53808910E-12
  -3.46000008E-02   2.32811925E-12
  -3.45500000E-02   1.99803889E-12
  -3.44999991E-02   1.51674246E-12
  -3.44499983E-02   9.05099021E-13
  -3.44000012E-02   2.31178439E-13
  -3.43500003E-02  -4.17391409E-13
  -3.42999995E-02  -9.72917168E-13
  -3.42499986E-02  -1.42123487E-12
  -3.42000015E-02  -1.81276793E-12
  -3.41500007E-02  -2.24362868E-12
  -3.40999998E-02  -2.81295148E-12
  -3.40499990E-02  -3.57456881E-12
  -3.40000018E-02  -4.50544680E-12
  -3.39500010E-02  -5.50732333E-12
  -3.39000002E-02  -6.44370581E-12
  -3.38499993E-02  -7.19782697E-12
  -3.37999985E-02  -7.72607065E-12
  -3.37500013E-02  -8.08133335E-12
  -3.37000005E-02  -8.39288795E-12
  -3.36499996E-02  -8.80873065E-12
  -3.35999988E-02  -9.42465203E-12
  -3.35500017E-02  -1.02325171E-11
  -3.35000008E-02  -1.11137636E-11
  -3.34500000E-02  -1.18847978E-11
  -3.33999991E-02  -1.23769068E-11
  -3.33499983E-02  -1.25156630E-11
  -3.33000012E-02  -1.23622683E-11
  -3.32500003E-02  -1.20943333E-11
  -3.31999995E-02  -1.19303751E-11
  -3.31499986E-02  -1.20290557E-11
  -3.31000015E-02  -1.24084614E-11
  -3.30500007E-02  -1.29246787E-11
  -3.29999998E-02  -1.33241135E-11
  -3.29499990E-02  -1.33505177E-11
  -3.29000019E-02  -1.28607550E-11
  -3.28500010E-02  -1.18960137E-11
  -3.28000002E-02  -1.06723935E-11
  -3.27499993E-02  -9.48997131E-12
  -3.26999985E-02  -8.59754108E-12
  -3.26500013E-02  -8.07329117E-12
  -3.26000005E-02  -7.77814098E-12
  -3.25499997E-02  -7.40819125E-12
  -3.24999988E-02  -6.62805618E-12
  -3.24500017E-02  -5.22796693E-12
  -3.24000008E-02  -3.23271379E-12
  -3.23500000E-02  -9.08369842E-13
  -3.22999991E-02   1.34294279E-12
  -3.22499983E-02   3.15843835E-12
  -3.22000012E-02   4.38302953E-12
  -3.21500003E-02   5.15199992E-12
  -3.20999995E-02   5.84434974E-12
  -3.20499986E-02   6.92071183E-12
  -3.20000015E-02   8.71406419E-12
  -3.19500007E-02   1.12673646E-11
  -3.18999998E-02   1.42958666E-11
  -3.18499990E-02   1.72983329E-11
  -3.18000019E-02   1.97737833E-11
  -3.17500010E-02   2.14490144E-11
  -3.17000002E-02   2.24119664E-11
  -3.16499993E-02   2.30839722E-11
  -3.15999985E-02   2.40350032E-11
  -3.15500014E-02   2.57191560E-11
  -3.15000005E-02   2.82488286E-11
  -3.14499997E-02   3.13144441E-11
  -3.13999988E-02   3.42949905E-11
  -3.13500017E-02   3.65186215E-11
  -3.13000008E-02   3.75610688E-11
  -3.12500000E-02   3.74462059E-11
  -3.11999992E-02   3.66513590E-11
  -3.11500002E-02   3.59050775E-11
  -3.10999993E-02   3.58599574E-11
  -3.10500003E-02   3.67849327E-11
  -3.09999995E-02   3.84192851E-11
  -3.09500005E-02   4.00631195E-11
  -3.08999997E-02   4.08736170E-11
  -3.08500007E-02   4.02404290E-11
  -3.07999998E-02   3.80710949E-11
  -3.07500008E-02   3.48512573E-11
  -3.07000000E-02   3.14419532E-11
  -3.06499992E-02   2.86955650E-11
  -3.06000002E-02   2.70592802E-11
  -3.05499993E-02   2.63479880E-11
  -3.05000003E-02   2.57988058E-11
  -3.04499995E-02   2.43948316E-11
  -3.04000005E-02   2.13214862E-11
  -3.03499997E-02   1.63519840E-11
  -3.03000007E-02   9.98228930E-12
  -3.02499998E-02   3.24305621E-12
  -3.02000009E-02  -2.73885558E-12
  -3.01500000E-02  -7.23894295E-12
  -3.00999992E-02  -1.02681101E-11
  -3.00500002E-02  -1.25813596E-11
  -2.99999993E-02  -1.53457438E-11
  -2.99500003E-02  -1.96064102E-11
  -2.98999995E-02  -2.57877764E-11
  -2.98500005E-02  -3.34596170E-11
  -2.97999997E-02  -4.14856066E-11
  -2.97500007E-02  -4.85011337E-11
  -2.96999998E-02  -5.35144151E-11
  -2.96500009E-02  -5.63607112E-11
  -2.96000000E-02  -5.77962400E-11
  -2.95499992E-02  -5.91749844E-11
  -2.95000002E-02  -6.18402135E-11
  -2.94499993E-02  -6.64976130E-11
  -2.94000003E-02  -7.28551733E-11
  -2.93499995E-02  -7.97035909E-11
  -2.93000005E-02  -8.54162782E-11
  -2.92499997E-02  -8.86560200E-11
  -2.92000007E-02  -8.89741059E-11
  -2.91499998E-02  -8.70260738E-11
  -2.91000009E-02  -8.42936554E-11
  -2.90500000E-02  -8.24236235E-11
  -2.89999992E-02  -8.24725149E-11
  -2.89500002E-02  -8.43982384E-11
  -2.88999993E-02  -8.70383696E-11
  -2.88500004E-02  -8.86008628E-11
  -2.87999995E-02  -8.74602682E-11
  -2.87500005E-02  -8.29067509E-11
  -2.86999997E-02  -7.55053450E-11
  -2.86500007E-02  -6.68895772E-11
  -2.85999998E-02  -5.90651555E-11
  -2.85500009E-02  -5.35244661E-11
  -2.85000000E-02  -5.05678208E-11
  -2.84499992E-02  -4.91453336E-11
  -2.84000002E-02  -4.73063325E-11
  -2.83499993E-02  -4.30702383E-11
  -2.83000004E-02  -3.53359599E-11
  -2.82499995E-02  -2.44187899E-11
  -2.82000005E-02  -1.19609531E-11
  -2.81499997E-02  -2.39436536E-13
  -2.81000007E-02   8.83121180E-12
  -2.80499998E-02   1.45565747E-11
  -2.80000009E-02   1.77874902E-11
  -2.79500000E-02   2.05503652E-11
  -2.78999992E-02   2.51316988E-11
  -2.78500002E-02   3.30176164E-11
  -2.77999993E-02   4.41656503E-11
  -2.77500004E-02   5.69487443E-11
  -2.76999995E-02   6.88156199E-11
  -2.76500005E-02   7.73884845E-11
  -2.75999997E-02   8.15133724E-11
  -2.75500007E-02   8.17873408E-11
  -2.74999999E-02   8.03111744E-11
  -2.74500009E-02   7.97600735E-11
  -2.74000000E-02   8.21758842E-11
  -2.73499992E-02   8.80196679E-11
  -2.73000002E-02   9.59185301E-11
  -2.72499993E-02   1.03237183E-10
  -2.72000004E-02   1.07234409E-10
  -2.71499995E-02   1.06294654E-10
  -2.71000005E-02   1.00679722E-10
  -2.70499997E-02   9.24491941E-11
  -2.70000007E-02   8.45668743E-11
  -2.69499999E-02   7.95786215E-11
  -2.69000009E-02   7.84499410E-11
  -2.68500000E-02   8.00924813E-11
  -2.67999992E-02   8.18091359E-11
  -2.67500002E-02   8.04774025E-11
  -2.66999993E-02   7.39530451E-11
  -2.66500004E-02   6.20657345E-11
  -2.65999995E-02   4.67491081E-11
  -2.65500005E-02   3.12292033E-11
  -2.64999997E-02   1.86184818E-11
  -2.64500007E-02   1.05381120E-11
  -2.63999999E-02   6.39062718E-12
  -2.63500009E-02   3.62374410E-12
  -2.63000000E-02  -1.11490450E-12
  -2.62499992E-02  -1.04368580E-11
  -2.62000002E-02  -2.49747011E-11
  -2.61499994E-02  -4.30122153E-11
  -2.61000004E-02  -6.11670159E-11
  -2.60499995E-02  -7.58377666E-11
  -2.60000005E-02  -8.47773865E-11
  -2.59499997E-02  -8.80844980E-11
  -2.59000007E-02  -8.81547196E-11
  -2.58499999E-02  -8.85945900E-11
  -2.58000009E-02  -9.25687027E-11
  -2.57500000E-02  -1.01314880E-10
  -2.56999992E-02  -1.13499737E-10
  -2.56500002E-02  -1.25719310E-10
  -2.55999994E-02  -1.33938541E-10
  -2.55500004E-02  -1.35236516E-10
  -2.54999995E-02  -1.29075833E-10
  -2.54500005E-02  -1.17516843E-10
  -2.53999997E-02  -1.04264160E-10
  -2.53500007E-02  -9.29578706E-11
  -2.52999999E-02  -8.54698881E-11
  -2.52500009E-02  -8.09750947E-11
  -2.52000000E-02  -7.62295296E-11
  -2.51499992E-02  -6.69498970E-11
  -2.51000002E-02  -4.96900229E-11
  -2.50499994E-02  -2.33763928E-11
  -2.50000004E-02   1.01937261E-11
  -2.49499995E-02   4.71309693E-11
  -2.49000005E-02   8.31762090E-11
  -2.48499997E-02   1.15603284E-10
  -2.48000007E-02   1.44447371E-10
  -2.47499999E-02   1.72496628E-10
  -2.47000009E-02   2.04035566E-10
  -2.46500000E-02   2.42891485E-10
  -2.45999992E-02   2.90656527E-10
  -2.45500002E-02   3.45889761E-10
  -2.44999994E-02   4.04669936E-10
  -2.44500004E-02   4.62265670E-10
  -2.43999995E-02   5.15180232E-10
  -2.43500005E-02   5.62651148E-10
  -2.42999997E-02   6.06919459E-10
  -2.42500007E-02   6.52130905E-10
  -2.41999999E-02   7.02349234E-10
  -2.41500009E-02   7.59566854E-10
  -2.41000000E-02   8.22612090E-10
  -2.40499992E-02   8.87456553E-10
  -2.40000002E-02   9.48799705E-10
  -2.39499994E-02   1.00223030E-09
  -2.39000004E-02   1.04599573E-09
  -2.38499995E-02   1.08157905E-09
  -2.38000005E-02   1.11281195E-09
  -2.37499997E-02   1.14391352E-09
  -2.37000007E-02   1.17733046E-09
  -2.36499999E-02   1.21235344E-09
  -2.36000009E-02   1.24514377E-09
  -2.35500000E-02   1.27016853E-09
  -2.34999992E-02   1.28240896E-09
  -2.34500002E-02   1.27934929E-09
  -2.33999994E-02   1.26184352E-09
  -2.33500004E-02   1.23346122E-09
  -2.32999995E-02   1.19859400E-09
  -2.32500006E-02   1.16017040E-09
  -2.31999997E-02   1.11801113E-09
  -2.31500007E-02   1.06857123E-09
  -2.30999999E-02   1.00619901E-09
  -2.30500009E-02   9.25351185E-10
  -2.30000000E-02   8.22771573E-10
  -2.29499992E-02   6.98646918E-10
  -2.29000002E-02   5.56214963E-10
  -2.28499994E-02   3.99993982E-10
  -2.28000004E-02   2.33431829E-10
  -2.27499995E-02   5.70371077E-11
  -2.27000006E-02  -1.32155911E-10
  -2.26499997E-02  -3.39539757E-10
  -2.26000007E-02  -5.70770320E-10
  -2.25499999E-02  -8.29466773E-10
  -2.25000009E-02  -1.11581588E-09
  -2.24500000E-02  -1.42672074E-09
  -2.23999992E-02  -1.75743553E-09
  -2.23500002E-02  -2.10394768E-09
  -2.22999994E-02  -2.46503151E-09
  -2.22500004E-02  -2.84303958E-09
  -2.21999995E-02  -3.24306826E-09
  -2.21500006E-02  -3.67086672E-09
  -2.20999997E-02  -4.13044576E-09
  -2.20500007E-02  -4.62245708E-09
  -2.19999999E-02  -5.14409670E-09
  -2.19500009E-02  -5.69057335E-09
  -2.19000001E-02  -6.25746654E-09
  -2.18499992E-02  -6.84292178E-09
  -2.18000002E-02  -7.44865769E-09
  -2.17499994E-02  -8.07934253E-09
  -2.17000004E-02  -8.74060557E-09
  -2.16499995E-02  -9.43659728E-09
  -2.16000006E-02  -1.01681996E-08
  -2.15499997E-02  -1.09327249E-08
  -2.15000007E-02  -1.17252164E-08
  -2.14499999E-02  -1.25407924E-08
  -2.14000009E-02  -1.33769333E-08
  -2.13500001E-02  -1.42347067E-08
  -2.12999992E-02  -1.51183368E-08
  -2.12500002E-02  -1.60333418E-08
  -2.11999994E-02  -1.69840817E-08
  -2.11500004E-02  -1.79718374E-08
  -2.10999995E-02  -1.89943030E-08
  -2.10500006E-02  -2.00467341E-08
  -2.09999997E-02  -2.11242028E-08
  -2.09500007E-02  -2.22239400E-08
  -2.08999999E-02  -2.33466881E-08
  -2.08500009E-02  -2.44964298E-08
  -2.08000001E-02  -2.56786290E-08
  -2.07499992E-02  -2.68977729E-08
  -2.07000002E-02  -2.81553820E-08
  -2.06499994E-02  -2.94493834E-08
  -2.06000004E-02  -3.07751122E-08
  -2.05499995E-02  -3.21275664E-08
  -2.05000006E-02  -3.35037917E-08
  -2.04499997E-02  -3.49043603E-08
  -2.04000007E-02  -3.63332262E-08
  -2.03499999E-02  -3.77960667E-08
  -2.03000009E-02  -3.92978201E-08
  -2.02500001E-02  -4.08406216E-08
  -2.01999992E-02  -4.24230606E-08
  -2.01500002E-02  -4.40410766E-08
  -2.00999994E-02  -4.56901645E-08
  -2.00500004E-02  -4.73677630E-08
  -1.99999996E-02  -4.90748207E-08
  -1.99500006E-02  -5.08157036E-08
  -1.98999997E-02  -5.25965937E-08
  -1.98500007E-02  -5.44230119E-08
  -1.97999999E-02  -5.62976723E-08
  -1.97500009E-02  -5.82196940E-08
  -1.97000001E-02  -6.01854566E-08
  -1.96499992E-02  -6.21907716E-08
  -1.96000002E-02  -6.42333973E-08
  -1.95499994E-02  -6.63146196E-08
  -1.95000004E-02  -6.84392987E-08
  -1.94499996E-02  -7.06142558E-08
  -1.94000006E-02  -7.28457792E-08
  -1.93499997E-02  -7.51374145E-08
  -1.93000007E-02  -7.74890836E-08
  -1.92499999E-02  -7.98979158E-08
  -1.92000009E-02  -8.23604580E-08
  -1.91500001E-02  -8.48751895E-08
  -1.90999992E-02  -8.74441710E-08
  -1.90500002E-02  -9.00731010E-08
  -1.89999994E-02  -9.27696604E-08
  -1.89500004E-02  -9.55409334E-08
  -1.88999996E-02  -9.83911264E-08
  -1.88500006E-02  -1.01320644E-07
  -1.87999997E-02  -1.04326915E-07
  -1.87500007E-02  -1.07406713E-07
  -1.86999999E-02  -1.10558808E-07
  -1.86500009E-02  -1.13785731E-07
  -1.86000001E-02  -1.17093826E-07
  -1.85499992E-02  -1.20491563E-07
  -1.85000002E-02  -1.23986865E-07
  -1.84499994E-02  -1.27584570E-07
  -1.84000004E-02  -1.31285574E-07
  -1.83499996E-02  -1.35087660E-07
  -1.83000006E-02  -1.38987858E-07
  -1.82499997E-02  -1.42985357E-07
  -1.82000007E-02  -1.47083355E-07
  -1.81499999E-02  -1.51289129E-07
  -1.81000009E-02  -1.55612184E-07
  -1.80500001E-02  -1.60061447E-07
  -1.79999992E-02  -1.64642557E-07
  -1.79500002E-02  -1.69356781E-07
  -1.78999994E-02  -1.74201972E-07
  -1.78500004E-02  -1.79175103E-07
  -1.77999996E-02  -1.84275322E-07
  -1.77500006E-02  -1.89506096E-07
  -1.76999997E-02  -1.94875284E-07
  -1.76500008E-02  -2.00393302E-07
  -1.75999999E-02  -2.06070013E-07
  -1.75500009E-02  -2.11911896E-07
  -1.75000001E-02  -2.17920757E-07
  -1.74499992E-02  -2.24094663E-07
  -1.74000002E-02  -2.30430686E-07
  -1.73499994E-02  -2.36928315E-07
  -1.73000004E-02  -2.43591671E-07
  -1.72499996E-02  -2.50429792E-07
  -1.72000006E-02  -2.57454673E-07
  -1.71499997E-02  -2.64677794E-07
  -1.71000008E-02  -2.72106945E-07
  -1.70499999E-02  -2.79744739E-07
  -1.70000009E-02  -2.87589529E-07
  -1.69500001E-02  -2.95638330E-07
  -1.68999992E-02  -3.03890488E-07
  -1.68500002E-02  -3.12350323E-07
  -1.67999994E-02  -3.21027727E-07
  -1.67500004E-02  -3.29935858E-07
  -1.66999996E-02  -3.39087762E-07
  -1.66500006E-02  -3.48492506E-07
  -1.65999997E-02  -3.58153784E-07
  -1.65500008E-02  -3.68070346E-07
  -1.64999999E-02  -3.78239378E-07
  -1.64500009E-02  -3.88660425E-07
  -1.64000001E-02  -3.99338546E-07
  -1.63499992E-02  -4.10285054E-07
  -1.63000003E-02  -4.21515239E-07
  -1.62499994E-02  -4.33044505E-07
  -1.62000004E-02  -4.44884392E-07
  -1.61499996E-02  -4.57040187E-07
  -1.61000006E-02  -4.69511662E-07
  -1.60499997E-02  -4.82296400E-07
  -1.60000008E-02  -4.95394090E-07
  -1.59499999E-02  -5.08809990E-07
  -1.59000009E-02  -5.22556491E-07
  -1.58500001E-02  -5.36650532E-07
  -1.57999992E-02  -5.51109906E-07
  -1.57500003E-02  -5.65948426E-07
  -1.56999994E-02  -5.81173481E-07
  -1.56500004E-02  -5.96786322E-07
  -1.55999996E-02  -6.12785414E-07
  -1.55499997E-02  -6.29171097E-07
  -1.54999997E-02  -6.45949910E-07
  -1.54499998E-02  -6.63135836E-07
  -1.53999999E-02  -6.80748713E-07
  -1.53500000E-02  -6.98809572E-07
  -1.53000001E-02  -7.17335695E-07
  -1.52500002E-02  -7.36337483E-07
  -1.52000003E-02  -7.55818462E-07
  -1.51500003E-02  -7.75778119E-07
  -1.51000004E-02  -7.96217762E-07
  -1.50499996E-02  -8.17144496E-07
  -1.49999997E-02  -8.38573726E-07
  -1.49499997E-02  -8.60527734E-07
  -1.48999998E-02  -8.83030509E-07
  -1.48499999E-02  -9.06102684E-07
  -1.48000000E-02  -9.29757846E-07
  -1.47500001E-02  -9.54001621E-07
  -1.47000002E-02  -9.78835374E-07
  -1.46500003E-02  -1.00426121E-06
  -1.46000003E-02  -1.03028742E-06
  -1.45500004E-02  -1.05693152E-06
  -1.44999996E-02  -1.08421807E-06
  -1.44499997E-02  -1.11217514E-06
  -1.43999998E-02  -1.14082729E-06
  -1.43499998E-02  -1.17019204E-06
  -1.42999999E-02  -1.20027823E-06
  -1.42500000E-02  -1.23108919E-06
  -1.42000001E-02  -1.26262830E-06
  -1.41500002E-02  -1.29490468E-06
  -1.41000003E-02  -1.32793673E-06
  -1.40500003E-02  -1.36175174E-06
  -1.40000004E-02  -1.39638041E-06
  -1.39499996E-02  -1.43185139E-06
  -1.38999997E-02  -1.46818581E-06
  -1.38499998E-02  -1.50539529E-06
  -1.37999998E-02  -1.54348538E-06
  -1.37499999E-02  -1.58246053E-06
  -1.37000000E-02  -1.62233096E-06
  -1.36500001E-02  -1.66311656E-06
  -1.36000002E-02  -1.70484702E-06
  -1.35500003E-02  -1.74755667E-06
  -1.35000004E-02  -1.79127801E-06
  -1.34500004E-02  -1.83603674E-06
  -1.33999996E-02  -1.88184833E-06
  -1.33499997E-02  -1.92872085E-06
  -1.32999998E-02  -1.97666054E-06
  -1.32499998E-02  -2.02567912E-06
  -1.31999999E-02  -2.07579797E-06
  -1.31500000E-02  -2.12704867E-06
  -1.31000001E-02  -2.17946854E-06
  -1.30500002E-02  -2.23309462E-06
  -1.30000003E-02  -2.28795557E-06
  -1.29500004E-02  -2.34407162E-06
  -1.29000004E-02  -2.40145278E-06
  -1.28499996E-02  -2.46010723E-06
  -1.27999997E-02  -2.52004793E-06
  -1.27499998E-02  -2.58129739E-06
  -1.26999998E-02  -2.64388950E-06
  -1.26499999E-02  -2.70786518E-06
  -1.26000000E-02  -2.77326626E-06
  -1.25500001E-02  -2.84012731E-06
  -1.25000002E-02  -2.90847288E-06
  -1.24500003E-02  -2.97831684E-06
  -1.24000004E-02  -3.04967080E-06
  -1.23500004E-02  -3.12254951E-06
  -1.22999996E-02  -3.19697710E-06
  -1.22499997E-02  -3.27298903E-06
  -1.21999998E-02  -3.35062919E-06
  -1.21499998E-02  -3.42994326E-06
  -1.20999999E-02  -3.51096992E-06
  -1.20500000E-02  -3.59373712E-06
  -1.20000001E-02  -3.67826328E-06
  -1.19500002E-02  -3.76456182E-06
  -1.19000003E-02  -3.85264866E-06
  -1.18500004E-02  -3.94254994E-06
  -1.18000004E-02  -4.03430431E-06
  -1.17499996E-02  -4.12795998E-06
  -1.16999997E-02  -4.22356788E-06
  -1.16499998E-02  -4.32117167E-06
  -1.15999999E-02  -4.42080545E-06
  -1.15499999E-02  -4.52249151E-06
  -1.15000000E-02  -4.62624575E-06
  -1.14500001E-02  -4.73208684E-06
  -1.14000002E-02  -4.84004204E-06
  -1.13500003E-02  -4.95015183E-06
  -1.13000004E-02  -5.06246624E-06
  -1.12500004E-02  -5.17703984E-06
  -1.11999996E-02  -5.29392082E-06
  -1.11499997E-02  -5.41314739E-06
  -1.10999998E-02  -5.53474729E-06
  -1.10499999E-02  -5.65874006E-06
  -1.09999999E-02  -5.78514710E-06
  -1.09500000E-02  -5.91400112E-06
  -1.09000001E-02  -6.04534534E-06
  -1.08500002E-02  -6.17923433E-06
  -1.08000003E-02  -6.31572675E-06
  -1.07500004E-02  -6.45487671E-06
  -1.07000005E-02  -6.59672696E-06
  -1.06499996E-02  -6.74130933E-06
  -1.05999997E-02  -6.88864702E-06
  -1.05499998E-02  -7.03876458E-06
  -1.04999999E-02  -7.19169384E-06
  -1.04499999E-02  -7.34747982E-06
  -1.04000000E-02  -7.50617846E-06
  -1.03500001E-02  -7.66785342E-06
  -1.03000002E-02  -7.83256382E-06
  -1.02500003E-02  -8.00035832E-06
  -1.02000004E-02  -8.17127238E-06
  -1.01500005E-02  -8.34533512E-06
  -1.00999996E-02  -8.52257290E-06
  -1.00499997E-02  -8.70302301E-06
  -9.99999978E-03  -8.88673276E-06
  -9.94999986E-03  -9.07376307E-06
  -9.89999995E-03  -9.26418124E-06
  -9.85000003E-03  -9.45805186E-06
  -9.80000012E-03  -9.65542858E-06
  -9.75000020E-03  -9.85635143E-06
  -9.70000029E-03  -1.00608531E-05
  -9.65000037E-03  -1.02689628E-05
  -9.60000046E-03  -1.04807159E-05
  -9.54999961E-03  -1.06961634E-05
  -9.49999969E-03  -1.09153689E-05
  -9.44999978E-03  -1.11383988E-05
  -9.39999986E-03  -1.13653250E-05
  -9.34999995E-03  -1.15961984E-05
  -9.30000003E-03  -1.18310654E-05
  -9.25000012E-03  -1.20699597E-05
  -9.20000020E-03  -1.23129084E-05
  -9.15000029E-03  -1.25599536E-05
  -9.10000037E-03  -1.28111478E-05
  -9.05000046E-03  -1.30665558E-05
  -8.99999961E-03  -1.33262547E-05
  -8.94999970E-03  -1.35903138E-05
  -8.89999978E-03  -1.38587957E-05
  -8.84999987E-03  -1.41317487E-05
  -8.79999995E-03  -1.44092073E-05
  -8.75000004E-03  -1.46912062E-05
  -8.70000012E-03  -1.49777861E-05
  -8.65000021E-03  -1.52689991E-05
  -8.60000029E-03  -1.55649159E-05
  -8.55000038E-03  -1.58656112E-05
  -8.50000046E-03  -1.61711596E-05
  -8.44999962E-03  -1.64816211E-05
  -8.39999970E-03  -1.67970466E-05
  -8.34999979E-03  -1.71174670E-05
  -8.29999987E-03  -1.74429169E-05
  -8.24999996E-03  -1.77734346E-05
  -8.20000004E-03  -1.81090709E-05
  -8.15000013E-03  -1.84498931E-05
  -8.10000021E-03  -1.87959795E-05
  -8.05000030E-03  -1.91474101E-05
  -8.00000038E-03  -1.95042467E-05
  -7.95000046E-03  -1.98665384E-05
  -7.89999962E-03  -2.02343235E-05
  -7.84999970E-03  -2.06076329E-05
  -7.79999979E-03  -2.09865048E-05
  -7.74999987E-03  -2.13709955E-05
  -7.69999996E-03  -2.17611760E-05
  -7.65000004E-03  -2.21571208E-05
  -7.60000013E-03  -2.25589138E-05
  -7.55000021E-03  -2.29666202E-05
  -7.49999983E-03  -2.33802839E-05
  -7.44999992E-03  -2.37999357E-05
  -7.40000000E-03  -2.42256046E-05
  -7.35000009E-03  -2.46573236E-05
  -7.30000017E-03  -2.50951416E-05
  -7.24999979E-03  -2.55391242E-05
  -7.19999988E-03  -2.59893495E-05
  -7.14999996E-03  -2.64458904E-05
  -7.10000005E-03  -2.69088141E-05
  -7.05000013E-03  -2.73781588E-05
  -7.00000022E-03  -2.78539537E-05
  -6.94999984E-03  -2.83362187E-05
  -6.89999992E-03  -2.88249812E-05
  -6.85000001E-03  -2.93202847E-05
  -6.80000009E-03  -2.98221948E-05
  -6.75000018E-03  -3.03307825E-05
  -6.69999979E-03  -3.08461204E-05
  -6.64999988E-03  -3.13682722E-05
  -6.59999996E-03  -3.18972779E-05
  -6.55000005E-03  -3.24331559E-05
  -6.50000013E-03  -3.29759205E-05
  -6.45000022E-03  -3.35255900E-05
  -6.39999984E-03  -3.40821935E-05
  -6.34999992E-03  -3.46457855E-05
  -6.30000001E-03  -3.52164316E-05
  -6.25000009E-03  -3.57942045E-05
  -6.20000018E-03  -3.63791514E-05
  -6.14999980E-03  -3.69713161E-05
  -6.09999988E-03  -3.75706986E-05
  -6.04999997E-03  -3.81773025E-05
  -6.00000005E-03  -3.87911241E-05
  -5.95000014E-03  -3.94121780E-05
  -5.90000022E-03  -4.00405079E-05
  -5.84999984E-03  -4.06761683E-05
  -5.79999993E-03  -4.13192138E-05
  -5.75000001E-03  -4.19696953E-05
  -5.70000010E-03  -4.26276456E-05
  -5.65000018E-03  -4.32930537E-05
  -5.59999980E-03  -4.39659052E-05
  -5.54999989E-03  -4.46461818E-05
  -5.49999997E-03  -4.53338798E-05
  -5.45000006E-03  -4.60290139E-05
  -5.40000014E-03  -4.67316277E-05
  -5.35000023E-03  -4.74417793E-05
  -5.29999984E-03  -4.81595052E-05
  -5.24999993E-03  -4.88848091E-05
  -5.20000001E-03  -4.96176726E-05
  -5.15000010E-03  -5.03580522E-05
  -5.10000018E-03  -5.11059152E-05
  -5.04999980E-03  -5.18612324E-05
  -4.99999989E-03  -5.26239892E-05
  -4.94999997E-03  -5.33942148E-05
  -4.90000006E-03  -5.41719273E-05
  -4.85000014E-03  -5.49571523E-05
  -4.80000023E-03  -5.57498861E-05
  -4.74999985E-03  -5.65500886E-05
  -4.69999993E-03  -5.73576872E-05
  -4.65000002E-03  -5.81726163E-05
  -4.60000010E-03  -5.89948104E-05
  -4.55000019E-03  -5.98242405E-05
  -4.49999981E-03  -6.06608955E-05
  -4.44999989E-03  -6.15047829E-05
  -4.39999998E-03  -6.23559026E-05
  -4.35000006E-03  -6.32142255E-05
  -4.30000015E-03  -6.40796861E-05
  -4.25000023E-03  -6.49521899E-05
  -4.19999985E-03  -6.58316421E-05
  -4.14999994E-03  -6.67179411E-05
  -4.10000002E-03  -6.76110139E-05
  -4.05000011E-03  -6.85108243E-05
  -4.00000019E-03  -6.94173432E-05
  -3.94999981E-03  -7.03305486E-05
  -3.89999989E-03  -7.12503897E-05
  -3.84999998E-03  -7.21767574E-05
  -3.80000006E-03  -7.31095424E-05
  -3.74999992E-03  -7.40485848E-05
  -3.70000000E-03  -7.49937462E-05
  -3.65000009E-03  -7.59449103E-05
  -3.59999994E-03  -7.69019971E-05
  -3.55000002E-03  -7.78649555E-05
  -3.50000011E-03  -7.88337056E-05
  -3.44999996E-03  -7.98081819E-05
  -3.40000005E-03  -8.07882316E-05
  -3.34999990E-03  -8.17737091E-05
  -3.29999998E-03  -8.27644180E-05
  -3.25000007E-03  -8.37601765E-05
  -3.19999992E-03  -8.47608171E-05
  -3.15000000E-03  -8.57662308E-05
  -3.10000009E-03  -8.67762865E-05
  -3.04999994E-03  -8.77908897E-05
  -3.00000003E-03  -8.88099166E-05
  -2.95000011E-03  -8.98332219E-05
  -2.89999996E-03  -9.08605798E-05
  -2.85000005E-03  -9.18917649E-05
  -2.79999990E-03  -9.29265443E-05
  -2.74999999E-03  -9.39646707E-05
  -2.70000007E-03  -9.50059693E-05
  -2.64999992E-03  -9.60502875E-05
  -2.60000001E-03  -9.70974652E-05
  -2.55000009E-03  -9.81473495E-05
  -2.49999994E-03  -9.91997222E-05
  -2.45000003E-03  -1.00254329E-04
  -2.40000011E-03  -1.01310878E-04
  -2.34999997E-03  -1.02369086E-04
  -2.30000005E-03  -1.03428647E-04
  -2.24999990E-03  -1.04489336E-04
  -2.19999999E-03  -1.05550906E-04
  -2.15000007E-03  -1.06613174E-04
  -2.09999993E-03  -1.07675922E-04
  -2.05000001E-03  -1.08738896E-04
  -2.00000009E-03  -1.09801789E-04
  -1.94999995E-03  -1.10864254E-04
  -1.90000003E-03  -1.11925932E-04
  -1.85000000E-03  -1.12986490E-04
  -1.79999997E-03  -1.14045593E-04
  -1.75000005E-03  -1.15102957E-04
  -1.70000002E-03  -1.16158328E-04
  -1.64999999E-03  -1.17211435E-04
  -1.59999996E-03  -1.18261953E-04
  -1.55000004E-03  -1.19309538E-04
  -1.50000001E-03  -1.20353769E-04
  -1.44999998E-03  -1.21394223E-04
  -1.39999995E-03  -1.22430487E-04
  -1.35000004E-03  -1.23462130E-04
  -1.30000000E-03  -1.24488797E-04
  -1.24999997E-03  -1.25510182E-04
  -1.20000006E-03  -1.26525934E-04
  -1.15000003E-03  -1.27535706E-04
  -1.09999999E-03  -1.28539061E-04
  -1.04999996E-03  -1.29535547E-04
  -1.00000005E-03  -1.30524641E-04
  -9.50000016E-04  -1.31505847E-04
  -8.99999985E-04  -1.32478715E-04
  -8.50000011E-04  -1.33442765E-04
  -7.99999980E-04  -1.34397618E-04
  -7.50000007E-04  -1.35342896E-04
  -6.99999975E-04  -1.36278162E-04
  -6.50000002E-04  -1.37202922E-04
  -6.00000028E-04  -1.38116637E-04
  -5.49999997E-04  -1.39018739E-04
  -5.00000024E-04  -1.39908647E-04
  -4.49999992E-04  -1.40785793E-04
  -3.99999990E-04  -1.41649682E-04
  -3.49999988E-04  -1.42499790E-04
  -3.00000014E-04  -1.43335667E-04
  -2.50000012E-04  -1.44156817E-04
  -1.99999995E-04  -1.44962672E-04
  -1.50000007E-04  -1.45752623E-04
  -9.99999975E-05  -1.46526043E-04
  -4.99999987E-05  -1.47282233E-04
   0.00000000      -1.48020568E-04
   4.99999987E-05  -1.48740466E-04
   9.99999975E-05  -1.49441315E-04
   1.50000007E-04  -1.50122607E-04
   1.99999995E-04  -1.50783759E-04
   2.50000012E-04  -1.51424145E-04
   3.00000014E-04  -1.52043111E-04
   3.49999988E-04  -1.52639914E-04
   3.99999990E-04  -1.53213812E-04
   4.49999992E-04  -1.53764078E-04
   5.00000024E-04  -1.54290014E-04
   5.49999997E-04  -1.54790963E-04
   6.00000028E-04  -1.55266287E-04
   6.50000002E-04  -1.55715359E-04
   6.99999975E-04  -1.56137481E-04
   7.50000007E-04  -1.56531925E-04
   7.99999980E-04  -1.56897906E-04
   8.50000011E-04  -1.57234579E-04
   8.99999985E-04  -1.57541130E-04
   9.50000016E-04  -1.57816758E-04
   1.00000005E-03  -1.58060735E-04
   1.04999996E-03  -1.58272305E-04
   1.09999999E-03  -1.58450814E-04
   1.15000003E-03  -1.58595474E-04
   1.20000006E-03  -1.58705501E-04
   1.24999997E-03  -1.58780051E-04
   1.30000000E-03  -1.58818220E-04
   1.35000004E-03  -1.58819093E-04
   1.39999995E-03  -1.58781768E-04
   1.44999998E-03  -1.58705399E-04
   1.50000001E-03  -1.58589217E-04
   1.55000004E-03  -1.58432420E-04
   1.59999996E-03  -1.58234237E-04
   1.64999999E-03  -1.57993811E-04
   1.70000002E-03  -1.57710223E-04
   1.75000005E-03  -1.57382528E-04
   1.79999997E-03  -1.57009723E-04
   1.85000000E-03  -1.56590788E-04
   1.90000003E-03  -1.56124821E-04
   1.94999995E-03  -1.55610920E-04
   2.00000009E-03  -1.55048285E-04
   2.05000001E-03  -1.54436042E-04
   2.09999993E-03  -1.53773275E-04
   2.15000007E-03  -1.53059038E-04
   2.19999999E-03  -1.52292283E-04
   2.24999990E-03  -1.51471977E-04
   2.30000005E-03  -1.50597043E-04
   2.34999997E-03  -1.49666477E-04
   2.40000011E-03  -1.48679319E-04
   2.45000003E-03  -1.47634681E-04
   2.49999994E-03  -1.46531645E-04
   2.55000009E-03  -1.45369268E-04
   2.60000001E-03  -1.44146557E-04
   2.64999992E-03  -1.42862438E-04
   2.70000007E-03  -1.41515775E-04
   2.74999999E-03  -1.40105476E-04
   2.79999990E-03  -1.38630465E-04