  -3.99999991E-02   0.00000000    
  -3.99499983E-02   0.00000000    
  -3.99000011E-02   0.00000000    
  -3.98500003E-02   0.00000000    
  -3.97999994E-02  -3.38968193E-17
  -3.97499986E-02  -2.60626532E-16
  -3.97000015E-02  -1.00892635E-15
  -3.96500006E-02  -2.65647955E-15
  -3.95999998E-02  -5.47504606E-15
  -3.95499989E-02  -9.72491317E-15
  -3.95000018E-02  -1.58949493E-14
  -3.94500010E-02  -2.44494281E-14
  -3.94000001E-02  -3.47677887E-14
  -3.93499993E-02  -4.42391112E-14
  -3.92999984E-02  -4.91335793E-14
  -3.92500013E-02  -4.74368808E-14
  -3.92000005E-02  -4.13254297E-14
  -3.91499996E-02  -3.64289118E-14
  -3.90999988E-02  -3.78447850E-14
  -3.90500017E-02  -4.62980687E-14
  -3.90000008E-02  -5.77532610E-14
  -3.89500000E-02  -6.59575340E-14
  -3.88999991E-02  -6.44569914E-14
  -3.88499983E-02  -4.64820816E-14
  -3.88000011E-02  -5.37070134E-15
  -3.87500003E-02   6.14472056E-14
  -3.86999995E-02   1.47291684E-13
  -3.86499986E-02   2.37025975E-13
  -3.86000015E-02   3.17377987E-13
  -3.85500006E-02   3.90246239E-13
  -3.84999998E-02   4.76824472E-13
  -3.84499989E-02   6.07173437E-13
  -3.84000018E-02   8.03202123E-13
  -3.83500010E-02   1.06856917E-12
  -3.83000001E-02   1.39068726E-12
  -3.82499993E-02   1.74788808E-12
  -3.81999984E-02   2.11334249E-12
  -3.81500013E-02   2.45723906E-12
  -3.81000005E-02   2.75545428E-12
  -3.80499996E-02   3.00522714E-12
  -3.79999988E-02   3.23431039E-12
  -3.79500017E-02   3.48909313E-12
  -3.79000008E-02   3.80532064E-12
  -3.78500000E-02   4.18425451E-12
  -3.77999991E-02   4.59456908E-12
  -3.77499983E-02   4.99604958E-12
  -3.77000012E-02   5.36108224E-12
  -3.76500003E-02   5.67611713E-12
  -3.75999995E-02   5.92984776E-12
  -3.75499986E-02   6.10833736E-12
  -3.75000015E-02   6.20390544E-12
  -3.74500006E-02   6.22237114E-12
  -3.73999998E-02   6.17152249E-12
  -3.73499990E-02   6.03672017E-12
  -3.73000018E-02   5.76884721E-12
  -3.72500010E-02   5.29921202E-12
  -3.72000001E-02   4.56626533E-12
  -3.71499993E-02   3.52628473E-12
  -3.70999984E-02   2.14277402E-12
  -3.70500013E-02   3.81308104E-13
  -3.70000005E-02  -1.76392093E-12
  -3.69499996E-02  -4.22401350E-12
  -3.68999988E-02  -6.83748154E-12
  -3.68500017E-02  -9.39698406E-12
  -3.68000008E-02  -1.17443581E-11
  -3.67500000E-02  -1.38557013E-11
  -3.66999991E-02  -1.58664314E-11
  -3.66499983E-02  -1.80302474E-11
  -3.66000012E-02  -2.06384163E-11
  -3.65500003E-02  -2.39240572E-11
  -3.64999995E-02  -2.79658605E-11
  -3.64499986E-02  -3.26186821E-11
  -3.64000015E-02  -3.75236474E-11
  -3.63500006E-02  -4.22374045E-11
  -3.62999998E-02  -4.64461247E-11
  -3.62499990E-02  -5.01440868E-11
  -3.62000018E-02  -5.36446408E-11
  -3.61500010E-02  -5.73836950E-11
  -3.61000001E-02  -6.16110843E-11
  -3.60499993E-02  -6.61422098E-11
  -3.59999985E-02  -7.03110417E-11
  -3.59500013E-02  -7.31641830E-11
  -3.59000005E-02  -7.38325998E-11
  -3.58499996E-02  -7.19484264E-11
  -3.57999988E-02  -6.79360526E-11
  -3.57500017E-02  -6.30043170E-11
  -3.57000008E-02  -5.87456056E-11
  -3.56500000E-02  -5.64268389E-11
  -3.55999991E-02  -5.62698776E-11
  -3.55499983E-02  -5.71152431E-11
  -3.55000012E-02  -5.67291283E-11
  -3.54500003E-02  -5.26950879E-11
  -3.53999995E-02  -4.35074164E-11
  -3.53499986E-02  -2.93466952E-11
  -3.53000015E-02  -1.21444087E-11
  -3.52500007E-02   5.15393587E-12
  -3.51999998E-02   1.98741960E-11
  -3.51499990E-02   3.09325968E-11
  -3.51000018E-02   3.95817372E-11
  -3.50500010E-02   4.91288434E-11
  -3.50000001E-02   6.35806546E-11
  -3.49499993E-02   8.57112367E-11
  -3.48999985E-02   1.15453036E-10
  -3.48500013E-02   1.49492571E-10
  -3.48000005E-02   1.82436038E-10
  -3.47499996E-02   2.09132517E-10
  -3.46999988E-02   2.27112454E-10
  -3.46500017E-02   2.37960873E-10
  -3.46000008E-02   2.46871051E-10
  -3.45500000E-02   2.60420047E-10
  -3.44999991E-02   2.83430779E-10
  -3.44499983E-02   3.16301707E-10
  -3.44000012E-02   3.54146934E-10
  -3.43500003E-02   3.88415911E-10
  -3.42999995E-02   4.10542017E-10
  -3.42499986E-02   4.16078033E-10
  -3.42000015E-02   4.07297307E-10
  -3.41500007E-02   3.92757576E-10
  -3.40999998E-02   3.83691523E-10
  -3.40499990E-02   3.88676341E-10
  -3.40000018E-02   4.09022427E-10
  -3.39500010E-02   4.37178377E-10
  -3.39000002E-02   4.59194793E-10
  -3.38499993E-02   4.60471716E-10
  -3.37999985E-02   4.32421376E-10
  -3.37500013E-02   3.77009146E-10
  -3.37000005E-02   3.06793396E-10
  -3.36499996E-02   2.39942316E-10
  -3.35999988E-02   1.92067709E-10
  -3.35500017E-02   1.68504141E-10
  -3.35000008E-02   1.60841077E-10
  -3.34500000E-02   1.49799173E-10
  -3.33999991E-02   1.13612363E-10
  -3.33499983E-02   3.83199097E-11
  -3.33000012E-02  -7.48168402E-11
  -3.32500003E-02  -2.08524156E-10
  -3.31999995E-02  -3.36231681E-10
  -3.31499986E-02  -4.33733466E-10
  -3.31000015E-02  -4.90720076E-10
  -3.30500007E-02  -5.16723220E-10
  -3.29999998E-02  -5.38148692E-10
  -3.29499990E-02  -5.86990401E-10
  -3.29000019E-02  -6.85892787E-10
  -3.28500010E-02  -8.36438363E-10
  -3.28000002E-02  -1.01656772E-09
  -3.27499993E-02  -1.18909438E-09
  -3.26999985E-02  -1.31801536E-09
  -3.26500013E-02  -1.38533407E-09
  -3.26000005E-02  -1.40041634E-09
  -3.25499997E-02  -1.39693446E-09
  -3.24999988E-02  -1.41798751E-09
  -3.24500017E-02  -1.49558887E-09
  -3.24000008E-02  -1.63380054E-09
  -3.23500000E-02  -1.80382198E-09
  -3.22999991E-02  -1.95436378E-09
  -3.22499983E-02  -2.03364503E-09
  -3.22000012E-02  -2.01345829E-09
  -3.21500003E-02  -1.90394212E-09
  -3.20999995E-02  -1.75130455E-09
  -3.20499986E-02  -1.61836822E-09
  -3.20000015E-02  -1.55603475E-09
  -3.19500007E-02  -1.57854207E-09
  -3.18999998E-02  -1.65434921E-09
  -3.18499990E-02  -1.71784698E-09
  -3.18000019E-02  -1.69767089E-09
  -3.17500010E-02  -1.54947488E-09
  -3.17000002E-02  -1.27814859E-09
  -3.16499993E-02  -9.38410571E-10
  -3.15999985E-02  -6.12085271E-10
  -3.15500014E-02  -3.71297548E-10
  -3.15000005E-02  -2.44112563E-10
  -3.14499997E-02  -1.99038092E-10
  -3.13999988E-02  -1.56808871E-10
  -3.13500017E-02  -2.53892601E-11
  -3.13000008E-02   2.57087185E-10
  -3.12500000E-02   6.91215918E-10
  -3.11999992E-02   1.21217747E-09
  -3.11500002E-02   1.71587111E-09
  -3.10999993E-02   2.10470508E-09
  -3.10500003E-02   2.33275221E-09
  -3.09999995E-02   2.42917042E-09
  -3.09500005E-02   2.48771581E-09
  -3.08999997E-02   2.62534083E-09
  -3.08500007E-02   2.92764946E-09
  -3.07999998E-02   3.40623751E-09
  -3.07500008E-02   3.98863120E-09
  -3.07000000E-02   4.54716620E-09
  -3.06499992E-02   4.95508123E-09
  -3.06000002E-02   5.14476639E-09
  -3.05499993E-02   5.14108667E-09
  -3.05000003E-02   5.05314857E-09
  -3.04499995E-02   5.02641218E-09
  -3.04000005E-02   5.17554666E-09
  -3.03499997E-02   5.52823431E-09
  -3.03000007E-02   6.00656902E-09
  -3.02499998E-02   6.45658993E-09
  -3.02000009E-02   6.71458178E-09
  -3.01500000E-02   6.68101219E-09
  -3.00999992E-02   6.36799813E-09
  -3.00500002E-02   5.89709570E-09
  -2.99999993E-02   5.44651435E-09
  -2.99500003E-02   5.17038634E-09
  -2.98999995E-02   5.12642950E-09
  -2.98500005E-02   5.24563237E-09
  -2.97999997E-02   5.35939426E-09
  -2.97500007E-02   5.27365085E-09
  -2.96999998E-02   4.85757923E-09
  -2.96500009E-02   4.10660572E-09
  -2.96000000E-02   3.14962079E-09
  -2.95499992E-02   2.19494578E-09
  -2.95000002E-02   1.43772583E-09
  -2.94499993E-02   9.70323377E-10
  -2.94000003E-02   7.37296724E-10
  -2.93499995E-02   5.57141111E-10
  -2.93000005E-02   2.02815972E-10
  -2.92499997E-02  -4.94461694E-10
  -2.92000007E-02  -1.56529867E-09
  -2.91499998E-02  -2.88329716E-09
  -2.91000009E-02  -4.21757340E-09
  -2.90500000E-02  -5.33459144E-09
  -2.89999992E-02  -6.10406348E-09
  -2.89500002E-02  -6.56040644E-09
  -2.88999993E-02  -6.89001567E-09
  -2.88500004E-02  -7.34780325E-09
  -2.87999995E-02  -8.13935497E-09
  -2.87500005E-02  -9.32208888E-09
  -2.86999997E-02  -1.07715632E-08
  -2.86500007E-02  -1.22301200E-08
  -2.85999998E-02  -1.34176252E-08
  -2.85500009E-02  -1.41552956E-08
  -2.85000000E-02  -1.44465728E-08
  -2.84499992E-02  -1.44774761E-08
  -2.84000002E-02  -1.45343408E-08
  -2.83499993E-02  -1.48742156E-08
  -2.83000004E-02  -1.56054440E-08
  -2.82499995E-02  -1.66328693E-08
  -2.82000005E-02  -1.76939636E-08
  -2.81499997E-02  -1.84715461E-08
  -2.81000007E-02  -1.87334965E-08
  -2.80499998E-02  -1.84363440E-08
  -2.80000009E-02  -1.77453785E-08
  -2.79500000E-02  -1.69607723E-08
  -2.78999992E-02  -1.63819855E-08
  -2.78500002E-02  -1.61708478E-08
  -2.77999993E-02  -1.62747149E-08
  -2.77500004E-02  -1.64450427E-08
  -2.76999995E-02  -1.63444405E-08
  -2.76500005E-02  -1.56957896E-08
  -2.75999997E-02  -1.44071093E-08
  -2.75500007E-02  -1.26154296E-08
  -2.74999999E-02  -1.06287237E-08
  -2.74500009E-02  -8.79066331E-09
  -2.74000000E-02  -7.32814387E-09
  -2.73499992E-02  -6.24990859E-09
  -2.73000002E-02  -5.34230038E-09
  -2.72499993E-02  -4.26472280E-09
  -2.72000004E-02  -2.70293454E-09
  -2.71499995E-02  -5.12570875E-10
  -2.71000005E-02   2.21110485E-09
  -2.70499997E-02   5.16898480E-09
  -2.70000007E-02   7.98492206E-09
  -2.69499999E-02   1.03684510E-08
  -2.69000009E-02   1.22413528E-08
  -2.68500000E-02   1.37713778E-08
  -2.67999992E-02   1.52966564E-08
  -2.67500002E-02   1.71729972E-08
  -2.66999993E-02   1.96112140E-08
  -2.66500004E-02   2.25763728E-08
  -2.65999995E-02   2.57938204E-08
  -2.65500005E-02   2.88601427E-08
  -2.64999997E-02   3.14115702E-08
  -2.64500007E-02   3.32769368E-08
  -2.63999999E-02   3.45482576E-08
  -2.63500009E-02   3.55372833E-08
  -2.63000000E-02   3.66357966E-08
  -2.62499992E-02   3.81391025E-08
  -2.62000002E-02   4.01092528E-08
  -2.61499994E-02   4.23385416E-08
  -2.61000004E-02   4.44303616E-08
  -2.60499995E-02   4.59634109E-08
  -2.60000005E-02   4.66686068E-08
  -2.59499997E-02   4.65420840E-08
  -2.59000007E-02   4.58449563E-08
  -2.58499999E-02   4.49887239E-08
  -2.58000009E-02   4.43545680E-08
  -2.57500000E-02   4.41238264E-08
  -2.56999992E-02   4.41927490E-08
  -2.56500002E-02   4.42095747E-08
  -2.55999994E-02   4.37204619E-08
  -2.55500004E-02   4.23630802E-08
  -2.54999995E-02   4.00242044E-08
  -2.54500005E-02   3.68930024E-08
  -2.53999997E-02   3.33839942E-08
  -2.53500007E-02   2.99604537E-08
  -2.52999999E-02   2.69340106E-08
  -2.52500009E-02   2.43268463E-08
  -2.52000000E-02   2.18584031E-08
  -2.51499992E-02   1.90644691E-08
  -2.51000002E-02   1.55005484E-08
  -2.50499994E-02   1.09444187E-08
  -2.50000004E-02   5.50899992E-09
  -2.49499995E-02  -3.86582127E-10
  -2.49000005E-02  -6.18121065E-09
  -2.48499997E-02  -1.14041310E-08
  -2.48000007E-02  -1.58756368E-08
  -2.47499999E-02  -1.97868655E-08
  -2.47000009E-02  -2.36189859E-08
  -2.46500000E-02  -2.79319785E-08
  -2.45999992E-02  -3.31112275E-08
  -2.45500002E-02  -3.91813373E-08
  -2.44999994E-02  -4.57714329E-08
  -2.44500004E-02  -5.22527266E-08
  -2.43999995E-02  -5.79948463E-08
  -2.43500005E-02  -6.26328855E-08
  -2.42999997E-02  -6.62276136E-08
  -2.42500007E-02  -6.92431357E-08
  -2.41999999E-02  -7.23434681E-08
  -2.41500009E-02  -7.60914247E-08
  -2.41000000E-02  -8.06798539E-08
  -2.40499992E-02  -8.58172768E-08
  -2.40000002E-02  -9.08258571E-08
  -2.39499994E-02  -9.49156700E-08
  -2.39000004E-02  -9.75196883E-08
  -2.38499995E-02  -9.85427420E-08
  -2.38000005E-02  -9.84103536E-08
  -2.37499997E-02  -9.78871384E-08
  -2.37000007E-02  -9.77369865E-08
  -2.36499999E-02  -9.83704282E-08
  -2.36000009E-02  -9.96379512E-08
  -2.35500000E-02  -1.00870309E-07
  -2.34999992E-02  -1.01157255E-07
  -2.34500002E-02  -9.97476803E-08
  -2.33999994E-02  -9.63939186E-08
  -2.33500004E-02  -9.14809490E-08
  -2.32999995E-02  -8.58735447E-08
  -2.32500006E-02  -8.05404454E-08
  -2.31999997E-02  -7.61179635E-08
  -2.31500007E-02  -7.26083798E-08
  -2.30999999E-02  -6.93560196E-08
  -2.30500009E-02  -6.53249330E-08
  -2.30000000E-02  -5.95634475E-08
  -2.29499992E-02  -5.16509289E-08
  -2.29000002E-02  -4.19219113E-08
  -2.28499994E-02  -3.13538671E-08
  -2.28000004E-02  -2.11568985E-08
  -2.27499995E-02  -1.22426345E-08
  -2.27000006E-02  -4.81061146E-09
  -2.26499997E-02   1.75245563E-09
  -2.26000007E-02   8.60407834E-09
  -2.25499999E-02   1.69179621E-08
  -2.25000009E-02   2.73268004E-08
  -2.24500000E-02   3.95915123E-08
  -2.23999992E-02   5.26570503E-08
  -2.23500002E-02   6.50826948E-08
  -2.22999994E-02   7.56646514E-08
  -2.22500004E-02   8.39715781E-08
  -2.21999995E-02   9.05434163E-08
  -2.21500006E-02   9.66510569E-08
  -2.20999997E-02   1.03711962E-07
  -2.20500007E-02   1.12620782E-07
  -2.19999999E-02   1.23301120E-07
  -2.19500009E-02   1.34690652E-07
  -2.19000001E-02   1.45179158E-07
  -2.18499992E-02   1.53311305E-07
  -2.18000002E-02   1.58438937E-07
  -2.17499994E-02   1.61021120E-07
  -2.17000004E-02   1.62422694E-07
  -2.16499995E-02   1.64288878E-07
  -2.16000006E-02   1.67772427E-07
  -2.15499997E-02   1.72966622E-07
  -2.15000007E-02   1.78814844E-07
  -2.14499999E-02   1.83552061E-07
  -2.14000009E-02   1.85489000E-07
  -2.13500001E-02   1.83785701E-07
  -2.12999992E-02   1.78854734E-07
  -2.12500002E-02   1.72199094E-07
  -2.11999994E-02   1.65743600E-07
  -2.11500004E-02   1.60954770E-07
  -2.10999995E-02   1.58150854E-07
  -2.10500006E-02   1.56326635E-07
  -2.09999997E-02   1.53588800E-07
  -2.09500007E-02   1.48015687E-07
  -2.08999999E-02   1.38556018E-07
  -2.08500009E-02   1.25551793E-07
  -2.08000001E-02   1.10629991E-07
  -2.07499992E-02   9.59973647E-08
  -2.07000002E-02   8.34527469E-08
  -2.06499994E-02   7.35653529E-08
  -2.06000004E-02   6.54049757E-08
  -2.05499995E-02   5.69621221E-08
  -2.05000006E-02   4.60784086E-08
  -2.04499997E-02   3.14699307E-08
  -2.04000007E-02   1.33736435E-08
  -2.03499999E-02  -6.49236709E-09
  -2.03000009E-02  -2.56522252E-08
  -2.02500001E-02  -4.19601669E-08
  -2.01999992E-02  -5.45593934E-08
  -2.01500002E-02  -6.42628422E-08
  -2.00999994E-02  -7.31680956E-08
  -2.00500004E-02  -8.36714165E-08
  -1.99999996E-02  -9.73262857E-08
  -1.99500006E-02  -1.14072570E-07
  -1.98999997E-02  -1.32201123E-07
  -1.98500007E-02  -1.49081799E-07
  -1.97999999E-02  -1.62332967E-07
  -1.97500009E-02  -1.70900009E-07
  -1.97000001E-02  -1.75539327E-07
  -1.96499992E-02  -1.78471325E-07
  -1.96000002E-02  -1.82346156E-07
  -1.95499994E-02  -1.88991180E-07
  -1.95000004E-02  -1.98516801E-07
  -1.94499996E-02  -2.09204003E-07
  -1.94000006E-02  -2.18243215E-07
  -1.93499997E-02  -2.22995610E-07
  -1.93000007E-02  -2.22200043E-07
  -1.92499999E-02  -2.16566931E-07
  -1.92000009E-02  -2.08473949E-07
  -1.91500001E-02  -2.00886106E-07
  -1.90999992E-02  -1.95986331E-07
  -1.90500002E-02  -1.94146651E-07
  -1.89999994E-02  -1.93723508E-07
  -1.89500004E-02  -1.91787265E-07
  -1.88999996E-02  -1.85464501E-07
  -1.88500006E-02  -1.73283141E-07
  -1.87999997E-02  -1.55897325E-07
  -1.87500007E-02  -1.35844715E-07
  -1.86999999E-02  -1.16433590E-07
  -1.86500009E-02  -1.00259648E-07
  -1.86000001E-02  -8.80327207E-08
  -1.85499992E-02  -7.82608964E-08
  -1.85000002E-02  -6.79496281E-08
  -1.84499994E-02  -5.40073977E-08
  -1.84000004E-02  -3.47183011E-08
  -1.83499996E-02  -1.06049578E-08
  -1.83000006E-02   1.57285918E-08
  -1.82499997E-02   4.07156087E-08
  -1.82000007E-02   6.14048474E-08
  -1.81499999E-02   7.67716770E-08
  -1.81000009E-02   8.81529516E-08
  -1.80500001E-02   9.85936381E-08
  -1.79999992E-02   1.11392637E-07
  -1.79500002E-02   1.28505704E-07
  -1.78999994E-02   1.49541577E-07
  -1.78500004E-02   1.71833804E-07
  -1.77999996E-02   1.91565576E-07
  -1.77500006E-02   2.05436649E-07
  -1.76999997E-02   2.12113179E-07
  -1.76500008E-02   2.12795157E-07
  -1.75999999E-02   2.10623455E-07
  -1.75500009E-02   2.09184009E-07
  -1.75000001E-02   2.10784151E-07
  -1.74499992E-02   2.15296467E-07
  -1.74000002E-02   2.20113208E-07
  -1.73499994E-02   2.21251710E-07
  -1.73000004E-02   2.15114895E-07
  -1.72499996E-02   2.00097588E-07
  -1.72000006E-02   1.77304315E-07
  -1.71499997E-02   1.50030374E-07
  -1.71000008E-02   1.22233544E-07
  -1.70499999E-02   9.66832658E-08
  -1.70000009E-02   7.36262109E-08
  -1.69500001E-02   5.05903159E-08
  -1.68999992E-02   2.34392488E-08
  -1.68500002E-02  -1.17825563E-08
  -1.67999994E-02  -5.70629766E-08
  -1.67500004E-02  -1.11516378E-07
  -1.66999996E-02  -1.71779092E-07
  -1.66500006E-02  -2.33525881E-07
  -1.65999997E-02  -2.93433601E-07
  -1.65500008E-02  -3.50711503E-07
  -1.64999999E-02  -4.07485885E-07
  -1.64500009E-02  -4.67842398E-07
  -1.64000001E-02  -5.35954996E-07
  -1.63499992E-02  -6.14141754E-07
  -1.63000003E-02  -7.01750196E-07
  -1.62499994E-02  -7.95396431E-07
  -1.62000004E-02  -8.90445051E-07
  -1.61499996E-02  -9.83089421E-07
  -1.61000006E-02  -1.07205517E-06
  -1.60499997E-02  -1.15915566E-06
  -1.60000008E-02  -1.24846747E-06
  -1.59499999E-02  -1.34445804E-06
  -1.59000009E-02  -1.44988519E-06
  -1.58500001E-02  -1.56442923E-06
  -1.57999992E-02  -1.68472820E-06
  -1.57500003E-02  -1.80581401E-06
  -1.56999994E-02  -1.92330867E-06
  -1.56500004E-02  -2.03537411E-06
  -1.55999996E-02  -2.14348302E-06
  -1.55499997E-02  -2.25169310E-06
  -1.54999997E-02  -2.36479787E-06
  -1.54499998E-02  -2.48612673E-06
  -1.53999999E-02  -2.61590662E-06
  -1.53500000E-02  -2.75103503E-06
  -1.53000001E-02  -2.88638125E-06
  -1.52500002E-02  -3.01704745E-06
  -1.52000003E-02  -3.14057229E-06
  -1.51500003E-02  -3.25802762E-06
  -1.51000004E-02  -3.37351571E-06
  -1.50499996E-02  -3.49230550E-06
  -1.49999997E-02  -3.61843399E-06
  -1.49499997E-02  -3.75284935E-06
  -1.48999998E-02  -3.89293564E-06
  -1.48499999E-02  -4.03360627E-06
  -1.48000000E-02  -4.16953253E-06
  -1.47500001E-02  -4.29753663E-06
  -1.47000002E-02  -4.41807106E-06
  -1.46500003E-02  -4.53506300E-06
  -1.46000003E-02  -4.65420044E-06
  -1.45500004E-02  -4.78035781E-06
  -1.44999996E-02  -4.91534593E-06
  -1.44499997E-02  -5.05709795E-06
  -1.43999998E-02  -5.20062304E-06
  -1.43499998E-02  -5.34028095E-06
  -1.42999999E-02  -5.47233685E-06
  -1.42500000E-02  -5.59669479E-06
  -1.42000001E-02  -5.71702594E-06
  -1.41500002E-02  -5.83930932E-06
  -1.41000003E-02  -5.96918926E-06
  -1.40500003E-02  -6.10945153E-06
  -1.40000004E-02  -6.25883695E-06
  -1.39499996E-02  -6.41259794E-06
  -1.38999997E-02  -6.56473776E-06
  -1.38499998E-02  -6.71079852E-06
  -1.37999998E-02  -6.84998849E-06
  -1.37499999E-02  -6.98568510E-06
  -1.37000000E-02  -7.12413703E-06
  -1.36500001E-02  -7.27183169E-06
  -1.36000002E-02  -7.43255987E-06
  -1.35500003E-02  -7.60571174E-06
  -1.35000004E-02  -7.78672438E-06
  -1.34500004E-02  -7.96931545E-06
  -1.33999996E-02  -8.14813302E-06
  -1.33499997E-02  -8.32135811E-06
  -1.32999998E-02  -8.49181015E-06
  -1.32499998E-02  -8.66583105E-06
  -1.31999999E-02  -8.85077498E-06
  -1.31500000E-02  -9.05171510E-06
  -1.31000001E-02  -9.26913890E-06
  -1.30500002E-02  -9.49895457E-06
  -1.30000003E-02  -9.73438819E-06
  -1.29500004E-02  -9.96910239E-06
  -1.29000004E-02  -1.02002550E-05
  -1.28499996E-02  -1.04298369E-05
  -1.27999997E-02  -1.06638154E-05
  -1.27499998E-02  -1.09096609E-05
  -1.26999998E-02  -1.11734362E-05
  -1.26499999E-02  -1.14570048E-05
  -1.26000000E-02  -1.17570116E-05
  -1.25500001E-02  -1.20666018E-05
  -1.25000002E-02  -1.23785785E-05
  -1.24500003E-02  -1.26888799E-05
  -1.24000004E-02  -1.29985374E-05
  -1.23500004E-02  -1.33132316E-05
  -1.22999996E-02  -1.36409481E-05
  -1.22499997E-02  -1.39883141E-05
  -1.21999998E-02  -1.43575608E-05
  -1.21499998E-02  -1.47456367E-05
  -1.20999999E-02  -1.51455779E-05
  -1.20500000E-02  -1.55495673E-05
  -1.20000001E-02  -1.59523679E-05
  -1.19500002E-02  -1.63539917E-05
  -1.19000003E-02  -1.67601847E-05
  -1.18500004E-02  -1.71801221E-05
  -1.18000004E-02  -1.76224130E-05
  -1.17499996E-02  -1.80912884E-05
  -1.16999997E-02  -1.85847966E-05
  -1.16499998E-02  -1.90958181E-05
  -1.15999999E-02  -1.96150759E-05
  -1.15499999E-02  -2.01353705E-05
  -1.15000000E-02  -2.06546247E-05
  -1.14500001E-02  -2.11764927E-05
  -1.14000002E-02  -2.17089328E-05
  -1.13500003E-02  -2.22604867E-05
  -1.13000004E-02  -2.28364825E-05
  -1.12500004E-02  -2.34367199E-05
  -1.11999996E-02  -2.40552927E-05
  -1.11499997E-02  -2.46837881E-05
  -1.10999998E-02  -2.53156832E-05
  -1.10499999E-02  -2.59498811E-05
  -1.09999999E-02  -2.65913295E-05
  -1.09500000E-02  -2.72493562E-05
  -1.09000001E-02  -2.79341730E-05
  -1.08500002E-02  -2.86522936E-05
  -1.08000003E-02  -2.94038564E-05
  -1.07500004E-02  -3.01822620E-05
  -1.07000005E-02  -3.09765710E-05
  -1.06499996E-02  -3.17761878E-05
  -1.05999997E-02  -3.25760338E-05
  -1.05499998E-02  -3.33789794E-05
  -1.04999999E-02  -3.41939958E-05
  -1.04499999E-02  -3.50322007E-05
  -1.04000000E-02  -3.59022342E-05
  -1.03500001E-02  -3.68071342E-05
  -1.03000002E-02  -3.77438191E-05
  -1.02500003E-02  -3.87043838E-05
  -1.02000004E-02  -3.96797186E-05
  -1.01500005E-02  -4.06649742E-05
  -1.00999996E-02  -4.16627408E-05
  -1.00499997E-02  -4.26819315E-05
  -9.99999978E-03  -4.37346134E-05
  -9.94999986E-03  -4.48307146E-05
  -9.89999995E-03  -4.59729126E-05
  -9.85000003E-03  -4.71566309E-05
  -9.80000012E-03  -4.83733420E-05
  -9.75000020E-03  -4.96132998E-05
  -9.70000029E-03  -5.08701050E-05
  -9.65000037E-03  -5.21448928E-05
  -9.60000046E-03  -5.34458122E-05
  -9.54999961E-03  -5.47849377E-05
  -9.49999969E-03  -5.61739362E-05
  -9.44999978E-03  -5.76183265E-05
  -9.39999986E-03  -5.91146527E-05
  -9.34999995E-03  -6.06533358E-05
  -9.30000003E-03  -6.22227089E-05
  -9.25000012E-03  -6.38149140E-05
  -9.20000020E-03  -6.54301257E-05
  -9.15000029E-03  -6.70764493E-05
  -9.10000037E-03  -6.87672364E-05
  -9.05000046E-03  -7.05149214E-05
  -8.99999961E-03  -7.23267149E-05
  -8.94999970E-03  -7.42029079E-05
  -8.89999978E-03  -7.61368356E-05
  -8.84999987E-03  -7.81180643E-05
  -8.79999995E-03  -8.01376373E-05
  -8.75000004E-03  -8.21931244E-05
  -8.70000012E-03  -8.42909067E-05
  -8.65000021E-03  -8.64442045E-05
  -8.60000029E-03  -8.86670387E-05
  -8.55000038E-03  -9.09678056E-05
  -8.50000046E-03  -9.33450065E-05
  -8.44999962E-03  -9.57894736E-05
  -8.39999970E-03  -9.82902420E-05
  -8.34999979E-03  -1.00838814E-04
  -8.29999987E-03  -1.03432052E-04
  -8.24999996E-03  -1.06073960E-04
  -8.20000004E-03  -1.08775566E-04
  -8.15000013E-03  -1.11550711E-04
  -8.10000021E-03  -1.14408584E-04
  -8.05000030E-03  -1.17350879E-04
  -8.00000038E-03  -1.20371027E-04
  -7.95000046E-03  -1.23455742E-04
  -7.89999962E-03  -1.26593979E-04
  -7.84999970E-03  -1.29783948E-04
  -7.79999979E-03  -1.33030582E-04
  -7.74999987E-03  -1.36344097E-04
  -7.69999996E-03  -1.39739146E-04
  -7.65000004E-03  -1.43227327E-04
  -7.60000013E-03  -1.46813021E-04
  -7.55000021E-03  -1.50490145E-04
  -7.49999983E-03  -1.54245732E-04
  -7.44999992E-03  -1.58067487E-04
  -7.40000000E-03  -1.61950142E-04
  -7.35000009E-03  -1.65898062E-04
  -7.30000017E-03  -1.69922889E-04
  -7.24999979E-03  -1.74037210E-04
  -7.19999988E-03  -1.78249917E-04
  -7.14999996E-03  -1.82564952E-04
  -7.10000005E-03  -1.86978476E-04
  -7.05000013E-03  -1.91480198E-04
  -7.00000022E-03  -1.96057925E-04
  -6.94999984E-03  -2.00703362E-04
  -6.89999992E-03  -2.05415767E-04
  -6.85000001E-03  -2.10206461E-04
  -6.80000009E-03  -2.15092252E-04
  -6.75000018E-03  -2.20085058E-04
  -6.69999979E-03  -2.25187759E-04
  -6.64999988E-03  -2.30394129E-04
  -6.59999996E-03  -2.35694621E-04
  -6.55000005E-03  -2.41080823E-04
  -6.50000013E-03  -2.46546144E-04
  -6.45000022E-03  -2.52088852E-04
  -6.39999984E-03  -2.57719599E-04
  -6.34999992E-03  -2.63455644E-04
  -6.30000001E-03  -2.69309327E-04
  -6.25000009E-03  -2.75284750E-04
  -6.20000018E-03  -2.81379471E-04
  -6.14999980E-03  -2.87585106E-04
  -6.09999988E-03  -2.93887832E-04
  -6.04999997E-03  -3.00281565E-04
  -6.00000005E-03  -3.06768430E-04
  -5.95000014E-03  -3.13353754E-04
  -5.90000022E-03  -3.20050283E-04
  -5.84999984E-03  -3.26872774E-04
  -5.79999993E-03  -3.33830219E-04
  -5.75000001E-03  -3.40919010E-04
  -5.70000010E-03  -3.48124973E-04
  -5.65000018E-03  -3.55435186E-04
  -5.59999980E-03  -3.62843275E-04
  -5.54999989E-03  -3.70354421E-04
  -5.49999997E-03  -3.77978635E-04
  -5.45000006E-03  -3.85723339E-04
  -5.40000014E-03  -3.93600290E-04
  -5.35000023E-03  -4.01622936E-04
  -5.29999984E-03  -4.09795495E-04
  -5.24999993E-03  -4.18110285E-04
  -5.20000001E-03  -4.26554878E-04
  -5.15000010E-03  -4.35119582E-04
  -5.10000018E-03  -4.43803292E-04
  -5.04999980E-03  -4.52617853E-04
  -4.99999989E-03  -4.61578835E-04
  -4.94999997E-03  -4.70700965E-04
  -4.90000006E-03  -4.79990704E-04
  -4.85000014E-03  -4.89441562E-04
  -4.80000023E-03  -4.99042275E-04
  -4.74999985E-03  -5.08785713E-04
  -4.69999993E-03  -5.18673332E-04
  -4.65000002E-03  -5.28700417E-04
  -4.60000010E-03  -5.38866676E-04
  -4.55000019E-03  -5.49187011E-04
  -4.49999981E-03  -5.59682492E-04
  -4.44999989E-03  -5.70365519E-04
  -4.39999998E-03  -5.81231550E-04
  -4.35000006E-03  -5.92269469E-04
  -4.30000015E-03  -6.03465887E-04
  -4.25000023E-03  -6.14819990E-04
  -4.19999985E-03  -6.26339752E-04
  -4.14999994E-03  -6.38030702E-04
  -4.10000002E-03  -6.49902155E-04
  -4.05000011E-03  -6.61965401E-04
  -4.00000019E-03  -6.74231676E-04
  -3.94999981E-03  -6.86706800E-04
  -3.89999989E-03  -6.99389144E-04
  -3.84999998E-03  -7.12267531E-04
  -3.80000006E-03  -7.25326012E-04
  -3.74999992E-03  -7.38561095E-04
  -3.70000000E-03  -7.51990592E-04
  -3.65000009E-03  -7.65638542E-04
  -3.59999994E-03  -7.79516238E-04
  -3.55000002E-03  -7.93622225E-04
  -3.50000011E-03  -8.07952078E-04
  -3.44999996E-03  -8.22506554E-04
  -3.40000005E-03  -8.37276573E-04
  -3.34999990E-03  -8.52252066E-04
  -3.29999998E-03  -8.67431168E-04
  -3.25000007E-03  -8.82817782E-04
  -3.19999992E-03  -8.98428785E-04
  -3.15000000E-03  -9.14286007E-04
  -3.10000009E-03  -9.30400391E-04
  -3.04999994E-03  -9.46764834E-04
  -3.00000003E-03  -9.63378930E-04
  -2.95000011E-03  -9.80235287E-04
  -2.89999996E-03  -9.97316092E-04
  -2.85000005E-03  -1.01463555E-03
  -2.79999990E-03  -1.03221030E-03
  -2.74999999E-03  -1.05004583E-03
  -2.70000007E-03  -1.06815889E-03
  -2.64999992E-03  -1.08656916E-03
  -2.60000001E-03  -1.10528083E-03
  -2.55000009E-03  -1.12427340E-03
  -2.49999994E-03  -1.14352477E-03
  -2.45000003E-03  -1.16303330E-03
  -2.40000011E-03  -1.18280749E-03
  -2.34999997E-03  -1.20286248E-03
  -2.30000005E-03  -1.22319756E-03
  -2.24999990E-03  -1.24382041E-03
  -2.19999999E-03  -1.26474840E-03
  -2.15000007E-03  -1.28598395E-03
  -2.09999993E-03  -1.30753487E-03
  -2.05000001E-03  -1.32938370E-03
  -2.00000009E-03  -1.35149760E-03
  -1.94999995E-03  -1.37387193E-03
  -1.90000003E-03  -1.39653706E-03
  -1.85000000E-03  -1.41952897E-03
  -1.79999997E-03  -1.44286687E-03
  -1.75000005E-03  -1.46655517E-03
  -1.70000002E-03  -1.49057503E-03
  -1.64999999E-03  -1.51491701E-03
  -1.59999996E-03  -1.53957878E-03
  -1.55000004E-03  -1.56454078E-03
  -1.50000001E-03  -1.58980070E-03
  -1.44999998E-03  -1.61538133E-03
  -1.39999995E-03  -1.64130190E-03
  -1.35000004E-03  -1.66756019E-03
  -1.30000000E-03  -1.69418438E-03
  -1.24999997E-03  -1.72119588E-03
  -1.20000006E-03  -1.74854905E-03
  -1.15000003E-03  -1.77619909E-03
  -1.09999999E-03  -1.80414505E-03
  -1.04999996E-03  -1.83241896E-03
  -1.00000005E-03  -1.86103780E-03
  -9.50000016E-04  -1.89000624E-03
  -8.99999985E-04  -1.91931508E-03
  -8.50000011E-04  -1.94896315E-03
  -7.99999980E-04  -1.97900087E-03
  -7.50000007E-04  -2.00942787E-03
  -6.99999975E-04  -2.04018573E-03
  -6.50000002E-04  -2.07124231E-03
  -6.00000028E-04  -2.10259040E-03
  -5.49999997E-04  -2.13425024E-03
  -5.00000024E-04  -2.16628239E-03
  -4.49999992E-04  -2.19871243E-03
  -3.99999990E-04  -2.23150803E-03
  -3.49999988E-04  -2.26466334E-03
  -3.00000014E-04  -2.29817233E-03
  -2.50000012E-04  -2.33202078E-03
  -1.99999995E-04  -2.36622919E-03
  -1.50000007E-04  -2.40077125E-03
  -9.99999975E-05  -2.43558921E-03
  -4.99999987E-05  -2.47067539E-03
   0.00000000      -2.50610453E-03
   4.99999987E-05  -2.54197977E-03
   9.99999975E-05  -2.57828226E-03
   1.50000007E-04  -2.61489581E-03
   1.99999995E-04  -2.65172217E-03
   2.50000012E-04  -2.68879067E-03
   3.00000014E-04  -2.72620562E-03
   3.49999988E-04  -2.76397704E-03
   3.99999990E-04  -2.80203507E-03
   4.49999992E-04  -2.84035085E-03
   5.00000024E-04  -2.87896697E-03
   5.49999997E-04  -2.91795586E-03
   6.00000028E-04  -2.95733591E-03
   6.50000002E-04  -2.99703656E-03
   6.99999975E-04  -3.03697446E-03
   7.50000007E-04  -3.07711773E-03
   7.99999980E-04  -3.11752898E-03
   8.50000011E-04  -3.15827713E-03
   8.99999985E-04  -3.19934217E-03
   9.50000016E-04  -3.24066984E-03
   1.00000005E-03  -3.28226644E-03
   1.04999996E-03  -3.32420156E-03
   1.09999999E-03  -3.36645241E-03
   1.15000003E-03  -3.40890512E-03
   1.20000006E-03  -3.45150079E-03
   1.24999997E-03  -3.49430298E-03
   1.30000000E-03  -3.53737292E-03
   1.35000004E-03  -3.58069688E-03
   1.39999995E-03  -3.62427230E-03
   1.44999998E-03  -3.66810407E-03
   1.50000001E-03  -3.71217285E-03
   1.55000004E-03  -3.75643838E-03
   1.59999996E-03  -3.80088249E-03
   1.64999999E-03  -3.84548632E-03
   1.70000002E-03  -3.89027991E-03
   1.75000005E-03  -3.93527700E-03
   1.79999997E-03  -3.98046104E-03
   1.85000000E-03  -4.02587885E-03
   1.90000003E-03  -4.07153741E-03
   1.94999995E-03  -4.11738409E-03
   2.00000009E-03  -4.16338071E-03
   2.05000001E-03  -4.20951331E-03
   2.09999993E-03  -4.25575534E-03
   2.15000007E-03  -4.30209935E-03
   2.19999999E-03  -4.34857095E-03
   2.24999990E-03  -4.39519435E-03
   2.30000005E-03  -4.44196025E-03
   2.34999997E-03  -4.48891753E-03
   2.40000011E-03  -4.53607971E-03
   2.45000003E-03  -4.58330056E-03
   2.49999994E-03  -4.63048788E-03
   2.55000009E-03  -4.67773015E-03
   2.60000001E-03  -4.72514983E-03
   2.64999992E-03  -4.77272086E-03
   2.70000007E-03  -4.82027605E-03
   2.74999999E-03  -4.86777956E-03
   2.79999990E-03  -4.91541950E-03