  -3.99999991E-02   0.00000000    
  -3.99499983E-02   0.00000000    
  -3.99000011E-02   0.00000000    
  -3.98500003E-02   0.00000000    
  -3.97999994E-02  -6.96451761E-20
  -3.97499986E-02  -5.62958859E-19
  -3.97000015E-02  -2.42002690E-18
  -3.96500006E-02  -7.34635811E-18
  -3.95999998E-02  -1.77975899E-17
  -3.95499989E-02  -3.70859810E-17
  -3.95000018E-02  -6.99174876E-17
  -3.94500010E-02  -1.22833899E-16
  -3.94000001E-02  -2.03241135E-16
  -3.93499993E-02  -3.16524142E-16
  -3.92999984E-02  -4.63174874E-16
  -3.92500013E-02  -6.39310558E-16
  -3.92000005E-02  -8.41840741E-16
  -3.91499996E-02  -1.07504172E-15
  -3.90999988E-02  -1.35314403E-15
  -3.90500017E-02  -1.69677089E-15
  -3.90000008E-02  -2.12663164E-15
  -3.89500000E-02  -2.65947572E-15
  -3.88999991E-02  -3.30713998E-15
  -3.88499983E-02  -4.07525550E-15
  -3.88000011E-02  -4.96011567E-15
  -3.87500003E-02  -5.94841127E-15
  -3.86999995E-02  -7.02571309E-15
  -3.86499986E-02  -8.19116351E-15
  -3.86000015E-02  -9.46581511E-15
  -3.85500006E-02  -1.08836356E-14
  -3.84999998E-02  -1.24690704E-14
  -3.84499989E-02  -1.42185746E-14
  -3.84000018E-02  -1.61001770E-14
  -3.83500010E-02  -1.80674194E-14
  -3.83000001E-02  -2.00716959E-14
  -3.82499993E-02  -2.20638344E-14
  -3.81999984E-02  -2.39925623E-14
  -3.81500013E-02  -2.58120517E-14
  -3.81000005E-02  -2.74963683E-14
  -3.80499996E-02  -2.90432893E-14
  -3.79999988E-02  -3.04562622E-14
  -3.79500017E-02  -3.17171487E-14
  -3.79000008E-02  -3.27756451E-14
  -3.78500000E-02  -3.35645106E-14
  -3.77999991E-02  -3.40203126E-14
  -3.77499983E-02  -3.40819732E-14
  -3.77000012E-02  -3.36667543E-14
  -3.76500003E-02  -3.26543568E-14
  -3.75999995E-02  -3.09057420E-14
  -3.75499986E-02  -2.83052932E-14
  -3.75000015E-02  -2.47852953E-14
  -3.74500006E-02  -2.03062275E-14
  -3.73999998E-02  -1.48111080E-14
  -3.73499990E-02  -8.19631601E-15
  -3.73000018E-02  -3.20186395E-16
  -3.72500010E-02   8.96773602E-15
  -3.72000001E-02   1.98008368E-14
  -3.71499993E-02   3.22693871E-14
  -3.70999984E-02   4.63726822E-14
  -3.70500013E-02   6.19574175E-14
  -3.70000005E-02   7.87000537E-14
  -3.69499996E-02   9.61933373E-14
  -3.68999988E-02   1.14126265E-13
  -3.68500017E-02   1.32457915E-13
  -3.68000008E-02   1.51468356E-13
  -3.67500000E-02   1.71645250E-13
  -3.66999991E-02   1.93467448E-13
  -3.66499983E-02   2.17190198E-13
  -3.66000012E-02   2.42707547E-13
  -3.65500003E-02   2.69521601E-13
  -3.64999995E-02   2.96833982E-13
  -3.64499986E-02   3.23764805E-13
  -3.64000015E-02   3.49648777E-13
  -3.63500006E-02   3.74269788E-13
  -3.62999998E-02   3.97866419E-13
  -3.62499990E-02   4.20847547E-13
  -3.62000018E-02   4.43348835E-13
  -3.61500010E-02   4.64891634E-13
  -3.61000001E-02   4.84359081E-13
  -3.60499993E-02   5.00313875E-13
  -3.59999985E-02   5.11498829E-13
  -3.59500013E-02   5.17290908E-13
  -3.59000005E-02   5.17922510E-13
  -3.58499996E-02   5.14363996E-13
  -3.57999988E-02   5.07853308E-13
  -3.57500017E-02   4.99190966E-13
  -3.57000008E-02   4.88081960E-13
  -3.56500000E-02   4.72895269E-13
  -3.55999991E-02   4.51080417E-13
  -3.55499983E-02   4.20138750E-13
  -3.55000012E-02   3.78697372E-13
  -3.54500003E-02   3.27122661E-13
  -3.53999995E-02   2.67336636E-13
  -3.53499986E-02   2.01903408E-13
  -3.53000015E-02   1.32788339E-13
  -3.52500007E-02   6.03229082E-14
  -3.51999998E-02  -1.71787413E-14
  -3.51499990E-02  -1.02915011E-13
  -3.51000018E-02  -2.00293314E-13
  -3.50500010E-02  -3.11287942E-13
  -3.50000001E-02  -4.35205284E-13
  -3.49499993E-02  -5.68551391E-13
  -3.48999985E-02  -7.06230430E-13
  -3.48500013E-02  -8.43599496E-13
  -3.48000005E-02  -9.78402255E-13
  -3.47499996E-02  -1.11161113E-12
  -3.46999988E-02  -1.24674663E-12
  -3.46500017E-02  -1.38795963E-12
  -3.46000008E-02  -1.53770952E-12
  -3.45500000E-02  -1.69504515E-12
  -3.44999991E-02  -1.85527982E-12
  -3.44499983E-02  -2.01134465E-12
  -3.44000012E-02  -2.15639030E-12
  -3.43500003E-02  -2.28654921E-12
  -3.42999995E-02  -2.40249552E-12
  -3.42499986E-02  -2.50885814E-12
  -3.42000015E-02  -2.61155897E-12
  -3.41500007E-02  -2.71425872E-12
  -3.40999998E-02  -2.81563054E-12
  -3.40499990E-02  -2.90884244E-12
  -3.40000018E-02  -2.98358170E-12
  -3.39500010E-02  -3.02978823E-12
  -3.39000002E-02  -3.04150542E-12
  -3.38499993E-02  -3.01913941E-12
  -3.37999985E-02  -2.96900243E-12
  -3.37500013E-02  -2.90009943E-12
  -3.37000005E-02  -2.81937733E-12
  -3.36499996E-02  -2.72755755E-12
  -3.35999988E-02  -2.61766368E-12
  -3.35500017E-02  -2.47724931E-12
  -3.35000008E-02  -2.29352214E-12
  -3.34500000E-02  -2.05905670E-12
  -3.33999991E-02  -1.77536707E-12
  -3.33499983E-02  -1.45257602E-12
  -3.33000012E-02  -1.10520328E-12
  -3.32500003E-02  -7.45823921E-13
  -3.31999995E-02  -3.79334097E-13
  -3.31499986E-02  -4.10104607E-16
  -3.31000015E-02   4.04481732E-13
  -3.30500007E-02   8.51069324E-13
  -3.29999998E-02   1.34969997E-12
  -3.29499990E-02   1.89965166E-12
  -3.29000019E-02   2.48818154E-12
  -3.28500010E-02   3.09505134E-12
  -3.28000002E-02   3.70059278E-12
  -3.27499993E-02   4.29357504E-12
  -3.26999985E-02   4.87515800E-12
  -3.26500013E-02   5.45701201E-12
  -3.26000005E-02   6.05436534E-12
  -3.25499997E-02   6.67700704E-12
  -3.24999988E-02   7.32226432E-12
  -3.24500017E-02   7.97325574E-12
  -3.24000008E-02   8.60362215E-12
  -3.23500000E-02   9.18701747E-12
  -3.22999991E-02   9.70725497E-12
  -3.22499983E-02   1.01643034E-11
  -3.22000012E-02   1.05729713E-11
  -3.21500003E-02   1.09544873E-11
  -3.20999995E-02   1.13246929E-11
  -3.20499986E-02   1.16843124E-11
  -3.20000015E-02   1.20158753E-11
  -3.19500007E-02   1.22888696E-11
  -3.18999998E-02   1.24710077E-11
  -3.18499990E-02   1.25408043E-11
  -3.18000019E-02   1.24958724E-11
  -3.17500010E-02   1.23530309E-11
  -3.17000002E-02   1.21396634E-11
  -3.16499993E-02   1.18798348E-11
  -3.15999985E-02   1.15813348E-11
  -3.15500014E-02   1.12298686E-11
  -3.15000005E-02   1.07935310E-11
  -3.14499997E-02   1.02358668E-11
  -3.13999988E-02   9.53169054E-12
  -3.13500017E-02   8.67840955E-12
  -3.13000008E-02   7.69768103E-12
  -3.12500000E-02   6.62650403E-12
  -3.11999992E-02   5.50152719E-12
  -3.11500002E-02   4.34335207E-12
  -3.10999993E-02   3.14780949E-12
  -3.10500003E-02   1.88844014E-12
  -3.09999995E-02   5.29586466E-13
  -3.09500005E-02  -9.55447743E-13
  -3.08999997E-02  -2.56945637E-12
  -3.08500007E-02  -4.28679488E-12
  -3.07999998E-02  -6.06169455E-12
  -3.07500008E-02  -7.84583769E-12
  -3.07000000E-02  -9.60714928E-12
  -3.06499992E-02  -1.13411936E-11
  -3.06000002E-02  -1.30699739E-11
  -3.05499993E-02  -1.48285117E-11
  -3.05000003E-02  -1.66449458E-11
  -3.04499995E-02  -1.85228517E-11
  -3.04000005E-02  -2.04337901E-11
  -3.03499997E-02  -2.23240315E-11
  -3.03000007E-02  -2.41330653E-11
  -3.02499998E-02  -2.58158737E-11
  -3.02000009E-02  -2.73586778E-11
  -3.01500000E-02  -2.87805960E-11
  -3.00999992E-02  -3.01201598E-11
  -3.00500002E-02  -3.14126641E-11
  -2.99999993E-02  -3.26686664E-11
  -2.99500003E-02  -3.38633149E-11
  -2.98999995E-02  -3.49414421E-11
  -2.98500005E-02  -3.58363686E-11
  -2.97999997E-02  -3.64946511E-11
  -2.97500007E-02  -3.68959099E-11
  -2.96999998E-02  -3.70588109E-11
  -2.96500009E-02  -3.70298237E-11
  -2.96000000E-02  -3.68592101E-11
  -2.95499992E-02  -3.65748473E-11
  -2.95000002E-02  -3.61658897E-11
  -2.94499993E-02  -3.55839525E-11
  -2.94000003E-02  -3.47614958E-11
  -2.93499995E-02  -3.36390915E-11
  -2.93000005E-02  -3.21895531E-11
  -2.92499997E-02  -3.04283300E-11
  -2.92000007E-02  -2.84057153E-11
  -2.91499998E-02  -2.61841191E-11
  -2.91000009E-02  -2.38101032E-11
  -2.90500000E-02  -2.12935398E-11
  -2.89999992E-02  -1.86035250E-11
  -2.89500002E-02  -1.56835604E-11
  -2.88999993E-02  -1.24795400E-11
  -2.88500004E-02  -8.96794531E-12
  -2.87999995E-02  -5.17111440E-12
  -2.87500005E-02  -1.15243850E-12
  -2.86999997E-02   3.00641955E-12
  -2.86500007E-02   7.23613313E-12
  -2.85999998E-02   1.15046271E-11
  -2.85500009E-02   1.58254434E-11
  -2.85000000E-02   2.02457027E-11
  -2.84499992E-02   2.48183852E-11
  -2.84000002E-02   2.95707209E-11
  -2.83499993E-02   3.44826112E-11
  -2.83000004E-02   3.94852345E-11
  -2.82499995E-02   4.44812277E-11
  -2.82000005E-02   4.93777588E-11
  -2.81499997E-02   5.41176721E-11
  -2.81000007E-02   5.86944937E-11
  -2.80499998E-02   6.31444827E-11
  -2.80000009E-02   6.75193373E-11
  -2.79500000E-02   7.18515594E-11
  -2.78999992E-02   7.61274932E-11
  -2.78500002E-02   8.02798730E-11
  -2.77999993E-02   8.42035330E-11
  -2.77500004E-02   8.77884224E-11
  -2.76999995E-02   9.09559095E-11
  -2.76500005E-02   9.36824993E-11
  -2.75999997E-02   9.59998747E-11
  -2.75500007E-02   9.79706039E-11
  -2.74999999E-02   9.96501423E-11
  -2.74500009E-02   1.01052194E-10
  -2.74000000E-02   1.02132872E-10
  -2.73499992E-02   1.02800650E-10
  -2.73000002E-02   1.02947782E-10
  -2.72499993E-02   1.02489378E-10
  -2.72000004E-02   1.01393845E-10
  -2.71499995E-02   9.96911997E-11
  -2.71000005E-02   9.74552869E-11
  -2.70499997E-02   9.47667639E-11
  -2.70000007E-02   9.16730303E-11
  -2.69499999E-02   8.81630532E-11
  -2.69000009E-02   8.41693382E-11
  -2.68500000E-02   7.95965863E-11
  -2.67999992E-02   7.43645076E-11
  -2.67500002E-02   6.84455825E-11
  -2.66999993E-02   6.18808338E-11
  -2.66500004E-02   5.47667085E-11
  -2.65999995E-02   4.72185520E-11
  -2.65500005E-02   3.93262783E-11
  -2.64999997E-02   3.11212583E-11
  -2.64500007E-02   2.25695400E-11
  -2.63999999E-02   1.35953046E-11
  -2.63500009E-02   4.12553281E-12
  -2.63000000E-02  -5.86361255E-12
  -2.62499992E-02  -1.63199350E-11
  -2.62000002E-02  -2.71210172E-11
  -2.61499994E-02  -3.81106986E-11
  -2.61000004E-02  -4.91506870E-11
  -2.60499995E-02  -6.01641376E-11
  -2.60000005E-02  -7.11522646E-11
  -2.59499997E-02  -8.21763699E-11
  -2.59000007E-02  -9.33126007E-11
  -2.58499999E-02  -1.04598108E-10
  -2.58000009E-02  -1.15992355E-10
  -2.57500000E-02  -1.27370947E-10
  -2.56999992E-02  -1.38556222E-10
  -2.56500002E-02  -1.49372251E-10
  -2.55999994E-02  -1.59700045E-10
  -2.55500004E-02  -1.69508019E-10
  -2.54999995E-02  -1.78843357E-10
  -2.54500005E-02  -1.87787577E-10
  -2.53999997E-02  -1.96396413E-10
  -2.53500007E-02  -2.04650630E-10
  -2.52999999E-02  -2.12439927E-10
  -2.52500009E-02  -2.19587390E-10
  -2.52000000E-02  -2.25904948E-10
  -2.51499992E-02  -2.31255876E-10
  -2.51000002E-02  -2.35597014E-10
  -2.50499994E-02  -2.38981002E-10
  -2.50000004E-02  -2.41515835E-10
  -2.49499995E-02  -2.43298770E-10
  -2.49000005E-02  -2.44354259E-10
  -2.48499997E-02  -2.44605336E-10
  -2.48000007E-02  -2.43891518E-10
  -2.47499999E-02  -2.42026205E-10
  -2.47000009E-02  -2.38868009E-10
  -2.46500000E-02  -2.34374103E-10
  -2.45999992E-02  -2.28611644E-10
  -2.45500002E-02  -2.21721572E-10
  -2.44999994E-02  -2.13849799E-10
  -2.44500004E-02  -2.05075595E-10
  -2.43999995E-02  -1.95369568E-10
  -2.43500005E-02  -1.84602125E-10
  -2.42999997E-02  -1.72600684E-10
  -2.42500007E-02  -1.59230670E-10
  -2.41999999E-02  -1.44463649E-10
  -2.41500009E-02  -1.28400596E-10
  -2.41000000E-02  -1.11238754E-10
  -2.40499992E-02  -9.31963673E-11
  -2.40000002E-02  -7.44285050E-11
  -2.39499994E-02  -5.49715655E-11
  -2.39000004E-02  -3.47412411E-11
  -2.38499995E-02  -1.35861513E-11
  -2.38000005E-02   8.62515614E-12
  -2.37499997E-02   3.19220622E-11
  -2.37000007E-02   5.61917526E-11
  -2.36499999E-02   8.12009487E-11
  -2.36000009E-02   1.06671880E-10
  -2.35500000E-02   1.32377900E-10
  -2.34999992E-02   1.58215122E-10
  -2.34500002E-02   1.84216489E-10
  -2.33999994E-02   2.10502352E-10
  -2.33500004E-02   2.37189074E-10
  -2.32999995E-02   2.64296945E-10
  -2.32500006E-02   2.91699831E-10
  -2.31999997E-02   3.19137605E-10
  -2.31500007E-02   3.46289747E-10
  -2.30999999E-02   3.72876396E-10
  -2.30500009E-02   3.98742872E-10
  -2.30000000E-02   4.23888008E-10
  -2.29499992E-02   4.48420273E-10
  -2.29000002E-02   4.72461514E-10
  -2.28499994E-02   4.96042318E-10
  -2.28000004E-02   5.19037313E-10
  -2.27499995E-02   5.41171608E-10
  -2.27000006E-02   5.62095537E-10
  -2.26499997E-02   5.81494852E-10
  -2.26000007E-02   5.99185757E-10
  -2.25499999E-02   6.15153928E-10
  -2.25000009E-02   6.29516661E-10
  -2.24500000E-02   6.42424947E-10
  -2.23999992E-02   6.53947729E-10
  -2.23500002E-02   6.63990307E-10
  -2.22999994E-02   6.72287004E-10
  -2.22500004E-02   6.78472944E-10
  -2.21999995E-02   6.82203849E-10
  -2.21500006E-02   6.83268331E-10
  -2.20999997E-02   6.81640577E-10
  -2.20500007E-02   6.77449596E-10
  -2.19999999E-02   6.70879574E-10
  -2.19500009E-02   6.62044863E-10
  -2.19000001E-02   6.50897003E-10
  -2.18499992E-02   6.37204289E-10
  -2.18000002E-02   6.20616059E-10
  -2.17499994E-02   6.00785088E-10
  -2.17000004E-02   5.77490888E-10
  -2.16499995E-02   5.50709922E-10
  -2.16000006E-02   5.20596899E-10
  -2.15499997E-02   4.87384244E-10
  -2.15000007E-02   4.51246929E-10
  -2.14499999E-02   4.12193418E-10
  -2.14000009E-02   3.70034503E-10
  -2.13500001E-02   3.24442834E-10
  -2.12999992E-02   2.75076212E-10
  -2.12500002E-02   2.21709179E-10
  -2.11999994E-02   1.64313438E-10
  -2.11500004E-02   1.03050755E-10
  -2.10999995E-02   3.81793555E-11
  -2.10500006E-02  -3.00844419E-11
  -2.09999997E-02  -1.01688026E-10
  -2.09500007E-02  -1.76786585E-10
  -2.08999999E-02  -2.55690968E-10
  -2.08500009E-02  -3.38738787E-10
  -2.08000001E-02  -4.26149310E-10
  -2.07499992E-02  -5.17933640E-10
  -2.07000002E-02  -6.13896545E-10
  -2.06499994E-02  -7.13731851E-10
  -2.06000004E-02  -8.17166668E-10
  -2.05499995E-02  -9.24095633E-10
  -2.05000006E-02  -1.03463760E-09
  -2.04499997E-02  -1.14909415E-09
  -2.04000007E-02  -1.26782007E-09
  -2.03499999E-02  -1.39106549E-09
  -2.03000009E-02  -1.51886614E-09
  -2.02500001E-02  -1.65102820E-09
  -2.01999992E-02  -1.78721704E-09
  -2.01500002E-02  -1.92711114E-09
  -2.00999994E-02  -2.07054951E-09
  -2.00500004E-02  -2.21760343E-09
  -1.99999996E-02  -2.36854381E-09
  -1.99500006E-02  -2.52371413E-09
  -1.98999997E-02  -2.68337397E-09
  -1.98500007E-02  -2.84757795E-09
  -1.97999999E-02  -3.01614089E-09
  -1.97500009E-02  -3.18872151E-09
  -1.97000001E-02  -3.36497075E-09
  -1.96499992E-02  -3.54469343E-09
  -1.96000002E-02  -3.72793574E-09
  -1.95499994E-02  -3.91496568E-09
  -1.95000004E-02  -4.10614831E-09
  -1.94499996E-02  -4.30177449E-09
  -1.94000006E-02  -4.50192950E-09
  -1.93499997E-02  -4.70645434E-09
  -1.93000007E-02  -4.91502039E-09
  -1.92499999E-02  -5.12727771E-09
  -1.92000009E-02  -5.34302025E-09
  -1.91500001E-02  -5.56228663E-09
  -1.90999992E-02  -5.78535708E-09
  -1.90500002E-02  -6.01262906E-09
  -1.89999994E-02  -6.24445384E-09
  -1.89500004E-02  -6.48098064E-09
  -1.88999996E-02  -6.72209532E-09
  -1.88500006E-02  -6.96749147E-09
  -1.87999997E-02  -7.21683469E-09
  -1.87500007E-02  -7.46993045E-09
  -1.86999999E-02  -7.72684761E-09
  -1.86500009E-02  -7.98791078E-09
  -1.86000001E-02  -8.25358804E-09
  -1.85499992E-02  -8.52431903E-09
  -1.85000002E-02  -8.80035689E-09
  -1.84499994E-02  -9.08169895E-09
  -1.84000004E-02  -9.36812317E-09
  -1.83499996E-02  -9.65934444E-09
  -1.83000006E-02  -9.95520466E-09
  -1.82499997E-02  -1.02558166E-08
  -1.82000007E-02  -1.05615872E-08
  -1.81499999E-02  -1.08731033E-08
  -1.81000009E-02  -1.11909468E-08
  -1.80500001E-02  -1.15155139E-08
  -1.79999992E-02  -1.18469554E-08
  -1.79500002E-02  -1.21851906E-08
  -1.78999994E-02  -1.25300534E-08
  -1.78500004E-02  -1.28814799E-08
  -1.77999996E-02  -1.32396591E-08
  -1.77500006E-02  -1.36050922E-08
  -1.76999997E-02  -1.39784957E-08
  -1.76500008E-02  -1.43606158E-08
  -1.75999999E-02  -1.47520449E-08
  -1.75500009E-02  -1.51531143E-08
  -1.75000001E-02  -1.55639164E-08
  -1.74499992E-02  -1.59844635E-08
  -1.74000002E-02  -1.64148588E-08
  -1.73499994E-02  -1.68554681E-08
  -1.73000004E-02  -1.73069807E-08
  -1.72499996E-02  -1.77702955E-08
  -1.72000006E-02  -1.82463857E-08
  -1.71499997E-02  -1.87360811E-08
  -1.71000008E-02  -1.92399590E-08
  -1.70499999E-02  -1.97583017E-08
  -1.70000009E-02  -2.02912744E-08
  -1.69500001E-02  -2.08391189E-08
  -1.68999992E-02  -2.14023483E-08
  -1.68500002E-02  -2.19818173E-08
  -1.67999994E-02  -2.25786483E-08
  -1.67500004E-02  -2.31940387E-08
  -1.66999996E-02  -2.38290738E-08
  -1.66500006E-02  -2.44845886E-08
  -1.65999997E-02  -2.51611567E-08
  -1.65500008E-02  -2.58591726E-08
  -1.64999999E-02  -2.65790732E-08
  -1.64500009E-02  -2.73215335E-08
  -1.64000001E-02  -2.80875625E-08
  -1.63499992E-02  -2.88784943E-08
  -1.63000003E-02  -2.96957730E-08
  -1.62499994E-02  -3.05407326E-08
  -1.62000004E-02  -3.14144373E-08
  -1.61499996E-02  -3.23176614E-08
  -1.61000006E-02  -3.32509842E-08
  -1.60499997E-02  -3.42150059E-08
  -1.60000008E-02  -3.52105261E-08
  -1.59499999E-02  -3.62386743E-08
  -1.59000009E-02  -3.73009179E-08
  -1.58500001E-02  -3.83988557E-08
  -1.57999992E-02  -3.95340436E-08
  -1.57500003E-02  -4.07077607E-08
  -1.56999994E-02  -4.19209805E-08
  -1.56500004E-02  -4.31744382E-08
  -1.55999996E-02  -4.44688588E-08
  -1.55499997E-02  -4.58051410E-08
  -1.54999997E-02  -4.71845034E-08
  -1.54499998E-02  -4.86084950E-08
  -1.53999999E-02  -5.00788389E-08
  -1.53500000E-02  -5.15971976E-08
  -1.53000001E-02  -5.31649995E-08
  -1.52500002E-02  -5.47833139E-08
  -1.52000003E-02  -5.64529259E-08
  -1.51500003E-02  -5.81746171E-08
  -1.51000004E-02  -5.99493077E-08
  -1.50499996E-02  -6.17782376E-08
  -1.49999997E-02  -6.36629807E-08
  -1.49499997E-02  -6.56053416E-08
  -1.48999998E-02  -6.76071110E-08
  -1.48499999E-02  -6.96698095E-08
  -1.48000000E-02  -7.17946520E-08
  -1.47500001E-02  -7.39824770E-08
  -1.47000002E-02  -7.62340235E-08
  -1.46500003E-02  -7.85502294E-08
  -1.46000003E-02  -8.09323311E-08
  -1.45500004E-02  -8.33819271E-08
  -1.44999996E-02  -8.59007940E-08
  -1.44499997E-02  -8.84907507E-08
  -1.43999998E-02  -9.11534670E-08
  -1.43499998E-02  -9.38902716E-08
  -1.42999999E-02  -9.67021450E-08
  -1.42500000E-02  -9.95899114E-08
  -1.42000001E-02  -1.02554466E-07
  -1.41500002E-02  -1.05597039E-07
  -1.41000003E-02  -1.08719270E-07
  -1.40500003E-02  -1.11923079E-07
  -1.40000004E-02  -1.15210398E-07
  -1.39499996E-02  -1.18582960E-07
  -1.38999997E-02  -1.22042195E-07
  -1.38499998E-02  -1.25589253E-07
  -1.37999998E-02  -1.29225128E-07
  -1.37499999E-02  -1.32950845E-07
  -1.37000000E-02  -1.36767795E-07
  -1.36500001E-02  -1.40677685E-07
  -1.36000002E-02  -1.44682545E-07
  -1.35500003E-02  -1.48784579E-07
  -1.35000004E-02  -1.52985905E-07
  -1.34500004E-02  -1.57288227E-07
  -1.33999996E-02  -1.61692995E-07
  -1.33499997E-02  -1.66201389E-07
  -1.32999998E-02  -1.70814673E-07
  -1.32499998E-02  -1.75534481E-07
  -1.31999999E-02  -1.80362889E-07
  -1.31500000E-02  -1.85302284E-07
  -1.31000001E-02  -1.90355195E-07
  -1.30500002E-02  -1.95524066E-07
  -1.30000003E-02  -2.00811016E-07
  -1.29500004E-02  -2.06218033E-07
  -1.29000004E-02  -2.11746865E-07
  -1.28499996E-02  -2.17399204E-07
  -1.27999997E-02  -2.23177011E-07
  -1.27499998E-02  -2.29082744E-07
  -1.26999998E-02  -2.35119401E-07
  -1.26499999E-02  -2.41290167E-07
  -1.26000000E-02  -2.47598251E-07
  -1.25500001E-02  -2.54046597E-07
  -1.25000002E-02  -2.60637705E-07
  -1.24500003E-02  -2.67374077E-07
  -1.24000004E-02  -2.74258213E-07
  -1.23500004E-02  -2.81292898E-07
  -1.22999996E-02  -2.88481232E-07
  -1.22499997E-02  -2.95826680E-07
  -1.21999998E-02  -3.03333053E-07
  -1.21499998E-02  -3.11004271E-07
  -1.20999999E-02  -3.18844087E-07
  -1.20500000E-02  -3.26855798E-07
  -1.20000001E-02  -3.35042614E-07
  -1.19500002E-02  -3.43407976E-07
  -1.19000003E-02  -3.51955464E-07
  -1.18500004E-02  -3.60689285E-07
  -1.18000004E-02  -3.69613957E-07
  -1.17499996E-02  -3.78734484E-07
  -1.16999997E-02  -3.88056009E-07
  -1.16499998E-02  -3.97583477E-07
  -1.15999999E-02  -4.07321522E-07
  -1.15499999E-02  -4.17274464E-07
  -1.15000000E-02  -4.27446537E-07
  -1.14500001E-02  -4.37842203E-07
  -1.14000002E-02  -4.48466295E-07
  -1.13500003E-02  -4.59324212E-07
  -1.13000004E-02  -4.70421696E-07
  -1.12500004E-02  -4.81764573E-07
  -1.11999996E-02  -4.93358755E-07
  -1.11499997E-02  -5.05209925E-07
  -1.10999998E-02  -5.17323485E-07
  -1.10499999E-02  -5.29705062E-07
  -1.09999999E-02  -5.42360567E-07
  -1.09500000E-02  -5.55296310E-07
  -1.09000001E-02  -5.68519056E-07
  -1.08500002E-02  -5.82036137E-07
  -1.08000003E-02  -5.95855283E-07
  -1.07500004E-02  -6.09983601E-07
  -1.07000005E-02  -6.24427855E-07
  -1.06499996E-02  -6.39194809E-07
  -1.05999997E-02  -6.54291284E-07
  -1.05499998E-02  -6.69724329E-07
  -1.04999999E-02  -6.85501163E-07
  -1.04499999E-02  -7.01629176E-07
  -1.04000000E-02  -7.18116326E-07
  -1.03500001E-02  -7.34971138E-07
  -1.03000002E-02  -7.52202141E-07
  -1.02500003E-02  -7.69817575E-07
  -1.02000004E-02  -7.87824945E-07
  -1.01500005E-02  -8.06231753E-07
  -1.00999996E-02  -8.25046072E-07
  -1.00499997E-02  -8.44276713E-07
  -9.99999978E-03  -8.63932655E-07
  -9.94999986E-03  -8.84023450E-07
  -9.89999995E-03  -9.04558817E-07
  -9.85000003E-03  -9.25548477E-07
  -9.80000012E-03  -9.47002604E-07
  -9.75000020E-03  -9.68931090E-07
  -9.70000029E-03  -9.91343313E-07
  -9.65000037E-03  -1.01424905E-06
  -9.60000046E-03  -1.03765831E-06
  -9.54999961E-03  -1.06158177E-06
  -9.49999969E-03  -1.08603069E-06
  -9.44999978E-03  -1.11101645E-06
  -9.39999986E-03  -1.13654926E-06
  -9.34999995E-03  -1.16263993E-06
  -9.30000003E-03  -1.18929893E-06
  -9.25000012E-03  -1.21653670E-06
  -9.20000020E-03  -1.24436372E-06
  -9.15000029E-03  -1.27278986E-06
  -9.10000037E-03  -1.30182639E-06
  -9.05000046E-03  -1.33148546E-06
  -8.99999961E-03  -1.36177994E-06
  -8.94999970E-03  -1.39272220E-06
  -8.89999978E-03  -1.42432407E-06
  -8.84999987E-03  -1.45659749E-06
  -8.79999995E-03  -1.48955451E-06
  -8.75000004E-03  -1.52320843E-06
  -8.70000012E-03  -1.55757243E-06
  -8.65000021E-03  -1.59265937E-06
  -8.60000029E-03  -1.62848244E-06
  -8.55000038E-03  -1.66505527E-06
  -8.50000046E-03  -1.70239332E-06
  -8.44999962E-03  -1.74051115E-06
  -8.39999970E-03  -1.77942218E-06
  -8.34999979E-03  -1.81913867E-06
  -8.29999987E-03  -1.85967360E-06
  -8.24999996E-03  -1.90104095E-06
  -8.20000004E-03  -1.94325639E-06
  -8.15000013E-03  -1.98633415E-06
  -8.10000021E-03  -2.03028935E-06
  -8.05000030E-03  -2.07513494E-06
  -8.00000038E-03  -2.12088639E-06
  -7.95000046E-03  -2.16755825E-06
  -7.89999962E-03  -2.21516621E-06
  -7.84999970E-03  -2.26372322E-06
  -7.79999979E-03  -2.31324384E-06
  -7.74999987E-03  -2.36374399E-06
  -7.69999996E-03  -2.41524094E-06
  -7.65000004E-03  -2.46775085E-06
  -7.60000013E-03  -2.52129053E-06
  -7.55000021E-03  -2.57587521E-06
  -7.49999983E-03  -2.63152106E-06
  -7.44999992E-03  -2.68824488E-06
  -7.40000000E-03  -2.74606396E-06
  -7.35000009E-03  -2.80499421E-06
  -7.30000017E-03  -2.86505224E-06
  -7.24999979E-03  -2.92625464E-06
  -7.19999988E-03  -2.98862028E-06
  -7.14999996E-03  -3.05216849E-06
  -7.10000005E-03  -3.11691747E-06
  -7.05000013E-03  -3.18288357E-06
  -7.00000022E-03  -3.25008205E-06
  -6.94999984E-03  -3.31852993E-06
  -6.89999992E-03  -3.38824543E-06
  -6.85000001E-03  -3.45924741E-06
  -6.80000009E-03  -3.53155338E-06
  -6.75000018E-03  -3.60518061E-06
  -6.69999979E-03  -3.68014594E-06
  -6.64999988E-03  -3.75646914E-06
  -6.59999996E-03  -3.83417046E-06
  -6.55000005E-03  -3.91326785E-06
  -6.50000013E-03  -3.99377814E-06
  -6.45000022E-03  -4.07571770E-06
  -6.39999984E-03  -4.15910745E-06
  -6.34999992E-03  -4.24396922E-06
  -6.30000001E-03  -4.33032392E-06
  -6.25000009E-03  -4.41818975E-06
  -6.20000018E-03  -4.50758716E-06
  -6.14999980E-03  -4.59853572E-06
  -6.09999988E-03  -4.69105726E-06
  -6.04999997E-03  -4.78517131E-06
  -6.00000005E-03  -4.88089654E-06
  -5.95000014E-03  -4.97825295E-06
  -5.90000022E-03  -5.07726099E-06
  -5.84999984E-03  -5.17794433E-06
  -5.79999993E-03  -5.28032524E-06
  -5.75000001E-03  -5.38442328E-06
  -5.70000010E-03  -5.49025754E-06
  -5.65000018E-03  -5.59784939E-06
  -5.59999980E-03  -5.70721795E-06
  -5.54999989E-03  -5.81838458E-06
  -5.49999997E-03  -5.93136838E-06
  -5.45000006E-03  -6.04619390E-06
  -5.40000014E-03  -6.16288389E-06
  -5.35000023E-03  -6.28146154E-06
  -5.29999984E-03  -6.40194867E-06
  -5.24999993E-03  -6.52436847E-06
  -5.20000001E-03  -6.64874233E-06
  -5.15000010E-03  -6.77509433E-06
  -5.10000018E-03  -6.90344723E-06
  -5.04999980E-03  -7.03382466E-06
  -4.99999989E-03  -7.16625300E-06
  -4.94999997E-03  -7.30075953E-06
  -4.90000006E-03  -7.43736882E-06
  -4.85000014E-03  -7.57610496E-06
  -4.80000023E-03  -7.71699069E-06
  -4.74999985E-03  -7.86005057E-06
  -4.69999993E-03  -8.00530870E-06
  -4.65000002E-03  -8.15278963E-06
  -4.60000010E-03  -8.30251702E-06
  -4.55000019E-03  -8.45451541E-06
  -4.49999981E-03  -8.60881119E-06
  -4.44999989E-03  -8.76543436E-06
  -4.39999998E-03  -8.92440767E-06
  -4.35000006E-03  -9.08576112E-06
  -4.30000015E-03  -9.24951837E-06
  -4.25000023E-03  -9.41570306E-06
  -4.19999985E-03  -9.58433975E-06
  -4.14999994E-03  -9.75545754E-06
  -4.10000002E-03  -9.92909281E-06
  -4.05000011E-03  -1.01052747E-05
  -4.00000019E-03  -1.02840313E-05
  -3.94999981E-03  -1.04653909E-05
  -3.89999989E-03  -1.06493817E-05
  -3.84999998E-03  -1.08360346E-05
  -3.80000006E-03  -1.10253814E-05
  -3.74999992E-03  -1.12174475E-05
  -3.70000000E-03  -1.14122622E-05
  -3.65000009E-03  -1.16098527E-05
  -3.59999994E-03  -1.18102544E-05
  -3.55000002E-03  -1.20135028E-05
  -3.50000011E-03  -1.22196288E-05
  -3.44999996E-03  -1.24286607E-05
  -3.40000005E-03  -1.26406239E-05
  -3.34999990E-03  -1.28555512E-05
  -3.29999998E-03  -1.30734743E-05
  -3.25000007E-03  -1.32944251E-05
  -3.19999992E-03  -1.35184318E-05
  -3.15000000E-03  -1.37455327E-05
  -3.10000009E-03  -1.39757603E-05
  -3.04999994E-03  -1.42091521E-05
  -3.00000003E-03  -1.44457445E-05
  -2.95000011E-03  -1.46855637E-05
  -2.89999996E-03  -1.49286434E-05
  -2.85000005E-03  -1.51750137E-05
  -2.79999990E-03  -1.54247118E-05
  -2.74999999E-03  -1.56777733E-05
  -2.70000007E-03  -1.59342417E-05
  -2.64999992E-03  -1.61941498E-05
  -2.60000001E-03  -1.64575322E-05
  -2.55000009E-03  -1.67244325E-05
  -2.49999994E-03  -1.69948798E-05
  -2.45000003E-03  -1.72689033E-05
  -2.40000011E-03  -1.75465393E-05
  -2.34999997E-03  -1.78278260E-05
  -2.30000005E-03  -1.81128053E-05
  -2.24999990E-03  -1.84015098E-05
  -2.19999999E-03  -1.86939742E-05
  -2.15000007E-03  -1.89902366E-05
  -2.09999993E-03  -1.92903371E-05
  -2.05000001E-03  -1.95943194E-05
  -2.00000009E-03  -1.99022070E-05
  -1.94999995E-03  -2.02140363E-05
  -1.90000003E-03  -2.05298384E-05
  -1.85000000E-03  -2.08496585E-05
  -1.79999997E-03  -2.11735442E-05
  -1.75000005E-03  -2.15015389E-05
  -1.70000002E-03  -2.18336772E-05
  -1.64999999E-03  -2.21699975E-05
  -1.59999996E-03  -2.25105305E-05
  -1.55000004E-03  -2.28553199E-05
  -1.50000001E-03  -2.32044076E-05
  -1.44999998E-03  -2.35578300E-05
  -1.39999995E-03  -2.39156288E-05
  -1.35000004E-03  -2.42778333E-05
  -1.30000000E-03  -2.46444924E-05
  -1.24999997E-03  -2.50156572E-05
  -1.20000006E-03  -2.53913677E-05
  -1.15000003E-03  -2.57716547E-05
  -1.09999999E-03  -2.61565510E-05
  -1.04999996E-03  -2.65460931E-05
  -1.00000005E-03  -2.69403208E-05
  -9.50000016E-04  -2.73392834E-05
  -8.99999985E-04  -2.77430154E-05
  -8.50000011E-04  -2.81515604E-05
  -7.99999980E-04  -2.85649621E-05
  -7.50000007E-04  -2.89832733E-05
  -6.99999975E-04  -2.94065285E-05
  -6.50000002E-04  -2.98347586E-05
  -6.00000028E-04  -3.02680055E-05
  -5.49999997E-04  -3.07063092E-05
  -5.00000024E-04  -3.11497170E-05
  -4.49999992E-04  -3.15982761E-05
  -3.99999990E-04  -3.20520121E-05
  -3.49999988E-04  -3.25109795E-05
  -3.00000014E-04  -3.29752256E-05
  -2.50000012E-04  -3.34448087E-05
  -1.99999995E-04  -3.39197613E-05
  -1.50000007E-04  -3.44001055E-05
  -9.99999975E-05  -3.48858739E-05
  -4.99999987E-05  -3.53771247E-05
   0.00000000      -3.58739162E-05
   4.99999987E-05  -3.63762883E-05
   9.99999975E-05  -3.68842666E-05
   1.50000007E-04  -3.73979055E-05
   1.99999995E-04  -3.79172634E-05
   2.50000012E-04  -3.84423729E-05
   3.00000014E-04  -3.89732631E-05
   3.49999988E-04  -3.95099560E-05
   3.99999990E-04  -4.00525023E-05
   4.49999992E-04  -4.06009749E-05
   5.00000024E-04  -4.11554392E-05
   5.49999997E-04  -4.17159063E-05
   6.00000028E-04  -4.22824123E-05
   6.50000002E-04  -4.28549974E-05
   6.99999975E-04  -4.34337344E-05
   7.50000007E-04  -4.40186777E-05
   7.99999980E-04  -4.46098456E-05
   8.50000011E-04  -4.52072709E-05
   8.99999985E-04  -4.58110044E-05
   9.50000016E-04  -4.64211116E-05
   1.00000005E-03  -4.70376435E-05
   1.04999996E-03  -4.76606401E-05
   1.09999999E-03  -4.82901451E-05
   1.15000003E-03  -4.89261984E-05
   1.20000006E-03  -4.95688400E-05
   1.24999997E-03  -5.02181101E-05
   1.30000000E-03  -5.08740559E-05
   1.35000004E-03  -5.15367319E-05
   1.39999995E-03  -5.22061673E-05
   1.44999998E-03  -5.28824166E-05
   1.50000001E-03  -5.35655417E-05
   1.55000004E-03  -5.42555863E-05
   1.59999996E-03  -5.49526012E-05
   1.64999999E-03  -5.56566301E-05
   1.70000002E-03  -5.63676913E-05
   1.75000005E-03  -5.70858465E-05
   1.79999997E-03  -5.78111467E-05
   1.85000000E-03  -5.85436537E-05
   1.90000003E-03  -5.92834222E-05
   1.94999995E-03  -6.00304738E-05
   2.00000009E-03  -6.07848706E-05
   2.05000001E-03  -6.15466706E-05
   2.09999993E-03  -6.23159212E-05
   2.15000007E-03  -6.30926588E-05
   2.19999999E-03  -6.38769343E-05
   2.24999990E-03  -6.46687695E-05
   2.30000005E-03  -6.54682226E-05
   2.34999997E-03  -6.62753882E-05
   2.40000011E-03  -6.70903173E-05
   2.45000003E-03  -6.79130462E-05
   2.49999994E-03  -6.87435895E-05
   2.55000009E-03  -6.95819908E-05
   2.60000001E-03  -7.04283375E-05
   2.64999992E-03  -7.12826804E-05
   2.70000007E-03  -7.21450706E-05
   2.74999999E-03  -7.30155371E-05
   2.79999990E-03  -7.38941017E-05