  -3.99999991E-02   0.00000000    
  -3.99499983E-02   0.00000000    
  -3.99000011E-02   0.00000000    
  -3.98500003E-02   0.00000000    
  -3.97999994E-02  -1.05624961E-19
  -3.97499986E-02  -8.09914303E-19
  -3.97000015E-02  -3.33192176E-18
  -3.96500006E-02  -9.78235869E-18
  -3.95999998E-02  -2.31679773E-17
  -3.95499989E-02  -4.76335496E-17
  -3.95000018E-02  -8.91653452E-17
  -3.94500010E-02  -1.56006780E-16
  -3.94000001E-02  -2.57364582E-16
  -3.93499993E-02  -4.00122615E-16
  -3.92999984E-02  -5.85869396E-16
  -3.92500013E-02  -8.11775042E-16
  -3.92000005E-02  -1.07633377E-15
  -3.91499996E-02  -1.38634825E-15
  -3.90999988E-02  -1.75963726E-15
  -3.90500017E-02  -2.22149319E-15
  -3.90000008E-02  -2.79844376E-15
  -3.89500000E-02  -3.51413599E-15
  -3.88999991E-02  -4.38786064E-15
  -3.88499983E-02  -5.43230647E-15
  -3.88000011E-02  -6.64960844E-15
  -3.87500003E-02  -8.03102515E-15
  -3.86999995E-02  -9.56622239E-15
  -3.86499986E-02  -1.12590770E-14
  -3.86000015E-02  -1.31368263E-14
  -3.85500006E-02  -1.52414397E-14
  -3.84999998E-02  -1.76073586E-14
  -3.84499989E-02  -2.02430015E-14
  -3.84000018E-02  -2.31295340E-14
  -3.83500010E-02  -2.62325579E-14
  -3.83000001E-02  -2.95110006E-14
  -3.82499993E-02  -3.29155580E-14
  -3.81999984E-02  -3.63861942E-14
  -3.81500013E-02  -3.98620278E-14
  -3.81000005E-02  -4.33005716E-14
  -3.80499996E-02  -4.66870703E-14
  -3.79999988E-02  -5.00205346E-14
  -3.79500017E-02  -5.32877473E-14
  -3.79000008E-02  -5.64502329E-14
  -3.78500000E-02  -5.94532697E-14
  -3.77999991E-02  -6.22378871E-14
  -3.77499983E-02  -6.47312201E-14
  -3.77000012E-02  -6.68191766E-14
  -3.76500003E-02  -6.83349319E-14
  -3.75999995E-02  -6.90885337E-14
  -3.75499986E-02  -6.89205705E-14
  -3.75000015E-02  -6.77320071E-14
  -3.74500006E-02  -6.54601089E-14
  -3.73999998E-02  -6.20204165E-14
  -3.73499990E-02  -5.72633100E-14
  -3.73000018E-02  -5.09732908E-14
  -3.72500010E-02  -4.28985054E-14
  -3.72000001E-02  -3.27882896E-14
  -3.71499993E-02  -2.04401773E-14
  -3.70999984E-02  -5.77154317E-15
  -3.70500013E-02   1.11023903E-14
  -3.70000005E-02   2.98522735E-14
  -3.69499996E-02   5.00431673E-14
  -3.68999988E-02   7.13488513E-14
  -3.68500017E-02   9.37562202E-14
  -3.68000008E-02   1.17627181E-13
  -3.67500000E-02   1.43572600E-13
  -3.66999991E-02   1.72206596E-13
  -3.66499983E-02   2.03899452E-13
  -3.66000012E-02   2.38616771E-13
  -3.65500003E-02   2.75882399E-13
  -3.64999995E-02   3.14882669E-13
  -3.64499986E-02   3.54713898E-13
  -3.64000015E-02   3.94710957E-13
  -3.63500006E-02   4.34701727E-13
  -3.62999998E-02   4.75004855E-13
  -3.62499990E-02   5.16110917E-13
  -3.62000018E-02   5.58193032E-13
  -3.61500010E-02   6.00731108E-13
  -3.61000001E-02   6.42477662E-13
  -3.60499993E-02   6.81788122E-13
  -3.59999985E-02   7.17145690E-13
  -3.59500013E-02   7.47643538E-13
  -3.59000005E-02   7.73237052E-13
  -3.58499996E-02   7.94657038E-13
  -3.57999988E-02   8.12962761E-13
  -3.57500017E-02   8.28842854E-13
  -3.57000008E-02   8.41941751E-13
  -3.56500000E-02   8.50587721E-13
  -3.55999991E-02   8.52169680E-13
  -3.55499983E-02   8.44064673E-13
  -3.55000012E-02   8.24669760E-13
  -3.54500003E-02   7.93987434E-13
  -3.53999995E-02   7.53453289E-13
  -3.53499986E-02   7.05087844E-13
  -3.53000015E-02   6.50357752E-13
  -3.52500007E-02   5.89231300E-13
  -3.51999998E-02   5.19817208E-13
  -3.51499990E-02   4.38800634E-13
  -3.51000018E-02   3.42612413E-13
  -3.50500010E-02   2.28936228E-13
  -3.50000001E-02   9.78761682E-14
  -3.49499993E-02  -4.78645613E-14
  -3.48999985E-02  -2.04017169E-13
  -3.48500013E-02  -3.66563008E-13
  -3.48000005E-02  -5.33447743E-13
  -3.47499996E-02  -7.05342631E-13
  -3.46999988E-02  -8.85101562E-13
  -3.46500017E-02  -1.07618114E-12
  -3.46000008E-02  -1.28071815E-12
  -3.45500000E-02  -1.49806762E-12
  -3.44999991E-02  -1.72443386E-12
  -3.44499983E-02  -1.95386003E-12
  -3.44000012E-02  -2.18028265E-12
  -3.43500003E-02  -2.39980887E-12
  -3.42999995E-02  -2.61209175E-12
  -3.42499986E-02  -2.81999250E-12
  -3.42000015E-02  -3.02755260E-12
  -3.41500007E-02  -3.23722256E-12
  -3.40999998E-02  -3.44770501E-12
  -3.40499990E-02  -3.65346078E-12
  -3.40000018E-02  -3.84610009E-12
  -3.39500010E-02  -4.01702283E-12
  -3.39000002E-02  -4.16019302E-12
  -3.38499993E-02  -4.27386859E-12
  -3.37999985E-02  -4.36048506E-12
  -3.37500013E-02  -4.42458396E-12
  -3.37000005E-02  -4.46955754E-12
  -3.36499996E-02  -4.49467677E-12
  -3.35999988E-02  -4.49393821E-12
  -3.35500017E-02  -4.45749774E-12
  -3.35000008E-02  -4.37514348E-12
  -3.34500000E-02  -4.24019240E-12
  -3.33999991E-02  -4.05193804E-12
  -3.33499983E-02  -3.81553253E-12
  -3.33000012E-02  -3.53936086E-12
  -3.32500003E-02  -3.23104607E-12
  -3.31999995E-02  -2.89372888E-12
  -3.31499986E-02  -2.52420827E-12
  -3.31000015E-02  -2.11384317E-12
  -3.30500007E-02  -1.65203907E-12
  -3.29999998E-02  -1.13094733E-12
  -3.29499990E-02  -5.49252050E-13
  -3.29000019E-02   8.68223001E-14
  -3.28500010E-02   7.65850436E-13
  -3.28000002E-02   1.47577653E-12
  -3.27499993E-02   2.20849597E-12
  -3.26999985E-02   2.96232288E-12
  -3.26500013E-02   3.74129677E-12
  -3.26000005E-02   4.55175177E-12
  -3.25499997E-02   5.39764674E-12
  -3.24999988E-02   6.27665454E-12
  -3.24500017E-02   7.17869991E-12
  -3.24000008E-02   8.08778999E-12
  -3.23500000E-02   8.98654155E-12
  -3.22999991E-02   9.86146755E-12
  -3.22499983E-02   1.07065129E-11
  -3.22000012E-02   1.15230525E-11
  -3.21500003E-02   1.23162877E-11
  -3.20999995E-02   1.30898244E-11
  -3.20499986E-02   1.38410238E-11
  -3.20000015E-02   1.45592271E-11
  -3.19500007E-02   1.52275154E-11
  -3.18999998E-02   1.58271538E-11
  -3.18499990E-02   1.63428594E-11
  -3.18000019E-02   1.67667321E-11
  -3.17500010E-02   1.70990964E-11
  -3.17000002E-02   1.73456752E-11
  -3.16499993E-02   1.75121861E-11
  -3.15999985E-02   1.75987714E-11
  -3.15500014E-02   1.75969742E-11
  -3.15000005E-02   1.74908543E-11
  -3.14499997E-02   1.72617007E-11
  -3.13999988E-02   1.68941267E-11
  -3.13500017E-02   1.63807700E-11
  -3.13000008E-02   1.57237955E-11
  -3.12500000E-02   1.49327443E-11
  -3.11999992E-02   1.40197862E-11
  -3.11500002E-02   1.29942689E-11
  -3.10999993E-02   1.18587258E-11
  -3.10500003E-02   1.06081107E-11
  -3.09999995E-02   9.23276039E-12
  -3.09500005E-02   7.72388837E-12
  -3.08999997E-02   6.07903484E-12
  -3.08500007E-02   4.30484771E-12
  -3.07999998E-02   2.41597606E-12
  -3.07500008E-02   4.30818792E-13
  -3.07000000E-02  -1.63370684E-12
  -3.06499992E-02  -3.76607773E-12
  -3.06000002E-02  -5.96139457E-12
  -3.05499993E-02  -8.21968101E-12
  -3.05000003E-02  -1.05420004E-11
  -3.04499995E-02  -1.29258522E-11
  -3.04000005E-02  -1.53616390E-11
  -3.03499997E-02  -1.78319286E-11
  -3.03000007E-02  -2.03139797E-11
  -3.02499998E-02  -2.27844080E-11
  -3.02000009E-02  -2.52236600E-11
  -3.01500000E-02  -2.76181057E-11
  -3.00999992E-02  -2.99590769E-11
  -3.00500002E-02  -3.22396068E-11
  -2.99999993E-02  -3.44506576E-11
  -2.99500003E-02  -3.65783202E-11
  -2.98999995E-02  -3.86029507E-11
  -2.98500005E-02  -4.05004294E-11
  -2.97999997E-02  -4.22455022E-11
  -2.97500007E-02  -4.38159474E-11
  -2.96999998E-02  -4.51960587E-11
  -2.96500009E-02  -4.63776101E-11
  -2.96000000E-02  -4.73576768E-11
  -2.95499992E-02  -4.81343576E-11
  -2.95000002E-02  -4.87025177E-11
  -2.94499993E-02  -4.90513324E-11
  -2.94000003E-02  -4.91644399E-11
  -2.93499995E-02  -4.90221266E-11
  -2.93000005E-02  -4.86047348E-11
  -2.92499997E-02  -4.78962703E-11
  -2.92000007E-02  -4.68872094E-11
  -2.91499998E-02  -4.55754809E-11
  -2.91000009E-02  -4.39647728E-11
  -2.90500000E-02  -4.20607264E-11
  -2.89999992E-02  -3.98667696E-11
  -2.89500002E-02  -3.73816950E-11
  -2.88999993E-02  -3.46000485E-11
  -2.88500004E-02  -3.15149504E-11
  -2.87999995E-02  -2.81218087E-11
  -2.87500005E-02  -2.44214284E-11
  -2.86999997E-02  -2.04217771E-11
  -2.86500007E-02  -1.61379694E-11
  -2.85999998E-02  -1.15903684E-11
  -2.85500009E-02  -6.80103326E-12
  -2.85000000E-02  -1.78964395E-12
  -2.84499992E-02   3.42901619E-12
  -2.84000002E-02   8.84472617E-12
  -2.83499993E-02   1.44486497E-11
  -2.83000004E-02   2.02290754E-11
  -2.82499995E-02   2.61683765E-11
  -2.82000005E-02   3.22422158E-11
  -2.81499997E-02   3.84209158E-11
  -2.81000007E-02   4.46720612E-11
  -2.80499998E-02   5.09633030E-11
  -2.80000009E-02   5.72646618E-11
  -2.79500000E-02   6.35495614E-11
  -2.78999992E-02   6.97937333E-11
  -2.78500002E-02   7.59720967E-11
  -2.77999993E-02   8.20550364E-11
  -2.77500004E-02   8.80064840E-11
  -2.76999995E-02   9.37848410E-11
  -2.76500005E-02   9.93464824E-11
  -2.75999997E-02   1.04649796E-10
  -2.75500007E-02   1.09657824E-10
  -2.74999999E-02   1.14338650E-10
  -2.74500009E-02   1.18664190E-10
  -2.74000000E-02   1.22607952E-10
  -2.73499992E-02   1.26142596E-10
  -2.73000002E-02   1.29237676E-10
  -2.72499993E-02   1.31858718E-10
  -2.72000004E-02   1.33968572E-10
  -2.71499995E-02   1.35530823E-10
  -2.71000005E-02   1.36513592E-10
  -2.70499997E-02   1.36891568E-10
  -2.70000007E-02   1.36645695E-10
  -2.69499999E-02   1.35761194E-10
  -2.69000009E-02   1.34225450E-10
  -2.68500000E-02   1.32026945E-10
  -2.67999992E-02   1.29154382E-10
  -2.67500002E-02   1.25596256E-10
  -2.66999993E-02   1.21340230E-10
  -2.66500004E-02   1.16373751E-10
  -2.65999995E-02   1.10685842E-10
  -2.65500005E-02   1.04269808E-10
  -2.64999997E-02   9.71255368E-11
  -2.64500007E-02   8.92609112E-11
  -2.63999999E-02   8.06923695E-11
  -2.63500009E-02   7.14445239E-11
  -2.63000000E-02   6.15487175E-11
  -2.62499992E-02   5.10393949E-11
  -2.62000002E-02   3.99490996E-11
  -2.61499994E-02   2.83045375E-11
  -2.61000004E-02   1.61262202E-11
  -2.60499995E-02   3.43306351E-12
  -2.60000005E-02  -9.75020151E-12
  -2.59499997E-02  -2.33862998E-11
  -2.59000007E-02  -3.74226969E-11
  -2.58499999E-02  -5.17939788E-11
  -2.58000009E-02  -6.64287306E-11
  -2.57500000E-02  -8.12586734E-11
  -2.56999992E-02  -9.62265614E-11
  -2.56500002E-02  -1.11289464E-10
  -2.55999994E-02  -1.26414643E-10
  -2.55500004E-02  -1.41568507E-10
  -2.54999995E-02  -1.56702859E-10
  -2.54500005E-02  -1.71745368E-10
  -2.53999997E-02  -1.86599958E-10
  -2.53500007E-02  -2.01157979E-10
  -2.52999999E-02  -2.15315765E-10
  -2.52500009E-02  -2.28990368E-10
  -2.52000000E-02  -2.42126263E-10
  -2.51499992E-02  -2.54690186E-10
  -2.51000002E-02  -2.66655004E-10
  -2.50499994E-02  -2.77980305E-10
  -2.50000004E-02  -2.88596841E-10
  -2.49499995E-02  -2.98403191E-10
  -2.49000005E-02  -3.07278647E-10
  -2.48499997E-02  -3.15107690E-10
  -2.48000007E-02  -3.21806554E-10
  -2.47499999E-02  -3.27337379E-10
  -2.47000009E-02  -3.31703026E-10
  -2.46500000E-02  -3.34922479E-10
  -2.45999992E-02  -3.36997902E-10
  -2.45500002E-02  -3.37888523E-10
  -2.44999994E-02  -3.37503442E-10
  -2.44500004E-02  -3.35717842E-10
  -2.43999995E-02  -3.32407324E-10
  -2.43500005E-02  -3.27486288E-10
  -2.42999997E-02  -3.20934695E-10
  -2.42500007E-02  -3.12799064E-10
  -2.41999999E-02  -3.03164910E-10
  -2.41500009E-02  -2.92110919E-10
  -2.41000000E-02  -2.79665069E-10
  -2.40499992E-02  -2.65784283E-10
  -2.40000002E-02  -2.50368309E-10
  -2.39499994E-02  -2.33303765E-10
  -2.39000004E-02  -2.14518028E-10
  -2.38499995E-02  -1.94020036E-10
  -2.38000005E-02  -1.71908723E-10
  -2.37499997E-02  -1.48344462E-10
  -2.37000007E-02  -1.23494409E-10
  -2.36499999E-02  -9.74742023E-11
  -2.36000009E-02  -7.03121172E-11
  -2.35500000E-02  -4.19542318E-11
  -2.34999992E-02  -1.23108156E-11
  -2.34500002E-02   1.86747041E-11
  -2.33999994E-02   5.09667378E-11
  -2.33500004E-02   8.44158771E-11
  -2.32999995E-02   1.18786952E-10
  -2.32500006E-02   1.53825966E-10
  -2.31999997E-02   1.89333896E-10
  -2.31500007E-02   2.25216956E-10
  -2.30999999E-02   2.61487498E-10
  -2.30500009E-02   2.98214647E-10
  -2.30000000E-02   3.35444200E-10
  -2.29499992E-02   3.73121284E-10
  -2.29000002E-02   4.11052081E-10
  -2.28499994E-02   4.48925536E-10
  -2.28000004E-02   4.86388319E-10
  -2.27499995E-02   5.23141530E-10
  -2.27000006E-02   5.59014501E-10
  -2.26499997E-02   5.93981142E-10
  -2.26000007E-02   6.28108177E-10
  -2.25499999E-02   6.61459332E-10
  -2.25000009E-02   6.93996416E-10
  -2.24500000E-02   7.25522697E-10
  -2.23999992E-02   7.55693896E-10
  -2.23500002E-02   7.84095788E-10
  -2.22999994E-02   8.10356393E-10
  -2.22500004E-02   8.34244895E-10
  -2.21999995E-02   8.55710669E-10
  -2.21500006E-02   8.74842365E-10
  -2.20999997E-02   8.91759777E-10
  -2.20500007E-02   9.06489217E-10
  -2.19999999E-02   9.18877530E-10
  -2.19500009E-02   9.28585930E-10
  -2.19000001E-02   9.35167499E-10
  -2.18499992E-02   9.38194411E-10
  -2.18000002E-02   9.37380840E-10
  -2.17499994E-02   9.32647293E-10
  -2.17000004E-02   9.24095911E-10
  -2.16499995E-02   9.11905385E-10
  -2.16000006E-02   8.96190400E-10
  -2.15499997E-02   8.76886064E-10
  -2.15000007E-02   8.53713100E-10
  -2.14499999E-02   8.26242796E-10
  -2.14000009E-02   7.94034616E-10
  -2.13500001E-02   7.56783747E-10
  -2.12999992E-02   7.14411252E-10
  -2.12500002E-02   6.67055411E-10
  -2.11999994E-02   6.14968076E-10
  -2.11500004E-02   5.58359747E-10
  -2.10999995E-02   4.97261732E-10
  -2.10500006E-02   4.31466390E-10
  -2.09999997E-02   3.60573710E-10
  -2.09500007E-02   2.84132440E-10
  -2.08999999E-02   2.01808681E-10
  -2.08500009E-02   1.13511582E-10
  -2.08000001E-02   1.94152767E-11
  -2.07499992E-02  -8.01397698E-11
  -2.07000002E-02  -1.84817522E-10
  -2.06499994E-02  -2.94456598E-10
  -2.06000004E-02  -4.09160067E-10
  -2.05499995E-02  -5.29271404E-10
  -2.05000006E-02  -6.55237142E-10
  -2.04499997E-02  -7.87420851E-10
  -2.04000007E-02  -9.25944099E-10
  -2.03499999E-02  -1.07062847E-09
  -2.03000009E-02  -1.22106947E-09
  -2.02500001E-02  -1.37681100E-09
  -2.01999992E-02  -1.53754443E-09
  -2.01500002E-02  -1.70324432E-09
  -2.00999994E-02  -1.87417704E-09
  -2.00500004E-02  -2.05077777E-09
  -1.99999996E-02  -2.23344876E-09
  -1.99500006E-02  -2.42236919E-09
  -1.98999997E-02  -2.61739919E-09
  -1.98500007E-02  -2.81812440E-09
  -1.97999999E-02  -3.02401371E-09
  -1.97500009E-02  -3.23463856E-09
  -1.97000001E-02  -3.44984397E-09
  -1.96499992E-02  -3.66980291E-09
  -1.96000002E-02  -3.89492261E-09
  -1.95499994E-02  -4.12564427E-09
  -1.95000004E-02  -4.36221859E-09
  -1.94499996E-02  -4.60456695E-09
  -1.94000006E-02  -4.85229057E-09
  -1.93499997E-02  -5.10481657E-09
  -1.93000007E-02  -5.36162847E-09
  -1.92499999E-02  -5.62246516E-09
  -1.92000009E-02  -5.88741900E-09
  -1.91500001E-02  -6.15687590E-09
  -1.90999992E-02  -6.43132880E-09
  -1.90500002E-02  -6.71113121E-09
  -1.89999994E-02  -6.99632086E-09
  -1.89500004E-02  -7.28657579E-09
  -1.88999996E-02  -7.58133201E-09
  -1.88500006E-02  -7.88002197E-09
  -1.87999997E-02  -8.18231793E-09
  -1.87500007E-02  -8.48827053E-09
  -1.86999999E-02  -8.79828832E-09
  -1.86500009E-02  -9.11295661E-09
  -1.86000001E-02  -9.43277989E-09
  -1.85499992E-02  -9.75795977E-09
  -1.85000002E-02  -1.00883142E-08
  -1.84499994E-02  -1.04233511E-08
  -1.84000004E-02  -1.07625002E-08
  -1.83499996E-02  -1.11053753E-08
  -1.83000006E-02  -1.14519851E-08
  -1.82499997E-02  -1.18027694E-08
  -1.82000007E-02  -1.21584574E-08
  -1.81499999E-02  -1.25197879E-08
  -1.81000009E-02  -1.28872442E-08
  -1.80500001E-02  -1.32609035E-08
  -1.79999992E-02  -1.36404932E-08
  -1.79500002E-02  -1.40255709E-08
  -1.78999994E-02  -1.44158081E-08
  -1.78500004E-02  -1.48112393E-08
  -1.77999996E-02  -1.52123505E-08
  -1.77500006E-02  -1.56200066E-08
  -1.76999997E-02  -1.60351892E-08
  -1.76500008E-02  -1.64586798E-08
  -1.75999999E-02  -1.68908691E-08
  -1.75500009E-02  -1.73317236E-08
  -1.75000001E-02  -1.77809660E-08
  -1.74499992E-02  -1.82383815E-08
  -1.74000002E-02  -1.87040765E-08
  -1.73499994E-02  -1.91786498E-08
  -1.73000004E-02  -1.96631440E-08
  -1.72499996E-02  -2.01587831E-08
  -1.72000006E-02  -2.06667057E-08
  -1.71499997E-02  -2.11876934E-08
  -1.71000008E-02  -2.17220801E-08
  -1.70499999E-02  -2.22698624E-08
  -1.70000009E-02  -2.28309993E-08
  -1.69500001E-02  -2.34057254E-08
  -1.68999992E-02  -2.39948026E-08
  -1.68500002E-02  -2.45994851E-08
  -1.67999994E-02  -2.52213237E-08
  -1.67500004E-02  -2.58618247E-08
  -1.66999996E-02  -2.65221587E-08
  -1.66500006E-02  -2.72030327E-08
  -1.65999997E-02  -2.79047487E-08
  -1.65500008E-02  -2.86274755E-08
  -1.64999999E-02  -2.93715683E-08
  -1.64500009E-02  -3.01378762E-08
  -1.64000001E-02  -3.09278150E-08
  -1.63499992E-02  -3.17432161E-08
  -1.63000003E-02  -3.25859908E-08
  -1.62499994E-02  -3.34577557E-08
  -1.62000004E-02  -3.43595978E-08
  -1.61499996E-02  -3.52921496E-08
  -1.61000006E-02  -3.62557984E-08
  -1.60499997E-02  -3.72510485E-08
  -1.60000008E-02  -3.82788379E-08
  -1.59499999E-02  -3.93406800E-08
  -1.59000009E-02  -4.04385752E-08
  -1.58500001E-02  -4.15747081E-08
  -1.57999992E-02  -4.27510862E-08
  -1.57500003E-02  -4.39692052E-08
  -1.56999994E-02  -4.52300029E-08
  -1.56500004E-02  -4.65340584E-08
  -1.55999996E-02  -4.78819757E-08
  -1.55499997E-02  -4.92746963E-08
  -1.54999997E-02  -5.07137479E-08
  -1.54499998E-02  -5.22012087E-08
  -1.53999999E-02  -5.37394307E-08
  -1.53500000E-02  -5.53306023E-08
  -1.53000001E-02  -5.69765035E-08
  -1.52500002E-02  -5.86783209E-08
  -1.52000003E-02  -6.04367969E-08
  -1.51500003E-02  -6.22525747E-08
  -1.51000004E-02  -6.41266098E-08
  -1.50499996E-02  -6.60603732E-08
  -1.49999997E-02  -6.80559680E-08
  -1.49499997E-02  -7.01158385E-08
  -1.48999998E-02  -7.22423863E-08
  -1.48499999E-02  -7.44375868E-08
  -1.48000000E-02  -7.67027828E-08
  -1.47500001E-02  -7.90387915E-08
  -1.47000002E-02  -8.14462098E-08
  -1.46500003E-02  -8.39258831E-08
  -1.46000003E-02  -8.64791758E-08
  -1.45500004E-02  -8.91080845E-08
  -1.44999996E-02  -9.18149681E-08
  -1.44499997E-02  -9.46022851E-08
  -1.43999998E-02  -9.74722241E-08
  -1.43499998E-02  -1.00426327E-07
  -1.42999999E-02  -1.03465553E-07
  -1.42500000E-02  -1.06590448E-07
  -1.42000001E-02  -1.09801718E-07
  -1.41500002E-02  -1.13100597E-07
  -1.41000003E-02  -1.16488970E-07
  -1.40500003E-02  -1.19969258E-07
  -1.40000004E-02  -1.23543970E-07
  -1.39499996E-02  -1.27215429E-07
  -1.38999997E-02  -1.30985384E-07
  -1.38499998E-02  -1.34855000E-07
  -1.37999998E-02  -1.38824987E-07
  -1.37499999E-02  -1.42896056E-07
  -1.37000000E-02  -1.47069372E-07
  -1.36500001E-02  -1.51346740E-07
  -1.36000002E-02  -1.55730504E-07
  -1.35500003E-02  -1.60223379E-07
  -1.35000004E-02  -1.64827981E-07
  -1.34500004E-02  -1.69546396E-07
  -1.33999996E-02  -1.74380190E-07
  -1.33499997E-02  -1.79330371E-07
  -1.32999998E-02  -1.84397862E-07
  -1.32499998E-02  -1.89583972E-07
  -1.31999999E-02  -1.94890703E-07
  -1.31500000E-02  -2.00320727E-07
  -1.31000001E-02  -2.05877058E-07
  -1.30500002E-02  -2.11562579E-07
  -1.30000003E-02  -2.17379792E-07
  -1.29500004E-02  -2.23330758E-07
  -1.29000004E-02  -2.29417083E-07
  -1.28499996E-02  -2.35640130E-07
  -1.27999997E-02  -2.42001562E-07
  -1.27499998E-02  -2.48503625E-07
  -1.26999998E-02  -2.55149388E-07
  -1.26499999E-02  -2.61942489E-07
  -1.26000000E-02  -2.68886680E-07
  -1.25500001E-02  -2.75985286E-07
  -1.25000002E-02  -2.83240837E-07
  -1.24500003E-02  -2.90655578E-07
  -1.24000004E-02  -2.98231555E-07
  -1.23500004E-02  -3.05971099E-07
  -1.22999996E-02  -3.13877194E-07
  -1.22499997E-02  -3.21953195E-07
  -1.21999998E-02  -3.30203306E-07
  -1.21499998E-02  -3.38632304E-07
  -1.20999999E-02  -3.47244821E-07
  -1.20500000E-02  -3.56044808E-07
  -1.20000001E-02  -3.65035731E-07
  -1.19500002E-02  -3.74220662E-07
  -1.19000003E-02  -3.83602753E-07
  -1.18500004E-02  -3.93185729E-07
  -1.18000004E-02  -4.02973939E-07
  -1.17499996E-02  -4.12972099E-07
  -1.16999997E-02  -4.23185298E-07
  -1.16499998E-02  -4.33618709E-07
  -1.15999999E-02  -4.44277163E-07
  -1.15499999E-02  -4.55165150E-07
  -1.15000000E-02  -4.66287048E-07
  -1.14500001E-02  -4.77647404E-07
  -1.14000002E-02  -4.89251306E-07
  -1.13500003E-02  -5.01104807E-07
  -1.13000004E-02  -5.13214729E-07
  -1.12500004E-02  -5.25588518E-07
  -1.11999996E-02  -5.38233337E-07
  -1.11499997E-02  -5.51155665E-07
  -1.10999998E-02  -5.64360903E-07
  -1.10499999E-02  -5.77854109E-07
  -1.09999999E-02  -5.91640344E-07
  -1.09500000E-02  -6.05724551E-07
  -1.09000001E-02  -6.20112473E-07
  -1.08500002E-02  -6.34810362E-07
  -1.08000003E-02  -6.49825552E-07
  -1.07500004E-02  -6.65165999E-07
  -1.07000005E-02  -6.80839776E-07
  -1.06499996E-02  -6.96855011E-07
  -1.05999997E-02  -7.13219663E-07
  -1.05499998E-02  -7.29941917E-07
  -1.04999999E-02  -7.47030356E-07
  -1.04499999E-02  -7.64494303E-07
  -1.04000000E-02  -7.82343079E-07
  -1.03500001E-02  -8.00586236E-07
  -1.03000002E-02  -8.19233151E-07
  -1.02500003E-02  -8.38292806E-07
  -1.02000004E-02  -8.57772875E-07
  -1.01500005E-02  -8.77680407E-07
  -1.00999996E-02  -8.98022051E-07
  -1.00499997E-02  -9.18805426E-07
  -9.99999978E-03  -9.40038319E-07
  -9.94999986E-03  -9.61730166E-07
  -9.89999995E-03  -9.83891141E-07
  -9.85000003E-03  -1.00653210E-06
  -9.80000012E-03  -1.02966499E-06
  -9.75000020E-03  -1.05330105E-06
  -9.70000029E-03  -1.07745120E-06
  -9.65000037E-03  -1.10212636E-06
  -9.60000046E-03  -1.12733801E-06
  -9.54999961E-03  -1.15309763E-06
  -9.49999969E-03  -1.17941704E-06
  -9.44999978E-03  -1.20630898E-06
  -9.39999986E-03  -1.23378584E-06
  -9.34999995E-03  -1.26186069E-06
  -9.30000003E-03  -1.29054536E-06
  -9.25000012E-03  -1.31985155E-06
  -9.20000020E-03  -1.34979030E-06
  -9.15000029E-03  -1.38037183E-06
  -9.10000037E-03  -1.41160774E-06
  -9.05000046E-03  -1.44351054E-06
  -8.99999961E-03  -1.47609273E-06
  -8.94999970E-03  -1.50936739E-06
  -8.89999978E-03  -1.54334725E-06
  -8.84999987E-03  -1.57804504E-06
  -8.79999995E-03  -1.61347373E-06
  -8.75000004E-03  -1.64964706E-06
  -8.70000012E-03  -1.68657846E-06
  -8.65000021E-03  -1.72428145E-06
  -8.60000029E-03  -1.76277126E-06
  -8.55000038E-03  -1.80206337E-06
  -8.50000046E-03  -1.84217561E-06
  -8.44999962E-03  -1.88312549E-06
  -8.39999970E-03  -1.92492985E-06
  -8.34999979E-03  -1.96760334E-06
  -8.29999987E-03  -2.01116177E-06
  -8.24999996E-03  -2.05562014E-06
  -8.20000004E-03  -2.10099438E-06
  -8.15000013E-03  -2.14730039E-06
  -8.10000021E-03  -2.19455455E-06
  -8.05000030E-03  -2.24277187E-06
  -8.00000038E-03  -2.29196962E-06
  -7.95000046E-03  -2.34216418E-06
  -7.89999962E-03  -2.39337214E-06
  -7.84999970E-03  -2.44560829E-06
  -7.79999979E-03  -2.49888831E-06
  -7.74999987E-03  -2.55322766E-06
  -7.69999996E-03  -2.60864340E-06
  -7.65000004E-03  -2.66515303E-06
  -7.60000013E-03  -2.72277407E-06
  -7.55000021E-03  -2.78152515E-06
  -7.49999983E-03  -2.84142470E-06
  -7.44999992E-03  -2.90249181E-06
  -7.40000000E-03  -2.96474514E-06
  -7.35000009E-03  -3.02820376E-06
  -7.30000017E-03  -3.09288544E-06
  -7.24999979E-03  -3.15880879E-06
  -7.19999988E-03  -3.22599567E-06
  -7.14999996E-03  -3.29446721E-06
  -7.10000005E-03  -3.36424455E-06
  -7.05000013E-03  -3.43534725E-06
  -7.00000022E-03  -3.50779419E-06
  -6.94999984E-03  -3.58160332E-06
  -6.89999992E-03  -3.65679466E-06
  -6.85000001E-03  -3.73338730E-06
  -6.80000009E-03  -3.81139830E-06
  -6.75000018E-03  -3.89084653E-06
  -6.69999979E-03  -3.97175063E-06
  -6.64999988E-03  -4.05413175E-06
  -6.59999996E-03  -4.13801172E-06
  -6.55000005E-03  -4.22340963E-06
  -6.50000013E-03  -4.31034368E-06
  -6.45000022E-03  -4.39883115E-06
  -6.39999984E-03  -4.48889296E-06
  -6.34999992E-03  -4.58055229E-06
  -6.30000001E-03  -4.67383006E-06
  -6.25000009E-03  -4.76874447E-06
  -6.20000018E-03  -4.86531962E-06
  -6.14999980E-03  -4.96357779E-06
  -6.09999988E-03  -5.06354399E-06
  -6.04999997E-03  -5.16524096E-06
  -6.00000005E-03  -5.26868735E-06
  -5.95000014E-03  -5.37390497E-06
  -5.90000022E-03  -5.48091475E-06
  -5.84999984E-03  -5.58974216E-06
  -5.79999993E-03  -5.70040993E-06
  -5.75000001E-03  -5.81293853E-06
  -5.70000010E-03  -5.92734659E-06
  -5.65000018E-03  -6.04365960E-06
  -5.59999980E-03  -6.16189755E-06
  -5.54999989E-03  -6.28208318E-06
  -5.49999997E-03  -6.40423377E-06
  -5.45000006E-03  -6.52837116E-06
  -5.40000014E-03  -6.65451626E-06
  -5.35000023E-03  -6.78269316E-06
  -5.29999984E-03  -6.91292598E-06
  -5.24999993E-03  -7.04523700E-06
  -5.20000001E-03  -7.17964895E-06
  -5.15000010E-03  -7.31618502E-06
  -5.10000018E-03  -7.45486977E-06
  -5.04999980E-03  -7.59572777E-06
  -4.99999989E-03  -7.73878310E-06
  -4.94999997E-03  -7.88406214E-06
  -4.90000006E-03  -8.03159128E-06
  -4.85000014E-03  -8.18139688E-06
  -4.80000023E-03  -8.33350441E-06
  -4.74999985E-03  -8.48794207E-06
  -4.69999993E-03  -8.64473623E-06
  -4.65000002E-03  -8.80390962E-06
  -4.60000010E-03  -8.96548590E-06
  -4.55000019E-03  -9.12948599E-06
  -4.49999981E-03  -9.29593534E-06
  -4.44999989E-03  -9.46485852E-06
  -4.39999998E-03  -9.63628190E-06
  -4.35000006E-03  -9.81023186E-06
  -4.30000015E-03  -9.98673204E-06
  -4.25000023E-03  -1.01658079E-05
  -4.19999985E-03  -1.03474822E-05
  -4.14999994E-03  -1.05317858E-05
  -4.10000002E-03  -1.07187498E-05
  -4.05000011E-03  -1.09084012E-05
  -4.00000019E-03  -1.11007648E-05
  -3.94999981E-03  -1.12958724E-05
  -3.89999989E-03  -1.14937548E-05
  -3.84999998E-03  -1.16944466E-05
  -3.80000006E-03  -1.18979815E-05
  -3.74999992E-03  -1.21043859E-05
  -3.70000000E-03  -1.23136824E-05
  -3.65000009E-03  -1.25259048E-05
  -3.59999994E-03  -1.27410858E-05
  -3.55000002E-03  -1.29592581E-05
  -3.50000011E-03  -1.31804500E-05
  -3.44999996E-03  -1.34046868E-05
  -3.40000005E-03  -1.36319986E-05
  -3.34999990E-03  -1.38624200E-05
  -3.29999998E-03  -1.40959846E-05
  -3.25000007E-03  -1.43327179E-05
  -3.19999992E-03  -1.45726481E-05
  -3.15000000E-03  -1.48158051E-05
  -3.10000009E-03  -1.50622236E-05
  -3.04999994E-03  -1.53119399E-05
  -3.00000003E-03  -1.55649886E-05
  -2.95000011E-03  -1.58214007E-05
  -2.89999996E-03  -1.60812069E-05
  -2.85000005E-03  -1.63444438E-05
  -2.79999990E-03  -1.66111458E-05
  -2.74999999E-03  -1.68813494E-05
  -2.70000007E-03  -1.71550928E-05
  -2.64999992E-03  -1.74324105E-05
  -2.60000001E-03  -1.77133297E-05
  -2.55000009E-03  -1.79978961E-05
  -2.49999994E-03  -1.82861422E-05
  -2.45000003E-03  -1.85781028E-05
  -2.40000011E-03  -1.88738195E-05
  -2.34999997E-03  -1.91733288E-05
  -2.30000005E-03  -1.94766690E-05
  -2.24999990E-03  -1.97838690E-05
  -2.19999999E-03  -2.00949617E-05
  -2.15000007E-03  -2.04099870E-05
  -2.09999993E-03  -2.07289795E-05
  -2.05000001E-03  -2.10519811E-05
  -2.00000009E-03  -2.13790190E-05
  -1.94999995E-03  -2.17101260E-05
  -1.90000003E-03  -2.20453421E-05
  -1.85000000E-03  -2.23847110E-05
  -1.79999997E-03  -2.27282726E-05
  -1.75000005E-03  -2.30760579E-05
  -1.70000002E-03  -2.34281033E-05
  -1.64999999E-03  -2.37844488E-05
  -1.59999996E-03  -2.41451362E-05
  -1.55000004E-03  -2.45102055E-05
  -1.50000001E-03  -2.48797023E-05
  -1.44999998E-03  -2.52536738E-05
  -1.39999995E-03  -2.56321528E-05
  -1.35000004E-03  -2.60151719E-05
  -1.30000000E-03  -2.64027767E-05
  -1.24999997E-03  -2.67950145E-05
  -1.20000006E-03  -2.71919198E-05
  -1.15000003E-03  -2.75935272E-05
  -1.09999999E-03  -2.79998731E-05
  -1.04999996E-03  -2.84109992E-05
  -1.00000005E-03  -2.88269439E-05
  -9.50000016E-04  -2.92477562E-05
  -8.99999985E-04  -2.96734597E-05
  -8.50000011E-04  -3.01040964E-05
  -7.99999980E-04  -3.05397080E-05
  -7.50000007E-04  -3.09803290E-05
  -6.99999975E-04  -3.14260105E-05
  -6.50000002E-04  -3.18767961E-05
  -6.00000028E-04  -3.23327149E-05
  -5.49999997E-04  -3.27938178E-05
  -5.00000024E-04  -3.32601412E-05
  -4.49999992E-04  -3.37317397E-05
  -3.99999990E-04  -3.42086423E-05
  -3.49999988E-04  -3.46909037E-05
  -3.00000014E-04  -3.51785529E-05
  -2.50000012E-04  -3.56716373E-05
  -1.99999995E-04  -3.61702005E-05
  -1.50000007E-04  -3.66742897E-05
  -9.99999975E-05  -3.71839451E-05
  -4.99999987E-05  -3.76992029E-05
   0.00000000      -3.82200960E-05
   4.99999987E-05  -3.87466825E-05
   9.99999975E-05  -3.92790025E-05
   1.50000007E-04  -3.98170996E-05
   1.99999995E-04  -4.03610065E-05
   2.50000012E-04  -4.09107561E-05
   3.00000014E-04  -4.14663846E-05
   3.49999988E-04  -4.20279393E-05
   3.99999990E-04  -4.25954786E-05
   4.49999992E-04  -4.31690423E-05
   5.00000024E-04  -4.37486779E-05
   5.49999997E-04  -4.43344034E-05
   6.00000028E-04  -4.49262589E-05
   6.50000002E-04  -4.55243025E-05
   6.99999975E-04  -4.61285999E-05
   7.50000007E-04  -4.67391765E-05
   7.99999980E-04  -4.73560649E-05
   8.50000011E-04  -4.79793089E-05
   8.99999985E-04  -4.86089702E-05
   9.50000016E-04  -4.92450999E-05
   1.00000005E-03  -4.98877380E-05
   1.04999996E-03  -5.05369135E-05
   1.09999999E-03  -5.11926737E-05
   1.15000003E-03  -5.18550733E-05
   1.20000006E-03  -5.25241448E-05
   1.24999997E-03  -5.31999176E-05
   1.30000000E-03  -5.38824461E-05
   1.35000004E-03  -5.45717849E-05
   1.39999995E-03  -5.52679558E-05
   1.44999998E-03  -5.59710061E-05
   1.50000001E-03  -5.66809722E-05
   1.55000004E-03  -5.73979050E-05
   1.59999996E-03  -5.81218519E-05
   1.64999999E-03  -5.88528528E-05
   1.70000002E-03  -5.95909441E-05
   1.75000005E-03  -6.03361805E-05
   1.79999997E-03  -6.10886127E-05
   1.85000000E-03  -6.18482954E-05
   1.90000003E-03  -6.26152541E-05
   1.94999995E-03  -6.33895397E-05
   2.00000009E-03  -6.41712031E-05
   2.05000001E-03  -6.49602880E-05
   2.09999993E-03  -6.57568598E-05
   2.15000007E-03  -6.65609405E-05
   2.19999999E-03  -6.73725663E-05
   2.24999990E-03  -6.81917882E-05
   2.30000005E-03  -6.90186644E-05
   2.34999997E-03  -6.98532676E-05
   2.40000011E-03  -7.06956271E-05
   2.45000003E-03  -7.15457500E-05
   2.49999994E-03  -7.24036800E-05
   2.55000009E-03  -7.32694753E-05
   2.60000001E-03  -7.41432232E-05
   2.64999992E-03  -7.50249455E-05
   2.70000007E-03  -7.59146860E-05
   2.74999999E-03  -7.68124592E-05
   2.79999990E-03  -7.77183450E-05