  -3.99999991E-02   0.00000000    
  -3.99499983E-02   0.00000000    
  -3.99000011E-02   0.00000000    
  -3.98500003E-02   0.00000000    
  -3.97999994E-02   1.80637364E-21
  -3.97499986E-02   1.52844269E-20
  -3.97000015E-02   6.32102667E-20
  -3.96500006E-02   1.61623363E-19
  -3.95999998E-02   2.45131924E-19
  -3.95499989E-02   3.81645173E-20
  -3.95000018E-02  -1.04330440E-18
  -3.94500010E-02  -3.77371252E-18
  -3.94000001E-02  -8.56837188E-18
  -3.93499993E-02  -1.44385335E-17
  -3.92999984E-02  -1.77628814E-17
  -3.92500013E-02  -1.16663957E-17
  -3.92000005E-02   1.29467274E-17
  -3.91499996E-02   6.40456368E-17
  -3.90999988E-02   1.43382323E-16
  -3.90500017E-02   2.41941277E-16
  -3.90000008E-02   3.39372803E-16
  -3.89500000E-02   4.10209163E-16
  -3.88999991E-02   4.36640932E-16
  -3.88499983E-02   4.23148650E-16
  -3.88000011E-02   4.04758717E-16
  -3.87500003E-02   4.40943806E-16
  -3.86999995E-02   5.92651271E-16
  -3.86499986E-02   8.89242293E-16
  -3.86000015E-02   1.30096426E-15
  -3.85500006E-02   1.73536140E-15
  -3.84999998E-02   2.06877146E-15
  -3.84499989E-02   2.20737824E-15
  -3.84000018E-02   2.15272471E-15
  -3.83500010E-02   2.03487659E-15
  -3.83000001E-02   2.08244363E-15
  -3.82499993E-02   2.52487414E-15
  -3.81999984E-02   3.45991804E-15
  -3.81500013E-02   4.74927604E-15
  -3.81000005E-02   6.00855230E-15
  -3.80499996E-02   6.72435062E-15
  -3.79999988E-02   6.47085780E-15
  -3.79500017E-02   5.13739459E-15
  -3.79000008E-02   3.05048095E-15
  -3.78500000E-02   9.01852920E-16
  -3.77999991E-02  -5.24534576E-16
  -3.77499983E-02  -7.29908778E-16
  -3.77000012E-02   1.89236412E-16
  -3.76500003E-02   1.47057382E-15
  -3.75999995E-02   1.93714296E-15
  -3.75499986E-02   5.01973906E-16
  -3.75000015E-02  -3.28492231E-15
  -3.74500006E-02  -8.91634484E-15
  -3.73999998E-02  -1.50323683E-14
  -3.73499990E-02  -1.99633587E-14
  -3.73000018E-02  -2.25070088E-14
  -3.72500010E-02  -2.25890609E-14
  -3.72000001E-02  -2.14677350E-14
  -3.71499993E-02  -2.13226162E-14
  -3.70999984E-02  -2.43498526E-14
  -3.70500013E-02  -3.17382974E-14
  -3.70000005E-02  -4.29973202E-14
  -3.69499996E-02  -5.59832434E-14
  -3.68999988E-02  -6.76690081E-14
  -3.68500017E-02  -7.53557169E-14
  -3.68000008E-02  -7.78024902E-14
  -3.67500000E-02  -7.57671852E-14
  -3.66999991E-02  -7.17062586E-14
  -3.66499983E-02  -6.87582654E-14
  -3.66000012E-02  -6.94521480E-14
  -3.65500003E-02  -7.46901117E-14
  -3.64999995E-02  -8.34116034E-14
  -3.64499986E-02  -9.30322307E-14
  -3.64000015E-02  -1.00427865E-13
  -3.63500006E-02  -1.03049784E-13
  -3.62999998E-02  -9.97753583E-14
  -3.62499990E-02  -9.12693993E-14
  -3.62000018E-02  -7.98321031E-14
  -3.61500010E-02  -6.88283523E-14
  -3.61000001E-02  -6.18059613E-14
  -3.60499993E-02  -6.13931581E-14
  -3.59999985E-02  -6.81299228E-14
  -3.59500013E-02  -7.95725316E-14
  -3.59000005E-02  -9.02078163E-14
  -3.58499996E-02  -9.27047948E-14
  -3.57999988E-02  -8.06264642E-14
  -3.57500017E-02  -5.19493540E-14
  -3.57000008E-02  -1.19083845E-14
  -3.56500000E-02   2.66708415E-14
  -3.55999991E-02   4.68124820E-14
  -3.55499983E-02   3.42923355E-14
  -3.55000012E-02  -1.43478877E-14
  -3.54500003E-02  -8.65123132E-14
  -3.53999995E-02  -1.54710798E-13
  -3.53499986E-02  -1.85673512E-13
  -3.53000015E-02  -1.55160010E-13
  -3.52500007E-02  -6.24868606E-14
  -3.51999998E-02   6.28079267E-14
  -3.51499990E-02   1.67756596E-13
  -3.51000018E-02   1.96293340E-13
  -3.50500010E-02   1.16202634E-13
  -3.50000001E-02  -5.93930016E-14
  -3.49499993E-02  -2.68197086E-13
  -3.48999985E-02  -4.18537871E-13
  -3.48500013E-02  -4.28043993E-13
  -3.48000005E-02  -2.65731745E-13
  -3.47499996E-02   2.30442242E-14
  -3.46999988E-02   3.24927287E-13
  -3.46500017E-02   5.02713214E-13
  -3.46000008E-02   4.60132258E-13
  -3.45500000E-02   1.98539495E-13
  -3.44999991E-02  -1.64725547E-13
  -3.44499983E-02  -4.32929680E-13
  -3.44000012E-02  -4.13408674E-13
  -3.43500003E-02  -1.45706235E-14
  -3.42999995E-02   6.89888088E-13
  -3.42499986E-02   1.46777436E-12
  -3.42000015E-02   2.01552078E-12
  -3.41500007E-02   2.09619843E-12
  -3.40999998E-02   1.66828010E-12
  -3.40499990E-02   9.39279470E-13
  -3.40000018E-02   3.04768418E-13
  -3.39500010E-02   1.83924707E-13
  -3.39000002E-02   8.16246972E-13
  -3.38499993E-02   2.11399865E-12
  -3.37999985E-02   3.65245247E-12
  -3.37500013E-02   4.82461250E-12
  -3.37000005E-02   5.10965749E-12
  -3.36499996E-02   4.34013676E-12
  -3.35999988E-02   2.83593700E-12
  -3.35500017E-02   1.31890820E-12
  -3.35000008E-02   6.17412913E-13
  -3.34500000E-02   1.27499693E-12
  -3.33999991E-02   3.24128658E-12
  -3.33499983E-02   5.80851079E-12
  -3.33000012E-02   7.85974758E-12
  -3.32500003E-02   8.35138122E-12
  -3.31999995E-02   6.82669372E-12
  -3.31499986E-02   3.71428452E-12
  -3.31000015E-02   2.36721938E-13
  -3.30500007E-02  -2.07822366E-12
  -3.29999998E-02  -2.09847135E-12
  -3.29499990E-02   3.12446249E-13
  -3.29000019E-02   4.10102291E-12
  -3.28500010E-02   7.38129002E-12
  -3.28000002E-02   8.24063214E-12
  -3.27499993E-02   5.65925518E-12
  -3.26999985E-02   1.11614778E-13
  -3.26500013E-02  -6.48087703E-12
  -3.26000005E-02  -1.15023104E-11
  -3.25499997E-02  -1.28211200E-11
  -3.24999988E-02  -9.87623264E-12
  -3.24500017E-02  -4.13419906E-12
  -3.24000008E-02   1.37824246E-12
  -3.23500000E-02   3.34932624E-12
  -3.22999991E-02  -2.55686368E-13
  -3.22499983E-02  -9.06511931E-12
  -3.22000012E-02  -2.01974670E-11
  -3.21500003E-02  -2.93501126E-11
  -3.20999995E-02  -3.26907806E-11
  -3.20499986E-02  -2.87324609E-11
  -3.20000015E-02  -1.92899533E-11
  -3.19500007E-02  -8.95872005E-12
  -3.18999998E-02  -3.20582753E-12
  -3.18499990E-02  -5.83887973E-12
  -3.18000019E-02  -1.69991105E-11
  -3.17500010E-02  -3.26951834E-11
  -3.17000002E-02  -4.62629032E-11
  -3.16499993E-02  -5.12540704E-11
  -3.15999985E-02  -4.45223754E-11
  -3.15500014E-02  -2.80534849E-11
  -3.15000005E-02  -8.53853186E-12
  -3.14499997E-02   5.33342207E-12
  -3.13999988E-02   6.80233691E-12
  -3.13500017E-02  -5.56474007E-12
  -3.13000008E-02  -2.66728809E-11
  -3.12500000E-02  -4.66803679E-11
  -3.11999992E-02  -5.52028076E-11
  -3.11500002E-02  -4.61751783E-11
  -3.10999993E-02  -2.11259916E-11
  -3.10500003E-02   1.08393529E-11
  -3.09999995E-02   3.66451487E-11
  -3.09500005E-02   4.50641677E-11
  -3.08999997E-02   3.21941744E-11
  -3.08500007E-02   3.96609481E-12
  -3.07999998E-02  -2.57732759E-11
  -3.07500008E-02  -4.10955853E-11
  -3.07000000E-02  -3.13327697E-11
  -3.06499992E-02   3.41125479E-12
  -3.06000002E-02   5.13456257E-11
  -3.05499993E-02   9.35095126E-11
  -3.05000003E-02   1.12061721E-10
  -3.04499995E-02   9.87575161E-11
  -3.04000005E-02   5.96312930E-11
  -3.03499997E-02   1.33550063E-11
  -3.03000007E-02  -1.64888988E-11
  -3.02499998E-02  -1.20922239E-11
  -3.02000009E-02   2.97185505E-11
  -3.01500000E-02   9.47645781E-11
  -3.00999992E-02   1.56721289E-10
  -3.00500002E-02   1.88448049E-10
  -2.99999993E-02   1.74614184E-10
  -2.99500003E-02   1.19797519E-10
  -2.98999995E-02   4.78939839E-11
  -2.98500005E-02  -7.57278875E-12
  -2.97999997E-02  -1.84134635E-11
  -2.97500007E-02   2.45939640E-11
  -2.96999998E-02   1.05890081E-10
  -2.96500009E-02   1.90464325E-10
  -2.96000000E-02   2.38688902E-10
  -2.95499992E-02   2.24440702E-10
  -2.95000002E-02   1.48288076E-10
  -2.94499993E-02   3.92117311E-11
  -2.94000003E-02  -5.67957105E-11
  -2.93499995E-02  -9.68967545E-11
  -2.93000005E-02  -6.15739404E-11
  -2.92499997E-02   3.46131318E-11
  -2.92000007E-02   1.47372684E-10
  -2.91499998E-02   2.21183905E-10
  -2.91000009E-02   2.14343987E-10
  -2.90500000E-02   1.19354956E-10
  -2.89999992E-02  -3.11701463E-11
  -2.89500002E-02  -1.76842888E-10
  -2.88999993E-02  -2.55604732E-10
  -2.88500004E-02  -2.32411465E-10
  -2.87999995E-02  -1.17339014E-10
  -2.87500005E-02   3.60245063E-11
  -2.86999997E-02   1.52490465E-10
  -2.86500007E-02   1.68679737E-10
  -2.85999998E-02   6.31969407E-11
  -2.85500009E-02  -1.30641664E-10
  -2.85000000E-02  -3.36578931E-10
  -2.84499992E-02  -4.67836048E-10
  -2.84000002E-02  -4.66505390E-10
  -2.83499993E-02  -3.32125938E-10
  -2.83000004E-02  -1.25516791E-10
  -2.82499995E-02   5.54841763E-11
  -2.82000005E-02   1.18937624E-10
  -2.81499997E-02   2.17066729E-11
  -2.81000007E-02  -2.07485237E-10
  -2.80499998E-02  -4.76735873E-10
  -2.80000009E-02  -6.69344247E-10
  -2.79500000E-02  -6.96001756E-10
  -2.78999992E-02  -5.37556499E-10
  -2.78500002E-02  -2.58050442E-10
  -2.77999993E-02   1.97787654E-11
  -2.77500004E-02   1.67496225E-10
  -2.76999995E-02   1.09752187E-10
  -2.76500005E-02  -1.37880096E-10
  -2.75999997E-02  -4.70664618E-10
  -2.75500007E-02  -7.37571282E-10
  -2.74999999E-02  -8.07925171E-10
  -2.74500009E-02  -6.32563835E-10
  -2.74000000E-02  -2.71071110E-10
  -2.73499992E-02   1.29365671E-10
  -2.73000002E-02   3.96510630E-10
  -2.72499993E-02   4.10658868E-10
  -2.72000004E-02   1.62465097E-10
  -2.71499995E-02  -2.36625192E-10
  -2.71000005E-02  -5.98765482E-10
  -2.70499997E-02  -7.41593620E-10
  -2.70000007E-02  -5.72134118E-10
  -2.69499999E-02  -1.34371320E-10
  -2.69000009E-02   4.03281741E-10
  -2.68500000E-02   8.18138557E-10
  -2.67999992E-02   9.32005029E-10
  -2.67500002E-02   6.94889257E-10
  -2.66999993E-02   2.14556206E-10
  -2.66500004E-02  -2.84458873E-10
  -2.65999995E-02  -5.57356494E-10
  -2.65500005E-02  -4.49899701E-10
  -2.64999997E-02   2.63306113E-11
  -2.64500007E-02   6.90472290E-10
  -2.63999999E-02   1.26600197E-09
  -2.63500009E-02   1.50179336E-09
  -2.63000000E-02   1.28779631E-09
  -2.62499992E-02   7.12288395E-10
  -2.62000002E-02   3.16290154E-11
  -2.61499994E-02  -4.38109327E-10
  -2.61000004E-02  -4.62163474E-10
  -2.60499995E-02   1.86449575E-12
  -2.60000005E-02   7.74991571E-10
  -2.59499997E-02   1.52715063E-09
  -2.59000007E-02   1.91969574E-09
  -2.58499999E-02   1.75881165E-09
  -2.58000009E-02   1.09057741E-09
  -2.57500000E-02   1.91623203E-10
  -2.56999992E-02  -5.45411438E-10
  -2.56500002E-02  -7.84612986E-10
  -2.55999994E-02  -4.02017503E-10
  -2.55500004E-02   4.48025561E-10
  -2.54999995E-02   1.38970413E-09
  -2.54500005E-02   1.98581707E-09
  -2.53999997E-02   1.93326399E-09
  -2.53500007E-02   1.20689414E-09
  -2.52999999E-02   8.40368400E-11
  -2.52500009E-02  -9.66966063E-10
  -2.52000000E-02  -1.48997903E-09
  -2.51499992E-02  -1.24814814E-09
  -2.51000002E-02  -3.41154105E-10
  -2.50499994E-02   8.24605717E-10
  -2.50000004E-02   1.70610692E-09
  -2.49499995E-02   1.86340432E-09
  -2.49000005E-02   1.16356380E-09
  -2.48499997E-02  -1.45112311E-10
  -2.48000007E-02  -1.52799418E-09
  -2.47499999E-02  -2.39279996E-09
  -2.47000009E-02  -2.35455588E-09
  -2.46500000E-02  -1.41861023E-09
  -2.45999992E-02   4.68765174E-12
  -2.45500002E-02   1.26772215E-09
  -2.44999994E-02   1.76796333E-09
  -2.44500004E-02   1.22235444E-09
  -2.43999995E-02  -1.90606336E-10
  -2.43500005E-02  -1.89105687E-09
  -2.42999997E-02  -3.14185522E-09
  -2.42500007E-02  -3.37430861E-09
  -2.41999999E-02  -2.45200837E-09
  -2.41500009E-02  -7.51007589E-10
  -2.41000000E-02   9.87740334E-10
  -2.40499992E-02   1.97684780E-09
  -2.40000002E-02   1.73547721E-09
  -2.39499994E-02   3.19091337E-10
  -2.39000004E-02  -1.68287828E-09
  -2.38499995E-02  -3.39019168E-09
  -2.38000005E-02  -4.01629796E-09
  -2.37499997E-02  -3.22676197E-09
  -2.37000007E-02  -1.30895583E-09
  -2.36499999E-02   9.31341226E-10
  -2.36000009E-02   2.51122079E-09
  -2.35500000E-02   2.70589684E-09
  -2.34999992E-02   1.38572687E-09
  -2.34500002E-02  -9.00884811E-10
  -2.33999994E-02  -3.14651816E-09
  -2.33500004E-02  -4.31947633E-09
  -2.32999995E-02  -3.82730558E-09
  -2.32500006E-02  -1.80156856E-09
  -2.31999997E-02   9.31615007E-10
  -2.31500007E-02   3.19478843E-09
  -2.30999999E-02   3.97436084E-09
  -2.30500009E-02   2.88288238E-09
  -2.30000000E-02   3.58233443E-10
  -2.29499992E-02  -2.50047960E-09
  -2.29000002E-02  -4.40103909E-09
  -2.28499994E-02  -4.43178871E-09
  -2.28000004E-02  -2.48699039E-09
  -2.27499995E-02   6.53371968E-10
  -2.27000006E-02   3.63896335E-09
  -2.26499997E-02   5.13343235E-09
  -2.26000007E-02   4.41554926E-09
  -2.25499999E-02   1.72748216E-09
  -2.25000009E-02  -1.79632553E-09
  -2.24500000E-02  -4.60412286E-09
  -2.23999992E-02  -5.40791012E-09
  -2.23500002E-02  -3.77245435E-09
  -2.22999994E-02  -3.43921946E-10
  -2.22500004E-02   3.39858963E-09
  -2.21999995E-02   5.77536907E-09
  -2.21500006E-02   5.65287328E-09
  -2.20999997E-02   2.97377789E-09
  -2.20500007E-02  -1.17615218E-09
  -2.19999999E-02  -5.01208541E-09
  -2.19500009E-02  -6.82494505E-09
  -2.19000001E-02  -5.75145176E-09
  -2.18499992E-02  -2.19325247E-09
  -2.18000002E-02   2.31637221E-09
  -2.17499994E-02   5.75909764E-09
  -2.17000004E-02   6.52021681E-09
  -2.16499995E-02   4.12923562E-09
  -2.16000006E-02  -4.85754659E-10
  -2.15499997E-02  -5.36222888E-09
  -2.15000007E-02  -8.34525427E-09
  -2.14499999E-02  -8.04686984E-09
  -2.14000009E-02  -4.49631798E-09
  -2.13500001E-02   8.22157231E-10
  -2.12999992E-02   5.58328450E-09
  -2.12500002E-02   7.63452057E-09
  -2.11999994E-02   5.96892624E-09
  -2.11500004E-02   1.21887300E-09
  -2.10999995E-02  -4.56831328E-09
  -2.10500006E-02  -8.79782647E-09
  -2.09999997E-02  -9.47154533E-09
  -2.09500007E-02  -6.10511508E-09
  -2.08999999E-02   1.77022676E-12
  -2.08500009E-02   6.28612540E-09
  -2.08000001E-02   1.00276161E-08
  -2.07499992E-02   9.56386703E-09
  -2.07000002E-02   5.07352516E-09
  -2.06499994E-02  -1.43948409E-09
  -2.06000004E-02  -6.98120406E-09
  -2.05499995E-02  -8.87600926E-09
  -2.05000006E-02  -5.97733329E-09
  -2.04499997E-02   7.65843222E-10
  -2.04000007E-02   8.66294414E-09
  -2.03499999E-02   1.44287755E-08
  -2.03000009E-02   1.56358730E-08
  -2.02500001E-02   1.18310135E-08
  -2.01999992E-02   4.80370943E-09
  -2.01500002E-02  -2.14218843E-09
  -2.00999994E-02  -5.62035352E-09
  -2.00500004E-02  -3.67848418E-09
  -1.99999996E-02   3.27792926E-09
  -1.99500006E-02   1.25884254E-08
  -1.98999997E-02   2.04545980E-08
  -1.98500007E-02   2.36035937E-08
  -1.97999999E-02   2.07699227E-08
  -1.97500009E-02   1.33252511E-08
  -1.97000001E-02   4.74628514E-09
  -1.96499992E-02  -8.78069173E-10
  -1.96000002E-02  -6.61741439E-10
  -1.95499994E-02   5.74466474E-09
  -1.95000004E-02   1.59144129E-08
  -1.94499996E-02   2.56414605E-08
  -1.94000006E-02   3.07656514E-08
  -1.93499997E-02   2.90341795E-08
  -1.93000007E-02   2.11662030E-08
  -1.92499999E-02   1.06188782E-08
  -1.92000009E-02   2.11958739E-09
  -1.91500001E-02  -4.15776219E-10
  -1.90999992E-02   4.33554170E-09
  -1.90500002E-02   1.44290055E-08
  -1.89999994E-02   2.54217554E-08
  -1.89500004E-02   3.22837650E-08
  -1.88999996E-02   3.16293622E-08
  -1.88500006E-02   2.32792274E-08
  -1.87999997E-02   1.04332694E-08
  -1.87500007E-02  -1.66406489E-09
  -1.86999999E-02  -8.01276467E-09
  -1.86500009E-02  -6.10350703E-09
  -1.86000001E-02   2.88586910E-09
  -1.85499992E-02   1.45097676E-08
  -1.85000002E-02   2.29490311E-08
  -1.84499994E-02   2.35743531E-08
  -1.84000004E-02   1.50505635E-08
  -1.83499996E-02   2.70131209E-11
  -1.83000006E-02  -1.59349351E-08
  -1.82499997E-02  -2.67669122E-08
  -1.82000007E-02  -2.85920709E-08
  -1.81499999E-02  -2.15178542E-08
  -1.81000009E-02  -9.69576419E-09
  -1.80500001E-02   4.26416374E-10
  -1.79999992E-02   2.92768276E-09
  -1.79500002E-02  -4.92125940E-09
  -1.78999994E-02  -2.13474110E-08
  -1.78500004E-02  -4.07419414E-08
  -1.77999996E-02  -5.60587523E-08
  -1.77500006E-02  -6.19188825E-08
  -1.76999997E-02  -5.70515439E-08
  -1.76500008E-02  -4.49629205E-08
  -1.75999999E-02  -3.24872431E-08
  -1.75500009E-02  -2.68124012E-08
  -1.75000001E-02  -3.22699591E-08
  -1.74499992E-02  -4.83180465E-08
  -1.74000002E-02  -6.96492535E-08
  -1.73499994E-02  -8.84296938E-08
  -1.73000004E-02  -9.77229959E-08
  -1.72499996E-02  -9.45995282E-08
  -1.72000006E-02  -8.15338623E-08
  -1.71499997E-02  -6.54233503E-08
  -1.71000008E-02  -5.46069572E-08
  -1.70499999E-02  -5.51661543E-08
  -1.70000009E-02  -6.81421781E-08
  -1.69500001E-02  -8.89346907E-08
  -1.68999992E-02  -1.09203718E-07
  -1.68500002E-02  -1.20486419E-07
  -1.67999994E-02  -1.17955537E-07
  -1.67500004E-02  -1.02645622E-07
  -1.66999996E-02  -8.11166672E-08
  -1.66500006E-02  -6.26446734E-08
  -1.65999997E-02  -5.51345423E-08
  -1.65500008E-02  -6.15488673E-08
  -1.64999999E-02  -7.84582710E-08
  -1.64500009E-02  -9.74090000E-08
  -1.64000001E-02  -1.08563029E-07
  -1.63499992E-02  -1.05039241E-07
  -1.63000003E-02  -8.60354703E-08
  -1.62499994E-02  -5.73115848E-08
  -1.62000004E-02  -2.87586470E-08
  -1.61499996E-02  -1.00724913E-08
  -1.61000006E-02  -6.41820330E-09
  -1.60499997E-02  -1.60178715E-08
  -1.60000008E-02  -3.07796491E-08
  -1.59499999E-02  -3.97543225E-08
  -1.59000009E-02  -3.39408359E-08
  -1.58500001E-02  -1.03288729E-08
  -1.57999992E-02   2.66393272E-08
  -1.57500003E-02   6.68942093E-08
  -1.56999994E-02   9.91084619E-08
  -1.56500004E-02   1.15718564E-07
  -1.55999996E-02   1.16375006E-07
  -1.55499997E-02   1.08252017E-07
  -1.54999997E-02   1.03013001E-07
  -1.54499998E-02   1.11713618E-07
  -1.53999999E-02   1.39869314E-07
  -1.53500000E-02   1.84886687E-07
  -1.53000001E-02   2.37050372E-07
  -1.52500002E-02   2.83698597E-07
  -1.52000003E-02   3.14793169E-07
  -1.51500003E-02   3.27433128E-07
  -1.51000004E-02   3.27282720E-07
  -1.50499996E-02   3.26216110E-07
  -1.49999997E-02   3.37153153E-07
  -1.49499997E-02   3.68327591E-07
  -1.48999998E-02   4.19526856E-07
  -1.48499999E-02   4.82014173E-07
  -1.48000000E-02   5.42238752E-07
  -1.47500001E-02   5.87756745E-07
  -1.47000002E-02   6.12772851E-07
  -1.46500003E-02   6.20830122E-07
  -1.46000003E-02   6.23399956E-07
  -1.45500004E-02   6.34920468E-07
  -1.44999996E-02   6.66424114E-07
  -1.44499997E-02   7.20559683E-07
  -1.43999998E-02   7.90248521E-07
  -1.43499998E-02   8.61637545E-07
  -1.42999999E-02   9.20116292E-07
  -1.42500000E-02   9.56779559E-07
  -1.42000001E-02   9.72473231E-07
  -1.41500002E-02   9.77581522E-07
  -1.41000003E-02   9.87575049E-07
  -1.40500003E-02   1.01622197E-06
  -1.40000004E-02   1.06943560E-06
  -1.39499996E-02   1.14250361E-06
  -1.38999997E-02   1.22198651E-06
  -1.38499998E-02   1.29152454E-06
  -1.37999998E-02   1.33904200E-06
  -1.37499999E-02   1.36217318E-06
  -1.37000000E-02   1.36947108E-06
  -1.36500001E-02   1.37679342E-06
  -1.36000002E-02   1.40038640E-06
  -1.35500003E-02   1.44968180E-06
  -1.35000004E-02   1.52299822E-06
  -1.34500004E-02   1.60810600E-06
  -1.33999996E-02   1.68748159E-06
  -1.33499997E-02   1.74599745E-06
  -1.32999998E-02   1.77767583E-06
  -1.32499998E-02   1.78849405E-06
  -1.31999999E-02   1.79393498E-06
  -1.31500000E-02   1.81228449E-06
  -1.31000001E-02   1.85658291E-06
  -1.30500002E-02   1.92877474E-06
  -1.30000003E-02   2.01869102E-06
  -1.29500004E-02   2.10838766E-06
  -1.29000004E-02   2.17999695E-06
  -1.28499996E-02   2.22367248E-06
  -1.27999997E-02   2.24209975E-06
  -1.27499998E-02   2.24951646E-06
  -1.26999998E-02   2.26560792E-06
  -1.26499999E-02   2.30689739E-06
  -1.26000000E-02   2.37940480E-06
  -1.25500001E-02   2.47585626E-06
  -1.25000002E-02   2.57874353E-06
  -1.24500003E-02   2.66796724E-06
  -1.24000004E-02   2.72973693E-06
  -1.23500004E-02   2.76280480E-06
  -1.22999996E-02   2.77923573E-06
  -1.22499997E-02   2.79929486E-06
  -1.21999998E-02   2.84263820E-06
  -1.21499998E-02   2.91964420E-06
  -1.20999999E-02   3.02673857E-06
  -1.20500000E-02   3.14783301E-06
  -1.20000001E-02   3.26132727E-06
  -1.19500002E-02   3.34964670E-06
  -1.19000003E-02   3.40712336E-06
  -1.18500004E-02   3.44271780E-06
  -1.18000004E-02   3.47629407E-06
  -1.17499996E-02   3.53002360E-06
  -1.16999997E-02   3.61865523E-06
  -1.16499998E-02   3.74293836E-06
  -1.15999999E-02   3.88915851E-06
  -1.15499999E-02   4.03506783E-06
  -1.15000000E-02   4.15966770E-06
  -1.14500001E-02   4.25256621E-06
  -1.14000002E-02   4.31875742E-06
  -1.13500003E-02   4.37665904E-06
  -1.13000004E-02   4.45019896E-06
  -1.12500004E-02   4.55835516E-06
  -1.11999996E-02   4.70676696E-06
  -1.11499997E-02   4.88512796E-06
  -1.10999998E-02   5.07161485E-06
  -1.10499999E-02   5.24245570E-06
  -1.09999999E-02   5.38245013E-06
  -1.09500000E-02   5.49184597E-06
  -1.09000001E-02   5.58645206E-06
  -1.08500002E-02   5.69086433E-06
  -1.08000003E-02   5.82774328E-06
  -1.07500004E-02   6.00781232E-06
  -1.07000005E-02   6.22502057E-06
  -1.06499996E-02   6.45907630E-06
  -1.05999997E-02   6.68428947E-06
  -1.05499998E-02   6.88090222E-06
  -1.04999999E-02   7.04393051E-06
  -1.04499999E-02   7.18556657E-06
  -1.04000000E-02   7.33003480E-06
  -1.03500001E-02   7.50306754E-06
  -1.03000002E-02   7.72060503E-06
  -1.02500003E-02   7.98170731E-06
  -1.02000004E-02   8.26884843E-06
  -1.01500005E-02   8.55552480E-06
  -1.00999996E-02   8.81792039E-06
  -1.00499997E-02   9.04547414E-06
  -9.99999978E-03   9.24573578E-06
  -9.94999986E-03   9.44124895E-06
  -9.89999995E-03   9.65977051E-06
  -9.85000003E-03   9.92212517E-06
  -9.80000012E-03   1.02329659E-05
  -9.75000020E-03   1.05786057E-05
  -9.70000029E-03   1.09329312E-05
  -9.65000037E-03   1.12688222E-05
  -9.60000046E-03   1.15701368E-05
  -9.54999961E-03   1.18389971E-05
  -9.49999969E-03   1.20950426E-05
  -9.44999978E-03   1.23669815E-05
  -9.39999986E-03   1.26800760E-05
  -9.34999995E-03   1.30450217E-05
  -9.30000003E-03   1.34531965E-05
  -9.25000012E-03   1.38803671E-05
  -9.20000020E-03   1.42973122E-05
  -9.15000029E-03   1.46827451E-05
  -9.10000037E-03   1.50328569E-05
  -9.05000046E-03   1.53632318E-05
  -8.99999961E-03   1.57022187E-05
  -8.94999970E-03   1.60786021E-05
  -8.89999978E-03   1.65090114E-05
  -8.84999987E-03   1.69906180E-05
  -8.79999995E-03   1.75022578E-05
  -8.75000004E-03   1.80137013E-05
  -8.70000012E-03   1.84989894E-05
  -8.65000021E-03   1.89479833E-05
  -8.60000029E-03   1.93710221E-05
  -8.55000038E-03   1.97945992E-05
  -8.50000046E-03   2.02499359E-05
  -8.44999962E-03   2.07593621E-05
  -8.39999970E-03   2.13265248E-05
  -8.34999979E-03   2.19347658E-05
  -8.29999987E-03   2.25544463E-05
  -8.24999996E-03   2.31560134E-05
  -8.20000004E-03   2.37232071E-05
  -8.15000013E-03   2.42604583E-05
  -8.10000021E-03   2.47911576E-05
  -8.05000030E-03   2.53477447E-05
  -8.00000038E-03   2.59576736E-05
  -7.95000046E-03   2.66314128E-05
  -7.89999962E-03   2.73579335E-05
  -7.84999970E-03   2.81096145E-05
  -7.79999979E-03   2.88544161E-05
  -7.74999987E-03   2.95701393E-05
  -7.69999996E-03   3.02544468E-05
  -7.65000004E-03   3.09260904E-05
  -7.60000013E-03   3.16169971E-05
  -7.55000021E-03   3.23585336E-05
  -7.49999983E-03   3.31677620E-05
  -7.44999992E-03   3.40401130E-05
  -7.40000000E-03   3.49513793E-05
  -7.35000009E-03   3.58684811E-05
  -7.30000017E-03   3.67641260E-05
  -7.24999979E-03   3.76289536E-05
  -7.19999988E-03   3.84760606E-05
  -7.14999996E-03   3.93355622E-05
  -7.10000005E-03   4.02416626E-05
  -7.05000013E-03   4.12178160E-05
  -7.00000022E-03   4.22666126E-05
  -6.94999984E-03   4.33687819E-05
  -6.89999992E-03   4.44917423E-05
  -6.85000001E-03   4.56041562E-05
  -6.80000009E-03   4.66898928E-05
  -6.75000018E-03   4.77553403E-05
  -6.69999979E-03   4.88270816E-05
  -6.64999988E-03   4.99404450E-05
  -6.59999996E-03   5.11242470E-05
  -6.55000005E-03   5.23883828E-05
  -6.50000013E-03   5.37196065E-05
  -6.45000022E-03   5.50874975E-05
  -6.39999984E-03   5.64578841E-05
  -6.34999992E-03   5.78079344E-05
  -6.30000001E-03   5.91365679E-05
  -6.25000009E-03   6.04652305E-05
  -6.20000018E-03   6.18287668E-05
  -6.14999980E-03   6.32604642E-05
  -6.09999988E-03   6.47776105E-05
  -6.04999997E-03   6.63741012E-05
  -6.00000005E-03   6.80231969E-05
  -5.95000014E-03   6.96894349E-05
  -5.90000022E-03   7.13443224E-05
  -5.84999984E-03   7.29791354E-05
  -5.79999993E-03   7.46091901E-05
  -5.75000001E-03   7.62674099E-05
  -5.70000010E-03   7.79901020E-05
  -5.65000018E-03   7.98014298E-05
  -5.59999980E-03   8.17030741E-05
  -5.54999989E-03   8.36735344E-05
  -5.49999997E-03   8.56777478E-05
  -5.45000006E-03   8.76826161E-05
  -5.40000014E-03   8.96718411E-05
  -5.35000023E-03   9.16533172E-05
  -5.29999984E-03   9.36560318E-05
  -5.24999993E-03   9.57175944E-05
  -5.20000001E-03   9.78681637E-05
  -5.15000010E-03   1.00117344E-04
  -5.10000018E-03   1.02449914E-04
  -5.04999980E-03   1.04833081E-04
  -4.99999989E-03   1.07230822E-04
  -4.94999997E-03   1.09619679E-04
  -4.90000006E-03   1.11999529E-04
  -4.85000014E-03   1.14394155E-04
  -4.80000023E-03   1.16841249E-04
  -4.74999985E-03   1.19375967E-04
  -4.69999993E-03   1.22015823E-04
  -4.65000002E-03   1.24753278E-04
  -4.60000010E-03   1.27559470E-04
  -4.55000019E-03   1.30397020E-04
  -4.49999981E-03   1.33236448E-04
  -4.44999989E-03   1.36069692E-04
  -4.39999998E-03   1.38913922E-04
  -4.35000006E-03   1.41804165E-04
  -4.30000015E-03   1.44778925E-04
  -4.25000023E-03   1.47863320E-04
  -4.19999985E-03   1.51058150E-04
  -4.14999994E-03   1.54340029E-04
  -4.10000002E-03   1.57671646E-04
  -4.05000011E-03   1.61018397E-04
  -4.00000019E-03   1.64363941E-04
  -3.94999981E-03   1.67717808E-04
  -3.89999989E-03   1.71111402E-04
  -3.84999998E-03   1.74584929E-04
  -3.80000006E-03   1.78170187E-04
  -3.74999992E-03   1.81876865E-04
  -3.70000000E-03   1.85688157E-04
  -3.65000009E-03   1.89568673E-04
  -3.59999994E-03   1.93480722E-04
  -3.55000002E-03   1.97400936E-04
  -3.50000011E-03   2.01330462E-04
  -3.44999996E-03   2.05295146E-04
  -3.40000005E-03   2.09335369E-04
  -3.34999990E-03   2.13488282E-04
  -3.29999998E-03   2.17771754E-04
  -3.25000007E-03   2.22177303E-04
  -3.19999992E-03   2.26673525E-04
  -3.15000000E-03   2.31220605E-04
  -3.10000009E-03   2.35788160E-04
  -3.04999994E-03   2.40368507E-04
  -3.00000003E-03   2.44980969E-04
  -2.95000011E-03   2.49663513E-04
  -2.89999996E-03   2.54457234E-04
  -2.85000005E-03   2.59388442E-04
  -2.79999990E-03   2.64456961E-04
  -2.74999999E-03   2.69636948E-04
  -2.70000007E-03   2.74888414E-04
  -2.64999992E-03   2.80175067E-04
  -2.60000001E-03   2.85480346E-04
  -2.55000009E-03   2.90815515E-04
  -2.49999994E-03   2.96215847E-04
  -2.45000003E-03   3.01724504E-04
  -2.40000011E-03   3.07374430E-04
  -2.34999997E-03   3.13174445E-04
  -2.30000005E-03   3.19106039E-04
  -2.24999990E-03   3.25131608E-04
  -2.19999999E-03   3.31210176E-04
  -2.15000007E-03   3.37316887E-04
  -2.09999993E-03   3.43454536E-04
  -2.05000001E-03   3.49652342E-04
  -2.00000009E-03   3.55953962E-04
  -1.94999995E-03   3.62398743E-04
  -1.90000003E-03   3.69004061E-04
  -1.85000000E-03   3.75758274E-04
  -1.79999997E-03   3.82627390E-04
  -1.75000005E-03   3.89569206E-04
  -1.70000002E-03   3.96551011E-04
  -1.64999999E-03   4.03565908E-04
  -1.59999996E-03   4.10635781E-04
  -1.55000004E-03   4.17802104E-04
  -1.50000001E-03   4.25108243E-04
  -1.44999998E-03   4.32580273E-04
  -1.39999995E-03   4.40216449E-04
  -1.35000004E-03   4.47988627E-04
  -1.30000000E-03   4.55853267E-04
  -1.24999997E-03   4.63770994E-04
  -1.20000006E-03   4.71725740E-04
  -1.15000003E-03   4.79731301E-04
  -1.09999999E-03   4.87825309E-04
  -1.04999996E-03   4.96054476E-04
  -1.00000005E-03   5.04454190E-04
  -9.50000016E-04   5.13032312E-04
  -8.99999985E-04   5.21765149E-04
  -8.50000011E-04   5.30609221E-04
  -7.99999980E-04   5.39520523E-04
  -7.50000007E-04   5.48473035E-04
  -6.99999975E-04   5.57471300E-04
  -6.50000002E-04   5.66548493E-04
  -6.00000028E-04   5.75752638E-04
  -5.49999997E-04   5.85125759E-04
  -5.00000024E-04   5.94685378E-04
  -4.49999992E-04   6.04417408E-04
  -3.99999990E-04   6.14280289E-04
  -3.49999988E-04   6.24223088E-04
  -3.00000014E-04   6.34210533E-04
  -2.50000012E-04   6.44238025E-04
  -1.99999995E-04   6.54332922E-04
  -1.50000007E-04   6.64545281E-04
  -9.99999975E-05   6.74923824E-04
  -4.99999987E-05   6.85494044E-04
   0.00000000       6.96248841E-04
   4.99999987E-05   7.07150495E-04
   9.99999975E-05   7.18147727E-04
   1.50000007E-04   7.29196589E-04
   1.99999995E-04   7.40281015E-04
   2.50000012E-04   7.51421438E-04
   3.00000014E-04   7.62663956E-04
   3.49999988E-04   7.74060958E-04
   3.99999990E-04   7.85648008E-04
   4.49999992E-04   7.97428947E-04
   5.00000024E-04   8.09372868E-04
   5.49999997E-04   8.21425754E-04
   6.00000028E-04   8.33536673E-04
   6.50000002E-04   8.45680304E-04
   6.99999975E-04   8.57866486E-04
   7.50000007E-04   8.70134798E-04
   7.99999980E-04   8.82539665E-04
   8.50000011E-04   8.95127247E-04
   8.99999985E-04   9.07911628E-04
   9.50000016E-04   9.20867547E-04
   1.00000005E-03   9.33943375E-04
   1.04999996E-03   9.47083579E-04
   1.09999999E-03   9.60250152E-04
   1.15000003E-03   9.73442046E-04
   1.20000006E-03   9.86694708E-04
   1.24999997E-03   1.00006303E-03
   1.30000000E-03   1.01360050E-03
   1.35000004E-03   1.02733332E-03
   1.39999995E-03   1.04124541E-03
   1.44999998E-03   1.05528696E-03
   1.50000001E-03   1.06939510E-03
   1.55000004E-03   1.08352001E-03
   1.59999996E-03   1.09765213E-03
   1.64999999E-03   1.11182022E-03
   1.70000002E-03   1.12607842E-03
   1.75000005E-03   1.14048377E-03
   1.79999997E-03   1.15506921E-03
   1.85000000E-03   1.16982951E-03
   1.90000003E-03   1.18472101E-03
   1.94999995E-03   1.19967829E-03
   2.00000009E-03   1.21464639E-03
   2.05000001E-03   1.22960145E-03
   2.09999993E-03   1.24456140E-03
   2.15000007E-03   1.25957560E-03
   2.19999999E-03   1.27470342E-03
   2.24999990E-03   1.28999085E-03
   2.30000005E-03   1.30544370E-03
   2.34999997E-03   1.32102566E-03
   2.40000011E-03   1.33667025E-03
   2.45000003E-03   1.35231169E-03
   2.49999994E-03   1.36791589E-03
   2.55000009E-03   1.38349016E-03
   2.60000001E-03   1.39907771E-03
   2.64999992E-03   1.41474023E-03
   2.70000007E-03   1.43053557E-03
   2.74999999E-03   1.44648226E-03
   2.79999990E-03   1.46254711E-03