  -3.99999991E-02   0.00000000    
  -3.99499983E-02   0.00000000    
  -3.99000011E-02   0.00000000    
  -3.98500003E-02   0.00000000    
  -3.97999994E-02   0.00000000    
  -3.97499986E-02  -2.08164843E-22
  -3.97000015E-02  -2.38001996E-21
  -3.96500006E-02  -1.43960721E-20
  -3.95999998E-02  -6.08411245E-20
  -3.95499989E-02  -2.00645311E-19
  -3.95000018E-02  -5.47567199E-19
  -3.94500010E-02  -1.28191261E-18
  -3.94000001E-02  -2.63750137E-18
  -3.93499993E-02  -4.85335444E-18
  -3.92999984E-02  -8.09847705E-18
  -3.92500013E-02  -1.24050589E-17
  -3.92000005E-02  -1.76643427E-17
  -3.91499996E-02  -2.37301045E-17
  -3.90999988E-02  -3.06271199E-17
  -3.90500017E-02  -3.87901650E-17
  -3.90000008E-02  -4.92020462E-17
  -3.89500000E-02  -6.33031794E-17
  -3.88999991E-02  -8.26321801E-17
  -3.88499983E-02  -1.08302420E-16
  -3.88000011E-02  -1.40551684E-16
  -3.87500003E-02  -1.78638229E-16
  -3.86999995E-02  -2.21245668E-16
  -3.86499986E-02  -2.67320951E-16
  -3.86000015E-02  -3.17003854E-16
  -3.85500006E-02  -3.72151284E-16
  -3.84999998E-02  -4.36036626E-16
  -3.84499989E-02  -5.12137031E-16
  -3.84000018E-02  -6.02393315E-16
  -3.83500010E-02  -7.05711959E-16
  -3.83000001E-02  -8.17535607E-16
  -3.82499993E-02  -9.30929549E-16
  -3.81999984E-02  -1.03893938E-15
  -3.81500013E-02  -1.13728117E-15
  -3.81000005E-02  -1.22610528E-15
  -3.80499996E-02  -1.30984190E-15
  -3.79999988E-02  -1.39493208E-15
  -3.79500017E-02  -1.48623863E-15
  -3.79000008E-02  -1.58363757E-15
  -3.78500000E-02  -1.68036101E-15
  -3.77999991E-02  -1.76396877E-15
  -3.77499983E-02  -1.81965505E-15
  -3.77000012E-02  -1.83446097E-15
  -3.76500003E-02  -1.80045980E-15
  -3.75999995E-02  -1.71539164E-15
  -3.75499986E-02  -1.58042192E-15
  -3.75000015E-02  -1.39607060E-15
  -3.74500006E-02  -1.15823105E-15
  -3.73999998E-02  -8.56123728E-16
  -3.73499990E-02  -4.73103635E-16
  -3.73000018E-02   1.00282084E-17
  -3.72500010E-02   6.10538331E-16
  -3.72000001E-02   1.33968086E-15
  -3.71499993E-02   2.20018777E-15
  -3.70999984E-02   3.18572310E-15
  -3.70500013E-02   4.28210010E-15
  -3.70000005E-02   5.46990076E-15
  -3.69499996E-02   6.72836852E-15
  -3.68999988E-02   8.04055512E-15
  -3.68500017E-02   9.39930100E-15
  -3.68000008E-02   1.08124518E-14
  -3.67500000E-02   1.23045774E-14
  -3.66999991E-02   1.39122493E-14
  -3.66499983E-02   1.56717545E-14
  -3.66000012E-02   1.76016564E-14
  -3.65500003E-02   1.96865720E-14
  -3.64999995E-02   2.18703111E-14
  -3.64499986E-02   2.40644534E-14
  -3.64000015E-02   2.61722999E-14
  -3.63500006E-02   2.81200471E-14
  -3.62999998E-02   2.98810727E-14
  -3.62499990E-02   3.14792476E-14
  -3.62000018E-02   3.29646114E-14
  -3.61500010E-02   3.43680840E-14
  -3.61000001E-02   3.56547304E-14
  -3.60499993E-02   3.67010228E-14
  -3.59999985E-02   3.73149184E-14
  -3.59500013E-02   3.72991771E-14
  -3.59000005E-02   3.65353161E-14
  -3.58499996E-02   3.50491188E-14
  -3.57999988E-02   3.30192213E-14
  -3.57500017E-02   3.07110396E-14
  -3.57000008E-02   2.83530252E-14
  -3.56500000E-02   2.60051227E-14
  -3.55999991E-02   2.34835633E-14
  -3.55499983E-02   2.03904835E-14
  -3.55000012E-02   1.62536204E-14
  -3.54500003E-02   1.07272649E-14
  -3.53999995E-02   3.76635614E-15
  -3.53499986E-02  -4.31650616E-15
  -3.53000015E-02  -1.29579668E-14
  -3.52500007E-02  -2.15875630E-14
  -3.51999998E-02  -2.99078118E-14
  -3.51499990E-02  -3.80763062E-14
  -3.51000018E-02  -4.66827640E-14
  -3.50500010E-02  -5.64998250E-14
  -3.50000001E-02  -6.80955536E-14
  -3.49499993E-02  -8.14783083E-14
  -3.48999985E-02  -9.59549551E-14
  -3.48500013E-02  -1.10305570E-13
  -3.48000005E-02  -1.23237209E-13
  -3.47499996E-02  -1.33937227E-13
  -3.46999988E-02  -1.42471416E-13
  -3.46500017E-02  -1.49813037E-13
  -3.46000008E-02  -1.57439532E-13
  -3.45500000E-02  -1.66636019E-13
  -3.44999991E-02  -1.77805809E-13
  -3.44499983E-02  -1.90122386E-13
  -3.44000012E-02  -2.01733175E-13
  -3.43500003E-02  -2.10482415E-13
  -3.42999995E-02  -2.14864083E-13
  -3.42499986E-02  -2.14768836E-13
  -3.42000015E-02  -2.11636942E-13
  -3.41500007E-02  -2.07872307E-13
  -3.40999998E-02  -2.05715463E-13
  -3.40499990E-02  -2.06060754E-13
  -3.40000018E-02  -2.07787279E-13
  -3.39500010E-02  -2.07990621E-13
  -3.39000002E-02  -2.03109976E-13
  -3.38499993E-02  -1.90511140E-13
  -3.37999985E-02  -1.69815483E-13
  -3.37500013E-02  -1.43309409E-13
  -3.37000005E-02  -1.15138124E-13
  -3.36499996E-02  -8.95405373E-14
  -3.35999988E-02  -6.88693826E-14
  -3.35500017E-02  -5.23218282E-14
  -3.35000008E-02  -3.60588702E-14
  -3.34500000E-02  -1.47946468E-14
  -3.33999991E-02   1.57597053E-14
  -3.33499983E-02   5.66862434E-14
  -3.33000012E-02   1.04967318E-13
  -3.32500003E-02   1.54467801E-13
  -3.31999995E-02   1.98505302E-13
  -3.31499986E-02   2.32933085E-13
  -3.31000015E-02   2.58310734E-13
  -3.30500007E-02   2.80038904E-13
  -3.29999998E-02   3.06197803E-13
  -3.29499990E-02   3.43901746E-13
  -3.29000019E-02   3.95760844E-13
  -3.28500010E-02   4.58135483E-13
  -3.28000002E-02   5.22168029E-13
  -3.27499993E-02   5.77345572E-13
  -3.26999985E-02   6.16124393E-13
  -3.26500013E-02   6.37521123E-13
  -3.26000005E-02   6.47887234E-13
  -3.25499997E-02   6.58274271E-13
  -3.24999988E-02   6.79365581E-13
  -3.24500017E-02   7.16184870E-13
  -3.24000008E-02   7.65076262E-13
  -3.23500000E-02   8.14576054E-13
  -3.22999991E-02   8.50078254E-13
  -3.22499983E-02   8.60389776E-13
  -3.22000012E-02   8.43222193E-13
  -3.21500003E-02   8.06933676E-13
  -3.20999995E-02   7.67398081E-13
  -3.20499986E-02   7.41090782E-13
  -3.20000015E-02   7.37353646E-13
  -3.19500007E-02   7.53414909E-13
  -3.18999998E-02   7.74712163E-13
  -3.18499990E-02   7.80758704E-13
  -3.18000019E-02   7.54202365E-13
  -3.17500010E-02   6.89054337E-13
  -3.17000002E-02   5.94169950E-13
  -3.16499993E-02   4.90016285E-13
  -3.15999985E-02   3.99784508E-13
  -3.15500014E-02   3.38632849E-13
  -3.15000005E-02   3.05993756E-13
  -3.14499997E-02   2.84770200E-13
  -3.13999988E-02   2.48276849E-13
  -3.13500017E-02   1.72195415E-13
  -3.13000008E-02   4.62731626E-14
  -3.12500000E-02  -1.19739789E-13
  -3.11999992E-02  -2.99090478E-13
  -3.11500002E-02  -4.59152302E-13
  -3.10999993E-02  -5.76020568E-13
  -3.10500003E-02  -6.45985544E-13
  -3.09999995E-02  -6.88332366E-13
  -3.09500005E-02  -7.37614613E-13
  -3.08999997E-02  -8.28354637E-13
  -3.08500007E-02  -9.78830081E-13
  -3.07999998E-02  -1.18144773E-12
  -3.07500008E-02  -1.40457394E-12
  -3.07000000E-02  -1.60563696E-12
  -3.06499992E-02  -1.75004857E-12
  -3.06000002E-02  -1.82745117E-12
  -3.05499993E-02  -1.85755469E-12
  -3.05000003E-02  -1.88223742E-12
  -3.04499995E-02  -1.94680144E-12
  -3.04000005E-02  -2.07850707E-12
  -3.03499997E-02  -2.27223839E-12
  -3.03000007E-02  -2.49039830E-12
  -3.02499998E-02  -2.67790542E-12
  -3.02000009E-02  -2.78618014E-12
  -3.01500000E-02  -2.79549084E-12
  -3.00999992E-02  -2.72520114E-12
  -3.00500002E-02  -2.62651728E-12
  -2.99999993E-02  -2.56015630E-12
  -2.99500003E-02  -2.56850400E-12
  -2.98999995E-02  -2.65487220E-12
  -2.98500005E-02  -2.77984211E-12
  -2.97999997E-02  -2.87725226E-12
  -2.97500007E-02  -2.88341486E-12
  -2.96999998E-02  -2.76667534E-12
  -2.96500009E-02  -2.54361549E-12
  -2.96000000E-02  -2.27371420E-12
  -2.95499992E-02  -2.03384813E-12
  -2.95000002E-02  -1.88344067E-12
  -2.94499993E-02  -1.83593310E-12
  -2.94000003E-02  -1.85010037E-12
  -2.93499995E-02  -1.84621047E-12
  -2.93000005E-02  -1.74077322E-12
  -2.92499997E-02  -1.48473573E-12
  -2.92000007E-02  -1.08765893E-12
  -2.91499998E-02  -6.16074737E-13
  -2.91000009E-02  -1.65601826E-13
  -2.90500000E-02   1.81510595E-13
  -2.89999992E-02   3.94480509E-13
  -2.89500002E-02   5.09976501E-13
  -2.88999993E-02   6.17633982E-13
  -2.88500004E-02   8.20470590E-13
  -2.87999995E-02   1.18736650E-12
  -2.87500005E-02   1.71921060E-12
  -2.86999997E-02   2.34494152E-12
  -2.86500007E-02   2.95061089E-12
  -2.85999998E-02   3.42950516E-12
  -2.85500009E-02   3.73112348E-12
  -2.85000000E-02   3.88637863E-12
  -2.84499992E-02   3.99639089E-12
  -2.84000002E-02   4.18847812E-12
  -2.83499993E-02   4.55820928E-12
  -2.83000004E-02   5.12357995E-12
  -2.82499995E-02   5.81286798E-12
  -2.82000005E-02   6.49310770E-12
  -2.81499997E-02   7.02771782E-12
  -2.81000007E-02   7.33794969E-12
  -2.80499998E-02   7.44008067E-12
  -2.80000009E-02   7.44030792E-12
  -2.79500000E-02   7.48807613E-12
  -2.78999992E-02   7.70769993E-12
  -2.78500002E-02   8.13891315E-12
  -2.77999993E-02   8.71402776E-12
  -2.77500004E-02   9.28364937E-12
  -2.76999995E-02   9.68098952E-12
  -2.76500005E-02   9.79673547E-12
  -2.75999997E-02   9.63048478E-12
  -2.75500007E-02   9.29424419E-12
  -2.74999999E-02   8.96457734E-12
  -2.74500009E-02   8.80342067E-12
  -2.74000000E-02   8.88269840E-12
  -2.73499992E-02   9.14740506E-12
  -2.73000002E-02   9.43542900E-12
  -2.72499993E-02   9.54704458E-12
  -2.72000004E-02   9.33396242E-12
  -2.71499995E-02   8.76781286E-12
  -2.71000005E-02   7.95599610E-12
  -2.70499997E-02   7.09582653E-12
  -2.70000007E-02   6.38593909E-12
  -2.69499999E-02   5.93412342E-12
  -2.69000009E-02   5.70379638E-12
  -2.68500000E-02   5.52498975E-12
  -2.67999992E-02   5.16705775E-12
  -2.67500002E-02   4.44192383E-12
  -2.66999993E-02   3.29156364E-12
  -2.66500004E-02   1.81914705E-12
  -2.65999995E-02   2.47679752E-13
  -2.65500005E-02  -1.17735520E-12
  -2.64999997E-02  -2.29859816E-12
  -2.64500007E-02  -3.12047415E-12
  -2.63999999E-02  -3.81101531E-12
  -2.63500009E-02  -4.62866811E-12
  -2.63000000E-02  -5.80522522E-12
  -2.62499992E-02  -7.43708047E-12
  -2.62000002E-02  -9.43484180E-12
  -2.61499994E-02  -1.15562299E-11
  -2.61000004E-02  -1.35097931E-11
  -2.60499995E-02  -1.50841596E-11
  -2.60000005E-02  -1.62443808E-11
  -2.59499997E-02  -1.71501997E-11
  -2.59000007E-02  -1.80853995E-11
  -2.58499999E-02  -1.93278397E-11
  -2.58000009E-02  -2.10177969E-11
  -2.57500000E-02  -2.30849072E-11
  -2.56999992E-02  -2.52689588E-11
  -2.56500002E-02  -2.72279369E-11
  -2.55999994E-02  -2.86865670E-11
  -2.55500004E-02  -2.95586680E-11
  -2.54999995E-02  -2.99865827E-11
  -2.54500005E-02  -3.02772599E-11
  -2.53999997E-02  -3.07612373E-11
  -2.53500007E-02  -3.16368771E-11
  -2.52999999E-02  -3.28708415E-11
  -2.52500009E-02  -3.42019642E-11
  -2.52000000E-02  -3.52499245E-11
  -2.51499992E-02  -3.56818360E-11
  -2.51000002E-02  -3.53622270E-11
  -2.50499994E-02  -3.44171081E-11
  -2.50000004E-02  -3.31803161E-11
  -2.49499995E-02  -3.20432153E-11
  -2.49000005E-02  -3.12739314E-11
  -2.48499997E-02  -3.08879623E-11
  -2.48000007E-02  -3.06310741E-11
  -2.47499999E-02  -3.00854480E-11
  -2.47000009E-02  -2.88540598E-11
  -2.46500000E-02  -2.67410382E-11
  -2.45999992E-02  -2.38452851E-11
  -2.45500002E-02  -2.05220840E-11
  -2.44999994E-02  -1.72267426E-11
  -2.44500004E-02  -1.43086801E-11
  -2.43999995E-02  -1.18492343E-11
  -2.43500005E-02  -9.61876846E-12
  -2.42999997E-02  -7.17623660E-12
  -2.42500007E-02  -4.06940020E-12
  -2.41999999E-02  -4.66806871E-14
  -2.41500009E-02   4.81638340E-12
  -2.41000000E-02   1.01365158E-11
  -2.40499992E-02   1.53831808E-11
  -2.40000002E-02   2.01104567E-11
  -2.39499994E-02   2.41559047E-11
  -2.39000004E-02   2.77142684E-11
  -2.38499995E-02   3.12487571E-11
  -2.38000005E-02   3.52762403E-11
  -2.37499997E-02   4.01215138E-11
  -2.37000007E-02   4.57527072E-11
  -2.36499999E-02   5.17755110E-11
  -2.36000009E-02   5.75931733E-11
  -2.35500000E-02   6.26631524E-11
  -2.34999992E-02   6.67349995E-11
  -2.34500002E-02   6.99596214E-11
  -2.33999994E-02   7.28162391E-11
  -2.33500004E-02   7.58857352E-11
  -2.32999995E-02   7.95706834E-11
  -2.32500006E-02   8.38895065E-11
  -2.31999997E-02   8.84415735E-11
  -2.31500007E-02   9.25641924E-11
  -2.30999999E-02   9.56144261E-11
  -2.30500009E-02   9.72496250E-11
  -2.30000000E-02   9.75777029E-11
  -2.29499992E-02   9.71045119E-11
  -2.29000002E-02   9.64973379E-11
  -2.28499994E-02   9.62686111E-11
  -2.28000004E-02   9.65233102E-11
  -2.27499995E-02   9.68883515E-11
  -2.27000006E-02   9.66611582E-11
  -2.26499997E-02   9.51149645E-11
  -2.26000007E-02   9.18242288E-11
  -2.25499999E-02   8.68606437E-11
  -2.25000009E-02   8.07661299E-11
  -2.24500000E-02   7.43091352E-11
  -2.23999992E-02   6.81309870E-11
  -2.23500002E-02   6.24427038E-11
  -2.22999994E-02   5.69133074E-11
  -2.22500004E-02   5.08067824E-11
  -2.21999995E-02   4.33112365E-11
  -2.21500006E-02   3.39137850E-11
  -2.20999997E-02   2.26497536E-11
  -2.20500007E-02   1.01080125E-11
  -2.19999999E-02  -2.81629386E-12
  -2.19500009E-02  -1.53141614E-11
  -2.19000001E-02  -2.70230262E-11
  -2.18499992E-02  -3.81876128E-11
  -2.18000002E-02  -4.95419157E-11
  -2.17499994E-02  -6.19593751E-11
  -2.17000004E-02  -7.60266364E-11
  -2.16499995E-02  -9.17358134E-11
  -2.16000006E-02  -1.08440715E-10
  -2.15499997E-02  -1.25104302E-10
  -2.15000007E-02  -1.40731149E-10
  -2.14499999E-02  -1.54790292E-10
  -2.14000009E-02  -1.67432859E-10
  -2.13500001E-02  -1.79398704E-10
  -2.12999992E-02  -1.91646921E-10
  -2.12500002E-02  -2.04873465E-10
  -2.11999994E-02  -2.19135723E-10
  -2.11500004E-02  -2.33760511E-10
  -2.10999995E-02  -2.47585397E-10
  -2.10500006E-02  -2.59430921E-10
  -2.09999997E-02  -2.68592093E-10
  -2.09500007E-02  -2.75122453E-10
  -2.08999999E-02  -2.79774287E-10
  -2.08500009E-02  -2.83613855E-10
  -2.08000001E-02  -2.87481094E-10
  -2.07499992E-02  -2.91539543E-10
  -2.07000002E-02  -2.95127783E-10
  -2.06499994E-02  -2.96989128E-10
  -2.06000004E-02  -2.95784758E-10
  -2.05499995E-02  -2.90660773E-10
  -2.05000006E-02  -2.81609569E-10
  -2.04499997E-02  -2.69452904E-10
  -2.04000007E-02  -2.55445137E-10
  -2.03499999E-02  -2.40669429E-10
  -2.03000009E-02  -2.25500368E-10
  -2.02500001E-02  -2.09383372E-10
  -2.01999992E-02  -1.91041155E-10
  -2.01500002E-02  -1.69023295E-10
  -2.00999994E-02  -1.42354836E-10
  -2.00500004E-02  -1.10987067E-10
  -1.99999996E-02  -7.58374197E-11
  -1.99500006E-02  -3.83897567E-11
  -1.98999997E-02  -2.78028485E-14
  -1.98500007E-02   3.85967404E-11
  -1.97999999E-02   7.78683229E-11
  -1.97500009E-02   1.19034546E-10
  -1.97000001E-02   1.63622130E-10
  -1.96499992E-02   2.12700385E-10
  -1.96000002E-02   2.66327072E-10
  -1.95499994E-02   3.23436999E-10
  -1.95000004E-02   3.82236409E-10
  -1.94499996E-02   4.40934206E-10
  -1.94000006E-02   4.98482089E-10
  -1.93499997E-02   5.54982615E-10
  -1.93000007E-02   6.11568018E-10
  -1.92499999E-02   6.69792999E-10
  -1.92000009E-02   7.30807526E-10
  -1.91500001E-02   7.94686372E-10
  -1.90999992E-02   8.60228000E-10
  -1.90500002E-02   9.25328036E-10
  -1.89999994E-02   9.87770310E-10
  -1.89500004E-02   1.04608167E-09
  -1.88999996E-02   1.10005860E-09
  -1.88500006E-02   1.15071452E-09
  -1.87999997E-02   1.19965626E-09
  -1.87500007E-02   1.24816246E-09
  -1.86999999E-02   1.29637978E-09
  -1.86500009E-02   1.34301070E-09
  -1.86000001E-02   1.38564893E-09
  -1.85499992E-02   1.42162504E-09
  -1.85000002E-02   1.44898749E-09
  -1.84499994E-02   1.46717172E-09
  -1.84000004E-02   1.47704227E-09
  -1.83499996E-02   1.48027379E-09
  -1.83000006E-02   1.47833856E-09
  -1.82499997E-02   1.47155776E-09
  -1.82000007E-02   1.45865386E-09
  -1.81499999E-02   1.43702306E-09
  -1.81000009E-02   1.40362200E-09
  -1.80500001E-02   1.35607658E-09
  -1.79999992E-02   1.29350963E-09
  -1.79500002E-02   1.21670141E-09
  -1.78999994E-02   1.12749154E-09
  -1.78500004E-02   1.02768072E-09
  -1.77999996E-02   9.17920517E-10
  -1.77500006E-02   7.97104993E-10
  -1.76999997E-02   6.62551569E-10
  -1.76500008E-02   5.10911868E-10
  -1.75999999E-02   3.39409667E-10
  -1.75500009E-02   1.46848769E-10
  -1.75000001E-02  -6.60737159E-11
  -1.74499992E-02  -2.97313785E-10
  -1.74000002E-02  -5.44648326E-10
  -1.73499994E-02  -8.06951284E-10
  -1.73000004E-02  -1.08498721E-09
  -1.72499996E-02  -1.38135403E-09
  -1.72000006E-02  -1.69957215E-09
  -1.71499997E-02  -2.04272355E-09
  -1.71000008E-02  -2.41224951E-09
  -1.70499999E-02  -2.80746049E-09
  -1.70000009E-02  -3.22600169E-09
  -1.69500001E-02  -3.66508091E-09
  -1.68999992E-02  -4.12291579E-09
  -1.68500002E-02  -4.59974636E-09
  -1.67999994E-02  -5.09793452E-09
  -1.67500004E-02  -5.62109292E-09
  -1.66999996E-02  -6.17260776E-09
  -1.66500006E-02  -6.75423228E-09
  -1.65999997E-02  -7.36537809E-09
  -1.65500008E-02  -8.00345834E-09
  -1.64999999E-02  -8.66514238E-09
  -1.64500009E-02  -9.34796862E-09
  -1.64000001E-02  -1.00515827E-08
  -1.63499992E-02  -1.07780505E-08
  -1.63000003E-02  -1.15310401E-08
  -1.62499994E-02  -1.23142661E-08
  -1.62000004E-02  -1.31298608E-08
  -1.61499996E-02  -1.39774263E-08
  -1.61000006E-02  -1.48542210E-08
  -1.60499997E-02  -1.57564024E-08
  -1.60000008E-02  -1.66808007E-08
  -1.59499999E-02  -1.76264283E-08
  -1.59000009E-02  -1.85950118E-08
  -1.58500001E-02  -1.95903134E-08
  -1.57999992E-02  -2.06164952E-08
  -1.57500003E-02  -2.16762857E-08
  -1.56999994E-02  -2.27697505E-08
  -1.56500004E-02  -2.38942661E-08
  -1.55999996E-02  -2.50457166E-08
  -1.55499997E-02  -2.62204054E-08
  -1.54999997E-02  -2.74168084E-08
  -1.54499998E-02  -2.86363910E-08
  -1.53999999E-02  -2.98830827E-08
  -1.53500000E-02  -3.11616155E-08
  -1.53000001E-02  -3.24754978E-08
  -1.52500002E-02  -3.38254758E-08
  -1.52000003E-02  -3.52092648E-08
  -1.51500003E-02  -3.66226516E-08
  -1.51000004E-02  -3.80615077E-08
  -1.50499996E-02  -3.95238260E-08
  -1.49999997E-02  -4.10108534E-08
  -1.49499997E-02  -4.25267608E-08
  -1.48999998E-02  -4.40770265E-08
  -1.48499999E-02  -4.56662015E-08
  -1.48000000E-02  -4.72960728E-08
  -1.47500001E-02  -4.89650915E-08
  -1.47000002E-02  -5.06692892E-08
  -1.46500003E-02  -5.24044026E-08
  -1.46000003E-02  -5.41681331E-08
  -1.45500004E-02  -5.59616105E-08
  -1.44999996E-02  -5.77893644E-08
  -1.44499997E-02  -5.96577294E-08
  -1.43999998E-02  -6.15724787E-08
  -1.43499998E-02  -6.35366817E-08
  -1.42999999E-02  -6.55497416E-08
  -1.42500000E-02  -6.76081768E-08
  -1.42000001E-02  -6.97076814E-08
  -1.41500002E-02  -7.18457258E-08
  -1.41000003E-02  -7.40233261E-08
  -1.40500003E-02  -7.62453070E-08
  -1.40000004E-02  -7.85189158E-08
  -1.39499996E-02  -8.08512937E-08
  -1.38999997E-02  -8.32469809E-08
  -1.38499998E-02  -8.57066667E-08
  -1.37999998E-02  -8.82276368E-08
  -1.37499999E-02  -9.08058269E-08
  -1.37000000E-02  -9.34385795E-08
  -1.36500001E-02  -9.61268256E-08
  -1.36000002E-02  -9.88757165E-08
  -1.35500003E-02  -1.01693367E-07
  -1.35000004E-02  -1.04588310E-07
  -1.34500004E-02  -1.07566684E-07
  -1.33999996E-02  -1.10630559E-07
  -1.33499997E-02  -1.13778107E-07
  -1.32999998E-02  -1.17005534E-07
  -1.32499998E-02  -1.20310034E-07
  -1.31999999E-02  -1.23692345E-07
  -1.31500000E-02  -1.27157705E-07
  -1.31000001E-02  -1.30714994E-07
  -1.30500002E-02  -1.34374076E-07
  -1.30000003E-02  -1.38142696E-07
  -1.29500004E-02  -1.42024476E-07
  -1.29000004E-02  -1.46018664E-07
  -1.28499996E-02  -1.50121920E-07
  -1.27999997E-02  -1.54331360E-07
  -1.27499998E-02  -1.58647481E-07
  -1.26999998E-02  -1.63075583E-07
  -1.26499999E-02  -1.67625160E-07
  -1.26000000E-02  -1.72307267E-07
  -1.25500001E-02  -1.77131312E-07
  -1.25000002E-02  -1.82102482E-07
  -1.24500003E-02  -1.87221175E-07
  -1.24000004E-02  -1.92484521E-07
  -1.23500004E-02  -1.97889520E-07
  -1.22999996E-02  -2.03436258E-07
  -1.22499997E-02  -2.09129880E-07
  -1.21999998E-02  -2.14980162E-07
  -1.21499998E-02  -2.20999169E-07
  -1.20999999E-02  -2.27197873E-07
  -1.20500000E-02  -2.33583123E-07
  -1.20000001E-02  -2.40156623E-07
  -1.19500002E-02  -2.46916159E-07
  -1.19000003E-02  -2.53858815E-07
  -1.18500004E-02  -2.60984478E-07
  -1.18000004E-02  -2.68298066E-07
  -1.17499996E-02  -2.75809782E-07
  -1.16999997E-02  -2.83532813E-07
  -1.16499998E-02  -2.91479722E-07
  -1.15999999E-02  -2.99659177E-07
  -1.15499999E-02  -3.08074476E-07
  -1.15000000E-02  -3.16724282E-07
  -1.14500001E-02  -3.25605811E-07
  -1.14000002E-02  -3.34718720E-07
  -1.13500003E-02  -3.44067644E-07
  -1.13000004E-02  -3.53663012E-07
  -1.12500004E-02  -3.63518922E-07
  -1.11999996E-02  -3.73649556E-07
  -1.11499997E-02  -3.84065629E-07
  -1.10999998E-02  -3.94772172E-07
  -1.10499999E-02  -4.05769157E-07
  -1.09999999E-02  -4.17054537E-07
  -1.09500000E-02  -4.28628113E-07
  -1.09000001E-02  -4.40494631E-07
  -1.08500002E-02  -4.52665034E-07
  -1.08000003E-02  -4.65154699E-07
  -1.07500004E-02  -4.77979654E-07
  -1.07000005E-02  -4.91152889E-07
  -1.06499996E-02  -5.04681566E-07
  -1.05999997E-02  -5.18567390E-07
  -1.05499998E-02  -5.32809054E-07
  -1.04999999E-02  -5.47406557E-07
  -1.04499999E-02  -5.62364846E-07
  -1.04000000E-02  -5.77695062E-07
  -1.03500001E-02  -5.93413688E-07
  -1.03000002E-02  -6.09538688E-07
  -1.02500003E-02  -6.26085352E-07
  -1.02000004E-02  -6.43063458E-07
  -1.01500005E-02  -6.60476758E-07
  -1.00999996E-02  -6.78325648E-07
  -1.00499997E-02  -6.96610755E-07
  -9.99999978E-03  -7.15337819E-07
  -9.94999986E-03  -7.34518778E-07
  -9.89999995E-03  -7.54171651E-07
  -9.85000003E-03  -7.74316732E-07
  -9.80000012E-03  -7.94972266E-07
  -9.75000020E-03  -8.16150987E-07
  -9.70000029E-03  -8.37859318E-07
  -9.65000037E-03  -8.60099419E-07
  -9.60000046E-03  -8.82873223E-07
  -9.54999961E-03  -9.06186926E-07
  -9.49999969E-03  -9.30053716E-07
  -9.44999978E-03  -9.54492862E-07
  -9.39999986E-03  -9.79526703E-07
  -9.34999995E-03  -1.00517627E-06
  -9.30000003E-03  -1.03145726E-06
  -9.25000012E-03  -1.05837876E-06
  -9.20000020E-03  -1.08594509E-06
  -9.15000029E-03  -1.11415989E-06
  -9.10000037E-03  -1.14303043E-06
  -9.05000046E-03  -1.17257116E-06
  -8.99999961E-03  -1.20280322E-06
  -8.94999970E-03  -1.23375150E-06
  -8.89999978E-03  -1.26544057E-06
  -8.84999987E-03  -1.29788953E-06
  -8.79999995E-03  -1.33111132E-06
  -8.75000004E-03  -1.36511312E-06
  -8.70000012E-03  -1.39990073E-06
  -8.65000021E-03  -1.43548345E-06
  -8.60000029E-03  -1.47187689E-06
  -8.55000038E-03  -1.50910421E-06
  -8.50000046E-03  -1.54719316E-06
  -8.44999962E-03  -1.58617092E-06
  -8.39999970E-03  -1.62606057E-06
  -8.34999979E-03  -1.66687801E-06
  -8.29999987E-03  -1.70863325E-06
  -8.24999996E-03  -1.75133425E-06
  -8.20000004E-03  -1.79499182E-06
  -8.15000013E-03  -1.83962334E-06
  -8.10000021E-03  -1.88525405E-06
  -8.05000030E-03  -1.93191386E-06
  -8.00000038E-03  -1.97963345E-06
  -7.95000046E-03  -2.02844012E-06
  -7.89999962E-03  -2.07835319E-06
  -7.84999970E-03  -2.12938676E-06
  -7.79999979E-03  -2.18155128E-06
  -7.74999987E-03  -2.23486063E-06
  -7.69999996E-03  -2.28933368E-06
  -7.65000004E-03  -2.34499839E-06
  -7.60000013E-03  -2.40188820E-06
  -7.55000021E-03  -2.46003742E-06
  -7.49999983E-03  -2.51947677E-06
  -7.44999992E-03  -2.58023078E-06
  -7.40000000E-03  -2.64231630E-06
  -7.35000009E-03  -2.70574719E-06
  -7.30000017E-03  -2.77053960E-06
  -7.24999979E-03  -2.83671534E-06
  -7.19999988E-03  -2.90430444E-06
  -7.14999996E-03  -2.97334373E-06
  -7.10000005E-03  -3.04387117E-06
  -7.05000013E-03  -3.11592134E-06
  -7.00000022E-03  -3.18952266E-06
  -6.94999984E-03  -3.26469649E-06
  -6.89999992E-03  -3.34146011E-06
  -6.85000001E-03  -3.41983173E-06
  -6.80000009E-03  -3.49983679E-06
  -6.75000018E-03  -3.58150805E-06
  -6.69999979E-03  -3.66488507E-06
  -6.64999988E-03  -3.75001014E-06
  -6.59999996E-03  -3.83692304E-06
  -6.55000005E-03  -3.92565653E-06
  -6.50000013E-03  -4.01623720E-06
  -6.45000022E-03  -4.10868597E-06
  -6.39999984E-03  -4.20302467E-06
  -6.34999992E-03  -4.29928150E-06
  -6.30000001E-03  -4.39749283E-06
  -6.25000009E-03  -4.49770278E-06
  -6.20000018E-03  -4.59995726E-06
  -6.14999980E-03  -4.70430041E-06
  -6.09999988E-03  -4.81077177E-06
  -6.04999997E-03  -4.91940136E-06
  -6.00000005E-03  -5.03021511E-06
  -5.95000014E-03  -5.14323710E-06
  -5.90000022E-03  -5.25849919E-06
  -5.84999984E-03  -5.37604001E-06
  -5.79999993E-03  -5.49590777E-06
  -5.75000001E-03  -5.61815386E-06
  -5.70000010E-03  -5.74282694E-06
  -5.65000018E-03  -5.86997112E-06
  -5.59999980E-03  -5.99962141E-06
  -5.54999989E-03  -6.13180691E-06
  -5.49999997E-03  -6.26655674E-06
  -5.45000006E-03  -6.40390590E-06
  -5.40000014E-03  -6.54389714E-06
  -5.35000023E-03  -6.68658095E-06
  -5.29999984E-03  -6.83201461E-06
  -5.24999993E-03  -6.98025224E-06
  -5.20000001E-03  -7.13134295E-06
  -5.15000010E-03  -7.28532723E-06
  -5.10000018E-03  -7.44224008E-06
  -5.04999980E-03  -7.60211378E-06
  -4.99999989E-03  -7.76498655E-06
  -4.94999997E-03  -7.93090294E-06
  -4.90000006E-03  -8.09991980E-06
  -4.85000014E-03  -8.27209533E-06
  -4.80000023E-03  -8.44749138E-06
  -4.74999985E-03  -8.62616162E-06
  -4.69999993E-03  -8.80814969E-06
  -4.65000002E-03  -8.99349379E-06
  -4.60000010E-03  -9.18223031E-06
  -4.55000019E-03  -9.37440018E-06
  -4.49999981E-03  -9.57005250E-06
  -4.44999989E-03  -9.76924366E-06
  -4.39999998E-03  -9.97204006E-06
  -4.35000006E-03  -1.01785045E-05
  -4.30000015E-03  -1.03886960E-05
  -4.25000023E-03  -1.06026655E-05
  -4.19999985E-03  -1.08204549E-05
  -4.14999994E-03  -1.10421024E-05
  -4.10000002E-03  -1.12676553E-05
  -4.05000011E-03  -1.14971617E-05
  -4.00000019E-03  -1.17306836E-05
  -3.94999981E-03  -1.19682873E-05
  -3.89999989E-03  -1.22100428E-05
  -3.84999998E-03  -1.24560138E-05
  -3.80000006E-03  -1.27062522E-05
  -3.74999992E-03  -1.29608043E-05
  -3.70000000E-03  -1.32197138E-05
  -3.65000009E-03  -1.34830234E-05
  -3.59999994E-03  -1.37507850E-05
  -3.55000002E-03  -1.40230613E-05
  -3.50000011E-03  -1.42999215E-05
  -3.44999996E-03  -1.45814374E-05
  -3.40000005E-03  -1.48676763E-05
  -3.34999990E-03  -1.51586983E-05
  -3.29999998E-03  -1.54545487E-05
  -3.25000007E-03  -1.57552695E-05
  -3.19999992E-03  -1.60609070E-05
  -3.15000000E-03  -1.63715122E-05
  -3.10000009E-03  -1.66871505E-05
  -3.04999994E-03  -1.70078929E-05
  -3.00000003E-03  -1.73338121E-05
  -2.95000011E-03  -1.76649828E-05
  -2.89999996E-03  -1.80014631E-05
  -2.85000005E-03  -1.83433003E-05
  -2.79999990E-03  -1.86905381E-05
  -2.74999999E-03  -1.90432202E-05
  -2.70000007E-03  -1.94013974E-05
  -2.64999992E-03  -1.97651352E-05
  -2.60000001E-03  -2.01345047E-05
  -2.55000009E-03  -2.05095785E-05
  -2.49999994E-03  -2.08904294E-05
  -2.45000003E-03  -2.12771192E-05
  -2.40000011E-03  -2.16696990E-05
  -2.34999997E-03  -2.20682086E-05
  -2.30000005E-03  -2.24726919E-05
  -2.24999990E-03  -2.28831941E-05
  -2.19999999E-03  -2.32997754E-05
  -2.15000007E-03  -2.37225049E-05
  -2.09999993E-03  -2.41514608E-05
  -2.05000001E-03  -2.45867159E-05
  -2.00000009E-03  -2.50283301E-05
  -1.94999995E-03  -2.54763527E-05
  -1.90000003E-03  -2.59308217E-05
  -1.85000000E-03  -2.63917773E-05
  -1.79999997E-03  -2.68592612E-05
  -1.75000005E-03  -2.73333280E-05
  -1.70000002E-03  -2.78140506E-05
  -1.64999999E-03  -2.83014997E-05
  -1.59999996E-03  -2.87957464E-05
  -1.55000004E-03  -2.92968489E-05
  -1.50000001E-03  -2.98048508E-05
  -1.44999998E-03  -3.03197903E-05
  -1.39999995E-03  -3.08417002E-05
  -1.35000004E-03  -3.13706150E-05
  -1.30000000E-03  -3.19065912E-05
  -1.24999997E-03  -3.24496868E-05
  -1.20000006E-03  -3.29999712E-05
  -1.15000003E-03  -3.35575060E-05
  -1.09999999E-03  -3.41223495E-05
  -1.04999996E-03  -3.46945417E-05
  -1.00000005E-03  -3.52741117E-05
  -9.50000016E-04  -3.58610851E-05
  -8.99999985E-04  -3.64554908E-05
  -8.50000011E-04  -3.70573725E-05
  -7.99999980E-04  -3.76667886E-05
  -7.50000007E-04  -3.82837970E-05
  -6.99999975E-04  -3.89084489E-05
  -6.50000002E-04  -3.95407988E-05
  -6.00000028E-04  -4.01808793E-05
  -5.49999997E-04  -4.08287160E-05
  -5.00000024E-04  -4.14843125E-05
  -4.49999992E-04  -4.21477052E-05
  -3.99999990E-04  -4.28189160E-05
  -3.49999988E-04  -4.34979847E-05
  -3.00000014E-04  -4.41849697E-05
  -2.50000012E-04  -4.48799146E-05
  -1.99999995E-04  -4.55828595E-05
  -1.50000007E-04  -4.62938369E-05
  -9.99999975E-05  -4.70128543E-05
  -4.99999987E-05  -4.77399153E-05
   0.00000000      -4.84750162E-05
   4.99999987E-05  -4.92181753E-05
   9.99999975E-05  -4.99694106E-05
   1.50000007E-04  -5.07287659E-05
   1.99999995E-04  -5.14962776E-05
   2.50000012E-04  -5.22719783E-05
   3.00000014E-04  -5.30558755E-05
   3.49999988E-04  -5.38479690E-05
   3.99999990E-04  -5.46482443E-05
   4.49999992E-04  -5.54566905E-05
   5.00000024E-04  -5.62733003E-05
   5.49999997E-04  -5.70980847E-05
   6.00000028E-04  -5.79310617E-05
   6.50000002E-04  -5.87722498E-05
   6.99999975E-04  -5.96216632E-05
   7.50000007E-04  -6.04793022E-05
   7.99999980E-04  -6.13451484E-05
   8.50000011E-04  -6.22191728E-05
   8.99999985E-04  -6.31013318E-05
   9.50000016E-04  -6.39916034E-05
   1.00000005E-03  -6.48899586E-05
   1.04999996E-03  -6.57964047E-05
   1.09999999E-03  -6.67109343E-05
   1.15000003E-03  -6.76335403E-05
   1.20000006E-03  -6.85642008E-05
   1.24999997E-03  -6.95028866E-05
   1.30000000E-03  -7.04495324E-05
   1.35000004E-03  -7.14040871E-05
   1.39999995E-03  -7.23664780E-05
   1.44999998E-03  -7.33366833E-05
   1.50000001E-03  -7.43146447E-05
   1.55000004E-03  -7.53003551E-05
   1.59999996E-03  -7.62937780E-05
   1.64999999E-03  -7.72948842E-05
   1.70000002E-03  -7.83035866E-05
   1.75000005E-03  -7.93198124E-05
   1.79999997E-03  -8.03434814E-05
   1.85000000E-03  -8.13744773E-05
   1.90000003E-03  -8.24127419E-05
   1.94999995E-03  -8.34581951E-05
   2.00000009E-03  -8.45108152E-05
   2.05000001E-03  -8.55705221E-05
   2.09999993E-03  -8.66372429E-05
   2.15000007E-03  -8.77108905E-05
   2.19999999E-03  -8.87913411E-05
   2.24999990E-03  -8.98784638E-05
   2.30000005E-03  -9.09721421E-05
   2.34999997E-03  -9.20722596E-05
   2.40000011E-03  -9.31787290E-05
   2.45000003E-03  -9.42914485E-05
   2.49999994E-03  -9.54103234E-05
   2.55000009E-03  -9.65352592E-05
   2.60000001E-03  -9.76661104E-05
   2.64999992E-03  -9.88027314E-05
   2.70000007E-03  -9.99449476E-05
   2.74999999E-03  -1.01092613E-04
   2.79999990E-03  -1.02245569E-04