  -3.99999991E-02   0.00000000    
  -3.99499983E-02   0.00000000    
  -3.99000011E-02   0.00000000    
  -3.98500003E-02   0.00000000    
  -3.97999994E-02  -1.83654956E-19
  -3.97499986E-02  -1.62239917E-18
  -3.97000015E-02  -7.25554609E-18
  -3.96500006E-02  -2.16004999E-17
  -3.95999998E-02  -4.68820659E-17
  -3.95499989E-02  -7.47824875E-17
  -3.95000018E-02  -7.72821479E-17
  -3.94500010E-02  -4.90546269E-18
  -3.94000001E-02   1.98287978E-16
  -3.93499993E-02   5.60316318E-16
  -3.92999984E-02   1.03889459E-15
  -3.92500013E-02   1.49701787E-15
  -3.92000005E-02   1.72600677E-15
  -3.91499996E-02   1.52862638E-15
  -3.90999988E-02   8.39114407E-16
  -3.90500017E-02  -1.80590005E-16
  -3.90000008E-02  -1.14165070E-15
  -3.89500000E-02  -1.56699825E-15
  -3.88999991E-02  -1.13616246E-15
  -3.88499983E-02   7.34050002E-17
  -3.88000011E-02   1.49253505E-15
  -3.87500003E-02   2.21452063E-15
  -3.86999995E-02   1.38188820E-15
  -3.86499986E-02  -1.34783059E-15
  -3.86000015E-02  -5.49785750E-15
  -3.85500006E-02  -9.84388318E-15
  -3.84999998E-02  -1.29225777E-14
  -3.84499989E-02  -1.38087716E-14
  -3.84000018E-02  -1.27977827E-14
  -3.83500010E-02  -1.15884314E-14
  -3.83000001E-02  -1.27405097E-14
  -3.82499993E-02  -1.85300739E-14
  -3.81999984E-02  -2.96852759E-14
  -3.81500013E-02  -4.46515891E-14
  -3.81000005E-02  -5.98778229E-14
  -3.80499996E-02  -7.11641168E-14
  -3.79999988E-02  -7.55666010E-14
  -3.79500017E-02  -7.29836384E-14
  -3.79000008E-02  -6.65721818E-14
  -3.78500000E-02  -6.16039541E-14
  -3.77999991E-02  -6.31018472E-14
  -3.77499983E-02  -7.32653481E-14
  -3.77000012E-02  -8.99462593E-14
  -3.76500003E-02  -1.07075102E-13
  -3.75999995E-02  -1.17061729E-13
  -3.75499986E-02  -1.14194773E-13
  -3.75000015E-02  -9.74572595E-14
  -3.74500006E-02  -7.13210957E-14
  -3.73999998E-02  -4.39704527E-14
  -3.73499990E-02  -2.36275114E-14
  -3.73000018E-02  -1.46149589E-14
  -3.72500010E-02  -1.49980228E-14
  -3.72000001E-02  -1.69755855E-14
  -3.71499993E-02  -9.92816127E-15
  -3.70999984E-02   1.52241230E-14
  -3.70500013E-02   6.23277336E-14
  -3.70000005E-02   1.28606774E-13
  -3.69499996E-02   2.06071745E-13
  -3.68999988E-02   2.84854524E-13
  -3.68500017E-02   3.56757430E-13
  -3.68000008E-02   4.17436756E-13
  -3.67500000E-02   4.66618280E-13
  -3.66999991E-02   5.06920460E-13
  -3.66499983E-02   5.42477142E-13
  -3.66000012E-02   5.78243833E-13
  -3.65500003E-02   6.19895248E-13
  -3.64999995E-02   6.73326141E-13
  -3.64499986E-02   7.42699467E-13
  -3.64000015E-02   8.27004806E-13
  -3.63500006E-02   9.16705188E-13
  -3.62999998E-02   9.93190122E-13
  -3.62499990E-02   1.03331937E-12
  -3.62000018E-02   1.01898145E-12
  -3.61500010E-02   9.48159953E-13
  -3.61000001E-02   8.41420737E-13
  -3.60499993E-02   7.38080712E-13
  -3.59999985E-02   6.80431297E-13
  -3.59500013E-02   6.90974459E-13
  -3.59000005E-02   7.53400272E-13
  -3.58499996E-02   8.09281190E-13
  -3.57999988E-02   7.77125597E-13
  -3.57500017E-02   5.89765216E-13
  -3.57000008E-02   2.34694046E-13
  -3.56500000E-02  -2.23888806E-13
  -3.55999991E-02  -6.58267494E-13
  -3.55499983E-02  -9.27829211E-13
  -3.55000012E-02  -9.49636637E-13
  -3.54500003E-02  -7.56342688E-13
  -3.53999995E-02  -5.07611856E-13
  -3.53499986E-02  -4.37852879E-13
  -3.53000015E-02  -7.52724760E-13
  -3.52500007E-02  -1.51658775E-12
  -3.51999998E-02  -2.58703801E-12
  -3.51499990E-02  -3.64023308E-12
  -3.51000018E-02  -4.29298090E-12
  -3.50500010E-02  -4.27916990E-12
  -3.50000001E-02  -3.60203642E-12
  -3.49499993E-02  -2.58090034E-12
  -3.48999985E-02  -1.74920506E-12
  -3.48500013E-02  -1.62792609E-12
  -3.48000005E-02  -2.46568239E-12
  -3.47499996E-02  -4.06985253E-12
  -3.46999988E-02  -5.82876369E-12
  -3.46500017E-02  -6.94600974E-12
  -3.46000008E-02  -6.80495721E-12
  -3.45500000E-02  -5.30278295E-12
  -3.44999991E-02  -2.98263606E-12
  -3.44499983E-02  -8.66101949E-13
  -3.44000012E-02  -2.23214374E-14
  -3.43500003E-02  -1.04697978E-12
  -3.42999995E-02  -3.69581362E-12
  -3.42499986E-02  -6.87759051E-12
  -3.42000015E-02  -9.06379572E-12
  -3.41500007E-02  -8.97415389E-12
  -3.40999998E-02  -6.23982203E-12
  -3.40499990E-02  -1.71399895E-12
  -3.40000018E-02   2.77317427E-12
  -3.39500010E-02   5.17292069E-12
  -3.39000002E-02   4.18784191E-12
  -3.38499993E-02   6.36319822E-15
  -3.37999985E-02  -5.59062258E-12
  -3.37500013E-02  -9.88754738E-12
  -3.37000005E-02  -1.04360782E-11
  -3.36499996E-02  -6.28500333E-12
  -3.35999988E-02   1.35925559E-12
  -3.35500017E-02   9.43773185E-12
  -3.35000008E-02   1.42848589E-11
  -3.34500000E-02   1.33282309E-11
  -3.33999991E-02   6.47265271E-12
  -3.33499983E-02  -3.54298882E-12
  -3.33000012E-02  -1.21153252E-11
  -3.32500003E-02  -1.47639175E-11
  -3.31999995E-02  -9.29694776E-12
  -3.31499986E-02   2.87024224E-12
  -3.31000015E-02   1.69791577E-11
  -3.30500007E-02   2.68299445E-11
  -3.29999998E-02   2.75912123E-11
  -3.29499990E-02   1.82670771E-11
  -3.29000019E-02   2.59600436E-12
  -3.28500010E-02  -1.22240777E-11
  -3.28000002E-02  -1.86089148E-11
  -3.27499993E-02  -1.21770007E-11
  -3.26999985E-02   5.81401854E-12
  -3.26500013E-02   2.84759404E-11
  -3.26000005E-02   4.59972199E-11
  -3.25499997E-02   5.00325059E-11
  -3.24999988E-02   3.78449286E-11
  -3.24500017E-02   1.41913755E-11
  -3.24000008E-02  -1.01820158E-11
  -3.23500000E-02  -2.30576409E-11
  -3.22999991E-02  -1.64205628E-11
  -3.22499983E-02   9.30613225E-12
  -3.22000012E-02   4.46280027E-11
  -3.21500003E-02   7.46015472E-11
  -3.20999995E-02   8.53968146E-11
  -3.20499986E-02   7.09550335E-11
  -3.20000015E-02   3.65794305E-11
  -3.19500007E-02  -2.53936130E-12
  -3.18999998E-02  -2.76358103E-11
  -3.18499990E-02  -2.49668081E-11
  -3.18000019E-02   7.18220882E-12
  -3.17500010E-02   5.65572658E-11
  -3.17000002E-02   1.01444610E-10
  -3.16499993E-02   1.20072507E-10
  -3.15999985E-02   1.00888062E-10
  -3.15500014E-02   4.89190494E-11
  -3.15000005E-02  -1.51358717E-11
  -3.14499997E-02  -6.32936550E-11
  -3.13999988E-02  -7.28335794E-11
  -3.13500017E-02  -3.74348434E-11
  -3.13000008E-02   2.84716938E-11
  -3.12500000E-02   9.47606993E-11
  -3.11999992E-02   1.28477368E-10
  -3.11500002E-02   1.09091181E-10
  -3.10999993E-02   3.91475949E-11
  -3.10500003E-02  -5.50715272E-11
  -3.09999995E-02  -1.33993927E-10
  -3.09500005E-02  -1.62280994E-10
  -3.08999997E-02  -1.25748231E-10
  -3.08500007E-02  -3.96782884E-11
  -3.07999998E-02   5.60547268E-11
  -3.07500008E-02   1.13783975E-10
  -3.07000000E-02   9.98037486E-11
  -3.06499992E-02   1.12481751E-11
  -3.06000002E-02  -1.20194119E-10
  -3.05499993E-02  -2.40465370E-10
  -3.05000003E-02  -2.96704911E-10
  -3.04499995E-02  -2.62003808E-10
  -3.04000005E-02  -1.49847509E-10
  -3.03499997E-02  -1.07321704E-11
  -3.03000007E-02   8.87568768E-11
  -3.02499998E-02   9.58877838E-11
  -3.02000009E-02  -2.60311130E-12
  -3.01500000E-02  -1.71499079E-10
  -3.00999992E-02  -3.40075273E-10
  -3.00500002E-02  -4.32543140E-10
  -2.99999993E-02  -4.02979261E-10
  -2.99500003E-02  -2.58757682E-10
  -2.98999995E-02  -6.07699863E-11
  -2.98500005E-02   1.01256836E-10
  -2.97999997E-02   1.48540596E-10
  -2.97500007E-02   5.06219511E-11
  -2.96999998E-02  -1.57212077E-10
  -2.96500009E-02  -3.85889237E-10
  -2.96000000E-02  -5.30278210E-10
  -2.95499992E-02  -5.16842069E-10
  -2.95000002E-02  -3.39737238E-10
  -2.94499993E-02  -6.78594264E-11
  -2.94000003E-02   1.82292015E-10
  -2.93499995E-02   2.97517205E-10
  -2.93000005E-02   2.20488378E-10
  -2.92499997E-02  -2.02645123E-11
  -2.92000007E-02  -3.18247595E-10
  -2.91499998E-02  -5.33457445E-10
  -2.91000009E-02  -5.55057722E-10
  -2.90500000E-02  -3.54383356E-10
  -2.89999992E-02  -3.16753047E-12
  -2.89500002E-02   3.53530261E-10
  -2.88999993E-02   5.59891633E-10
  -2.88500004E-02   5.20602617E-10
  -2.87999995E-02   2.48410958E-10
  -2.87500005E-02  -1.35370687E-10
  -2.86999997E-02  -4.50393944E-10
  -2.86500007E-02  -5.36886924E-10
  -2.85999998E-02  -3.30370009E-10
  -2.85500009E-02   1.03244392E-10
  -2.85000000E-02   5.90591798E-10
  -2.84499992E-02   9.24542110E-10
  -2.84000002E-02   9.57545598E-10
  -2.83499993E-02   6.72761957E-10
  -2.83000004E-02   1.99005978E-10
  -2.82499995E-02  -2.40466314E-10
  -2.82000005E-02  -4.25410041E-10
  -2.81499997E-02  -2.40003684E-10
  -2.81000007E-02   2.68170292E-10
  -2.80499998E-02   9.00965691E-10
  -2.80000009E-02   1.39229761E-09
  -2.79500000E-02   1.52635438E-09
  -2.78999992E-02   1.23904786E-09
  -2.78500002E-02   6.55287213E-10
  -2.77999993E-02   4.16183928E-11
  -2.77500004E-02  -3.08478465E-10
  -2.76999995E-02  -2.07578538E-10
  -2.76500005E-02   3.34371059E-10
  -2.75999997E-02   1.10434206E-09
  -2.75500007E-02   1.77308901E-09
  -2.74999999E-02   2.03952544E-09
  -2.74500009E-02   1.76947024E-09
  -2.74000000E-02   1.06504217E-09
  -2.73499992E-02   2.29533559E-10
  -2.73000002E-02  -3.61356806E-10
  -2.72499993E-02  -4.27708979E-10
  -2.72000004E-02   8.19035256E-11
  -2.71499995E-02   9.55501012E-10
  -2.71000005E-02   1.80128057E-09
  -2.70499997E-02   2.21728680E-09
  -2.70000007E-02   1.97391548E-09
  -2.69499999E-02   1.12663734E-09
  -2.69000009E-02   4.23430475E-12
  -2.68500000E-02  -9.27990407E-10
  -2.67999992E-02  -1.27359490E-09
  -2.67500002E-02  -8.88635110E-10
  -2.66999993E-02   4.10887088E-11
  -2.66500004E-02   1.06929121E-09
  -2.65999995E-02   1.68021697E-09
  -2.65500005E-02   1.52009916E-09
  -2.64999997E-02   5.65606340E-10
  -2.64500007E-02  -8.50229331E-10
  -2.63999999E-02  -2.17287921E-09
  -2.63500009E-02  -2.86796165E-09
  -2.63000000E-02  -2.66464495E-09
  -2.62499992E-02  -1.69027492E-09
  -2.62000002E-02  -4.30170594E-10
  -2.61499994E-02   4.76977069E-10
  -2.61000004E-02   5.22525800E-10
  -2.60499995E-02  -4.35042280E-10
  -2.60000005E-02  -2.08903872E-09
  -2.59499997E-02  -3.80314136E-09
  -2.59000007E-02  -4.88459229E-09
  -2.58499999E-02  -4.89487517E-09
  -2.58000009E-02  -3.85864318E-09
  -2.57500000E-02  -2.27178343E-09
  -2.56999992E-02  -8.96317687E-10
  -2.56500002E-02  -4.25922991E-10
  -2.55999994E-02  -1.16810095E-09
  -2.55500004E-02  -2.88768809E-09
  -2.54999995E-02  -4.88945551E-09
  -2.54500005E-02  -6.31252917E-09
  -2.53999997E-02  -6.51226850E-09
  -2.53500007E-02  -5.36041522E-09
  -2.52999999E-02  -3.32421668E-09
  -2.52500009E-02  -1.27948785E-09
  -2.52000000E-02  -1.31094510E-10
  -2.51499992E-02  -4.04575595E-10
  -2.51000002E-02  -1.99243377E-09
  -2.50499994E-02  -4.17623580E-09
  -2.50000004E-02  -5.92588068E-09
  -2.49499995E-02  -6.35208997E-09
  -2.49000005E-02  -5.11381115E-09
  -2.48499997E-02  -2.59453103E-09
  -2.48000007E-02   2.41572706E-10
  -2.47499999E-02   2.26159358E-09
  -2.47000009E-02   2.66861844E-09
  -2.46500000E-02   1.37486156E-09
  -2.45999992E-02  -9.30681199E-10
  -2.45500002E-02  -3.06287262E-09
  -2.44999994E-02  -3.85650889E-09
  -2.44500004E-02  -2.69410494E-09
  -2.43999995E-02   1.92541524E-10
  -2.43500005E-02   3.79217724E-09
  -2.42999997E-02   6.73848932E-09
  -2.42500007E-02   7.91144306E-09
  -2.41999999E-02   6.95103974E-09
  -2.41500009E-02   4.44814630E-09
  -2.41000000E-02   1.71363690E-09
  -2.40499992E-02   2.13617873E-10
  -2.40000002E-02   9.12659615E-10
  -2.39499994E-02   3.81785847E-09
  -2.39000004E-02   7.93722243E-09
  -2.38499995E-02   1.16870922E-08
  -2.38000005E-02   1.35819995E-08
  -2.37499997E-02   1.29065194E-08
  -2.37000007E-02   1.00653272E-08
  -2.36499999E-02   6.44130527E-09
  -2.36000009E-02   3.80708753E-09
  -2.35500000E-02   3.53862273E-09
  -2.34999992E-02   5.97804295E-09
  -2.34500002E-02   1.02388356E-08
  -2.33999994E-02   1.45577745E-08
  -2.33500004E-02   1.70553225E-08
  -2.32999995E-02   1.65767808E-08
  -2.32500006E-02   1.32379094E-08
  -2.31999997E-02   8.41805647E-09
  -2.31500007E-02   4.18361390E-09
  -2.30999999E-02   2.38087861E-09
  -2.30500009E-02   3.79527698E-09
  -2.30000000E-02   7.75848896E-09
  -2.29499992E-02   1.23968746E-08
  -2.29000002E-02   1.54323931E-08
  -2.28499994E-02   1.51948001E-08
  -2.28000004E-02   1.13963772E-08
  -2.27499995E-02   5.31131716E-09
  -2.27000006E-02  -7.42328532E-10
  -2.26499997E-02  -4.40945502E-09
  -2.26000007E-02  -4.35687175E-09
  -2.25499999E-02  -9.08851661E-10
  -2.25000009E-02   4.04219147E-09
  -2.24500000E-02   7.83511211E-09
  -2.23999992E-02   8.21402857E-09
  -2.23500002E-02   4.36078018E-09
  -2.22999994E-02  -2.68444511E-09
  -2.22500004E-02  -1.04250519E-08
  -2.21999995E-02  -1.59797278E-08
  -2.21500006E-02  -1.73638313E-08
  -2.20999997E-02  -1.44101264E-08
  -2.20500007E-02  -8.90165719E-09
  -2.19999999E-02  -3.83019749E-09
  -2.19500009E-02  -2.08503304E-09
  -2.19000001E-02  -5.14387466E-09
  -2.18499992E-02  -1.23559820E-08
  -2.18000002E-02  -2.11603250E-08
  -2.17499994E-02  -2.81715113E-08
  -2.17000004E-02  -3.06728367E-08
  -2.16499995E-02  -2.78570944E-08
  -2.16000006E-02  -2.12477786E-08
  -2.15499997E-02  -1.40842404E-08
  -2.15000007E-02  -9.91420457E-09
  -2.14499999E-02  -1.10022578E-08
  -2.14000009E-02  -1.72654335E-08
  -2.13500001E-02  -2.62323301E-08
  -2.12999992E-02  -3.40767699E-08
  -2.12500002E-02  -3.72943312E-08
  -2.11999994E-02  -3.42868027E-08
  -2.11500004E-02  -2.61378439E-08
  -2.10999995E-02  -1.62052860E-08
  -2.10500006E-02  -8.67701644E-09
  -2.09999997E-02  -6.70901024E-09
  -2.09500007E-02  -1.09714602E-08
  -2.08999999E-02  -1.92704572E-08
  -2.08500009E-02  -2.74484808E-08
  -2.08000001E-02  -3.11968940E-08
  -2.07499992E-02  -2.79916303E-08
  -2.07000002E-02  -1.82839823E-08
  -2.06499994E-02  -5.38796652E-09
  -2.06000004E-02   5.92379124E-09
  -2.05499995E-02   1.15214780E-08
  -2.05000006E-02   9.79107639E-09
  -2.04499997E-02   2.42882425E-09
  -2.04000007E-02  -6.23190299E-09
  -2.03499999E-02  -1.11006315E-08
  -2.03000009E-02  -8.60501537E-09
  -2.02500001E-02   1.65183511E-09
  -2.01999992E-02   1.66156511E-08
  -2.01500002E-02   3.10501385E-08
  -2.00999994E-02   3.98231883E-08
  -2.00500004E-02   4.02095246E-08
  -1.99999996E-02   3.31738299E-08
  -1.99500006E-02   2.30286350E-08
  -1.98999997E-02   1.55762390E-08
  -1.98500007E-02   1.55294924E-08
  -1.97999999E-02   2.43524774E-08
  -1.97500009E-02   3.95041546E-08
  -1.97000001E-02   5.54630617E-08
  -1.96499992E-02   6.61196466E-08
  -1.96000002E-02   6.74962806E-08
  -1.95499994E-02   5.95800529E-08
  -1.95000004E-02   4.64206593E-08
  -1.94499996E-02   3.44042768E-08
  -1.94000006E-02   2.94327975E-08
  -1.93499997E-02   3.42490232E-08
  -1.93000007E-02   4.71146855E-08
  -1.92499999E-02   6.24702778E-08
  -1.92000009E-02   7.33301349E-08
  -1.91500001E-02   7.43792796E-08
  -1.90999992E-02   6.43969784E-08
  -1.90500002E-02   4.69007198E-08
  -1.89999994E-02   2.86770874E-08
  -1.89500004E-02   1.68083911E-08
  -1.88999996E-02   1.54951358E-08
  -1.88500006E-02   2.40979308E-08
  -1.87999997E-02   3.73082720E-08
  -1.87500007E-02   4.74224855E-08
  -1.86999999E-02   4.77468376E-08
  -1.86500009E-02   3.56302259E-08
  -1.86000001E-02   1.37530618E-08
  -1.85499992E-02  -1.09474474E-08
  -1.85000002E-02  -3.02873424E-08
  -1.84499994E-02  -3.84733276E-08
  -1.84000004E-02  -3.47475968E-08
  -1.83499996E-02  -2.38294522E-08
  -1.83000006E-02  -1.39055780E-08
  -1.82499997E-02  -1.30168445E-08
  -1.82000007E-02  -2.54289212E-08
  -1.81499999E-02  -4.96161014E-08
  -1.81000009E-02  -7.87995589E-08
  -1.80500001E-02  -1.03854020E-07
  -1.79999992E-02  -1.17329009E-07
  -1.79500002E-02  -1.16803470E-07
  -1.78999994E-02  -1.06053569E-07
  -1.78500004E-02  -9.34626883E-08
  -1.77999996E-02  -8.83297204E-08
  -1.77500006E-02  -9.66887868E-08
  -1.76999997E-02  -1.18505781E-07
  -1.76500008E-02  -1.47539083E-07
  -1.75999999E-02  -1.73981434E-07
  -1.75500009E-02  -1.88753958E-07
  -1.75000001E-02  -1.87558797E-07
  -1.74499992E-02  -1.72868070E-07
  -1.74000002E-02  -1.52914836E-07
  -1.73499994E-02  -1.38080125E-07
  -1.73000004E-02  -1.36245617E-07
  -1.72499996E-02  -1.49176600E-07
  -1.72000006E-02  -1.71577568E-07
  -1.71499997E-02  -1.93295847E-07
  -1.71000008E-02  -2.03745614E-07
  -1.70499999E-02  -1.96610159E-07
  -1.70000009E-02  -1.72720050E-07
  -1.69500001E-02  -1.39781193E-07
  -1.68999992E-02  -1.09017328E-07
  -1.68500002E-02  -9.01757957E-08
  -1.67999994E-02  -8.71037429E-08
  -1.67500004E-02  -9.58903783E-08
  -1.66999996E-02  -1.06454003E-07
  -1.66500006E-02  -1.06923508E-07
  -1.65999997E-02  -8.89019489E-08
  -1.65500008E-02  -5.12675662E-08
  -1.64999999E-02  -7.83521914E-10
  -1.64500009E-02   5.08122611E-08
  -1.64000001E-02   9.19946572E-08
  -1.63499992E-02   1.16632023E-07
  -1.63000003E-02   1.26834806E-07
  -1.62499994E-02   1.32159713E-07
  -1.62000004E-02   1.45464256E-07
  -1.61499996E-02   1.77208918E-07
  -1.61000006E-02   2.30737882E-07
  -1.60499997E-02   3.00665960E-07
  -1.60000008E-02   3.75144992E-07
  -1.59499999E-02   4.41059484E-07
  -1.59000009E-02   4.89868569E-07
  -1.58500001E-02   5.21490563E-07
  -1.57999992E-02   5.44460988E-07
  -1.57500003E-02   5.72232580E-07
  -1.56999994E-02   6.17210674E-07
  -1.56500004E-02   6.85166981E-07
  -1.55999996E-02   7.72536453E-07
  -1.55499997E-02   8.67847120E-07
  -1.54999997E-02   9.56710778E-07
  -1.54499998E-02   1.02819149E-06
  -1.53999999E-02   1.07972562E-06
  -1.53500000E-02   1.11836107E-06
  -1.53000001E-02   1.15771536E-06
  -1.52500002E-02   1.21194739E-06
  -1.52000003E-02   1.28939973E-06
  -1.51500003E-02   1.38875248E-06
  -1.51000004E-02   1.49944310E-06
  -1.50499996E-02   1.60622869E-06
  -1.49999997E-02   1.69590817E-06
  -1.49499997E-02   1.76322089E-06
  -1.48999998E-02   1.81327653E-06
  -1.48499999E-02   1.85937768E-06
  -1.48000000E-02   1.91714639E-06
  -1.47500001E-02   1.99753504E-06
  -1.47000002E-02   2.10183771E-06
  -1.46500003E-02   2.22095196E-06
  -1.46000003E-02   2.33928859E-06
  -1.45500004E-02   2.44163857E-06
  -1.44999996E-02   2.51995402E-06
  -1.44499997E-02   2.57702141E-06
  -1.43999998E-02   2.62533308E-06
  -1.43499998E-02   2.68160670E-06
  -1.42999999E-02   2.75934781E-06
  -1.42500000E-02   2.86276236E-06
  -1.42000001E-02   2.98475493E-06
  -1.41500002E-02   3.10995688E-06
  -1.41000003E-02   3.22150390E-06
  -1.40500003E-02   3.30855983E-06
  -1.40000004E-02   3.37123629E-06
  -1.39499996E-02   3.42067619E-06
  -1.38999997E-02   3.47421201E-06
  -1.38499998E-02   3.54770168E-06
  -1.37999998E-02   3.64844254E-06
  -1.37499999E-02   3.77183210E-06
  -1.37000000E-02   3.90331888E-06
  -1.36500001E-02   4.02483329E-06
  -1.36000002E-02   4.12286772E-06
  -1.35500003E-02   4.19460866E-06
  -1.35000004E-02   4.24933978E-06
  -1.34500004E-02   4.30447517E-06
  -1.33999996E-02   4.37790868E-06
  -1.33499997E-02   4.48005994E-06
  -1.32999998E-02   4.60921774E-06
  -1.32499998E-02   4.75223169E-06
  -1.31999999E-02   4.89033982E-06
  -1.31500000E-02   5.00758733E-06
  -1.31000001E-02   5.09805159E-06
  -1.30500002E-02   5.16866430E-06
  -1.30000003E-02   5.23632161E-06
  -1.29500004E-02   5.32049717E-06
  -1.29000004E-02   5.43462420E-06
  -1.28499996E-02   5.58012789E-06
  -1.27999997E-02   5.74577552E-06
  -1.27499998E-02   5.91266553E-06
  -1.26999998E-02   6.06269941E-06
  -1.26499999E-02   6.18677632E-06
  -1.26000000E-02   6.28905173E-06
  -1.25500001E-02   6.38529673E-06
  -1.25000002E-02   6.49603135E-06
  -1.24500003E-02   6.63749552E-06
  -1.24000004E-02   6.81446181E-06
  -1.23500004E-02   7.01810131E-06
  -1.22999996E-02   7.22991399E-06
  -1.22499997E-02   7.43003920E-06
  -1.21999998E-02   7.60623152E-06
  -1.21499998E-02   7.75949138E-06
  -1.20999999E-02   7.90382455E-06
  -1.20500000E-02   8.06017124E-06
  -1.20000001E-02   8.24719154E-06
  -1.19500002E-02   8.47298998E-06
  -1.19000003E-02   8.73152203E-06
  -1.18500004E-02   9.00530085E-06
  -1.18000004E-02   9.27322981E-06
  -1.17499996E-02   9.52012488E-06
  -1.16999997E-02   9.74363866E-06
  -1.16499998E-02   9.95552182E-06
  -1.15999999E-02   1.01765454E-05
  -1.15499999E-02   1.04273640E-05
  -1.15000000E-02   1.07193709E-05
  -1.14500001E-02   1.10496030E-05
  -1.14000002E-02   1.14020522E-05
  -1.13500003E-02   1.17548661E-05
  -1.13000004E-02   1.20901786E-05
  -1.12500004E-02   1.24021644E-05
  -1.11999996E-02   1.26998348E-05
  -1.11499997E-02   1.30031522E-05
  -1.10999998E-02   1.33342364E-05
  -1.10499999E-02   1.37076040E-05
  -1.09999999E-02   1.41236533E-05
  -1.09500000E-02   1.45685235E-05
  -1.09000001E-02   1.50203205E-05
  -1.08500002E-02   1.54589688E-05
  -1.08000003E-02   1.58753046E-05
  -1.07500004E-02   1.62752694E-05
  -1.07000005E-02   1.66774535E-05
  -1.06499996E-02   1.71049378E-05
  -1.05999997E-02   1.75750101E-05
  -1.05499998E-02   1.80914758E-05
  -1.04999999E-02   1.86430152E-05
  -1.04499999E-02   1.92082480E-05
  -1.04000000E-02   1.97653389E-05
  -1.03500001E-02   2.03018935E-05
  -1.03000002E-02   2.08206511E-05
  -1.02500003E-02   2.13383828E-05
  -1.02000004E-02   2.18785335E-05
  -1.01500005E-02   2.24608793E-05
  -1.00999996E-02   2.30927235E-05
  -1.00499997E-02   2.37656677E-05
  -9.99999978E-03   2.44594812E-05
  -9.94999986E-03   2.51512629E-05
  -9.89999995E-03   2.58257642E-05
  -9.85000003E-03   2.64824375E-05
  -9.80000012E-03   2.71358549E-05
  -9.75000020E-03   2.78093503E-05
  -9.70000029E-03   2.85247988E-05
  -9.65000037E-03   2.92928908E-05
  -9.60000046E-03   3.01085311E-05
  -9.54999961E-03   3.09532479E-05
  -9.49999969E-03   3.18035782E-05
  -9.44999978E-03   3.26418085E-05
  -9.39999986E-03   3.34640827E-05
  -9.34999995E-03   3.42822677E-05
  -9.30000003E-03   3.51189228E-05
  -9.25000012E-03   3.59974074E-05
  -9.20000020E-03   3.69315567E-05
  -9.15000029E-03   3.79196426E-05
  -9.10000037E-03   3.89453344E-05
  -9.05000046E-03   3.99853452E-05
  -8.99999961E-03   4.10199464E-05
  -8.94999970E-03   4.20419965E-05
  -8.89999978E-03   4.30605432E-05
  -8.84999987E-03   4.40970289E-05
  -8.79999995E-03   4.51759297E-05
  -8.75000004E-03   4.63140204E-05
  -8.70000012E-03   4.75132001E-05
  -8.65000021E-03   4.87598481E-05
  -8.60000029E-03   5.00311071E-05
  -8.55000038E-03   5.13055165E-05
  -8.50000046E-03   5.25730575E-05
  -8.44999962E-03   5.38398344E-05
  -8.39999970E-03   5.51255653E-05
  -8.34999979E-03   5.64553229E-05
  -8.29999987E-03   5.78485015E-05
  -8.24999996E-03   5.93102268E-05
  -8.20000004E-03   6.08295777E-05
  -8.15000013E-03   6.23847664E-05
  -8.10000021E-03   6.39531281E-05
  -8.05000030E-03   6.55218028E-05
  -8.00000038E-03   6.70936715E-05
  -7.95000046E-03   6.86864296E-05
  -7.89999962E-03   7.03249607E-05
  -7.84999970E-03   7.20305252E-05
  -7.79999979E-03   7.38117087E-05
  -7.74999987E-03   7.56607988E-05
  -7.69999996E-03   7.75575027E-05
  -7.65000004E-03   7.94786683E-05
  -7.60000013E-03   8.14089144E-05
  -7.55000021E-03   8.33479426E-05
  -7.49999983E-03   8.53108795E-05
  -7.44999992E-03   8.73221070E-05
  -7.40000000E-03   8.94047262E-05
  -7.35000009E-03   9.15702331E-05
  -7.30000017E-03   9.38138110E-05
  -7.24999979E-03   9.61170663E-05
  -7.19999988E-03   9.84568032E-05
  -7.14999996E-03   1.00815647E-04
  -7.10000005E-03   1.03190156E-04
  -7.05000013E-03   1.05592822E-04
  -7.00000022E-03   1.08046726E-04
  -6.94999984E-03   1.10575813E-04
  -6.89999992E-03   1.13194183E-04
  -6.85000001E-03   1.15900555E-04
  -6.80000009E-03   1.18679331E-04
  -6.75000018E-03   1.21506993E-04
  -6.69999979E-03   1.24363956E-04
  -6.64999988E-03   1.27243984E-04
  -6.59999996E-03   1.30157059E-04
  -6.55000005E-03   1.33124879E-04
  -6.50000013E-03   1.36171715E-04
  -6.45000022E-03   1.39314317E-04
  -6.39999984E-03   1.42554520E-04
  -6.34999992E-03   1.45878803E-04
  -6.30000001E-03   1.49264917E-04
  -6.25000009E-03   1.52692228E-04
  -6.20000018E-03   1.56151626E-04
  -6.14999980E-03   1.59650022E-04
  -6.09999988E-03   1.63207049E-04
  -6.04999997E-03   1.66847603E-04
  -6.00000005E-03   1.70590720E-04
  -5.95000014E-03   1.74441127E-04
  -5.90000022E-03   1.78388058E-04
  -5.84999984E-03   1.82410178E-04
  -5.79999993E-03   1.86485995E-04
  -5.75000001E-03   1.90604565E-04
  -5.70000010E-03   1.94769673E-04
  -5.65000018E-03   1.98999158E-04
  -5.59999980E-03   2.03317337E-04
  -5.54999989E-03   2.07744248E-04
  -5.49999997E-03   2.12287938E-04
  -5.45000006E-03   2.16940636E-04
  -5.40000014E-03   2.21682974E-04
  -5.35000023E-03   2.26493532E-04
  -5.29999984E-03   2.31358630E-04
  -5.24999993E-03   2.36278895E-04
  -5.20000001E-03   2.41269561E-04
  -5.15000010E-03   2.46354670E-04
  -5.10000018E-03   2.51556456E-04
  -5.04999980E-03   2.56886007E-04
  -4.99999989E-03   2.62338552E-04
  -4.94999997E-03   2.67896452E-04
  -4.90000006E-03   2.73537618E-04
  -4.85000014E-03   2.79246538E-04
  -4.80000023E-03   2.85022223E-04
  -4.74999985E-03   2.90877826E-04
  -4.69999993E-03   2.96836253E-04
  -4.65000002E-03   3.02919972E-04
  -4.60000010E-03   3.09141382E-04
  -4.55000019E-03   3.15498852E-04
  -4.49999981E-03   3.21978267E-04
  -4.44999989E-03   3.28559428E-04
  -4.39999998E-03   3.35225923E-04
  -4.35000006E-03   3.41972482E-04
  -4.30000015E-03   3.48807836E-04
  -4.25000023E-03   3.55752651E-04
  -4.19999985E-03   3.62830498E-04
  -4.14999994E-03   3.70057212E-04
  -4.10000002E-03   3.77435557E-04
  -4.05000011E-03   3.84954590E-04
  -4.00000019E-03   3.92593996E-04
  -3.94999981E-03   4.00335673E-04
  -3.89999989E-03   4.08171996E-04
  -3.84999998E-03   4.16109368E-04
  -3.80000006E-03   4.24166356E-04
  -3.74999992E-03   4.32364701E-04
  -3.70000000E-03   4.40722652E-04
  -3.65000009E-03   4.49246552E-04
  -3.59999994E-03   4.57929331E-04
  -3.55000002E-03   4.66753962E-04
  -3.50000011E-03   4.75700304E-04
  -3.44999996E-03   4.84757446E-04
  -3.40000005E-03   4.93928383E-04
  -3.34999990E-03   5.03229327E-04
  -3.29999998E-03   5.12681669E-04
  -3.25000007E-03   5.22303628E-04
  -3.19999992E-03   5.32104110E-04
  -3.15000000E-03   5.42078982E-04
  -3.10000009E-03   5.52213518E-04
  -3.04999994E-03   5.62488742E-04
  -3.00000003E-03   5.72892430E-04
  -2.95000011E-03   5.83424116E-04
  -2.89999996E-03   5.94096084E-04
  -2.85000005E-03   6.04928238E-04
  -2.79999990E-03   6.15940138E-04
  -2.74999999E-03   6.27142610E-04
  -2.70000007E-03   6.38534140E-04
  -2.64999992E-03   6.50103495E-04
  -2.60000001E-03   6.61832571E-04
  -2.55000009E-03   6.73706760E-04
  -2.49999994E-03   6.85723207E-04
  -2.45000003E-03   6.97889947E-04
  -2.40000011E-03   7.10224558E-04
  -2.34999997E-03   7.22745375E-04
  -2.30000005E-03   7.35465786E-04
  -2.24999990E-03   7.48389924E-04
  -2.19999999E-03   7.61508592E-04
  -2.15000007E-03   7.74805842E-04
  -2.09999993E-03   7.88268109E-04
  -2.05000001E-03   8.01886024E-04
  -2.00000009E-03   8.15661333E-04
  -1.94999995E-03   8.29606317E-04
  -1.90000003E-03   8.43739836E-04
  -1.85000000E-03   8.58077372E-04
  -1.79999997E-03   8.72625853E-04
  -1.75000005E-03   8.87383998E-04
  -1.70000002E-03   9.02336964E-04
  -1.64999999E-03   9.17470490E-04
  -1.59999996E-03   9.32774390E-04
  -1.55000004E-03   9.48245171E-04
  -1.50000001E-03   9.63889703E-04
  -1.44999998E-03   9.79722128E-04
  -1.39999995E-03   9.95758455E-04
  -1.35000004E-03   1.01201003E-03
  -1.30000000E-03   1.02847861E-03
  -1.24999997E-03   1.04515522E-03
  -1.20000006E-03   1.06202811E-03
  -1.15000003E-03   1.07908610E-03
  -1.09999999E-03   1.09631906E-03
  -1.04999996E-03   1.11372559E-03
  -1.00000005E-03   1.13131653E-03
  -9.50000016E-04   1.14910619E-03
  -8.99999985E-04   1.16710947E-03
  -8.50000011E-04   1.18533254E-03
  -7.99999980E-04   1.20377052E-03
  -7.50000007E-04   1.22241396E-03
  -6.99999975E-04   1.24124996E-03
  -6.50000002E-04   1.26026571E-03
  -6.00000028E-04   1.27945479E-03
  -5.49999997E-04   1.29882072E-03
  -5.00000024E-04   1.31837523E-03
  -4.49999992E-04   1.33813638E-03
  -3.99999990E-04   1.35811442E-03
  -3.49999988E-04   1.37830782E-03
  -3.00000014E-04   1.39871100E-03
  -2.50000012E-04   1.41931465E-03
  -1.99999995E-04   1.44010282E-03
  -1.50000007E-04   1.46106188E-03
  -9.99999975E-05   1.48218428E-03
  -4.99999987E-05   1.50347536E-03
   0.00000000       1.52495527E-03
   4.99999987E-05   1.54664041E-03
   9.99999975E-05   1.56854186E-03
   1.50000007E-04   1.59065891E-03
   1.99999995E-04   1.61297736E-03
   2.50000012E-04   1.63547916E-03
   3.00000014E-04   1.65814057E-03
   3.49999988E-04   1.68094423E-03
   3.99999990E-04   1.70388643E-03
   4.49999992E-04   1.72698672E-03
   5.00000024E-04   1.75027142E-03
   5.49999997E-04   1.77375448E-03
   6.00000028E-04   1.79744826E-03
   6.50000002E-04   1.82134786E-03
   6.99999975E-04   1.84542825E-03
   7.50000007E-04   1.86965591E-03
   7.99999980E-04   1.89399824E-03
   8.50000011E-04   1.91844732E-03
   8.99999985E-04   1.94301503E-03
   9.50000016E-04   1.96772628E-03
   1.00000005E-03   1.99261354E-03
   1.04999996E-03   2.01769429E-03
   1.09999999E-03   2.04296550E-03
   1.15000003E-03   2.06840620E-03
   1.20000006E-03   2.09397916E-03
   1.24999997E-03   2.11964617E-03
   1.30000000E-03   2.14538956E-03
   1.35000004E-03   2.17121188E-03
   1.39999995E-03   2.19712942E-03
   1.44999998E-03   2.22317106E-03
   1.50000001E-03   2.24936497E-03
   1.55000004E-03   2.27572094E-03
   1.59999996E-03   2.30222684E-03
   1.64999999E-03   2.32884730E-03
   1.70000002E-03   2.35553319E-03
   1.75000005E-03   2.38224771E-03
   1.79999997E-03   2.40897504E-03
   1.85000000E-03   2.43573100E-03
   1.90000003E-03   2.46255659E-03
   1.94999995E-03   2.48949183E-03
   2.00000009E-03   2.51656142E-03
   2.05000001E-03   2.54375907E-03
   2.09999993E-03   2.57104170E-03
   2.15000007E-03   2.59834738E-03
   2.19999999E-03   2.62562651E-03
   2.24999990E-03   2.65286374E-03
   2.30000005E-03   2.68006045E-03
   2.34999997E-03   2.70724343E-03
   2.40000011E-03   2.73446320E-03
   2.45000003E-03   2.76175677E-03
   2.49999994E-03   2.78913137E-03
   2.55000009E-03   2.81655835E-03
   2.60000001E-03   2.84398301E-03
   2.64999992E-03   2.87133479E-03
   2.70000007E-03   2.89856340E-03
   2.74999999E-03   2.92565953E-03
   2.79999990E-03   2.95265252E-03