  -3.99999991E-02   0.00000000    
  -3.99499983E-02   0.00000000    
  -3.99000011E-02  -8.85400965E-13
  -3.98500003E-02  -4.29296486E-12
  -3.97999994E-02  -1.01511412E-11
  -3.97499986E-02  -1.61581876E-11
  -3.97000015E-02  -2.12902213E-11
  -3.96500006E-02  -2.86706284E-11
  -3.95999998E-02  -4.23555566E-11
  -3.95499989E-02  -6.08531767E-11
  -3.95000018E-02  -7.65861333E-11
  -3.94500010E-02  -8.43714126E-11
  -3.94000001E-02  -8.94057398E-11
  -3.93499993E-02  -1.03354270E-10
  -3.92999984E-02  -1.31098077E-10
  -3.92500013E-02  -1.63966077E-10
  -3.92000005E-02  -1.89320809E-10
  -3.91499996E-02  -2.06202028E-10
  -3.90999988E-02  -2.27494870E-10
  -3.90500017E-02  -2.64511552E-10
  -3.90000008E-02  -3.12338183E-10
  -3.89500000E-02  -3.54886620E-10
  -3.88999991E-02  -3.84437843E-10
  -3.88499983E-02  -4.11133572E-10
  -3.88000011E-02  -4.49252635E-10
  -3.87500003E-02  -4.96826025E-10
  -3.86999995E-02  -5.35555211E-10
  -3.86499986E-02  -5.53581680E-10
  -3.86000015E-02  -5.63357028E-10
  -3.85500006E-02  -5.89936822E-10
  -3.84999998E-02  -6.40631936E-10
  -3.84499989E-02  -6.91991742E-10
  -3.84000018E-02  -7.11624037E-10
  -3.83500010E-02  -6.90693669E-10
  -3.83000001E-02  -6.49149678E-10
  -3.82499993E-02  -6.08343653E-10
  -3.81999984E-02  -5.65565428E-10
  -3.81500013E-02  -5.02249409E-10
  -3.81000005E-02  -4.14428408E-10
  -3.80499996E-02  -3.24272331E-10
  -3.79999988E-02  -2.54216398E-10
  -3.79500017E-02  -1.93679212E-10
  -3.79000008E-02  -1.01546806E-10
  -3.78500000E-02   5.38670879E-11
  -3.77999991E-02   2.62592226E-10
  -3.77499983E-02   4.87098972E-10
  -3.77000012E-02   7.06709746E-10
  -3.76500003E-02   9.39663791E-10
  -3.75999995E-02   1.21726096E-09
  -3.75499986E-02   1.54321933E-09
  -3.75000015E-02   1.88956917E-09
  -3.74500006E-02   2.23463448E-09
  -3.73999998E-02   2.59497068E-09
  -3.73499990E-02   3.00887848E-09
  -3.73000018E-02   3.48859630E-09
  -3.72500010E-02   3.99839184E-09
  -3.72000001E-02   4.48578286E-09
  -3.71499993E-02   4.92871743E-09
  -3.70999984E-02   5.34235145E-09
  -3.70500013E-02   5.74005554E-09
  -3.70000005E-02   6.10179329E-09
  -3.69499996E-02   6.39539399E-09
  -3.68999988E-02   6.62926380E-09
  -3.68500017E-02   6.87053658E-09
  -3.68000008E-02   7.19751725E-09
  -3.67500000E-02   7.63060370E-09
  -3.66999991E-02   8.11234724E-09
  -3.66499983E-02   8.55324878E-09
  -3.66000012E-02   8.88984975E-09
  -3.65500003E-02   9.09798814E-09
  -3.64999995E-02   9.16640452E-09
  -3.64499986E-02   9.08347353E-09
  -3.64000015E-02   8.86283580E-09
  -3.63500006E-02   8.56848192E-09
  -3.62999998E-02   8.28405877E-09
  -3.62499990E-02   8.03326206E-09
  -3.62000018E-02   7.72748354E-09
  -3.61500010E-02   7.20622317E-09
  -3.61000001E-02   6.34797148E-09
  -3.60499993E-02   5.15885512E-09
  -3.59999985E-02   3.76932041E-09
  -3.59500013E-02   2.35604491E-09
  -3.59000005E-02   1.06072218E-09
  -3.58499996E-02  -5.05370884E-11
  -3.57999988E-02  -1.00272990E-09
  -3.57500017E-02  -1.92766492E-09
  -3.57000008E-02  -3.05824011E-09
  -3.56500000E-02  -4.65255212E-09
  -3.55999991E-02  -6.84994328E-09
  -3.55499983E-02  -9.54768087E-09
  -3.55000012E-02  -1.24084911E-08
  -3.54500003E-02  -1.50225539E-08
  -3.53999995E-02  -1.71258367E-08
  -3.53499986E-02  -1.87352835E-08
  -3.53000015E-02  -2.01309405E-08
  -3.52500007E-02  -2.17209184E-08
  -3.51999998E-02  -2.38709692E-08
  -3.51499990E-02  -2.67549005E-08
  -3.51000018E-02  -3.02529770E-08
  -3.50500010E-02  -3.39359723E-08
  -3.50000001E-02  -3.71853659E-08
  -3.49499993E-02  -3.94501463E-08
  -3.48999985E-02  -4.05332798E-08
  -3.48500013E-02  -4.07319511E-08
  -3.48000005E-02  -4.07158964E-08
  -3.47499996E-02  -4.11913916E-08
  -3.46999988E-02  -4.25388507E-08
  -3.46500017E-02  -4.46190711E-08
  -3.46000008E-02  -4.68287631E-08
  -3.45500000E-02  -4.83542308E-08
  -3.44999991E-02  -4.85071432E-08
  -3.44499983E-02  -4.70245318E-08
  -3.44000012E-02  -4.42266135E-08
  -3.43500003E-02  -4.09398346E-08
  -3.42999995E-02  -3.81581771E-08
  -3.42499986E-02  -3.65518709E-08
  -3.42000015E-02  -3.60653232E-08
  -3.41500007E-02  -3.58517198E-08
  -3.40999998E-02  -3.46244491E-08
  -3.40499990E-02  -3.12615995E-08
  -3.40000018E-02  -2.53495180E-08
  -3.39500010E-02  -1.73965500E-08
  -3.39000002E-02  -8.63028049E-09
  -3.38499993E-02  -4.83116436E-10
  -3.37999985E-02   6.02006045E-09
  -3.37500013E-02   1.07383773E-08
  -3.37000005E-02   1.45529793E-08
  -3.36499996E-02   1.90540597E-08
  -3.35999988E-02   2.58404942E-08
  -3.35500017E-02   3.57155088E-08
  -3.35000008E-02   4.81864504E-08
  -3.34500000E-02   6.15762374E-08
  -3.33999991E-02   7.37407362E-08
  -3.33499983E-02   8.30476594E-08
  -3.33000012E-02   8.91331950E-08
  -3.32500003E-02   9.30821855E-08
  -3.31999995E-02   9.69677387E-08
  -3.31499986E-02   1.02960769E-07
  -3.31000015E-02   1.12367594E-07
  -3.30500007E-02   1.24975358E-07
  -3.29999998E-02   1.39005579E-07
  -3.29499990E-02   1.51774699E-07
  -3.29000019E-02   1.60847350E-07
  -3.28500010E-02   1.65171869E-07
  -3.28000002E-02   1.65611283E-07
  -3.27499993E-02   1.64547572E-07
  -3.26999985E-02   1.64723815E-07
  -3.26500013E-02   1.67899302E-07
  -3.26000005E-02   1.73971728E-07
  -3.25499997E-02   1.80957059E-07
  -3.24999988E-02   1.85808091E-07
  -3.24500017E-02   1.85715663E-07
  -3.24000008E-02   1.79369991E-07
  -3.23500000E-02   1.67655173E-07
  -3.22999991E-02   1.53412941E-07
  -3.22499983E-02   1.40264035E-07
  -3.22000012E-02   1.30938290E-07
  -3.21500003E-02   1.25903611E-07
  -3.20999995E-02   1.23025913E-07
  -3.20499986E-02   1.18490746E-07
  -3.20000015E-02   1.08555831E-07
  -3.19500007E-02   9.12803841E-08
  -3.18999998E-02   6.74336533E-08
  -3.18499990E-02   4.02139051E-08
  -3.18000019E-02   1.39256118E-08
  -3.17500010E-02  -7.85052645E-09
  -3.17000002E-02  -2.38682070E-08
  -3.16499993E-02  -3.59023780E-08
  -3.15999985E-02  -4.81015974E-08
  -3.15500014E-02  -6.51550565E-08
  -3.15000005E-02  -9.00541934E-08
  -3.14499997E-02  -1.22543298E-07
  -3.13999988E-02  -1.59076080E-07
  -3.13500017E-02  -1.94323974E-07
  -3.13000008E-02  -2.23496670E-07
  -3.12500000E-02  -2.44385632E-07
  -3.11999992E-02  -2.58253124E-07
  -3.11500002E-02  -2.69243145E-07
  -3.10999993E-02  -2.82570966E-07
  -3.10500003E-02  -3.02194650E-07
  -3.09999995E-02  -3.28912364E-07
  -3.09500005E-02  -3.59771064E-07
  -3.08999997E-02  -3.89197766E-07
  -3.08500007E-02  -4.11457705E-07
  -3.07999998E-02  -4.23300634E-07
  -3.07500008E-02  -4.25477452E-07
  -3.07000000E-02  -4.22364280E-07
  -3.06499992E-02  -4.19906485E-07
  -3.06000002E-02  -4.22893066E-07
  -3.05499993E-02  -4.32787289E-07
  -3.05000003E-02  -4.47000048E-07
  -3.04499995E-02  -4.59876077E-07
  -3.04000005E-02  -4.65027085E-07
  -3.03499997E-02  -4.58116347E-07
  -3.03000007E-02  -4.38904351E-07
  -3.02499998E-02  -4.11532142E-07
  -3.02000009E-02  -3.82745128E-07
  -3.01500000E-02  -3.58795006E-07
  -3.00999992E-02  -3.42505956E-07
  -3.00500002E-02  -3.31941408E-07
  -2.99999993E-02  -3.21281647E-07
  -2.99500003E-02  -3.03440771E-07
  -2.98999995E-02  -2.73198197E-07
  -2.98500005E-02  -2.29526634E-07
  -2.97999997E-02  -1.76196394E-07
  -2.97500007E-02  -1.20377223E-07
  -2.96999998E-02  -6.97099694E-08
  -2.96500009E-02  -2.89929574E-08
  -2.96000000E-02   2.04086748E-09
  -2.95499992E-02   2.87179240E-08
  -2.95000002E-02   5.90571538E-08
  -2.94499993E-02   1.00103627E-07
  -2.94000003E-02   1.54717910E-07
  -2.93499995E-02   2.20295675E-07
  -2.93000005E-02   2.89903227E-07
  -2.92499997E-02   3.55215349E-07
  -2.92000007E-02   4.09959853E-07
  -2.91499998E-02   4.52490070E-07
  -2.91000009E-02   4.86451199E-07
  -2.90500000E-02   5.19191133E-07
  -2.89999992E-02   5.58447027E-07
  -2.89500002E-02   6.08683138E-07
  -2.88999993E-02   6.68797156E-07
  -2.88500004E-02   7.32374417E-07
  -2.87999995E-02   7.90443437E-07
  -2.87500005E-02   8.35417154E-07
  -2.86999997E-02   8.64359379E-07
  -2.86500007E-02   8.80140817E-07
  -2.85999998E-02   8.90087904E-07
  -2.85500009E-02   9.02782404E-07
  -2.85000000E-02   9.24325946E-07
  -2.84499992E-02   9.55557994E-07
  -2.84000002E-02   9.91418460E-07
  -2.83499993E-02   1.02288448E-06
  -2.83000004E-02   1.04081073E-06
  -2.82499995E-02   1.04001515E-06
  -2.82000005E-02   1.02167280E-06
  -2.81499997E-02   9.92809646E-07
  -2.81000007E-02   9.63116804E-07
  -2.80499998E-02   9.40597829E-07
  -2.80000009E-02   9.28015822E-07
  -2.79500000E-02   9.21633102E-07
  -2.78999992E-02   9.12691632E-07
  -2.78500002E-02   8.91013656E-07
  -2.77999993E-02   8.49326113E-07
  -2.77500004E-02   7.86560463E-07
  -2.76999995E-02   7.08651896E-07
  -2.76500005E-02   6.26280041E-07
  -2.75999997E-02   5.50361335E-07
  -2.75500007E-02   4.87287764E-07
  -2.74999999E-02   4.36140368E-07
  -2.74500009E-02   3.89186766E-07
  -2.74000000E-02   3.35396749E-07
  -2.73499992E-02   2.65342521E-07
  -2.73000002E-02   1.75336098E-07
  -2.72499993E-02   6.91431197E-08
  -2.72000004E-02  -4.33719620E-08
  -2.71499995E-02  -1.50191511E-07
  -2.71000005E-02  -2.42154158E-07
  -2.70499997E-02  -3.16932613E-07
  -2.70000007E-02  -3.80137209E-07
  -2.69499999E-02  -4.42829418E-07
  -2.69000009E-02  -5.16434966E-07
  -2.68500000E-02  -6.07386369E-07
  -2.67999992E-02  -7.13991597E-07
  -2.67500002E-02  -8.26983069E-07
  -2.66999993E-02  -9.33416743E-07
  -2.66500004E-02  -1.02211993E-06
  -2.65999995E-02  -1.08836605E-06
  -2.65500005E-02  -1.13584792E-06
  -2.64999997E-02  -1.17510194E-06
  -2.64500007E-02  -1.21888615E-06
  -2.63999999E-02  -1.27632927E-06
  -2.63500009E-02  -1.34839740E-06
  -2.63000000E-02  -1.42689760E-06
  -2.62499992E-02  -1.49774019E-06
  -2.62000002E-02  -1.54710665E-06
  -2.61499994E-02  -1.56767157E-06
  -2.61000004E-02  -1.56196415E-06
  -2.60499995E-02  -1.54136251E-06
  -2.60000005E-02  -1.52123926E-06
  -2.59499997E-02  -1.51438144E-06
  -2.59000007E-02  -1.52542577E-06
  -2.58499999E-02  -1.54861539E-06
  -2.58000009E-02  -1.56994020E-06
  -2.57500000E-02  -1.57301088E-06
  -2.56999992E-02  -1.54632562E-06
  -2.56500002E-02  -1.48867764E-06
  -2.55999994E-02  -1.41004557E-06
  -2.55500004E-02  -1.32735136E-06
  -2.54999995E-02  -1.25695954E-06
  -2.54500005E-02  -1.20744210E-06
  -2.53999997E-02  -1.17590037E-06
  -2.53500007E-02  -1.14938416E-06
  -2.52999999E-02  -1.11067800E-06
  -2.52500009E-02  -1.04594642E-06
  -2.52000000E-02  -9.51079414E-07
  -2.51499992E-02  -8.34011985E-07
  -2.51000002E-02  -7.11835810E-07
  -2.50499994E-02  -6.03660908E-07
  -2.50000004E-02  -5.22219068E-07
  -2.49499995E-02  -4.68128803E-07
  -2.49000005E-02  -4.29693614E-07
  -2.48499997E-02  -3.88446637E-07
  -2.48000007E-02  -3.27813069E-07
  -2.47499999E-02  -2.40823965E-07
  -2.47000009E-02  -1.33413536E-07
  -2.46500000E-02  -2.19893135E-08
  -2.45999992E-02   7.35705470E-08
  -2.45500002E-02   1.38490435E-07
  -2.44999994E-02   1.69633267E-07
  -2.44500004E-02   1.77112341E-07
  -2.43999995E-02   1.79904418E-07
  -2.43500005E-02   1.97112996E-07
  -2.42999997E-02   2.38777830E-07
  -2.42500007E-02   3.00670308E-07
  -2.41999999E-02   3.65740902E-07
  -2.41500009E-02   4.11595636E-07
  -2.41000000E-02   4.20462413E-07
  -2.40499992E-02   3.87027228E-07
  -2.40000002E-02   3.20733818E-07
  -2.39499994E-02   2.41684830E-07
  -2.39000004E-02   1.71934616E-07
  -2.38499995E-02   1.25751612E-07
  -2.38000005E-02   1.03010009E-07
  -2.37499997E-02   8.87741223E-08
  -2.37000007E-02   5.96130363E-08
  -2.36499999E-02  -5.88373217E-09
  -2.36000009E-02  -1.17273757E-07
  -2.35500000E-02  -2.67840221E-07
  -2.34999992E-02  -4.37697651E-07
  -2.34500002E-02  -6.02844239E-07
  -2.33999994E-02  -7.45868078E-07
  -2.33500004E-02  -8.63466880E-07
  -2.32999995E-02  -9.67626761E-07
  -2.32500006E-02  -1.08019083E-06
  -2.31999997E-02  -1.22310621E-06
  -2.31500007E-02  -1.40845066E-06
  -2.30999999E-02  -1.63267703E-06
  -2.30500009E-02  -1.87783269E-06
  -2.30000000E-02  -2.11952192E-06
  -2.29499992E-02  -2.33809965E-06
  -2.29000002E-02  -2.52767336E-06
  -2.28499994E-02  -2.69856673E-06
  -2.28000004E-02  -2.87218131E-06
  -2.27499995E-02  -3.07076789E-06
  -2.27000006E-02  -3.30705643E-06
  -2.26499997E-02  -3.57837439E-06
  -2.26000007E-02  -3.86759348E-06
  -2.25499999E-02  -4.15044224E-06
  -2.25000009E-02  -4.40607573E-06
  -2.24500000E-02  -4.62643493E-06
  -2.23999992E-02  -4.82007044E-06
  -2.23500002E-02  -5.00840724E-06
  -2.22999994E-02  -5.21588709E-06
  -2.22500004E-02  -5.45847479E-06
  -2.21999995E-02  -5.73606985E-06
  -2.21500006E-02  -6.03259241E-06
  -2.20999997E-02  -6.32347974E-06
  -2.20500007E-02  -6.58675253E-06
  -2.19999999E-02  -6.81271786E-06
  -2.19500009E-02  -7.00808641E-06
  -2.19000001E-02  -7.19287118E-06
  -2.18499992E-02  -7.39159395E-06
  -2.18000002E-02  -7.62240552E-06
  -2.17499994E-02  -7.88876150E-06
  -2.17000004E-02  -8.17756882E-06
  -2.16499995E-02  -8.46507010E-06
  -2.16000006E-02  -8.72789769E-06
  -2.15499997E-02  -8.95394442E-06
  -2.15000007E-02  -9.14777047E-06
  -2.14499999E-02  -9.32828152E-06
  -2.14000009E-02  -9.52002210E-06
  -2.13500001E-02  -9.74242539E-06
  -2.12999992E-02  -1.00019224E-05
  -2.12500002E-02  -1.02898175E-05
  -2.11999994E-02  -1.05867821E-05
  -2.11500004E-02  -1.08720724E-05
  -2.10999995E-02  -1.11334248E-05
  -2.10500006E-02  -1.13731812E-05
  -2.09999997E-02  -1.16075826E-05
  -2.09500007E-02  -1.18592488E-05
  -2.08999999E-02  -1.21465237E-05
  -2.08500009E-02  -1.24750377E-05
  -2.08000001E-02  -1.28356442E-05
  -2.07499992E-02  -1.32094065E-05
  -2.07000002E-02  -1.35767796E-05
  -2.06499994E-02  -1.39269087E-05
  -2.06000004E-02  -1.42627969E-05
  -2.05499995E-02  -1.46003731E-05
  -2.05000006E-02  -1.49619054E-05
  -2.04499997E-02  -1.53665333E-05
  -2.04000007E-02  -1.58219118E-05
  -2.03499999E-02  -1.63206878E-05
  -2.03000009E-02  -1.68440347E-05
  -2.02500001E-02  -1.73708740E-05
  -2.01999992E-02  -1.78881528E-05
  -2.01500002E-02  -1.83968023E-05
  -2.00999994E-02  -1.89109960E-05
  -2.00500004E-02  -1.94514068E-05
  -1.99999996E-02  -2.00360846E-05
  -1.99500006E-02  -2.06728710E-05
  -1.98999997E-02  -2.13561925E-05
  -1.98500007E-02  -2.20696711E-05
  -1.97999999E-02  -2.27935998E-05
  -1.97500009E-02  -2.35139905E-05
  -1.97000001E-02  -2.42285732E-05
  -1.96499992E-02  -2.49476634E-05
  -1.96000002E-02  -2.56893891E-05
  -1.95499994E-02  -2.64707232E-05
  -1.95000004E-02  -2.72991019E-05
  -1.94499996E-02  -2.81692319E-05
  -1.94000006E-02  -2.90661046E-05
  -1.93499997E-02  -2.99725398E-05
  -1.93000007E-02  -3.08768213E-05
  -1.92499999E-02  -3.17773483E-05
  -1.92000009E-02  -3.26827831E-05
  -1.91500001E-02  -3.36078629E-05
  -1.90999992E-02  -3.45664630E-05
  -1.90500002E-02  -3.55647426E-05
  -1.89999994E-02  -3.65979431E-05
  -1.89500004E-02  -3.76515927E-05
  -1.88999996E-02  -3.87083091E-05
  -1.88500006E-02  -3.97567783E-05
  -1.87999997E-02  -4.07970911E-05
  -1.87500007E-02  -4.18397140E-05
  -1.86999999E-02  -4.28998064E-05
  -1.86500009E-02  -4.39896685E-05
  -1.86000001E-02  -4.51129745E-05
  -1.85499992E-02  -4.62638345E-05
  -1.85000002E-02  -4.74288754E-05
  -1.84499994E-02  -4.85921591E-05
  -1.84000004E-02  -4.97418732E-05
  -1.83499996E-02  -5.08764933E-05
  -1.83000006E-02  -5.20065551E-05
  -1.82499997E-02  -5.31493970E-05
  -1.82000007E-02  -5.43210044E-05
  -1.81499999E-02  -5.55285224E-05
  -1.81000009E-02  -5.67671777E-05
  -1.80500001E-02  -5.80241431E-05
  -1.79999992E-02  -5.92851575E-05
  -1.79500002E-02  -6.05403729E-05
  -1.78999994E-02  -6.17881669E-05
  -1.78500004E-02  -6.30355426E-05
  -1.77999996E-02  -6.42958621E-05
  -1.77500006E-02  -6.55838012E-05
  -1.76999997E-02  -6.69078290E-05
  -1.76500008E-02  -6.82664177E-05
  -1.75999999E-02  -6.96494899E-05
  -1.75500009E-02  -7.10453678E-05
  -1.75000001E-02  -7.24488782E-05
  -1.74499992E-02  -7.38638919E-05
  -1.74000002E-02  -7.53016502E-05
  -1.73499994E-02  -7.67768652E-05
  -1.73000004E-02  -7.83023643E-05
  -1.72499996E-02  -7.98846013E-05
  -1.72000006E-02  -8.15209860E-05
  -1.71499997E-02  -8.32014339E-05
  -1.71000008E-02  -8.49142671E-05
  -1.70499999E-02  -8.66533519E-05
  -1.70000009E-02  -8.84230103E-05
  -1.69500001E-02  -9.02374231E-05
  -1.68999992E-02  -9.21157043E-05
  -1.68500002E-02  -9.40740429E-05
  -1.67999994E-02  -9.61193291E-05
  -1.67500004E-02  -9.82491110E-05
  -1.66999996E-02  -1.00454563E-04
  -1.66500006E-02  -1.02725557E-04
  -1.65999997E-02  -1.05056490E-04
  -1.65500008E-02  -1.07449938E-04
  -1.64999999E-02  -1.09919747E-04
  -1.64500009E-02  -1.12486618E-04
  -1.64000001E-02  -1.15169656E-04
  -1.63499992E-02  -1.17978423E-04
  -1.63000003E-02  -1.20910394E-04
  -1.62499994E-02  -1.23956226E-04
  -1.62000004E-02  -1.27104504E-04
  -1.61499996E-02  -1.30346263E-04
  -1.61000006E-02  -1.33682086E-04
  -1.60499997E-02  -1.37124516E-04
  -1.60000008E-02  -1.40692529E-04
  -1.59499999E-02  -1.44403937E-04
  -1.59000009E-02  -1.48268373E-04
  -1.58500001E-02  -1.52285400E-04
  -1.57999992E-02  -1.56446709E-04
  -1.57500003E-02  -1.60741329E-04
  -1.56999994E-02  -1.65163365E-04
  -1.56500004E-02  -1.69715830E-04
  -1.55999996E-02  -1.74409681E-04
  -1.55499997E-02  -1.79260212E-04
  -1.54999997E-02  -1.84283010E-04
  -1.54499998E-02  -1.89487226E-04
  -1.53999999E-02  -1.94869775E-04
  -1.53500000E-02  -2.00416718E-04
  -1.53000001E-02  -2.06111799E-04
  -1.52500002E-02  -2.11946608E-04
  -1.52000003E-02  -2.17924360E-04
  -1.51500003E-02  -2.24059797E-04
  -1.51000004E-02  -2.30372258E-04
  -1.50499996E-02  -2.36877138E-04
  -1.49999997E-02  -2.43583010E-04
  -1.49499997E-02  -2.50487472E-04
  -1.48999998E-02  -2.57576321E-04
  -1.48499999E-02  -2.64830422E-04
  -1.48000000E-02  -2.72233156E-04
  -1.47500001E-02  -2.79780797E-04
  -1.47000002E-02  -2.87485454E-04
  -1.46500003E-02  -2.95368722E-04
  -1.46000003E-02  -3.03451932E-04
  -1.45500004E-02  -3.11744050E-04
  -1.44999996E-02  -3.20241670E-04
  -1.44499997E-02  -3.28935334E-04
  -1.43999998E-02  -3.37811129E-04
  -1.43499998E-02  -3.46855551E-04
  -1.42999999E-02  -3.56062606E-04
  -1.42500000E-02  -3.65437474E-04
  -1.42000001E-02  -3.74995347E-04
  -1.41500002E-02  -3.84756073E-04
  -1.41000003E-02  -3.94733273E-04
  -1.40500003E-02  -4.04926483E-04
  -1.40000004E-02  -4.15322225E-04
  -1.39499996E-02  -4.25900595E-04
  -1.38999997E-02  -4.36647708E-04
  -1.38499998E-02  -4.47562226E-04
  -1.37999998E-02  -4.58659953E-04
  -1.37499999E-02  -4.69962950E-04
  -1.37000000E-02  -4.81483527E-04
  -1.36500001E-02  -4.93226107E-04
  -1.36000002E-02  -5.05192962E-04
  -1.35500003E-02  -5.17380191E-04
  -1.35000004E-02  -5.29775047E-04
  -1.34500004E-02  -5.42362861E-04
  -1.33999996E-02  -5.55134029E-04
  -1.33499997E-02  -5.68096235E-04
  -1.32999998E-02  -5.81279397E-04
  -1.32499998E-02  -5.94715821E-04
  -1.31999999E-02  -6.08418428E-04
  -1.31500000E-02  -6.22377731E-04
  -1.31000001E-02  -6.36572950E-04
  -1.30500002E-02  -6.50986214E-04
  -1.30000003E-02  -6.65609899E-04
  -1.29500004E-02  -6.80441910E-04
  -1.29000004E-02  -6.95483934E-04
  -1.28499996E-02  -7.10755587E-04
  -1.27999997E-02  -7.26294238E-04
  -1.27499998E-02  -7.42135104E-04
  -1.26999998E-02  -7.58291280E-04
  -1.26499999E-02  -7.74754211E-04
  -1.26000000E-02  -7.91503640E-04
  -1.25500001E-02  -8.08516110E-04
  -1.25000002E-02  -8.25785857E-04
  -1.24500003E-02  -8.43326270E-04
  -1.24000004E-02  -8.61148874E-04
  -1.23500004E-02  -8.79258674E-04
  -1.22999996E-02  -8.97656544E-04
  -1.22499997E-02  -9.16347199E-04
  -1.21999998E-02  -9.35342163E-04
  -1.21499998E-02  -9.54641611E-04
  -1.20999999E-02  -9.74240131E-04
  -1.20500000E-02  -9.94145288E-04
  -1.20000001E-02  -1.01439143E-03
  -1.19500002E-02  -1.03502907E-03
  -1.19000003E-02  -1.05609512E-03
  -1.18500004E-02  -1.07759633E-03
  -1.18000004E-02  -1.09952199E-03
  -1.17499996E-02  -1.12184673E-03
  -1.16999997E-02  -1.14452222E-03
  -1.16499998E-02  -1.16749632E-03
  -1.15999999E-02  -1.19072932E-03
  -1.15499999E-02  -1.21422135E-03
  -1.15000000E-02  -1.23800442E-03
  -1.14500001E-02  -1.26211997E-03
  -1.14000002E-02  -1.28660677E-03
  -1.13500003E-02  -1.31150475E-03
  -1.13000004E-02  -1.33686501E-03
  -1.12500004E-02  -1.36272353E-03
  -1.11999996E-02  -1.38909416E-03
  -1.11499997E-02  -1.41598238E-03
  -1.10999998E-02  -1.44340331E-03
  -1.10499999E-02  -1.47138105E-03
  -1.09999999E-02  -1.49991293E-03
  -1.09500000E-02  -1.52895006E-03
  -1.09000001E-02  -1.55840954E-03
  -1.08500002E-02  -1.58821803E-03
  -1.08000003E-02  -1.61834422E-03
  -1.07500004E-02  -1.64875411E-03
  -1.07000005E-02  -1.67941861E-03
  -1.06499996E-02  -1.71036017E-03
  -1.05999997E-02  -1.74168136E-03
  -1.05499998E-02  -1.77351362E-03
  -1.04999999E-02  -1.80595764E-03
  -1.04499999E-02  -1.83906150E-03
  -1.04000000E-02  -1.87282648E-03
  -1.03500001E-02  -1.90725550E-03
  -1.03000002E-02  -1.94235682E-03
  -1.02500003E-02  -1.97812519E-03
  -1.02000004E-02  -2.01449823E-03
  -1.01500005E-02  -2.05140444E-03
  -1.00999996E-02  -2.08883779E-03
  -1.00499997E-02  -2.12681387E-03
  -9.99999978E-03  -2.16533011E-03
  -9.94999986E-03  -2.20433832E-03
  -9.89999995E-03  -2.24375492E-03
  -9.85000003E-03  -2.28356593E-03
  -9.80000012E-03  -2.32385495E-03
  -9.75000020E-03  -2.36473582E-03
  -9.70000029E-03  -2.40627280E-03
  -9.65000037E-03  -2.44845799E-03
  -9.60000046E-03  -2.49130325E-03
  -9.54999961E-03  -2.53487751E-03
  -9.49999969E-03  -2.57923454E-03
  -9.44999978E-03  -2.62434408E-03
  -9.39999986E-03  -2.67009903E-03
  -9.34999995E-03  -2.71642301E-03
  -9.30000003E-03  -2.76337913E-03
  -9.25000012E-03  -2.81110266E-03
  -9.20000020E-03  -2.85967719E-03
  -9.15000029E-03  -2.90910224E-03
  -9.10000037E-03  -2.95932824E-03
  -9.05000046E-03  -3.01034539E-03
  -8.99999961E-03  -3.06219398E-03
  -8.94999970E-03  -3.11486539E-03
  -8.89999978E-03  -3.16828256E-03
  -8.84999987E-03  -3.22236237E-03
  -8.79999995E-03  -3.27711436E-03
  -8.75000004E-03  -3.33265099E-03
  -8.70000012E-03  -3.38907726E-03
  -8.65000021E-03  -3.44640808E-03
  -8.60000029E-03  -3.50456568E-03
  -8.55000038E-03  -3.56348837E-03
  -8.50000046E-03  -3.62322177E-03
  -8.44999962E-03  -3.68386856E-03
  -8.39999970E-03  -3.74547997E-03
  -8.34999979E-03  -3.80803365E-03
  -8.29999987E-03  -3.87152284E-03
  -8.24999996E-03  -3.93603044E-03
  -8.20000004E-03  -4.00167471E-03
  -8.15000013E-03  -4.06846404E-03
  -8.10000021E-03  -4.13629320E-03
  -8.05000030E-03  -4.20504017E-03
  -8.00000038E-03  -4.27469052E-03
  -7.95000046E-03  -4.34538582E-03
  -7.89999962E-03  -4.41722432E-03
  -7.84999970E-03  -4.49021393E-03
  -7.79999979E-03  -4.56435233E-03
  -7.74999987E-03  -4.63964976E-03
  -7.69999996E-03  -4.71610716E-03
  -7.65000004E-03  -4.79369331E-03
  -7.60000013E-03  -4.87234723E-03
  -7.55000021E-03  -4.95193992E-03
  -7.49999983E-03  -5.03242342E-03
  -7.44999992E-03  -5.11392066E-03
  -7.40000000E-03  -5.19655785E-03
  -7.35000009E-03  -5.28045604E-03
  -7.30000017E-03  -5.36562270E-03
  -7.24999979E-03  -5.45201916E-03
  -7.19999988E-03  -5.53965243E-03
  -7.14999996E-03  -5.62853459E-03
  -7.10000005E-03  -5.71870292E-03
  -7.05000013E-03  -5.81011316E-03
  -7.00000022E-03  -5.90271410E-03
  -6.94999984E-03  -5.99656766E-03
  -6.89999992E-03  -6.09183218E-03
  -6.85000001E-03  -6.18858682E-03
  -6.80000009E-03  -6.28679432E-03
  -6.75000018E-03  -6.38632802E-03
  -6.69999979E-03  -6.48703845E-03
  -6.64999988E-03  -6.58892468E-03
  -6.59999996E-03  -6.69205561E-03
  -6.55000005E-03  -6.79648435E-03
  -6.50000013E-03  -6.90221926E-03
  -6.45000022E-03  -7.00930553E-03
  -6.39999984E-03  -7.11779436E-03
  -6.34999992E-03  -7.22770672E-03
  -6.30000001E-03  -7.33898440E-03
  -6.25000009E-03  -7.45152310E-03
  -6.20000018E-03  -7.56525947E-03
  -6.14999980E-03  -7.68015906E-03
  -6.09999988E-03  -7.79631035E-03
  -6.04999997E-03  -7.91385863E-03
  -6.00000005E-03  -8.03297199E-03
  -5.95000014E-03  -8.15374777E-03
  -5.90000022E-03  -8.27620830E-03
  -5.84999984E-03  -8.40027817E-03
  -5.79999993E-03  -8.52579996E-03
  -5.75000001E-03  -8.65267497E-03
  -5.70000010E-03  -8.78083427E-03
  -5.65000018E-03  -8.91029928E-03
  -5.59999980E-03  -9.04124882E-03
  -5.54999989E-03  -9.17374436E-03
  -5.49999997E-03  -9.30779055E-03
  -5.45000006E-03  -9.44344513E-03
  -5.40000014E-03  -9.58072580E-03
  -5.35000023E-03  -9.71960276E-03
  -5.29999984E-03  -9.85991582E-03
  -5.24999993E-03  -1.00014508E-02
  -5.20000001E-03  -1.01441350E-02
  -5.15000010E-03  -1.02881240E-02
  -5.10000018E-03  -1.04336413E-02
  -5.04999980E-03  -1.05808955E-02
  -4.99999989E-03  -1.07299555E-02
  -4.94999997E-03  -1.08807012E-02
  -4.90000006E-03  -1.10330302E-02
  -4.85000014E-03  -1.11868624E-02
  -4.80000023E-03  -1.13420933E-02
  -4.74999985E-03  -1.14988042E-02
  -4.69999993E-03  -1.16572035E-02
  -4.65000002E-03  -1.18174031E-02
  -4.60000010E-03  -1.19793899E-02
  -4.55000019E-03  -1.21431993E-02
  -4.49999981E-03  -1.23088723E-02
  -4.44999989E-03  -1.24764042E-02
  -4.39999998E-03  -1.26455436E-02
  -4.35000006E-03  -1.28158825E-02
  -4.30000015E-03  -1.29873855E-02
  -4.25000023E-03  -1.31602753E-02
  -4.19999985E-03  -1.33348573E-02
  -4.14999994E-03  -1.35113895E-02
  -4.10000002E-03  -1.36898533E-02
  -4.05000011E-03  -1.38701200E-02
  -4.00000019E-03  -1.40520921E-02
  -3.94999981E-03  -1.42357135E-02
  -3.89999989E-03  -1.44209703E-02
  -3.84999998E-03  -1.46077489E-02
  -3.80000006E-03  -1.47959506E-02
  -3.74999992E-03  -1.49856610E-02
  -3.70000000E-03  -1.51772331E-02
  -3.65000009E-03  -1.53711447E-02
  -3.59999994E-03  -1.55673753E-02
  -3.55000002E-03  -1.57654453E-02
  -3.50000011E-03  -1.59650333E-02
  -3.44999996E-03  -1.61660630E-02
  -3.40000005E-03  -1.63686033E-02
  -3.34999990E-03  -1.65727809E-02
  -3.29999998E-03  -1.67785008E-02
  -3.25000007E-03  -1.69858467E-02
  -3.19999992E-03  -1.71951707E-02
  -3.15000000E-03  -1.74067058E-02
  -3.10000009E-03  -1.76202487E-02
  -3.04999994E-03  -1.78353861E-02
  -3.00000003E-03  -1.80518385E-02
  -2.95000011E-03  -1.82695929E-02
  -2.89999996E-03  -1.84888691E-02
  -2.85000005E-03  -1.87097043E-02
  -2.79999990E-03  -1.89323388E-02
  -2.74999999E-03  -1.91570893E-02
  -2.70000007E-03  -1.93839297E-02
  -2.64999992E-03  -1.96127370E-02
  -2.60000001E-03  -1.98433418E-02
  -2.55000009E-03  -2.00753957E-02
  -2.49999994E-03  -2.03084759E-02
  -2.45000003E-03  -2.05424335E-02
  -2.40000011E-03  -2.07778364E-02
  -2.34999997E-03  -2.10153032E-02
  -2.30000005E-03  -2.12549623E-02
  -2.24999990E-03  -2.14966312E-02
  -2.19999999E-03  -2.17402112E-02
  -2.15000007E-03  -2.19855625E-02
  -2.09999993E-03  -2.22324282E-02
  -2.05000001E-03  -2.24806927E-02
  -2.00000009E-03  -2.27299184E-02
  -1.94999995E-03  -2.29799952E-02
  -1.90000003E-03  -2.32312828E-02
  -1.85000000E-03  -2.34843604E-02
  -1.79999997E-03  -2.37397179E-02
  -1.75000005E-03  -2.39970461E-02
  -1.70000002E-03  -2.42556594E-02
  -1.64999999E-03  -2.45151818E-02
  -1.59999996E-03  -2.47754361E-02
  -1.55000004E-03  -2.50365864E-02
  -1.50000001E-03  -2.52988953E-02
  -1.44999998E-03  -2.55623851E-02
  -1.39999995E-03  -2.58273836E-02
  -1.35000004E-03  -2.60944124E-02
  -1.30000000E-03  -2.63632853E-02
  -1.24999997E-03  -2.66335085E-02
  -1.20000006E-03  -2.69048661E-02
  -1.15000003E-03  -2.71771252E-02
  -1.09999999E-03  -2.74500735E-02
  -1.04999996E-03  -2.77234837E-02
  -1.00000005E-03  -2.79975403E-02
  -9.50000016E-04  -2.82727368E-02
  -8.99999985E-04  -2.85494588E-02
  -8.50000011E-04  -2.88278796E-02
  -7.99999980E-04  -2.91076936E-02
  -7.50000007E-04  -2.93881092E-02
  -6.99999975E-04  -2.96684355E-02
  -6.50000002E-04  -2.99487785E-02
  -6.00000028E-04  -3.02294325E-02
  -5.49999997E-04  -3.05104256E-02
  -5.00000024E-04  -3.07919420E-02
  -4.49999992E-04  -3.10744327E-02
  -3.99999990E-04  -3.13584395E-02
  -3.49999988E-04  -3.16438712E-02
  -3.00000014E-04  -3.19299474E-02
  -2.50000012E-04  -3.22156139E-02
  -1.99999995E-04  -3.25005054E-02
  -1.50000007E-04  -3.27851363E-02
  -9.99999975E-05  -3.30700353E-02
  -4.99999987E-05  -3.33555527E-02
   0.00000000      -3.36416550E-02
   4.99999987E-05  -3.39280553E-02
   9.99999975E-05  -3.42146270E-02
   1.50000007E-04  -3.45011987E-02
   1.99999995E-04  -3.47873718E-02
   2.50000012E-04  -3.50726992E-02
   3.00000014E-04  -3.53568345E-02
   3.49999988E-04  -3.56396772E-02
   3.99999990E-04  -3.59218828E-02
   4.49999992E-04  -3.62040959E-02
   5.00000024E-04  -3.64865772E-02
   5.49999997E-04  -3.67689021E-02
   6.00000028E-04  -3.70503142E-02
   6.50000002E-04  -3.73301394E-02
   6.99999975E-04  -3.76079269E-02
   7.50000007E-04  -3.78845185E-02
   7.99999980E-04  -3.81601714E-02
   8.50000011E-04  -3.84343863E-02
   8.99999985E-04  -3.87069099E-02
   9.50000016E-04  -3.89776863E-02
   1.00000005E-03  -3.92477177E-02
   1.04999996E-03  -3.95176336E-02
   1.09999999E-03  -3.97857651E-02
   1.15000003E-03  -4.00502682E-02
   1.20000006E-03  -4.03105617E-02
   1.24999997E-03  -4.05674540E-02
   1.30000000E-03  -4.08228971E-02
   1.35000004E-03  -4.10777032E-02
   1.39999995E-03  -4.13305946E-02
   1.44999998E-03  -4.15795594E-02
   1.50000001E-03  -4.18242477E-02
   1.55000004E-03  -4.20664549E-02
   1.59999996E-03  -4.23069894E-02
   1.64999999E-03  -4.25441228E-02
   1.70000002E-03  -4.27752994E-02
   1.75000005E-03  -4.30000164E-02
   1.79999997E-03  -4.32214364E-02
   1.85000000E-03  -4.34421636E-02
   1.90000003E-03  -4.36610654E-02
   1.94999995E-03  -4.38743830E-02
   2.00000009E-03  -4.40800190E-02
   2.05000001E-03  -4.42801826E-02
   2.09999993E-03  -4.44777012E-02
   2.15000007E-03  -4.46720235E-02
   2.19999999E-03  -4.48600724E-02
   2.24999990E-03  -4.50402535E-02
   2.30000005E-03  -4.52137291E-02
   2.34999997E-03  -4.53834720E-02
   2.40000011E-03  -4.55507077E-02
   2.45000003E-03  -4.57121544E-02
   2.49999994E-03  -4.58634868E-02
   2.55000009E-03  -4.60042693E-02
   2.60000001E-03  -4.61388044E-02
   2.64999992E-03  -4.62704934E-02
   2.70000007E-03  -4.63965721E-02
   2.74999999E-03  -4.65122424E-02
   2.79999990E-03  -4.66168895E-02