  -3.99999991E-02   0.00000000    
  -3.99499983E-02   0.00000000    
  -3.99000011E-02  -4.09452550E-16
  -3.98500003E-02  -2.29398841E-15
  -3.97999994E-02  -6.21715026E-15
  -3.97499986E-02  -9.92739216E-15
  -3.97000015E-02  -6.70785296E-15
  -3.96500006E-02   1.31545665E-14
  -3.95999998E-02   5.70359054E-14
  -3.95499989E-02   1.23493853E-13
  -3.95000018E-02   1.99641749E-13
  -3.94500010E-02   2.65819295E-13
  -3.94000001E-02   3.06113425E-13
  -3.93499993E-02   3.18724512E-13
  -3.92999984E-02   3.19503863E-13
  -3.92500013E-02   3.35676311E-13
  -3.92000005E-02   3.92289716E-13
  -3.91499996E-02   4.98180381E-13
  -3.90999988E-02   6.39272055E-13
  -3.90500017E-02   7.84157244E-13
  -3.90000008E-02   9.00655201E-13
  -3.89500000E-02   9.74916545E-13
  -3.88999991E-02   1.02116037E-12
  -3.88499983E-02   1.07409795E-12
  -3.88000011E-02   1.16655925E-12
  -3.87500003E-02   1.30527544E-12
  -3.86999995E-02   1.46048603E-12
  -3.86499986E-02   1.57749378E-12
  -3.86000015E-02   1.60520382E-12
  -3.85500006E-02   1.52615106E-12
  -3.84999998E-02   1.37032876E-12
  -3.84499989E-02   1.20220804E-12
  -3.84000018E-02   1.08369683E-12
  -3.83500010E-02   1.03009105E-12
  -3.83000001E-02   9.84157851E-13
  -3.82499993E-02   8.28557600E-13
  -3.81999984E-02   4.37771239E-13
  -3.81500013E-02  -2.53688211E-13
  -3.81000005E-02  -1.20434402E-12
  -3.80499996E-02  -2.27043037E-12
  -3.79999988E-02  -3.26602656E-12
  -3.79500017E-02  -4.05202824E-12
  -3.79000008E-02  -4.61036070E-12
  -3.78500000E-02  -5.06488081E-12
  -3.77999991E-02  -5.63385536E-12
  -3.77499983E-02  -6.53027979E-12
  -3.77000012E-02  -7.85295960E-12
  -3.76500003E-02  -9.52119026E-12
  -3.75999995E-02  -1.12908632E-11
  -3.75499986E-02  -1.28522280E-11
  -3.75000015E-02  -1.39663689E-11
  -3.74500006E-02  -1.45740694E-11
  -3.73999998E-02  -1.48228999E-11
  -3.73499990E-02  -1.49998052E-11
  -3.73000018E-02  -1.54021049E-11
  -3.72500010E-02  -1.62045030E-11
  -3.72000001E-02  -1.73750996E-11
  -3.71499993E-02  -1.86688529E-11
  -3.70999984E-02  -1.96969593E-11
  -3.70500013E-02  -2.00456284E-11
  -3.70000005E-02  -1.94033522E-11
  -3.69499996E-02  -1.76559271E-11
  -3.68999988E-02  -1.49236352E-11
  -3.68500017E-02  -1.15365009E-11
  -3.68000008E-02  -7.95767272E-12
  -3.67500000E-02  -4.66566976E-12
  -3.66999991E-02  -2.00486676E-12
  -3.66499983E-02  -2.77526144E-14
  -3.66000012E-02   1.61581783E-12
  -3.65500003E-02   3.66344151E-12
  -3.64999995E-02   7.04056475E-12
  -3.64499986E-02   1.24951239E-11
  -3.64000015E-02   2.01884915E-11
  -3.63500006E-02   2.94351730E-11
  -3.62999998E-02   3.87690678E-11
  -3.62499990E-02   4.64013446E-11
  -3.62000018E-02   5.09561456E-11
  -3.61500010E-02   5.21972118E-11
  -3.61000001E-02   5.13794771E-11
  -3.60499993E-02   5.09456678E-11
  -3.59999985E-02   5.35505251E-11
  -3.59500013E-02   6.07455544E-11
  -3.59000005E-02   7.19242513E-11
  -3.58499996E-02   8.41352960E-11
  -3.57999988E-02   9.30505950E-11
  -3.57500017E-02   9.48319409E-11
  -3.57000008E-02   8.81232240E-11
  -3.56500000E-02   7.51808407E-11
  -3.55999991E-02   6.14051310E-11
  -3.55499983E-02   5.32026471E-11
  -3.55000012E-02   5.49361771E-11
  -3.54500003E-02   6.63240990E-11
  -3.53999995E-02   8.16839721E-11
  -3.53499986E-02   9.17475679E-11
  -3.53000015E-02   8.76057768E-11
  -3.52500007E-02   6.51826787E-11
  -3.51999998E-02   2.80923271E-11
  -3.51499990E-02  -1.28131620E-11
  -3.51000018E-02  -4.35115971E-11
  -3.50500010E-02  -5.30523368E-11
  -3.50000001E-02  -3.92395352E-11
  -3.49499993E-02  -1.08960783E-11
  -3.48999985E-02   1.48954564E-11
  -3.48500013E-02   1.99554401E-11
  -3.48000005E-02  -6.28802782E-12
  -3.47499996E-02  -6.05782022E-11
  -3.46999988E-02  -1.25472466E-10
  -3.46500017E-02  -1.75824050E-10
  -3.46000008E-02  -1.89858657E-10
  -3.45500000E-02  -1.60056635E-10
  -3.44999991E-02  -9.85308085E-11
  -3.44499983E-02  -3.36084389E-11
  -3.44000012E-02   1.80521841E-12
  -3.43500003E-02  -1.45425633E-11
  -3.42999995E-02  -8.23339730E-11
  -3.42499986E-02  -1.76195503E-10
  -3.42000015E-02  -2.54935878E-10
  -3.41500007E-02  -2.79417572E-10
  -3.40999998E-02  -2.31456992E-10
  -3.40499990E-02  -1.24788721E-10
  -3.40000018E-02  -1.94898004E-12
  -3.39500010E-02   8.29514374E-11
  -3.39000002E-02   8.87990098E-11
  -3.38499993E-02   8.37747233E-12
  -3.37999985E-02  -1.24804236E-10
  -3.37500013E-02  -2.48469245E-10
  -3.37000005E-02  -2.98509301E-10
  -3.36499996E-02  -2.39547521E-10
  -3.35999988E-02  -8.49020784E-11
  -3.35500017E-02   1.04636841E-10
  -3.35000008E-02   2.44748333E-10
  -3.34500000E-02   2.65085814E-10
  -3.33999991E-02   1.43825563E-10
  -3.33499983E-02  -7.74513370E-11
  -3.33000012E-02  -3.07478709E-10
  -3.32500003E-02  -4.43789894E-10
  -3.31999995E-02  -4.20008972E-10
  -3.31499986E-02  -2.40365172E-10
  -3.31000015E-02   1.60302327E-11
  -3.30500007E-02   2.25840111E-10
  -3.29999998E-02   2.75689666E-10
  -3.29499990E-02   1.16388593E-10
  -3.29000019E-02  -2.08352641E-10
  -3.28500010E-02  -5.74405357E-10
  -3.28000002E-02  -8.28503044E-10
  -3.27499993E-02  -8.57433680E-10
  -3.26999985E-02  -6.44087839E-10
  -3.26500013E-02  -2.82957241E-10
  -3.26000005E-02   5.54483057E-11
  -3.25499997E-02   1.98620967E-10
  -3.24999988E-02   5.28247550E-11
  -3.24500017E-02  -3.46689372E-10
  -3.24000008E-02  -8.41860803E-10
  -3.23500000E-02  -1.21577337E-09
  -3.22999991E-02  -1.28883160E-09
  -3.22499983E-02  -1.00462372E-09
  -3.22000012E-02  -4.64617372E-10
  -3.21500003E-02   1.08239175E-10
  -3.20999995E-02   4.65139177E-10
  -3.20499986E-02   4.45851994E-10
  -3.20000015E-02   5.98856936E-11
  -3.19500007E-02  -5.05839426E-10
  -3.18999998E-02  -9.61527857E-10
  -3.18499990E-02  -1.04222042E-09
  -3.18000019E-02  -6.32861263E-10
  -3.17500010E-02   1.67672751E-10
  -3.17000002E-02   1.07750686E-09
  -3.16499993E-02   1.74969239E-09
  -3.15999985E-02   1.92816230E-09
  -3.15500014E-02   1.57183966E-09
  -3.15000005E-02   8.87218743E-10
  -3.14499997E-02   2.48348092E-10
  -3.13999988E-02   3.40416619E-11
  -3.13500017E-02   4.52440363E-10
  -3.13000008E-02   1.43335777E-09
  -3.12500000E-02   2.64246625E-09
  -3.11999992E-02   3.61831565E-09
  -3.11500002E-02   3.97639210E-09
  -3.10999993E-02   3.59003138E-09
  -3.10500003E-02   2.66324940E-09
  -3.09999995E-02   1.65541125E-09
  -3.09500005E-02   1.08368381E-09
  -3.08999997E-02   1.28716360E-09
  -3.08500007E-02   2.25916352E-09
  -3.07999998E-02   3.62889674E-09
  -3.07500008E-02   4.80960471E-09
  -3.07000000E-02   5.25446753E-09
  -3.06499992E-02   4.70868011E-09
  -3.06000002E-02   3.34160366E-09
  -3.05499993E-02   1.69165348E-09
  -3.05000003E-02   4.39008663E-10
  -3.04499995E-02   1.01206932E-10
  -3.04000005E-02   7.87219345E-10
  -3.03499997E-02   2.12599582E-09
  -3.03000007E-02   3.41151041E-09
  -3.02499998E-02   3.90915789E-09
  -3.02000009E-02   3.19142046E-09
  -3.01500000E-02   1.35042388E-09
  -3.00999992E-02  -1.01643904E-09
  -3.00500002E-02  -3.05290482E-09
  -2.99999993E-02  -4.02123668E-09
  -2.99500003E-02  -3.64446784E-09
  -2.98999995E-02  -2.25503727E-09
  -2.98500005E-02  -6.72107481E-10
  -2.97999997E-02   1.49838086E-10
  -2.97500007E-02  -4.48220738E-10
  -2.96999998E-02  -2.51263099E-09
  -2.96500009E-02  -5.42386003E-09
  -2.96000000E-02  -8.14439005E-09
  -2.95499992E-02  -9.66907177E-09
  -2.95000002E-02  -9.48214840E-09
  -2.94499993E-02  -7.81283305E-09
  -2.94000003E-02  -5.56339419E-09
  -2.93499995E-02  -3.92722388E-09
  -2.93000005E-02  -3.85653998E-09
  -2.92499997E-02  -5.61528779E-09
  -2.92000007E-02  -8.62482263E-09
  -2.91499998E-02  -1.16860104E-08
  -2.91000009E-02  -1.34937954E-08
  -2.90500000E-02  -1.32233593E-08
  -2.89999992E-02  -1.09246008E-08
  -2.89500002E-02  -7.53714779E-09
  -2.88999993E-02  -4.50233495E-09
  -2.88500004E-02  -3.13074366E-09
  -2.87999995E-02  -4.00184996E-09
  -2.87500005E-02  -6.66973543E-09
  -2.86999997E-02  -9.82150983E-09
  -2.86500007E-02  -1.18358248E-08
  -2.85999998E-02  -1.15049650E-08
  -2.85500009E-02  -8.59980531E-09
  -2.85000000E-02  -4.01488132E-09
  -2.84499992E-02   5.89606863E-10
  -2.84000002E-02   3.50729135E-09
  -2.83499993E-02   3.75532982E-09
  -2.83000004E-02   1.54749635E-09
  -2.82499995E-02  -1.75580672E-09
  -2.82000005E-02  -4.21920809E-09
  -2.81499997E-02  -4.18787538E-09
  -2.81000007E-02  -1.05083875E-09
  -2.80499998E-02   4.43719728E-09
  -2.80000009E-02   1.04388524E-08
  -2.79500000E-02   1.48178492E-08
  -2.78999992E-02   1.60886966E-08
  -2.78500002E-02   1.41092205E-08
  -2.77999993E-02   1.01927808E-08
  -2.77500004E-02   6.56696875E-09
  -2.76999995E-02   5.39828182E-09
  -2.76500005E-02   7.80696574E-09
  -2.75999997E-02   1.33168747E-08
  -2.75500007E-02   2.00055208E-08
  -2.74999999E-02   2.53131525E-08
  -2.74500009E-02   2.71703051E-08
  -2.74000000E-02   2.49466119E-08
  -2.73499992E-02   1.97856611E-08
  -2.73000002E-02   1.41518379E-08
  -2.72499993E-02   1.07644595E-08
  -2.72000004E-02   1.13775664E-08
  -2.71499995E-02   1.59502207E-08
  -2.71000005E-02   2.25958185E-08
  -2.70499997E-02   2.83616099E-08
  -2.70000007E-02   3.05169507E-08
  -2.69499999E-02   2.77879426E-08
  -2.69000009E-02   2.09801421E-08
  -2.68500000E-02   1.26869111E-08
  -2.67999992E-02   6.18274809E-09
  -2.67500002E-02   3.97171496E-09
  -2.66999993E-02   6.63300392E-09
  -2.66500004E-02   1.24941755E-08
  -2.65999995E-02   1.83079347E-08
  -2.65500005E-02   2.06619717E-08
  -2.64999997E-02   1.75118444E-08
  -2.64500007E-02   9.15058962E-09
  -2.63999999E-02  -1.84079163E-09
  -2.63500009E-02  -1.16742083E-08
  -2.63000000E-02  -1.70148180E-08
  -2.62499992E-02  -1.64925940E-08
  -2.62000002E-02  -1.13794156E-08
  -2.61499994E-02  -5.09908338E-09
  -2.61000004E-02  -1.75196679E-09
  -2.60499995E-02  -4.28599689E-09
  -2.60000005E-02  -1.31257529E-08
  -2.59499997E-02  -2.58916835E-08
  -2.59000007E-02  -3.83713825E-08
  -2.58499999E-02  -4.63463685E-08
  -2.58000009E-02  -4.74799542E-08
  -2.57500000E-02  -4.24185806E-08
  -2.56999992E-02  -3.45858027E-08
  -2.56500002E-02  -2.87199846E-08
  -2.55999994E-02  -2.87735897E-08
  -2.55500004E-02  -3.60990313E-08
  -2.54999995E-02  -4.87462906E-08
  -2.54500005E-02  -6.22233713E-08
  -2.53999997E-02  -7.14233437E-08
  -2.53500007E-02  -7.28877794E-08
  -2.52999999E-02  -6.63993021E-08
  -2.52500009E-02  -5.51666837E-08
  -2.52000000E-02  -4.44763906E-08
  -2.51499992E-02  -3.93704447E-08
  -2.51000002E-02  -4.23647180E-08
  -2.50499994E-02  -5.22346255E-08
  -2.50000004E-02  -6.44459277E-08
  -2.49499995E-02  -7.30855731E-08
  -2.49000005E-02  -7.34691881E-08
  -2.48499997E-02  -6.42730740E-08
  -2.48000007E-02  -4.82188867E-08
  -2.47499999E-02  -3.09612176E-08
  -2.47000009E-02  -1.86261744E-08
  -2.46500000E-02  -1.50685935E-08
  -2.45999992E-02  -2.00722248E-08
  -2.45500002E-02  -2.93286480E-08
  -2.44999994E-02  -3.62547752E-08
  -2.44500004E-02  -3.48836302E-08
  -2.43999995E-02  -2.25599344E-08
  -2.43500005E-02  -1.22426169E-09
  -2.42999997E-02   2.33304327E-08
  -2.42500007E-02   4.39514274E-08
  -2.41999999E-02   5.52958355E-08
  -2.41500009E-02   5.62717055E-08
  -2.41000000E-02   5.06345117E-08
  -2.40499992E-02   4.54213271E-08
  -2.40000002E-02   4.78686530E-08
  -2.39499994E-02   6.21585912E-08
  -2.39000004E-02   8.74501467E-08
  -2.38499995E-02   1.18114166E-07
  -2.38000005E-02   1.46124279E-07
  -2.37499997E-02   1.64585870E-07
  -2.37000007E-02   1.70847841E-07
  -2.36499999E-02   1.67789509E-07
  -2.36000009E-02   1.62657429E-07
  -2.35500000E-02   1.63912460E-07
  -2.34999992E-02   1.77452279E-07
  -2.34500002E-02   2.03889243E-07
  -2.33999994E-02   2.38131904E-07
  -2.33500004E-02   2.71515177E-07
  -2.32999995E-02   2.95585266E-07
  -2.32500006E-02   3.05881258E-07
  -2.31999997E-02   3.04016993E-07
  -2.31500007E-02   2.97087951E-07
  -2.30999999E-02   2.94605911E-07
  -2.30500009E-02   3.04278501E-07
  -2.30000000E-02   3.28500789E-07
  -2.29499992E-02   3.63148644E-07
  -2.29000002E-02   3.99268941E-07
  -2.28499994E-02   4.26975532E-07
  -2.28000004E-02   4.39853039E-07
  -2.27499995E-02   4.37904390E-07
  -2.27000006E-02   4.27688121E-07
  -2.26499997E-02   4.19520489E-07
  -2.26000007E-02   4.22932914E-07
  -2.25499999E-02   4.42383481E-07
  -2.25000009E-02   4.75150500E-07
  -2.24500000E-02   5.12400618E-07
  -2.23999992E-02   5.43019382E-07
  -2.23500002E-02   5.58546901E-07
  -2.22999994E-02   5.57027533E-07
  -2.22500004E-02   5.44026079E-07
  -2.21999995E-02   5.30295210E-07
  -2.21500006E-02   5.27070711E-07
  -2.20999997E-02   5.41055158E-07
  -2.20500007E-02   5.71332066E-07
  -2.19999999E-02   6.09633048E-07
  -2.19500009E-02   6.43906333E-07
  -2.19000001E-02   6.63652372E-07
  -2.18499992E-02   6.64671290E-07
  -2.18000002E-02   6.51081621E-07
  -2.17499994E-02   6.33654963E-07
  -2.17000004E-02   6.25139364E-07
  -2.16499995E-02   6.34609250E-07
  -2.16000006E-02   6.63352012E-07
  -2.15499997E-02   7.04165416E-07
  -2.15000007E-02   7.44442787E-07
  -2.14499999E-02   7.71734790E-07
  -2.14000009E-02   7.79341292E-07
  -2.13500001E-02   7.69433996E-07
  -2.12999992E-02   7.52264270E-07
  -2.12500002E-02   7.41739882E-07
  -2.11999994E-02   7.49289882E-07
  -2.11500004E-02   7.78730566E-07
  -2.10999995E-02   8.24447568E-07
  -2.10500006E-02   8.73766339E-07
  -2.09999997E-02   9.12520420E-07
  -2.09500007E-02   9.31377770E-07
  -2.08999999E-02   9.30114538E-07
  -2.08500009E-02   9.17885302E-07
  -2.08000001E-02   9.09303708E-07
  -2.07499992E-02   9.18020021E-07
  -2.07000002E-02   9.50623928E-07
  -2.06499994E-02   1.00360694E-06
  -2.06000004E-02   1.06479149E-06
  -2.05499995E-02   1.11865643E-06
  -2.05000006E-02   1.15323917E-06
  -2.04499997E-02   1.16554509E-06
  -2.04000007E-02   1.16303659E-06
  -2.03499999E-02   1.16046851E-06
  -2.03000009E-02   1.17341381E-06
  -2.02500001E-02   1.21132598E-06
  -2.01999992E-02   1.27323131E-06
  -2.01500002E-02   1.34801780E-06
  -2.00999994E-02   1.41925966E-06
  -2.00500004E-02   1.47248215E-06
  -1.99999996E-02   1.50165920E-06
  -1.99500006E-02   1.51202414E-06
  -1.98999997E-02   1.51789448E-06
  -1.98500007E-02   1.53641247E-06
  -1.97999999E-02   1.57993782E-06
  -1.97500009E-02   1.65046686E-06
  -1.97000001E-02   1.73860428E-06
  -1.96499992E-02   1.82760800E-06
  -1.96000002E-02   1.90076503E-06
  -1.95499994E-02   1.94884910E-06
  -1.95000004E-02   1.97433383E-06
  -1.94499996E-02   1.99044030E-06
  -1.94000006E-02   2.01537409E-06
  -1.93499997E-02   2.06426716E-06
  -1.93000007E-02   2.14238867E-06
  -1.92499999E-02   2.24267774E-06
  -1.92000009E-02   2.34874233E-06
  -1.91500001E-02   2.44205239E-06
  -1.90999992E-02   2.51018059E-06
  -1.90500002E-02   2.55241252E-06
  -1.89999994E-02   2.58020532E-06
  -1.89500004E-02   2.61222772E-06
  -1.88999996E-02   2.66613097E-06
  -1.88500006E-02   2.75068010E-06
  -1.87999997E-02   2.86176578E-06
  -1.87500007E-02   2.98410828E-06
  -1.86999999E-02   3.09796133E-06
  -1.86500009E-02   3.18787647E-06
  -1.86000001E-02   3.24964708E-06
  -1.85499992E-02   3.29232012E-06
  -1.85000002E-02   3.33431626E-06
  -1.84499994E-02   3.39534199E-06
  -1.84000004E-02   3.48764297E-06
  -1.83499996E-02   3.61049297E-06
  -1.83000006E-02   3.75041805E-06
  -1.82499997E-02   3.88709532E-06
  -1.82000007E-02   4.00235695E-06
  -1.81499999E-02   4.08833694E-06
  -1.81000009E-02   4.15109889E-06
  -1.80500001E-02   4.20811057E-06
  -1.79999992E-02   4.28060957E-06
  -1.79500002E-02   4.38420875E-06
  -1.78999994E-02   4.52194763E-06
  -1.78500004E-02   4.68286225E-06
  -1.77999996E-02   4.84677275E-06
  -1.77500006E-02   4.99323096E-06
  -1.76999997E-02   5.11065446E-06
  -1.76500008E-02   5.20160756E-06
  -1.75999999E-02   5.28183409E-06
  -1.75500009E-02   5.37340748E-06
  -1.75000001E-02   5.49501192E-06
  -1.74499992E-02   5.65364644E-06
  -1.74000002E-02   5.84146255E-06
  -1.73499994E-02   6.03918215E-06
  -1.73000004E-02   6.22462039E-06
  -1.72499996E-02   6.38257734E-06
  -1.72000006E-02   6.51169830E-06
  -1.71499997E-02   6.62522234E-06
  -1.71000008E-02   6.74525927E-06
  -1.70499999E-02   6.89306353E-06
  -1.70000009E-02   7.07963545E-06
  -1.69500001E-02   7.30080683E-06
  -1.68999992E-02   7.53904214E-06
  -1.68500002E-02   7.77117384E-06
  -1.67999994E-02   7.97872872E-06
  -1.67500004E-02   8.15623298E-06
  -1.66999996E-02   8.31375110E-06
  -1.66500006E-02   8.47256433E-06
  -1.65999997E-02   8.65584389E-06
  -1.65500008E-02   8.87841088E-06
  -1.64999999E-02   9.14013617E-06
  -1.64500009E-02   9.42597217E-06
  -1.64000001E-02   9.71256395E-06
  -1.63499992E-02   9.97863208E-06
  -1.63000003E-02   1.02144950E-05
  -1.62499994E-02   1.04264573E-05
  -1.62000004E-02   1.06341658E-05
  -1.61499996E-02   1.08619997E-05
  -1.61000006E-02   1.11282998E-05
  -1.60499997E-02   1.14372442E-05
  -1.60000008E-02   1.17769323E-05
  -1.59499999E-02   1.21246412E-05
  -1.59000009E-02   1.24569297E-05
  -1.58500001E-02   1.27600524E-05
  -1.57999992E-02   1.30361841E-05
  -1.57500003E-02   1.33025869E-05
  -1.56999994E-02   1.35840446E-05
  -1.56500004E-02   1.39019485E-05
  -1.55999996E-02   1.42648432E-05
  -1.55499997E-02   1.46645907E-05
  -1.54999997E-02   1.50799451E-05
  -1.54499998E-02   1.54859845E-05
  -1.53999999E-02   1.58651965E-05
  -1.53500000E-02   1.62153137E-05
  -1.53000001E-02   1.65504443E-05
  -1.52500002E-02   1.68948991E-05
  -1.52000003E-02   1.72725122E-05
  -1.51500003E-02   1.76961021E-05
  -1.51000004E-02   1.81617743E-05
  -1.50499996E-02   1.86506695E-05
  -1.49999997E-02   1.91373383E-05
  -1.49499997E-02   1.96010405E-05
  -1.48999998E-02   2.00350059E-05
  -1.48499999E-02   2.04495973E-05
  -1.48000000E-02   2.08677484E-05
  -1.47500001E-02   2.13149287E-05
  -1.47000002E-02   2.18078967E-05
  -1.46500003E-02   2.23472707E-05
  -1.46000003E-02   2.29173329E-05
  -1.45500004E-02   2.34929939E-05
  -1.44999996E-02   2.40509708E-05
  -1.44499997E-02   2.45801748E-05
  -1.43999998E-02   2.50867452E-05
  -1.43499998E-02   2.55914529E-05
  -1.42999999E-02   2.61205660E-05
  -1.42500000E-02   2.66943134E-05
  -1.42000001E-02   2.73179321E-05
  -1.41500002E-02   2.79794003E-05
  -1.41000003E-02   2.86548657E-05
  -1.40500003E-02   2.93192516E-05
  -1.40000004E-02   2.99575149E-05
  -1.39499996E-02   3.05713293E-05
  -1.38999997E-02   3.11784970E-05
  -1.38499998E-02   3.18052298E-05
  -1.37999998E-02   3.24745306E-05
  -1.37499999E-02   3.31961819E-05
  -1.37000000E-02   3.39624858E-05
  -1.36500001E-02   3.47517198E-05
  -1.36000002E-02   3.55377961E-05
  -1.35500003E-02   3.63019572E-05
  -1.35000004E-02   3.70412163E-05
  -1.34500004E-02   3.77697324E-05
  -1.33999996E-02   3.85126332E-05
  -1.33499997E-02   3.92950133E-05
  -1.32999998E-02   4.01309371E-05
  -1.32499998E-02   4.10173707E-05
  -1.31999999E-02   4.19355783E-05
  -1.31500000E-02   4.28594358E-05
  -1.31000001E-02   4.37671624E-05
  -1.30500002E-02   4.46510894E-05
  -1.30000003E-02   4.55211339E-05
  -1.29500004E-02   4.64004443E-05
  -1.29000004E-02   4.73153123E-05
  -1.28499996E-02   4.82835858E-05
  -1.27999997E-02   4.93069347E-05
  -1.27499998E-02   5.03701413E-05
  -1.26999998E-02   5.14480053E-05
  -1.26499999E-02   5.25167306E-05
  -1.26000000E-02   5.35643267E-05
  -1.25500001E-02   5.45961630E-05
  -1.25000002E-02   5.56326231E-05
  -1.24500003E-02   5.67000789E-05
  -1.24000004E-02   5.78194376E-05
  -1.23500004E-02   5.89969677E-05
  -1.22999996E-02   6.02215223E-05
  -1.22499997E-02   6.14696182E-05
  -1.21999998E-02   6.27158224E-05
  -1.21499998E-02   6.39442223E-05
  -1.20999999E-02   6.51555674E-05
  -1.20500000E-02   6.63668470E-05
  -1.20000001E-02   6.76039563E-05
  -1.19500002E-02   6.88904474E-05
  -1.19000003E-02   7.02371690E-05
  -1.18500004E-02   7.16374780E-05
  -1.18000004E-02   7.30705069E-05
  -1.17499996E-02   7.45104699E-05
  -1.16999997E-02   7.59379982E-05
  -1.16499998E-02   7.73487118E-05
  -1.15999999E-02   7.87553217E-05
  -1.15499999E-02   8.01819042E-05
  -1.15000000E-02   8.16532338E-05
  -1.14500001E-02   8.31839498E-05
  -1.14000002E-02   8.47723277E-05
  -1.13500003E-02   8.64009999E-05
  -1.13000004E-02   8.80448060E-05
  -1.12500004E-02   8.96819620E-05
  -1.11999996E-02   9.13038166E-05
  -1.11499997E-02   9.29189773E-05
  -1.10999998E-02   9.45491993E-05
  -1.10499999E-02   9.62200429E-05
  -1.09999999E-02   9.79498291E-05
  -1.09500000E-02   9.97416137E-05
  -1.09000001E-02   1.01581820E-04
  -1.08500002E-02   1.03446328E-04
  -1.08000003E-02   1.05311243E-04
  -1.07500004E-02   1.07163243E-04
  -1.07000005E-02   1.09005465E-04
  -1.06499996E-02   1.10856199E-04
  -1.05999997E-02   1.12740483E-04
  -1.05499998E-02   1.14679540E-04
  -1.04999999E-02   1.16681746E-04
  -1.04499999E-02   1.18738397E-04
  -1.04000000E-02   1.20828132E-04
  -1.03500001E-02   1.22926329E-04
  -1.03000002E-02   1.25016028E-04
  -1.02500003E-02   1.27095482E-04
  -1.02000004E-02   1.29178574E-04
  -1.01500005E-02   1.31289475E-04
  -1.00999996E-02   1.33451846E-04
  -1.00499997E-02   1.35677983E-04
  -9.99999978E-03   1.37964191E-04
  -9.94999986E-03   1.40292119E-04
  -9.89999995E-03   1.42636913E-04
  -9.85000003E-03   1.44978316E-04
  -9.80000012E-03   1.47309183E-04
  -9.75000020E-03   1.49639178E-04
  -9.70000029E-03   1.51990229E-04
  -9.65000037E-03   1.54386595E-04
  -9.60000046E-03   1.56844777E-04
  -9.54999961E-03   1.59365751E-04
  -9.49999969E-03   1.61934513E-04
  -9.44999978E-03   1.64527286E-04
  -9.39999986E-03   1.67121339E-04
  -9.34999995E-03   1.69704959E-04
  -9.30000003E-03   1.72283020E-04
  -9.25000012E-03   1.74874644E-04
  -9.20000020E-03   1.77505368E-04
  -9.15000029E-03   1.80195231E-04
  -9.10000037E-03   1.82950214E-04
  -9.05000046E-03   1.85760480E-04
  -8.99999961E-03   1.88603692E-04
  -8.94999970E-03   1.91455198E-04
  -8.89999978E-03   1.94299137E-04
  -8.84999987E-03   1.97135014E-04
  -8.79999995E-03   1.99977672E-04
  -8.75000004E-03   2.02850773E-04
  -8.70000012E-03   2.05776014E-04
  -8.65000021E-03   2.08764002E-04
  -8.60000029E-03   2.11809660E-04
  -8.55000038E-03   2.14893793E-04
  -8.50000046E-03   2.17991037E-04
  -8.44999962E-03   2.21081500E-04
  -8.39999970E-03   2.24159288E-04
  -8.34999979E-03   2.27234690E-04
  -8.29999987E-03   2.30330028E-04
  -8.24999996E-03   2.33469065E-04
  -8.20000004E-03   2.36666456E-04
  -8.15000013E-03   2.39921676E-04
  -8.10000021E-03   2.43219663E-04
  -8.05000030E-03   2.46536278E-04
  -8.00000038E-03   2.49849196E-04
  -7.95000046E-03   2.53147533E-04
  -7.89999962E-03   2.56436295E-04
  -7.84999970E-03   2.59734981E-04
  -7.79999979E-03   2.63067894E-04
  -7.74999987E-03   2.66453455E-04
  -7.69999996E-03   2.69895972E-04
  -7.65000004E-03   2.73383397E-04
  -7.60000013E-03   2.76892155E-04
  -7.55000021E-03   2.80396634E-04
  -7.49999983E-03   2.83880159E-04
  -7.44999992E-03   2.87342322E-04
  -7.40000000E-03   2.90798635E-04
  -7.35000009E-03   2.94273981E-04
  -7.30000017E-03   2.97791295E-04
  -7.24999979E-03   3.01360706E-04
  -7.19999988E-03   3.04975343E-04
  -7.14999996E-03   3.08612944E-04
  -7.10000005E-03   3.12246208E-04
  -7.05000013E-03   3.15854501E-04
  -7.00000022E-03   3.19431594E-04
  -6.94999984E-03   3.22989217E-04
  -6.89999992E-03   3.26551875E-04
  -6.85000001E-03   3.30144743E-04
  -6.80000009E-03   3.33781936E-04
  -6.75000018E-03   3.37460078E-04
  -6.69999979E-03   3.41160834E-04
  -6.64999988E-03   3.44856671E-04
  -6.59999996E-03   3.48522124E-04
  -6.55000005E-03   3.52146046E-04
  -6.50000013E-03   3.55734577E-04
  -6.45000022E-03   3.59309401E-04
  -6.39999984E-03   3.62896564E-04
  -6.34999992E-03   3.66514316E-04
  -6.30000001E-03   3.70166847E-04
  -6.25000009E-03   3.73838557E-04
  -6.20000018E-03   3.77502205E-04
  -6.14999980E-03   3.81129474E-04
  -6.09999988E-03   3.84701940E-04
  -6.04999997E-03   3.88220273E-04
  -6.00000005E-03   3.91702430E-04
  -5.95000014E-03   3.95175273E-04
  -5.90000022E-03   3.98663396E-04
  -5.84999984E-03   4.02176636E-04
  -5.79999993E-03   4.05704573E-04
  -5.75000001E-03   4.09221422E-04
  -5.70000010E-03   4.12696565E-04
  -5.65000018E-03   4.16106195E-04
  -5.59999980E-03   4.19442629E-04
  -5.54999989E-03   4.22718324E-04
  -5.49999997E-03   4.25960665E-04
  -5.45000006E-03   4.29198029E-04
  -5.40000014E-03   4.32445668E-04
  -5.35000023E-03   4.35699330E-04
  -5.29999984E-03   4.38934920E-04
  -5.24999993E-03   4.42119956E-04
  -5.20000001E-03   4.45225218E-04
  -5.15000010E-03   4.48236824E-04
  -5.10000018E-03   4.51162254E-04
  -5.04999980E-03   4.54024936E-04
  -4.99999989E-03   4.56854003E-04
  -4.94999997E-03   4.59671894E-04
  -4.90000006E-03   4.62482712E-04
  -4.85000014E-03   4.65267542E-04
  -4.80000023E-03   4.67993581E-04
  -4.74999985E-03   4.70626313E-04
  -4.69999993E-03   4.73145221E-04
  -4.65000002E-03   4.75551671E-04
  -4.60000010E-03   4.77865717E-04
  -4.55000019E-03   4.80116258E-04
  -4.49999981E-03   4.82328003E-04
  -4.44999989E-03   4.84510500E-04
  -4.39999998E-03   4.86652250E-04
  -4.35000006E-03   4.88724385E-04
  -4.30000015E-03   4.90690582E-04
  -4.25000023E-03   4.92522959E-04
  -4.19999985E-03   4.94212203E-04
  -4.14999994E-03   4.95770306E-04
  -4.10000002E-03   4.97226487E-04
  -4.05000011E-03   4.98611073E-04
  -4.00000019E-03   4.99942398E-04
  -3.94999981E-03   5.01217146E-04
  -3.89999989E-03   5.02408075E-04
  -3.84999998E-03   5.03477175E-04
  -3.80000006E-03   5.04387484E-04
  -3.74999992E-03   5.05119155E-04
  -3.70000000E-03   5.05679345E-04
  -3.65000009E-03   5.06094832E-04
  -3.59999994E-03   5.06401178E-04
  -3.55000002E-03   5.06625336E-04
  -3.50000011E-03   5.06772893E-04
  -3.44999996E-03   5.06822602E-04
  -3.40000005E-03   5.06732031E-04
  -3.34999990E-03   5.06456883E-04
  -3.29999998E-03   5.05969394E-04
  -3.25000007E-03   5.05268516E-04
  -3.19999992E-03   5.04377764E-04
  -3.15000000E-03   5.03334508E-04
  -3.10000009E-03   5.02172508E-04
  -3.04999994E-03   5.00907539E-04
  -3.00000003E-03   4.99523769E-04
  -2.95000011E-03   4.97981033E-04
  -2.89999996E-03   4.96231019E-04
  -2.85000005E-03   4.94233274E-04
  -2.79999990E-03   4.91975108E-04
  -2.74999999E-03   4.89474915E-04
  -2.70000007E-03   4.86769190E-04
  -2.64999992E-03   4.83897165E-04
  -2.60000001E-03   4.80885967E-04
  -2.55000009E-03   4.77730791E-04
  -2.49999994E-03   4.74398199E-04
  -2.45000003E-03   4.70837898E-04
  -2.40000011E-03   4.67000471E-04
  -2.34999997E-03   4.62858618E-04
  -2.30000005E-03   4.58419119E-04
  -2.24999990E-03   4.53716406E-04
  -2.19999999E-03   4.48796287E-04
  -2.15000007E-03   4.43696859E-04
  -2.09999993E-03   4.38427145E-04
  -2.05000001E-03   4.32961649E-04
  -2.00000009E-03   4.27247462E-04
  -1.94999995E-03   4.21224919E-04
  -1.90000003E-03   4.14853828E-04
  -1.85000000E-03   4.08125517E-04
  -1.79999997E-03   4.01067868E-04
  -1.75000005E-03   3.93736264E-04
  -1.70000002E-03   3.86182481E-04
  -1.64999999E-03   3.78429657E-04
  -1.59999996E-03   3.70460941E-04
  -1.55000004E-03   3.62223102E-04
  -1.50000001E-03   3.53649841E-04
  -1.44999998E-03   3.44682863E-04
  -1.39999995E-03   3.35294870E-04
  -1.35000004E-03   3.25508969E-04
  -1.30000000E-03   3.15381883E-04
  -1.24999997E-03   3.04979127E-04
  -1.20000006E-03   2.94343801E-04
  -1.15000003E-03   2.83474044E-04
  -1.09999999E-03   2.72322650E-04
  -1.04999996E-03   2.60814704E-04
  -1.00000005E-03   2.48877419E-04
  -9.50000016E-04   2.36463980E-04
  -8.99999985E-04   2.23580631E-04
  -8.50000011E-04   2.10282567E-04
  -7.99999980E-04   1.96646390E-04
  -7.50000007E-04   1.82737349E-04
  -6.99999975E-04   1.68576647E-04
  -6.50000002E-04   1.54122899E-04
  -6.00000028E-04   1.39291922E-04
  -5.49999997E-04   1.23992722E-04
  -5.00000024E-04   1.08158005E-04
  -4.49999992E-04   9.17782745E-05
  -3.99999990E-04   7.49046230E-05
  -3.49999988E-04   5.76260863E-05
  -3.00000014E-04   4.00297395E-05
  -2.50000012E-04   2.21587688E-05
  -1.99999995E-04   3.98839211E-06
  -1.50000007E-04  -1.45668100E-05
  -9.99999975E-05  -3.36185440E-05
  -4.99999987E-05  -5.32559934E-05
   0.00000000      -7.35069698E-05
   4.99999987E-05  -9.43299165E-05
   9.99999975E-05  -1.15630100E-04
   1.50000007E-04  -1.37301729E-04
   1.99999995E-04  -1.59275121E-04
   2.50000012E-04  -1.81554235E-04
   3.00000014E-04  -2.04220283E-04
   3.49999988E-04  -2.27401761E-04
   3.99999990E-04  -2.51217629E-04
   4.49999992E-04  -2.75724946E-04
   5.00000024E-04  -3.00892832E-04
   5.49999997E-04  -3.26614740E-04
   6.00000028E-04  -3.52761650E-04
   6.50000002E-04  -3.79237463E-04
   6.99999975E-04  -4.06021776E-04
   7.50000007E-04  -4.33185720E-04
   7.99999980E-04  -4.60865762E-04
   8.50000011E-04  -4.89205762E-04
   8.99999985E-04  -5.18295856E-04
   9.50000016E-04  -5.48129901E-04
   1.00000005E-03  -5.78608538E-04
   1.04999996E-03  -6.09579962E-04
   1.09999999E-03  -6.40907325E-04
   1.15000003E-03  -6.72538474E-04
   1.20000006E-03  -7.04530918E-04
   1.24999997E-03  -7.37027789E-04
   1.30000000E-03  -7.70201208E-04
   1.35000004E-03  -8.04177311E-04
   1.39999995E-03  -8.38977518E-04
   1.44999998E-03  -8.74508347E-04
   1.50000001E-03  -9.10603034E-04
   1.55000004E-03  -9.47092427E-04
   1.59999996E-03  -9.83883627E-04
   1.64999999E-03  -1.02100859E-03
   1.70000002E-03  -1.05861563E-03
   1.75000005E-03  -1.09690370E-03
   1.79999997E-03  -1.13603508E-03
   1.85000000E-03  -1.17606367E-03
   1.90000003E-03  -1.21690915E-03
   1.94999995E-03  -1.25839061E-03
   2.00000009E-03  -1.30030629E-03
   2.05000001E-03  -1.34251860E-03
   2.09999993E-03  -1.38501986E-03
   2.15000007E-03  -1.42794731E-03
   2.19999999E-03  -1.47152040E-03
   2.24999990E-03  -1.51594670E-03
   2.30000005E-03  -1.56133040E-03
   2.34999997E-03  -1.60761701E-03
   2.40000011E-03  -1.65462191E-03
   2.45000003E-03  -1.70211319E-03
   2.49999994E-03  -1.74990785E-03
   2.55000009E-03  -1.79795502E-03
   2.60000001E-03  -1.84635981E-03
   2.64999992E-03  -1.89534284E-03
   2.70000007E-03  -1.94514776E-03
   2.74999999E-03  -1.99593371E-03
   2.79999990E-03  -2.04770174E-03