  -3.99999991E-02   0.00000000    
  -3.99499983E-02   0.00000000    
  -3.99000011E-02   0.00000000    
  -3.98500003E-02   0.00000000    
  -3.97999994E-02   1.11356140E-18
  -3.97499986E-02   9.00736408E-18
  -3.97000015E-02   3.89538607E-17
  -3.96500006E-02   1.18402540E-16
  -3.95999998E-02   2.81351311E-16
  -3.95499989E-02   5.52481793E-16
  -3.95000018E-02   9.27434479E-16
  -3.94500010E-02   1.36267368E-15
  -3.94000001E-02   1.78710336E-15
  -3.93499993E-02   2.13650275E-15
  -3.92999984E-02   2.39690165E-15
  -3.92500013E-02   2.63330261E-15
  -3.92000005E-02   2.98194963E-15
  -3.91499996E-02   3.59866225E-15
  -3.90999988E-02   4.57817158E-15
  -3.90500017E-02   5.88050337E-15
  -3.90000008E-02   7.30725329E-15
  -3.89500000E-02   8.55340308E-15
  -3.88999991E-02   9.32225234E-15
  -3.88499983E-02   9.45166203E-15
  -3.88000011E-02   8.98441156E-15
  -3.87500003E-02   8.13714229E-15
  -3.86999995E-02   7.17124859E-15
  -3.86499986E-02   6.21938473E-15
  -3.86000015E-02   5.14798589E-15
  -3.85500006E-02   3.52733996E-15
  -3.84999998E-02   7.38419659E-16
  -3.84499989E-02  -3.81623113E-15
  -3.84000018E-02  -1.04875113E-14
  -3.83500010E-02  -1.92515596E-14
  -3.83000001E-02  -2.97526828E-14
  -3.82499993E-02  -4.15075519E-14
  -3.81999984E-02  -5.41738183E-14
  -3.81500013E-02  -6.77500590E-14
  -3.81000005E-02  -8.26123024E-14
  -3.80499996E-02  -9.93790553E-14
  -3.79999988E-02  -1.18680361E-13
  -3.79500017E-02  -1.40943098E-13
  -3.79000008E-02  -1.66285930E-13
  -3.78500000E-02  -1.94558359E-13
  -3.77999991E-02  -2.25485903E-13
  -3.77499983E-02  -2.58826597E-13
  -3.77000012E-02  -2.94435808E-13
  -3.76500003E-02  -3.32192363E-13
  -3.75999995E-02  -3.71836161E-13
  -3.75499986E-02  -4.12842314E-13
  -3.75000015E-02  -4.54441254E-13
  -3.74500006E-02  -4.95787710E-13
  -3.73999998E-02  -5.36154454E-13
  -3.73499990E-02  -5.74979138E-13
  -3.73000018E-02  -6.11676996E-13
  -3.72500010E-02  -6.45295883E-13
  -3.72000001E-02  -6.74236003E-13
  -3.71499993E-02  -6.96288242E-13
  -3.70999984E-02  -7.09124545E-13
  -3.70500013E-02  -7.11139697E-13
  -3.70000005E-02  -7.02284639E-13
  -3.69499996E-02  -6.84384244E-13
  -3.68999988E-02  -6.60533314E-13
  -3.68500017E-02  -6.33548390E-13
  -3.68000008E-02  -6.03996020E-13
  -3.67500000E-02  -5.68732941E-13
  -3.66999991E-02  -5.20882274E-13
  -3.66499983E-02  -4.51630758E-13
  -3.66000012E-02  -3.53360787E-13
  -3.65500003E-02  -2.22842402E-13
  -3.64999995E-02  -6.29397386E-14
  -3.64499986E-02   1.18254649E-13
  -3.64000015E-02   3.10862013E-13
  -3.63500006E-02   5.07958042E-13
  -3.62999998E-02   7.09447529E-13
  -3.62499990E-02   9.22936640E-13
  -3.62000018E-02   1.16061121E-12
  -3.61500010E-02   1.43300736E-12
  -3.61000001E-02   1.74234488E-12
  -3.60499993E-02   2.07879677E-12
  -3.59999985E-02   2.42213823E-12
  -3.59500013E-02   2.74887643E-12
  -3.59000005E-02   3.04219692E-12
  -3.58499996E-02   3.30024094E-12
  -3.57999988E-02   3.53834995E-12
  -3.57500017E-02   3.78321246E-12
  -3.57000008E-02   4.06050974E-12
  -3.56500000E-02   4.38109011E-12
  -3.55999991E-02   4.73219207E-12
  -3.55499983E-02   5.07873344E-12
  -3.55000012E-02   5.37545052E-12
  -3.54500003E-02   5.58542405E-12
  -3.53999995E-02   5.69677161E-12
  -3.53499986E-02   5.72910122E-12
  -3.53000015E-02   5.72526792E-12
  -3.52500007E-02   5.73064252E-12
  -3.51999998E-02   5.76846340E-12
  -3.51499990E-02   5.82286216E-12
  -3.51000018E-02   5.83886195E-12
  -3.50500010E-02   5.74162419E-12
  -3.50000001E-02   5.46814547E-12
  -3.49499993E-02   4.99772749E-12
  -3.48999985E-02   4.36640437E-12
  -3.48500013E-02   3.65644450E-12
  -3.48000005E-02   2.96300224E-12
  -3.47499996E-02   2.35124832E-12
  -3.46999988E-02   1.82335744E-12
  -3.46500017E-02   1.31211220E-12
  -3.46000008E-02   7.06912068E-13
  -3.45500000E-02  -9.68933999E-14
  -3.44999991E-02  -1.14648406E-12
  -3.44499983E-02  -2.40217546E-12
  -3.44000012E-02  -3.74635999E-12
  -3.43500003E-02  -5.03032338E-12
  -3.42999995E-02  -6.14030918E-12
  -3.42499986E-02  -7.05313065E-12
  -3.42000015E-02  -7.85364742E-12
  -3.41500007E-02  -8.70197317E-12
  -3.40999998E-02  -9.76111379E-12
  -3.40499990E-02  -1.11156995E-11
  -3.40000018E-02  -1.27195953E-11
  -3.39500010E-02  -1.43999934E-11
  -3.39000002E-02  -1.59213181E-11
  -3.38499993E-02  -1.70842229E-11
  -3.37999985E-02  -1.78161843E-11
  -3.37500013E-02  -1.82102684E-11
  -3.37000005E-02  -1.84893888E-11
  -3.36499996E-02  -1.89066245E-11
  -3.35999988E-02  -1.96233446E-11
  -3.35500017E-02  -2.06209477E-11
  -3.35000008E-02  -2.16908054E-11
  -3.34500000E-02  -2.25136767E-11
  -3.33999991E-02  -2.27984454E-11
  -3.33499983E-02  -2.24194587E-11
  -3.33000012E-02  -2.14874629E-11
  -3.32500003E-02  -2.03151593E-11
  -3.31999995E-02  -1.92849191E-11
  -3.31499986E-02  -1.86728671E-11
  -3.31000015E-02  -1.85083546E-11
  -3.30500007E-02  -1.85374580E-11
  -3.29999998E-02  -1.83157187E-11
  -3.29499990E-02  -1.73967334E-11
  -3.29000019E-02  -1.55358226E-11
  -3.28500010E-02  -1.28150494E-11
  -3.28000002E-02  -9.62587215E-12
  -3.27499993E-02  -6.50772231E-12
  -3.26999985E-02  -3.90806137E-12
  -3.26500013E-02  -1.97063047E-12
  -3.26000005E-02  -4.52651236E-13
  -3.25499997E-02   1.18167921E-12
  -3.24999988E-02   3.52339143E-12
  -3.24500017E-02   6.93820001E-12
  -3.24000008E-02   1.13716103E-11
  -3.23500000E-02   1.63366837E-11
  -3.22999991E-02   2.11025850E-11
  -3.22499983E-02   2.50095257E-11
  -3.22000012E-02   2.77718976E-11
  -3.21500003E-02   2.96277967E-11
  -3.20999995E-02   3.12555815E-11
  -3.20499986E-02   3.34814607E-11
  -3.20000015E-02   3.69005555E-11
  -3.19500007E-02   4.15816860E-11
  -3.18999998E-02   4.69975725E-11
  -3.18499990E-02   5.22257862E-11
  -3.18000019E-02   5.63430656E-11
  -3.17500010E-02   5.88413415E-11
  -3.17000002E-02   5.98737310E-11
  -3.16499993E-02   6.02067771E-11
  -3.15999985E-02   6.08843670E-11
  -3.15500014E-02   6.27429081E-11
  -3.15000005E-02   6.59943836E-11
  -3.14499997E-02   7.00746475E-11
  -3.13999988E-02   7.38427791E-11
  -3.13500017E-02   7.60592075E-11
  -3.13000008E-02   7.59376451E-11
  -3.12500000E-02   7.35201275E-11
  -3.11999992E-02   6.96928348E-11
  -3.11500002E-02   6.58161928E-11
  -3.10999993E-02   6.31190308E-11
  -3.10500003E-02   6.21234314E-11
  -3.09999995E-02   6.23660013E-11
  -3.09500005E-02   6.25585903E-11
  -3.08999997E-02   6.11360892E-11
  -3.08500007E-02   5.69583200E-11
  -3.07999998E-02   4.98507624E-11
  -3.07500008E-02   4.07277059E-11
  -3.07000000E-02   3.12216190E-11
  -3.06499992E-02   2.29660561E-11
  -3.06000002E-02   1.68459587E-11
  -3.05499993E-02   1.25590059E-11
  -3.05000003E-02   8.70454663E-12
  -3.04499995E-02   3.38429046E-12
  -3.04000005E-02  -4.93711712E-12
  -3.03499997E-02  -1.66943750E-11
  -3.03000007E-02  -3.09505026E-11
  -3.02499998E-02  -4.57378233E-11
  -3.02000009E-02  -5.88822116E-11
  -3.01500000E-02  -6.89546267E-11
  -3.00999992E-02  -7.59204019E-11
  -3.00500002E-02  -8.11767042E-11
  -2.99999993E-02  -8.69360764E-11
  -2.99500003E-02  -9.52113111E-11
  -2.98999995E-02  -1.06850508E-10
  -2.98500005E-02  -1.21066171E-10
  -2.97999997E-02  -1.35694470E-10
  -2.97500007E-02  -1.48096146E-10
  -2.96999998E-02  -1.56312963E-10
  -2.96500009E-02  -1.59961572E-10
  -2.96000000E-02  -1.60445310E-10
  -2.95499992E-02  -1.60359379E-10
  -2.95000002E-02  -1.62328900E-10
  -2.94499993E-02  -1.67786909E-10
  -2.94000003E-02  -1.76247447E-10
  -2.93499995E-02  -1.85423718E-10
  -2.93000005E-02  -1.92169961E-10
  -2.92499997E-02  -1.93849187E-10
  -2.92000007E-02  -1.89520857E-10
  -2.91499998E-02  -1.80402610E-10
  -2.91000009E-02  -1.69371059E-10
  -2.90500000E-02  -1.59695784E-10
  -2.89999992E-02  -1.53556140E-10
  -2.89500002E-02  -1.51008844E-10
  -2.88999993E-02  -1.49891807E-10
  -2.88500004E-02  -1.46740328E-10
  -2.87999995E-02  -1.38333497E-10
  -2.87500005E-02  -1.23188806E-10
  -2.86999997E-02  -1.02323039E-10
  -2.86500007E-02  -7.89085464E-11
  -2.85999998E-02  -5.69431932E-11
  -2.85500009E-02  -3.95043859E-11
  -2.85000000E-02  -2.73650911E-11
  -2.84499992E-02  -1.86104604E-11
  -2.84000002E-02  -9.46040468E-12
  -2.83499993E-02   4.03685722E-12
  -2.83000004E-02   2.41806939E-11
  -2.82499995E-02   5.04854492E-11
  -2.82000005E-02   7.97731881E-11
  -2.81499997E-02   1.07485895E-10
  -2.81000007E-02   1.29658506E-10
  -2.80499998E-02   1.44677756E-10
  -2.80000009E-02   1.54023613E-10
  -2.79500000E-02   1.61627267E-10
  -2.78999992E-02   1.72096851E-10
  -2.78500002E-02   1.88581997E-10
  -2.77999993E-02   2.11234738E-10
  -2.77500004E-02   2.36982184E-10
  -2.76999995E-02   2.60753280E-10
  -2.76500005E-02   2.77648099E-10
  -2.75999997E-02   2.85097196E-10
  -2.75500007E-02   2.84036406E-10
  -2.74999999E-02   2.78539830E-10
  -2.74500009E-02   2.74035517E-10
  -2.74000000E-02   2.74870737E-10
  -2.73499992E-02   2.82308482E-10
  -2.73000002E-02   2.93868846E-10
  -2.72499993E-02   3.04346687E-10
  -2.72000004E-02   3.08087805E-10
  -2.71499995E-02   3.01527331E-10
  -2.71000005E-02   2.84851753E-10
  -2.70499997E-02   2.62012329E-10
  -2.70000007E-02   2.39042841E-10
  -2.69499999E-02   2.21399274E-10
  -2.69000009E-02   2.11497556E-10
  -2.68500000E-02   2.07565340E-10
  -2.67999992E-02   2.04357628E-10
  -2.67500002E-02   1.95459773E-10
  -2.66999993E-02   1.76178155E-10
  -2.66500004E-02   1.45731274E-10
  -2.65999995E-02   1.07738957E-10
  -2.65500005E-02   6.87511784E-11
  -2.64999997E-02   3.54348738E-11
  -2.64500007E-02   1.16549695E-11
  -2.63999999E-02  -3.23918496E-12
  -2.63500009E-02  -1.41253016E-11
  -2.63000000E-02  -2.79052666E-11
  -2.62499992E-02  -5.03398746E-11
  -2.62000002E-02  -8.33270120E-11
  -2.61499994E-02  -1.23859381E-10
  -2.61000004E-02  -1.65167796E-10
  -2.60499995E-02  -1.99582156E-10
  -2.60000005E-02  -2.21859253E-10
  -2.59499997E-02  -2.31489800E-10
  -2.59000007E-02  -2.32925707E-10
  -2.58499999E-02  -2.33582625E-10
  -2.58000009E-02  -2.40470366E-10
  -2.57500000E-02  -2.56937610E-10
  -2.56999992E-02  -2.80996365E-10
  -2.56500002E-02  -3.06009079E-10
  -2.55999994E-02  -3.23475635E-10
  -2.55500004E-02  -3.26708494E-10
  -2.54999995E-02  -3.13762322E-10
  -2.54500005E-02  -2.88290419E-10
  -2.53999997E-02  -2.57906807E-10
  -2.53500007E-02  -2.30747213E-10
  -2.52999999E-02  -2.11744053E-10
  -2.52500009E-02  -2.00286107E-10
  -2.52000000E-02  -1.90340688E-10
  -2.51499992E-02  -1.73028453E-10
  -2.51000002E-02  -1.40538636E-10
  -2.50499994E-02  -8.96510435E-11
  -2.50000004E-02  -2.32775917E-11
  -2.49499995E-02   5.07010926E-11
  -2.49000005E-02   1.22826666E-10
  -2.48499997E-02   1.86196322E-10
  -2.48000007E-02   2.39496450E-10
  -2.47499999E-02   2.87559337E-10
  -2.47000009E-02   3.39156481E-10
  -2.46500000E-02   4.02978123E-10
  -2.45999992E-02   4.83577123E-10
  -2.45500002E-02   5.79096715E-10
  -2.44999994E-02   6.81827150E-10
  -2.44500004E-02   7.81380738E-10
  -2.43999995E-02   8.69094463E-10
  -2.43500005E-02   9.41699385E-10
  -2.42999997E-02   1.00259656E-09
  -2.42500007E-02   1.06013032E-09
  -2.41999999E-02   1.12359444E-09
  -2.41500009E-02   1.19872923E-09
  -2.41000000E-02   1.28472721E-09
  -2.40499992E-02   1.37411249E-09
  -2.40000002E-02   1.45558798E-09
  -2.39499994E-02   1.51861390E-09
  -2.39000004E-02   1.55768864E-09
  -2.38499995E-02   1.57441171E-09
  -2.38000005E-02   1.57637947E-09
  -2.37499997E-02   1.57337454E-09
  -2.37000007E-02   1.57253022E-09
  -2.36499999E-02   1.57462721E-09
  -2.36000009E-02   1.57320013E-09
  -2.35500000E-02   1.55688384E-09
  -2.34999992E-02   1.51398449E-09
  -2.34500002E-02   1.43724432E-09
  -2.33999994E-02   1.32666589E-09
  -2.33500004E-02   1.18910892E-09
  -2.32999995E-02   1.03480646E-09
  -2.32500006E-02   8.72335704E-10
  -2.31999997E-02   7.04284686E-10
  -2.31500007E-02   5.25566146E-10
  -2.30999999E-02   3.25162203E-10
  -2.30500009E-02   9.05478123E-11
  -2.30000000E-02  -1.87162411E-10
  -2.29499992E-02  -5.09647102E-10
  -2.29000002E-02  -8.70996220E-10
  -2.28499994E-02  -1.26070887E-09
  -2.28000004E-02  -1.66874614E-09
  -2.27499995E-02  -2.09038631E-09
  -2.27000006E-02  -2.52869770E-09
  -2.26499997E-02  -2.99350522E-09
  -2.26000007E-02  -3.49729024E-09
  -2.25499999E-02  -4.04984979E-09
  -2.25000009E-02  -4.65410377E-09
  -2.24500000E-02  -5.30494226E-09
  -2.23999992E-02  -5.99165606E-09
  -2.23500002E-02  -6.70287426E-09
  -2.22999994E-02  -7.43181428E-09
  -2.22500004E-02  -8.17948376E-09
  -2.21999995E-02  -8.95439456E-09
  -2.21500006E-02  -9.76889414E-09
  -2.20999997E-02  -1.06337534E-08
  -2.20500007E-02  -1.15534196E-08
  -2.19999999E-02  -1.25240867E-08
  -2.19500009E-02  -1.35354510E-08
  -2.19000001E-02  -1.45753551E-08
  -2.18499992E-02  -1.56352851E-08
  -2.18000002E-02  -1.67141962E-08
  -2.17499994E-02  -1.78190067E-08
  -2.17000004E-02  -1.89614617E-08
  -2.16499995E-02  -2.01528305E-08
  -2.16000006E-02  -2.13987743E-08
  -2.15499997E-02  -2.26967103E-08
  -2.15000007E-02  -2.40368774E-08
  -2.14499999E-02  -2.54066013E-08
  -2.14000009E-02  -2.67958757E-08
  -2.13500001E-02  -2.82017592E-08
  -2.12999992E-02  -2.96296001E-08
  -2.12500002E-02  -3.10905470E-08
  -2.11999994E-02  -3.25965033E-08
  -2.11500004E-02  -3.41547199E-08
  -2.10999995E-02  -3.57645398E-08
  -2.10500006E-02  -3.74177169E-08
  -2.09999997E-02  -3.91021473E-08
  -2.09500007E-02  -4.08073362E-08
  -2.08999999E-02  -4.25291624E-08
  -2.08500009E-02  -4.42717329E-08
  -2.08000001E-02  -4.60455674E-08
  -2.07499992E-02  -4.78628799E-08
  -2.07000002E-02  -4.97321615E-08
  -2.06499994E-02  -5.16544496E-08
  -2.06000004E-02  -5.36230012E-08
  -2.05499995E-02  -5.56264972E-08
  -2.05000006E-02  -5.76543435E-08
  -2.04499997E-02  -5.97016552E-08
  -2.04000007E-02  -6.17716864E-08
  -2.03499999E-02  -6.38746656E-08
  -2.03000009E-02  -6.60234889E-08
  -2.02500001E-02  -6.82283670E-08
  -2.01999992E-02  -7.04927317E-08
  -2.01500002E-02  -7.28122913E-08
  -2.00999994E-02  -7.51776454E-08
  -2.00500004E-02  -7.75792159E-08
  -1.99999996E-02  -8.00122919E-08
  -1.99500006E-02  -8.24798647E-08
  -1.98999997E-02  -8.49919886E-08
  -1.98500007E-02  -8.75620287E-08
  -1.97999999E-02  -9.02014108E-08
  -1.97500009E-02  -9.29154140E-08
  -1.97000001E-02  -9.57017292E-08
  -1.96499992E-02  -9.85525972E-08
  -1.96000002E-02  -1.01459328E-07
  -1.95499994E-02  -1.04417381E-07
  -1.95000004E-02  -1.07429457E-07
  -1.94499996E-02  -1.10505397E-07
  -1.94000006E-02  -1.13658942E-07
  -1.93499997E-02  -1.16902712E-07
  -1.93000007E-02  -1.20243953E-07
  -1.92499999E-02  -1.23682710E-07
  -1.92000009E-02  -1.27213426E-07
  -1.91500001E-02  -1.30829108E-07
  -1.90999992E-02  -1.34526033E-07
  -1.90500002E-02  -1.38307058E-07
  -1.89999994E-02  -1.42181875E-07
  -1.89500004E-02  -1.46164084E-07
  -1.88999996E-02  -1.50266672E-07
  -1.88500006E-02  -1.54497755E-07
  -1.87999997E-02  -1.58858612E-07
  -1.87500007E-02  -1.63344936E-07
  -1.86999999E-02  -1.67950660E-07
  -1.86500009E-02  -1.72672429E-07
  -1.86000001E-02  -1.77512945E-07
  -1.85499992E-02  -1.82481458E-07
  -1.85000002E-02  -1.87591183E-07
  -1.84499994E-02  -1.92855140E-07
  -1.84000004E-02  -1.98281967E-07
  -1.83499996E-02  -2.03874094E-07
  -1.83000006E-02  -2.09628524E-07
  -1.82499997E-02  -2.15540453E-07
  -1.82000007E-02  -2.21607465E-07
  -1.81499999E-02  -2.27832714E-07
  -1.81000009E-02  -2.34225411E-07
  -1.80500001E-02  -2.40798670E-07
  -1.79999992E-02  -2.47565254E-07
  -1.79500002E-02  -2.54534029E-07
  -1.78999994E-02  -2.61707754E-07
  -1.78500004E-02  -2.69084211E-07
  -1.77999996E-02  -2.76659279E-07
  -1.77500006E-02  -2.84431081E-07
  -1.76999997E-02  -2.92402973E-07
  -1.76500008E-02  -3.00584134E-07
  -1.75999999E-02  -3.08987438E-07
  -1.75500009E-02  -3.17625677E-07
  -1.75000001E-02  -3.26507831E-07
  -1.74499992E-02  -3.35637480E-07
  -1.74000002E-02  -3.45013603E-07
  -1.73499994E-02  -3.54633642E-07
  -1.73000004E-02  -3.64497595E-07
  -1.72499996E-02  -3.74610465E-07
  -1.72000006E-02  -3.84982854E-07
  -1.71499997E-02  -3.95628689E-07
  -1.71000008E-02  -4.06561526E-07
  -1.70499999E-02  -4.17790858E-07
  -1.70000009E-02  -4.29320920E-07
  -1.69500001E-02  -4.41151428E-07
  -1.68999992E-02  -4.53280961E-07
  -1.68500002E-02  -4.65710656E-07
  -1.67999994E-02  -4.78447078E-07
  -1.67500004E-02  -4.91502078E-07
  -1.66999996E-02  -5.04890636E-07
  -1.66500006E-02  -5.18627189E-07
  -1.65999997E-02  -5.32722140E-07
  -1.65500008E-02  -5.47180491E-07
  -1.64999999E-02  -5.62003379E-07
  -1.64500009E-02  -5.77191202E-07
  -1.64000001E-02  -5.92747540E-07
  -1.63499992E-02  -6.08681944E-07
  -1.63000003E-02  -6.25009307E-07
  -1.62499994E-02  -6.41747590E-07
  -1.62000004E-02  -6.58913734E-07
  -1.61499996E-02  -6.76519846E-07
  -1.61000006E-02  -6.94572407E-07
  -1.60499997E-02  -7.13073860E-07
  -1.60000008E-02  -7.32026024E-07
  -1.59499999E-02  -7.51434243E-07
  -1.59000009E-02  -7.71310397E-07
  -1.58500001E-02  -7.91672107E-07
  -1.57999992E-02  -8.12539724E-07
  -1.57500003E-02  -8.33932745E-07
  -1.56999994E-02  -8.55865324E-07
  -1.56500004E-02  -8.78345929E-07
  -1.55999996E-02  -9.01378769E-07
  -1.55499997E-02  -9.24967935E-07
  -1.54999997E-02  -9.49122011E-07
  -1.54499998E-02  -9.73856459E-07
  -1.53999999E-02  -9.99193162E-07
  -1.53500000E-02  -1.02515696E-06
  -1.53000001E-02  -1.05177116E-06
  -1.52500002E-02  -1.07905328E-06
  -1.52000003E-02  -1.10701387E-06
  -1.51500003E-02  -1.13565898E-06
  -1.51000004E-02  -1.16499427E-06
  -1.50499996E-02  -1.19503011E-06
  -1.49999997E-02  -1.22578456E-06
  -1.49499997E-02  -1.25728320E-06
  -1.48999998E-02  -1.28955435E-06
  -1.48499999E-02  -1.32262471E-06
  -1.48000000E-02  -1.35651476E-06
  -1.47500001E-02  -1.39123722E-06
  -1.47000002E-02  -1.42679926E-06
  -1.46500003E-02  -1.46320838E-06
  -1.46000003E-02  -1.50047731E-06
  -1.45500004E-02  -1.53862709E-06
  -1.44999996E-02  -1.57768727E-06
  -1.44499997E-02  -1.61769105E-06
  -1.43999998E-02  -1.65866936E-06
  -1.43499998E-02  -1.70064664E-06
  -1.42999999E-02  -1.74363811E-06
  -1.42500000E-02  -1.78765310E-06
  -1.42000001E-02  -1.83269992E-06
  -1.41500002E-02  -1.87879220E-06
  -1.41000003E-02  -1.92595303E-06
  -1.40500003E-02  -1.97421446E-06
  -1.40000004E-02  -2.02361343E-06
  -1.39499996E-02  -2.07418452E-06
  -1.38999997E-02  -2.12595523E-06
  -1.38499998E-02  -2.17894308E-06
  -1.37999998E-02  -2.23315851E-06
  -1.37499999E-02  -2.28861063E-06
  -1.37000000E-02  -2.34531421E-06
  -1.36500001E-02  -2.40329450E-06
  -1.36000002E-02  -2.46258696E-06
  -1.35500003E-02  -2.52323298E-06
  -1.35000004E-02  -2.58527166E-06
  -1.34500004E-02  -2.64873461E-06
  -1.33999996E-02  -2.71364274E-06
  -1.33499997E-02  -2.78000880E-06
  -1.32999998E-02  -2.84784301E-06
  -1.32499998E-02  -2.91716196E-06
  -1.31999999E-02  -2.98799250E-06
  -1.31500000E-02  -3.06037327E-06
  -1.31000001E-02  -3.13434884E-06
  -1.30500002E-02  -3.20996332E-06
  -1.30000003E-02  -3.28725105E-06
  -1.29500004E-02  -3.36623748E-06
  -1.29000004E-02  -3.44693649E-06
  -1.28499996E-02  -3.52935967E-06
  -1.27999997E-02  -3.61352500E-06
  -1.27499998E-02  -3.69946088E-06
  -1.26999998E-02  -3.78720938E-06
  -1.26499999E-02  -3.87682030E-06
  -1.26000000E-02  -3.96834412E-06
  -1.25500001E-02  -4.06182244E-06
  -1.25000002E-02  -4.15728528E-06
  -1.24500003E-02  -4.25475037E-06
  -1.24000004E-02  -4.35423317E-06
  -1.23500004E-02  -4.45575324E-06
  -1.22999996E-02  -4.55934151E-06
  -1.22499997E-02  -4.66504207E-06
  -1.21999998E-02  -4.77290951E-06
  -1.21499998E-02  -4.88299838E-06
  -1.20999999E-02  -4.99535463E-06
  -1.20500000E-02  -5.11001190E-06
  -1.20000001E-02  -5.22699156E-06
  -1.19500002E-02  -5.34631045E-06
  -1.19000003E-02  -5.46799038E-06
  -1.18500004E-02  -5.59206410E-06
  -1.18000004E-02  -5.71858163E-06
  -1.17499996E-02  -5.84760346E-06
  -1.16999997E-02  -5.97919097E-06
  -1.16499998E-02  -6.11339874E-06
  -1.15999999E-02  -6.25026632E-06
  -1.15499999E-02  -6.38981919E-06
  -1.15000000E-02  -6.53207599E-06
  -1.14500001E-02  -6.67706126E-06
  -1.14000002E-02  -6.82480822E-06
  -1.13500003E-02  -6.97537007E-06
  -1.13000004E-02  -7.12880819E-06
  -1.12500004E-02  -7.28519080E-06
  -1.11999996E-02  -7.44457475E-06
  -1.11499997E-02  -7.60700595E-06
  -1.10999998E-02  -7.77251444E-06
  -1.10499999E-02  -7.94112293E-06
  -1.09999999E-02  -8.11285827E-06
  -1.09500000E-02  -8.28776319E-06
  -1.09000001E-02  -8.46589410E-06
  -1.08500002E-02  -8.64731919E-06
  -1.08000003E-02  -8.83211123E-06
  -1.07500004E-02  -9.02033662E-06
  -1.07000005E-02  -9.21204264E-06
  -1.06499996E-02  -9.40726386E-06
  -1.05999997E-02  -9.60602756E-06
  -1.05499998E-02  -9.80835921E-06
  -1.04999999E-02  -1.00143006E-05
  -1.04499999E-02  -1.02239092E-05
  -1.04000000E-02  -1.04372548E-05
  -1.03500001E-02  -1.06544167E-05
  -1.03000002E-02  -1.08754648E-05
  -1.02500003E-02  -1.11004538E-05
  -1.02000004E-02  -1.13294236E-05
  -1.01500005E-02  -1.15624025E-05
  -1.00999996E-02  -1.17994223E-05
  -1.00499997E-02  -1.20405257E-05
  -9.99999978E-03  -1.22857755E-05
  -9.94999986E-03  -1.25352472E-05
  -9.89999995E-03  -1.27890253E-05
  -9.85000003E-03  -1.30471844E-05
  -9.80000012E-03  -1.33097847E-05
  -9.75000020E-03  -1.35768678E-05
  -9.70000029E-03  -1.38484666E-05
  -9.65000037E-03  -1.41246101E-05
  -9.60000046E-03  -1.44053411E-05
  -9.54999961E-03  -1.46907214E-05
  -9.49999969E-03  -1.49808311E-05
  -9.44999978E-03  -1.52757511E-05
  -9.39999986E-03  -1.55755624E-05
  -9.34999995E-03  -1.58803214E-05
  -9.30000003E-03  -1.61900734E-05
  -9.25000012E-03  -1.65048477E-05
  -9.20000020E-03  -1.68246715E-05
  -9.15000029E-03  -1.71495885E-05
  -9.10000037E-03  -1.74796642E-05
  -9.05000046E-03  -1.78149821E-05
  -8.99999961E-03  -1.81556316E-05
  -8.94999970E-03  -1.85016979E-05
  -8.89999978E-03  -1.88532449E-05
  -8.84999987E-03  -1.92103180E-05
  -8.79999995E-03  -1.95729463E-05
  -8.75000004E-03  -1.99411606E-05
  -8.70000012E-03  -2.03150030E-05
  -8.65000021E-03  -2.06945406E-05
  -8.60000029E-03  -2.10798553E-05
  -8.55000038E-03  -2.14710344E-05
  -8.50000046E-03  -2.18681689E-05
  -8.44999962E-03  -2.22713170E-05
  -8.39999970E-03  -2.26805187E-05
  -8.34999979E-03  -2.30958030E-05
  -8.29999987E-03  -2.35171883E-05
  -8.24999996E-03  -2.39447108E-05
  -8.20000004E-03  -2.43784343E-05
  -8.15000013E-03  -2.48184351E-05
  -8.10000021E-03  -2.52648060E-05
  -8.05000030E-03  -2.57176380E-05
  -8.00000038E-03  -2.61769947E-05
  -7.95000046E-03  -2.66429179E-05
  -7.89999962E-03  -2.71154277E-05
  -7.84999970E-03  -2.75945458E-05
  -7.79999979E-03  -2.80803069E-05
  -7.74999987E-03  -2.85727710E-05
  -7.69999996E-03  -2.90720200E-05
  -7.65000004E-03  -2.95781483E-05
  -7.60000013E-03  -3.00912452E-05
  -7.55000021E-03  -3.06113725E-05
  -7.49999983E-03  -3.11385629E-05
  -7.44999992E-03  -3.16728219E-05
  -7.40000000E-03  -3.22141641E-05
  -7.35000009E-03  -3.27626076E-05
  -7.30000017E-03  -3.33181961E-05
  -7.24999979E-03  -3.38810059E-05
  -7.19999988E-03  -3.44511282E-05
  -7.14999996E-03  -3.50286427E-05
  -7.10000005E-03  -3.56136043E-05
  -7.05000013E-03  -3.62060455E-05
  -7.00000022E-03  -3.68059591E-05
  -6.94999984E-03  -3.74133379E-05
  -6.89999992E-03  -3.80281890E-05
  -6.85000001E-03  -3.86505526E-05
  -6.80000009E-03  -3.92804977E-05
  -6.75000018E-03  -3.99181044E-05
  -6.69999979E-03  -4.05634491E-05
  -6.64999988E-03  -4.12165828E-05
  -6.59999996E-03  -4.18775235E-05
  -6.55000005E-03  -4.25462604E-05
  -6.50000013E-03  -4.32227680E-05
  -6.45000022E-03  -4.39070354E-05
  -6.39999984E-03  -4.45990736E-05
  -6.34999992E-03  -4.52989334E-05
  -6.30000001E-03  -4.60066767E-05
  -6.25000009E-03  -4.67223872E-05
  -6.20000018E-03  -4.74460976E-05
  -6.14999980E-03  -4.81778115E-05
  -6.09999988E-03  -4.89175000E-05
  -6.04999997E-03  -4.96650973E-05
  -6.00000005E-03  -5.04205709E-05
  -5.95000014E-03  -5.11839062E-05
  -5.90000022E-03  -5.19551322E-05
  -5.84999984E-03  -5.27343000E-05
  -5.79999993E-03  -5.35214604E-05
  -5.75000001E-03  -5.43166461E-05
  -5.70000010E-03  -5.51198536E-05
  -5.65000018E-03  -5.59310174E-05
  -5.59999980E-03  -5.67500683E-05
  -5.54999989E-03  -5.75769227E-05
  -5.49999997E-03  -5.84115405E-05
  -5.45000006E-03  -5.92539145E-05
  -5.40000014E-03  -6.01040665E-05
  -5.35000023E-03  -6.09620474E-05
  -5.29999984E-03  -6.18278791E-05
  -5.24999993E-03  -6.27015179E-05
  -5.20000001E-03  -6.35828837E-05
  -5.15000010E-03  -6.44718602E-05
  -5.10000018E-03  -6.53683383E-05
  -5.04999980E-03  -6.62722305E-05
  -4.99999989E-03  -6.71834787E-05
  -4.94999997E-03  -6.81020829E-05
  -4.90000006E-03  -6.90280503E-05
  -4.85000014E-03  -6.99613811E-05
  -4.80000023E-03  -7.09020169E-05
  -4.74999985E-03  -7.18498559E-05
  -4.69999993E-03  -7.28047307E-05
  -4.65000002E-03  -7.37664741E-05
  -4.60000010E-03  -7.47349695E-05
  -4.55000019E-03  -7.57101079E-05
  -4.49999981E-03  -7.66918529E-05
  -4.44999989E-03  -7.76801826E-05
  -4.39999998E-03  -7.86750679E-05
  -4.35000006E-03  -7.96764216E-05
  -4.30000015E-03  -8.06840908E-05
  -4.25000023E-03  -8.16978936E-05
  -4.19999985E-03  -8.27176045E-05
  -4.14999994E-03  -8.37430416E-05
  -4.10000002E-03  -8.47740666E-05
  -4.05000011E-03  -8.58105777E-05
  -4.00000019E-03  -8.68525167E-05
  -3.94999981E-03  -8.78998253E-05
  -3.89999989E-03  -8.89523726E-05
  -3.84999998E-03  -9.00099840E-05
  -3.80000006E-03  -9.10724120E-05
  -3.74999992E-03  -9.21393803E-05
  -3.70000000E-03  -9.32106414E-05
  -3.65000009E-03  -9.42859697E-05
  -3.59999994E-03  -9.53652197E-05
  -3.55000002E-03  -9.64482824E-05
  -3.50000011E-03  -9.75350486E-05
  -3.44999996E-03  -9.86253726E-05
  -3.40000005E-03  -9.97190218E-05
  -3.34999990E-03  -1.00815705E-04
  -3.29999998E-03  -1.01915095E-04
  -3.25000007E-03  -1.03016857E-04
  -3.19999992E-03  -1.04120722E-04
  -3.15000000E-03  -1.05226471E-04
  -3.10000009E-03  -1.06333930E-04
  -3.04999994E-03  -1.07442946E-04
  -3.00000003E-03  -1.08553322E-04
  -2.95000011E-03  -1.09664805E-04
  -2.89999996E-03  -1.10777029E-04
  -2.85000005E-03  -1.11889618E-04
  -2.79999990E-03  -1.13002156E-04
  -2.74999999E-03  -1.14114278E-04
  -2.70000007E-03  -1.15225674E-04
  -2.64999992E-03  -1.16336130E-04
  -2.60000001E-03  -1.17445423E-04
  -2.55000009E-03  -1.18553304E-04
  -2.49999994E-03  -1.19659453E-04
  -2.45000003E-03  -1.20763456E-04
  -2.40000011E-03  -1.21864847E-04
  -2.34999997E-03  -1.22963160E-04
  -2.30000005E-03  -1.24057929E-04
  -2.24999990E-03  -1.25148770E-04
  -2.19999999E-03  -1.26235376E-04
  -2.15000007E-03  -1.27317442E-04
  -2.09999993E-03  -1.28394691E-04
  -2.05000001E-03  -1.29466760E-04
  -2.00000009E-03  -1.30533168E-04
  -1.94999995E-03  -1.31593391E-04
  -1.90000003E-03  -1.32646892E-04
  -1.85000000E-03  -1.33693073E-04
  -1.79999997E-03  -1.34731483E-04
  -1.75000005E-03  -1.35761700E-04
  -1.70000002E-03  -1.36783390E-04
  -1.64999999E-03  -1.37796189E-04
  -1.59999996E-03  -1.38799660E-04
  -1.55000004E-03  -1.39793279E-04
  -1.50000001E-03  -1.40776436E-04
  -1.44999998E-03  -1.41748475E-04
  -1.39999995E-03  -1.42708726E-04
  -1.35000004E-03  -1.43656609E-04
  -1.30000000E-03  -1.44591613E-04
  -1.24999997E-03  -1.45513332E-04
  -1.20000006E-03  -1.46421313E-04
  -1.15000003E-03  -1.47315091E-04
  -1.09999999E-03  -1.48194056E-04
  -1.04999996E-03  -1.49057552E-04
  -1.00000005E-03  -1.49904808E-04
  -9.50000016E-04  -1.50735083E-04
  -8.99999985E-04  -1.51547691E-04
  -8.50000011E-04  -1.52342021E-04
  -7.99999980E-04  -1.53117551E-04
  -7.50000007E-04  -1.53873800E-04
  -6.99999975E-04  -1.54610243E-04
  -6.50000002E-04  -1.55326226E-04
  -6.00000028E-04  -1.56020935E-04
  -5.49999997E-04  -1.56693553E-04
  -5.00000024E-04  -1.57343224E-04
  -4.49999992E-04  -1.57969160E-04
  -3.99999990E-04  -1.58570649E-04
  -3.49999988E-04  -1.59147050E-04
  -3.00000014E-04  -1.59697811E-04
  -2.50000012E-04  -1.60222291E-04
  -1.99999995E-04  -1.60719792E-04
  -1.50000007E-04  -1.61189455E-04
  -9.99999975E-05  -1.61630393E-04
  -4.99999987E-05  -1.62041615E-04
   0.00000000      -1.62422220E-04
   4.99999987E-05  -1.62771437E-04
   9.99999975E-05  -1.63088480E-04
   1.50000007E-04  -1.63372722E-04
   1.99999995E-04  -1.63623481E-04
   2.50000012E-04  -1.63840014E-04
   3.00000014E-04  -1.64021389E-04
   3.49999988E-04  -1.64166631E-04
   3.99999990E-04  -1.64274679E-04
   4.49999992E-04  -1.64344514E-04
   5.00000024E-04  -1.64375189E-04
   5.49999997E-04  -1.64365862E-04
   6.00000028E-04  -1.64315803E-04
   6.50000002E-04  -1.64224271E-04
   6.99999975E-04  -1.64090437E-04
   7.50000007E-04  -1.63913341E-04
   7.99999980E-04  -1.63691962E-04
   8.50000011E-04  -1.63425109E-04
   8.99999985E-04  -1.63111690E-04
   9.50000016E-04  -1.62750628E-04
   1.00000005E-03  -1.62341006E-04
   1.04999996E-03  -1.61881951E-04
   1.09999999E-03  -1.61372678E-04
   1.15000003E-03  -1.60812269E-04
   1.20000006E-03  -1.60199794E-04
   1.24999997E-03  -1.59534116E-04
   1.30000000E-03  -1.58814044E-04
   1.35000004E-03  -1.58038369E-04
   1.39999995E-03  -1.57205897E-04
   1.44999998E-03  -1.56315567E-04
   1.50000001E-03  -1.55366462E-04
   1.55000004E-03  -1.54357724E-04
   1.59999996E-03  -1.53288420E-04
   1.64999999E-03  -1.52157590E-04
   1.70000002E-03  -1.50964057E-04
   1.75000005E-03  -1.49706582E-04
   1.79999997E-03  -1.48383828E-04
   1.85000000E-03  -1.46994513E-04
   1.90000003E-03  -1.45537488E-04
   1.94999995E-03  -1.44011719E-04
   2.00000009E-03  -1.42416262E-04
   2.05000001E-03  -1.40750199E-04
   2.09999993E-03  -1.39012511E-04
   2.15000007E-03  -1.37202034E-04
   2.19999999E-03  -1.35317474E-04
   2.24999990E-03  -1.33357447E-04
   2.30000005E-03  -1.31320616E-04
   2.34999997E-03  -1.29205699E-04
   2.40000011E-03  -1.27011604E-04
   2.45000003E-03  -1.24737344E-04
   2.49999994E-03  -1.22381971E-04
   2.55000009E-03  -1.19944452E-04
   2.60000001E-03  -1.17423631E-04
   2.64999992E-03  -1.14818205E-04
   2.70000007E-03  -1.12126741E-04
   2.74999999E-03  -1.09347850E-04
   2.79999990E-03  -1.06480191E-04