  -3.99999991E-02   0.00000000    
  -3.99499983E-02   0.00000000    
  -3.99000011E-02   0.00000000    
  -3.98500003E-02   0.00000000    
  -3.97999994E-02   0.00000000    
  -3.97499986E-02   2.67459703E-21
  -3.97000015E-02   2.05857628E-20
  -3.96500006E-02   8.25073241E-20
  -3.95999998E-02   2.31414090E-19
  -3.95499989E-02   5.19110222E-19
  -3.95000018E-02   1.01232545E-18
  -3.94500010E-02   1.80706662E-18
  -3.94000001E-02   3.01580001E-18
  -3.93499993E-02   4.69931108E-18
  -3.92999984E-02   6.78239340E-18
  -3.92500013E-02   9.05097883E-18
  -3.92000005E-02   1.12837287E-17
  -3.91499996E-02   1.34360279E-17
  -3.90999988E-02   1.57119252E-17
  -3.90500017E-02   1.84453683E-17
  -3.90000008E-02   2.18915566E-17
  -3.89500000E-02   2.60982746E-17
  -3.88999991E-02   3.09023791E-17
  -3.88499983E-02   3.59424468E-17
  -3.88000011E-02   4.06122817E-17
  -3.87500003E-02   4.40694335E-17
  -3.86999995E-02   4.54745983E-17
  -3.86499986E-02   4.44007888E-17
  -3.86000015E-02   4.10415355E-17
  -3.85500006E-02   3.58821090E-17
  -3.84999998E-02   2.89578793E-17
  -3.84499989E-02   1.92649107E-17
  -3.84000018E-02   4.80348455E-18
  -3.83500010E-02  -1.68277025E-17
  -3.83000001E-02  -4.78091468E-17
  -3.82499993E-02  -8.98230332E-17
  -3.81999984E-02  -1.43997017E-16
  -3.81500013E-02  -2.10763278E-16
  -3.81000005E-02  -2.89695088E-16
  -3.80499996E-02  -3.79767063E-16
  -3.79999988E-02  -4.80242217E-16
  -3.79500017E-02  -5.91649443E-16
  -3.79000008E-02  -7.15963069E-16
  -3.78500000E-02  -8.55703335E-16
  -3.77999991E-02  -1.01271005E-15
  -3.77499983E-02  -1.18765486E-15
  -3.77000012E-02  -1.38054258E-15
  -3.76500003E-02  -1.59140285E-15
  -3.75999995E-02  -1.82028905E-15
  -3.75499986E-02  -2.06665854E-15
  -3.75000015E-02  -2.32902339E-15
  -3.74500006E-02  -2.60541998E-15
  -3.73999998E-02  -2.89416377E-15
  -3.73499990E-02  -3.19387474E-15
  -3.73000018E-02  -3.50255874E-15
  -3.72500010E-02  -3.81660764E-15
  -3.72000001E-02  -4.13057819E-15
  -3.71499993E-02  -4.43750820E-15
  -3.70999984E-02  -4.72875709E-15
  -3.70500013E-02  -4.99313217E-15
  -3.70000005E-02  -5.21658666E-15
  -3.69499996E-02  -5.38414714E-15
  -3.68999988E-02  -5.48400470E-15
  -3.68500017E-02  -5.51137064E-15
  -3.68000008E-02  -5.46921678E-15
  -3.67500000E-02  -5.36496523E-15
  -3.66999991E-02  -5.20480613E-15
  -3.66499983E-02  -4.98834728E-15
  -3.66000012E-02  -4.70540778E-15
  -3.65500003E-02  -4.33567070E-15
  -3.64999995E-02  -3.85158205E-15
  -3.64499986E-02  -3.22469466E-15
  -3.64000015E-02  -2.43409063E-15
  -3.63500006E-02  -1.47298341E-15
  -3.62999998E-02  -3.48774525E-16
  -3.62499990E-02   9.25120597E-16
  -3.62000018E-02   2.34181804E-15
  -3.61500010E-02   3.91030854E-15
  -3.61000001E-02   5.65522394E-15
  -3.60499993E-02   7.60618392E-15
  -3.59999985E-02   9.78156527E-15
  -3.59500013E-02   1.21741953E-14
  -3.59000005E-02   1.47454562E-14
  -3.58499996E-02   1.74316247E-14
  -3.57999988E-02   2.01623623E-14
  -3.57500017E-02   2.28861899E-14
  -3.57000008E-02   2.55924093E-14
  -3.56500000E-02   2.83169433E-14
  -3.55999991E-02   3.11246458E-14
  -3.55499983E-02   3.40725881E-14
  -3.55000012E-02   3.71705569E-14
  -3.54500003E-02   4.03589515E-14
  -3.53999995E-02   4.35168970E-14
  -3.53499986E-02   4.64990290E-14
  -3.53000015E-02   4.91855498E-14
  -3.52500007E-02   5.15241163E-14
  -3.51999998E-02   5.35439443E-14
  -3.51499990E-02   5.53327153E-14
  -3.51000018E-02   5.69812345E-14
  -3.50500010E-02   5.85169120E-14
  -3.50000001E-02   5.98567555E-14
  -3.49499993E-02   6.08070248E-14
  -3.48999985E-02   6.11169779E-14
  -3.48500013E-02   6.05669621E-14
  -3.48000005E-02   5.90504886E-14
  -3.47499996E-02   5.66099834E-14
  -3.46999988E-02   5.34059355E-14
  -3.46500017E-02   4.96303302E-14
  -3.46000008E-02   4.54014369E-14
  -3.45500000E-02   4.06872344E-14
  -3.44999991E-02   3.52952429E-14
  -3.44499983E-02   2.89403680E-14
  -3.44000012E-02   2.13674920E-14
  -3.43500003E-02   1.24762922E-14
  -3.42999995E-02   2.38689840E-15
  -3.42499986E-02  -8.59389210E-15
  -3.42000015E-02  -2.01004188E-14
  -3.41500007E-02  -3.18756354E-14
  -3.40999998E-02  -4.38986243E-14
  -3.40499990E-02  -5.64058789E-14
  -3.40000018E-02  -6.97874850E-14
  -3.39500010E-02  -8.43974752E-14
  -3.39000002E-02  -1.00359506E-13
  -3.38499993E-02  -1.17456541E-13
  -3.37999985E-02  -1.35161983E-13
  -3.37500013E-02  -1.52811493E-13
  -3.37000005E-02  -1.69848619E-13
  -3.36499996E-02  -1.86036286E-13
  -3.35999988E-02  -2.01529467E-13
  -3.35500017E-02  -2.16761315E-13
  -3.35000008E-02  -2.32183142E-13
  -3.34500000E-02  -2.47972649E-13
  -3.33999991E-02  -2.63848866E-13
  -3.33499983E-02  -2.79088439E-13
  -3.33000012E-02  -2.92748410E-13
  -3.32500003E-02  -3.04004895E-13
  -3.31999995E-02  -3.12459965E-13
  -3.31499986E-02  -3.18275408E-13
  -3.31000015E-02  -3.22060494E-13
  -3.30500007E-02  -3.24547165E-13
  -3.29999998E-02  -3.26186859E-13
  -3.29499990E-02  -3.26851556E-13
  -3.29000019E-02  -3.25787195E-13
  -3.28500010E-02  -3.21856501E-13
  -3.28000002E-02  -3.13973457E-13
  -3.27499993E-02  -3.01534053E-13
  -3.26999985E-02  -2.84641641E-13
  -3.26500013E-02  -2.64015589E-13
  -3.26000005E-02  -2.40616446E-13
  -3.25499997E-02  -2.15150773E-13
  -3.24999988E-02  -1.87681440E-13
  -3.24500017E-02  -1.57529588E-13
  -3.24000008E-02  -1.23534199E-13
  -3.23500000E-02  -8.45712863E-14
  -3.22999991E-02  -4.01088905E-14
  -3.22499983E-02   9.46145119E-15
  -3.22000012E-02   6.28879070E-14
  -3.21500003E-02   1.18510331E-13
  -3.20999995E-02   1.74909620E-13
  -3.20499986E-02   2.31462039E-13
  -3.20000015E-02   2.88540757E-13
  -3.19500007E-02   3.47260659E-13
  -3.18999998E-02   4.08868116E-13
  -3.18499990E-02   4.74039265E-13
  -3.18000019E-02   5.42397887E-13
  -3.17500010E-02   6.12478276E-13
  -3.17000002E-02   6.82169653E-13
  -3.16499993E-02   7.49463154E-13
  -3.15999985E-02   8.13172229E-13
  -3.15500014E-02   8.73291944E-13
  -3.15000005E-02   9.30821609E-13
  -3.14499997E-02   9.87111001E-13
  -3.13999988E-02   1.04301951E-12
  -3.13500017E-02   1.09826493E-12
  -3.13000008E-02   1.15126300E-12
  -3.12500000E-02   1.19953515E-12
  -3.11999992E-02   1.24051767E-12
  -3.11500002E-02   1.27242466E-12
  -3.10999993E-02   1.29479034E-12
  -3.10500003E-02   1.30844771E-12
  -3.09999995E-02   1.31494230E-12
  -3.09500005E-02   1.31563163E-12
  -3.08999997E-02   1.31087047E-12
  -3.08500007E-02   1.29965830E-12
  -3.07999998E-02   1.27991368E-12
  -3.07500008E-02   1.24925645E-12
  -3.07000000E-02   1.20594940E-12
  -3.06499992E-02   1.14957620E-12
  -3.06000002E-02   1.08115752E-12
  -3.05499993E-02   1.00265336E-12
  -3.05000003E-02   9.16063991E-13
  -3.04499995E-02   8.22514528E-13
  -3.04000005E-02   7.21726281E-13
  -3.03499997E-02   6.12109376E-13
  -3.03000007E-02   4.91458274E-13
  -3.02499998E-02   3.57958726E-13
  -3.02000009E-02   2.11064795E-13
  -3.01500000E-02   5.18688960E-14
  -3.00999992E-02  -1.17199761E-13
  -3.00500002E-02  -2.93211446E-13
  -2.99999993E-02  -4.73746910E-13
  -2.99500003E-02  -6.57649987E-13
  -2.98999995E-02  -8.45216475E-13
  -2.98500005E-02  -1.03773782E-12
  -2.97999997E-02  -1.23659524E-12
  -2.97500007E-02  -1.44226449E-12
  -2.96999998E-02  -1.65365182E-12
  -2.96500009E-02  -1.86804413E-12
  -2.96000000E-02  -2.08171436E-12
  -2.95499992E-02  -2.29093719E-12
  -2.95000002E-02  -2.49300298E-12
  -2.94499993E-02  -2.68680889E-12
  -2.94000003E-02  -2.87280312E-12
  -2.93499995E-02  -3.05229496E-12
  -2.93000005E-02  -3.22641414E-12
  -2.92499997E-02  -3.39512056E-12
  -2.92000007E-02  -3.55664153E-12
  -2.91499998E-02  -3.70757331E-12
  -2.91000009E-02  -3.84362464E-12
  -2.90500000E-02  -3.96073712E-12
  -2.89999992E-02  -4.05614214E-12
  -2.89500002E-02  -4.12892680E-12
  -2.88999993E-02  -4.17985351E-12
  -2.88500004E-02  -4.21050261E-12
  -2.87999995E-02  -4.22207018E-12
  -2.87500005E-02  -4.21430859E-12
  -2.86999997E-02  -4.18505508E-12
  -2.86500007E-02  -4.13056568E-12
  -2.85999998E-02  -4.04658381E-12
  -2.85500009E-02  -3.92976277E-12
  -2.85000000E-02  -3.77886221E-12
  -2.84499992E-02  -3.59520963E-12
  -2.84000002E-02  -3.38213073E-12
  -2.83499993E-02  -3.14352645E-12
  -2.83000004E-02  -2.88213745E-12
  -2.82499995E-02  -2.59822936E-12
  -2.82000005E-02  -2.28931414E-12
  -2.81499997E-02  -1.95109857E-12
  -2.81000007E-02  -1.57933454E-12
  -2.80499998E-02  -1.17185775E-12
  -2.80000009E-02  -7.29941010E-13
  -2.79500000E-02  -2.58321468E-13
  -2.78999992E-02   2.36222148E-13
  -2.78500002E-02   7.47246991E-13
  -2.77999993E-02   1.27098104E-12
  -2.77500004E-02   1.80754077E-12
  -2.76999995E-02   2.36038316E-12
  -2.76500005E-02   2.93409481E-12
  -2.75999997E-02   3.53137289E-12
  -2.75500007E-02   4.15050936E-12
  -2.74999999E-02   4.78453605E-12
  -2.74500009E-02   5.42253308E-12
  -2.74000000E-02   6.05270044E-12
  -2.73499992E-02   6.66595772E-12
  -2.73000002E-02   7.25850890E-12
  -2.72499993E-02   7.83217501E-12
  -2.72000004E-02   8.39219059E-12
  -2.71499995E-02   8.94327754E-12
  -2.71000005E-02   9.48568828E-12
  -2.70499997E-02   1.00130078E-11
  -2.70000007E-02   1.05128649E-11
  -2.69499999E-02   1.09703557E-11
  -2.69000009E-02   1.13728176E-11
  -2.68500000E-02   1.17138608E-11
  -2.67999992E-02   1.19947845E-11
  -2.67500002E-02   1.22226396E-11
  -2.66999993E-02   1.24056182E-11
  -2.66500004E-02   1.25477267E-11
  -2.65999995E-02   1.26451028E-11
  -2.65500005E-02   1.26857960E-11
  -2.64999997E-02   1.26533081E-11
  -2.64500007E-02   1.25325019E-11
  -2.63999999E-02   1.23152955E-11
  -2.63500009E-02   1.20035440E-11
  -2.63000000E-02   1.16076844E-11
  -2.62499992E-02   1.11415582E-11
  -2.62000002E-02   1.06156360E-11
  -2.61499994E-02   1.00316725E-11
  -2.61000004E-02   9.38129609E-12
  -2.60499995E-02   8.64933732E-12
  -2.60000005E-02   7.82064431E-12
  -2.59499997E-02   6.88744287E-12
  -2.59000007E-02   5.85392975E-12
  -2.58499999E-02   4.73583889E-12
  -2.58000009E-02   3.55497337E-12
  -2.57500000E-02   2.33088353E-12
  -2.56999992E-02   1.07345112E-12
  -2.56500002E-02  -2.20273425E-13
  -2.55999994E-02  -1.56335979E-12
  -2.55500004E-02  -2.97143451E-12
  -2.54999995E-02  -4.45350918E-12
  -2.54500005E-02  -6.00521846E-12
  -2.53999997E-02  -7.60762980E-12
  -2.53500007E-02  -9.23228421E-12
  -2.52999999E-02  -1.08504854E-11
  -2.52500009E-02  -1.24427838E-11
  -2.52000000E-02  -1.40044235E-11
  -2.51499992E-02  -1.55441267E-11
  -2.51000002E-02  -1.70766144E-11
  -2.50499994E-02  -1.86121032E-11
  -2.50000004E-02  -2.01474410E-11
  -2.49499995E-02  -2.16629267E-11
  -2.49000005E-02  -2.31264157E-11
  -2.48499997E-02  -2.45030732E-11
  -2.48000007E-02  -2.57665399E-11
  -2.47499999E-02  -2.69066124E-11
  -2.47000009E-02  -2.79300021E-11
  -2.46500000E-02  -2.88536053E-11
  -2.45999992E-02  -2.96931923E-11
  -2.45500002E-02  -3.04524843E-11
  -2.44999994E-02  -3.11175530E-11
  -2.44500004E-02  -3.16592343E-11
  -2.43999995E-02  -3.20425561E-11
  -2.43500005E-02  -3.22391731E-11
  -2.42999997E-02  -3.22372580E-11
  -2.42500007E-02  -3.20444782E-11
  -2.41999999E-02  -3.16825906E-11
  -2.41500009E-02  -3.11759715E-11
  -2.41000000E-02  -3.05390643E-11
  -2.40499992E-02  -2.97683302E-11
  -2.40000002E-02  -2.88424250E-11
  -2.39499994E-02  -2.77306424E-11
  -2.39000004E-02  -2.64060943E-11
  -2.38499995E-02  -2.48578901E-11
  -2.38000005E-02  -2.30969254E-11
  -2.37499997E-02  -2.11525936E-11
  -2.37000007E-02  -1.90617661E-11
  -2.36499999E-02  -1.68547450E-11
  -2.36000009E-02  -1.45443753E-11
  -2.35500000E-02  -1.21230014E-11
  -2.34999992E-02  -9.56878066E-12
  -2.34500002E-02  -6.85860179E-12
  -2.33999994E-02  -3.98213060E-12
  -2.33500004E-02  -9.50807141E-13
  -2.32999995E-02   2.20208378E-12
  -2.32500006E-02   5.43035538E-12
  -2.31999997E-02   8.68929321E-12
  -2.31500007E-02   1.19491353E-11
  -2.30999999E-02   1.52018571E-11
  -2.30500009E-02   1.84582905E-11
  -2.30000000E-02   2.17367062E-11
  -2.29499992E-02   2.50478839E-11
  -2.29000002E-02   2.83830338E-11
  -2.28499994E-02   3.17097425E-11
  -2.28000004E-02   3.49777811E-11
  -2.27499995E-02   3.81323410E-11
  -2.27000006E-02   4.11293083E-11
  -2.26499997E-02   4.39459129E-11
  -2.26000007E-02   4.65823526E-11
  -2.25499999E-02   4.90535355E-11
  -2.25000009E-02   5.13745574E-11
  -2.24500000E-02   5.35461016E-11
  -2.23999992E-02   5.55461233E-11
  -2.23500002E-02   5.73315145E-11
  -2.22999994E-02   5.88491963E-11
  -2.22500004E-02   6.00521022E-11
  -2.21999995E-02   6.09133993E-11
  -2.21500006E-02   6.14327686E-11
  -2.20999997E-02   6.16321161E-11
  -2.20500007E-02   6.15422643E-11
  -2.19999999E-02   6.11860909E-11
  -2.19500009E-02   6.05652542E-11
  -2.19000001E-02   5.96562799E-11
  -2.18499992E-02   5.84179788E-11
  -2.18000002E-02   5.68073540E-11
  -2.17499994E-02   5.47974582E-11
  -2.17000004E-02   5.23896274E-11
  -2.16499995E-02   4.96148019E-11
  -2.16000006E-02   4.65231569E-11
  -2.15499997E-02   4.31660853E-11
  -2.15000007E-02   3.95780110E-11
  -2.14499999E-02   3.57658451E-11
  -2.14000009E-02   3.17108284E-11
  -2.13500001E-02   2.73824279E-11
  -2.12999992E-02   2.27589041E-11
  -2.12500002E-02   1.78457370E-11
  -2.11999994E-02   1.26840517E-11
  -2.11500004E-02   7.34489553E-12
  -2.10999995E-02   1.91125956E-12
  -2.10500006E-02  -3.54486991E-12
  -2.09999997E-02  -8.98076578E-12
  -2.09500007E-02  -1.43885945E-11
  -2.08999999E-02  -1.97856974E-11
  -2.08500009E-02  -2.51930178E-11
  -2.08000001E-02  -3.06107362E-11
  -2.07499992E-02  -3.60016530E-11
  -2.07000002E-02  -4.12898882E-11
  -2.06499994E-02  -4.63761633E-11
  -2.06000004E-02  -5.11637017E-11
  -2.05499995E-02  -5.55837633E-11
  -2.05000006E-02  -5.96095742E-11
  -2.04499997E-02  -6.32523409E-11
  -2.04000007E-02  -6.65401831E-11
  -2.03499999E-02  -6.94889979E-11
  -2.03000009E-02  -7.20777257E-11
  -2.02500001E-02  -7.42395589E-11
  -2.01999992E-02  -7.58733493E-11
  -2.01500002E-02  -7.68715716E-11
  -2.00999994E-02  -7.71530131E-11
  -2.00500004E-02  -7.66861297E-11
  -1.99999996E-02  -7.54923346E-11
  -1.99500006E-02  -7.36270211E-11
  -1.98999997E-02  -7.11460335E-11
  -1.98500007E-02  -6.80720549E-11
  -1.97999999E-02  -6.43762335E-11
  -1.97500009E-02  -5.99837471E-11
  -1.97000001E-02  -5.48019963E-11
  -1.96499992E-02  -4.87596664E-11
  -1.96000002E-02  -4.18398059E-11
  -1.95499994E-02  -3.40919966E-11
  -1.95000004E-02  -2.56173208E-11
  -1.94499996E-02  -1.65319095E-11
  -1.94000006E-02  -6.92448009E-12
  -1.93499997E-02   3.17323424E-12
  -1.93000007E-02   1.37893924E-11
  -1.92499999E-02   2.49859838E-11
  -1.92000009E-02   3.68143432E-11
  -1.91500001E-02   4.92717915E-11
  -1.90999992E-02   6.22785157E-11
  -1.90500002E-02   7.56857493E-11
  -1.89999994E-02   8.93123908E-11
  -1.89500004E-02   1.02994703E-10
  -1.88999996E-02   1.16627069E-10
  -1.88500006E-02   1.30175426E-10
  -1.87999997E-02   1.43656573E-10
  -1.87500007E-02   1.57091548E-10
  -1.86999999E-02   1.70453637E-10
  -1.86500009E-02   1.83634122E-10
  -1.86000001E-02   1.96441849E-10
  -1.85499992E-02   2.08637829E-10
  -1.85000002E-02   2.19990109E-10
  -1.84499994E-02   2.30325051E-10
  -1.84000004E-02   2.39551629E-10
  -1.83499996E-02   2.47647569E-10
  -1.83000006E-02   2.54612609E-10
  -1.82499997E-02   2.60409083E-10
  -1.82000007E-02   2.64916672E-10
  -1.81499999E-02   2.67921851E-10
  -1.81000009E-02   2.69147871E-10
  -1.80500001E-02   2.68312816E-10
  -1.79999992E-02   2.65190508E-10
  -1.79500002E-02   2.59646415E-10
  -1.78999994E-02   2.51632659E-10
  -1.78500004E-02   2.41143661E-10
  -1.77999996E-02   2.28151290E-10
  -1.77500006E-02   2.12548729E-10
  -1.76999997E-02   1.94128991E-10
  -1.76500008E-02   1.72608774E-10
  -1.75999999E-02   1.47687265E-10
  -1.75500009E-02   1.19115537E-10
  -1.75000001E-02   8.67443548E-11
  -1.74499992E-02   5.05304652E-11
  -1.74000002E-02   1.04962445E-11
  -1.73499994E-02  -3.33389254E-11
  -1.73000004E-02  -8.10257764E-11
  -1.72499996E-02  -1.32719863E-10
  -1.72000006E-02  -1.88668706E-10
  -1.71499997E-02  -2.49155585E-10
  -1.71000008E-02  -3.14425402E-10
  -1.70499999E-02  -3.84624721E-10
  -1.70000009E-02  -4.59783517E-10
  -1.69500001E-02  -5.39846334E-10
  -1.68999992E-02  -6.24739704E-10
  -1.68500002E-02  -7.14445558E-10
  -1.67999994E-02  -8.09049605E-10
  -1.67500004E-02  -9.08740194E-10
  -1.66999996E-02  -1.01375841E-09
  -1.66500006E-02  -1.12432186E-09
  -1.65999997E-02  -1.24055555E-09
  -1.65500008E-02  -1.36246281E-09
  -1.64999999E-02  -1.48994617E-09
  -1.64500009E-02  -1.62287128E-09
  -1.64000001E-02  -1.76114578E-09
  -1.63499992E-02  -1.90477789E-09
  -1.63000003E-02  -2.05388839E-09
  -1.62499994E-02  -2.20867102E-09
  -1.62000004E-02  -2.36931719E-09
  -1.61499996E-02  -2.53594079E-09
  -1.61000006E-02  -2.70853606E-09
  -1.60499997E-02  -2.88698754E-09
  -1.60000008E-02  -3.07112846E-09
  -1.59499999E-02  -3.26082072E-09
  -1.59000009E-02  -3.45602058E-09
  -1.58500001E-02  -3.65680397E-09
  -1.57999992E-02  -3.86333943E-09
  -1.57500003E-02  -4.07581702E-09
  -1.56999994E-02  -4.29436486E-09
  -1.56500004E-02  -4.51899629E-09
  -1.55999996E-02  -4.74960649E-09
  -1.55499997E-02  -4.98602448E-09
  -1.54999997E-02  -5.22809307E-09
  -1.54499998E-02  -5.47574075E-09
  -1.53999999E-02  -5.72902126E-09
  -1.53500000E-02  -5.98809979E-09
  -1.53000001E-02  -6.25319174E-09
  -1.52500002E-02  -6.52448051E-09
  -1.52000003E-02  -6.80205092E-09
  -1.51500003E-02  -7.08587367E-09
  -1.51000004E-02  -7.37584083E-09
  -1.50499996E-02  -7.67184005E-09
  -1.49999997E-02  -7.97383404E-09
  -1.49499997E-02  -8.28191027E-09
  -1.48999998E-02  -8.59627836E-09
  -1.48499999E-02  -8.91722163E-09
  -1.48000000E-02  -9.24501453E-09
  -1.47500001E-02  -9.57985513E-09
  -1.47000002E-02  -9.92183491E-09
  -1.46500003E-02  -1.02709556E-08
  -1.46000003E-02  -1.06271925E-08
  -1.45500004E-02  -1.09905782E-08
  -1.44999996E-02  -1.13612577E-08
  -1.44499997E-02  -1.17395036E-08
  -1.43999998E-02  -1.21256800E-08
  -1.43499998E-02  -1.25201698E-08
  -1.42999999E-02  -1.29232989E-08
  -1.42500000E-02  -1.33352929E-08
  -1.42000001E-02  -1.37562894E-08
  -1.41500002E-02  -1.41863907E-08
  -1.41000003E-02  -1.46257415E-08
  -1.40500003E-02  -1.50745816E-08
  -1.40000004E-02  -1.55332849E-08
  -1.39499996E-02  -1.60023141E-08
  -1.38999997E-02  -1.64821898E-08
  -1.38499998E-02  -1.69733951E-08
  -1.37999998E-02  -1.74763262E-08
  -1.37499999E-02  -1.79912760E-08
  -1.37000000E-02  -1.85184756E-08
  -1.36500001E-02  -1.90581755E-08
  -1.36000002E-02  -1.96107219E-08
  -1.35500003E-02  -2.01765875E-08
  -1.35000004E-02  -2.07563495E-08
  -1.34500004E-02  -2.13506315E-08
  -1.33999996E-02  -2.19600587E-08
  -1.33499997E-02  -2.25851959E-08
  -1.32999998E-02  -2.32265087E-08
  -1.32499998E-02  -2.38843949E-08
  -1.31999999E-02  -2.45592275E-08
  -1.31500000E-02  -2.52514472E-08
  -1.31000001E-02  -2.59616151E-08
  -1.30500002E-02  -2.66904188E-08
  -1.30000003E-02  -2.74386291E-08
  -1.29500004E-02  -2.82070083E-08
  -1.29000004E-02  -2.89962632E-08
  -1.28499996E-02  -2.98070262E-08
  -1.27999997E-02  -3.06398569E-08
  -1.27499998E-02  -3.14952935E-08
  -1.26999998E-02  -3.23738831E-08
  -1.26499999E-02  -3.32762404E-08
  -1.26000000E-02  -3.42031079E-08
  -1.25500001E-02  -3.51553524E-08
  -1.25000002E-02  -3.61338692E-08
  -1.24500003E-02  -3.71395110E-08
  -1.24000004E-02  -3.81730523E-08
  -1.23500004E-02  -3.92352035E-08
  -1.22999996E-02  -4.03266611E-08
  -1.22499997E-02  -4.14481640E-08
  -1.21999998E-02  -4.26005258E-08
  -1.21499998E-02  -4.37846381E-08
  -1.20999999E-02  -4.50014817E-08
  -1.20500000E-02  -4.62521044E-08
  -1.20000001E-02  -4.75375259E-08
  -1.19500002E-02  -4.88586807E-08
  -1.19000003E-02  -5.02163857E-08
  -1.18500004E-02  -5.16114156E-08
  -1.18000004E-02  -5.30445732E-08
  -1.17499996E-02  -5.45167502E-08
  -1.16999997E-02  -5.60289699E-08
  -1.16499998E-02  -5.75824011E-08
  -1.15999999E-02  -5.91782943E-08
  -1.15499999E-02  -6.08179604E-08
  -1.15000000E-02  -6.25026999E-08
  -1.14500001E-02  -6.42337881E-08
  -1.14000002E-02  -6.60123973E-08
  -1.13500003E-02  -6.78396432E-08
  -1.13000004E-02  -6.97166769E-08
  -1.12500004E-02  -7.16447346E-08
  -1.11999996E-02  -7.36250456E-08
  -1.11499997E-02  -7.56589102E-08
  -1.10999998E-02  -7.77476004E-08
  -1.10499999E-02  -7.98923594E-08
  -1.09999999E-02  -8.20944592E-08
  -1.09500000E-02  -8.43551717E-08
  -1.09000001E-02  -8.66758256E-08
  -1.08500002E-02  -8.90578704E-08
  -1.08000003E-02  -9.15029190E-08
  -1.07500004E-02  -9.40128473E-08
  -1.07000005E-02  -9.65896589E-08
  -1.06499996E-02  -9.92354074E-08
  -1.05999997E-02  -1.01952082E-07
  -1.05499998E-02  -1.04741638E-07
  -1.04999999E-02  -1.07605885E-07
  -1.04499999E-02  -1.10546566E-07
  -1.04000000E-02  -1.13565370E-07
  -1.03500001E-02  -1.16663941E-07
  -1.03000002E-02  -1.19843918E-07
  -1.02500003E-02  -1.23107071E-07
  -1.02000004E-02  -1.26455248E-07
  -1.01500005E-02  -1.29890381E-07
  -1.00999996E-02  -1.33414375E-07
  -1.00499997E-02  -1.37029232E-07
  -9.99999978E-03  -1.40737100E-07
  -9.94999986E-03  -1.44540238E-07
  -9.89999995E-03  -1.48441117E-07
  -9.85000003E-03  -1.52442311E-07
  -9.80000012E-03  -1.56546520E-07
  -9.75000020E-03  -1.60756500E-07
  -9.70000029E-03  -1.65075036E-07
  -9.65000037E-03  -1.69504801E-07
  -9.60000046E-03  -1.74048552E-07
  -9.54999961E-03  -1.78708902E-07
  -9.49999969E-03  -1.83488538E-07
  -9.44999978E-03  -1.88390160E-07
  -9.39999986E-03  -1.93416540E-07
  -9.34999995E-03  -1.98570376E-07
  -9.30000003E-03  -2.03854512E-07
  -9.25000012E-03  -2.09271732E-07
  -9.20000020E-03  -2.14824880E-07
  -9.15000029E-03  -2.20516640E-07
  -9.10000037E-03  -2.26349783E-07
  -9.05000046E-03  -2.32327139E-07
  -8.99999961E-03  -2.38451690E-07
  -8.94999970E-03  -2.44726579E-07
  -8.89999978E-03  -2.51154944E-07
  -8.84999987E-03  -2.57740140E-07
  -8.79999995E-03  -2.64485550E-07
  -8.75000004E-03  -2.71394867E-07
  -8.70000012E-03  -2.78471703E-07
  -8.65000021E-03  -2.85719779E-07
  -8.60000029E-03  -2.93142932E-07
  -8.55000038E-03  -3.00745057E-07
  -8.50000046E-03  -3.08530247E-07
  -8.44999962E-03  -3.16502479E-07
  -8.39999970E-03  -3.24665677E-07
  -8.34999979E-03  -3.33023763E-07
  -8.29999987E-03  -3.41580659E-07
  -8.24999996E-03  -3.50340230E-07
  -8.20000004E-03  -3.59306313E-07
  -8.15000013E-03  -3.68482688E-07
  -8.10000021E-03  -3.77873249E-07
  -8.05000030E-03  -3.87482118E-07
  -8.00000038E-03  -3.97313386E-07
  -7.95000046E-03  -4.07371033E-07
  -7.89999962E-03  -4.17659152E-07
  -7.84999970E-03  -4.28181750E-07
  -7.79999979E-03  -4.38943346E-07
  -7.74999987E-03  -4.49948288E-07
  -7.69999996E-03  -4.61201012E-07
  -7.65000004E-03  -4.72706148E-07
  -7.60000013E-03  -4.84468785E-07
  -7.55000021E-03  -4.96493954E-07
  -7.49999983E-03  -5.08786968E-07
  -7.44999992E-03  -5.21352945E-07
  -7.40000000E-03  -5.34197000E-07
  -7.35000009E-03  -5.47324305E-07
  -7.30000017E-03  -5.60740432E-07
  -7.24999979E-03  -5.74450723E-07
  -7.19999988E-03  -5.88460694E-07
  -7.14999996E-03  -6.02775742E-07
  -7.10000005E-03  -6.17401440E-07
  -7.05000013E-03  -6.32343358E-07
  -7.00000022E-03  -6.47607010E-07
  -6.94999984E-03  -6.63197739E-07
  -6.89999992E-03  -6.79121001E-07
  -6.85000001E-03  -6.95382198E-07
  -6.80000009E-03  -7.11986957E-07
  -6.75000018E-03  -7.28941416E-07
  -6.69999979E-03  -7.46251771E-07
  -6.64999988E-03  -7.63924390E-07
  -6.59999996E-03  -7.81965525E-07
  -6.55000005E-03  -8.00381315E-07
  -6.50000013E-03  -8.19178183E-07
  -6.45000022E-03  -8.38362837E-07
  -6.39999984E-03  -8.57942098E-07
  -6.34999992E-03  -8.77922901E-07
  -6.30000001E-03  -8.98312578E-07
  -6.25000009E-03  -9.19118349E-07
  -6.20000018E-03  -9.40348002E-07
  -6.14999980E-03  -9.62009608E-07
  -6.09999988E-03  -9.84110784E-07
  -6.04999997E-03  -1.00665864E-06
  -6.00000005E-03  -1.02966078E-06
  -5.95000014E-03  -1.05312449E-06
  -5.90000022E-03  -1.07705841E-06
  -5.84999984E-03  -1.10147039E-06
  -5.79999993E-03  -1.12636883E-06
  -5.75000001E-03  -1.15176101E-06
  -5.70000010E-03  -1.17765580E-06
  -5.65000018E-03  -1.20406185E-06
  -5.59999980E-03  -1.23098778E-06
  -5.54999989E-03  -1.25844133E-06
  -5.49999997E-03  -1.28643080E-06
  -5.45000006E-03  -1.31496517E-06
  -5.40000014E-03  -1.34405411E-06
  -5.35000023E-03  -1.37370728E-06
  -5.29999984E-03  -1.40393411E-06
  -5.24999993E-03  -1.43474449E-06
  -5.20000001E-03  -1.46614855E-06
  -5.15000010E-03  -1.49815639E-06
  -5.10000018E-03  -1.53077860E-06
  -5.04999980E-03  -1.56402530E-06
  -4.99999989E-03  -1.59790727E-06
  -4.94999997E-03  -1.63243510E-06
  -4.90000006E-03  -1.66762061E-06
  -4.85000014E-03  -1.70347539E-06
  -4.80000023E-03  -1.74001048E-06
  -4.74999985E-03  -1.77723632E-06
  -4.69999993E-03  -1.81516407E-06
  -4.65000002E-03  -1.85380509E-06
  -4.60000010E-03  -1.89316995E-06
  -4.55000019E-03  -1.93327037E-06
  -4.49999981E-03  -1.97411759E-06
  -4.44999989E-03  -2.01572311E-06
  -4.39999998E-03  -2.05809965E-06
  -4.35000006E-03  -2.10125950E-06
  -4.30000015E-03  -2.14521560E-06
  -4.25000023E-03  -2.18998071E-06
  -4.19999985E-03  -2.23556799E-06
  -4.14999994E-03  -2.28198928E-06
  -4.10000002E-03  -2.32925822E-06
  -4.05000011E-03  -2.37738936E-06
  -4.00000019E-03  -2.42639680E-06
  -3.94999981E-03  -2.47629555E-06
  -3.89999989E-03  -2.52709924E-06
  -3.84999998E-03  -2.57882175E-06
  -3.80000006E-03  -2.63147740E-06
  -3.74999992E-03  -2.68508097E-06
  -3.70000000E-03  -2.73964724E-06
  -3.65000009E-03  -2.79519008E-06
  -3.59999994E-03  -2.85172268E-06
  -3.55000002E-03  -2.90925982E-06
  -3.50000011E-03  -2.96781764E-06
  -3.44999996E-03  -3.02741205E-06
  -3.40000005E-03  -3.08805829E-06
  -3.34999990E-03  -3.14976978E-06
  -3.29999998E-03  -3.21256152E-06
  -3.25000007E-03  -3.27644921E-06
  -3.19999992E-03  -3.34144988E-06
  -3.15000000E-03  -3.40757924E-06
  -3.10000009E-03  -3.47485275E-06
  -3.04999994E-03  -3.54328654E-06
  -3.00000003E-03  -3.61289722E-06
  -2.95000011E-03  -3.68370411E-06
  -2.89999996E-03  -3.75572381E-06
  -2.85000005E-03  -3.82897133E-06
  -2.79999990E-03  -3.90346167E-06
  -2.74999999E-03  -3.97921349E-06
  -2.70000007E-03  -4.05624587E-06
  -2.64999992E-03  -4.13457610E-06
  -2.60000001E-03  -4.21422146E-06
  -2.55000009E-03  -4.29519832E-06
  -2.49999994E-03  -4.37752351E-06
  -2.45000003E-03  -4.46121749E-06
  -2.40000011E-03  -4.54629935E-06
  -2.34999997E-03  -4.63278502E-06
  -2.30000005E-03  -4.72068905E-06
  -2.24999990E-03  -4.81002826E-06
  -2.19999999E-03  -4.90082266E-06
  -2.15000007E-03  -4.99309317E-06
  -2.09999993E-03  -5.08685753E-06
  -2.05000001E-03  -5.18213028E-06
  -2.00000009E-03  -5.27892644E-06
  -1.94999995E-03  -5.37726737E-06
  -1.90000003E-03  -5.47717400E-06
  -1.85000000E-03  -5.57866542E-06
  -1.79999997E-03  -5.68175574E-06
  -1.75000005E-03  -5.78646359E-06
  -1.70000002E-03  -5.89280717E-06
  -1.64999999E-03  -6.00081012E-06
  -1.59999996E-03  -6.11049336E-06
  -1.55000004E-03  -6.22187417E-06
  -1.50000001E-03  -6.33496938E-06
  -1.44999998E-03  -6.44979582E-06
  -1.39999995E-03  -6.56637485E-06
  -1.35000004E-03  -6.68472831E-06
  -1.30000000E-03  -6.80487346E-06
  -1.24999997E-03  -6.92682670E-06
  -1.20000006E-03  -7.05060302E-06
  -1.15000003E-03  -7.17622333E-06
  -1.09999999E-03  -7.30370857E-06
  -1.04999996E-03  -7.43307737E-06
  -1.00000005E-03  -7.56434747E-06
  -9.50000016E-04  -7.69753296E-06
  -8.99999985E-04  -7.83265386E-06
  -8.50000011E-04  -7.96972654E-06
  -7.99999980E-04  -8.10877373E-06
  -7.50000007E-04  -8.24981544E-06
  -6.99999975E-04  -8.39286804E-06
  -6.50000002E-04  -8.53794882E-06
  -6.00000028E-04  -8.68507686E-06
  -5.49999997E-04  -8.83427401E-06
  -5.00000024E-04  -8.98555754E-06
  -4.49999992E-04  -9.13894473E-06
  -3.99999990E-04  -9.29445014E-06
  -3.49999988E-04  -9.45209194E-06
  -3.00000014E-04  -9.61189380E-06
  -2.50000012E-04  -9.77387572E-06
  -1.99999995E-04  -9.93804861E-06
  -1.50000007E-04  -1.01044316E-05
  -9.99999975E-05  -1.02730428E-05
  -4.99999987E-05  -1.04438977E-05
   0.00000000      -1.06170110E-05
   4.99999987E-05  -1.07924006E-05
   9.99999975E-05  -1.09700868E-05
   1.50000007E-04  -1.11500876E-05
   1.99999995E-04  -1.13324159E-05
   2.50000012E-04  -1.15170878E-05
   3.00000014E-04  -1.17041209E-05
   3.49999988E-04  -1.18935332E-05
   3.99999990E-04  -1.20853401E-05
   4.49999992E-04  -1.22795545E-05
   5.00000024E-04  -1.24761928E-05
   5.49999997E-04  -1.26752693E-05
   6.00000028E-04  -1.28768061E-05
   6.50000002E-04  -1.30808194E-05
   6.99999975E-04  -1.32873238E-05
   7.50000007E-04  -1.34963311E-05
   7.99999980E-04  -1.37078559E-05
   8.50000011E-04  -1.39219155E-05
   8.99999985E-04  -1.41385244E-05
   9.50000016E-04  -1.43576990E-05
   1.00000005E-03  -1.45794511E-05
   1.04999996E-03  -1.48037925E-05
   1.09999999E-03  -1.50307396E-05
   1.15000003E-03  -1.52603097E-05
   1.20000006E-03  -1.54925165E-05
   1.24999997E-03  -1.57273680E-05
   1.30000000E-03  -1.59648771E-05
   1.35000004E-03  -1.62050546E-05
   1.39999995E-03  -1.64479152E-05
   1.44999998E-03  -1.66934751E-05
   1.50000001E-03  -1.69417435E-05
   1.55000004E-03  -1.71927331E-05
   1.59999996E-03  -1.74464549E-05
   1.64999999E-03  -1.77029233E-05
   1.70000002E-03  -1.79621493E-05
   1.75000005E-03  -1.82241492E-05
   1.79999997E-03  -1.84889250E-05
   1.85000000E-03  -1.87564910E-05
   1.90000003E-03  -1.90268602E-05
   1.94999995E-03  -1.93000433E-05
   2.00000009E-03  -1.95760513E-05
   2.05000001E-03  -1.98549005E-05
   2.09999993E-03  -2.01365965E-05
   2.15000007E-03  -2.04211501E-05
   2.19999999E-03  -2.07085650E-05
   2.24999990E-03  -2.09988575E-05
   2.30000005E-03  -2.12920277E-05
   2.34999997E-03  -2.15880846E-05
   2.40000011E-03  -2.18870391E-05
   2.45000003E-03  -2.21889040E-05
   2.49999994E-03  -2.24936921E-05
   2.55000009E-03  -2.28014051E-05
   2.60000001E-03  -2.31120448E-05
   2.64999992E-03  -2.34256240E-05
   2.70000007E-03  -2.37421500E-05
   2.74999999E-03  -2.40616300E-05
   2.79999990E-03  -2.43840695E-05