  -3.99999991E-02   0.00000000    
  -3.99499983E-02   0.00000000    
  -3.99000011E-02   0.00000000    
  -3.98500003E-02   0.00000000    
  -3.97999994E-02   0.00000000    
  -3.97499986E-02   1.70977182E-22
  -3.97000015E-02   2.02058595E-21
  -3.96500006E-02   1.25597456E-20
  -3.95999998E-02   5.42807292E-20
  -3.95499989E-02   1.82306316E-19
  -3.95000018E-02   5.04894916E-19
  -3.94500010E-02   1.19577726E-18
  -3.94000001E-02   2.48168846E-18
  -3.93499993E-02   4.59327728E-18
  -3.92999984E-02   7.68661968E-18
  -3.92500013E-02   1.17708140E-17
  -3.92000005E-02   1.66980849E-17
  -3.91499996E-02   2.22649757E-17
  -3.90999988E-02   2.84250890E-17
  -3.90500017E-02   3.55386239E-17
  -3.90000008E-02   4.45218715E-17
  -3.89500000E-02   5.67597307E-17
  -3.88999991E-02   7.37325372E-17
  -3.88499983E-02   9.64612635E-17
  -3.88000011E-02   1.25019601E-16
  -3.87500003E-02   1.58406848E-16
  -3.86999995E-02   1.94963863E-16
  -3.86499986E-02   2.33262048E-16
  -3.86000015E-02   2.73105577E-16
  -3.85500006E-02   3.16111081E-16
  -3.84999998E-02   3.65401702E-16
  -3.84499989E-02   4.24305405E-16
  -3.84000018E-02   4.94463794E-16
  -3.83500010E-02   5.74189288E-16
  -3.83000001E-02   6.57990175E-16
  -3.82499993E-02   7.37783644E-16
  -3.81999984E-02   8.05549297E-16
  -3.81500013E-02   8.56386573E-16
  -3.81000005E-02   8.90543971E-16
  -3.80499996E-02   9.13258112E-16
  -3.79999988E-02   9.32130748E-16
  -3.79500017E-02   9.52924665E-16
  -3.79000008E-02   9.75525834E-16
  -3.78500000E-02   9.91958696E-16
  -3.77999991E-02   9.87573713E-16
  -3.77499983E-02   9.45133974E-16
  -3.77000012E-02   8.50124565E-16
  -3.76500003E-02   6.94886189E-16
  -3.75999995E-02   4.79582220E-16
  -3.75499986E-02   2.09419896E-16
  -3.75000015E-02  -1.10682589E-16
  -3.74500006E-02  -4.81532142E-16
  -3.73999998E-02  -9.12642319E-16
  -3.73499990E-02  -1.42127544E-15
  -3.73000018E-02  -2.02779222E-15
  -3.72500010E-02  -2.74910028E-15
  -3.72000001E-02  -3.59268220E-15
  -3.71499993E-02  -4.55330819E-15
  -3.70999984E-02  -5.61336654E-15
  -3.70500013E-02  -6.74644082E-15
  -3.70000005E-02  -7.92289208E-15
  -3.69499996E-02  -9.11604725E-15
  -3.68999988E-02  -1.03079065E-14
  -3.68500017E-02  -1.14935773E-14
  -3.68000008E-02  -1.26833756E-14
  -3.67500000E-02  -1.39011210E-14
  -3.66999991E-02  -1.51771143E-14
  -3.66499983E-02  -1.65356264E-14
  -3.66000012E-02  -1.79794042E-14
  -3.65500003E-02  -1.94767315E-14
  -3.64999995E-02  -2.09578550E-14
  -3.64499986E-02  -2.23256319E-14
  -3.64000015E-02  -2.34796381E-14
  -3.63500006E-02  -2.43457750E-14
  -3.62999998E-02  -2.48980744E-14
  -3.62499990E-02  -2.51595907E-14
  -3.62000018E-02  -2.51767008E-14
  -3.61500010E-02  -2.49738262E-14
  -3.61000001E-02  -2.45083240E-14
  -3.60499993E-02  -2.36507692E-14
  -3.59999985E-02  -2.22090497E-14
  -3.59500013E-02  -1.99959729E-14
  -3.59000005E-02  -1.69163711E-14
  -3.58499996E-02  -1.30328563E-14
  -3.57999988E-02  -8.57018110E-15
  -3.57500017E-02  -3.84014838E-15
  -3.57000008E-02   8.94027817E-16
  -3.56500000E-02   5.55970573E-15
  -3.55999991E-02   1.03534209E-14
  -3.55499983E-02   1.57033081E-14
  -3.55000012E-02   2.21098147E-14
  -3.54500003E-02   2.99190028E-14
  -3.53999995E-02   3.91270742E-14
  -3.53499986E-02   4.93178530E-14
  -3.53000015E-02   5.97871904E-14
  -3.52500007E-02   6.98245715E-14
  -3.51999998E-02   7.90381690E-14
  -3.51499990E-02   8.75683871E-14
  -3.51000018E-02   9.60642359E-14
  -3.50500010E-02   1.05394162E-13
  -3.50000001E-02   1.16190626E-13
  -3.49499993E-02   1.28427461E-13
  -3.48999985E-02   1.41245089E-13
  -3.48500013E-02   1.53151756E-13
  -3.48000005E-02   1.62563485E-13
  -3.47499996E-02   1.68473390E-13
  -3.46999988E-02   1.70944706E-13
  -3.46500017E-02   1.71162563E-13
  -3.46000008E-02   1.70956063E-13
  -3.45500000E-02   1.71948027E-13
  -3.44999991E-02   1.74693823E-13
  -3.44499983E-02   1.78224799E-13
  -3.44000012E-02   1.80271366E-13
  -3.43500003E-02   1.78146235E-13
  -3.42999995E-02   1.69943879E-13
  -3.42499986E-02   1.55513975E-13
  -3.42000015E-02   1.36705941E-13
  -3.41500007E-02   1.16672880E-13
  -3.40999998E-02   9.84544884E-14
  -3.40499990E-02   8.34383764E-14
  -3.40000018E-02   7.04349231E-14
  -3.39500010E-02   5.58951553E-14
  -3.39000002E-02   3.53122310E-14
  -3.38499993E-02   5.27800248E-15
  -3.37999985E-02  -3.47156996E-14
  -3.37500013E-02  -8.16277655E-14
  -3.37000005E-02  -1.29819034E-13
  -3.36499996E-02  -1.73334640E-13
  -3.35999988E-02  -2.08577703E-13
  -3.35500017E-02  -2.36140236E-13
  -3.35000008E-02  -2.60823643E-13
  -3.34500000E-02  -2.89643336E-13
  -3.33999991E-02  -3.28556437E-13
  -3.33499983E-02  -3.79344830E-13
  -3.33000012E-02  -4.38164397E-13
  -3.32500003E-02  -4.96633821E-13
  -3.31999995E-02  -5.45210144E-13
  -3.31499986E-02  -5.77477411E-13
  -3.31000015E-02  -5.93392360E-13
  -3.30500007E-02  -5.99830949E-13
  -3.29999998E-02  -6.07893618E-13
  -3.29499990E-02  -6.27923278E-13
  -3.29000019E-02  -6.64370197E-13
  -3.28500010E-02  -7.12926083E-13
  -3.28000002E-02  -7.61505279E-13
  -3.27499993E-02  -7.94978558E-13
  -3.26999985E-02  -8.01773958E-13
  -3.26500013E-02  -7.79399115E-13
  -3.26000005E-02  -7.36178046E-13
  -3.25499997E-02  -6.88045161E-13
  -3.24999988E-02  -6.51478925E-13
  -3.24500017E-02  -6.35584901E-13
  -3.24000008E-02  -6.37010030E-13
  -3.23500000E-02  -6.40352138E-13
  -3.22999991E-02  -6.24358421E-13
  -3.22499983E-02  -5.71486760E-13
  -3.22000012E-02  -4.76597765E-13
  -3.21500003E-02  -3.50585636E-13
  -3.20999995E-02  -2.16788393E-13
  -3.20499986E-02  -1.01243720E-13
  -3.20000015E-02  -2.08540376E-14
  -3.19500007E-02   2.51460450E-14
  -3.18999998E-02   5.61336527E-14
  -3.18499990E-02   1.02387201E-13
  -3.18000019E-02   1.91641936E-13
  -3.17500010E-02   3.35760689E-13
  -3.17000002E-02   5.23781918E-13
  -3.16499993E-02   7.25098909E-13
  -3.15999985E-02   9.02059460E-13
  -3.15500014E-02   1.02679334E-12
  -3.15000005E-02   1.09469389E-12
  -3.14499997E-02   1.12797228E-12
  -3.13999988E-02   1.16686955E-12
  -3.13500017E-02   1.25172095E-12
  -3.13000008E-02   1.40359957E-12
  -3.12500000E-02   1.61250798E-12
  -3.11999992E-02   1.83921259E-12
  -3.11500002E-02   2.03087048E-12
  -3.10999993E-02   2.14416115E-12
  -3.10500003E-02   2.16566543E-12
  -3.09999995E-02   2.11979913E-12
  -3.09500005E-02   2.05972739E-12
  -3.08999997E-02   2.04431654E-12
  -3.08500007E-02   2.11089306E-12
  -3.07999998E-02   2.25620629E-12
  -3.07500008E-02   2.43499773E-12
  -3.07000000E-02   2.57799945E-12
  -3.06499992E-02   2.62225788E-12
  -3.06000002E-02   2.54046263E-12
  -3.05499993E-02   2.35556518E-12
  -3.05000003E-02   2.13293033E-12
  -3.04499995E-02   1.95223698E-12
  -3.04000005E-02   1.87091532E-12
  -3.03499997E-02   1.89559870E-12
  -3.03000007E-02   1.97539381E-12
  -3.02499998E-02   2.02149213E-12
  -3.02000009E-02   1.94569165E-12
  -3.01500000E-02   1.70115116E-12
  -3.00999992E-02   1.30662722E-12
  -3.00500002E-02   8.41969018E-13
  -2.99999993E-02   4.15217557E-13
  -2.99500003E-02   1.14842733E-13
  -2.98999995E-02  -3.16691490E-14
  -2.98500005E-02  -7.33645322E-14
  -2.97999997E-02  -1.16834683E-13
  -2.97500007E-02  -2.79506182E-13
  -2.96999998E-02  -6.35241154E-13
  -2.96500009E-02  -1.17697377E-12
  -2.96000000E-02  -1.81462712E-12
  -2.95499992E-02  -2.41125717E-12
  -2.95000002E-02  -2.84287437E-12
  -2.94499993E-02  -3.05562780E-12
  -2.94000003E-02  -3.09382099E-12
  -2.93499995E-02  -3.08422493E-12
  -2.93000005E-02  -3.18153988E-12
  -2.92499997E-02  -3.49802977E-12
  -2.92000007E-02  -4.04887408E-12
  -2.91499998E-02  -4.73920946E-12
  -2.91000009E-02  -5.40098695E-12
  -2.90500000E-02  -5.86526574E-12
  -2.89999992E-02  -6.03852168E-12
  -2.89500002E-02  -5.94811483E-12
  -2.88999993E-02  -5.73449144E-12
  -2.88500004E-02  -5.59108619E-12
  -2.87999995E-02  -5.67697408E-12
  -2.87500005E-02  -6.04109167E-12
  -2.86999997E-02  -6.59342633E-12
  -2.86500007E-02  -7.13870586E-12
  -2.85999998E-02  -7.46014188E-12
  -2.85500009E-02  -7.41721354E-12
  -2.85000000E-02  -7.01326931E-12
  -2.84499992E-02  -6.40051120E-12
  -2.84000002E-02  -5.81708293E-12
  -2.83499993E-02  -5.48189619E-12
  -2.83000004E-02  -5.49337312E-12
  -2.82499995E-02  -5.77863452E-12
  -2.82000005E-02  -6.11866720E-12
  -2.81499997E-02  -6.24140756E-12
  -2.81000007E-02  -5.94321250E-12
  -2.80499998E-02  -5.18447741E-12
  -2.80000009E-02  -4.11456936E-12
  -2.79500000E-02  -3.01163825E-12
  -2.78999992E-02  -2.16114149E-12
  -2.78500002E-02  -1.72598145E-12
  -2.77999993E-02  -1.66722040E-12
  -2.77500004E-02  -1.75377811E-12
  -2.76999995E-02  -1.66044663E-12
  -2.76500005E-02  -1.11324058E-12
  -2.75999997E-02  -1.77263515E-14
  -2.75500007E-02   1.48891088E-12
  -2.74999999E-02   3.08898827E-12
  -2.74500009E-02   4.41962439E-12
  -2.74000000E-02   5.23405234E-12
  -2.73499992E-02   5.51662318E-12
  -2.73000002E-02   5.49731831E-12
  -2.72499993E-02   5.55527629E-12
  -2.72000004E-02   6.05084993E-12
  -2.71499995E-02   7.15981614E-12
  -2.71000005E-02   8.78518092E-12
  -2.70499997E-02   1.05895969E-11
  -2.70000007E-02   1.21381924E-11
  -2.69499999E-02   1.30910205E-11
  -2.69000009E-02   1.33594854E-11
  -2.68500000E-02   1.31543049E-11
  -2.67999992E-02   1.28991800E-11
  -2.67500002E-02   1.30443989E-11
  -2.66999993E-02   1.38613496E-11
  -2.66500004E-02   1.53105219E-11
  -2.65999995E-02   1.70455872E-11
  -2.65500005E-02   1.85566302E-11
  -2.64999997E-02   1.93926333E-11
  -2.64500007E-02   1.93651605E-11
  -2.63999999E-02   1.86403584E-11
  -2.63500009E-02   1.76736941E-11
  -2.63000000E-02   1.70115883E-11
  -2.62499992E-02   1.70451882E-11
  -2.62000002E-02   1.78261451E-11
  -2.61499994E-02   1.90298905E-11
  -2.61000004E-02   2.00879712E-11
  -2.60499995E-02   2.04352108E-11
  -2.60000005E-02   1.97636699E-11
  -2.59499997E-02   1.81687269E-11
  -2.59000007E-02   1.61176732E-11
  -2.58499999E-02   1.42491800E-11
  -2.58000009E-02   1.30888269E-11
  -2.57500000E-02   1.28065484E-11
  -2.56999992E-02   1.31269847E-11
  -2.56500002E-02   1.34381638E-11
  -2.55999994E-02   1.30557917E-11
  -2.55500004E-02   1.15288152E-11
  -2.54999995E-02   8.84970656E-12
  -2.54500005E-02   5.47173938E-12
  -2.53999997E-02   2.11957600E-12
  -2.53500007E-02  -5.27602647E-13
  -2.52999999E-02  -2.14135263E-12
  -2.52500009E-02  -2.89961826E-12
  -2.52000000E-02  -3.41815812E-12
  -2.51499992E-02  -4.48207660E-12
  -2.51000002E-02  -6.69269718E-12
  -2.50499994E-02  -1.01865235E-11
  -2.50000004E-02  -1.45551245E-11
  -2.49499995E-02  -1.90079740E-11
  -2.49000005E-02  -2.27118914E-11
  -2.48499997E-02  -2.51593468E-11
  -2.48000007E-02  -2.64005727E-11
  -2.47499999E-02  -2.70311429E-11
  -2.47000009E-02  -2.79336988E-11
  -2.46500000E-02  -2.98832348E-11
  -2.45999992E-02  -3.31897114E-11
  -2.45500002E-02  -3.75398046E-11
  -2.44999994E-02  -4.21143849E-11
  -2.44500004E-02  -4.59362375E-11
  -2.43999995E-02  -4.82979108E-11
  -2.43500005E-02  -4.90792129E-11
  -2.42999997E-02  -4.88088389E-11
  -2.42500007E-02  -4.84355611E-11
  -2.41999999E-02  -4.89043736E-11
  -2.41500009E-02  -5.07231548E-11
  -2.41000000E-02  -5.37144634E-11
  -2.40499992E-02  -5.70690752E-11
  -2.40000002E-02  -5.96850069E-11
  -2.39499994E-02  -6.06472025E-11
  -2.39000004E-02  -5.96359975E-11
  -2.38499995E-02  -5.70792857E-11
  -2.38000005E-02  -5.39735756E-11
  -2.37499997E-02  -5.14461702E-11
  -2.37000007E-02  -5.02486178E-11
  -2.36499999E-02  -5.04070570E-11
  -2.36000009E-02  -5.11902326E-11
  -2.35500000E-02  -5.14170095E-11
  -2.34999992E-02  -4.99734559E-11
  -2.34500002E-02  -4.63124053E-11
  -2.33999994E-02  -4.07108687E-11
  -2.33500004E-02  -3.41643276E-11
  -2.32999995E-02  -2.79568764E-11
  -2.32500006E-02  -2.30929078E-11
  -2.31999997E-02  -1.98421609E-11
  -2.31500007E-02  -1.76049765E-11
  -2.30999999E-02  -1.51655199E-11
  -2.30500009E-02  -1.12281660E-11
  -2.30000000E-02  -5.00287355E-12
  -2.29499992E-02   3.42182185E-12
  -2.29000002E-02   1.30900776E-11
  -2.28499994E-02   2.25775579E-11
  -2.28000004E-02   3.06073326E-11
  -2.27499995E-02   3.66115610E-11
  -2.27000006E-02   4.09861450E-11
  -2.26499997E-02   4.49179235E-11
  -2.26000007E-02   4.98533090E-11
  -2.25499999E-02   5.68391618E-11
  -2.25000009E-02   6.60289948E-11
  -2.24500000E-02   7.65791736E-11
  -2.23999992E-02   8.69896169E-11
  -2.23500002E-02   9.57451410E-11
  -2.22999994E-02   1.01976004E-10
  -2.22500004E-02   1.05842106E-10
  -2.21999995E-02   1.08463113E-10
  -2.21500006E-02   1.11417112E-10
  -2.20999997E-02   1.16024038E-10
  -2.20500007E-02   1.22730576E-10
  -2.19999999E-02   1.30873978E-10
  -2.19500009E-02   1.38937514E-10
  -2.19000001E-02   1.45192164E-10
  -2.18499992E-02   1.48444382E-10
  -2.18000002E-02   1.48557319E-10
  -2.17499994E-02   1.46508236E-10
  -2.17000004E-02   1.43948742E-10
  -2.16499995E-02   1.42456519E-10
  -2.16000006E-02   1.42808376E-10
  -2.15499997E-02   1.44600776E-10
  -2.15000007E-02   1.46393675E-10
  -2.14499999E-02   1.46322093E-10
  -2.14000009E-02   1.42909393E-10
  -2.13500001E-02   1.35721726E-10
  -2.12999992E-02   1.25568278E-10
  -2.12500002E-02   1.14150647E-10
  -2.11999994E-02   1.03309833E-10
  -2.11500004E-02   9.42013897E-11
  -2.10999995E-02   8.67670519E-11
  -2.10500006E-02   7.97431843E-11
  -2.09999997E-02   7.12104403E-11
  -2.09500007E-02   5.94463229E-11
  -2.08999999E-02   4.37038530E-11
  -2.08500009E-02   2.45671834E-11
  -2.08000001E-02   3.71948392E-12
  -2.07499992E-02  -1.67804763E-11
  -2.07000002E-02  -3.53958529E-11
  -2.06499994E-02  -5.17837891E-11
  -2.06000004E-02  -6.69382674E-11
  -2.05499995E-02  -8.27331120E-11
  -2.05000006E-02  -1.01061860E-10
  -2.04499997E-02  -1.22954411E-10
  -2.04000007E-02  -1.48065324E-10
  -2.03499999E-02  -1.74767201E-10
  -2.03000009E-02  -2.00814948E-10
  -2.02500001E-02  -2.24290822E-10
  -2.01999992E-02  -2.44411241E-10
  -2.01500002E-02  -2.61834054E-10
  -2.00999994E-02  -2.78323697E-10
  -2.00500004E-02  -2.95917540E-10
  -1.99999996E-02  -3.15961396E-10
  -1.99500006E-02  -3.38443745E-10
  -1.98999997E-02  -3.61929292E-10
  -1.98500007E-02  -3.84126841E-10
  -1.97999999E-02  -4.02843509E-10
  -1.97500009E-02  -4.16902401E-10
  -1.97000001E-02  -4.26613356E-10
  -1.96499992E-02  -4.33582614E-10
  -1.96000002E-02  -4.39941361E-10
  -1.95499994E-02  -4.47333393E-10
  -1.95000004E-02  -4.56112897E-10
  -1.94499996E-02  -4.65112171E-10
  -1.94000006E-02  -4.72088368E-10
  -1.93499997E-02  -4.74654316E-10
  -1.93000007E-02  -4.71282513E-10
  -1.92499999E-02  -4.61934324E-10
  -1.92000009E-02  -4.48032861E-10
  -1.91500001E-02  -4.31787661E-10
  -1.90999992E-02  -4.15170676E-10
  -1.90500002E-02  -3.98998556E-10
  -1.89999994E-02  -3.82532478E-10
  -1.89500004E-02  -3.63776370E-10
  -1.88999996E-02  -3.40343337E-10
  -1.88500006E-02  -3.10506287E-10
  -1.87999997E-02  -2.73963602E-10
  -1.87500007E-02  -2.31977562E-10
  -1.86999999E-02  -1.86821558E-10
  -1.86500009E-02  -1.40780776E-10
  -1.86000001E-02  -9.51518378E-11
  -1.85499992E-02  -4.96875839E-11
  -1.85000002E-02  -2.73704670E-12
  -1.84499994E-02   4.79802656E-11
  -1.84000004E-02   1.04309880E-10
  -1.83499996E-02   1.66781450E-10
  -1.83000006E-02   2.34304076E-10
  -1.82499997E-02   3.04573505E-10
  -1.82000007E-02   3.75010384E-10
  -1.81499999E-02   4.43809406E-10
  -1.81000009E-02   5.10632092E-10
  -1.80500001E-02   5.76634240E-10
  -1.79999992E-02   6.43817888E-10
  -1.79500002E-02   7.13995307E-10
  -1.78999994E-02   7.87832133E-10
  -1.78500004E-02   8.64394112E-10
  -1.77999996E-02   9.41400180E-10
  -1.77500006E-02   1.01606734E-09
  -1.76999997E-02   1.08616982E-09
  -1.76500008E-02   1.15083798E-09
  -1.75999999E-02   1.21074506E-09
  -1.75500009E-02   1.26759725E-09
  -1.75000001E-02   1.32315880E-09
  -1.74499992E-02   1.37825173E-09
  -1.74000002E-02   1.43217016E-09
  -1.73499994E-02   1.48277579E-09
  -1.73000004E-02   1.52721891E-09
  -1.72499996E-02   1.56296898E-09
  -1.72000006E-02   1.58868207E-09
  -1.71499997E-02   1.60453062E-09
  -1.71000008E-02   1.61184466E-09
  -1.70499999E-02   1.61223601E-09
  -1.70000009E-02   1.60659963E-09
  -1.69500001E-02   1.59444002E-09
  -1.68999992E-02   1.57382130E-09
  -1.68500002E-02   1.54196234E-09
  -1.67999994E-02   1.49619928E-09
  -1.67500004E-02   1.43489087E-09
  -1.66999996E-02   1.35785716E-09
  -1.66500006E-02   1.26616684E-09
  -1.65999997E-02   1.16137178E-09
  -1.65500008E-02   1.04453968E-09
  -1.64999999E-02   9.15520659E-10
  -1.64500009E-02   7.72765241E-10
  -1.64000001E-02   6.13779139E-10
  -1.63499992E-02   4.35996544E-10
  -1.63000003E-02   2.37669301E-10
  -1.62499994E-02   1.83891114E-11
  -1.62000004E-02  -2.20993390E-10
  -1.61499996E-02  -4.79008500E-10
  -1.61000006E-02  -7.54463103E-10
  -1.60499997E-02  -1.04719267E-09
  -1.60000008E-02  -1.35832823E-09
  -1.59499999E-02  -1.68996928E-09
  -1.59000009E-02  -2.04441930E-09
  -1.58500001E-02  -2.42333553E-09
  -1.57999992E-02  -2.82716761E-09
  -1.57500003E-02  -3.25514349E-09
  -1.56999994E-02  -3.70578146E-09
  -1.56500004E-02  -4.17770751E-09
  -1.55999996E-02  -4.67038364E-09
  -1.55499997E-02  -5.18444354E-09
  -1.54999997E-02  -5.72147973E-09
  -1.54499998E-02  -6.28339825E-09
  -1.53999999E-02  -6.87164414E-09
  -1.53500000E-02  -7.48664686E-09
  -1.53000001E-02  -8.12773049E-09
  -1.52500002E-02  -8.79352147E-09
  -1.52000003E-02  -9.48264933E-09
  -1.51500003E-02  -1.01944320E-08
  -1.51000004E-02  -1.09292024E-08
  -1.50499996E-02  -1.16881793E-08
  -1.49999997E-02  -1.24729249E-08
  -1.49499997E-02  -1.32846587E-08
  -1.48999998E-02  -1.41237333E-08
  -1.48499999E-02  -1.49895225E-08
  -1.48000000E-02  -1.58807580E-08
  -1.47500001E-02  -1.67961396E-08
  -1.47000002E-02  -1.77349158E-08
  -1.46500003E-02  -1.86972340E-08
  -1.46000003E-02  -1.96840322E-08
  -1.45500004E-02  -2.06965858E-08
  -1.44999996E-02  -2.17359180E-08
  -1.44499997E-02  -2.28023680E-08
  -1.43999998E-02  -2.38954652E-08
  -1.43499998E-02  -2.50142360E-08
  -1.42999999E-02  -2.61577160E-08
  -1.42500000E-02  -2.73254610E-08
  -1.42000001E-02  -2.85177997E-08
  -1.41500002E-02  -2.97357285E-08
  -1.41000003E-02  -3.09805230E-08
  -1.40500003E-02  -3.22532010E-08
  -1.40000004E-02  -3.35541905E-08
  -1.39499996E-02  -3.48832678E-08
  -1.38999997E-02  -3.62398431E-08
  -1.38499998E-02  -3.76234262E-08
  -1.37999998E-02  -3.90340205E-08
  -1.37499999E-02  -4.04723544E-08
  -1.37000000E-02  -4.19396819E-08
  -1.36500001E-02  -4.34374350E-08
  -1.36000002E-02  -4.49667468E-08
  -1.35500003E-02  -4.65282319E-08
  -1.35000004E-02  -4.81219899E-08
  -1.34500004E-02  -4.97479462E-08
  -1.33999996E-02  -5.14062819E-08
  -1.33499997E-02  -5.30978141E-08
  -1.32999998E-02  -5.48240102E-08
  -1.32499998E-02  -5.65867744E-08
  -1.31999999E-02  -5.83880251E-08
  -1.31500000E-02  -6.02292758E-08
  -1.31000001E-02  -6.21114467E-08
  -1.30500002E-02  -6.40349853E-08
  -1.30000003E-02  -6.60003394E-08
  -1.29500004E-02  -6.80083758E-08
  -1.29000004E-02  -7.00606861E-08
  -1.28499996E-02  -7.21595868E-08
  -1.27999997E-02  -7.43077493E-08
  -1.27499998E-02  -7.65076678E-08
  -1.26999998E-02  -7.87612819E-08
  -1.26499999E-02  -8.10698353E-08
  -1.26000000E-02  -8.34341378E-08
  -1.25500001E-02  -8.58550635E-08
  -1.25000002E-02  -8.83341897E-08
  -1.24500003E-02  -9.08740105E-08
  -1.24000004E-02  -9.34778441E-08
  -1.23500004E-02  -9.61493996E-08
  -1.22999996E-02  -9.88920519E-08
  -1.22499997E-02  -1.01708395E-07
  -1.21999998E-02  -1.04600133E-07
  -1.21499998E-02  -1.07568482E-07
  -1.20999999E-02  -1.10614742E-07
  -1.20500000E-02  -1.13741081E-07
  -1.20000001E-02  -1.16950780E-07
  -1.19500002E-02  -1.20248131E-07
  -1.19000003E-02  -1.23637747E-07
  -1.18500004E-02  -1.27123769E-07
  -1.18000004E-02  -1.30709381E-07
  -1.17499996E-02  -1.34396558E-07
  -1.16999997E-02  -1.38186607E-07
  -1.16499998E-02  -1.42081007E-07
  -1.15999999E-02  -1.46082243E-07
  -1.15499999E-02  -1.50194239E-07
  -1.15000000E-02  -1.54422167E-07
  -1.14500001E-02  -1.58771769E-07
  -1.14000002E-02  -1.63248245E-07
  -1.13500003E-02  -1.67855617E-07
  -1.13000004E-02  -1.72596472E-07
  -1.12500004E-02  -1.77472486E-07
  -1.11999996E-02  -1.82485337E-07
  -1.11499997E-02  -1.87637781E-07
  -1.10999998E-02  -1.92934166E-07
  -1.10499999E-02  -1.98380377E-07
  -1.09999999E-02  -2.03982935E-07
  -1.09500000E-02  -2.09747924E-07
  -1.09000001E-02  -2.15679975E-07
  -1.08500002E-02  -2.21782017E-07
  -1.08000003E-02  -2.28055811E-07
  -1.07500004E-02  -2.34503020E-07
  -1.07000005E-02  -2.41126543E-07
  -1.06499996E-02  -2.47931183E-07
  -1.05999997E-02  -2.54923719E-07
  -1.05499998E-02  -2.62111882E-07
  -1.04999999E-02  -2.69503232E-07
  -1.04499999E-02  -2.77103624E-07
  -1.04000000E-02  -2.84917093E-07
  -1.03500001E-02  -2.92946027E-07
  -1.03000002E-02  -3.01192586E-07
  -1.02500003E-02  -3.09659839E-07
  -1.02000004E-02  -3.18353159E-07
  -1.01500005E-02  -3.27279935E-07
  -1.00999996E-02  -3.36449034E-07
  -1.00499997E-02  -3.45869097E-07
  -9.99999978E-03  -3.55547172E-07
  -9.94999986E-03  -3.65488262E-07
  -9.89999995E-03  -3.75695265E-07
  -9.85000003E-03  -3.86170626E-07
  -9.80000012E-03  -3.96917727E-07
  -9.75000020E-03  -4.07942366E-07
  -9.70000029E-03  -4.19252814E-07
  -9.65000037E-03  -4.30859160E-07
  -9.60000046E-03  -4.42771778E-07
  -9.54999961E-03  -4.54999622E-07
  -9.49999969E-03  -4.67549313E-07
  -9.44999978E-03  -4.80425228E-07
  -9.39999986E-03  -4.93631035E-07
  -9.34999995E-03  -5.07171080E-07
  -9.30000003E-03  -5.21052243E-07
  -9.25000012E-03  -5.35284244E-07
  -9.20000020E-03  -5.49878791E-07
  -9.15000029E-03  -5.64848278E-07
  -9.10000037E-03  -5.80203618E-07
  -9.05000046E-03  -5.95953168E-07
  -8.99999961E-03  -6.12102781E-07
  -8.94999970E-03  -6.28657062E-07
  -8.89999978E-03  -6.45621128E-07
  -8.84999987E-03  -6.63002481E-07
  -8.79999995E-03  -6.80811695E-07
  -8.75000004E-03  -6.99061900E-07
  -8.70000012E-03  -7.17767250E-07
  -8.65000021E-03  -7.36940706E-07
  -8.60000029E-03  -7.56592954E-07
  -8.55000038E-03  -7.76732293E-07
  -8.50000046E-03  -7.97365090E-07
  -8.44999962E-03  -8.18498222E-07
  -8.39999970E-03  -8.40140672E-07
  -8.34999979E-03  -8.62305001E-07
  -8.29999987E-03  -8.85006614E-07
  -8.24999996E-03  -9.08261939E-07
  -8.20000004E-03  -9.32087062E-07
  -8.15000013E-03  -9.56495455E-07
  -8.10000021E-03  -9.81497919E-07
  -8.05000030E-03  -1.00710315E-06
  -8.00000038E-03  -1.03331956E-06
  -7.95000046E-03  -1.06015784E-06
  -7.89999962E-03  -1.08763209E-06
  -7.84999970E-03  -1.11575889E-06
  -7.79999979E-03  -1.14455725E-06
  -7.74999987E-03  -1.17404534E-06
  -7.69999996E-03  -1.20423897E-06
  -7.65000004E-03  -1.23515122E-06
  -7.60000013E-03  -1.26679311E-06
  -7.55000021E-03  -1.29917498E-06
  -7.49999983E-03  -1.33230958E-06
  -7.44999992E-03  -1.36621247E-06
  -7.40000000E-03  -1.40090299E-06
  -7.35000009E-03  -1.43640261E-06
  -7.30000017E-03  -1.47273261E-06
  -7.24999979E-03  -1.50991218E-06
  -7.19999988E-03  -1.54795725E-06
  -7.14999996E-03  -1.58688181E-06
  -7.10000005E-03  -1.62669892E-06
  -7.05000013E-03  -1.66742348E-06
  -7.00000022E-03  -1.70907356E-06
  -6.94999984E-03  -1.75167111E-06
  -6.89999992E-03  -1.79523988E-06
  -6.85000001E-03  -1.83980433E-06
  -6.80000009E-03  -1.88538627E-06
  -6.75000018E-03  -1.93200481E-06
  -6.69999979E-03  -1.97967597E-06
  -6.64999988E-03  -2.02841625E-06
  -6.59999996E-03  -2.07824246E-06
  -6.55000005E-03  -2.12917507E-06
  -6.50000013E-03  -2.18123819E-06
  -6.45000022E-03  -2.23445818E-06
  -6.39999984E-03  -2.28886188E-06
  -6.34999992E-03  -2.34447361E-06
  -6.30000001E-03  -2.40131590E-06
  -6.25000009E-03  -2.45940873E-06
  -6.20000018E-03  -2.51877032E-06
  -6.14999980E-03  -2.57942111E-06
  -6.09999988E-03  -2.64138498E-06
  -6.04999997E-03  -2.70468922E-06
  -6.00000005E-03  -2.76936339E-06
  -5.95000014E-03  -2.83543659E-06
  -5.90000022E-03  -2.90293769E-06
  -5.84999984E-03  -2.97189285E-06
  -5.79999993E-03  -3.04232526E-06
  -5.75000001E-03  -3.11425788E-06
  -5.70000010E-03  -3.18771436E-06
  -5.65000018E-03  -3.26272107E-06
  -5.59999980E-03  -3.33930871E-06
  -5.54999989E-03  -3.41751024E-06
  -5.49999997E-03  -3.49735865E-06
  -5.45000006E-03  -3.57888666E-06
  -5.40000014E-03  -3.66212248E-06
  -5.35000023E-03  -3.74709361E-06
  -5.29999984E-03  -3.83382576E-06
  -5.24999993E-03  -3.92234597E-06
  -5.20000001E-03  -4.01268517E-06
  -5.15000010E-03  -4.10487746E-06
  -5.10000018E-03  -4.19895969E-06
  -5.04999980E-03  -4.29496913E-06
  -4.99999989E-03  -4.39294172E-06
  -4.94999997E-03  -4.49291019E-06
  -4.90000006E-03  -4.59490593E-06
  -4.85000014E-03  -4.69895895E-06
  -4.80000023E-03  -4.80510107E-06
  -4.74999985E-03  -4.91336777E-06
  -4.69999993E-03  -5.02379771E-06
  -4.65000002E-03  -5.13643363E-06
  -4.60000010E-03  -5.25131554E-06
  -4.55000019E-03  -5.36848393E-06
  -4.49999981E-03  -5.48797652E-06
  -4.44999989E-03  -5.60982699E-06
  -4.39999998E-03  -5.73407124E-06
  -4.35000006E-03  -5.86074384E-06
  -4.30000015E-03  -5.98988390E-06
  -4.25000023E-03  -6.12153462E-06
  -4.19999985E-03  -6.25574194E-06
  -4.14999994E-03  -6.39255222E-06
  -4.10000002E-03  -6.53201050E-06
  -4.05000011E-03  -6.67415770E-06
  -4.00000019E-03  -6.81903248E-06
  -3.94999981E-03  -6.96667121E-06
  -3.89999989E-03  -7.11711436E-06
  -3.84999998E-03  -7.27040469E-06
  -3.80000006E-03  -7.42659131E-06
  -3.74999992E-03  -7.58572651E-06
  -3.70000000E-03  -7.74786258E-06
  -3.65000009E-03  -7.91304774E-06
  -3.59999994E-03  -8.08132791E-06
  -3.55000002E-03  -8.25274492E-06
  -3.50000011E-03  -8.42733971E-06
  -3.44999996E-03  -8.60515775E-06
  -3.40000005E-03  -8.78624633E-06
  -3.34999990E-03  -8.97065820E-06
  -3.29999998E-03  -9.15844703E-06
  -3.25000007E-03  -9.34967102E-06
  -3.19999992E-03  -9.54438474E-06
  -3.15000000E-03  -9.74263548E-06
  -3.10000009E-03  -9.94447055E-06
  -3.04999994E-03  -1.01499327E-05
  -3.00000003E-03  -1.03590692E-05
  -2.95000011E-03  -1.05719300E-05
  -2.89999996E-03  -1.07885708E-05
  -2.85000005E-03  -1.10090514E-05
  -2.79999990E-03  -1.12334337E-05
  -2.74999999E-03  -1.14617787E-05
  -2.70000007E-03  -1.16941374E-05
  -2.64999992E-03  -1.19305623E-05
  -2.60000001E-03  -1.21710964E-05
  -2.55000009E-03  -1.24157887E-05
  -2.49999994E-03  -1.26646910E-05
  -2.45000003E-03  -1.29178625E-05
  -2.40000011E-03  -1.31753686E-05
  -2.34999997E-03  -1.34372749E-05
  -2.30000005E-03  -1.37036468E-05
  -2.24999990E-03  -1.39745416E-05
  -2.19999999E-03  -1.42500066E-05
  -2.15000007E-03  -1.45300892E-05
  -2.09999993E-03  -1.48148383E-05
  -2.05000001E-03  -1.51043050E-05
  -2.00000009E-03  -1.53985511E-05
  -1.94999995E-03  -1.56976439E-05
  -1.90000003E-03  -1.60016534E-05
  -1.85000000E-03  -1.63106488E-05
  -1.79999997E-03  -1.66246900E-05
  -1.75000005E-03  -1.69438263E-05
  -1.70000002E-03  -1.72681084E-05
  -1.64999999E-03  -1.75975820E-05
  -1.59999996E-03  -1.79322960E-05
  -1.55000004E-03  -1.82723143E-05
  -1.50000001E-03  -1.86177040E-05
  -1.44999998E-03  -1.89685379E-05
  -1.39999995E-03  -1.93248907E-05
  -1.35000004E-03  -1.96868241E-05
  -1.30000000E-03  -2.00543891E-05
  -1.24999997E-03  -2.04276330E-05
  -1.20000006E-03  -2.08065994E-05
  -1.15000003E-03  -2.11913375E-05
  -1.09999999E-03  -2.15819036E-05
  -1.04999996E-03  -2.19783687E-05
  -1.00000005E-03  -2.23808111E-05
  -9.50000016E-04  -2.27893051E-05
  -8.99999985E-04  -2.32039165E-05
  -8.50000011E-04  -2.36246979E-05
  -7.99999980E-04  -2.40516911E-05
  -7.50000007E-04  -2.44849343E-05
  -6.99999975E-04  -2.49244677E-05
  -6.50000002E-04  -2.53703474E-05
  -6.00000028E-04  -2.58226428E-05
  -5.49999997E-04  -2.62814283E-05
  -5.00000024E-04  -2.67467803E-05
  -4.49999992E-04  -2.72187699E-05
  -3.99999990E-04  -2.76974442E-05
  -3.49999988E-04  -2.81828452E-05
  -3.00000014E-04  -2.86750037E-05
  -2.50000012E-04  -2.91739543E-05
  -1.99999995E-04  -2.96797480E-05
  -1.50000007E-04  -3.01924520E-05
  -9.99999975E-05  -3.07121409E-05
  -4.99999987E-05  -3.12388838E-05
   0.00000000      -3.17727536E-05
   4.99999987E-05  -3.23137974E-05
   9.99999975E-05  -3.28620445E-05
   1.50000007E-04  -3.34175274E-05
   1.99999995E-04  -3.39802646E-05
   2.50000012E-04  -3.45503067E-05
   3.00000014E-04  -3.51277085E-05
   3.49999988E-04  -3.57125355E-05
   3.99999990E-04  -3.63048603E-05
   4.49999992E-04  -3.69047411E-05
   5.00000024E-04  -3.75122218E-05
   5.49999997E-04  -3.81273385E-05
   6.00000028E-04  -3.87500986E-05
   6.50000002E-04  -3.93805276E-05
   6.99999975E-04  -4.00186545E-05
   7.50000007E-04  -4.06645195E-05
   7.99999980E-04  -4.13181842E-05
   8.50000011E-04  -4.19797107E-05
   8.99999985E-04  -4.26491606E-05
   9.50000016E-04  -4.33265777E-05
   1.00000005E-03  -4.40119766E-05
   1.04999996E-03  -4.47053644E-05
   1.09999999E-03  -4.54067413E-05
   1.15000003E-03  -4.61161217E-05
   1.20000006E-03  -4.68335384E-05
   1.24999997E-03  -4.75590277E-05
   1.30000000E-03  -4.82926480E-05
   1.35000004E-03  -4.90344573E-05
   1.39999995E-03  -4.97844921E-05
   1.44999998E-03  -5.05427488E-05
   1.50000001E-03  -5.13092200E-05
   1.55000004E-03  -5.20838912E-05
   1.59999996E-03  -5.28667588E-05
   1.64999999E-03  -5.36578300E-05
   1.70000002E-03  -5.44571449E-05
   1.75000005E-03  -5.52647325E-05
   1.79999997E-03  -5.60806402E-05
   1.85000000E-03  -5.69048752E-05
   1.90000003E-03  -5.77374376E-05
   1.94999995E-03  -5.85783055E-05
   2.00000009E-03  -5.94274461E-05
   2.05000001E-03  -6.02848268E-05
   2.09999993E-03  -6.11504365E-05
   2.15000007E-03  -6.20242790E-05
   2.19999999E-03  -6.29063798E-05
   2.24999990E-03  -6.37967532E-05
   2.30000005E-03  -6.46954140E-05
   2.34999997E-03  -6.56023476E-05
   2.40000011E-03  -6.65175030E-05
   2.45000003E-03  -6.74408220E-05
   2.49999994E-03  -6.83722392E-05
   2.55000009E-03  -6.93117254E-05
   2.60000001E-03  -7.02592442E-05
   2.64999992E-03  -7.12148103E-05
   2.70000007E-03  -7.21784090E-05
   2.74999999E-03  -7.31500477E-05
   2.79999990E-03  -7.41296753E-05