  -3.99999991E-02   0.00000000    
  -3.99499983E-02   0.00000000    
  -3.99000011E-02   0.00000000    
  -3.98500003E-02   0.00000000    
  -3.97999994E-02   7.69806368E-22
  -3.97499986E-02   3.40813478E-21
  -3.97000015E-02  -4.15816908E-21
  -3.96500006E-02  -1.00453098E-19
  -3.95999998E-02  -5.55998496E-19
  -3.95499989E-02  -2.03910836E-18
  -3.95000018E-02  -5.84590170E-18
  -3.94500010E-02  -1.40183986E-17
  -3.94000001E-02  -2.91772774E-17
  -3.93499993E-02  -5.39694421E-17
  -3.92999984E-02  -9.02416329E-17
  -3.92500013E-02  -1.38333927E-16
  -3.92000005E-02  -1.97073015E-16
  -3.91499996E-02  -2.64931259E-16
  -3.90999988E-02  -3.42310366E-16
  -3.90500017E-02  -4.34154916E-16
  -3.90000008E-02  -5.51509822E-16
  -3.89500000E-02  -7.10670437E-16
  -3.88999991E-02  -9.29469688E-16
  -3.88499983E-02  -1.22174084E-15
  -3.88000011E-02  -1.59238351E-15
  -3.87500003E-02  -2.03589536E-15
  -3.86999995E-02  -2.54018172E-15
  -3.86499986E-02  -3.09509926E-15
  -3.86000015E-02  -3.70243310E-15
  -3.85500006E-02  -4.38224947E-15
  -3.84999998E-02  -5.17105737E-15
  -3.84499989E-02  -6.11034322E-15
  -3.84000018E-02  -7.22876383E-15
  -3.83500010E-02  -8.52545099E-15
  -3.83000001E-02  -9.96300905E-15
  -3.82499993E-02  -1.14756219E-14
  -3.81999984E-02  -1.29911120E-14
  -3.81500013E-02  -1.44587203E-14
  -3.81000005E-02  -1.58703058E-14
  -3.80499996E-02  -1.72641866E-14
  -3.79999988E-02  -1.87075849E-14
  -3.79500017E-02  -2.02630610E-14
  -3.79000008E-02  -2.19521938E-14
  -3.78500000E-02  -2.37321251E-14
  -3.77999991E-02  -2.54959289E-14
  -3.77499983E-02  -2.70976055E-14
  -3.77000012E-02  -2.83912908E-14
  -3.76500003E-02  -2.92674413E-14
  -3.75999995E-02  -2.96698260E-14
  -3.75499986E-02  -2.95858342E-14
  -3.75000015E-02  -2.90146528E-14
  -3.74500006E-02  -2.79271760E-14
  -3.73999998E-02  -2.62344569E-14
  -3.73499990E-02  -2.37768975E-14
  -3.73000018E-02  -2.03381267E-14
  -3.72500010E-02  -1.56791779E-14
  -3.72000001E-02  -9.58352135E-15
  -3.71499993E-02  -1.90209570E-15
  -3.70999984E-02   7.41178816E-15
  -3.70500013E-02   1.82867823E-14
  -3.70000005E-02   3.05455192E-14
  -3.69499996E-02   4.39506728E-14
  -3.68999988E-02   5.82847640E-14
  -3.68500017E-02   7.34501300E-14
  -3.68000008E-02   8.95583927E-14
  -3.67500000E-02   1.06966444E-13
  -3.66999991E-02   1.26220323E-13
  -3.66499983E-02   1.47896520E-13
  -3.66000012E-02   1.72377005E-13
  -3.65500003E-02   1.99640096E-13
  -3.64999995E-02   2.29168111E-13
  -3.64499986E-02   2.60044644E-13
  -3.64000015E-02   2.91239716E-13
  -3.63500006E-02   3.21986524E-13
  -3.62999998E-02   3.52083895E-13
  -3.62499990E-02   3.81955670E-13
  -3.62000018E-02   4.12382558E-13
  -3.61500010E-02   4.43971005E-13
  -3.61000001E-02   4.76575485E-13
  -3.60499993E-02   5.08966404E-13
  -3.59999985E-02   5.38975115E-13
  -3.59500013E-02   5.64153650E-13
  -3.59000005E-02   5.82727768E-13
  -3.58499996E-02   5.94423545E-13
  -3.57999988E-02   6.00720374E-13
  -3.57500017E-02   6.04283388E-13
  -3.57000008E-02   6.07688975E-13
  -3.56500000E-02   6.11936825E-13
  -3.55999991E-02   6.15441292E-13
  -3.55499983E-02   6.14087015E-13
  -3.55000012E-02   6.02515542E-13
  -3.54500003E-02   5.76226783E-13
  -3.53999995E-02   5.33609019E-13
  -3.53499986E-02   4.76891259E-13
  -3.53000015E-02   4.11382381E-13
  -3.52500007E-02   3.43102825E-13
  -3.51999998E-02   2.75727168E-13
  -3.51499990E-02   2.08239676E-13
  -3.51000018E-02   1.34571973E-13
  -3.50500010E-02   4.57108818E-14
  -3.50000001E-02  -6.63727496E-14
  -3.49499993E-02  -2.04612003E-13
  -3.48999985E-02  -3.64518555E-13
  -3.48500013E-02  -5.35030679E-13
  -3.48000005E-02  -7.02577753E-13
  -3.47499996E-02  -8.56852404E-13
  -3.46999988E-02  -9.95745153E-13
  -3.46500017E-02  -1.12696603E-12
  -3.46000008E-02  -1.26514923E-12
  -3.45500000E-02  -1.42526648E-12
  -3.44999991E-02  -1.61505846E-12
  -3.44499983E-02  -1.82999579E-12
  -3.44000012E-02  -2.05349127E-12
  -3.43500003E-02  -2.26287305E-12
  -3.42999995E-02  -2.43892211E-12
  -3.42499986E-02  -2.57479606E-12
  -3.42000015E-02  -2.67996909E-12
  -3.41500007E-02  -2.77672091E-12
  -3.40999998E-02  -2.89000464E-12
  -3.40499990E-02  -3.03481394E-12
  -3.40000018E-02  -3.20684256E-12
  -3.39500010E-02  -3.38129329E-12
  -3.39000002E-02  -3.52133166E-12
  -3.38499993E-02  -3.59320993E-12
  -3.37999985E-02  -3.58158230E-12
  -3.37500013E-02  -3.49775048E-12
  -3.37000005E-02  -3.37618215E-12
  -3.36499996E-02  -3.25977136E-12
  -3.35999988E-02  -3.17969891E-12
  -3.35500017E-02  -3.13893226E-12
  -3.35000008E-02  -3.10756694E-12
  -3.34500000E-02  -3.03339038E-12
  -3.33999991E-02  -2.86413363E-12
  -3.33499983E-02  -2.57197475E-12
  -3.33000012E-02  -2.16886925E-12
  -3.32500003E-02  -1.70455588E-12
  -3.31999995E-02  -1.24653586E-12
  -3.31499986E-02  -8.49815118E-13
  -3.31000015E-02  -5.29767419E-13
  -3.30500007E-02  -2.51238429E-13
  -3.29999998E-02   5.94787145E-14
  -3.29499990E-02   4.83360097E-13
  -3.29000019E-02   1.07104885E-12
  -3.28500010E-02   1.81603343E-12
  -3.28000002E-02   2.65210510E-12
  -3.27499993E-02   3.47831854E-12
  -3.26999985E-02   4.20200289E-12
  -3.26500013E-02   4.78111908E-12
  -3.26000005E-02   5.24602540E-12
  -3.25499997E-02   5.68881530E-12
  -3.24999988E-02   6.22268946E-12
  -3.24500017E-02   6.92810956E-12
  -3.24000008E-02   7.81003300E-12
  -3.23500000E-02   8.78721141E-12
  -3.22999991E-02   9.72109459E-12
  -3.22499983E-02   1.04738961E-11
  -3.22000012E-02   1.09708327E-11
  -3.21500003E-02   1.12377148E-11
  -3.20999995E-02   1.13943941E-11
  -3.20499986E-02   1.16038151E-11
  -3.20000015E-02   1.19971559E-11
  -3.19500007E-02   1.26082643E-11
  -3.18999998E-02   1.33486425E-11
  -3.18499990E-02   1.40375662E-11
  -3.18000019E-02   1.44771877E-11
  -3.17500010E-02   1.45407887E-11
  -3.17000002E-02   1.42339942E-11
  -3.16499993E-02   1.36985848E-11
  -3.15999985E-02   1.31532797E-11
  -3.15500014E-02   1.27948251E-11
  -3.15000005E-02   1.27028102E-11
  -3.14499997E-02   1.27928423E-11
  -3.13999988E-02   1.28431233E-11
  -3.13500017E-02   1.25869593E-11
  -3.13000008E-02   1.18325792E-11
  -3.12500000E-02   1.05563865E-11
  -3.11999992E-02   8.92466222E-12
  -3.11500002E-02   7.22908105E-12
  -3.10999993E-02   5.76045852E-12
  -3.10500003E-02   4.67533911E-12
  -3.09999995E-02   3.91670377E-12
  -3.09500005E-02   3.22876426E-12
  -3.08999997E-02   2.26465418E-12
  -3.08500007E-02   7.42763219E-13
  -3.07999998E-02  -1.41767023E-12
  -3.07500008E-02  -4.04555252E-12
  -3.07000000E-02  -6.77993122E-12
  -3.06499992E-02  -9.22277619E-12
  -3.06000002E-02  -1.11170630E-11
  -3.05499993E-02  -1.24692964E-11
  -3.05000003E-02  -1.35567261E-11
  -3.04499995E-02  -1.48094852E-11
  -3.04000005E-02  -1.66151121E-11
  -3.03499997E-02  -1.91314135E-11
  -3.03000007E-02  -2.21945084E-11
  -3.02499998E-02  -2.53696768E-11
  -3.02000009E-02  -2.81294207E-11
  -3.01500000E-02  -3.00836300E-11
  -3.00999992E-02  -3.11587769E-11
  -3.00500002E-02  -3.16410960E-11
  -2.99999993E-02  -3.20569023E-11
  -2.99500003E-02  -3.29367401E-11
  -2.98999995E-02  -3.45659230E-11
  -2.98500005E-02  -3.68354652E-11
  -2.97999997E-02  -3.92669196E-11
  -2.97500007E-02  -4.12084082E-11
  -2.96999998E-02  -4.21202760E-11
  -2.96500009E-02  -4.18236626E-11
  -2.96000000E-02  -4.05959606E-11
  -2.95499992E-02  -3.90619759E-11
  -2.95000002E-02  -3.79207325E-11
  -2.94499993E-02  -3.76252814E-11
  -2.94000003E-02  -3.81599648E-11
  -2.93499995E-02  -3.90218483E-11
  -2.93000005E-02  -3.94243527E-11
  -2.92499997E-02  -3.86403826E-11
  -2.92000007E-02  -3.63345083E-11
  -2.91499998E-02  -3.27319526E-11
  -2.91000009E-02  -2.85399916E-11
  -2.90500000E-02  -2.46467794E-11
  -2.89999992E-02  -2.17254201E-11
  -2.89500002E-02  -1.99200066E-11
  -2.88999993E-02  -1.87605625E-11
  -2.88500004E-02  -1.73554417E-11
  -2.87999995E-02  -1.47852147E-11
  -2.87500005E-02  -1.05266334E-11
  -2.86999997E-02  -4.71446363E-12
  -2.86500007E-02   1.88527384E-12
  -2.85999998E-02   8.19052378E-12
  -2.85500009E-02   1.32752229E-11
  -2.85000000E-02   1.67894726E-11
  -2.84499992E-02   1.91343330E-11
  -2.84000002E-02   2.13016341E-11
  -2.83499993E-02   2.44382171E-11
  -2.83000004E-02   2.93218852E-11
  -2.82499995E-02   3.59839485E-11
  -2.82000005E-02   4.36557908E-11
  -2.81499997E-02   5.10763654E-11
  -2.81000007E-02   5.70347797E-11
  -2.80499998E-02   6.09103878E-11
  -2.80000009E-02   6.29648070E-11
  -2.79500000E-02   6.42439227E-11
  -2.78999992E-02   6.61197763E-11
  -2.78500002E-02   6.96671193E-11
  -2.77999993E-02   7.51518014E-11
  -2.77500004E-02   8.18675822E-11
  -2.76999995E-02   8.84085513E-11
  -2.76500005E-02   9.32697045E-11
  -2.75999997E-02   9.55153109E-11
  -2.75500007E-02   9.52145932E-11
  -2.74999999E-02   9.34387845E-11
  -2.74500009E-02   9.18052162E-11
  -2.74000000E-02   9.17588089E-11
  -2.73499992E-02   9.39069239E-11
  -2.73000002E-02   9.77105896E-11
  -2.72499993E-02   1.01683884E-10
  -2.72000004E-02   1.04028626E-10
  -2.71499995E-02   1.03431923E-10
  -2.71000005E-02   9.96711672E-11
  -2.70499997E-02   9.37466077E-11
  -2.70000007E-02   8.74656875E-11
  -2.69499999E-02   8.26492971E-11
  -2.69000009E-02   8.03063518E-11
  -2.68500000E-02   8.01491304E-11
  -2.67999992E-02   8.06796574E-11
  -2.67500002E-02   7.98267702E-11
  -2.66999993E-02   7.58638360E-11
  -2.66500004E-02   6.82015833E-11
  -2.65999995E-02   5.76940197E-11
  -2.65500005E-02   4.63036935E-11
  -2.64999997E-02   3.62572923E-11
  -2.64500007E-02   2.90566772E-11
  -2.63999999E-02   2.47870491E-11
  -2.63500009E-02   2.20436759E-11
  -2.63000000E-02   1.85290672E-11
  -2.62499992E-02   1.20716701E-11
  -2.62000002E-02   1.61928630E-12
  -2.61499994E-02  -1.22417554E-11
  -2.61000004E-02  -2.74901612E-11
  -2.60499995E-02  -4.15259459E-11
  -2.60000005E-02  -5.23128138E-11
  -2.59499997E-02  -5.93001620E-11
  -2.59000007E-02  -6.37024530E-11
  -2.58499999E-02  -6.79909740E-11
  -2.58000009E-02  -7.48038506E-11
  -2.57500000E-02  -8.57482974E-11
  -2.56999992E-02  -1.00631350E-10
  -2.56500002E-02  -1.17478138E-10
  -2.55999994E-02  -1.33351816E-10
  -2.55500004E-02  -1.45629578E-10
  -2.54999995E-02  -1.53172974E-10
  -2.54500005E-02  -1.56863397E-10
  -2.53999997E-02  -1.59244201E-10
  -2.53500007E-02  -1.63405692E-10
  -2.52999999E-02  -1.71594280E-10
  -2.52500009E-02  -1.84163906E-10
  -2.52000000E-02  -1.99351050E-10
  -2.51499992E-02  -2.13996834E-10
  -2.51000002E-02  -2.24917182E-10
  -2.50499994E-02  -2.30321720E-10
  -2.50000004E-02  -2.30644767E-10
  -2.49499995E-02  -2.28398439E-10
  -2.49000005E-02  -2.27088015E-10
  -2.48499997E-02  -2.29652034E-10
  -2.48000007E-02  -2.37115994E-10
  -2.47499999E-02  -2.48070259E-10
  -2.47000009E-02  -2.59228167E-10
  -2.46500000E-02  -2.66841410E-10
  -2.45999992E-02  -2.68358530E-10
  -2.45500002E-02  -2.63587180E-10
  -2.44999994E-02  -2.54825355E-10
  -2.44500004E-02  -2.45877124E-10
  -2.43999995E-02  -2.40367087E-10
  -2.43500005E-02  -2.40094195E-10
  -2.42999997E-02  -2.44165604E-10
  -2.42500007E-02  -2.49320065E-10
  -2.41999999E-02  -2.51324461E-10
  -2.41500009E-02  -2.46842241E-10
  -2.41000000E-02  -2.34945979E-10
  -2.40499992E-02  -2.17584714E-10
  -2.40000002E-02  -1.98770667E-10
  -2.39499994E-02  -1.82819482E-10
  -2.39000004E-02  -1.72411266E-10
  -2.38499995E-02  -1.67339087E-10
  -2.38000005E-02  -1.64523326E-10
  -2.37499997E-02  -1.59315255E-10
  -2.37000007E-02  -1.47534610E-10
  -2.36499999E-02  -1.27343427E-10
  -2.36000009E-02  -1.00111246E-10
  -2.35500000E-02  -6.98599512E-11
  -2.34999992E-02  -4.15059584E-11
  -2.34500002E-02  -1.86619314E-11
  -2.33999994E-02  -1.97592073E-12
  -2.33500004E-02   1.12340311E-11
  -2.32999995E-02   2.58566328E-11
  -2.32500006E-02   4.68468597E-11
  -2.31999997E-02   7.70071298E-11
  -2.31500007E-02   1.15684788E-10
  -2.30999999E-02   1.58990862E-10
  -2.30500009E-02   2.01474601E-10
  -2.30000000E-02   2.38533165E-10
  -2.29499992E-02   2.68490008E-10
  -2.29000002E-02   2.93401525E-10
  -2.28499994E-02   3.18203297E-10
  -2.28000004E-02   3.48543638E-10
  -2.27499995E-02   3.88250904E-10
  -2.27000006E-02   4.37563152E-10
  -2.26499997E-02   4.92930530E-10
  -2.26000007E-02   5.48510293E-10
  -2.25499999E-02   5.98716521E-10
  -2.25000009E-02   6.40699382E-10
  -2.24500000E-02   6.75639489E-10
  -2.23999992E-02   7.08250736E-10
  -2.23500002E-02   7.44680206E-10
  -2.22999994E-02   7.89716403E-10
  -2.22500004E-02   8.44545878E-10
  -2.21999995E-02   9.06076325E-10
  -2.21500006E-02   9.68160441E-10
  -2.20999997E-02   1.02420705E-09
  -2.20500007E-02   1.07003317E-09
  -2.19999999E-02   1.10568055E-09
  -2.19500009E-02   1.13536314E-09
  -2.19000001E-02   1.16553411E-09
  -2.18499992E-02   1.20190702E-09
  -2.18000002E-02   1.24674870E-09
  -2.17499994E-02   1.29766575E-09
  -2.17000004E-02   1.34845468E-09
  -2.16499995E-02   1.39166978E-09
  -2.16000006E-02   1.42178647E-09
  -2.15499997E-02   1.43754864E-09
  -2.15000007E-02   1.44243129E-09
  -2.14499999E-02   1.44298107E-09
  -2.14000009E-02   1.44574031E-09
  -2.13500001E-02   1.45411538E-09
  -2.12999992E-02   1.46659240E-09
  -2.12500002E-02   1.47712487E-09
  -2.11999994E-02   1.47755319E-09
  -2.11500004E-02   1.46100443E-09
  -2.10999995E-02   1.42476064E-09
  -2.10500006E-02   1.37130118E-09
  -2.09999997E-02   1.30702404E-09
  -2.09500007E-02   1.23918498E-09
  -2.08999999E-02   1.17240295E-09
  -2.08500009E-02   1.10629528E-09
  -2.08000001E-02   1.03532127E-09
  -2.07499992E-02   9.50936108E-10
  -2.07000002E-02   8.45122694E-10
  -2.06499994E-02   7.13733739E-10
  -2.06000004E-02   5.58141644E-10
  -2.05499995E-02   3.84429766E-10
  -2.05000006E-02   2.00455708E-10
  -2.04499997E-02   1.20746364E-11
  -2.04000007E-02  -1.79791335E-10
  -2.03499999E-02  -3.79910214E-10
  -2.03000009E-02  -5.96953376E-10
  -2.02500001E-02  -8.39932290E-10
  -2.01999992E-02  -1.11443421E-09
  -2.01500002E-02  -1.42034307E-09
  -2.00999994E-02  -1.75208470E-09
  -2.00500004E-02  -2.10131978E-09
  -1.99999996E-02  -2.46090193E-09
  -1.99500006E-02  -2.82834001E-09
  -1.98999997E-02  -3.20720295E-09
  -1.98500007E-02  -3.60581387E-09
  -1.97999999E-02  -4.03378531E-09
  -1.97500009E-02  -4.49792914E-09
  -1.97000001E-02  -4.99936581E-09
  -1.96499992E-02  -5.53315571E-09
  -1.96000002E-02  -6.09063022E-09
  -1.95499994E-02  -6.66341959E-09
  -1.95000004E-02  -7.24738491E-09
  -1.94499996E-02  -7.84468046E-09
  -1.94000006E-02  -8.46301429E-09
  -1.93499997E-02  -9.11239617E-09
  -1.93000007E-02  -9.80081527E-09
  -1.92499999E-02  -1.05307763E-08
  -1.92000009E-02  -1.12982459E-08
  -1.91500001E-02  -1.20945236E-08
  -1.90999992E-02  -1.29102062E-08
  -1.90500002E-02  -1.37394913E-08
  -1.89999994E-02  -1.45829020E-08
  -1.89500004E-02  -1.54471760E-08
  -1.88999996E-02  -1.63423604E-08
  -1.88500006E-02  -1.72774008E-08
  -1.87999997E-02  -1.82561521E-08
  -1.87500007E-02  -1.92756673E-08
  -1.86999999E-02  -2.03275103E-08
  -1.86500009E-02  -2.14015330E-08
  -1.86000001E-02  -2.24904717E-08
  -1.85499992E-02  -2.35932607E-08
  -1.85000002E-02  -2.47156162E-08
  -1.84499994E-02  -2.58675712E-08
  -1.84000004E-02  -2.70590537E-08
  -1.83499996E-02  -2.82955064E-08
  -1.83000006E-02  -2.95754674E-08
  -1.82499997E-02  -3.08912647E-08
  -1.82000007E-02  -3.22324922E-08
  -1.81499999E-02  -3.35907480E-08
  -1.81000009E-02  -3.49635094E-08
  -1.80500001E-02  -3.63554093E-08
  -1.79999992E-02  -3.77763136E-08
  -1.79500002E-02  -3.92370545E-08
  -1.78999994E-02  -4.07447303E-08
  -1.78500004E-02  -4.22996465E-08
  -1.77999996E-02  -4.38953407E-08
  -1.77500006E-02  -4.55216416E-08
  -1.76999997E-02  -4.71694612E-08
  -1.76500008E-02  -4.88351084E-08
  -1.75999999E-02  -5.05222850E-08
  -1.75500009E-02  -5.22407504E-08
  -1.75000001E-02  -5.40023457E-08
  -1.74499992E-02  -5.58160593E-08
  -1.74000002E-02  -5.76843924E-08
  -1.73499994E-02  -5.96026730E-08
  -1.73000004E-02  -6.15616145E-08
  -1.72499996E-02  -6.35519442E-08
  -1.72000006E-02  -6.55691679E-08
  -1.71499997E-02  -6.76161207E-08
  -1.71000008E-02  -6.97023381E-08
  -1.70499999E-02  -7.18404607E-08
  -1.70000009E-02  -7.40412105E-08
  -1.69500001E-02  -7.63093055E-08
  -1.68999992E-02  -7.86420316E-08
  -1.68500002E-02  -8.10312599E-08
  -1.67999994E-02  -8.34678957E-08
  -1.67500004E-02  -8.59468088E-08
  -1.66999996E-02  -8.84700668E-08
  -1.66500006E-02  -9.10469780E-08
  -1.65999997E-02  -9.36909004E-08
  -1.65500008E-02  -9.64143183E-08
  -1.64999999E-02  -9.92243159E-08
  -1.64500009E-02  -1.02120502E-07
  -1.64000001E-02  -1.05096341E-07
  -1.63499992E-02  -1.08143325E-07
  -1.63000003E-02  -1.11255993E-07
  -1.62499994E-02  -1.14435700E-07
  -1.62000004E-02  -1.17691322E-07
  -1.61499996E-02  -1.21036607E-07
  -1.61000006E-02  -1.24485410E-07
  -1.60499997E-02  -1.28046850E-07
  -1.60000008E-02  -1.31722672E-07
  -1.59499999E-02  -1.35507975E-07
  -1.59000009E-02  -1.39394913E-07
  -1.58500001E-02  -1.43377747E-07
  -1.57999992E-02  -1.47457058E-07
  -1.57500003E-02  -1.51641075E-07
  -1.56999994E-02  -1.55943724E-07
  -1.56500004E-02  -1.60379926E-07
  -1.55999996E-02  -1.64960795E-07
  -1.55499997E-02  -1.69690310E-07
  -1.54999997E-02  -1.74565372E-07
  -1.54499998E-02  -1.79579004E-07
  -1.53999999E-02  -1.84725394E-07
  -1.53500000E-02  -1.90004371E-07
  -1.53000001E-02  -1.95423326E-07
  -1.52500002E-02  -2.00995814E-07
  -1.52000003E-02  -2.06737340E-07
  -1.51500003E-02  -2.12660382E-07
  -1.51000004E-02  -2.18770680E-07
  -1.50499996E-02  -2.25066728E-07
  -1.49999997E-02  -2.31542415E-07
  -1.49499997E-02  -2.38191888E-07
  -1.48999998E-02  -2.45014149E-07
  -1.48499999E-02  -2.52015724E-07
  -1.48000000E-02  -2.59209656E-07
  -1.47500001E-02  -2.66611949E-07
  -1.47000002E-02  -2.74236385E-07
  -1.46500003E-02  -2.82090554E-07
  -1.46000003E-02  -2.90174768E-07
  -1.45500004E-02  -2.98484053E-07
  -1.44999996E-02  -3.07012897E-07
  -1.44499997E-02  -3.15759792E-07
  -1.43999998E-02  -3.24730451E-07
  -1.43499998E-02  -3.33937493E-07
  -1.42999999E-02  -3.43397033E-07
  -1.42500000E-02  -3.53123937E-07
  -1.42000001E-02  -3.63127498E-07
  -1.41500002E-02  -3.73409733E-07
  -1.41000003E-02  -3.83967091E-07
  -1.40500003E-02  -3.94794512E-07
  -1.40000004E-02  -4.05890404E-07
  -1.39499996E-02  -4.17260026E-07
  -1.38999997E-02  -4.28915598E-07
  -1.38499998E-02  -4.40873691E-07
  -1.37999998E-02  -4.53150477E-07
  -1.37499999E-02  -4.65757239E-07
  -1.37000000E-02  -4.78698269E-07
  -1.36500001E-02  -4.91971946E-07
  -1.36000002E-02  -5.05574633E-07
  -1.35500003E-02  -5.19505420E-07
  -1.35000004E-02  -5.33769708E-07
  -1.34500004E-02  -5.48379887E-07
  -1.33999996E-02  -5.63353296E-07
  -1.33499997E-02  -5.78707386E-07
  -1.32999998E-02  -5.94455628E-07
  -1.32499998E-02  -6.10604957E-07
  -1.31999999E-02  -6.27156112E-07
  -1.31500000E-02  -6.44107445E-07
  -1.31000001E-02  -6.61459183E-07
  -1.30500002E-02  -6.79217464E-07
  -1.30000003E-02  -6.97395365E-07
  -1.29500004E-02  -7.16011300E-07
  -1.29000004E-02  -7.35084768E-07
  -1.28499996E-02  -7.54632026E-07
  -1.27999997E-02  -7.74662965E-07
  -1.27499998E-02  -7.95181620E-07
  -1.26999998E-02  -8.16188845E-07
  -1.26499999E-02  -8.37687139E-07
  -1.26000000E-02  -8.59684121E-07
  -1.25500001E-02  -8.82194399E-07
  -1.25000002E-02  -9.05238039E-07
  -1.24500003E-02  -9.28836812E-07
  -1.24000004E-02  -9.53009760E-07
  -1.23500004E-02  -9.77770242E-07
  -1.22999996E-02  -1.00312536E-06
  -1.22499997E-02  -1.02907950E-06
  -1.21999998E-02  -1.05563709E-06
  -1.21499998E-02  -1.08280801E-06
  -1.20999999E-02  -1.11060831E-06
  -1.20500000E-02  -1.13905980E-06
  -1.20000001E-02  -1.16818649E-06
  -1.19500002E-02  -1.19801041E-06
  -1.19000003E-02  -1.22854851E-06
  -1.18500004E-02  -1.25981194E-06
  -1.18000004E-02  -1.29180853E-06
  -1.17499996E-02  -1.32454636E-06
  -1.16999997E-02  -1.35803725E-06
  -1.16499998E-02  -1.39230019E-06
  -1.15999999E-02  -1.42735939E-06
  -1.15499999E-02  -1.46324157E-06
  -1.15000000E-02  -1.49997186E-06
  -1.14500001E-02  -1.53757105E-06
  -1.14000002E-02  -1.57605393E-06
  -1.13500003E-02  -1.61543142E-06
  -1.13000004E-02  -1.65571441E-06
  -1.12500004E-02  -1.69691782E-06
  -1.11999996E-02  -1.73906210E-06
  -1.11499997E-02  -1.78217385E-06
  -1.10999998E-02  -1.82628219E-06
  -1.10499999E-02  -1.87141541E-06
  -1.09999999E-02  -1.91759796E-06
  -1.09500000E-02  -1.96484825E-06
  -1.09000001E-02  -2.01318153E-06
  -1.08500002E-02  -2.06261234E-06
  -1.08000003E-02  -2.11315887E-06
  -1.07500004E-02  -2.16484455E-06
  -1.07000005E-02  -2.21769869E-06
  -1.06499996E-02  -2.27175315E-06
  -1.05999997E-02  -2.32703906E-06
  -1.05499998E-02  -2.38358462E-06
  -1.04999999E-02  -2.44141233E-06
  -1.04499999E-02  -2.50054063E-06
  -1.04000000E-02  -2.56098724E-06
  -1.03500001E-02  -2.62277285E-06
  -1.03000002E-02  -2.68592339E-06
  -1.02500003E-02  -2.75047000E-06
  -1.02000004E-02  -2.81644702E-06
  -1.01500005E-02  -2.88388878E-06
  -1.00999996E-02  -2.95282598E-06
  -1.00499997E-02  -3.02328522E-06
  -9.99999978E-03  -3.09528878E-06
  -9.94999986E-03  -3.16885803E-06
  -9.89999995E-03  -3.24401708E-06
  -9.85000003E-03  -3.32079503E-06
  -9.80000012E-03  -3.39922622E-06
  -9.75000020E-03  -3.47934861E-06
  -9.70000029E-03  -3.56119949E-06
  -9.65000037E-03  -3.64481343E-06
  -9.60000046E-03  -3.73022044E-06
  -9.54999961E-03  -3.81744758E-06
  -9.49999969E-03  -3.90652031E-06
  -9.44999978E-03  -3.99746750E-06
  -9.39999986E-03  -4.09032100E-06
  -9.34999995E-03  -4.18511809E-06
  -9.30000003E-03  -4.28189833E-06
  -9.25000012E-03  -4.38070265E-06
  -9.20000020E-03  -4.48156834E-06
  -9.15000029E-03  -4.58452905E-06
  -9.10000037E-03  -4.68961662E-06
  -9.05000046E-03  -4.79686059E-06
  -8.99999961E-03  -4.90629282E-06
  -8.94999970E-03  -5.01794830E-06
  -8.89999978E-03  -5.13186797E-06
  -8.84999987E-03  -5.24809593E-06
  -8.79999995E-03  -5.36667494E-06
  -8.75000004E-03  -5.48764774E-06
  -8.70000012E-03  -5.61105117E-06
  -8.65000021E-03  -5.73692205E-06
  -8.60000029E-03  -5.86529450E-06
  -8.55000038E-03  -5.99620626E-06
  -8.50000046E-03  -6.12969689E-06
  -8.44999962E-03  -6.26581095E-06
  -8.39999970E-03  -6.40459484E-06
  -8.34999979E-03  -6.54609676E-06
  -8.29999987E-03  -6.69036172E-06
  -8.24999996E-03  -6.83743247E-06
  -8.20000004E-03  -6.98734948E-06
  -8.15000013E-03  -7.14015141E-06
  -8.10000021E-03  -7.29588055E-06
  -8.05000030E-03  -7.45458101E-06
  -8.00000038E-03  -7.61630145E-06
  -7.95000046E-03  -7.78109188E-06
  -7.89999962E-03  -7.94900097E-06
  -7.84999970E-03  -8.12008057E-06
  -7.79999979E-03  -8.29437340E-06
  -7.74999987E-03  -8.47192405E-06
  -7.69999996E-03  -8.65277798E-06
  -7.65000004E-03  -8.83697976E-06
  -7.60000013E-03  -9.02457850E-06
  -7.55000021E-03  -9.21562332E-06
  -7.49999983E-03  -9.41017061E-06
  -7.44999992E-03  -9.60827219E-06
  -7.40000000E-03  -9.80997993E-06
  -7.35000009E-03  -1.00153429E-05
  -7.30000017E-03  -1.02244094E-05
  -7.24999979E-03  -1.04372275E-05
  -7.19999988E-03  -1.06538473E-05
  -7.14999996E-03  -1.08743225E-05
  -7.10000005E-03  -1.10987075E-05
  -7.05000013E-03  -1.13270598E-05
  -7.00000022E-03  -1.15594366E-05
  -6.94999984E-03  -1.17958907E-05
  -6.89999992E-03  -1.20364739E-05
  -6.85000001E-03  -1.22812371E-05
  -6.80000009E-03  -1.25302295E-05
  -6.75000018E-03  -1.27835056E-05
  -6.69999979E-03  -1.30411227E-05
  -6.64999988E-03  -1.33031363E-05
  -6.59999996E-03  -1.35696046E-05
  -6.55000005E-03  -1.38405858E-05
  -6.50000013E-03  -1.41161354E-05
  -6.45000022E-03  -1.43963034E-05
  -6.39999984E-03  -1.46811435E-05
  -6.34999992E-03  -1.49707084E-05
  -6.30000001E-03  -1.52650573E-05
  -6.25000009E-03  -1.55642447E-05
  -6.20000018E-03  -1.58683342E-05
  -6.14999980E-03  -1.61773860E-05
  -6.09999988E-03  -1.64914582E-05
  -6.04999997E-03  -1.68106053E-05
  -6.00000005E-03  -1.71348838E-05
  -5.95000014E-03  -1.74643428E-05
  -5.90000022E-03  -1.77990405E-05
  -5.84999984E-03  -1.81390351E-05
  -5.79999993E-03  -1.84843902E-05
  -5.75000001E-03  -1.88351623E-05
  -5.70000010E-03  -1.91914169E-05
  -5.65000018E-03  -1.95532102E-05
  -5.59999980E-03  -1.99205952E-05
  -5.54999989E-03  -2.02936226E-05
  -5.49999997E-03  -2.06723471E-05
  -5.45000006E-03  -2.10568196E-05
  -5.40000014E-03  -2.14470983E-05
  -5.35000023E-03  -2.18432488E-05
  -5.29999984E-03  -2.22453291E-05
  -5.24999993E-03  -2.26534048E-05
  -5.20000001E-03  -2.30675323E-05
  -5.15000010E-03  -2.34877662E-05
  -5.10000018E-03  -2.39141536E-05
  -5.04999980E-03  -2.43467402E-05
  -4.99999989E-03  -2.47855787E-05
  -4.94999997E-03  -2.52307309E-05
  -4.90000006E-03  -2.56822568E-05
  -4.85000014E-03  -2.61402256E-05
  -4.80000023E-03  -2.66046991E-05
  -4.74999985E-03  -2.70757355E-05
  -4.69999993E-03  -2.75533839E-05
  -4.65000002E-03  -2.80376826E-05
  -4.60000010E-03  -2.85286733E-05
  -4.55000019E-03  -2.90264070E-05
  -4.49999981E-03  -2.95309346E-05
  -4.44999989E-03  -3.00423126E-05
  -4.39999998E-03  -3.05606154E-05
  -4.35000006E-03  -3.10858959E-05
  -4.30000015E-03  -3.16182122E-05
  -4.25000023E-03  -3.21576154E-05
  -4.19999985E-03  -3.27041271E-05
  -4.14999994E-03  -3.32577911E-05
  -4.10000002E-03  -3.38186401E-05
  -4.05000011E-03  -3.43867177E-05
  -4.00000019E-03  -3.49620896E-05
  -3.94999981E-03  -3.55448210E-05
  -3.89999989E-03  -3.61349666E-05
  -3.84999998E-03  -3.67325883E-05
  -3.80000006E-03  -3.73377115E-05
  -3.74999992E-03  -3.79503763E-05
  -3.70000000E-03  -3.85705898E-05
  -3.65000009E-03  -3.91983885E-05
  -3.59999994E-03  -3.98337979E-05
  -3.55000002E-03  -4.04768725E-05
  -3.50000011E-03  -4.11276778E-05
  -3.44999996E-03  -4.17862648E-05
  -3.40000005E-03  -4.24526843E-05
  -3.34999990E-03  -4.31269618E-05
  -3.29999998E-03  -4.38091047E-05
  -3.25000007E-03  -4.44991201E-05
  -3.19999992E-03  -4.51970154E-05
  -3.15000000E-03  -4.59028197E-05
  -3.10000009E-03  -4.66165620E-05
  -3.04999994E-03  -4.73383043E-05
  -3.00000003E-03  -4.80680865E-05
  -2.95000011E-03  -4.88059413E-05
  -2.89999996E-03  -4.95518907E-05
  -2.85000005E-03  -5.03059273E-05
  -2.79999990E-03  -5.10680366E-05
  -2.74999999E-03  -5.18382039E-05
  -2.70000007E-03  -5.26164331E-05
  -2.64999992E-03  -5.34027422E-05
  -2.60000001E-03  -5.41971713E-05
  -2.55000009E-03  -5.49997603E-05
  -2.49999994E-03  -5.58105348E-05
  -2.45000003E-03  -5.66294875E-05
  -2.40000011E-03  -5.74566075E-05
  -2.34999997E-03  -5.82918437E-05
  -2.30000005E-03  -5.91351600E-05
  -2.24999990E-03  -5.99865270E-05
  -2.19999999E-03  -6.08459522E-05
  -2.15000007E-03  -6.17134283E-05
  -2.09999993E-03  -6.25889952E-05
  -2.05000001E-03  -6.34726675E-05
  -2.00000009E-03  -6.43644162E-05
  -1.94999995E-03  -6.52641975E-05
  -1.90000003E-03  -6.61719459E-05
  -1.85000000E-03  -6.70875743E-05
  -1.79999997E-03  -6.80110243E-05
  -1.75000005E-03  -6.89422595E-05
  -1.70000002E-03  -6.98812801E-05
  -1.64999999E-03  -7.08280859E-05
  -1.59999996E-03  -7.17826624E-05
  -1.55000004E-03  -7.27449733E-05
  -1.50000001E-03  -7.37149385E-05
  -1.44999998E-03  -7.46924707E-05
  -1.39999995E-03  -7.56774316E-05
  -1.35000004E-03  -7.66697340E-05
  -1.30000000E-03  -7.76693123E-05
  -1.24999997E-03  -7.86761157E-05
  -1.20000006E-03  -7.96901295E-05
  -1.15000003E-03  -8.07113247E-05
  -1.09999999E-03  -8.17396285E-05
  -1.04999996E-03  -8.27749318E-05
  -1.00000005E-03  -8.38170745E-05
  -9.50000016E-04  -8.48659183E-05
  -8.99999985E-04  -8.59213105E-05
  -8.50000011E-04  -8.69831347E-05
  -7.99999980E-04  -8.80513180E-05
  -7.50000007E-04  -8.91257951E-05
  -6.99999975E-04  -9.02065003E-05
  -6.50000002E-04  -9.12933392E-05
  -6.00000028E-04  -9.23861735E-05
  -5.49999997E-04  -9.34848213E-05
  -5.00000024E-04  -9.45890642E-05
  -4.49999992E-04  -9.56987133E-05
  -3.99999990E-04  -9.68136010E-05
  -3.49999988E-04  -9.79336037E-05
  -3.00000014E-04  -9.90586195E-05
  -2.50000012E-04  -1.00188554E-04
  -1.99999995E-04  -1.01323283E-04
  -1.50000007E-04  -1.02462640E-04
  -9.99999975E-05  -1.03606377E-04
  -4.99999987E-05  -1.04754246E-04
   0.00000000      -1.05905994E-04
   4.99999987E-05  -1.07061380E-04
   9.99999975E-05  -1.08220243E-04
   1.50000007E-04  -1.09382410E-04
   1.99999995E-04  -1.10547764E-04
   2.50000012E-04  -1.11716137E-04
   3.00000014E-04  -1.12887334E-04
   3.49999988E-04  -1.14061062E-04
   3.99999990E-04  -1.15237017E-04
   4.49999992E-04  -1.16414871E-04
   5.00000024E-04  -1.17594333E-04
   5.49999997E-04  -1.18775148E-04
   6.00000028E-04  -1.19957091E-04
   6.50000002E-04  -1.21140009E-04
   6.99999975E-04  -1.22323705E-04
   7.50000007E-04  -1.23507940E-04
   7.99999980E-04  -1.24692393E-04
   8.50000011E-04  -1.25876672E-04
   8.99999985E-04  -1.27060397E-04
   9.50000016E-04  -1.28243206E-04
   1.00000005E-03  -1.29424749E-04
   1.04999996E-03  -1.30604793E-04
   1.09999999E-03  -1.31783090E-04
   1.15000003E-03  -1.32959438E-04
   1.20000006E-03  -1.34133516E-04
   1.24999997E-03  -1.35305003E-04
   1.30000000E-03  -1.36473405E-04
   1.35000004E-03  -1.37638272E-04
   1.39999995E-03  -1.38799151E-04
   1.44999998E-03  -1.39955664E-04
   1.50000001E-03  -1.41107448E-04
   1.55000004E-03  -1.42254270E-04
   1.59999996E-03  -1.43395810E-04
   1.64999999E-03  -1.44531747E-04
   1.70000002E-03  -1.45661645E-04
   1.75000005E-03  -1.46785023E-04
   1.79999997E-03  -1.47901344E-04
   1.85000000E-03  -1.49010099E-04
   1.90000003E-03  -1.50110791E-04
   1.94999995E-03  -1.51203014E-04
   2.00000009E-03  -1.52286433E-04
   2.05000001E-03  -1.53360656E-04
   2.09999993E-03  -1.54425346E-04
   2.15000007E-03  -1.55479996E-04
   2.19999999E-03  -1.56524140E-04
   2.24999990E-03  -1.57557137E-04
   2.30000005E-03  -1.58578376E-04
   2.34999997E-03  -1.59587275E-04
   2.40000011E-03  -1.60583368E-04
   2.45000003E-03  -1.61566204E-04
   2.49999994E-03  -1.62535405E-04
   2.55000009E-03  -1.63490535E-04
   2.60000001E-03  -1.64431098E-04
   2.64999992E-03  -1.65356498E-04
   2.70000007E-03  -1.66266080E-04
   2.74999999E-03  -1.67159131E-04
   2.79999990E-03  -1.68035011E-04