  -3.99999991E-02   0.00000000    
  -3.99499983E-02   0.00000000    
  -3.99000011E-02   0.00000000    
  -3.98500003E-02  -2.88187409E-17
  -3.97999994E-02  -2.61322926E-16
  -3.97499986E-02  -1.28966007E-15
  -3.97000015E-02  -4.61878850E-15
  -3.96500006E-02  -1.34233479E-14
  -3.95999998E-02  -3.34433205E-14
  -3.95499989E-02  -7.35377200E-14
  -3.95000018E-02  -1.44985572E-13
  -3.94500010E-02  -2.58579860E-13
  -3.94000001E-02  -4.19486901E-13
  -3.93499993E-02  -6.21838572E-13
  -3.92999984E-02  -8.47107974E-13
  -3.92500013E-02  -1.07059034E-12
  -3.92000005E-02  -1.27717249E-12
  -3.91499996E-02  -1.48142794E-12
  -3.90999988E-02  -1.74104470E-12
  -3.90500017E-02  -2.15131819E-12
  -3.90000008E-02  -2.81500994E-12
  -3.89500000E-02  -3.79503633E-12
  -3.88999991E-02  -5.07101782E-12
  -3.88499983E-02  -6.52620969E-12
  -3.88000011E-02  -7.98275942E-12
  -3.87500003E-02  -9.28136214E-12
  -3.86999995E-02  -1.03749084E-11
  -3.86499986E-02  -1.13883451E-11
  -3.86000015E-02  -1.26011302E-11
  -3.85500006E-02  -1.43385425E-11
  -3.84999998E-02  -1.68042542E-11
  -3.84499989E-02  -1.99276359E-11
  -3.84000018E-02  -2.33105601E-11
  -3.83500010E-02  -2.63258148E-11
  -3.83000001E-02  -2.83506569E-11
  -3.82499993E-02  -2.90449886E-11
  -3.81999984E-02  -2.85438097E-11
  -3.81500013E-02  -2.74551562E-11
  -3.81000005E-02  -2.66347396E-11
  -3.80499996E-02  -2.68133189E-11
  -3.79999988E-02  -2.82324164E-11
  -3.79500017E-02  -3.04570535E-11
  -3.79000008E-02  -3.24680491E-11
  -3.78500000E-02  -3.30152121E-11
  -3.77999991E-02  -3.10894470E-11
  -3.77499983E-02  -2.63059002E-11
  -3.77000012E-02  -1.90200182E-11
  -3.76500003E-02  -1.01156401E-11
  -3.75999995E-02  -5.56073362E-13
  -3.75499986E-02   9.10057706E-12
  -3.75000015E-02   1.90080642E-11
  -3.74500006E-02   3.00340794E-11
  -3.73999998E-02   4.34687564E-11
  -3.73499990E-02   6.05666906E-11
  -3.73000018E-02   8.20935403E-11
  -3.72500010E-02   1.08017310E-10
  -3.72000001E-02   1.37413400E-10
  -3.71499993E-02   1.68587588E-10
  -3.70999984E-02   1.99389297E-10
  -3.70500013E-02   2.27684024E-10
  -3.70000005E-02   2.51945437E-10
  -3.69499996E-02   2.71878936E-10
  -3.68999988E-02   2.88894686E-10
  -3.68500017E-02   3.06158682E-10
  -3.68000008E-02   3.27962629E-10
  -3.67500000E-02   3.58348379E-10
  -3.66999991E-02   3.99291877E-10
  -3.66499983E-02   4.49140863E-10
  -3.66000012E-02   5.02167252E-10
  -3.65500003E-02   5.49836066E-10
  -3.64999995E-02   5.83699866E-10
  -3.64499986E-02   5.98953054E-10
  -3.64000015E-02   5.97055794E-10
  -3.63500006E-02   5.85878401E-10
  -3.62999998E-02   5.76685699E-10
  -3.62499990E-02   5.78734116E-10
  -3.62000018E-02   5.93687710E-10
  -3.61500010E-02   6.12701889E-10
  -3.61000001E-02   6.18324170E-10
  -3.60499993E-02   5.91364402E-10
  -3.59999985E-02   5.20317900E-10
  -3.59500013E-02   4.09041828E-10
  -3.59000005E-02   2.78324891E-10
  -3.58499996E-02   1.59205094E-10
  -3.57999988E-02   7.96713806E-11
  -3.57500017E-02   5.00986717E-11
  -3.57000008E-02   5.44818531E-11
  -3.56500000E-02   5.29880480E-11
  -3.55999991E-02  -3.27571802E-12
  -3.55499983E-02  -1.50320464E-10
  -3.55000012E-02  -3.91712135E-10
  -3.54500003E-02  -6.91470048E-10
  -3.53999995E-02  -9.85077131E-10
  -3.53499986E-02  -1.20620436E-09
  -3.53000015E-02  -1.31852906E-09
  -3.52500007E-02  -1.33774614E-09
  -3.51999998E-02  -1.33133971E-09
  -3.51499990E-02  -1.39273826E-09
  -3.51000018E-02  -1.59860414E-09
  -3.50500010E-02  -1.96765448E-09
  -3.50000001E-02  -2.44142617E-09
  -3.49499993E-02  -2.89967095E-09
  -3.48999985E-02  -3.20798499E-09
  -3.48500013E-02  -3.27918848E-09
  -3.48000005E-02  -3.12063553E-09
  -3.47499996E-02  -2.84258461E-09
  -3.46999988E-02  -2.61830135E-09
  -3.46500017E-02  -2.60876498E-09
  -3.46000008E-02  -2.88373281E-09
  -3.45500000E-02  -3.37677131E-09
  -3.44999991E-02  -3.90014643E-09
  -3.44499983E-02  -4.21969881E-09
  -3.44000012E-02  -4.16085699E-09
  -3.43500003E-02  -3.69841446E-09
  -3.42999995E-02  -2.98491432E-09
  -3.42499986E-02  -2.29675967E-09
  -3.42000015E-02  -1.91443439E-09
  -3.41500007E-02  -1.98692884E-09
  -3.40999998E-02  -2.44387621E-09
  -3.40499990E-02  -3.00319036E-09
  -3.40000018E-02  -3.28138450E-09
  -3.39500010E-02  -2.96511526E-09
  -3.39000002E-02  -1.96846539E-09
  -3.38499993E-02  -4.99083719E-10
  -3.37999985E-02   1.00825315E-09
  -3.37500013E-02   2.07298356E-09
  -3.37000005E-02   2.39053422E-09
  -3.36499996E-02   1.99301819E-09
  -3.35999988E-02   1.26610666E-09
  -3.35500017E-02   7.99531108E-10
  -3.35000008E-02   1.12578535E-09
  -3.34500000E-02   2.46035081E-09
  -3.33999991E-02   4.56720306E-09
  -3.33499983E-02   6.82577950E-09
  -3.33000012E-02   8.48698978E-09
  -3.32500003E-02   9.01469033E-09
  -3.31999995E-02   8.35861869E-09
  -3.31499986E-02   7.02295289E-09
  -3.31000015E-02   5.87902216E-09
  -3.30500007E-02   5.78724846E-09
  -3.29999998E-02   7.18956938E-09
  -3.29499990E-02   9.86198145E-09
  -3.29000019E-02   1.29579787E-08
  -3.28500010E-02   1.53477657E-08
  -3.28000002E-02   1.61189746E-08
  -3.27499993E-02   1.50169850E-08
  -3.26999985E-02   1.26127500E-08
  -3.26500013E-02   1.00969064E-08
  -3.26000005E-02   8.76669581E-09
  -3.25499997E-02   9.42240508E-09
  -3.24999988E-02   1.19500125E-08
  -3.24500017E-02   1.53010991E-08
  -3.24000008E-02   1.79107520E-08
  -3.23500000E-02   1.83913489E-08
  -3.22999991E-02   1.61977596E-08
  -3.22499983E-02   1.19492958E-08
  -3.22000012E-02   7.23074756E-09
  -3.21500003E-02   3.92592936E-09
  -3.20999995E-02   3.36054962E-09
  -3.20499986E-02   5.64149216E-09
  -3.20000015E-02   9.51634060E-09
  -3.19500007E-02   1.28570452E-08
  -3.18999998E-02   1.35869849E-08
  -3.18499990E-02   1.06502620E-08
  -3.18000019E-02   4.57373872E-09
  -3.17500010E-02  -2.66893507E-09
  -3.17000002E-02  -8.47628812E-09
  -3.16499993E-02  -1.07859597E-08
  -3.15999985E-02  -9.06927600E-09
  -3.15500014E-02  -4.67805217E-09
  -3.15000005E-02  -3.38231720E-10
  -3.14499997E-02   1.03087106E-09
  -3.13999988E-02  -2.33330799E-09
  -3.13500017E-02  -1.01344053E-08
  -3.13000008E-02  -2.00120649E-08
  -3.12500000E-02  -2.84947568E-08
  -3.11999992E-02  -3.25294849E-08
  -3.11500002E-02  -3.09150572E-08
  -3.10999993E-02  -2.49680348E-08
  -3.10500003E-02  -1.80647994E-08
  -3.09999995E-02  -1.42026977E-08
  -3.09500005E-02  -1.61869345E-08
  -3.08999997E-02  -2.42599771E-08
  -3.08500007E-02  -3.58341659E-08
  -3.07999998E-02  -4.65162238E-08
  -3.07500008E-02  -5.20251007E-08
  -3.07000000E-02  -5.01676212E-08
  -3.06499992E-02  -4.19614814E-08
  -3.06000002E-02  -3.13377768E-08
  -3.05499993E-02  -2.34802755E-08
  -3.05000003E-02  -2.24927064E-08
  -3.04499995E-02  -2.94345419E-08
  -3.04000005E-02  -4.16533226E-08
  -3.03499997E-02  -5.37936273E-08
  -3.03000007E-02  -6.01091159E-08
  -3.02499998E-02  -5.70822003E-08
  -3.02000009E-02  -4.51602240E-08
  -3.01500000E-02  -2.87607254E-08
  -3.00999992E-02  -1.44516292E-08
  -3.00500002E-02  -8.04851208E-09
  -2.99999993E-02  -1.19086607E-08
  -2.99500003E-02  -2.36772486E-08
  -2.98999995E-02  -3.71363029E-08
  -2.98500005E-02  -4.48722304E-08
  -2.97999997E-02  -4.16265422E-08
  -2.97500007E-02  -2.68235532E-08
  -2.96999998E-02  -5.07248821E-09
  -2.96500009E-02   1.56863873E-08
  -2.96000000E-02   2.76557390E-08
  -2.95499992E-02   2.67591602E-08
  -2.95000002E-02   1.46862646E-08
  -2.94499993E-02  -1.60676761E-09
  -2.94000003E-02  -1.28336275E-08
  -2.93499995E-02  -1.15206324E-08
  -2.93000005E-02   4.48508430E-09
  -2.92499997E-02   3.07772083E-08
  -2.92000007E-02   5.80921728E-08
  -2.91499998E-02   7.63057670E-08
  -2.91000009E-02   7.89995624E-08
  -2.90500000E-02   6.65351223E-08
  -2.89999992E-02   4.61656917E-08
  -2.89500002E-02   2.90052267E-08
  -2.88999993E-02   2.51043382E-08
  -2.88500004E-02   3.88014669E-08
  -2.87999995E-02   6.64848727E-08
  -2.87500005E-02   9.78901298E-08
  -2.86999997E-02   1.20490171E-07
  -2.86500007E-02   1.25103583E-07
  -2.85999998E-02   1.10212724E-07
  -2.85500009E-02   8.29680218E-08
  -2.85000000E-02   5.62837492E-08
  -2.84499992E-02   4.31894875E-08
  -2.84000002E-02   5.08994553E-08
  -2.83499993E-02   7.72898758E-08
  -2.83000004E-02   1.11484546E-07
  -2.82499995E-02   1.38444676E-07
  -2.82000005E-02   1.45631518E-07
  -2.81499997E-02   1.28791470E-07
  -2.81000007E-02   9.41981142E-08
  -2.80499998E-02   5.61956313E-08
  -2.80000009E-02   3.09821004E-08
  -2.79500000E-02   2.93169613E-08
  -2.78999992E-02   5.14274063E-08
  -2.78500002E-02   8.65111929E-08
  -2.77999993E-02   1.17233377E-07
  -2.77500004E-02   1.27359584E-07
  -2.76999995E-02   1.09175005E-07
  -2.76500005E-02   6.73131524E-08
  -2.75999997E-02   1.71255898E-08
  -2.75500007E-02  -2.18664091E-08
  -2.74999999E-02  -3.46462485E-08
  -2.74500009E-02  -1.76463253E-08
  -2.74000000E-02   1.92455403E-08
  -2.73499992E-02   5.66995375E-08
  -2.73000002E-02   7.43686499E-08
  -2.72499993E-02   6.00618932E-08
  -2.72000004E-02   1.55387561E-08
  -2.71499995E-02  -4.38123919E-08
  -2.71000005E-02  -9.54714139E-08
  -2.70499997E-02  -1.19725428E-07
  -2.70000007E-02  -1.08666633E-07
  -2.69499999E-02  -7.01469745E-08
  -2.69000009E-02  -2.47340974E-08
  -2.68500000E-02   3.18420446E-09
  -2.67999992E-02  -3.68501385E-09
  -2.67500002E-02  -4.74750976E-08
  -2.66999993E-02  -1.13683313E-07
  -2.66500004E-02  -1.77161851E-07
  -2.65999995E-02  -2.13108336E-07
  -2.65500005E-02  -2.08249631E-07
  -2.64999997E-02  -1.67173980E-07
  -2.64500007E-02  -1.10800592E-07
  -2.63999999E-02  -6.74327012E-08
  -2.63500009E-02  -6.02037034E-08
  -2.63000000E-02  -9.64715525E-08
  -2.62499992E-02  -1.64007460E-07
  -2.62000002E-02  -2.35905844E-07
  -2.61499994E-02  -2.82264608E-07
  -2.61000004E-02  -2.83570273E-07
  -2.60499995E-02  -2.39800841E-07
  -2.60000005E-02  -1.71011862E-07
  -2.59499997E-02  -1.08887662E-07
  -2.59000007E-02  -8.27985502E-08
  -2.58499999E-02  -1.06487903E-07
  -2.58000009E-02  -1.71408260E-07
  -2.57500000E-02  -2.49903593E-07
  -2.56999992E-02  -3.07091028E-07
  -2.56500002E-02  -3.16341101E-07
  -2.55999994E-02  -2.71488915E-07
  -2.55500004E-02  -1.90184181E-07
  -2.54999995E-02  -1.06620433E-07
  -2.54500005E-02  -5.66189655E-08
  -2.53999997E-02  -6.15677891E-08
  -2.53500007E-02  -1.18413453E-07
  -2.52999999E-02  -2.00377954E-07
  -2.52500009E-02  -2.68371622E-07
  -2.52000000E-02  -2.88257780E-07
  -2.51499992E-02  -2.46357928E-07
  -2.51000002E-02  -1.56171708E-07
  -2.50499994E-02  -5.30497530E-08
  -2.50000004E-02   2.11082867E-08
  -2.49499995E-02   3.65135548E-08
  -2.49000005E-02  -1.07986144E-08
  -2.48499997E-02  -9.65008269E-08
  -2.48000007E-02  -1.78158970E-07
  -2.47499999E-02  -2.13821750E-07
  -2.47000009E-02  -1.80874409E-07
  -2.46500000E-02  -8.66867538E-08
  -2.45999992E-02   3.39430208E-08
  -2.45500002E-02   1.33736506E-07
  -2.44999994E-02   1.73867718E-07
  -2.44500004E-02   1.41619779E-07
  -2.43999995E-02   5.67448417E-08
  -2.43500005E-02  -3.66162816E-08
  -2.42999997E-02  -8.91826133E-08
  -2.42500007E-02  -6.85721346E-08
  -2.41999999E-02   2.57093458E-08
  -2.41500009E-02   1.61243563E-07
  -2.41000000E-02   2.86446294E-07
  -2.40499992E-02   3.53269229E-07
  -2.40000002E-02   3.38871644E-07
  -2.39499994E-02   2.56495895E-07
  -2.39000004E-02   1.50399032E-07
  -2.38499995E-02   7.67334711E-08
  -2.38000005E-02   7.86318068E-08
  -2.37499997E-02   1.66551530E-07
  -2.37000007E-02   3.12832071E-07
  -2.36499999E-02   4.63239729E-07
  -2.36000009E-02   5.60707917E-07
  -2.35500000E-02   5.70886698E-07
  -2.34999992E-02   4.98065219E-07
  -2.34500002E-02   3.84094079E-07
  -2.33999994E-02   2.90408678E-07
  -2.33500004E-02   2.70849313E-07
  -2.32999995E-02   3.47285408E-07
  -2.32500006E-02   4.99058388E-07
  -2.31999997E-02   6.71291957E-07
  -2.31500007E-02   7.98751273E-07
  -2.30999999E-02   8.34872822E-07
  -2.30500009E-02   7.73035424E-07
  -2.30000000E-02   6.50350160E-07
  -2.29499992E-02   5.31891260E-07
  -2.29000002E-02   4.82034409E-07
  -2.28499994E-02   5.35504626E-07
  -2.28000004E-02   6.81131326E-07
  -2.27499995E-02   8.65871868E-07
  -2.27000006E-02   1.01771286E-06
  -2.26499997E-02   1.07754636E-06
  -2.26000007E-02   1.02588206E-06
  -2.25499999E-02   8.92290700E-07
  -2.25000009E-02   7.42988675E-07
  -2.24500000E-02   6.51705307E-07
  -2.23999992E-02   6.66589074E-07
  -2.23500002E-02   7.87947840E-07
  -2.22999994E-02   9.67037067E-07
  -2.22500004E-02   1.12685279E-06
  -2.21999995E-02   1.19601759E-06
  -2.21500006E-02   1.14079171E-06
  -2.20999997E-02   9.80788172E-07
  -2.20500007E-02   7.81028973E-07
  -2.19999999E-02   6.23467429E-07
  -2.19500009E-02   5.70385055E-07
  -2.19000001E-02   6.35955416E-07
  -2.18499992E-02   7.78895355E-07
  -2.18000002E-02   9.19887214E-07
  -2.17499994E-02   9.76387696E-07
  -2.17000004E-02   8.99494808E-07
  -2.16499995E-02   6.96349048E-07
  -2.16000006E-02   4.27752951E-07
  -2.15499997E-02   1.81647678E-07
  -2.15000007E-02   3.39444739E-08
  -2.14499999E-02   1.40931222E-08
  -2.14000009E-02   9.09303637E-08
  -2.13500001E-02   1.85514452E-07
  -2.12999992E-02   2.05624275E-07
  -2.12500002E-02   8.67831176E-08
  -2.11999994E-02  -1.78501068E-07
  -2.11500004E-02  -5.36606763E-07
  -2.10999995E-02  -8.96028666E-07
  -2.10500006E-02  -1.16796036E-06
  -2.09999997E-02  -1.30627348E-06
  -2.09500007E-02  -1.32892899E-06
  -2.08999999E-02  -1.31091906E-06
  -2.08500009E-02  -1.35148684E-06
  -2.08000001E-02  -1.52997154E-06
  -2.07499992E-02  -1.86994578E-06
  -2.07000002E-02  -2.32787670E-06
  -2.06499994E-02  -2.81176881E-06
  -2.06000004E-02  -3.22183769E-06
  -2.05499995E-02  -3.49525499E-06
  -2.05000006E-02  -3.63491563E-06
  -2.04499997E-02  -3.70908265E-06
  -2.04000007E-02  -3.82165945E-06
  -2.03499999E-02  -4.06603658E-06
  -2.03000009E-02  -4.48302490E-06
  -2.02500001E-02  -5.04181889E-06
  -2.01999992E-02  -5.65283472E-06
  -2.01500002E-02  -6.20707988E-06
  -2.00999994E-02  -6.62471621E-06
  -2.00500004E-02  -6.89111039E-06
  -1.99999996E-02  -7.06404489E-06
  -1.99500006E-02  -7.24848269E-06
  -1.98999997E-02  -7.54985285E-06
  -1.98500007E-02  -8.02656996E-06
  -1.97999999E-02  -8.66311166E-06
  -1.97500009E-02  -9.37598361E-06
  -1.97000001E-02  -1.00502957E-05
  -1.96499992E-02  -1.05908348E-05
  -1.96000002E-02  -1.09648818E-05
  -1.95499994E-02  -1.12174594E-05
  -1.95000004E-02  -1.14518270E-05
  -1.94499996E-02  -1.17836344E-05
  -1.94000006E-02  -1.22890215E-05
  -1.93499997E-02  -1.29699347E-05
  -1.93000007E-02  -1.37523475E-05
  -1.92499999E-02  -1.45185695E-05
  -1.92000009E-02  -1.51594759E-05
  -1.91500001E-02  -1.56233527E-05
  -1.90999992E-02  -1.59394276E-05
  -1.90500002E-02  -1.62052893E-05
  -1.89999994E-02  -1.65435013E-05
  -1.89500004E-02  -1.70466428E-05
  -1.88999996E-02  -1.77353668E-05
  -1.88500006E-02  -1.85483586E-05
  -1.87999997E-02  -1.93690939E-05
  -1.87500007E-02  -2.00776376E-05
  -1.86999999E-02  -2.06044115E-05
  -1.86500009E-02  -2.09618265E-05
  -1.86000001E-02  -2.12393879E-05
  -1.85499992E-02  -2.15641630E-05
  -1.85000002E-02  -2.20441198E-05
  -1.84499994E-02  -2.27195724E-05
  -1.84000004E-02  -2.35447260E-05
  -1.83499996E-02  -2.44076928E-05
  -1.83000006E-02  -2.51804104E-05
  -1.82499997E-02  -2.57761149E-05
  -1.82000007E-02  -2.61886744E-05
  -1.81499999E-02  -2.64960454E-05
  -1.81000009E-02  -2.68260119E-05
  -1.80500001E-02  -2.72993329E-05
  -1.79999992E-02  -2.79757242E-05
  -1.79500002E-02  -2.88270385E-05
  -1.78999994E-02  -2.97496808E-05
  -1.78500004E-02  -3.06110378E-05
  -1.77999996E-02  -3.13092714E-05
  -1.77500006E-02  -3.18197053E-05
  -1.76999997E-02  -3.22067317E-05
  -1.76500008E-02  -3.25959008E-05
  -1.75999999E-02  -3.31185329E-05
  -1.75500009E-02  -3.38533573E-05
  -1.75000001E-02  -3.47915666E-05
  -1.74499992E-02  -3.58410325E-05
  -1.74000002E-02  -3.68679684E-05
  -1.73499994E-02  -3.77574434E-05
  -1.73000004E-02  -3.84656705E-05
  -1.72499996E-02  -3.90404712E-05
  -1.72000006E-02  -3.96007345E-05
  -1.71499997E-02  -4.02839360E-05
  -1.71000008E-02  -4.11850851E-05
  -1.70499999E-02  -4.23145211E-05
  -1.70000009E-02  -4.35936709E-05
  -1.69500001E-02  -4.48907631E-05
  -1.68999992E-02  -4.60805968E-05
  -1.68500002E-02  -4.71015155E-05
  -1.67999994E-02  -4.79841074E-05
  -1.67500004E-02  -4.88384685E-05
  -1.66999996E-02  -4.98058107E-05
  -1.66500006E-02  -5.09959900E-05
  -1.65999997E-02  -5.24389216E-05
  -1.65500008E-02  -5.40718647E-05
  -1.64999999E-02  -5.57681924E-05
  -1.64500009E-02  -5.73949837E-05
  -1.64000001E-02  -5.88737130E-05
  -1.63499992E-02  -6.02160871E-05
  -1.63000003E-02  -6.15196914E-05
  -1.62499994E-02  -6.29249771E-05
  -1.62000004E-02  -6.45527762E-05
  -1.61499996E-02  -6.64505860E-05
  -1.61000006E-02  -6.85717241E-05
  -1.60499997E-02  -7.07970175E-05
  -1.60000008E-02  -7.29891326E-05
  -1.59499999E-02  -7.50548934E-05
  -1.59000009E-02  -7.69875987E-05
  -1.58500001E-02  -7.88710167E-05
  -1.57999992E-02  -8.08425830E-05
  -1.57500003E-02  -8.30321078E-05
  -1.56999994E-02  -8.55040198E-05
  -1.56500004E-02  -8.82295062E-05
  -1.55999996E-02  -9.11000170E-05
  -1.55499997E-02  -9.39764723E-05
  -1.54999997E-02  -9.67526066E-05
  -1.54499998E-02  -9.94032307E-05
  -1.53999999E-02  -1.01995989E-04
  -1.53500000E-02  -1.04661078E-04
  -1.53000001E-02  -1.07532760E-04
  -1.52500002E-02  -1.10689361E-04
  -1.52000003E-02  -1.14118746E-04
  -1.51500003E-02  -1.17724085E-04
  -1.51000004E-02  -1.21367986E-04
  -1.50499996E-02  -1.24935163E-04
  -1.49999997E-02  -1.28384359E-04
  -1.49499997E-02  -1.31767403E-04
  -1.48999998E-02  -1.35206574E-04
  -1.48499999E-02  -1.38839488E-04
  -1.48000000E-02  -1.42757868E-04
  -1.47500001E-02  -1.46966777E-04
  -1.47000002E-02  -1.51383065E-04
  -1.46500003E-02  -1.55873786E-04
  -1.46000003E-02  -1.60316413E-04
  -1.45500004E-02  -1.64655066E-04
  -1.44999996E-02  -1.68925544E-04
  -1.44499997E-02  -1.73239765E-04
  -1.43999998E-02  -1.77735725E-04
  -1.43499998E-02  -1.82514981E-04
  -1.42999999E-02  -1.87597936E-04
  -1.42500000E-02  -1.92915380E-04
  -1.42000001E-02  -1.98340829E-04
  -1.41500002E-02  -2.03748408E-04
  -1.41000003E-02  -2.09070247E-04
  -1.40500003E-02  -2.14327913E-04
  -1.40000004E-02  -2.19623151E-04
  -1.39499996E-02  -2.25092648E-04
  -1.38999997E-02  -2.30847218E-04
  -1.38499998E-02  -2.36922759E-04
  -1.37999998E-02  -2.43265618E-04
  -1.37499999E-02  -2.49758479E-04
  -1.37000000E-02  -2.56275263E-04
  -1.36500001E-02  -2.62738933E-04
  -1.36000002E-02  -2.69157928E-04
  -1.35500003E-02  -2.75622791E-04
  -1.35000004E-02  -2.82265450E-04
  -1.34500004E-02  -2.89201940E-04
  -1.33999996E-02  -2.96480459E-04
  -1.33499997E-02  -3.04061832E-04
  -1.32999998E-02  -3.11839976E-04
  -1.32499998E-02  -3.19690851E-04
  -1.31999999E-02  -3.27530783E-04
  -1.31500000E-02  -3.35355755E-04
  -1.31000001E-02  -3.43244959E-04
  -1.30500002E-02  -3.51326191E-04
  -1.30000003E-02  -3.59719881E-04
  -1.29500004E-02  -3.68486857E-04
  -1.29000004E-02  -3.77602613E-04
  -1.28499996E-02  -3.86972213E-04
  -1.27999997E-02  -3.96475574E-04
  -1.27499998E-02  -4.06024454E-04
  -1.26999998E-02  -4.15605173E-04
  -1.26499999E-02  -4.25286096E-04
  -1.26000000E-02  -4.35188849E-04
  -1.25500001E-02  -4.45434795E-04
  -1.25000002E-02  -4.56092064E-04
  -1.24500003E-02  -4.67148784E-04
  -1.24000004E-02  -4.78520000E-04
  -1.23500004E-02  -4.90089820E-04
  -1.22999996E-02  -5.01767849E-04
  -1.22499997E-02  -5.13530569E-04
  -1.21999998E-02  -5.25435200E-04
  -1.21499998E-02  -5.37595130E-04
  -1.20999999E-02  -5.50131139E-04
  -1.20500000E-02  -5.63119131E-04
  -1.20000001E-02  -5.76558639E-04
  -1.19500002E-02  -5.90377720E-04
  -1.19000003E-02  -6.04468922E-04
  -1.18500004E-02  -6.18740858E-04
  -1.18000004E-02  -6.33163552E-04
  -1.17499996E-02  -6.47784618E-04
  -1.16999997E-02  -6.62710692E-04
  -1.16499998E-02  -6.78061391E-04
  -1.15999999E-02  -6.93916110E-04
  -1.15499999E-02  -7.10281718E-04
  -1.15000000E-02  -7.27094070E-04
  -1.14500001E-02  -7.44248973E-04
  -1.14000002E-02  -7.61652482E-04
  -1.13500003E-02  -7.79267459E-04
  -1.13000004E-02  -7.97132845E-04
  -1.12500004E-02  -8.15347128E-04
  -1.11999996E-02  -8.34027072E-04
  -1.11499997E-02  -8.53256730E-04
  -1.10999998E-02  -8.73052806E-04
  -1.10499999E-02  -8.93363089E-04
  -1.09999999E-02  -9.14090604E-04
  -1.09500000E-02  -9.35143966E-04
  -1.09000001E-02  -9.56483185E-04
  -1.08500002E-02  -9.78139346E-04
  -1.08000003E-02  -1.00020517E-03
  -1.07500004E-02  -1.02279312E-03
  -1.07000005E-02  -1.04598620E-03
  -1.06499996E-02  -1.06980547E-03
  -1.05999997E-02  -1.09420333E-03
  -1.05499998E-02  -1.11908861E-03
  -1.04999999E-02  -1.14437030E-03
  -1.04499999E-02  -1.17000320E-03
  -1.04000000E-02  -1.19601027E-03
  -1.03500001E-02  -1.22247473E-03
  -1.03000002E-02  -1.24950416E-03
  -1.02500003E-02  -1.27718330E-03
  -1.02000004E-02  -1.30554126E-03
  -1.01500005E-02  -1.33453822E-03
  -1.00999996E-02  -1.36409118E-03
  -1.00499997E-02  -1.39411306E-03
  -9.99999978E-03  -1.42455823E-03
  -9.94999986E-03  -1.45544868E-03
  -9.89999995E-03  -1.48686371E-03
  -9.85000003E-03  -1.51890749E-03
  -9.80000012E-03  -1.55166455E-03
  -9.75000020E-03  -1.58516376E-03
  -9.70000029E-03  -1.61937298E-03
  -9.65000037E-03  -1.65421504E-03
  -9.60000046E-03  -1.68960798E-03
  -9.54999961E-03  -1.72551034E-03
  -9.49999969E-03  -1.76193845E-03
  -9.44999978E-03  -1.79896061E-03
  -9.39999986E-03  -1.83667056E-03
  -9.34999995E-03  -1.87514734E-03
  -9.30000003E-03  -1.91442040E-03
  -9.25000012E-03  -1.95446238E-03
  -9.20000020E-03  -1.99520448E-03
  -9.15000029E-03  -2.03657616E-03
  -9.10000037E-03  -2.07853736E-03
  -9.05000046E-03  -2.12109601E-03
  -8.99999961E-03  -2.16431799E-03
  -8.94999970E-03  -2.20829831E-03
  -8.89999978E-03  -2.25311378E-03
  -8.84999987E-03  -2.29879422E-03
  -8.79999995E-03  -2.34531821E-03
  -8.75000004E-03  -2.39262637E-03
  -8.70000012E-03  -2.44065304E-03
  -8.65000021E-03  -2.48936494E-03
  -8.60000029E-03  -2.53877323E-03
  -8.55000038E-03  -2.58893566E-03
  -8.50000046E-03  -2.63993372E-03
  -8.44999962E-03  -2.69183819E-03
  -8.39999970E-03  -2.74468376E-03
  -8.34999979E-03  -2.79845274E-03
  -8.29999987E-03  -2.85308668E-03
  -8.24999996E-03  -2.90852739E-03
  -8.20000004E-03  -2.96474295E-03
  -8.15000013E-03  -3.02174618E-03
  -8.10000021E-03  -3.07958946E-03
  -8.05000030E-03  -3.13834590E-03
  -8.00000038E-03  -3.19807953E-03
  -7.95000046E-03  -3.25881760E-03
  -7.89999962E-03  -3.32054240E-03
  -7.84999970E-03  -3.38320225E-03
  -7.79999979E-03  -3.44673800E-03
  -7.74999987E-03  -3.51111870E-03
  -7.69999996E-03  -3.57636483E-03
  -7.65000004E-03  -3.64252855E-03
  -7.60000013E-03  -3.70968110E-03
  -7.55000021E-03  -3.77788977E-03
  -7.49999983E-03  -3.84716922E-03
  -7.44999992E-03  -3.91749386E-03
  -7.40000000E-03  -3.98881501E-03
  -7.35000009E-03  -4.06108517E-03
  -7.30000017E-03  -4.13428899E-03
  -7.24999979E-03  -4.20844601E-03
  -7.19999988E-03  -4.28360980E-03
  -7.14999996E-03  -4.35984880E-03
  -7.10000005E-03  -4.43721516E-03
  -7.05000013E-03  -4.51571634E-03
  -7.00000022E-03  -4.59531834E-03
  -6.94999984E-03  -4.67596576E-03
  -6.89999992E-03  -4.75760689E-03
  -6.85000001E-03  -4.84023057E-03
  -6.80000009E-03  -4.92386566E-03
  -6.75000018E-03  -5.00857038E-03
  -6.69999979E-03  -5.09440154E-03
  -6.64999988E-03  -5.18139312E-03
  -6.59999996E-03  -5.26954280E-03
  -6.55000005E-03  -5.35881054E-03
  -6.50000013E-03  -5.44913951E-03
  -6.45000022E-03  -5.54049341E-03
  -6.39999984E-03  -5.63287782E-03
  -6.34999992E-03  -5.72633324E-03
  -6.30000001E-03  -5.82091697E-03
  -6.25000009E-03  -5.91668487E-03
  -6.20000018E-03  -6.01366395E-03
  -6.14999980E-03  -6.11184025E-03
  -6.09999988E-03  -6.21116441E-03
  -6.04999997E-03  -6.31158240E-03
  -6.00000005E-03  -6.41304860E-03
  -5.95000014E-03  -6.51556486E-03
  -5.90000022E-03  -6.61918521E-03
  -5.84999984E-03  -6.72398834E-03
  -5.79999993E-03  -6.83002267E-03
  -5.75000001E-03  -6.93727937E-03
  -5.70000010E-03  -7.04572862E-03
  -5.65000018E-03  -7.15529872E-03
  -5.59999980E-03  -7.26591563E-03
  -5.54999989E-03  -7.37754488E-03
  -5.49999997E-03  -7.49019766E-03
  -5.45000006E-03  -7.60394242E-03
  -5.40000014E-03  -7.71886529E-03
  -5.35000023E-03  -7.83503149E-03
  -5.29999984E-03  -7.95245916E-03
  -5.24999993E-03  -8.07110313E-03
  -5.20000001E-03  -8.19086749E-03
  -5.15000010E-03  -8.31165072E-03
  -5.10000018E-03  -8.43337737E-03
  -5.04999980E-03  -8.55607074E-03
  -4.99999989E-03  -8.67984630E-03
  -4.94999997E-03  -8.80482048E-03
  -4.90000006E-03  -8.93109106E-03
  -4.85000014E-03  -9.05866176E-03
  -4.80000023E-03  -9.18745063E-03
  -4.74999985E-03  -9.31731891E-03
  -4.69999993E-03  -9.44809336E-03
  -4.65000002E-03  -9.57968179E-03
  -4.60000010E-03  -9.71212704E-03
  -4.55000019E-03  -9.84553527E-03
  -4.49999981E-03  -9.98005550E-03
  -4.44999989E-03  -1.01158461E-02
  -4.39999998E-03  -1.02529349E-02
  -4.35000006E-03  -1.03912177E-02
  -4.30000015E-03  -1.05305100E-02
  -4.25000023E-03  -1.06705846E-02
  -4.19999985E-03  -1.08113298E-02
  -4.14999994E-03  -1.09527642E-02
  -4.10000002E-03  -1.10950302E-02
  -4.05000011E-03  -1.12383468E-02
  -4.00000019E-03  -1.13828909E-02
  -3.94999981E-03  -1.15287211E-02
  -3.89999989E-03  -1.16757220E-02
  -3.84999998E-03  -1.18236318E-02
  -3.80000006E-03  -1.19721796E-02
  -3.74999992E-03  -1.21211810E-02
  -3.70000000E-03  -1.22706415E-02
  -3.65000009E-03  -1.24207223E-02
  -3.59999994E-03  -1.25716999E-02
  -3.55000002E-03  -1.27237942E-02
  -3.50000011E-03  -1.28770489E-02
  -3.44999996E-03  -1.30313467E-02
  -3.40000005E-03  -1.31863756E-02
  -3.34999990E-03  -1.33417910E-02
  -3.29999998E-03  -1.34973861E-02
  -3.25000007E-03  -1.36531442E-02
  -3.19999992E-03  -1.38092283E-02
  -3.15000000E-03  -1.39659373E-02
  -3.10000009E-03  -1.41235422E-02
  -3.04999994E-03  -1.42821437E-02
  -3.00000003E-03  -1.44415963E-02
  -2.95000011E-03  -1.46015780E-02
  -2.89999996E-03  -1.47616901E-02
  -2.85000005E-03  -1.49216400E-02
  -2.79999990E-03  -1.50813693E-02
  -2.74999999E-03  -1.52410120E-02
  -2.70000007E-03  -1.54008809E-02
  -2.64999992E-03  -1.55613143E-02
  -2.60000001E-03  -1.57224815E-02
  -2.55000009E-03  -1.58843212E-02
  -2.49999994E-03  -1.60464812E-02
  -2.45000003E-03  -1.62084643E-02
  -2.40000011E-03  -1.63698737E-02
  -2.34999997E-03  -1.65305436E-02
  -2.30000005E-03  -1.66905560E-02
  -2.24999990E-03  -1.68502610E-02
  -2.19999999E-03  -1.70100853E-02
  -2.15000007E-03  -1.71703044E-02
  -2.09999993E-03  -1.73309166E-02
  -2.05000001E-03  -1.74915493E-02
  -2.00000009E-03  -1.76516287E-02
  -1.94999995E-03  -1.78105645E-02
  -1.90000003E-03  -1.79680660E-02
  -1.85000000E-03  -1.81242153E-02
  -1.79999997E-03  -1.82794053E-02
  -1.75000005E-03  -1.84341930E-02
  -1.70000002E-03  -1.85889285E-02
  -1.64999999E-03  -1.87436286E-02
  -1.59999996E-03  -1.88979320E-02
  -1.55000004E-03  -1.90512147E-02
  -1.50000001E-03  -1.92028116E-02
  -1.44999998E-03  -1.93522796E-02
  -1.39999995E-03  -1.94996819E-02
  -1.35000004E-03  -1.96454488E-02
  -1.30000000E-03  -1.97901577E-02
  -1.24999997E-03  -1.99342631E-02
  -1.20000006E-03  -2.00778395E-02
  -1.15000003E-03  -2.02204846E-02
  -1.09999999E-03  -2.03614347E-02
  -1.04999996E-03  -2.04999261E-02
  -1.00000005E-03  -2.06355285E-02
  -9.50000016E-04  -2.07682382E-02
  -8.99999985E-04  -2.08984446E-02
  -8.50000011E-04  -2.10267156E-02
  -7.99999980E-04  -2.11535562E-02
  -7.50000007E-04  -2.12792121E-02
  -6.99999975E-04  -2.14033574E-02
  -6.50000002E-04  -2.15252377E-02
  -6.00000028E-04  -2.16440335E-02
  -5.49999997E-04  -2.17591226E-02
  -5.00000024E-04  -2.18703654E-02
  -4.49999992E-04  -2.19780672E-02
  -3.99999990E-04  -2.20828597E-02
  -3.49999988E-04  -2.21854243E-02
  -3.00000014E-04  -2.22860556E-02
  -2.50000012E-04  -2.23845355E-02
  -1.99999995E-04  -2.24801544E-02
  -1.50000007E-04  -2.25719269E-02
  -9.99999975E-05  -2.26590801E-02
  -4.99999987E-05  -2.27413047E-02
   0.00000000      -2.28187293E-02
   4.99999987E-05  -2.28920393E-02
   9.99999975E-05  -2.29620729E-02
   1.50000007E-04  -2.30293293E-02
   1.99999995E-04  -2.30938233E-02
   2.50000012E-04  -2.31547989E-02
   3.00000014E-04  -2.32110973E-02
   3.49999988E-04  -2.32617445E-02
   3.99999990E-04  -2.33061854E-02
   4.49999992E-04  -2.33445410E-02
   5.00000024E-04  -2.33775061E-02
   5.49999997E-04  -2.34059505E-02
   6.00000028E-04  -2.34306846E-02
   6.50000002E-04  -2.34518405E-02
   6.99999975E-04  -2.34686434E-02
   7.50000007E-04  -2.34800074E-02
   7.99999980E-04  -2.34846883E-02
   8.50000011E-04  -2.34819073E-02
   8.99999985E-04  -2.34717317E-02
   9.50000016E-04  -2.34548394E-02
   1.00000005E-03  -2.34322324E-02
   1.04999996E-03  -2.34047268E-02
   1.09999999E-03  -2.33726650E-02
   1.15000003E-03  -2.33355351E-02
   1.20000006E-03  -2.32920907E-02
   1.24999997E-03  -2.32408606E-02
   1.30000000E-03  -2.31808480E-02
   1.35000004E-03  -2.31118985E-02
   1.39999995E-03  -2.30345968E-02
   1.44999998E-03  -2.29500737E-02
   1.50000001E-03  -2.28595268E-02
   1.55000004E-03  -2.27633491E-02
   1.59999996E-03  -2.26609502E-02
   1.64999999E-03  -2.25512311E-02
   1.70000002E-03  -2.24328097E-02
   1.75000005E-03  -2.23045815E-02
   1.79999997E-03  -2.21660789E-02
   1.85000000E-03  -2.20176969E-02
   1.90000003E-03  -2.18605548E-02
   1.94999995E-03  -2.16957107E-02
   2.00000009E-03  -2.15237346E-02
   2.05000001E-03  -2.13445984E-02
   2.09999993E-03  -2.11574025E-02
   2.15000007E-03  -2.09606700E-02
   2.19999999E-03  -2.07529496E-02
   2.24999990E-03  -2.05333382E-02
   2.30000005E-03  -2.03021299E-02
   2.34999997E-03  -2.00604424E-02
   2.40000011E-03  -1.98095664E-02
   2.45000003E-03  -1.95504390E-02
   2.49999994E-03  -1.92831345E-02
   2.55000009E-03  -1.90067906E-02
   2.60000001E-03  -1.87199432E-02
   2.64999992E-03  -1.84210278E-02
   2.70000007E-03  -1.81089826E-02
   2.74999999E-03  -1.77835990E-02
   2.79999990E-03  -1.74457319E-02