  -3.99999991E-02   0.00000000    
  -3.99499983E-02   0.00000000    
  -3.99000011E-02  -7.22999636E-16
  -3.98500003E-02  -3.92705438E-15
  -3.97999994E-02  -9.96176222E-15
  -3.97499986E-02  -1.32623413E-14
  -3.97000015E-02   6.99736697E-17
  -3.96500006E-02   4.69638773E-14
  -3.95999998E-02   1.32558366E-13
  -3.95499989E-02   2.32328019E-13
  -3.95000018E-02   2.84059912E-13
  -3.94500010E-02   2.00808079E-13
  -3.94000001E-02  -9.45575676E-14
  -3.93499993E-02  -6.25894952E-13
  -3.92999984E-02  -1.33286763E-12
  -3.92500013E-02  -2.07383524E-12
  -3.92000005E-02  -2.67344198E-12
  -3.91499996E-02  -3.00605808E-12
  -3.90999988E-02  -3.08265371E-12
  -3.90500017E-02  -3.09384137E-12
  -3.90000008E-02  -3.37052478E-12
  -3.89500000E-02  -4.26003330E-12
  -3.88999991E-02  -5.96428375E-12
  -3.88499983E-02  -8.41843262E-12
  -3.88000011E-02  -1.12808270E-11
  -3.87500003E-02  -1.40577203E-11
  -3.86999995E-02  -1.63214945E-11
  -3.86499986E-02  -1.79295346E-11
  -3.86000015E-02  -1.91367720E-11
  -3.85500006E-02  -2.05287315E-11
  -3.84999998E-02  -2.27774258E-11
  -3.84499989E-02  -2.63122839E-11
  -3.84000018E-02  -3.10582948E-11
  -3.83500010E-02  -3.63820571E-11
  -3.83000001E-02  -4.12955573E-11
  -3.82499993E-02  -4.48389902E-11
  -3.81999984E-02  -4.64685929E-11
  -3.81500013E-02  -4.62683641E-11
  -3.81000005E-02  -4.48893978E-11
  -3.80499996E-02  -4.32494318E-11
  -3.79999988E-02  -4.21322352E-11
  -3.79500017E-02  -4.18648068E-11
  -3.79000008E-02  -4.22070087E-11
  -3.78500000E-02  -4.24841794E-11
  -3.77999991E-02  -4.18775362E-11
  -3.77499983E-02  -3.97188393E-11
  -3.77000012E-02  -3.56564153E-11
  -3.76500003E-02  -2.96588795E-11
  -3.75999995E-02  -2.19333180E-11
  -3.75499986E-02  -1.28707956E-11
  -3.75000015E-02  -3.06154256E-12
  -3.74500006E-02   6.69995656E-12
  -3.73999998E-02   1.55652123E-11
  -3.73499990E-02   2.30117991E-11
  -3.73000018E-02   2.93400894E-11
  -3.72500010E-02   3.59854542E-11
  -3.72000001E-02   4.52997188E-11
  -3.71499993E-02   5.96367539E-11
  -3.70999984E-02   7.99511291E-11
  -3.70500013E-02   1.04521412E-10
  -3.70000005E-02   1.28604974E-10
  -3.69499996E-02   1.45615145E-10
  -3.68999988E-02   1.49753557E-10
  -3.68500017E-02   1.39163542E-10
  -3.68000008E-02   1.18044588E-10
  -3.67500000E-02   9.62425070E-11
  -3.66999991E-02   8.57741933E-11
  -3.66499983E-02   9.52623397E-11
  -3.66000012E-02   1.24640451E-10
  -3.65500003E-02   1.62947017E-10
  -3.64999995E-02   1.91100191E-10
  -3.64499986E-02   1.89411514E-10
  -3.64000015E-02   1.47109450E-10
  -3.63500006E-02   6.95142485E-11
  -3.62999998E-02  -2.12384416E-11
  -3.62499990E-02  -9.36098490E-11
  -3.62000018E-02  -1.20106841E-10
  -3.61500010E-02  -9.11971054E-11
  -3.61000001E-02  -2.28292350E-11
  -3.60499993E-02   4.73332380E-11
  -3.59999985E-02   7.50371362E-11
  -3.59500013E-02   3.03075828E-11
  -3.59000005E-02  -8.53720775E-11
  -3.58499996E-02  -2.34692654E-10
  -3.57999988E-02  -3.57164132E-10
  -3.57500017E-02  -3.95167982E-10
  -3.57000008E-02  -3.22582683E-10
  -3.56500000E-02  -1.62189970E-10
  -3.55999991E-02   1.84769058E-11
  -3.55499983E-02   1.34042583E-10
  -3.55000012E-02   1.21043175E-10
  -3.54500003E-02  -2.72246670E-11
  -3.53999995E-02  -2.48671944E-10
  -3.53499986E-02  -4.32414993E-10
  -3.53000015E-02  -4.65535166E-10
  -3.52500007E-02  -2.87458501E-10
  -3.51999998E-02   7.35218553E-11
  -3.51499990E-02   5.01739428E-10
  -3.51000018E-02   8.37950820E-10
  -3.50500010E-02   9.49705536E-10
  -3.50000001E-02   7.97646005E-10
  -3.49499993E-02   4.65206929E-10
  -3.48999985E-02   1.32868647E-10
  -3.48500013E-02   2.64030356E-12
  -3.48000005E-02   2.03184275E-10
  -3.47499996E-02   7.18951065E-10
  -3.46999988E-02   1.38017830E-09
  -3.46500017E-02   1.92552241E-09
  -3.46000008E-02   2.11549622E-09
  -3.45500000E-02   1.84806570E-09
  -3.44999991E-02   1.22141075E-09
  -3.44499983E-02   5.08219133E-10
  -3.44000012E-02   4.43877851E-11
  -3.43500003E-02   7.61712429E-11
  -3.42999995E-02   6.34190978E-10
  -3.42499986E-02   1.49690060E-09
  -3.42000015E-02   2.26980035E-09
  -3.41500007E-02   2.55420485E-09
  -3.40999998E-02   2.13420970E-09
  -3.40499990E-02   1.09495335E-09
  -3.40000018E-02  -1.90345087E-10
  -3.39500010E-02  -1.21061272E-09
  -3.39000002E-02  -1.54587243E-09
  -3.38499993E-02  -1.07365561E-09
  -3.37999985E-02  -5.31258232E-11
  -3.37500013E-02   9.63871427E-10
  -3.37000005E-02   1.36820388E-09
  -3.36499996E-02   7.77039821E-10
  -3.35999988E-02  -7.64050212E-10
  -3.35500017E-02  -2.76296164E-09
  -3.35000008E-02  -4.47137261E-09
  -3.34500000E-02  -5.21173948E-09
  -3.33999991E-02  -4.69868411E-09
  -3.33499983E-02  -3.20324256E-09
  -3.33000012E-02  -1.46985668E-09
  -3.32500003E-02  -4.04916878E-10
  -3.31999995E-02  -6.64485356E-10
  -3.31499986E-02  -2.32630559E-09
  -3.31000015E-02  -4.80628293E-09
  -3.30500007E-02  -7.07756564E-09
  -3.29999998E-02  -8.11323808E-09
  -3.29499990E-02  -7.36300265E-09
  -3.29000019E-02  -5.04397324E-09
  -3.28500010E-02  -2.09604001E-09
  -3.28000002E-02   2.02249287E-10
  -3.27499993E-02   8.03224431E-10
  -3.26999985E-02  -6.06639627E-10
  -3.26500013E-02  -3.40856787E-09
  -3.26000005E-02  -6.27211660E-09
  -3.25499997E-02  -7.72137199E-09
  -3.24999988E-02  -6.80781254E-09
  -3.24500017E-02  -3.58511487E-09
  -3.24000008E-02   8.47439730E-10
  -3.23500000E-02   4.78172435E-09
  -3.22999991E-02   6.64707267E-09
  -3.22499983E-02   5.74086068E-09
  -3.22000012E-02   2.60430189E-09
  -3.21500003E-02  -1.15302679E-09
  -3.20999995E-02  -3.53359875E-09
  -3.20499986E-02  -3.05424019E-09
  -3.20000015E-02   5.33095401E-10
  -3.19500007E-02   6.04649886E-09
  -3.18999998E-02   1.13275345E-08
  -3.18499990E-02   1.41731284E-08
  -3.18000019E-02   1.33448959E-08
  -3.17500010E-02   9.19512821E-09
  -3.17000002E-02   3.59809782E-09
  -3.16499993E-02  -8.22784896E-10
  -3.15999985E-02  -1.85751270E-09
  -3.15500014E-02   1.25049260E-09
  -3.15000005E-02   7.37224370E-09
  -3.14499997E-02   1.39023433E-08
  -3.13999988E-02   1.78690609E-08
  -3.13500017E-02   1.72748820E-08
  -3.13000008E-02   1.20651009E-08
  -3.12500000E-02   4.25973701E-09
  -3.11999992E-02  -2.85727197E-09
  -3.11500002E-02  -6.17096330E-09
  -3.10999993E-02  -4.16738644E-09
  -3.10500003E-02   2.29085528E-09
  -3.09999995E-02   1.02351292E-08
  -3.09500005E-02   1.58385589E-08
  -3.08999997E-02   1.61215592E-08
  -3.08500007E-02   1.03594910E-08
  -3.07999998E-02   5.34415401E-10
  -3.07500008E-02  -9.42360678E-09
  -3.07000000E-02  -1.53202162E-08
  -3.06499992E-02  -1.45836507E-08
  -3.06000002E-02  -7.50513784E-09
  -3.05499993E-02   2.76333134E-09
  -3.05000003E-02   1.15121734E-08
  -3.04499995E-02   1.45467647E-08
  -3.04000005E-02   1.01223652E-08
  -3.03499997E-02  -1.45367177E-10
  -3.03000007E-02  -1.18559935E-08
  -3.02499998E-02  -1.96927967E-08
  -3.02000009E-02  -1.97937844E-08
  -3.01500000E-02  -1.15702070E-08
  -3.00999992E-02   1.87890148E-09
  -3.00500002E-02   1.50077124E-08
  -2.99999993E-02   2.22304912E-08
  -2.99500003E-02   2.04534434E-08
  -2.98999995E-02   1.05880442E-08
  -2.98500005E-02  -2.68534395E-09
  -2.97999997E-02  -1.28726398E-08
  -2.97500007E-02  -1.45282151E-08
  -2.96999998E-02  -5.76629589E-09
  -2.96500009E-02   1.07309202E-08
  -2.96000000E-02   2.87286266E-08
  -2.95499992E-02   4.11038776E-08
  -2.95000002E-02   4.30223572E-08
  -2.94499993E-02   3.42114532E-08
  -2.94000003E-02   1.92641760E-08
  -2.93499995E-02   5.75569148E-09
  -2.93000005E-02   9.34560429E-10
  -2.92499997E-02   8.42593728E-09
  -2.92000007E-02   2.64364228E-08
  -2.91499998E-02   4.83313691E-08
  -2.91000009E-02   6.54188455E-08
  -2.90500000E-02   7.07717760E-08
  -2.89999992E-02   6.24057108E-08
  -2.89500002E-02   4.43547314E-08
  -2.88999993E-02   2.50794088E-08
  -2.88500004E-02   1.38218246E-08
  -2.87999995E-02   1.64713203E-08
  -2.87500005E-02   3.27839480E-08
  -2.86999997E-02   5.62577398E-08
  -2.86500007E-02   7.68183668E-08
  -2.85999998E-02   8.52097912E-08
  -2.85500009E-02   7.71767432E-08
  -2.85000000E-02   5.55497621E-08
  -2.84499992E-02   2.92193914E-08
  -2.84000002E-02   9.34890210E-09
  -2.83499993E-02   4.42984627E-09
  -2.83000004E-02   1.63624794E-08
  -2.82499995E-02   3.93596729E-08
  -2.82000005E-02   6.22667358E-08
  -2.81499997E-02   7.33750483E-08
  -2.81000007E-02   6.56541843E-08
  -2.80499998E-02   4.00665456E-08
  -2.80000009E-02   5.40995870E-09
  -2.79500000E-02  -2.53603698E-08
  -2.78999992E-02  -4.07996978E-08
  -2.78500002E-02  -3.61549510E-08
  -2.77999993E-02  -1.57178910E-08
  -2.77500004E-02   8.80077611E-09
  -2.76999995E-02   2.32795738E-08
  -2.76500005E-02   1.74428045E-08
  -2.75999997E-02  -1.03993116E-08
  -2.75500007E-02  -5.23030543E-08
  -2.74999999E-02  -9.39272482E-08
  -2.74500009E-02  -1.20742328E-07
  -2.74000000E-02  -1.24525769E-07
  -2.73499992E-02  -1.07242059E-07
  -2.73000002E-02  -8.04841207E-08
  -2.72499993E-02  -6.05838508E-08
  -2.72000004E-02  -6.14432878E-08
  -2.71499995E-02  -8.82234090E-08
  -2.71000005E-02  -1.34742507E-07
  -2.70499997E-02  -1.85863655E-07
  -2.70000007E-02  -2.23957741E-07
  -2.69499999E-02  -2.36676001E-07
  -2.69000009E-02  -2.22595460E-07
  -2.68500000E-02  -1.92148306E-07
  -2.67999992E-02  -1.63278116E-07
  -2.67500002E-02  -1.53608553E-07
  -2.66999993E-02  -1.72523215E-07
  -2.66500004E-02  -2.16695611E-07
  -2.65999995E-02  -2.71168574E-07
  -2.65500005E-02  -3.15661680E-07
  -2.64999997E-02  -3.33437811E-07
  -2.64500007E-02  -3.18839625E-07
  -2.63999999E-02  -2.80088784E-07
  -2.63500009E-02  -2.35962702E-07
  -2.63000000E-02  -2.07660605E-07
  -2.62499992E-02  -2.09358546E-07
  -2.62000002E-02  -2.41637082E-07
  -2.61499994E-02  -2.90797345E-07
  -2.61000004E-02  -3.34534064E-07
  -2.60499995E-02  -3.51605308E-07
  -2.60000005E-02  -3.31288589E-07
  -2.59499997E-02  -2.78394367E-07
  -2.59000007E-02  -2.11478749E-07
  -2.58499999E-02  -1.54873049E-07
  -2.58000009E-02  -1.27923428E-07
  -2.57500000E-02  -1.36174535E-07
  -2.56999992E-02  -1.68483780E-07
  -2.56500002E-02  -2.01509565E-07
  -2.55999994E-02  -2.09763627E-07
  -2.55500004E-02  -1.76884768E-07
  -2.54999995E-02  -1.03133921E-07
  -2.54500005E-02  -5.67014258E-09
  -2.53999997E-02   8.86988261E-08
  -2.53500007E-02   1.55247804E-07
  -2.52999999E-02   1.82427115E-07
  -2.52500009E-02   1.77355034E-07
  -2.52000000E-02   1.63125279E-07
  -2.51499992E-02   1.68930910E-07
  -2.51000002E-02   2.17232937E-07
  -2.50499994E-02   3.13622621E-07
  -2.50000004E-02   4.43957646E-07
  -2.49499995E-02   5.80217659E-07
  -2.49000005E-02   6.92673268E-07
  -2.48499997E-02   7.63091123E-07
  -2.48000007E-02   7.93116612E-07
  -2.47499999E-02   8.03990361E-07
  -2.47000009E-02   8.27531267E-07
  -2.46500000E-02   8.92208334E-07
  -2.45999992E-02   1.01039404E-06
  -2.45500002E-02   1.17250181E-06
  -2.44999994E-02   1.35076539E-06
  -2.44500004E-02   1.51118422E-06
  -2.43999995E-02   1.62849278E-06
  -2.43500005E-02   1.69755367E-06
  -2.42999997E-02   1.73603223E-06
  -2.42500007E-02   1.77698325E-06
  -2.41999999E-02   1.85444298E-06
  -2.41500009E-02   1.98829594E-06
  -2.41000000E-02   2.17513707E-06
  -2.40499992E-02   2.38931239E-06
  -2.40000002E-02   2.59387502E-06
  -2.39499994E-02   2.75677439E-06
  -2.39000004E-02   2.86518366E-06
  -2.38499995E-02   2.93155199E-06
  -2.38000005E-02   2.98853456E-06
  -2.37499997E-02   3.07484606E-06
  -2.37000007E-02   3.21814991E-06
  -2.36499999E-02   3.42253907E-06
  -2.36000009E-02   3.66625409E-06
  -2.35500000E-02   3.91083631E-06
  -2.34999992E-02   4.11786368E-06
  -2.34500002E-02   4.26596580E-06
  -2.33999994E-02   4.36057235E-06
  -2.33500004E-02   4.43193403E-06
  -2.32999995E-02   4.52210725E-06
  -2.32500006E-02   4.66647953E-06
  -2.31999997E-02   4.87795569E-06
  -2.31500007E-02   5.14084923E-06
  -2.30999999E-02   5.41735699E-06
  -2.30500009E-02   5.66395465E-06
  -2.30000000E-02   5.85057614E-06
  -2.29499992E-02   5.97413373E-06
  -2.29000002E-02   6.06029926E-06
  -2.28499994E-02   6.15256704E-06
  -2.28000004E-02   6.29327133E-06
  -2.27499995E-02   6.50482070E-06
  -2.27000006E-02   6.77949174E-06
  -2.26499997E-02   7.08242396E-06
  -2.26000007E-02   7.36666289E-06
  -2.25499999E-02   7.59378099E-06
  -2.25000009E-02   7.75100125E-06
  -2.24500000E-02   7.85720658E-06
  -2.23999992E-02   7.95502638E-06
  -2.23500002E-02   8.09232188E-06
  -2.22999994E-02   8.30113459E-06
  -2.22500004E-02   8.58335352E-06
  -2.21999995E-02   8.90954925E-06
  -2.21500006E-02   9.23167499E-06
  -2.20999997E-02   9.50412050E-06
  -2.20500007E-02   9.70399014E-06
  -2.19999999E-02   9.84159578E-06
  -2.19500009E-02   9.95636856E-06
  -2.19000001E-02   1.00998714E-05
  -2.18499992E-02   1.03132797E-05
  -2.18000002E-02   1.06092011E-05
  -2.17499994E-02   1.09658786E-05
  -2.17000004E-02   1.13365140E-05
  -2.16499995E-02   1.16697738E-05
  -2.16000006E-02   1.19324995E-05
  -2.15499997E-02   1.21246212E-05
  -2.15000007E-02   1.22797010E-05
  -2.14499999E-02   1.24506314E-05
  -2.14000009E-02   1.26866616E-05
  -2.13500001E-02   1.30118206E-05
  -2.12999992E-02   1.34142274E-05
  -2.12500002E-02   1.38511632E-05
  -2.11999994E-02   1.42677427E-05
  -2.11500004E-02   1.46211614E-05
  -2.10999995E-02   1.48998088E-05
  -2.10500006E-02   1.51288496E-05
  -2.09999997E-02   1.53597048E-05
  -2.09500007E-02   1.56478072E-05
  -2.08999999E-02   1.60285017E-05
  -2.08500009E-02   1.65015445E-05
  -2.08000001E-02   1.70311177E-05
  -2.07499992E-02   1.75614841E-05
  -2.07000002E-02   1.80415027E-05
  -2.06499994E-02   1.84473392E-05
  -2.06000004E-02   1.87933256E-05
  -2.05499995E-02   1.91261370E-05
  -2.05000006E-02   1.95046741E-05
  -2.04499997E-02   1.99745209E-05
  -2.04000007E-02   2.05480665E-05
  -2.03499999E-02   2.11990373E-05
  -2.03000009E-02   2.18739733E-05
  -2.02500001E-02   2.25157164E-05
  -2.01999992E-02   2.30887272E-05
  -2.01500002E-02   2.35949974E-05
  -2.00999994E-02   2.40736099E-05
  -2.00500004E-02   2.45840929E-05
  -1.99999996E-02   2.51806432E-05
  -1.99500006E-02   2.58885775E-05
  -1.98999997E-02   2.66932802E-05
  -1.98500007E-02   2.75465609E-05
  -1.97999999E-02   2.83878453E-05
  -1.97500009E-02   2.91707893E-05
  -1.97000001E-02   2.98838331E-05
  -1.96499992E-02   3.05556678E-05
  -1.96000002E-02   3.12430857E-05
  -1.95499994E-02   3.20065192E-05
  -1.95000004E-02   3.28838214E-05
  -1.94499996E-02   3.38738573E-05
  -1.94000006E-02   3.49369730E-05
  -1.93499997E-02   3.60123668E-05
  -1.93000007E-02   3.70447815E-05
  -1.92499999E-02   3.80088895E-05
  -1.92000009E-02   3.89207526E-05
  -1.91500001E-02   3.98311859E-05
  -1.90999992E-02   4.08039778E-05
  -1.90500002E-02   4.18884229E-05
  -1.89999994E-02   4.30979526E-05
  -1.89500004E-02   4.44043799E-05
  -1.88999996E-02   4.57502792E-05
  -1.88500006E-02   4.70741616E-05
  -1.87999997E-02   4.83374351E-05
  -1.87500007E-02   4.95415479E-05
  -1.86999999E-02   5.07276854E-05
  -1.86500009E-02   5.19592322E-05
  -1.86000001E-02   5.32944941E-05
  -1.85499992E-02   5.47614982E-05
  -1.85000002E-02   5.63460344E-05
  -1.84499994E-02   5.79979787E-05
  -1.84000004E-02   5.96531972E-05
  -1.83499996E-02   6.12616932E-05
  -1.83000006E-02   6.28097769E-05
  -1.82499997E-02   6.43263629E-05
  -1.82000007E-02   6.58708450E-05
  -1.81499999E-02   6.75076808E-05
  -1.81000009E-02   6.92787289E-05
  -1.80500001E-02   7.11852772E-05
  -1.79999992E-02   7.31877371E-05
  -1.79500002E-02   7.52230990E-05
  -1.78999994E-02   7.72325366E-05
  -1.78500004E-02   7.91874190E-05
  -1.77999996E-02   8.11021309E-05
  -1.77500006E-02   8.30283534E-05
  -1.76999997E-02   8.50332144E-05
  -1.76500008E-02   8.71705997E-05
  -1.75999999E-02   8.94579425E-05
  -1.75500009E-02   9.18690857E-05
  -1.75000001E-02   9.43460618E-05
  -1.74499992E-02   9.68245295E-05
  -1.74000002E-02   9.92621499E-05
  -1.73499994E-02   1.01657359E-04
  -1.73000004E-02   1.04050785E-04
  -1.72499996E-02   1.06508436E-04
  -1.72000006E-02   1.09093744E-04
  -1.71499997E-02   1.11840600E-04
  -1.71000008E-02   1.14739181E-04
  -1.70499999E-02   1.17740543E-04
  -1.70000009E-02   1.20778372E-04
  -1.69500001E-02   1.23798280E-04
  -1.68999992E-02   1.26781990E-04
  -1.68500002E-02   1.29756125E-04
  -1.67999994E-02   1.32781293E-04
  -1.67500004E-02   1.35926690E-04
  -1.66999996E-02   1.39240699E-04
  -1.66500006E-02   1.42730758E-04
  -1.65999997E-02   1.46360660E-04
  -1.65500008E-02   1.50066800E-04
  -1.64999999E-02   1.53786226E-04
  -1.64500009E-02   1.57484479E-04
  -1.64000001E-02   1.61171643E-04
  -1.63499992E-02   1.64898753E-04
  -1.63000003E-02   1.68736573E-04
  -1.62499994E-02   1.72745946E-04
  -1.62000004E-02   1.76952046E-04
  -1.61499996E-02   1.81334515E-04
  -1.61000006E-02   1.85836747E-04
  -1.60499997E-02   1.90390492E-04
  -1.60000008E-02   1.94946377E-04
  -1.59499999E-02   1.99496644E-04
  -1.59000009E-02   2.04079086E-04
  -1.58500001E-02   2.08761616E-04
  -1.57999992E-02   2.13613894E-04
  -1.57500003E-02   2.18678208E-04
  -1.56999994E-02   2.23951793E-04
  -1.56500004E-02   2.29388344E-04
  -1.55999996E-02   2.34918407E-04
  -1.55499997E-02   2.40480585E-04
  -1.54999997E-02   2.46049021E-04
  -1.54499998E-02   2.51645077E-04
  -1.53999999E-02   2.57329666E-04
  -1.53500000E-02   2.63178168E-04
  -1.53000001E-02   2.69248325E-04
  -1.52500002E-02   2.75556493E-04
  -1.52000003E-02   2.82070308E-04
  -1.51500003E-02   2.88723182E-04
  -1.51000004E-02   2.95444363E-04
  -1.50499996E-02   3.02189990E-04
  -1.49999997E-02   3.08963266E-04
  -1.49499997E-02   3.15814308E-04
  -1.48999998E-02   3.22819251E-04
  -1.48499999E-02   3.30048701E-04
  -1.48000000E-02   3.37537902E-04
  -1.47500001E-02   3.45271605E-04
  -1.47000002E-02   3.53191455E-04
  -1.46500003E-02   3.61221144E-04
  -1.46000003E-02   3.69301095E-04
  -1.45500004E-02   3.77414777E-04
  -1.44999996E-02   3.85597436E-04
  -1.44499997E-02   3.93922412E-04
  -1.43999998E-02   4.02469508E-04
  -1.43499998E-02   4.11291287E-04
  -1.42999999E-02   4.20390745E-04
  -1.42500000E-02   4.29720414E-04
  -1.42000001E-02   4.39204858E-04
  -1.41500002E-02   4.48773440E-04
  -1.41000003E-02   4.58390394E-04
  -1.40500003E-02   4.68073064E-04
  -1.40000004E-02   4.77885565E-04
  -1.39499996E-02   4.87911922E-04
  -1.38999997E-02   4.98221256E-04
  -1.38499998E-02   5.08837111E-04
  -1.37999998E-02   5.19728230E-04
  -1.37499999E-02   5.30821737E-04
  -1.37000000E-02   5.42036549E-04
  -1.36500001E-02   5.53319405E-04
  -1.36000002E-02   5.64668502E-04
  -1.35500003E-02   5.76136576E-04
  -1.35000004E-02   5.87809249E-04
  -1.34500004E-02   5.99768769E-04
  -1.33999996E-02   6.12058793E-04
  -1.33499997E-02   6.24665001E-04
  -1.32999998E-02   6.37522782E-04
  -1.32499998E-02   6.50545757E-04
  -1.31999999E-02   6.63665007E-04
  -1.31500000E-02   6.76859636E-04
  -1.31000001E-02   6.90167304E-04
  -1.30500002E-02   7.03670259E-04
  -1.30000003E-02   7.17460469E-04
  -1.29500004E-02   7.31599575E-04
  -1.29000004E-02   7.46093399E-04
  -1.28499996E-02   7.60888972E-04
  -1.27999997E-02   7.75899447E-04
  -1.27499998E-02   7.91042752E-04
  -1.26999998E-02   8.06278316E-04
  -1.26499999E-02   8.21625988E-04
  -1.26000000E-02   8.37160740E-04
  -1.25500001E-02   8.52980709E-04
  -1.25000002E-02   8.69162672E-04
  -1.24500003E-02   8.85730842E-04
  -1.24000004E-02   9.02647153E-04
  -1.23500004E-02   9.19829123E-04
  -1.22999996E-02   9.37188917E-04
  -1.22499997E-02   9.54669726E-04
  -1.21999998E-02   9.72271780E-04
  -1.21499998E-02   9.90059110E-04
  -1.20999999E-02   1.00813131E-03
  -1.20500000E-02   1.02657778E-03
  -1.20000001E-02   1.04544125E-03
  -1.19500002E-02   1.06469938E-03
  -1.19000003E-02   1.08427601E-03
  -1.18500004E-02   1.10407406E-03
  -1.18000004E-02   1.12401892E-03
  -1.17499996E-02   1.14409393E-03
  -1.16999997E-02   1.16434705E-03
  -1.16499998E-02   1.18487421E-03
  -1.15999999E-02   1.20578019E-03
  -1.15499999E-02   1.22712902E-03
  -1.15000000E-02   1.24891754E-03
  -1.14500001E-02   1.27108116E-03
  -1.14000002E-02   1.29352044E-03
  -1.13500003E-02   1.31614716E-03
  -1.13000004E-02   1.33892591E-03
  -1.12500004E-02   1.36188546E-03
  -1.11999996E-02   1.38511159E-03
  -1.11499997E-02   1.40871236E-03
  -1.10999998E-02   1.43276446E-03
  -1.10499999E-02   1.45728479E-03
  -1.09999999E-02   1.48222304E-03
  -1.09500000E-02   1.50748051E-03
  -1.09000001E-02   1.53295335E-03
  -1.08500002E-02   1.55858358E-03
  -1.08000003E-02   1.58438855E-03
  -1.07500004E-02   1.61044847E-03
  -1.07000005E-02   1.63687347E-03
  -1.06499996E-02   1.66376133E-03
  -1.05999997E-02   1.69114978E-03
  -1.05499998E-02   1.71899993E-03
  -1.04999999E-02   1.74721528E-03
  -1.04499999E-02   1.77568512E-03
  -1.04000000E-02   1.80433469E-03
  -1.03500001E-02   1.83315657E-03
  -1.03000002E-02   1.86221709E-03
  -1.02500003E-02   1.89162313E-03
  -1.02000004E-02   1.92147482E-03
  -1.01500005E-02   1.95182709E-03
  -1.00999996E-02   1.98266213E-03
  -1.00499997E-02   2.01389124E-03
  -9.99999978E-03   2.04540370E-03
  -9.94999986E-03   2.07710965E-03
  -9.89999995E-03   2.10897508E-03
  -9.85000003E-03   2.14104471E-03
  -9.80000012E-03   2.17342121E-03
  -9.75000020E-03   2.20622122E-03
  -9.70000029E-03   2.23951694E-03
  -9.65000037E-03   2.27330741E-03
  -9.60000046E-03   2.30751676E-03
  -9.54999961E-03   2.34202878E-03
  -9.49999969E-03   2.37673917E-03
  -9.44999978E-03   2.41160044E-03
  -9.39999986E-03   2.44664331E-03
  -9.34999995E-03   2.48195953E-03
  -9.30000003E-03   2.51766341E-03
  -9.25000012E-03   2.55384506E-03
  -9.20000020E-03   2.59052869E-03
  -9.15000029E-03   2.62764259E-03
  -9.10000037E-03   2.66506104E-03
  -9.05000046E-03   2.70266249E-03
  -8.99999961E-03   2.74037104E-03
  -8.94999970E-03   2.77819810E-03
  -8.89999978E-03   2.81622843E-03
  -8.84999987E-03   2.85457936E-03
  -8.79999995E-03   2.89335591E-03
  -8.75000004E-03   2.93260091E-03
  -8.70000012E-03   2.97226780E-03
  -8.65000021E-03   3.01223365E-03
  -8.60000029E-03   3.05236131E-03
  -8.55000038E-03   3.09256511E-03
  -8.50000046E-03   3.13282991E-03
  -8.44999962E-03   3.17323231E-03
  -8.39999970E-03   3.21389316E-03
  -8.34999979E-03   3.25492001E-03
  -8.29999987E-03   3.29637271E-03
  -8.24999996E-03   3.33821308E-03
  -8.20000004E-03   3.38032865E-03
  -8.15000013E-03   3.42258578E-03
  -8.10000021E-03   3.46486643E-03
  -8.05000030E-03   3.50713404E-03
  -8.00000038E-03   3.54944263E-03
  -7.95000046E-03   3.59189021E-03
  -7.89999962E-03   3.63460253E-03
  -7.84999970E-03   3.67765408E-03
  -7.79999979E-03   3.72102647E-03
  -7.74999987E-03   3.76462634E-03
  -7.69999996E-03   3.80830164E-03
  -7.65000004E-03   3.85192479E-03
  -7.60000013E-03   3.89543362E-03
  -7.55000021E-03   3.93884862E-03
  -7.49999983E-03   3.98227386E-03
  -7.44999992E-03   4.02584253E-03
  -7.40000000E-03   4.06965567E-03
  -7.35000009E-03   4.11371654E-03
  -7.30000017E-03   4.15794319E-03
  -7.24999979E-03   4.20218753E-03
  -7.19999988E-03   4.24628565E-03
  -7.14999996E-03   4.29014303E-03
  -7.10000005E-03   4.33376338E-03
  -7.05000013E-03   4.37723938E-03
  -7.00000022E-03   4.42069676E-03
  -6.94999984E-03   4.46425099E-03
  -6.89999992E-03   4.50795563E-03
  -6.85000001E-03   4.55172407E-03
  -6.80000009E-03   4.59539518E-03
  -6.75000018E-03   4.63880505E-03
  -6.69999979E-03   4.68182238E-03
  -6.64999988E-03   4.72441502E-03
  -6.59999996E-03   4.76666074E-03
  -6.55000005E-03   4.80869226E-03
  -6.50000013E-03   4.85063158E-03
  -6.45000022E-03   4.89254156E-03
  -6.39999984E-03   4.93437983E-03
  -6.34999992E-03   4.97599645E-03
  -6.30000001E-03   5.01719629E-03
  -6.25000009E-03   5.05782198E-03
  -6.20000018E-03   5.09781437E-03
  -6.14999980E-03   5.13723027E-03
  -6.09999988E-03   5.17621078E-03
  -6.04999997E-03   5.21491095E-03
  -6.00000005E-03   5.25340112E-03
  -5.95000014E-03   5.29164029E-03
  -5.90000022E-03   5.32948971E-03
  -5.84999984E-03   5.36674215E-03
  -5.79999993E-03   5.40322205E-03
  -5.75000001E-03   5.43883629E-03
  -5.70000010E-03   5.47359698E-03
  -5.65000018E-03   5.50762238E-03
  -5.59999980E-03   5.54109225E-03
  -5.54999989E-03   5.57411416E-03
  -5.49999997E-03   5.60666807E-03
  -5.45000006E-03   5.63862082E-03
  -5.40000014E-03   5.66975400E-03
  -5.35000023E-03   5.69985947E-03
  -5.29999984E-03   5.72881056E-03
  -5.24999993E-03   5.75660542E-03
  -5.20000001E-03   5.78336045E-03
  -5.15000010E-03   5.80924843E-03
  -5.10000018E-03   5.83441136E-03
  -5.04999980E-03   5.85885812E-03
  -4.99999989E-03   5.88246668E-03
  -4.94999997E-03   5.90502378E-03
  -4.90000006E-03   5.92628494E-03
  -4.85000014E-03   5.94608858E-03
  -4.80000023E-03   5.96439419E-03
  -4.74999985E-03   5.98132052E-03
  -4.69999993E-03   5.99705335E-03
  -4.65000002E-03   6.01171749E-03
  -4.60000010E-03   6.02533994E-03
  -4.55000019E-03   6.03782060E-03
  -4.49999981E-03   6.04892988E-03
  -4.44999989E-03   6.05841679E-03
  -4.39999998E-03   6.06611511E-03
  -4.35000006E-03   6.07196009E-03
  -4.30000015E-03   6.07604114E-03
  -4.25000023E-03   6.07853057E-03
  -4.19999985E-03   6.07956806E-03
  -4.14999994E-03   6.07921975E-03
  -4.10000002E-03   6.07740879E-03
  -4.05000011E-03   6.07390655E-03
  -4.00000019E-03   6.06842851E-03
  -3.94999981E-03   6.06074696E-03
  -3.89999989E-03   6.05078787E-03
  -3.84999998E-03   6.03861408E-03
  -3.80000006E-03   6.02440070E-03
  -3.74999992E-03   6.00835588E-03
  -3.70000000E-03   5.99056343E-03
  -3.65000009E-03   5.97096002E-03
  -3.59999994E-03   5.94931887E-03
  -3.55000002E-03   5.92533918E-03
  -3.50000011E-03   5.89875784E-03
  -3.44999996E-03   5.86943049E-03
  -3.40000005E-03   5.83740417E-03
  -3.34999990E-03   5.80286467E-03
  -3.29999998E-03   5.76600991E-03
  -3.25000007E-03   5.72695024E-03
  -3.19999992E-03   5.68565400E-03
  -3.15000000E-03   5.64192608E-03
  -3.10000009E-03   5.59545681E-03
  -3.04999994E-03   5.54594165E-03
  -3.00000003E-03   5.49319759E-03
  -2.95000011E-03   5.43722603E-03
  -2.89999996E-03   5.37819881E-03
  -2.85000005E-03   5.31636970E-03
  -2.79999990E-03   5.25189843E-03
  -2.74999999E-03   5.18476218E-03
  -2.70000007E-03   5.11478167E-03
  -2.64999992E-03   5.04163792E-03
  -2.60000001E-03   4.96498076E-03
  -2.55000009E-03   4.88456944E-03
  -2.49999994E-03   4.80035925E-03
  -2.45000003E-03   4.71252436E-03
  -2.40000011E-03   4.62130830E-03
  -2.34999997E-03   4.52692714E-03
  -2.30000005E-03   4.42947121E-03
  -2.24999990E-03   4.32878453E-03
  -2.19999999E-03   4.22449736E-03
  -2.15000007E-03   4.11619712E-03
  -2.09999993E-03   4.00359556E-03
  -2.05000001E-03   3.88660352E-03
  -2.00000009E-03   3.76536348E-03
  -1.94999995E-03   3.64013365E-03
  -1.90000003E-03   3.51116387E-03
  -1.85000000E-03   3.37858056E-03
  -1.79999997E-03   3.24227801E-03
  -1.75000005E-03   3.10196960E-03
  -1.70000002E-03   2.95719411E-03
  -1.64999999E-03   2.80756410E-03
  -1.59999996E-03   2.65296642E-03
  -1.55000004E-03   2.49349279E-03
  -1.50000001E-03   2.32940447E-03
  -1.44999998E-03   2.16100016E-03
  -1.39999995E-03   1.98848429E-03
  -1.35000004E-03   1.81178853E-03
  -1.30000000E-03   1.63060217E-03
  -1.24999997E-03   1.44450890E-03
  -1.20000006E-03   1.25310034E-03
  -1.15000003E-03   1.05615007E-03
  -1.09999999E-03   8.53681180E-04
  -1.04999996E-03   6.45929249E-04
  -1.00000005E-03   4.33224748E-04
  -9.50000016E-04   2.15827531E-04
  -8.99999985E-04  -6.22453172E-06
  -8.50000011E-04  -2.33180050E-04
  -7.99999980E-04  -4.65492980E-04
  -7.50000007E-04  -7.03662576E-04
  -6.99999975E-04  -9.47983004E-04
  -6.50000002E-04  -1.19844510E-03
  -6.00000028E-04  -1.45482877E-03
  -5.49999997E-04  -1.71677861E-03
  -5.00000024E-04  -1.98396714E-03
  -4.49999992E-04  -2.25628540E-03
  -3.99999990E-04  -2.53392826E-03
  -3.49999988E-04  -2.81730806E-03
  -3.00000014E-04  -3.10690724E-03
  -2.50000012E-04  -3.40313464E-03
  -1.99999995E-04  -3.70614114E-03
  -1.50000007E-04  -4.01572138E-03
  -9.99999975E-05  -4.33145091E-03
  -4.99999987E-05  -4.65293555E-03
   0.00000000      -4.98001371E-03
   4.99999987E-05  -5.31278085E-03
   9.99999975E-05  -5.65164117E-03
   1.50000007E-04  -5.99713484E-03
   1.99999995E-04  -6.34969538E-03
   2.50000012E-04  -6.70955796E-03
   3.00000014E-04  -7.07658054E-03
   3.49999988E-04  -7.45037291E-03
   3.99999990E-04  -7.83051271E-03
   4.49999992E-04  -8.21669959E-03
   5.00000024E-04  -8.60890374E-03
   5.49999997E-04  -9.00745578E-03
   6.00000028E-04  -9.41293221E-03
   6.50000002E-04  -9.82584432E-03
   6.99999975E-04  -1.02464678E-02
   7.50000007E-04  -1.06747719E-02
   7.99999980E-04  -1.11103654E-02
   8.50000011E-04  -1.15527334E-02
   8.99999985E-04  -1.20014772E-02
   9.50000016E-04  -1.24564972E-02
   1.00000005E-03  -1.29181147E-02
   1.04999996E-03  -1.33868931E-02
   1.09999999E-03  -1.38633708E-02
   1.15000003E-03  -1.43478839E-02
   1.20000006E-03  -1.48404213E-02
   1.24999997E-03  -1.53406644E-02
   1.30000000E-03  -1.58481412E-02
   1.35000004E-03  -1.63623895E-02
   1.39999995E-03  -1.68831907E-02
   1.44999998E-03  -1.74106862E-02
   1.50000001E-03  -1.79453529E-02
   1.55000004E-03  -1.84877701E-02
   1.59999996E-03  -1.90383811E-02
   1.64999999E-03  -1.95973329E-02
   1.70000002E-03  -2.01643948E-02
   1.75000005E-03  -2.07390431E-02
   1.79999997E-03  -2.13206969E-02
   1.85000000E-03  -2.19090134E-02
   1.90000003E-03  -2.25040279E-02
   1.94999995E-03  -2.31061243E-02
   2.00000009E-03  -2.37159096E-02
   2.05000001E-03  -2.43339092E-02
   2.09999993E-03  -2.49603447E-02
   2.15000007E-03  -2.55950410E-02
   2.19999999E-03  -2.62375176E-02
   2.24999990E-03  -2.68871691E-02
   2.30000005E-03  -2.75435150E-02
   2.34999997E-03  -2.82064490E-02
   2.40000011E-03  -2.88762562E-02
   2.45000003E-03  -2.95534916E-02
   2.49999994E-03  -3.02387550E-02
   2.55000009E-03  -3.09324004E-02
   2.60000001E-03  -3.16343606E-02
   2.64999992E-03  -3.23441774E-02
   2.70000007E-03  -3.30612101E-02
   2.74999999E-03  -3.37848701E-02
   2.79999990E-03  -3.45148705E-02