  -3.99999991E-02   0.00000000    
  -3.99499983E-02   0.00000000    
  -3.99000011E-02   0.00000000    
  -3.98500003E-02  -1.25585683E-18
  -3.97999994E-02  -6.99990344E-18
  -3.97499986E-02  -2.00116662E-17
  -3.97000015E-02  -3.60578088E-17
  -3.96500006E-02  -3.64522912E-17
  -3.95999998E-02   1.32014767E-17
  -3.95499989E-02   1.52210193E-16
  -3.95000018E-02   4.03597912E-16
  -3.94500010E-02   7.53437130E-16
  -3.94000001E-02   1.14506509E-15
  -3.93499993E-02   1.49637518E-15
  -3.92999984E-02   1.73580694E-15
  -3.92500013E-02   1.84112437E-15
  -3.92000005E-02   1.86079628E-15
  -3.91499996E-02   1.90305539E-15
  -3.90999988E-02   2.09124706E-15
  -3.90500017E-02   2.50151403E-15
  -3.90000008E-02   3.11223961E-15
  -3.89500000E-02   3.79462841E-15
  -3.88999991E-02   4.35609478E-15
  -3.88499983E-02   4.61985025E-15
  -3.88000011E-02   4.50164342E-15
  -3.87500003E-02   4.04283066E-15
  -3.86999995E-02   3.37990752E-15
  -3.86499986E-02   2.66250280E-15
  -3.86000015E-02   1.95778367E-15
  -3.85500006E-02   1.18749562E-15
  -3.84999998E-02   1.31307445E-16
  -3.84499989E-02  -1.49906070E-15
  -3.84000018E-02  -3.94566582E-15
  -3.83500010E-02  -7.30548722E-15
  -3.83000001E-02  -1.14998038E-14
  -3.82499993E-02  -1.63310087E-14
  -3.81999984E-02  -2.15974513E-14
  -3.81500013E-02  -2.72031102E-14
  -3.81000005E-02  -3.32020720E-14
  -3.80499996E-02  -3.97558065E-14
  -3.79999988E-02  -4.70298747E-14
  -3.79500017E-02  -5.50879329E-14
  -3.79000008E-02  -6.38407580E-14
  -3.78500000E-02  -7.30790076E-14
  -3.77999991E-02  -8.25744095E-14
  -3.77499983E-02  -9.21934716E-14
  -3.77000012E-02  -1.01952328E-13
  -3.76500003E-02  -1.11966676E-13
  -3.75999995E-02  -1.22312032E-13
  -3.75499986E-02  -1.32873801E-13
  -3.75000015E-02  -1.43288390E-13
  -3.74500006E-02  -1.53032128E-13
  -3.73999998E-02  -1.61624999E-13
  -3.73499990E-02  -1.68836502E-13
  -3.73000018E-02  -1.74764595E-13
  -3.72500010E-02  -1.79716674E-13
  -3.72000001E-02  -1.83927783E-13
  -3.71499993E-02  -1.87250551E-13
  -3.70999984E-02  -1.88995046E-13
  -3.70500013E-02  -1.88052902E-13
  -3.70000005E-02  -1.83310927E-13
  -3.69499996E-02  -1.74192027E-13
  -3.68999988E-02  -1.61043067E-13
  -3.68500017E-02  -1.45106583E-13
  -3.68000008E-02  -1.27993536E-13
  -3.67500000E-02  -1.10842610E-13
  -3.66999991E-02  -9.35664645E-14
  -3.66499983E-02  -7.46123947E-14
  -3.66000012E-02  -5.14643124E-14
  -3.65500003E-02  -2.17641084E-14
  -3.64999995E-02   1.54079969E-14
  -3.64499986E-02   5.87141894E-14
  -3.64000015E-02   1.04699473E-13
  -3.63500006E-02   1.48997866E-13
  -3.62999998E-02   1.88189918E-13
  -3.62499990E-02   2.21490185E-13
  -3.62000018E-02   2.51386965E-13
  -3.61500010E-02   2.82747431E-13
  -3.61000001E-02   3.20608422E-13
  -3.60499993E-02   3.67569419E-13
  -3.59999985E-02   4.22025858E-13
  -3.59500013E-02   4.78220274E-13
  -3.59000005E-02   5.28317516E-13
  -3.58499996E-02   5.65747102E-13
  -3.57999988E-02   5.88345778E-13
  -3.57500017E-02   5.99745026E-13
  -3.57000008E-02   6.08100918E-13
  -3.56500000E-02   6.22451851E-13
  -3.55999991E-02   6.48197099E-13
  -3.55499983E-02   6.83820676E-13
  -3.55000012E-02   7.20634761E-13
  -3.54500003E-02   7.46040762E-13
  -3.53999995E-02   7.49128353E-13
  -3.53499986E-02   7.26155410E-13
  -3.53000015E-02   6.83237538E-13
  -3.52500007E-02   6.34635356E-13
  -3.51999998E-02   5.96972179E-13
  -3.51499990E-02   5.81703631E-13
  -3.51000018E-02   5.89254448E-13
  -3.50500010E-02   6.07818537E-13
  -3.50000001E-02   6.17905141E-13
  -3.49499993E-02   6.01064662E-13
  -3.48999985E-02   5.49040793E-13
  -3.48500013E-02   4.68992412E-13
  -3.48000005E-02   3.81879993E-13
  -3.47499996E-02   3.14105567E-13
  -3.46999988E-02   2.85734625E-13
  -3.46500017E-02   3.00569519E-13
  -3.46000008E-02   3.42956918E-13
  -3.45500000E-02   3.83474421E-13
  -3.44999991E-02   3.91642610E-13
  -3.44499983E-02   3.50314856E-13
  -3.44000012E-02   2.65105402E-13
  -3.43500003E-02   1.63948499E-13
  -3.42999995E-02   8.61026338E-14
  -3.42499986E-02   6.48498453E-14
  -3.42000015E-02   1.11491227E-13
  -3.41500007E-02   2.08270372E-13
  -3.40999998E-02   3.14268576E-13
  -3.40499990E-02   3.82535231E-13
  -3.40000018E-02   3.81299565E-13
  -3.39500010E-02   3.09641174E-13
  -3.39000002E-02   1.99849292E-13
  -3.38499993E-02   1.04335906E-13
  -3.37999985E-02   7.20465219E-14
  -3.37500013E-02   1.24625177E-13
  -3.37000005E-02   2.43505303E-13
  -3.36499996E-02   3.74830917E-13
  -3.35999988E-02   4.51266953E-13
  -3.35500017E-02   4.21757762E-13
  -3.35000008E-02   2.75906414E-13
  -3.34500000E-02   5.12035245E-14
  -3.33999991E-02  -1.81491473E-13
  -3.33499983E-02  -3.48983375E-13
  -3.33000012E-02  -4.09992488E-13
  -3.32500003E-02  -3.76904101E-13
  -3.31999995E-02  -3.14023303E-13
  -3.31499986E-02  -3.11513646E-13
  -3.31000015E-02  -4.45455006E-13
  -3.30500007E-02  -7.41629794E-13
  -3.29999998E-02  -1.16010435E-12
  -3.29499990E-02  -1.60914847E-12
  -3.29000019E-02  -1.98396421E-12
  -3.28500010E-02  -2.21388316E-12
  -3.28000002E-02  -2.29671620E-12
  -3.27499993E-02  -2.30354299E-12
  -3.26999985E-02  -2.34986509E-12
  -3.26500013E-02  -2.54434017E-12
  -3.26000005E-02  -2.93735392E-12
  -3.25499997E-02  -3.49312788E-12
  -3.24999988E-02  -4.09962689E-12
  -3.24500017E-02  -4.61396936E-12
  -3.24000008E-02  -4.92454124E-12
  -3.23500000E-02  -5.00222433E-12
  -3.22999991E-02  -4.91657453E-12
  -3.22499983E-02  -4.80756060E-12
  -3.22000012E-02  -4.82340166E-12
  -3.21500003E-02  -5.05122983E-12
  -3.20999995E-02  -5.47206030E-12
  -3.20499986E-02  -5.96209280E-12
  -3.20000015E-02  -6.34225832E-12
  -3.19500007E-02  -6.45586969E-12
  -3.18999998E-02  -6.24026221E-12
  -3.18499990E-02  -5.75926373E-12
  -3.18000019E-02  -5.17955210E-12
  -3.17500010E-02  -4.69881729E-12
  -3.17000002E-02  -4.45613338E-12
  -3.16499993E-02  -4.46467776E-12
  -3.15999985E-02  -4.59872852E-12
  -3.15500014E-02  -4.64362793E-12
  -3.15000005E-02  -4.38902126E-12
  -3.14499997E-02  -3.72490146E-12
  -3.13999988E-02  -2.69672847E-12
  -3.13500017E-02  -1.49248051E-12
  -3.13000008E-02  -3.64277510E-13
  -3.12500000E-02   4.82785144E-13
  -3.11999992E-02   9.85441654E-13
  -3.11500002E-02   1.25669093E-12
  -3.10999993E-02   1.54132588E-12
  -3.10500003E-02   2.10911366E-12
  -3.09999995E-02   3.13137255E-12
  -3.09500005E-02   4.59635585E-12
  -3.08999997E-02   6.30373011E-12
  -3.08500007E-02   7.94427198E-12
  -3.07999998E-02   9.23243339E-12
  -3.07500008E-02   1.00339693E-11
  -3.07000000E-02   1.04305531E-11
  -3.06499992E-02   1.06894025E-11
  -3.06000002E-02   1.11476514E-11
  -3.05499993E-02   1.20602911E-11
  -3.05000003E-02   1.34790313E-11
  -3.04499995E-02   1.52182086E-11
  -3.04000005E-02   1.69267534E-11
  -3.03499997E-02   1.82379580E-11
  -3.03000007E-02   1.89323782E-11
  -3.02499998E-02   1.90406805E-11
  -3.02000009E-02   1.88374854E-11
  -3.01500000E-02   1.87246624E-11
  -3.00999992E-02   1.90525356E-11
  -3.00500002E-02   1.99574125E-11
  -2.99999993E-02   2.12895396E-11
  -2.99500003E-02   2.26675224E-11
  -2.98999995E-02   2.36395330E-11
  -2.98500005E-02   2.38826129E-11
  -2.97999997E-02   2.33516331E-11
  -2.97500007E-02   2.23088128E-11
  -2.96999998E-02   2.12160671E-11
  -2.96500009E-02   2.05336234E-11
  -2.96000000E-02   2.05123002E-11
  -2.95499992E-02   2.10728397E-11
  -2.95000002E-02   2.18298869E-11
  -2.94499993E-02   2.22549860E-11
  -2.94000003E-02   2.19101386E-11
  -2.93499995E-02   2.06492289E-11
  -2.93000005E-02   1.86954705E-11
  -2.92499997E-02   1.65555833E-11
  -2.92000007E-02   1.48035282E-11
  -2.91499998E-02   1.38264513E-11
  -2.91000009E-02   1.36456966E-11
  -2.90500000E-02   1.38959443E-11
  -2.89999992E-02   1.39773193E-11
  -2.89500002E-02   1.33180958E-11
  -2.88999993E-02   1.16338267E-11
  -2.88500004E-02   9.06651143E-12
  -2.87999995E-02   6.13742390E-12
  -2.87500005E-02   3.52869079E-12
  -2.86999997E-02   1.78601578E-12
  -2.86500007E-02   1.07325260E-12
  -2.85999998E-02   1.09043666E-12
  -2.85500009E-02   1.19717701E-12
  -2.85000000E-02   6.92536740E-13
  -2.84499992E-02  -8.69117495E-13
  -2.84000002E-02  -3.46673775E-12
  -2.83499993E-02  -6.60369025E-12
  -2.83000004E-02  -9.51164581E-12
  -2.82499995E-02  -1.14825129E-11
  -2.82000005E-02  -1.21837505E-11
  -2.81499997E-02  -1.18154184E-11
  -2.81000007E-02  -1.10339992E-11
  -2.80499998E-02  -1.06701072E-11
  -2.80000009E-02  -1.13603129E-11
  -2.79500000E-02  -1.32552060E-11
  -2.78999992E-02  -1.59364830E-11
  -2.78500002E-02  -1.85861864E-11
  -2.77999993E-02  -2.03398253E-11
  -2.77500004E-02  -2.06707030E-11
  -2.76999995E-02  -1.96345665E-11
  -2.76500005E-02  -1.78612385E-11
  -2.75999997E-02  -1.62898046E-11
  -2.75500007E-02  -1.57585143E-11
  -2.74999999E-02  -1.66286967E-11
  -2.74500009E-02  -1.86116868E-11
  -2.74000000E-02  -2.08818397E-11
  -2.73499992E-02  -2.24330988E-11
  -2.73000002E-02  -2.25267287E-11
  -2.72499993E-02  -2.10329532E-11
  -2.72000004E-02  -1.85109966E-11
  -2.71499995E-02  -1.59849096E-11
  -2.71000005E-02  -1.45067101E-11
  -2.70499997E-02  -1.46960950E-11
  -2.70000007E-02  -1.64610790E-11
  -2.69499999E-02  -1.90288618E-11
  -2.69000009E-02  -2.12809544E-11
  -2.68500000E-02  -2.22509927E-11
  -2.67999992E-02  -2.15673347E-11
  -2.67500002E-02  -1.96418853E-11
  -2.66999993E-02  -1.75146703E-11
  -2.66500004E-02  -1.64146509E-11
  -2.65999995E-02  -1.72254242E-11
  -2.65500005E-02  -2.00912342E-11
  -2.64999997E-02  -2.43421516E-11
  -2.64500007E-02  -2.87793261E-11
  -2.63999999E-02  -3.22016823E-11
  -2.63500009E-02  -3.39454610E-11
  -2.63000000E-02  -3.41965622E-11
  -2.62499992E-02  -3.39312363E-11
  -2.62000002E-02  -3.45030428E-11
  -2.61499994E-02  -3.70515077E-11
  -2.61000004E-02  -4.19913063E-11
  -2.60499995E-02  -4.88110351E-11
  -2.60000005E-02  -5.62775208E-11
  -2.59499997E-02  -6.29640159E-11
  -2.59000007E-02  -6.78735956E-11
  -2.58499999E-02  -7.08831813E-11
  -2.58000009E-02  -7.28065871E-11
  -2.57500000E-02  -7.50397244E-11
  -2.56999992E-02  -7.89372318E-11
  -2.56500002E-02  -8.51919854E-11
  -2.55999994E-02  -9.34925609E-11
  -2.55500004E-02  -1.02617935E-10
  -2.54999995E-02  -1.10935337E-10
  -2.54500005E-02  -1.17089033E-10
  -2.53999997E-02  -1.20578117E-10
  -2.53500007E-02  -1.21964536E-10
  -2.52999999E-02  -1.22611546E-10
  -2.52500009E-02  -1.24059485E-10
  -2.52000000E-02  -1.27308719E-10
  -2.51499992E-02  -1.32326178E-10
  -2.51000002E-02  -1.37998141E-10
  -2.50499994E-02  -1.42559478E-10
  -2.50000004E-02  -1.44316975E-10
  -2.49499995E-02  -1.42352241E-10
  -2.49000005E-02  -1.36891623E-10
  -2.48499997E-02  -1.29174060E-10
  -2.48000007E-02  -1.20865679E-10
  -2.47499999E-02  -1.13273717E-10
  -2.47000009E-02  -1.06703028E-10
  -2.46500000E-02  -1.00244930E-10
  -2.45999992E-02  -9.20968024E-11
  -2.45500002E-02  -8.02820727E-11
  -2.44999994E-02  -6.34583011E-11
  -2.44500004E-02  -4.14564286E-11
  -2.43999995E-02  -1.53103467E-11
  -2.43500005E-02   1.32459928E-11
  -2.42999997E-02   4.25982027E-11
  -2.42500007E-02   7.20310617E-11
  -2.41999999E-02   1.02122324E-10
  -2.41500009E-02   1.34570674E-10
  -2.41000000E-02   1.71524850E-10
  -2.40499992E-02   2.14705850E-10
  -2.40000002E-02   2.64703676E-10
  -2.39499994E-02   3.20763305E-10
  -2.39000004E-02   3.81162268E-10
  -2.38499995E-02   4.44019876E-10
  -2.38000005E-02   5.08186049E-10
  -2.37499997E-02   5.73820158E-10
  -2.37000007E-02   6.42398690E-10
  -2.36499999E-02   7.16139537E-10
  -2.36000009E-02   7.97091504E-10
  -2.35500000E-02   8.86284379E-10
  -2.34999992E-02   9.83313875E-10
  -2.34500002E-02   1.08655240E-09
  -2.33999994E-02   1.19390109E-09
  -2.33500004E-02   1.30375077E-09
  -2.32999995E-02   1.41574319E-09
  -2.32500006E-02   1.53098378E-09
  -2.31999997E-02   1.65161318E-09
  -2.31500007E-02   1.77991544E-09
  -2.30999999E-02   1.91734917E-09
  -2.30500009E-02   2.06393325E-09
  -2.30000000E-02   2.21825225E-09
  -2.29499992E-02   2.37809128E-09
  -2.29000002E-02   2.54142951E-09
  -2.28499994E-02   2.70735434E-09
  -2.28000004E-02   2.87649771E-09
  -2.27499995E-02   3.05079806E-09
  -2.27000006E-02   3.23268523E-09
  -2.26499997E-02   3.42404061E-09
  -2.26000007E-02   3.62538510E-09
  -2.25499999E-02   3.83565935E-09
  -2.25000009E-02   4.05268752E-09
  -2.24500000E-02   4.27413882E-09
  -2.23999992E-02   4.49856064E-09
  -2.23500002E-02   4.72603734E-09
  -2.22999994E-02   4.95817831E-09
  -2.22500004E-02   5.19744203E-09
  -2.21999995E-02   5.44607870E-09
  -2.21500006E-02   5.70516079E-09
  -2.20999997E-02   5.97412075E-09
  -2.20500007E-02   6.25100149E-09
  -2.19999999E-02   6.53332100E-09
  -2.19500009E-02   6.81917545E-09
  -2.19000001E-02   7.10809900E-09
  -2.18499992E-02   7.40130401E-09
  -2.18000002E-02   7.70119257E-09
  -2.17499994E-02   8.01035238E-09
  -2.17000004E-02   8.33046432E-09
  -2.16499995E-02   8.66160033E-09
  -2.16000006E-02   9.00222918E-09
  -2.15499997E-02   9.34991817E-09
  -2.15000007E-02   9.70244063E-09
  -2.14499999E-02   1.00588053E-08
  -2.14000009E-02   1.04197557E-08
  -2.13500001E-02   1.07875309E-08
  -2.12999992E-02   1.11649712E-08
  -2.12500002E-02   1.15543575E-08
  -2.11999994E-02   1.19565104E-08
  -2.11500004E-02   1.23705046E-08
  -2.10999995E-02   1.27941595E-08
  -2.10500006E-02   1.32250841E-08
  -2.09999997E-02   1.36618175E-08
  -2.09500007E-02   1.41045913E-08
  -2.08999999E-02   1.45553631E-08
  -2.08500009E-02   1.50171076E-08
  -2.08000001E-02   1.54926738E-08
  -2.07499992E-02   1.59836944E-08
  -2.07000002E-02   1.64900218E-08
  -2.06499994E-02   1.70099526E-08
  -2.06000004E-02   1.75411046E-08
  -2.05499995E-02   1.80816393E-08
  -2.05000006E-02   1.86312263E-08
  -2.04499997E-02   1.91913898E-08
  -2.04000007E-02   1.97650376E-08
  -2.03499999E-02   2.03554258E-08
  -2.03000009E-02   2.09649418E-08
  -2.02500001E-02   2.15942819E-08
  -2.01999992E-02   2.22423626E-08
  -2.01500002E-02   2.29069972E-08
  -2.00999994E-02   2.35860700E-08
  -2.00500004E-02   2.42786768E-08
  -1.99999996E-02   2.49857859E-08
  -1.99500006E-02   2.57100599E-08
  -1.98999997E-02   2.64549804E-08
  -1.98500007E-02   2.72236029E-08
  -1.97999999E-02   2.80175083E-08
  -1.97500009E-02   2.88363733E-08
  -1.97000001E-02   2.96783789E-08
  -1.96499992E-02   3.05412549E-08
  -1.96000002E-02   3.14235713E-08
  -1.95499994E-02   3.23256089E-08
  -1.95000004E-02   3.32495844E-08
  -1.94499996E-02   3.41989761E-08
  -1.94000006E-02   3.51773579E-08
  -1.93499997E-02   3.61871564E-08
  -1.93000007E-02   3.72289115E-08
  -1.92499999E-02   3.83013372E-08
  -1.92000009E-02   3.94021953E-08
  -1.91500001E-02   4.05295815E-08
  -1.90999992E-02   4.16830588E-08
  -1.90500002E-02   4.28642259E-08
  -1.89999994E-02   4.40763657E-08
  -1.89500004E-02   4.53234072E-08
  -1.88999996E-02   4.66085801E-08
  -1.88500006E-02   4.79333941E-08
  -1.87999997E-02   4.92973129E-08
  -1.87500007E-02   5.06983575E-08
  -1.86999999E-02   5.21343146E-08
  -1.86500009E-02   5.36040652E-08
  -1.86000001E-02   5.51084511E-08
  -1.85499992E-02   5.66503324E-08
  -1.85000002E-02   5.82337734E-08
  -1.84499994E-02   5.98627068E-08
  -1.84000004E-02   6.15396445E-08
  -1.83499996E-02   6.32649915E-08
  -1.83000006E-02   6.50372911E-08
  -1.82499997E-02   6.68542555E-08
  -1.82000007E-02   6.87141792E-08
  -1.81499999E-02   7.06171619E-08
  -1.81000009E-02   7.25654701E-08
  -1.80500001E-02   7.45631539E-08
  -1.79999992E-02   7.66147110E-08
  -1.79500002E-02   7.87236800E-08
  -1.78999994E-02   8.08916099E-08
  -1.78500004E-02   8.31178610E-08
  -1.77999996E-02   8.54003801E-08
  -1.77500006E-02   8.77371420E-08
  -1.76999997E-02   9.01275143E-08
  -1.76500008E-02   9.25731669E-08
  -1.75999999E-02   9.50779153E-08
  -1.75500009E-02   9.76467476E-08
  -1.75000001E-02   1.00284197E-07
  -1.74499992E-02   1.02993091E-07
  -1.74000002E-02   1.05773907E-07
  -1.73499994E-02   1.08625159E-07
  -1.73000004E-02   1.11544722E-07
  -1.72499996E-02   1.14531403E-07
  -1.72000006E-02   1.17586183E-07
  -1.71499997E-02   1.20712585E-07
  -1.71000008E-02   1.23915882E-07
  -1.70499999E-02   1.27201631E-07
  -1.70000009E-02   1.30574065E-07
  -1.69500001E-02   1.34035034E-07
  -1.68999992E-02   1.37584024E-07
  -1.68500002E-02   1.41219147E-07
  -1.67999994E-02   1.44938909E-07
  -1.67500004E-02   1.48743652E-07
  -1.66999996E-02   1.52636460E-07
  -1.66500006E-02   1.56622690E-07
  -1.65999997E-02   1.60708780E-07
  -1.65500008E-02   1.64900342E-07
  -1.64999999E-02   1.69200860E-07
  -1.64500009E-02   1.73611042E-07
  -1.64000001E-02   1.78129653E-07
  -1.63499992E-02   1.82755045E-07
  -1.63000003E-02   1.87487032E-07
  -1.62499994E-02   1.92328073E-07
  -1.62000004E-02   1.97283470E-07
  -1.61499996E-02   2.02360297E-07
  -1.61000006E-02   2.07565520E-07
  -1.60499997E-02   2.12904311E-07
  -1.60000008E-02   2.18378929E-07
  -1.59499999E-02   2.23989105E-07
  -1.59000009E-02   2.29733317E-07
  -1.58500001E-02   2.35610912E-07
  -1.57999992E-02   2.41623752E-07
  -1.57500003E-02   2.47776796E-07
  -1.56999994E-02   2.54077491E-07
  -1.56500004E-02   2.60533966E-07
  -1.55999996E-02   2.67153041E-07
  -1.55499997E-02   2.73938639E-07
  -1.54999997E-02   2.80891697E-07
  -1.54499998E-02   2.88011137E-07
  -1.53999999E-02   2.95295990E-07
  -1.53500000E-02   3.02747310E-07
  -1.53000001E-02   3.10369614E-07
  -1.52500002E-02   3.18170407E-07
  -1.52000003E-02   3.26158784E-07
  -1.51500003E-02   3.34343099E-07
  -1.51000004E-02   3.42729152E-07
  -1.50499996E-02   3.51319215E-07
  -1.49999997E-02   3.60112892E-07
  -1.49499997E-02   3.69108989E-07
  -1.48999998E-02   3.78308016E-07
  -1.48499999E-02   3.87713698E-07
  -1.48000000E-02   3.97333309E-07
  -1.47500001E-02   4.07176628E-07
  -1.47000002E-02   4.17253375E-07
  -1.46500003E-02   4.27571109E-07
  -1.46000003E-02   4.38133782E-07
  -1.45500004E-02   4.48941989E-07
  -1.44999996E-02   4.59994737E-07
  -1.44499997E-02   4.71291827E-07
  -1.43999998E-02   4.82836242E-07
  -1.43499998E-02   4.94634946E-07
  -1.42999999E-02   5.06697802E-07
  -1.42500000E-02   5.19035837E-07
  -1.42000001E-02   5.31658202E-07
  -1.41500002E-02   5.44570696E-07
  -1.41000003E-02   5.57775309E-07
  -1.40500003E-02   5.71271471E-07
  -1.40000004E-02   5.85058615E-07
  -1.39499996E-02   5.99139014E-07
  -1.38999997E-02   6.13518750E-07
  -1.38499998E-02   6.28207886E-07
  -1.37999998E-02   6.43218243E-07
  -1.37499999E-02   6.58560850E-07
  -1.37000000E-02   6.74243267E-07
  -1.36500001E-02   6.90269076E-07
  -1.36000002E-02   7.06638446E-07
  -1.35500003E-02   7.23350752E-07
  -1.35000004E-02   7.40407529E-07
  -1.34500004E-02   7.57814178E-07
  -1.33999996E-02   7.75580418E-07
  -1.33499997E-02   7.93718868E-07
  -1.32999998E-02   8.12242092E-07
  -1.32499998E-02   8.31159639E-07
  -1.31999999E-02   8.50476908E-07
  -1.31500000E-02   8.70195208E-07
  -1.31000001E-02   8.90314197E-07
  -1.30500002E-02   9.10834729E-07
  -1.30000003E-02   9.31761576E-07
  -1.29500004E-02   9.53104063E-07
  -1.29000004E-02   9.74875320E-07
  -1.28499996E-02   9.97089273E-07
  -1.27999997E-02   1.01975752E-06
  -1.27499998E-02   1.04288756E-06
  -1.26999998E-02   1.06648235E-06
  -1.26499999E-02   1.09054190E-06
  -1.26000000E-02   1.11506665E-06
  -1.25500001E-02   1.14006093E-06
  -1.25000002E-02   1.16553372E-06
  -1.24500003E-02   1.19149797E-06
  -1.24000004E-02   1.21796893E-06
  -1.23500004E-02   1.24496000E-06
  -1.22999996E-02   1.27248074E-06
  -1.22499997E-02   1.30053593E-06
  -1.21999998E-02   1.32912692E-06
  -1.21499998E-02   1.35825439E-06
  -1.20999999E-02   1.38792188E-06
  -1.20500000E-02   1.41813791E-06
  -1.20000001E-02   1.44891601E-06
  -1.19500002E-02   1.48027198E-06
  -1.19000003E-02   1.51222105E-06
  -1.18500004E-02   1.54477505E-06
  -1.18000004E-02   1.57794079E-06
  -1.17499996E-02   1.61172022E-06
  -1.16999997E-02   1.64611458E-06
  -1.16499998E-02   1.68112672E-06
  -1.15999999E-02   1.71676436E-06
  -1.15499999E-02   1.75304081E-06
  -1.15000000E-02   1.78997277E-06
  -1.14500001E-02   1.82757731E-06
  -1.14000002E-02   1.86586828E-06
  -1.13500003E-02   1.90485446E-06
  -1.13000004E-02   1.94454014E-06
  -1.12500004E-02   1.98492717E-06
  -1.11999996E-02   2.02601791E-06
  -1.11499997E-02   2.06781988E-06
  -1.10999998E-02   2.11034558E-06
  -1.10499999E-02   2.15361160E-06
  -1.09999999E-02   2.19763638E-06
  -1.09500000E-02   2.24243558E-06
  -1.09000001E-02   2.28801991E-06
  -1.08500002E-02   2.33439505E-06
  -1.08000003E-02   2.38156304E-06
  -1.07500004E-02   2.42952615E-06
  -1.07000005E-02   2.47829098E-06
  -1.06499996E-02   2.52786890E-06
  -1.05999997E-02   2.57827742E-06
  -1.05499998E-02   2.62953540E-06
  -1.04999999E-02   2.68166104E-06
  -1.04499999E-02   2.73466685E-06
  -1.04000000E-02   2.78856032E-06
  -1.03500001E-02   2.84334442E-06
  -1.03000002E-02   2.89902164E-06
  -1.02500003E-02   2.95559767E-06
  -1.02000004E-02   3.01308341E-06
  -1.01500005E-02   3.07149503E-06
  -1.00999996E-02   3.13085161E-06
  -1.00499997E-02   3.19117225E-06
  -9.99999978E-03   3.25247129E-06
  -9.94999986E-03   3.31475758E-06
  -9.89999995E-03   3.37803590E-06
  -9.85000003E-03   3.44230762E-06
  -9.80000012E-03   3.50757728E-06
  -9.75000020E-03   3.57385420E-06
  -9.70000029E-03   3.64115363E-06
  -9.65000037E-03   3.70949465E-06
  -9.60000046E-03   3.77889683E-06
  -9.54999961E-03   3.84937630E-06
  -9.49999969E-03   3.92094353E-06
  -9.44999978E-03   3.99360260E-06
  -9.39999986E-03   4.06735671E-06
  -9.34999995E-03   4.14220949E-06
  -9.30000003E-03   4.21816821E-06
  -9.25000012E-03   4.29524698E-06
  -9.20000020E-03   4.37346489E-06
  -9.15000029E-03   4.45284286E-06
  -9.10000037E-03   4.53339635E-06
  -9.05000046E-03   4.61513719E-06
  -8.99999961E-03   4.69807082E-06
  -8.94999970E-03   4.78219772E-06
  -8.89999978E-03   4.86752106E-06
  -8.84999987E-03   4.95404583E-06
  -8.79999995E-03   5.04178479E-06
  -8.75000004E-03   5.13075429E-06
  -8.70000012E-03   5.22097434E-06
  -8.65000021E-03   5.31246224E-06
  -8.60000029E-03   5.40522888E-06
  -8.55000038E-03   5.49927927E-06
  -8.50000046E-03   5.59461523E-06
  -8.44999962E-03   5.69123540E-06
  -8.39999970E-03   5.78914614E-06
  -8.34999979E-03   5.88835564E-06
  -8.29999987E-03   5.98888028E-06
  -8.24999996E-03   6.09073732E-06
  -8.20000004E-03   6.19394450E-06
  -8.15000013E-03   6.29851229E-06
  -8.10000021E-03   6.40444750E-06
  -8.05000030E-03   6.51174878E-06
  -8.00000038E-03   6.62041612E-06
  -7.95000046E-03   6.73044951E-06
  -7.89999962E-03   6.84185579E-06
  -7.84999970E-03   6.95464632E-06
  -7.79999979E-03   7.06883793E-06
  -7.74999987E-03   7.18444471E-06
  -7.69999996E-03   7.30147895E-06
  -7.65000004E-03   7.41994336E-06
  -7.60000013E-03   7.53983795E-06
  -7.55000021E-03   7.66115772E-06
  -7.49999983E-03   7.78389949E-06
  -7.44999992E-03   7.90806553E-06
  -7.40000000E-03   8.03366402E-06
  -7.35000009E-03   8.16070678E-06
  -7.30000017E-03   8.28920838E-06
  -7.24999979E-03   8.41917881E-06
  -7.19999988E-03   8.55062081E-06
  -7.14999996E-03   8.68352981E-06
  -7.10000005E-03   8.81789947E-06
  -7.05000013E-03   8.95372159E-06
  -7.00000022E-03   9.09099435E-06
  -6.94999984E-03   9.22971867E-06
  -6.89999992E-03   9.36990546E-06
  -6.85000001E-03   9.51156471E-06
  -6.80000009E-03   9.65470281E-06
  -6.75000018E-03   9.79932247E-06
  -6.69999979E-03   9.94541369E-06
  -6.64999988E-03   1.00929683E-05
  -6.59999996E-03   1.02419717E-05
  -6.55000005E-03   1.03924158E-05
  -6.50000013E-03   1.05442959E-05
  -6.45000022E-03   1.06976149E-05
  -6.39999984E-03   1.08523809E-05
  -6.34999992E-03   1.10085948E-05
  -6.30000001E-03   1.11662557E-05
  -6.25000009E-03   1.13253509E-05
  -6.20000018E-03   1.14858631E-05
  -6.14999980E-03   1.16477750E-05
  -6.09999988E-03   1.18110702E-05
  -6.04999997E-03   1.19757378E-05
  -6.00000005E-03   1.21417770E-05
  -5.95000014E-03   1.23091868E-05
  -5.90000022E-03   1.24779654E-05
  -5.84999984E-03   1.26481045E-05
  -5.79999993E-03   1.28195898E-05
  -5.75000001E-03   1.29923974E-05
  -5.70000010E-03   1.31665029E-05
  -5.65000018E-03   1.33418807E-05
  -5.59999980E-03   1.35185137E-05
  -5.54999989E-03   1.36963909E-05
  -5.49999997E-03   1.38755040E-05
  -5.45000006E-03   1.40558459E-05
  -5.40000014E-03   1.42374029E-05
  -5.35000023E-03   1.44201531E-05
  -5.29999984E-03   1.46040657E-05
  -5.24999993E-03   1.47891069E-05
  -5.20000001E-03   1.49752441E-05
  -5.15000010E-03   1.51624481E-05
  -5.10000018E-03   1.53506990E-05
  -5.04999980E-03   1.55399830E-05
  -4.99999989E-03   1.57302802E-05
  -4.94999997E-03   1.59215724E-05
  -4.90000006E-03   1.61138305E-05
  -4.85000014E-03   1.63070181E-05
  -4.80000023E-03   1.65010915E-05
  -4.74999985E-03   1.66960072E-05
  -4.69999993E-03   1.68917304E-05
  -4.65000002E-03   1.70882249E-05
  -4.60000010E-03   1.72854689E-05
  -4.55000019E-03   1.74834349E-05
  -4.49999981E-03   1.76820922E-05
  -4.44999989E-03   1.78814062E-05
  -4.39999998E-03   1.80813277E-05
  -4.35000006E-03   1.82818076E-05
  -4.30000015E-03   1.84827895E-05
  -4.25000023E-03   1.86842226E-05
  -4.19999985E-03   1.88860649E-05
  -4.14999994E-03   1.90882765E-05
  -4.10000002E-03   1.92908228E-05
  -4.05000011E-03   1.94936656E-05
  -4.00000019E-03   1.96967540E-05
  -3.94999981E-03   1.99000333E-05
  -3.89999989E-03   2.01034400E-05
  -3.84999998E-03   2.03069067E-05
  -3.80000006E-03   2.05103679E-05
  -3.74999992E-03   2.07137709E-05
  -3.70000000E-03   2.09170648E-05
  -3.65000009E-03   2.11202005E-05
  -3.59999994E-03   2.13231269E-05
  -3.55000002E-03   2.15257860E-05
  -3.50000011E-03   2.17281104E-05
  -3.44999996E-03   2.19300273E-05
  -3.40000005E-03   2.21314513E-05
  -3.34999990E-03   2.23323095E-05
  -3.29999998E-03   2.25325257E-05
  -3.25000007E-03   2.27320379E-05
  -3.19999992E-03   2.29307843E-05
  -3.15000000E-03   2.31286976E-05
  -3.10000009E-03   2.33257124E-05
  -3.04999994E-03   2.35217449E-05
  -3.00000003E-03   2.37167078E-05
  -2.95000011E-03   2.39105048E-05
  -2.89999996E-03   2.41030430E-05
  -2.85000005E-03   2.42942333E-05
  -2.79999990E-03   2.44839957E-05
  -2.74999999E-03   2.46722520E-05
  -2.70000007E-03   2.48589295E-05
  -2.64999992E-03   2.50439425E-05
  -2.60000001E-03   2.52271966E-05
  -2.55000009E-03   2.54085899E-05
  -2.49999994E-03   2.55880113E-05
  -2.45000003E-03   2.57653483E-05
  -2.40000011E-03   2.59404969E-05
  -2.34999997E-03   2.61133573E-05
  -2.30000005E-03   2.62838385E-05
  -2.24999990E-03   2.64518512E-05
  -2.19999999E-03   2.66173010E-05
  -2.15000007E-03   2.67800788E-05
  -2.09999993E-03   2.69400643E-05
  -2.05000001E-03   2.70971304E-05
  -2.00000009E-03   2.72511479E-05
  -1.94999995E-03   2.74019894E-05
  -1.90000003E-03   2.75495386E-05
  -1.85000000E-03   2.76936862E-05
  -1.79999997E-03   2.78343250E-05
  -1.75000005E-03   2.79713477E-05
  -1.70000002E-03   2.81046305E-05
  -1.64999999E-03   2.82340388E-05
  -1.59999996E-03   2.83594272E-05
  -1.55000004E-03   2.84806501E-05
  -1.50000001E-03   2.85975620E-05
  -1.44999998E-03   2.87100265E-05
  -1.39999995E-03   2.88179126E-05
  -1.35000004E-03   2.89211002E-05
  -1.30000000E-03   2.90194621E-05
  -1.24999997E-03   2.91128654E-05
  -1.20000006E-03   2.92011591E-05
  -1.15000003E-03   2.92841869E-05
  -1.09999999E-03   2.93617795E-05
  -1.04999996E-03   2.94337733E-05
  -1.00000005E-03   2.95000100E-05
  -9.50000016E-04   2.95603422E-05
  -8.99999985E-04   2.96146300E-05
  -8.50000011E-04   2.96627295E-05
  -7.99999980E-04   2.97044899E-05
  -7.50000007E-04   2.97397492E-05
  -6.99999975E-04   2.97683328E-05
  -6.50000002E-04   2.97900551E-05
  -6.00000028E-04   2.98047325E-05
  -5.49999997E-04   2.98121831E-05
  -5.00000024E-04   2.98122413E-05
  -4.49999992E-04   2.98047453E-05
  -3.99999990E-04   2.97895385E-05
  -3.49999988E-04   2.97664574E-05
  -3.00000014E-04   2.97353290E-05
  -2.50000012E-04   2.96959643E-05
  -1.99999995E-04   2.96481649E-05
  -1.50000007E-04   2.95917216E-05
  -9.99999975E-05   2.95264363E-05
  -4.99999987E-05   2.94521215E-05
   0.00000000       2.93685989E-05
   4.99999987E-05   2.92756977E-05
   9.99999975E-05   2.91732413E-05
   1.50000007E-04   2.90610424E-05
   1.99999995E-04   2.89389009E-05
   2.50000012E-04   2.88066021E-05
   3.00000014E-04   2.86639206E-05
   3.49999988E-04   2.85106398E-05
   3.99999990E-04   2.83465488E-05
   4.49999992E-04   2.81714492E-05
   5.00000024E-04   2.79851538E-05
   5.49999997E-04   2.77874788E-05
   6.00000028E-04   2.75782259E-05
   6.50000002E-04   2.73571841E-05
   6.99999975E-04   2.71241279E-05
   7.50000007E-04   2.68788172E-05
   7.99999980E-04   2.66210136E-05
   8.50000011E-04   2.63504899E-05
   8.99999985E-04   2.60670313E-05
   9.50000016E-04   2.57704396E-05
   1.00000005E-03   2.54605220E-05
   1.04999996E-03   2.51370693E-05
   1.09999999E-03   2.47998651E-05
   1.15000003E-03   2.44486728E-05
   1.20000006E-03   2.40832433E-05
   1.24999997E-03   2.37033273E-05
   1.30000000E-03   2.33086794E-05
   1.35000004E-03   2.28990702E-05
   1.39999995E-03   2.24742816E-05
   1.44999998E-03   2.20341135E-05
   1.50000001E-03   2.15783584E-05
   1.55000004E-03   2.11067872E-05
   1.59999996E-03   2.06191671E-05
   1.64999999E-03   2.01152416E-05
   1.70000002E-03   1.95947487E-05
   1.75000005E-03   1.90574228E-05
   1.79999997E-03   1.85030276E-05
   1.85000000E-03   1.79313301E-05
   1.90000003E-03   1.73421213E-05
   1.94999995E-03   1.67351900E-05
   2.00000009E-03   1.61103217E-05
   2.05000001E-03   1.54672671E-05
   2.09999993E-03   1.48057788E-05
   2.15000007E-03   1.41255850E-05
   2.19999999E-03   1.34264219E-05
   2.24999990E-03   1.27080357E-05
   2.30000005E-03   1.19701899E-05
   2.34999997E-03   1.12126681E-05
   2.40000011E-03   1.04352603E-05
   2.45000003E-03   9.63775528E-06
   2.49999994E-03   8.81992037E-06
   2.55000009E-03   7.98150086E-06
   2.60000001E-03   7.12222345E-06
   2.64999992E-03   6.24182348E-06
   2.70000007E-03   5.34003811E-06
   2.74999999E-03   4.41662769E-06
   2.79999990E-03   3.47137939E-06