  -3.99999991E-02   0.00000000    
  -3.99499983E-02   0.00000000    
  -3.99000011E-02   0.00000000    
  -3.98500003E-02   0.00000000    
  -3.97999994E-02   0.00000000    
  -3.97499986E-02   1.80637351E-25
  -3.97000015E-02   1.52844266E-24
  -3.96500006E-02   6.50166379E-24
  -3.95999998E-02   1.76907785E-23
  -3.95499989E-02   3.10148585E-23
  -3.95000018E-02   2.15072324E-23
  -3.94500010E-02  -7.33155650E-23
  -3.94000001E-02  -3.55863990E-22
  -3.93499993E-02  -9.30152684E-22
  -3.92999984E-02  -1.79971742E-21
  -3.92500013E-02  -2.70644065E-21
  -3.92000005E-02  -2.96635692E-21
  -3.91499996E-02  -1.41176820E-21
  -3.90999988E-02   3.43820651E-21
  -3.90500017E-02   1.29264637E-20
  -3.90000008E-02   2.76323335E-20
  -3.89500000E-02   4.68637464E-20
  -3.88999991E-02   6.86532508E-20
  -3.88499983E-02   9.05278353E-20
  -3.88000011E-02   1.10968114E-19
  -3.87500003E-02   1.31003708E-19
  -3.86999995E-02   1.55062502E-19
  -3.86499986E-02   1.90268834E-19
  -3.86000015E-02   2.43986693E-19
  -3.85500006E-02   3.20365242E-19
  -3.84999998E-02   4.17522852E-19
  -3.84499989E-02   5.27242389E-19
  -3.84000018E-02   6.38260677E-19
  -3.83500010E-02   7.42514851E-19
  -3.83000001E-02   8.41748297E-19
  -3.82499993E-02   9.50759225E-19
  -3.81999984E-02   1.09423567E-18
  -3.81500013E-02   1.29675099E-18
  -3.81000005E-02   1.56916328E-18
  -3.80499996E-02   1.89760609E-18
  -3.79999988E-02   2.24159846E-18
  -3.79500017E-02   2.54469191E-18
  -3.79000008E-02   2.75533779E-18
  -3.78500000E-02   2.84973999E-18
  -3.77999991E-02   2.84552302E-18
  -3.77499983E-02   2.79728660E-18
  -3.77000012E-02   2.77253219E-18
  -3.76500003E-02   2.81621022E-18
  -3.75999995E-02   2.91958960E-18
  -3.75499986E-02   3.00992455E-18
  -3.75000015E-02   2.96978706E-18
  -3.74500006E-02   2.68143251E-18
  -3.73999998E-02   2.07815274E-18
  -3.73499990E-02   1.17819574E-18
  -3.73000018E-02   8.18168868E-20
  -3.72500010E-02  -1.07250511E-18
  -3.72000001E-02  -2.17708912E-18
  -3.71499993E-02  -3.21927858E-18
  -3.70999984E-02  -4.30935084E-18
  -3.70500013E-02  -5.65426380E-18
  -3.70000005E-02  -7.48318040E-18
  -3.69499996E-02  -9.95399536E-18
  -3.68999988E-02  -1.30815049E-17
  -3.68500017E-02  -1.67208969E-17
  -3.68000008E-02  -2.06170764E-17
  -3.67500000E-02  -2.45011443E-17
  -3.66999991E-02  -2.81937927E-17
  -3.66499983E-02  -3.16717696E-17
  -3.66000012E-02  -3.50696224E-17
  -3.65500003E-02  -3.86169865E-17
  -3.64999995E-02  -4.25386332E-17
  -3.64499986E-02  -4.69581467E-17
  -3.64000015E-02  -5.18418574E-17
  -3.63500006E-02  -5.70009366E-17
  -3.62999998E-02  -6.21468338E-17
  -3.62499990E-02  -6.69784686E-17
  -3.62000018E-02  -7.12737726E-17
  -3.61500010E-02  -7.49616813E-17
  -3.61000001E-02  -7.81566102E-17
  -3.60499993E-02  -8.11422756E-17
  -3.59999985E-02  -8.42959248E-17
  -3.59500013E-02  -8.79552660E-17
  -3.59000005E-02  -9.22531773E-17
  -3.58499996E-02  -9.69760477E-17
  -3.57999988E-02  -1.01523655E-16
  -3.57500017E-02  -1.05038696E-16
  -3.57000008E-02  -1.06718594E-16
  -3.56500000E-02  -1.06229539E-16
  -3.55999991E-02  -1.04051512E-16
  -3.55499983E-02  -1.01548292E-16
  -3.55000012E-02  -1.00622280E-16
  -3.54500003E-02  -1.02983080E-16
  -3.53999995E-02  -1.09273510E-16
  -3.53499986E-02  -1.18454156E-16
  -3.53000015E-02  -1.27840856E-16
  -3.52500007E-02  -1.33970159E-16
  -3.51999998E-02  -1.34089551E-16
  -3.51499990E-02  -1.27689357E-16
  -3.51000018E-02  -1.17313878E-16
  -3.50500010E-02  -1.08060030E-16
  -3.50000001E-02  -1.05693618E-16
  -3.49499993E-02  -1.13999332E-16
  -3.48999985E-02  -1.32513328E-16
  -3.48500013E-02  -1.55853109E-16
  -3.48000005E-02  -1.75317715E-16
  -3.47499996E-02  -1.82426280E-16
  -3.46999988E-02  -1.73013309E-16
  -3.46500017E-02  -1.49933567E-16
  -3.46000008E-02  -1.22741983E-16
  -3.45500000E-02  -1.03920348E-16
  -3.44999991E-02  -1.02888040E-16
  -3.44499983E-02  -1.20392909E-16
  -3.44000012E-02  -1.46181012E-16
  -3.43500003E-02  -1.61733781E-16
  -3.42999995E-02  -1.47638081E-16
  -3.42499986E-02  -9.27449726E-17
  -3.42000015E-02  -8.60648444E-19
  -3.41500007E-02   1.08807106E-16
  -3.40999998E-02   2.08759198E-16
  -3.40499990E-02   2.75635109E-16
  -3.40000018E-02   3.02687144E-16
  -3.39500010E-02   3.06111963E-16
  -3.39000002E-02   3.21079591E-16
  -3.38499993E-02   3.87736637E-16
  -3.37999985E-02   5.32479427E-16
  -3.37500013E-02   7.52981903E-16
  -3.37000005E-02   1.01494071E-15
  -3.36499996E-02   1.26394765E-15
  -3.35999988E-02   1.44895446E-15
  -3.35500017E-02   1.54754148E-15
  -3.35000008E-02   1.58084522E-15
  -3.34500000E-02   1.60928277E-15
  -3.33999991E-02   1.70834496E-15
  -3.33499983E-02   1.93341136E-15
  -3.33000012E-02   2.28919590E-15
  -3.32500003E-02   2.71938615E-15
  -3.31999995E-02   3.12433418E-15
  -3.31499986E-02   3.40205553E-15
  -3.31000015E-02   3.49576257E-15
  -3.30500007E-02   3.42572777E-15
  -3.29999998E-02   3.28794029E-15
  -3.29499990E-02   3.21588044E-15
  -3.29000019E-02   3.31918479E-15
  -3.28500010E-02   3.62598288E-15
  -3.28000002E-02   4.05731365E-15
  -3.27499993E-02   4.45004598E-15
  -3.26999985E-02   4.62323923E-15
  -3.26500013E-02   4.46120734E-15
  -3.26000005E-02   3.97515146E-15
  -3.25499997E-02   3.31097640E-15
  -3.24999988E-02   2.69303961E-15
  -3.24500017E-02   2.32335314E-15
  -3.24000008E-02   2.27961977E-15
  -3.23500000E-02   2.46117747E-15
  -3.22999991E-02   2.61455248E-15
  -3.22499983E-02   2.43560893E-15
  -3.22000012E-02   1.70804046E-15
  -3.21500003E-02   4.15862181E-16
  -3.20999995E-02  -1.22697074E-15
  -3.20499986E-02  -2.85321587E-15
  -3.20000015E-02  -4.10021672E-15
  -3.19500007E-02  -4.78221122E-15
  -3.18999998E-02  -4.99608916E-15
  -3.18499990E-02  -5.10279414E-15
  -3.18000019E-02  -5.57997650E-15
  -3.17500010E-02  -6.80270498E-15
  -3.17000002E-02  -8.84949445E-15
  -3.16499993E-02  -1.14289952E-14
  -3.15999985E-02  -1.39749010E-14
  -3.15500014E-02  -1.58812325E-14
  -3.15000005E-02  -1.67802495E-14
  -3.14499997E-02  -1.67350857E-14
  -3.13999988E-02  -1.62469085E-14
  -3.13500017E-02  -1.60548522E-14
  -3.13000008E-02  -1.68033820E-14
  -3.12500000E-02  -1.87221403E-14
  -3.11999992E-02  -2.14714179E-14
  -3.11500002E-02  -2.42424201E-14
  -3.10999993E-02  -2.60889366E-14
  -3.10500003E-02  -2.63550202E-14
  -3.09999995E-02  -2.50050021E-14
  -3.09500005E-02  -2.26905066E-14
  -3.08999997E-02  -2.04985853E-14
  -3.08500007E-02  -1.94710886E-14
  -3.07999998E-02  -2.01019756E-14
  -3.07500008E-02  -2.20484167E-14
  -3.07000000E-02  -2.42115356E-14
  -3.06499992E-02  -2.51816949E-14
  -3.06000002E-02  -2.38704100E-14
  -3.05499993E-02  -2.00471320E-14
  -3.05000003E-02  -1.45194576E-14
  -3.04499995E-02  -8.84095975E-15
  -3.04000005E-02  -4.64370694E-15
  -3.03499997E-02  -2.87783044E-15
  -3.03000007E-02  -3.30820618E-15
  -3.02499998E-02  -4.52672025E-15
  -3.02000009E-02  -4.51742873E-15
  -3.01500000E-02  -1.55486535E-15
  -3.00999992E-02   4.95902851E-15
  -3.00500002E-02   1.41172627E-14
  -2.99999993E-02   2.38038332E-14
  -2.99500003E-02   3.15786792E-14
  -2.98999995E-02   3.57835845E-14
  -2.98500005E-02   3.63680813E-14
  -2.97999997E-02   3.50263065E-14
  -2.97500007E-02   3.45267333E-14
  -2.96999998E-02   3.74857040E-14
  -2.96500009E-02   4.51157429E-14
  -2.96000000E-02   5.65321343E-14
  -2.95499992E-02   6.89846333E-14
  -2.95000002E-02   7.89762068E-14
  -2.94499993E-02   8.38134358E-14
  -2.94000003E-02   8.28973730E-14
  -2.93499995E-02   7.81338630E-14
  -2.93000005E-02   7.32076956E-14
  -2.92499997E-02   7.19764688E-14
  -2.92000007E-02   7.66690110E-14
  -2.91499998E-02   8.67137376E-14
  -2.91000009E-02   9.87873994E-14
  -2.90500000E-02   1.08148137E-13
  -2.89999992E-02   1.10722900E-13
  -2.89500002E-02   1.05031123E-13
  -2.88999993E-02   9.30386071E-14
  -2.88500004E-02   7.94706504E-14
  -2.87999995E-02   6.97974664E-14
  -2.87500005E-02   6.77367505E-14
  -2.86999997E-02   7.33999179E-14
  -2.86500007E-02   8.29858033E-14
  -2.85999998E-02   9.02678946E-14
  -2.85500009E-02   8.93054958E-14
  -2.85000000E-02   7.72037328E-14
  -2.84499992E-02   5.56476082E-14
  -2.84000002E-02   3.04201312E-14
  -2.83499993E-02   8.99706792E-15
  -2.83000004E-02  -2.79246180E-15
  -2.82499995E-02  -3.55461146E-15
  -2.82000005E-02   2.75595574E-15
  -2.81499997E-02   8.33915033E-15
  -2.81000007E-02   4.92662314E-15
  -2.80499998E-02  -1.24093732E-14
  -2.80000009E-02  -4.27469610E-14
  -2.79500000E-02  -7.93437920E-14
  -2.78999992E-02  -1.12347137E-13
  -2.78500002E-02  -1.33099437E-13
  -2.77999993E-02  -1.38152171E-13
  -2.77500004E-02  -1.31121554E-13
  -2.76999995E-02  -1.21402549E-13
  -2.76500005E-02  -1.20146338E-13
  -2.75999997E-02  -1.35190551E-13
  -2.75500007E-02  -1.67212788E-13
  -2.74999999E-02  -2.08947673E-13
  -2.74500009E-02  -2.48005284E-13
  -2.74000000E-02  -2.72204053E-13
  -2.73499992E-02  -2.75112425E-13
  -2.73000002E-02  -2.59267488E-13
  -2.72499993E-02  -2.35461336E-13
  -2.72000004E-02  -2.18201596E-13
  -2.71499995E-02  -2.19214837E-13
  -2.71000005E-02  -2.41864119E-13
  -2.70499997E-02  -2.79091393E-13
  -2.70000007E-02  -3.16023493E-13
  -2.69499999E-02  -3.36304796E-13
  -2.69000009E-02  -3.29460607E-13
  -2.68500000E-02  -2.95976649E-13
  -2.67999992E-02  -2.47646765E-13
  -2.67500002E-02  -2.02776137E-13
  -2.66999993E-02  -1.78157863E-13
  -2.66500004E-02  -1.81320521E-13
  -2.65999995E-02  -2.06603736E-13
  -2.65500005E-02  -2.37056170E-13
  -2.64999997E-02  -2.51593695E-13
  -2.64500007E-02  -2.34423104E-13
  -2.63999999E-02  -1.82546469E-13
  -2.63500009E-02  -1.07822917E-13
  -2.63000000E-02  -3.23671516E-14
  -2.62499992E-02   2.09567098E-14
  -2.62000002E-02   3.88616887E-14
  -2.61499994E-02   2.41196122E-14
  -2.61000004E-02  -4.94924062E-15
  -2.60499995E-02  -2.20967331E-14
  -2.60000005E-02  -4.76279172E-15
  -2.59499997E-02   5.54024193E-14
  -2.59000007E-02   1.47952275E-13
  -2.58499999E-02   2.47372001E-13
  -2.58000009E-02   3.23833408E-13
  -2.57500000E-02   3.56429702E-13
  -2.56999992E-02   3.42995733E-13
  -2.56500002E-02   3.01888560E-13
  -2.55999994E-02   2.64534407E-13
  -2.55500004E-02   2.61686804E-13
  -2.54999995E-02   3.09337002E-13
  -2.54500005E-02   4.00657236E-13
  -2.53999997E-02   5.07918685E-13
  -2.53500007E-02   5.93983630E-13
  -2.52999999E-02   6.28608114E-13
  -2.52500009E-02   6.02387281E-13
  -2.52000000E-02   5.31911483E-13
  -2.51499992E-02   4.53389388E-13
  -2.51000002E-02   4.07096665E-13
  -2.50499994E-02   4.19273991E-13
  -2.50000004E-02   4.89557234E-13
  -2.49499995E-02   5.89884695E-13
  -2.49000005E-02   6.75897652E-13
  -2.48499997E-02   7.06241055E-13
  -2.48000007E-02   6.61386419E-13
  -2.47499999E-02   5.53441624E-13
  -2.47000009E-02   4.22106442E-13
  -2.46500000E-02   3.17986062E-13
  -2.45999992E-02   2.80245418E-13
  -2.45500002E-02   3.18454844E-13
  -2.44999994E-02   4.07017627E-13
  -2.44500004E-02   4.95251138E-13
  -2.43999995E-02   5.29253074E-13
  -2.43500005E-02   4.76190539E-13
  -2.42999997E-02   3.40147398E-13
  -2.42500007E-02   1.62005012E-13
  -2.41999999E-02   2.71655049E-15
  -2.41500009E-02  -8.31958132E-14
  -2.41000000E-02  -7.23842102E-14
  -2.40499992E-02   1.55782132E-14
  -2.40000002E-02   1.25300540E-13
  -2.39499994E-02   1.89125937E-13
  -2.39000004E-02   1.57209694E-13
  -2.38499995E-02   2.08381201E-14
  -2.38000005E-02  -1.81809469E-13
  -2.37499997E-02  -3.80791671E-13
  -2.37000007E-02  -5.04485668E-13
  -2.36499999E-02  -5.11687264E-13
  -2.36000009E-02  -4.11351563E-13
  -2.35500000E-02  -2.60565224E-13
  -2.34999992E-02  -1.40761873E-13
  -2.34500002E-02  -1.21992545E-13
  -2.33999994E-02  -2.30850332E-13
  -2.33500004E-02  -4.36644346E-13
  -2.32999995E-02  -6.62797996E-13
  -2.32500006E-02  -8.19374896E-13
  -2.31999997E-02  -8.42954829E-13
  -2.31500007E-02  -7.26213360E-13
  -2.30999999E-02  -5.23476011E-13
  -2.30500009E-02  -3.28777316E-13
  -2.30000000E-02  -2.35187764E-13
  -2.29499992E-02  -2.92953975E-13
  -2.29000002E-02  -4.85235712E-13
  -2.28499994E-02  -7.33057874E-13
  -2.28000004E-02  -9.28414572E-13
  -2.27499995E-02  -9.81756885E-13
  -2.27000006E-02  -8.63077405E-13
  -2.26499997E-02  -6.17860635E-13
  -2.26000007E-02  -3.49734212E-13
  -2.25499999E-02  -1.76305734E-13
  -2.25000009E-02  -1.76986003E-13
  -2.24500000E-02  -3.55938288E-13
  -2.23999992E-02  -6.37398283E-13
  -2.23500002E-02  -8.96729251E-13
  -2.22999994E-02  -1.01464366E-12
  -2.22500004E-02  -9.31121499E-13
  -2.21999995E-02  -6.74784718E-13
  -2.21500006E-02  -3.53584566E-13
  -2.20999997E-02  -1.09497460E-13
  -2.20500007E-02  -5.62067787E-14
  -2.19999999E-02  -2.27112667E-13
  -2.19500009E-02  -5.57415279E-13
  -2.19000001E-02  -9.09607134E-13
  -2.18499992E-02  -1.13256041E-12
  -2.18000002E-02  -1.12893234E-12
  -2.17499994E-02  -9.00923216E-13
  -2.17000004E-02  -5.53022580E-13
  -2.16499995E-02  -2.48901540E-13
  -2.16000006E-02  -1.40099046E-13
  -2.15499997E-02  -2.97476995E-13
  -2.15000007E-02  -6.76321954E-13
  -2.14499999E-02  -1.13200248E-12
  -2.14000009E-02  -1.48100889E-12
  -2.13500001E-02  -1.58163413E-12
  -2.12999992E-02  -1.39879308E-12
  -2.12500002E-02  -1.02330568E-12
  -2.11999994E-02  -6.35340955E-13
  -2.11500004E-02  -4.26413082E-13
  -2.10999995E-02  -5.13453700E-13
  -2.10500006E-02  -8.83244378E-13
  -2.09999997E-02  -1.39323633E-12
  -2.09500007E-02  -1.83039890E-12
  -2.08999999E-02  -2.00374786E-12
  -2.08500009E-02  -1.83022195E-12
  -2.08000001E-02  -1.37513536E-12
  -2.07499992E-02  -8.27460388E-13
  -2.07000002E-02  -4.18748667E-13
  -2.06499994E-02  -3.20107845E-13
  -2.06000004E-02  -5.62697024E-13
  -2.05499995E-02  -1.01822815E-12
  -2.05000006E-02  -1.45029789E-12
  -2.04499997E-02  -1.61596149E-12
  -2.04000007E-02  -1.37371364E-12
  -2.03499999E-02  -7.49667147E-13
  -2.03000009E-02   6.91638180E-14
  -2.02500001E-02   8.13920112E-13
  -2.01999992E-02   1.25226522E-12
  -2.01500002E-02   1.29429106E-12
  -2.00999994E-02   1.03804638E-12
  -2.00500004E-02   7.32255727E-13
  -1.99999996E-02   6.70197947E-13
  -1.99500006E-02   1.06004864E-12
  -1.98999997E-02   1.92904048E-12
  -1.98500007E-02   3.10550826E-12
  -1.97999999E-02   4.28940000E-12
  -1.97500009E-02   5.18250070E-12
  -1.97000001E-02   5.62192480E-12
  -1.96499992E-02   5.65712928E-12
  -1.96000002E-02   5.53411830E-12
  -1.95499994E-02   5.59095522E-12
  -1.95000004E-02   6.10858456E-12
  -1.94499996E-02   7.18239617E-12
  -1.94000006E-02   8.67273007E-12
  -1.93499997E-02   1.02589612E-11
  -1.93000007E-02   1.15761480E-11
  -1.92499999E-02   1.23755815E-11
  -1.92000009E-02   1.26380356E-11
  -1.91500001E-02   1.25875404E-11
  -1.90999992E-02   1.25964577E-11
  -1.90500002E-02   1.30210938E-11
  -1.89999994E-02   1.40393582E-11
  -1.89500004E-02   1.55632694E-11
  -1.88999996E-02   1.72677341E-11
  -1.88500006E-02   1.87262063E-11
  -1.87999997E-02   1.95956567E-11
  -1.87500007E-02   1.97695332E-11
  -1.86999999E-02   1.94292516E-11
  -1.86500009E-02   1.89682575E-11
  -1.86000001E-02   1.88189013E-11
  -1.85499992E-02   1.92568444E-11
  -1.85000002E-02   2.02698778E-11
  -1.84499994E-02   2.15517465E-11
  -1.84000004E-02   2.26273132E-11
  -1.83499996E-02   2.30568030E-11
  -1.83000006E-02   2.26300142E-11
  -1.82499997E-02   2.14633103E-11
  -1.82000007E-02   1.99533237E-11
  -1.81499999E-02   1.86041026E-11
  -1.81000009E-02   1.78015380E-11
  -1.80500001E-02   1.76345258E-11
  -1.79999992E-02   1.78441793E-11
  -1.79500002E-02   1.79272951E-11
  -1.78999994E-02   1.73520538E-11
  -1.78500004E-02   1.57925530E-11
  -1.77999996E-02   1.32778597E-11
  -1.77500006E-02   1.01866788E-11
  -1.76999997E-02   7.08597157E-12
  -1.76500008E-02   4.48152496E-12
  -1.75999999E-02   2.58968021E-12
  -1.75500009E-02   1.23280065E-12
  -1.75000001E-02  -9.15604330E-14
  -1.74499992E-02  -1.99419517E-12
  -1.74000002E-02  -4.92336467E-12
  -1.73499994E-02  -8.95911990E-12
  -1.73000004E-02  -1.37663336E-11
  -1.72499996E-02  -1.87314192E-11
  -1.72000006E-02  -2.32262872E-11
  -1.71499997E-02  -2.68848069E-11
  -1.71000008E-02  -2.97686216E-11
  -1.70499999E-02  -3.23455013E-11
  -1.70000009E-02  -3.52852365E-11
  -1.69500001E-02  -3.91597206E-11
  -1.68999992E-02  -4.41787093E-11
  -1.68500002E-02  -5.00800929E-11
  -1.67999994E-02  -5.62273492E-11
  -1.67500004E-02  -6.18756435E-11
  -1.66999996E-02  -6.64919092E-11
  -1.66500006E-02  -6.99873146E-11
  -1.65999997E-02  -7.27563773E-11
  -1.65500008E-02  -7.55007654E-11
  -1.64999999E-02  -7.89112664E-11
  -1.64500009E-02  -8.33465935E-11
  -1.64000001E-02  -8.86521689E-11
  -1.63499992E-02  -9.42029024E-11
  -1.63000003E-02  -9.91560861E-11
  -1.62499994E-02  -1.02806444E-10
  -1.62000004E-02  -1.04887252E-10
  -1.61499996E-02  -1.05682303E-10
  -1.61000006E-02  -1.05894495E-10
  -1.60499997E-02  -1.06324130E-10
  -1.60000008E-02  -1.07496283E-10
  -1.59499999E-02  -1.09402092E-10
  -1.59000009E-02  -1.11471714E-10
  -1.58500001E-02  -1.12796175E-10
  -1.57999992E-02  -1.12504610E-10
  -1.57500003E-02  -1.10132251E-10
  -1.56999994E-02  -1.05815190E-10
  -1.56500004E-02  -1.00221401E-10
  -1.55999996E-02  -9.42433284E-11
  -1.55499997E-02  -8.85838972E-11
  -1.54999997E-02  -8.34181266E-11
  -1.54499998E-02  -7.82826026E-11
  -1.53999999E-02  -7.22467641E-11
  -1.53500000E-02  -6.42956660E-11
  -1.53000001E-02  -5.37580987E-11
  -1.52500002E-02  -4.05906350E-11
  -1.52000003E-02  -2.53882401E-11
  -1.51500003E-02  -9.11131934E-12
  -1.51000004E-02   7.35507055E-12
  -1.50499996E-02   2.36169504E-11
  -1.49999997E-02   3.99766817E-11
  -1.49499997E-02   5.73322674E-11
  -1.48999998E-02   7.68094408E-11
  -1.48499999E-02   9.92849483E-11
  -1.48000000E-02   1.25010863E-10
  -1.47500001E-02   1.53508817E-10
  -1.47000002E-02   1.83786528E-10
  -1.46500003E-02   2.14786106E-10
  -1.46000003E-02   2.45869547E-10
  -1.45500004E-02   2.77126100E-10
  -1.44999996E-02   3.09361592E-10
  -1.44499997E-02   3.43768514E-10
  -1.43999998E-02   3.81417536E-10
  -1.43499998E-02   4.22793356E-10
  -1.42999999E-02   4.67581307E-10
  -1.42500000E-02   5.14804976E-10
  -1.42000001E-02   5.63259273E-10
  -1.41500002E-02   6.12052298E-10
  -1.41000003E-02   6.61017407E-10
  -1.40500003E-02   7.10809800E-10
  -1.40000004E-02   7.62639563E-10
  -1.39499996E-02   8.17753310E-10
  -1.38999997E-02   8.76889950E-10
  -1.38499998E-02   9.39952005E-10
  -1.37999998E-02   1.00604236E-09
  -1.37499999E-02   1.07385623E-09
  -1.37000000E-02   1.14225973E-09
  -1.36500001E-02   1.21080335E-09
  -1.36000002E-02   1.27993904E-09
  -1.35500003E-02   1.35084188E-09
  -1.35000004E-02   1.42490719E-09
  -1.34500004E-02   1.50314183E-09
  -1.33999996E-02   1.58571789E-09
  -1.33499997E-02   1.67188996E-09
  -1.32999998E-02   1.76031756E-09
  -1.32499998E-02   1.84965743E-09
  -1.31999999E-02   1.93916705E-09
  -1.31500000E-02   2.02905115E-09
  -1.31000001E-02   2.12039541E-09
  -1.30500002E-02   2.21470930E-09
  -1.30000003E-02   2.31327313E-09
  -1.29500004E-02   2.41657849E-09
  -1.29000004E-02   2.52411181E-09
  -1.28499996E-02   2.63457811E-09
  -1.27999997E-02   2.74647904E-09
  -1.27499998E-02   2.85878810E-09
  -1.26999998E-02   2.97143066E-09
  -1.26499999E-02   3.08534887E-09
  -1.26000000E-02   3.20212035E-09
  -1.25500001E-02   3.32328942E-09
  -1.25000002E-02   3.44970608E-09
  -1.24500003E-02   3.58116381E-09
  -1.24000004E-02   3.71650266E-09
  -1.23500004E-02   3.85413745E-09
  -1.22999996E-02   3.99278299E-09
  -1.22499997E-02   4.13206092E-09
  -1.21999998E-02   4.27271241E-09
  -1.21499998E-02   4.41632464E-09
  -1.20999999E-02   4.56467708E-09
  -1.20500000E-02   4.71899853E-09
  -1.20000001E-02   4.87946039E-09
  -1.19500002E-02   5.04513142E-09
  -1.19000003E-02   5.21442489E-09
  -1.18500004E-02   5.38584333E-09
  -1.18000004E-02   5.55869661E-09
  -1.17499996E-02   5.73347281E-09
  -1.16999997E-02   5.91169869E-09
  -1.16499998E-02   6.09533801E-09
  -1.15999999E-02   6.28599217E-09
  -1.15499999E-02   6.48425402E-09
  -1.15000000E-02   6.68949873E-09
  -1.14500001E-02   6.90022040E-09
  -1.14000002E-02   7.11475545E-09
  -1.13500003E-02   7.33209582E-09
  -1.13000004E-02   7.55242180E-09
  -1.12500004E-02   7.77711584E-09
  -1.11999996E-02   8.00825628E-09
  -1.11499997E-02   8.24779267E-09
  -1.10999998E-02   8.49676862E-09
  -1.10499999E-02   8.75495321E-09
  -1.09999999E-02   9.02101505E-09
  -1.09500000E-02   9.29319910E-09
  -1.09000001E-02   9.57019974E-09
  -1.08500002E-02   9.85184379E-09
  -1.08000003E-02   1.01392859E-08
  -1.07500004E-02   1.04346176E-08
  -1.07000005E-02   1.07400666E-08
  -1.06499996E-02   1.10571197E-08
  -1.05999997E-02   1.13859739E-08
  -1.05499998E-02   1.17255485E-08
  -1.04999999E-02   1.20740635E-08
  -1.04499999E-02   1.24299415E-08
  -1.04000000E-02   1.27926203E-08
  -1.03500001E-02   1.31629445E-08
  -1.03000002E-02   1.35429268E-08
  -1.02500003E-02   1.39350043E-08
  -1.02000004E-02   1.43410963E-08
  -1.01500005E-02   1.47618877E-08
  -1.00999996E-02   1.51966493E-08
  -1.00499997E-02   1.56436801E-08
  -9.99999978E-03   1.61011968E-08
  -9.94999986E-03   1.65682543E-08
  -9.89999995E-03   1.70453216E-08
  -9.85000003E-03   1.75342318E-08
  -9.80000012E-03   1.80375341E-08
  -9.75000020E-03   1.85575271E-08
  -9.70000029E-03   1.90953937E-08
  -9.65000037E-03   1.96508214E-08
  -9.60000046E-03   2.02222754E-08
  -9.54999961E-03   2.08078337E-08
  -9.49999969E-03   2.14061746E-08
  -9.44999978E-03   2.20173373E-08
  -9.39999986E-03   2.26428742E-08
  -9.34999995E-03   2.32853452E-08
  -9.30000003E-03   2.39473739E-08
  -9.25000012E-03   2.46306637E-08
  -9.20000020E-03   2.53354120E-08
  -9.15000029E-03   2.60603983E-08
  -9.10000037E-03   2.68036899E-08
  -9.05000046E-03   2.75636829E-08
  -8.99999961E-03   2.83400095E-08
  -8.94999970E-03   2.91339042E-08
  -8.89999978E-03   2.99478700E-08
  -8.84999987E-03   3.07848040E-08
  -8.79999995E-03   3.16469304E-08
  -8.75000004E-03   3.25350307E-08
  -8.70000012E-03   3.34483019E-08
  -8.65000021E-03   3.43849287E-08
  -8.60000029E-03   3.53430956E-08
  -8.55000038E-03   3.63220281E-08
  -8.50000046E-03   3.73225539E-08
  -8.44999962E-03   3.83470180E-08
  -8.39999970E-03   3.93984898E-08
  -8.34999979E-03   4.04796729E-08
  -8.29999987E-03   4.15919637E-08
  -8.24999996E-03   4.27351132E-08
  -8.20000004E-03   4.39075656E-08
  -8.15000013E-03   4.51074307E-08
  -8.10000021E-03   4.63336107E-08
  -8.05000030E-03   4.75865463E-08
  -8.00000038E-03   4.88683831E-08
  -7.95000046E-03   5.01823152E-08
  -7.89999962E-03   5.15315293E-08
  -7.84999970E-03   5.29181072E-08
  -7.79999979E-03   5.43424861E-08
  -7.74999987E-03   5.58035538E-08
  -7.69999996E-03   5.72995020E-08
  -7.65000004E-03   5.88289950E-08
  -7.60000013E-03   6.03921109E-08
  -7.55000021E-03   6.19906970E-08
  -7.49999983E-03   6.36279651E-08
  -7.44999992E-03   6.53074750E-08
  -7.40000000E-03   6.70319764E-08
  -7.35000009E-03   6.88026134E-08
  -7.30000017E-03   7.06188246E-08
  -7.24999979E-03   7.24790254E-08
  -7.19999988E-03   7.43817239E-08
  -7.14999996E-03   7.63266286E-08
  -7.10000005E-03   7.83152743E-08
  -7.05000013E-03   8.03507945E-08
  -7.00000022E-03   8.24370545E-08
  -6.94999984E-03   8.45774579E-08
  -6.89999992E-03   8.67739374E-08
  -6.85000001E-03   8.90266278E-08
  -6.80000009E-03   9.13343499E-08
  -6.75000018E-03   9.36956255E-08
  -6.69999979E-03   9.61098863E-08
  -6.64999988E-03   9.85783331E-08
  -6.59999996E-03   1.01103936E-07
  -6.55000005E-03   1.03690766E-07
  -6.50000013E-03   1.06342775E-07
  -6.45000022E-03   1.09062718E-07
  -6.39999984E-03   1.11851520E-07
  -6.34999992E-03   1.14708513E-07
  -6.30000001E-03   1.17632318E-07
  -6.25000009E-03   1.20622161E-07
  -6.20000018E-03   1.23678845E-07
  -6.14999980E-03   1.26805048E-07
  -6.09999988E-03   1.30004892E-07
  -6.04999997E-03   1.33282811E-07
  -6.00000005E-03   1.36642299E-07
  -5.95000014E-03   1.40085120E-07
  -5.90000022E-03   1.43611231E-07
  -5.84999984E-03   1.47219552E-07
  -5.79999993E-03   1.50909159E-07
  -5.75000001E-03   1.54680478E-07
  -5.70000010E-03   1.58535912E-07
  -5.65000018E-03   1.62479495E-07
  -5.59999980E-03   1.66516045E-07
  -5.54999989E-03   1.70649798E-07
  -5.49999997E-03   1.74883411E-07
  -5.45000006E-03   1.79217579E-07
  -5.40000014E-03   1.83651665E-07
  -5.35000023E-03   1.88184757E-07
  -5.29999984E-03   1.92816998E-07
  -5.24999993E-03   1.97550364E-07
  -5.20000001E-03   2.02388748E-07
  -5.15000010E-03   2.07337180E-07
  -5.10000018E-03   2.12400494E-07
  -5.04999980E-03   2.17582155E-07
  -4.99999989E-03   2.22883770E-07
  -4.94999997E-03   2.28305240E-07
  -4.90000006E-03   2.33845768E-07
  -4.85000014E-03   2.39505198E-07
  -4.80000023E-03   2.45285179E-07
  -4.74999985E-03   2.51189306E-07
  -4.69999993E-03   2.57222780E-07
  -4.65000002E-03   2.63390916E-07
  -4.60000010E-03   2.69698091E-07
  -4.55000019E-03   2.76146864E-07
  -4.49999981E-03   2.82737801E-07
  -4.44999989E-03   2.89470506E-07
  -4.39999998E-03   2.96344780E-07
  -4.35000006E-03   3.03361901E-07
  -4.30000015E-03   3.10525195E-07
  -4.25000023E-03   3.17839806E-07
  -4.19999985E-03   3.25311532E-07
  -4.14999994E-03   3.32945604E-07
  -4.10000002E-03   3.40745515E-07
  -4.05000011E-03   3.48712746E-07
  -4.00000019E-03   3.56847352E-07
  -3.94999981E-03   3.65149134E-07
  -3.89999989E-03   3.73619145E-07
  -3.84999998E-03   3.82260282E-07
  -3.80000006E-03   3.91077606E-07
  -3.74999992E-03   4.00077312E-07
  -3.70000000E-03   4.09265283E-07
  -3.65000009E-03   4.18646124E-07
  -3.59999994E-03   4.28222165E-07
  -3.55000002E-03   4.37994146E-07
  -3.50000011E-03   4.47962236E-07
  -3.44999996E-03   4.58127204E-07
  -3.40000005E-03   4.68491749E-07
  -3.34999990E-03   4.79060702E-07
  -3.29999998E-03   4.89840545E-07
  -3.25000007E-03   5.00837871E-07
  -3.19999992E-03   5.12058307E-07
  -3.15000000E-03   5.23505264E-07
  -3.10000009E-03   5.35180334E-07
  -3.04999994E-03   5.47084028E-07
  -3.00000003E-03   5.59217199E-07
  -2.95000011E-03   5.71582177E-07
  -2.89999996E-03   5.84183567E-07
  -2.85000005E-03   5.97027906E-07
  -2.79999990E-03   6.10122413E-07
  -2.74999999E-03   6.23473625E-07
  -2.70000007E-03   6.37086089E-07
  -2.64999992E-03   6.50962420E-07
  -2.60000001E-03   6.65103585E-07
  -2.55000009E-03   6.79510435E-07
  -2.49999994E-03   6.94185076E-07
  -2.45000003E-03   7.09131996E-07
  -2.40000011E-03   7.24357619E-07
  -2.34999997E-03   7.39869506E-07
  -2.30000005E-03   7.55675046E-07
  -2.24999990E-03   7.71780037E-07
  -2.19999999E-03   7.88188174E-07
  -2.15000007E-03   8.04901049E-07
  -2.09999993E-03   8.21919912E-07
  -2.05000001E-03   8.39246582E-07
  -2.00000009E-03   8.56885094E-07
  -1.94999995E-03   8.74841874E-07
  -1.90000003E-03   8.93124991E-07
  -1.85000000E-03   9.11742404E-07
  -1.79999997E-03   9.30700878E-07
  -1.75000005E-03   9.50005074E-07
  -1.70000002E-03   9.69657776E-07
  -1.64999999E-03   9.89660180E-07
  -1.59999996E-03   1.01001444E-06
  -1.55000004E-03   1.03072375E-06
  -1.50000001E-03   1.05179458E-06
  -1.44999998E-03   1.07323456E-06
  -1.39999995E-03   1.09505265E-06
  -1.35000004E-03   1.11725626E-06
  -1.30000000E-03   1.13985152E-06
  -1.24999997E-03   1.16284173E-06
  -1.20000006E-03   1.18622859E-06
  -1.15000003E-03   1.21001426E-06
  -1.09999999E-03   1.23420182E-06
  -1.04999996E-03   1.25879683E-06
  -1.00000005E-03   1.28380725E-06
  -9.50000016E-04   1.30924218E-06
  -8.99999985E-04   1.33511048E-06
  -8.50000011E-04   1.36141875E-06
  -7.99999980E-04   1.38817143E-06
  -7.50000007E-04   1.41537089E-06
  -6.99999975E-04   1.44301873E-06
  -6.50000002E-04   1.47111791E-06
  -6.00000028E-04   1.49967354E-06
  -5.49999997E-04   1.52869313E-06
  -5.00000024E-04   1.55818611E-06
  -4.49999992E-04   1.58816158E-06
  -3.99999990E-04   1.61862772E-06
  -3.49999988E-04   1.64958954E-06
  -3.00000014E-04   1.68104998E-06
  -2.50000012E-04   1.71301053E-06
  -1.99999995E-04   1.74547370E-06
  -1.50000007E-04   1.77844367E-06
  -9.99999975E-05   1.81192797E-06
  -4.99999987E-05   1.84593603E-06
   0.00000000       1.88047738E-06
   4.99999987E-05   1.91556069E-06
   9.99999975E-05   1.95119219E-06
   1.50000007E-04   1.98737530E-06
   1.99999995E-04   2.02411184E-06
   2.50000012E-04   2.06140339E-06
   3.00000014E-04   2.09925383E-06
   3.49999988E-04   2.13766975E-06
   3.99999990E-04   2.17666002E-06
   4.49999992E-04   2.21623463E-06
   5.00000024E-04   2.25640292E-06
   5.49999997E-04   2.29717216E-06
   6.00000028E-04   2.33854576E-06
   6.50000002E-04   2.38052576E-06
   6.99999975E-04   2.42311376E-06
   7.50000007E-04   2.46631225E-06
   7.99999980E-04   2.51012716E-06
   8.50000011E-04   2.55456621E-06
   8.99999985E-04   2.59963963E-06
   9.50000016E-04   2.64535720E-06
   1.00000005E-03   2.69172642E-06
   1.04999996E-03   2.73875139E-06
   1.09999999E-03   2.78643461E-06
   1.15000003E-03   2.83477652E-06
   1.20000006E-03   2.88377896E-06
   1.24999997E-03   2.93344601E-06
   1.30000000E-03   2.98378518E-06
   1.35000004E-03   3.03480601E-06
   1.39999995E-03   3.08651829E-06
   1.44999998E-03   3.13893042E-06
   1.50000001E-03   3.19204719E-06
   1.55000004E-03   3.24587018E-06
   1.59999996E-03   3.30039916E-06
   1.64999999E-03   3.35563527E-06
   1.70000002E-03   3.41158125E-06
   1.75000005E-03   3.46824299E-06
   1.79999997E-03   3.52562961E-06
   1.85000000E-03   3.58374996E-06
   1.90000003E-03   3.64261246E-06
   1.94999995E-03   3.70222187E-06
   2.00000009E-03   3.76258026E-06
   2.05000001E-03   3.82368671E-06
   2.09999993E-03   3.88554054E-06
   2.15000007E-03   3.94814288E-06
   2.19999999E-03   4.01149828E-06
   2.24999990E-03   4.07561356E-06
   2.30000005E-03   4.14049737E-06
   2.34999997E-03   4.20615743E-06
   2.40000011E-03   4.27260011E-06
   2.45000003E-03   4.33982495E-06
   2.49999994E-03   4.40783106E-06
   2.55000009E-03   4.47661660E-06
   2.60000001E-03   4.54618021E-06
   2.64999992E-03   4.61652462E-06
   2.70000007E-03   4.68765438E-06
   2.74999999E-03   4.75957813E-06
   2.79999990E-03   4.83230269E-06