  -3.99999991E-02   0.00000000    
  -3.99499983E-02   0.00000000    
  -3.99000011E-02  -1.42626346E-16
  -3.98500003E-02  -8.79625081E-16
  -3.97999994E-02  -2.81822282E-15
  -3.97499986E-02  -6.15221798E-15
  -3.97000015E-02  -9.70870689E-15
  -3.96500006E-02  -9.69667224E-15
  -3.95999998E-02   1.77194083E-15
  -3.95499989E-02   3.81958869E-14
  -3.95000018E-02   1.19477263E-13
  -3.94500010E-02   2.70303880E-13
  -3.94000001E-02   5.14025508E-13
  -3.93499993E-02   8.61465738E-13
  -3.92999984E-02   1.29814833E-12
  -3.92500013E-02   1.77813493E-12
  -3.92000005E-02   2.23397321E-12
  -3.91499996E-02   2.60649597E-12
  -3.90999988E-02   2.88600133E-12
  -3.90500017E-02   3.14408265E-12
  -3.90000008E-02   3.53228341E-12
  -3.89500000E-02   4.23546745E-12
  -3.88999991E-02   5.39117665E-12
  -3.88499983E-02   7.00963419E-12
  -3.88000011E-02   8.93829975E-12
  -3.87500003E-02   1.09014221E-11
  -3.86999995E-02   1.26116504E-11
  -3.86499986E-02   1.39114111E-11
  -3.86000015E-02   1.48763415E-11
  -3.85500006E-02   1.58183223E-11
  -3.84999998E-02   1.71655606E-11
  -3.84499989E-02   1.92576528E-11
  -3.84000018E-02   2.21453585E-11
  -3.83500010E-02   2.54973924E-11
  -3.83000001E-02   2.86762281E-11
  -3.82499993E-02   3.09666494E-11
  -3.81999984E-02   3.18626306E-11
  -3.81500013E-02   3.12821227E-11
  -3.81000005E-02   2.96068448E-11
  -3.80499996E-02   2.75230810E-11
  -3.79999988E-02   2.57309000E-11
  -3.79500017E-02   2.46492653E-11
  -3.79000008E-02   2.42440304E-11
  -3.78500000E-02   2.40465408E-11
  -3.77999991E-02   2.33429109E-11
  -3.77499983E-02   2.14414320E-11
  -3.77000012E-02   1.79041608E-11
  -3.76500003E-02   1.26649628E-11
  -3.75999995E-02   6.02324657E-12
  -3.75499986E-02  -1.44531002E-12
  -3.75000015E-02  -9.01440988E-12
  -3.74500006E-02  -1.59570326E-11
  -3.73999998E-02  -2.17401201E-11
  -3.73499990E-02  -2.62676009E-11
  -3.73000018E-02  -3.01015289E-11
  -3.72500010E-02  -3.45083025E-11
  -3.72000001E-02  -4.11646758E-11
  -3.71499993E-02  -5.14729127E-11
  -3.70999984E-02  -6.56585966E-11
  -3.70500013E-02  -8.20550641E-11
  -3.70000005E-02  -9.70653627E-11
  -3.69499996E-02  -1.06119780E-10
  -3.68999988E-02  -1.05512613E-10
  -3.68500017E-02  -9.44622783E-11
  -3.68000008E-02  -7.63727692E-11
  -3.67500000E-02  -5.83587137E-11
  -3.66999991E-02  -4.87327748E-11
  -3.66499983E-02  -5.31602436E-11
  -3.66000012E-02  -7.11024781E-11
  -3.65500003E-02  -9.44653245E-11
  -3.64999995E-02  -1.09712989E-10
  -3.64499986E-02  -1.03221612E-10
  -3.64000015E-02  -6.79251794E-11
  -3.63500006E-02  -8.20207530E-12
  -3.62999998E-02   5.98247979E-11
  -3.62499990E-02   1.13681578E-10
  -3.62000018E-02   1.34093694E-10
  -3.61500010E-02   1.14752194E-10
  -3.61000001E-02   6.74775444E-11
  -3.60499993E-02   1.93632749E-11
  -3.59999985E-02   1.88519426E-12
  -3.59500013E-02   3.59978505E-11
  -3.59000005E-02   1.19956142E-10
  -3.58499996E-02   2.26376931E-10
  -3.57999988E-02   3.11512038E-10
  -3.57500017E-02   3.34087064E-10
  -3.57000008E-02   2.75870993E-10
  -3.56500000E-02   1.54046054E-10
  -3.55999991E-02   1.79729096E-11
  -3.55499983E-02  -7.04517486E-11
  -3.55000012E-02  -6.56347962E-11
  -3.54500003E-02   3.65359860E-11
  -3.53999995E-02   1.90153310E-10
  -3.53499986E-02   3.14064968E-10
  -3.53000015E-02   3.26102506E-10
  -3.52500007E-02   1.82779181E-10
  -3.51999998E-02  -9.41665010E-11
  -3.51499990E-02  -4.19113494E-10
  -3.51000018E-02  -6.74882483E-10
  -3.50500010E-02  -7.64454500E-10
  -3.50000001E-02  -6.59571509E-10
  -3.49499993E-02  -4.22349378E-10
  -3.48999985E-02  -1.86094626E-10
  -3.48500013E-02  -9.95354910E-11
  -3.48000005E-02  -2.56873856E-10
  -3.47499996E-02  -6.45624665E-10
  -3.46999988E-02  -1.13943999E-09
  -3.46500017E-02  -1.54461566E-09
  -3.46000008E-02  -1.68412961E-09
  -3.45500000E-02  -1.48318779E-09
  -3.44999991E-02  -1.01552566E-09
  -3.44499983E-02  -4.84071283E-10
  -3.44000012E-02  -1.38149131E-10
  -3.43500003E-02  -1.59954355E-10
  -3.42999995E-02  -5.71109660E-10
  -3.42499986E-02  -1.20579580E-09
  -3.42000015E-02  -1.76996995E-09
  -3.41500007E-02  -1.96715844E-09
  -3.40999998E-02  -1.63768532E-09
  -3.40499990E-02  -8.46579973E-10
  -3.40000018E-02   1.26451585E-10
  -3.39500010E-02   8.99469166E-10
  -3.39000002E-02   1.15939269E-09
  -3.38499993E-02   8.16055279E-10
  -3.37999985E-02   6.46650372E-11
  -3.37500013E-02  -6.81222689E-10
  -3.37000005E-02  -9.66193570E-10
  -3.36499996E-02  -5.05287368E-10
  -3.35999988E-02   6.64979738E-10
  -3.35500017E-02   2.17361085E-09
  -3.35000008E-02   3.45839624E-09
  -3.34500000E-02   4.01151024E-09
  -3.33999991E-02   3.62060359E-09
  -3.33499983E-02   2.49160204E-09
  -3.33000012E-02   1.18559840E-09
  -3.32500003E-02   3.84149212E-10
  -3.31999995E-02   5.79097159E-10
  -3.31499986E-02   1.82623372E-09
  -3.31000015E-02   3.68326436E-09
  -3.30500007E-02   5.37562794E-09
  -3.29999998E-02   6.13043882E-09
  -3.29499990E-02   5.53555335E-09
  -3.29000019E-02   3.75805076E-09
  -3.28500010E-02   1.50954749E-09
  -3.28000002E-02  -2.44448128E-10
  -3.27499993E-02  -7.14645010E-10
  -3.26999985E-02   3.32563532E-10
  -3.26500013E-02   2.42654719E-09
  -3.26000005E-02   4.56037563E-09
  -3.25499997E-02   5.61953506E-09
  -3.24999988E-02   4.89054264E-09
  -3.24500017E-02   2.41901432E-09
  -3.24000008E-02  -9.59032742E-10
  -3.23500000E-02  -3.94906419E-09
  -3.22999991E-02  -5.36351630E-09
  -3.22499983E-02  -4.67440531E-09
  -3.22000012E-02  -2.29642394E-09
  -3.21500003E-02   5.47854595E-10
  -3.20999995E-02   2.34496333E-09
  -3.20499986E-02   1.97468508E-09
  -3.20000015E-02  -7.44641404E-10
  -3.19500007E-02  -4.91051999E-09
  -3.18999998E-02  -8.88248586E-09
  -3.18499990E-02  -1.09904619E-08
  -3.18000019E-02  -1.03004405E-08
  -3.17500010E-02  -7.08773262E-09
  -3.17000002E-02  -2.78202750E-09
  -3.16499993E-02   6.21990404E-10
  -3.15999985E-02   1.44869805E-09
  -3.15500014E-02  -8.69320005E-10
  -3.15000005E-02  -5.46560885E-09
  -3.14499997E-02  -1.03541540E-08
  -3.13999988E-02  -1.32757823E-08
  -3.13500017E-02  -1.27179449E-08
  -3.13000008E-02  -8.64946870E-09
  -3.12500000E-02  -2.61730726E-09
  -3.11999992E-02   2.87408253E-09
  -3.11500002E-02   5.45534595E-09
  -3.10999993E-02   3.98173405E-09
  -3.10500003E-02  -8.79568696E-10
  -3.09999995E-02  -6.85985535E-09
  -3.09500005E-02  -1.10429976E-08
  -3.08999997E-02  -1.11660112E-08
  -3.08500007E-02  -6.68971190E-09
  -3.07999998E-02   8.61430205E-10
  -3.07500008E-02   8.48266257E-09
  -3.07000000E-02   1.29760105E-08
  -3.06499992E-02   1.23892132E-08
  -3.06000002E-02   6.95829216E-09
  -3.05499993E-02  -8.99777086E-10
  -3.05000003E-02  -7.58666197E-09
  -3.04499995E-02  -9.90678384E-09
  -3.04000005E-02  -6.54255228E-09
  -3.03499997E-02   1.25579014E-09
  -3.03000007E-02   1.01162767E-08
  -3.02499998E-02   1.59771556E-08
  -3.02000009E-02   1.58988875E-08
  -3.01500000E-02   9.44971923E-09
  -3.00999992E-02  -9.84493043E-10
  -3.00500002E-02  -1.11557865E-08
  -2.99999993E-02  -1.67978893E-08
  -2.99500003E-02  -1.55607598E-08
  -2.98999995E-02  -8.16177614E-09
  -2.98500005E-02   1.80343607E-09
  -2.97999997E-02   9.36357036E-09
  -2.97500007E-02   1.03637241E-08
  -2.96999998E-02   3.38344264E-09
  -2.96500009E-02  -9.49997858E-09
  -2.96000000E-02  -2.34979378E-08
  -2.95499992E-02  -3.31564181E-08
  -2.95000002E-02  -3.47884210E-08
  -2.94499993E-02  -2.82083938E-08
  -2.94000003E-02  -1.69550187E-08
  -2.93499995E-02  -6.83909951E-09
  -2.93000005E-02  -3.40419204E-09
  -2.92499997E-02  -9.40319111E-09
  -2.92000007E-02  -2.34316122E-08
  -2.91499998E-02  -4.03815399E-08
  -2.91000009E-02  -5.35844613E-08
  -2.90500000E-02  -5.77435699E-08
  -2.89999992E-02  -5.13644274E-08
  -2.89500002E-02  -3.75685083E-08
  -2.88999993E-02  -2.28600712E-08
  -2.88500004E-02  -1.43230530E-08
  -2.87999995E-02  -1.64505103E-08
  -2.87500005E-02  -2.90204518E-08
  -2.86999997E-02  -4.70137920E-08
  -2.86500007E-02  -6.26873273E-08
  -2.85999998E-02  -6.89485944E-08
  -2.85500009E-02  -6.25616750E-08
  -2.85000000E-02  -4.57354759E-08
  -2.84499992E-02  -2.53209613E-08
  -2.84000002E-02  -9.89220528E-09
  -2.83499993E-02  -5.94754956E-09
  -2.83000004E-02  -1.49079753E-08
  -2.82499995E-02  -3.22907603E-08
  -2.82000005E-02  -4.95072818E-08
  -2.81499997E-02  -5.75702401E-08
  -2.81000007E-02  -5.11115239E-08
  -2.80499998E-02  -3.09165991E-08
  -2.80000009E-02  -3.78553366E-09
  -2.79500000E-02   2.03095496E-08
  -2.78999992E-02   3.25871490E-08
  -2.78500002E-02   2.94327975E-08
  -2.77999993E-02   1.41915333E-08
  -2.77500004E-02  -4.10195300E-09
  -2.76999995E-02  -1.45886627E-08
  -2.76500005E-02  -9.39875200E-09
  -2.75999997E-02   1.27143389E-08
  -2.75500007E-02   4.55883011E-08
  -2.74999999E-02   7.81617047E-08
  -2.74500009E-02   9.92622233E-08
  -2.74000000E-02   1.02601234E-07
  -2.73499992E-02   8.97427768E-08
  -2.73000002E-02   6.96504543E-08
  -2.72499993E-02   5.49045609E-08
  -2.72000004E-02   5.61769120E-08
  -2.71499995E-02   7.73816566E-08
  -2.71000005E-02   1.13694107E-07
  -2.70499997E-02   1.53414106E-07
  -2.70000007E-02   1.82960079E-07
  -2.69499999E-02   1.92856248E-07
  -2.69000009E-02   1.82065307E-07
  -2.68500000E-02   1.58678205E-07
  -2.67999992E-02   1.36542766E-07
  -2.67500002E-02   1.29217128E-07
  -2.66999993E-02   1.43872569E-07
  -2.66500004E-02   1.77871271E-07
  -2.65999995E-02   2.19627594E-07
  -2.65500005E-02   2.53493170E-07
  -2.64999997E-02   2.66598619E-07
  -2.64500007E-02   2.54649905E-07
  -2.63999999E-02   2.24057942E-07
  -2.63500009E-02   1.89345215E-07
  -2.63000000E-02   1.66853084E-07
  -2.62499992E-02   1.67458438E-07
  -2.62000002E-02   1.91526240E-07
  -2.61499994E-02   2.28415644E-07
  -2.61000004E-02   2.60887759E-07
  -2.60499995E-02   2.72580451E-07
  -2.60000005E-02   2.55294850E-07
  -2.59499997E-02   2.12834607E-07
  -2.59000007E-02   1.59589263E-07
  -2.58499999E-02   1.14353789E-07
  -2.58000009E-02   9.20164140E-08
  -2.57500000E-02   9.67720837E-08
  -2.56999992E-02   1.19931443E-07
  -2.56500002E-02   1.43425439E-07
  -2.55999994E-02   1.47590612E-07
  -2.55500004E-02   1.19871814E-07
  -2.54999995E-02   6.05815131E-08
  -2.54500005E-02  -1.69298833E-08
  -2.53999997E-02  -9.19121632E-08
  -2.53500007E-02  -1.45294010E-07
  -2.52999999E-02  -1.68238529E-07
  -2.52500009E-02  -1.66348457E-07
  -2.52000000E-02  -1.57538182E-07
  -2.51499992E-02  -1.64367052E-07
  -2.51000002E-02  -2.04117711E-07
  -2.50499994E-02  -2.80986399E-07
  -2.50000004E-02  -3.83916927E-07
  -2.49499995E-02  -4.91175911E-07
  -2.49000005E-02  -5.79788093E-07
  -2.48499997E-02  -6.35739582E-07
  -2.48000007E-02  -6.60420710E-07
  -2.47499999E-02  -6.70352165E-07
  -2.47000009E-02  -6.90165166E-07
  -2.46500000E-02  -7.41811505E-07
  -2.45999992E-02  -8.34725427E-07
  -2.45500002E-02  -9.61339538E-07
  -2.44999994E-02  -1.10006852E-06
  -2.44500004E-02  -1.22459198E-06
  -2.43999995E-02  -1.31544084E-06
  -2.43500005E-02  -1.36877736E-06
  -2.42999997E-02  -1.39840267E-06
  -2.42500007E-02  -1.42995918E-06
  -2.41999999E-02  -1.48974652E-06
  -2.41500009E-02  -1.59302078E-06
  -2.41000000E-02  -1.73697219E-06
  -2.40499992E-02  -1.90160085E-06
  -2.40000002E-02  -2.05825631E-06
  -2.39499994E-02  -2.18219270E-06
  -2.39000004E-02  -2.26363136E-06
  -2.38499995E-02  -2.31238232E-06
  -2.38000005E-02  -2.35384141E-06
  -2.37499997E-02  -2.41798352E-06
  -2.37000007E-02  -2.52610880E-06
  -2.36499999E-02  -2.68119447E-06
  -2.36000009E-02  -2.86620661E-06
  -2.35500000E-02  -3.05126673E-06
  -2.34999992E-02  -3.20665413E-06
  -2.34500002E-02  -3.31597403E-06
  -2.33999994E-02  -3.38364248E-06
  -2.33500004E-02  -3.43326451E-06
  -2.32999995E-02  -3.49747279E-06
  -2.32500006E-02  -3.60359127E-06
  -2.31999997E-02  -3.76141747E-06
  -2.31500007E-02  -3.95857796E-06
  -2.30999999E-02  -4.16563944E-06
  -2.30500009E-02  -4.34887670E-06
  -2.30000000E-02  -4.48514311E-06
  -2.29499992E-02  -4.57228998E-06
  -2.29000002E-02  -4.63043989E-06
  -2.28499994E-02  -4.69341830E-06
  -2.28000004E-02  -4.79398614E-06
  -2.27499995E-02  -4.94931237E-06
  -2.27000006E-02  -5.15315196E-06
  -2.26499997E-02  -5.37827646E-06
  -2.26000007E-02  -5.58823285E-06
  -2.25499999E-02  -5.75335889E-06
  -2.25000009E-02  -5.86401620E-06
  -2.24500000E-02  -5.93513505E-06
  -2.23999992E-02  -5.99995928E-06
  -2.23500002E-02  -6.09560948E-06
  -2.22999994E-02  -6.24674112E-06
  -2.22500004E-02  -6.45452474E-06
  -2.21999995E-02  -6.69587098E-06
  -2.21500006E-02  -6.93338916E-06
  -2.20999997E-02  -7.13179270E-06
  -2.20500007E-02  -7.27360202E-06
  -2.19999999E-02  -7.36715856E-06
  -2.19500009E-02  -7.44331555E-06
  -2.19000001E-02  -7.54214580E-06
  -2.18499992E-02  -7.69543931E-06
  -2.18000002E-02  -7.91266120E-06
  -2.17499994E-02  -8.17657929E-06
  -2.17000004E-02  -8.45066370E-06
  -2.16499995E-02  -8.69509950E-06
  -2.16000006E-02  -8.88440900E-06
  -2.15499997E-02  -9.01893418E-06
  -2.15000007E-02  -9.12506948E-06
  -2.14499999E-02  -9.24401502E-06
  -2.14000009E-02  -9.41389408E-06
  -2.13500001E-02  -9.65302388E-06
  -2.12999992E-02  -9.95175742E-06
  -2.12500002E-02  -1.02766135E-05
  -2.11999994E-02  -1.05849222E-05
  -2.11500004E-02  -1.08436743E-05
  -2.10999995E-02  -1.10442688E-05
  -2.10500006E-02  -1.12066709E-05
  -2.09999997E-02  -1.13710412E-05
  -2.09500007E-02  -1.15803687E-05
  -2.08999999E-02  -1.18617600E-05
  -2.08500009E-02  -1.22145548E-05
  -2.08000001E-02  -1.26105124E-05
  -2.07499992E-02  -1.30061653E-05
  -2.07000002E-02  -1.33619569E-05
  -2.06499994E-02  -1.36597846E-05
  -2.06000004E-02  -1.39112544E-05
  -2.05499995E-02  -1.41529599E-05
  -2.05000006E-02  -1.44307160E-05
  -2.04499997E-02  -1.47796409E-05
  -2.04000007E-02  -1.52088242E-05
  -2.03499999E-02  -1.56973019E-05
  -2.03000009E-02  -1.62032266E-05
  -2.02500001E-02  -1.66822520E-05
  -2.01999992E-02  -1.71071642E-05
  -2.01500002E-02  -1.74800625E-05
  -2.00999994E-02  -1.78317787E-05
  -2.00500004E-02  -1.82087351E-05
  -1.99999996E-02  -1.86527923E-05
  -1.99500006E-02  -1.91830695E-05
  -1.98999997E-02  -1.97875561E-05
  -1.98500007E-02  -2.04283388E-05
  -1.97999999E-02  -2.10582693E-05
  -1.97500009E-02  -2.16416520E-05
  -1.97000001E-02  -2.21700884E-05
  -1.96499992E-02  -2.26664815E-05
  -1.96000002E-02  -2.31753038E-05
  -1.95499994E-02  -2.37433942E-05
  -1.95000004E-02  -2.43996146E-05
  -1.94499996E-02  -2.51422971E-05
  -1.94000006E-02  -2.59399967E-05
  -1.93499997E-02  -2.67452524E-05
  -1.93000007E-02  -2.75153743E-05
  -1.92499999E-02  -2.82312922E-05
  -1.92000009E-02  -2.89061791E-05
  -1.91500001E-02  -2.95799910E-05
  -1.90999992E-02  -3.03023517E-05
  -1.90500002E-02  -3.11110598E-05
  -1.89999994E-02  -3.20157596E-05
  -1.89500004E-02  -3.29937830E-05
  -1.88999996E-02  -3.40000661E-05
  -1.88500006E-02  -3.49868860E-05
  -1.87999997E-02  -3.59248479E-05
  -1.87500007E-02  -3.68158398E-05
  -1.86999999E-02  -3.76925309E-05
  -1.86500009E-02  -3.86044485E-05
  -1.86000001E-02  -3.95965762E-05
  -1.85499992E-02  -4.06898871E-05
  -1.85000002E-02  -4.18723757E-05
  -1.84499994E-02  -4.31043627E-05
  -1.84000004E-02  -4.43359131E-05
  -1.83499996E-02  -4.55286499E-05
  -1.83000006E-02  -4.66728306E-05
  -1.82499997E-02  -4.77918147E-05
  -1.82000007E-02  -4.89321537E-05
  -1.81499999E-02  -5.01438262E-05
  -1.81000009E-02  -5.14586427E-05
  -1.80500001E-02  -5.28764867E-05
  -1.79999992E-02  -5.43657370E-05
  -1.79500002E-02  -5.58770553E-05
  -1.78999994E-02  -5.73650577E-05
  -1.78500004E-02  -5.88084149E-05
  -1.77999996E-02  -6.02192995E-05
  -1.77500006E-02  -6.16385441E-05
  -1.76999997E-02  -6.31183648E-05
  -1.76500008E-02  -6.46999251E-05
  -1.75999999E-02  -6.63957253E-05
  -1.75500009E-02  -6.81844031E-05
  -1.75000001E-02  -7.00203018E-05
  -1.74499992E-02  -7.18534939E-05
  -1.74000002E-02  -7.36518414E-05
  -1.73499994E-02  -7.54153079E-05
  -1.73000004E-02  -7.71762570E-05
  -1.72499996E-02  -7.89862752E-05
  -1.72000006E-02  -8.08942641E-05
  -1.71499997E-02  -8.29255077E-05
  -1.71000008E-02  -8.50711658E-05
  -1.70499999E-02  -8.72923847E-05
  -1.70000009E-02  -8.95374033E-05
  -1.69500001E-02  -9.17645593E-05
  -1.68999992E-02  -9.39608726E-05
  -1.68500002E-02  -9.61480837E-05
  -1.67999994E-02  -9.83737482E-05
  -1.67500004E-02  -1.00691366E-04
  -1.66999996E-02  -1.03137696E-04
  -1.66500006E-02  -1.05717125E-04
  -1.65999997E-02  -1.08400309E-04
  -1.65500008E-02  -1.11137364E-04
  -1.64999999E-02  -1.13879782E-04
  -1.64500009E-02  -1.16601921E-04
  -1.64000001E-02  -1.19312928E-04
  -1.63499992E-02  -1.22053323E-04
  -1.63000003E-02  -1.24878192E-04
  -1.62499994E-02  -1.27833759E-04
  -1.62000004E-02  -1.30938075E-04
  -1.61499996E-02  -1.34174043E-04
  -1.61000006E-02  -1.37496769E-04
  -1.60499997E-02  -1.40853313E-04
  -1.60000008E-02  -1.44206482E-04
  -1.59499999E-02  -1.47551516E-04
  -1.59000009E-02  -1.50918975E-04
  -1.58500001E-02  -1.54362118E-04
  -1.57999992E-02  -1.57934279E-04
  -1.57500003E-02  -1.61666991E-04
  -1.56999994E-02  -1.65556266E-04
  -1.56500004E-02  -1.69564781E-04
  -1.55999996E-02  -1.73638575E-04
  -1.55499997E-02  -1.77730486E-04
  -1.54999997E-02  -1.81821408E-04
  -1.54499998E-02  -1.85929748E-04
  -1.53999999E-02  -1.90104009E-04
  -1.53500000E-02  -1.94402630E-04
  -1.53000001E-02  -1.98869035E-04
  -1.52500002E-02  -2.03513671E-04
  -1.52000003E-02  -2.08309968E-04
  -1.51500003E-02  -2.13205465E-04
  -1.51000004E-02  -2.18145608E-04
  -1.50499996E-02  -2.23097319E-04
  -1.49999997E-02  -2.28064702E-04
  -1.49499997E-02  -2.33088198E-04
  -1.48999998E-02  -2.38227207E-04
  -1.48499999E-02  -2.43535746E-04
  -1.48000000E-02  -2.49039353E-04
  -1.47500001E-02  -2.54724000E-04
  -1.47000002E-02  -2.60542613E-04
  -1.46500003E-02  -2.66435498E-04
  -1.46000003E-02  -2.72357662E-04
  -1.45500004E-02  -2.78298656E-04
  -1.44999996E-02  -2.84287351E-04
  -1.44499997E-02  -2.90381431E-04
  -1.43999998E-02  -2.96642305E-04
  -1.43499998E-02  -3.03109147E-04
  -1.42999999E-02  -3.09781957E-04
  -1.42500000E-02  -3.16622609E-04
  -1.42000001E-02  -3.23571905E-04
  -1.41500002E-02  -3.30574461E-04
  -1.41000003E-02  -3.37604055E-04
  -1.40500003E-02  -3.44676373E-04
  -1.40000004E-02  -3.51842435E-04
  -1.39499996E-02  -3.59168305E-04
  -1.38999997E-02  -3.66706314E-04
  -1.38499998E-02  -3.74472642E-04
  -1.37999998E-02  -3.82440456E-04
  -1.37499999E-02  -3.90550907E-04
  -1.37000000E-02  -3.98741395E-04
  -1.36500001E-02  -4.06972191E-04
  -1.36000002E-02  -4.15243994E-04
  -1.35500003E-02  -4.23599966E-04
  -1.35000004E-02  -4.32107307E-04
  -1.34500004E-02  -4.40828939E-04
  -1.33999996E-02  -4.49796265E-04
  -1.33499997E-02  -4.58996044E-04
  -1.32999998E-02  -4.68375976E-04
  -1.32499998E-02  -4.77867987E-04
  -1.31999999E-02  -4.87419340E-04
  -1.31500000E-02  -4.97016415E-04
  -1.31000001E-02  -5.06690878E-04
  -1.30500002E-02  -5.16506785E-04
  -1.30000003E-02  -5.26535208E-04
  -1.29500004E-02  -5.36823587E-04
  -1.29000004E-02  -5.47374249E-04
  -1.28499996E-02  -5.58143191E-04
  -1.27999997E-02  -5.69061260E-04
  -1.27499998E-02  -5.80064952E-04
  -1.26999998E-02  -5.91123593E-04
  -1.26499999E-02  -6.02255284E-04
  -1.26000000E-02  -6.13520795E-04
  -1.25500001E-02  -6.24997017E-04
  -1.25000002E-02  -6.36743614E-04
  -1.24500003E-02  -6.48777117E-04
  -1.24000004E-02  -6.61063998E-04
  -1.23500004E-02  -6.73537084E-04
  -1.22999996E-02  -6.86126470E-04
  -1.22499997E-02  -6.98788266E-04
  -1.21999998E-02  -7.11526605E-04
  -1.21499998E-02  -7.24395504E-04
  -1.20999999E-02  -7.37473834E-04
  -1.20500000E-02  -7.50831387E-04
  -1.20000001E-02  -7.64499418E-04
  -1.19500002E-02  -7.78456801E-04
  -1.19000003E-02  -7.92640494E-04
  -1.18500004E-02  -8.06972734E-04
  -1.18000004E-02  -8.21395312E-04
  -1.17499996E-02  -8.35896761E-04
  -1.16999997E-02  -8.50518409E-04
  -1.16499998E-02  -8.65338778E-04
  -1.15999999E-02  -8.80438136E-04
  -1.15499999E-02  -8.95866018E-04
  -1.15000000E-02  -9.11618699E-04
  -1.14500001E-02  -9.27641522E-04
  -1.14000002E-02  -9.43853986E-04
  -1.13500003E-02  -9.60186298E-04
  -1.13000004E-02  -9.76611394E-04
  -1.12500004E-02  -9.93154361E-04
  -1.11999996E-02  -1.00988522E-03
  -1.11499997E-02  -1.02689245E-03
  -1.10999998E-02  -1.04423775E-03
  -1.10499999E-02  -1.06192997E-03
  -1.09999999E-02  -1.07992312E-03
  -1.09500000E-02  -1.09813339E-03
  -1.09000001E-02  -1.11647870E-03
  -1.08500002E-02  -1.13491656E-03
  -1.08000003E-02  -1.15346280E-03
  -1.07500004E-02  -1.17218704E-03
  -1.07000005E-02  -1.19118206E-03
  -1.06499996E-02  -1.21052307E-03
  -1.05999997E-02  -1.23023347E-03
  -1.05499998E-02  -1.25027704E-03
  -1.04999999E-02  -1.27057405E-03
  -1.04499999E-02  -1.29103649E-03
  -1.04000000E-02  -1.31160417E-03
  -1.03500001E-02  -1.33227359E-03
  -1.03000002E-02  -1.35310134E-03
  -1.02500003E-02  -1.37417705E-03
  -1.02000004E-02  -1.39558781E-03
  -1.01500005E-02  -1.41737272E-03
  -1.00999996E-02  -1.43950875E-03
  -1.00499997E-02  -1.46191998E-03
  -9.99999978E-03  -1.48451293E-03
  -9.94999986E-03  -1.50721427E-03
  -9.89999995E-03  -1.53000199E-03
  -9.85000003E-03  -1.55291893E-03
  -9.80000012E-03  -1.57605344E-03
  -9.75000020E-03  -1.59950077E-03
  -9.70000029E-03  -1.62331853E-03
  -9.65000037E-03  -1.64749962E-03
  -9.60000046E-03  -1.67197408E-03
  -9.54999961E-03  -1.69664470E-03
  -9.49999969E-03  -1.72142556E-03
  -9.44999978E-03  -1.74628268E-03
  -9.39999986E-03  -1.77124492E-03
  -9.34999995E-03  -1.79639249E-03
  -9.30000003E-03  -1.82182528E-03
  -9.25000012E-03  -1.84761710E-03
  -9.20000020E-03  -1.87378016E-03
  -9.15000029E-03  -1.90024718E-03
  -9.10000037E-03  -1.92690664E-03
  -9.05000046E-03  -1.95365632E-03
  -8.99999961E-03  -1.98044349E-03
  -8.94999970E-03  -2.00728280E-03
  -8.89999978E-03  -2.03425251E-03
  -8.84999987E-03  -2.06145598E-03
  -8.79999995E-03  -2.08898052E-03
  -8.75000004E-03  -2.11685803E-03
  -8.70000012E-03  -2.14503403E-03
  -8.65000021E-03  -2.17339443E-03
  -8.60000029E-03  -2.20182701E-03
  -8.55000038E-03  -2.23026285E-03
  -8.50000046E-03  -2.25870148E-03
  -8.44999962E-03  -2.28721579E-03
  -8.39999970E-03  -2.31591333E-03
  -8.34999979E-03  -2.34489050E-03
  -8.29999987E-03  -2.37418828E-03
  -8.24999996E-03  -2.40376545E-03
  -8.20000004E-03  -2.43351655E-03
  -8.15000013E-03  -2.46332097E-03
  -8.10000021E-03  -2.49308487E-03
  -8.05000030E-03  -2.52278056E-03
  -8.00000038E-03  -2.55247159E-03
  -7.95000046E-03  -2.58226250E-03
  -7.89999962E-03  -2.61225225E-03
  -7.84999970E-03  -2.64249905E-03
  -7.79999979E-03  -2.67298194E-03
  -7.74999987E-03  -2.70360499E-03
  -7.69999996E-03  -2.73423223E-03
  -7.65000004E-03  -2.76475004E-03
  -7.60000013E-03  -2.79511674E-03
  -7.55000021E-03  -2.82536959E-03
  -7.49999983E-03  -2.85561220E-03
  -7.44999992E-03  -2.88597168E-03
  -7.40000000E-03  -2.91653047E-03
  -7.35000009E-03  -2.94728181E-03
  -7.30000017E-03  -2.97812978E-03
  -7.24999979E-03  -3.00893141E-03
  -7.19999988E-03  -3.03954678E-03
  -7.14999996E-03  -3.06990743E-03
  -7.10000005E-03  -3.10004340E-03
  -7.05000013E-03  -3.13004944E-03
  -7.00000022E-03  -3.16004548E-03
  -6.94999984E-03  -3.19013349E-03
  -6.89999992E-03  -3.22033651E-03
  -6.85000001E-03  -3.25056585E-03
  -6.80000009E-03  -3.28067644E-03
  -6.75000018E-03  -3.31051857E-03
  -6.69999979E-03  -3.33999214E-03
  -6.64999988E-03  -3.36908759E-03
  -6.59999996E-03  -3.39789060E-03
  -6.55000005E-03  -3.42654018E-03
  -6.50000013E-03  -3.45513946E-03
  -6.45000022E-03  -3.48372385E-03
  -6.39999984E-03  -3.51224700E-03
  -6.34999992E-03  -3.54057015E-03
  -6.30000001E-03  -3.56851821E-03
  -6.25000009E-03  -3.59595590E-03
  -6.20000018E-03  -3.62284714E-03
  -6.14999980E-03  -3.64926341E-03
  -6.09999988E-03  -3.67534463E-03
  -6.04999997E-03  -3.70122958E-03
  -6.00000005E-03  -3.72697832E-03
  -5.95000014E-03  -3.75254569E-03
  -5.90000022E-03  -3.77779431E-03
  -5.84999984E-03  -3.80253117E-03
  -5.79999993E-03  -3.82659747E-03
  -5.75000001E-03  -3.84993735E-03
  -5.70000010E-03  -3.87260574E-03
  -5.65000018E-03  -3.89473047E-03
  -5.59999980E-03  -3.91645543E-03
  -5.54999989E-03  -3.93786374E-03
  -5.49999997E-03  -3.95892560E-03
  -5.45000006E-03  -3.97950830E-03
  -5.40000014E-03  -3.99942789E-03
  -5.35000023E-03  -4.01851535E-03
  -5.29999984E-03  -4.03667241E-03
  -5.24999993E-03  -4.05391306E-03
  -5.20000001E-03  -4.07035137E-03
  -5.15000010E-03  -4.08615591E-03
  -5.10000018E-03  -4.10144078E-03
  -5.04999980E-03  -4.11620550E-03
  -4.99999989E-03  -4.13034065E-03
  -4.94999997E-03  -4.14365530E-03
  -4.90000006E-03  -4.15594410E-03
  -4.85000014E-03  -4.16707015E-03
  -4.80000023E-03  -4.17704461E-03
  -4.74999985E-03  -4.18596901E-03
  -4.69999993E-03  -4.19399049E-03
  -4.65000002E-03  -4.20122826E-03
  -4.60000010E-03  -4.20770282E-03
  -4.55000019E-03  -4.21332568E-03
  -4.49999981E-03  -4.21791803E-03
  -4.44999989E-03  -4.22128569E-03
  -4.39999998E-03  -4.22327220E-03
  -4.35000006E-03  -4.22382029E-03
  -4.30000015E-03  -4.22299234E-03
  -4.25000023E-03  -4.22094250E-03
  -4.19999985E-03  -4.21783328E-03
  -4.14999994E-03  -4.21373639E-03
  -4.10000002E-03  -4.20857733E-03
  -4.05000011E-03  -4.20216331E-03
  -4.00000019E-03  -4.19427268E-03
  -3.94999981E-03  -4.18470241E-03
  -3.89999989E-03  -4.17336635E-03
  -3.84999998E-03  -4.16032877E-03
  -3.80000006E-03  -4.14576475E-03
  -3.74999992E-03  -4.12986800E-03
  -3.70000000E-03  -4.11272794E-03
  -3.65000009E-03  -4.09428636E-03
  -3.59999994E-03  -4.07433510E-03
  -3.55000002E-03  -4.05261433E-03
  -3.50000011E-03  -4.02891356E-03
  -3.44999996E-03  -4.00313456E-03
  -3.40000005E-03  -3.97533225E-03
  -3.34999990E-03  -3.94565519E-03
  -3.29999998E-03  -3.91427381E-03
  -3.25000007E-03  -3.88130243E-03
  -3.19999992E-03  -3.84672126E-03
  -3.15000000E-03  -3.81036894E-03
  -3.10000009E-03  -3.77198239E-03
  -3.04999994E-03  -3.73130548E-03
  -3.00000003E-03  -3.68818385E-03
  -2.95000011E-03  -3.64263915E-03
  -2.89999996E-03  -3.59482202E-03
  -2.85000005E-03  -3.54492548E-03
  -2.79999990E-03  -3.49311554E-03
  -2.74999999E-03  -3.43942386E-03
  -2.70000007E-03  -3.38370330E-03
  -2.64999992E-03  -3.32567096E-03
  -2.60000001E-03  -3.26503208E-03
  -2.55000009E-03  -3.20157129E-03
  -2.49999994E-03  -3.13523808E-03
  -2.45000003E-03  -3.06620379E-03
  -2.40000011E-03  -2.99469754E-03
  -2.34999997E-03  -2.92091770E-03
  -2.30000005E-03  -2.84495531E-03
  -2.24999990E-03  -2.76670256E-03
  -2.19999999E-03  -2.68586562E-03
  -2.15000007E-03  -2.60209269E-03
  -2.09999993E-03  -2.51512276E-03
  -2.05000001E-03  -2.42483802E-03
  -2.00000009E-03  -2.33134232E-03
  -1.94999995E-03  -2.23489758E-03
  -1.90000003E-03  -2.13579484E-03
  -1.85000000E-03  -2.03417777E-03
  -1.79999997E-03  -1.92993809E-03
  -1.75000005E-03  -1.82281202E-03
  -1.70000002E-03  -1.71240722E-03
  -1.64999999E-03  -1.59838970E-03
  -1.59999996E-03  -1.48066110E-03
  -1.55000004E-03  -1.35931640E-03
  -1.50000001E-03  -1.23459869E-03
  -1.44999998E-03  -1.10678573E-03
  -1.39999995E-03  -9.76088573E-04
  -1.35000004E-03  -8.42473703E-04
  -1.30000000E-03  -7.05679937E-04
  -1.24999997E-03  -5.65335329E-04
  -1.20000006E-03  -4.21051198E-04
  -1.15000003E-03  -2.72625883E-04
  -1.09999999E-03  -1.20120952E-04
  -1.04999996E-03   3.62116371E-05
  -1.00000005E-03   1.96063513E-04
  -9.50000016E-04   3.59214901E-04
  -8.99999985E-04   5.25644224E-04
  -8.50000011E-04   6.95581548E-04
  -7.99999980E-04   8.69411451E-04
  -7.50000007E-04   1.04751566E-03
  -6.99999975E-04   1.23013183E-03
  -6.50000002E-04   1.41724711E-03
  -6.00000028E-04   1.60863774E-03
  -5.49999997E-04   1.80398428E-03
  -5.00000024E-04   2.00301432E-03
  -4.49999992E-04   2.20564962E-03
  -3.99999990E-04   2.41206563E-03
  -3.49999988E-04   2.62259669E-03
  -3.00000014E-04   2.83764023E-03
  -2.50000012E-04   3.05752945E-03
  -1.99999995E-04   3.28234723E-03
  -1.50000007E-04   3.51189077E-03
  -9.99999975E-05   3.74580594E-03
  -4.99999987E-05   3.98376444E-03
   0.00000000       4.22563590E-03
   4.99999987E-05   4.47153673E-03
   9.99999975E-05   4.72180545E-03
   1.50000007E-04   4.97686351E-03
   1.99999995E-04   5.23702428E-03
   2.50000012E-04   5.50245354E-03
   3.00000014E-04   5.77303721E-03
   3.49999988E-04   6.04844326E-03
   3.99999990E-04   6.32830150E-03
   4.49999992E-04   6.61236653E-03
   5.00000024E-04   6.90063881E-03
   5.49999997E-04   7.19339494E-03
   6.00000028E-04   7.49110058E-03
   6.50000002E-04   7.79416552E-03
   6.99999975E-04   8.10280629E-03
   7.50000007E-04   8.41694605E-03
   7.99999980E-04   8.73624161E-03
   8.50000011E-04   9.06027202E-03
   8.99999985E-04   9.38874390E-03
   9.50000016E-04   9.72160418E-03
   1.00000005E-03   1.00590829E-02
   1.04999996E-03   1.04016196E-02
   1.09999999E-03   1.07496418E-02
   1.15000003E-03   1.11034010E-02
   1.20000006E-03   1.14628756E-02
   1.24999997E-03   1.18278023E-02
   1.30000000E-03   1.21977646E-02
   1.35000004E-03   1.25724031E-02
   1.39999995E-03   1.29515911E-02
   1.44999998E-03   1.33354710E-02
   1.50000001E-03   1.37244156E-02
   1.55000004E-03   1.41188586E-02
   1.59999996E-03   1.45191206E-02
   1.64999999E-03   1.49252685E-02
   1.70000002E-03   1.53370891E-02
   1.75000005E-03   1.57541800E-02
   1.79999997E-03   1.61761194E-02
   1.85000000E-03   1.66026596E-02
   1.90000003E-03   1.70338303E-02
   1.94999995E-03   1.74699407E-02
   2.00000009E-03   1.79114472E-02
   2.05000001E-03   1.83587335E-02
   2.09999993E-03   1.88119430E-02
   2.15000007E-03   1.92709100E-02
   2.19999999E-03   1.97352432E-02
   2.24999990E-03   2.02044733E-02
   2.30000005E-03   2.06782632E-02
   2.34999997E-03   2.11565569E-02
   2.40000011E-03   2.16396023E-02
   2.45000003E-03   2.21278407E-02
   2.49999994E-03   2.26217061E-02
   2.55000009E-03   2.31214296E-02
   2.60000001E-03   2.36269217E-02
   2.64999992E-03   2.41377968E-02
   2.70000007E-03   2.46535484E-02
   2.74999999E-03   2.51737554E-02
   2.79999990E-03   2.56982427E-02