  -3.99999991E-02   0.00000000    
  -3.99499983E-02   0.00000000    
  -3.99000011E-02   0.00000000    
  -3.98500003E-02  -9.24145133E-16
  -3.97999994E-02  -7.88782915E-15
  -3.97499986E-02  -3.44077523E-14
  -3.97000015E-02  -1.02522069E-13
  -3.96500006E-02  -2.37179579E-13
  -3.95999998E-02  -4.63485533E-13
  -3.95499989E-02  -8.15347735E-13
  -3.95000018E-02  -1.34312299E-12
  -3.94500010E-02  -2.09084161E-12
  -3.94000001E-02  -3.03932140E-12
  -3.93499993E-02  -4.06962138E-12
  -3.92999984E-02  -5.01779824E-12
  -3.92500013E-02  -5.81457365E-12
  -3.92000005E-02  -6.59458339E-12
  -3.91499996E-02  -7.65327385E-12
  -3.90999988E-02  -9.26607315E-12
  -3.90500017E-02  -1.15275827E-11
  -3.90000008E-02  -1.43444709E-11
  -3.89500000E-02  -1.75392582E-11
  -3.88999991E-02  -2.09089863E-11
  -3.88499983E-02  -2.41880821E-11
  -3.88000011E-02  -2.70578594E-11
  -3.87500003E-02  -2.93413210E-11
  -3.86999995E-02  -3.12626730E-11
  -3.86499986E-02  -3.34435014E-11
  -3.86000015E-02  -3.64796041E-11
  -3.85500006E-02  -4.03902224E-11
  -3.84999998E-02  -4.44535797E-11
  -3.84499989E-02  -4.76187145E-11
  -3.84000018E-02  -4.91144729E-11
  -3.83500010E-02  -4.87017232E-11
  -3.83000001E-02  -4.64516967E-11
  -3.82499993E-02  -4.24669154E-11
  -3.81999984E-02  -3.69393301E-11
  -3.81500013E-02  -3.03898573E-11
  -3.81000005E-02  -2.35747151E-11
  -3.80499996E-02  -1.69067919E-11
  -3.79999988E-02  -9.93536069E-12
  -3.79500017E-02  -1.54476811E-12
  -3.79000008E-02   9.20724347E-12
  -3.78500000E-02   2.24709366E-11
  -3.77999991E-02   3.78994683E-11
  -3.77499983E-02   5.55142633E-11
  -3.77000012E-02   7.60779981E-11
  -3.76500003E-02   1.00436832E-10
  -3.75999995E-02   1.28525079E-10
  -3.75499986E-02   1.59214683E-10
  -3.75000015E-02   1.91296035E-10
  -3.74500006E-02   2.24589902E-10
  -3.73999998E-02   2.60027194E-10
  -3.73499990E-02   2.98692210E-10
  -3.73000018E-02   3.40900946E-10
  -3.72500010E-02   3.86088161E-10
  -3.72000001E-02   4.33059227E-10
  -3.71499993E-02   4.79701223E-10
  -3.70999984E-02   5.22293764E-10
  -3.70500013E-02   5.55827384E-10
  -3.70000005E-02   5.76336978E-10
  -3.69499996E-02   5.84163384E-10
  -3.68999988E-02   5.85426985E-10
  -3.68500017E-02   5.89874039E-10
  -3.68000008E-02   6.06067141E-10
  -3.67500000E-02   6.36958430E-10
  -3.66999991E-02   6.78303025E-10
  -3.66499983E-02   7.20083826E-10
  -3.66000012E-02   7.49621698E-10
  -3.65500003E-02   7.55360330E-10
  -3.64999995E-02   7.30997374E-10
  -3.64499986E-02   6.78926693E-10
  -3.64000015E-02   6.10534678E-10
  -3.63500006E-02   5.41290235E-10
  -3.62999998E-02   4.81905460E-10
  -3.62499990E-02   4.30696590E-10
  -3.62000018E-02   3.72716136E-10
  -3.61500010E-02   2.87096291E-10
  -3.61000001E-02   1.58473679E-10
  -3.60499993E-02  -1.40422960E-11
  -3.59999985E-02  -2.14788645E-10
  -3.59500013E-02  -4.16801760E-10
  -3.59000005E-02  -5.92147220E-10
  -3.58499996E-02  -7.24151350E-10
  -3.57999988E-02  -8.17490742E-10
  -3.57500017E-02  -9.00930941E-10
  -3.57000008E-02  -1.01844466E-09
  -3.56500000E-02  -1.20969734E-09
  -3.55999991E-02  -1.48842572E-09
  -3.55499983E-02  -1.83106019E-09
  -3.55000012E-02  -2.18374652E-09
  -3.54500003E-02  -2.48559173E-09
  -3.53999995E-02  -2.69668798E-09
  -3.53499986E-02  -2.81730861E-09
  -3.53000015E-02  -2.88965518E-09
  -3.52500007E-02  -2.98133762E-09
  -3.51999998E-02  -3.15636517E-09
  -3.51499990E-02  -3.44401596E-09
  -3.51000018E-02  -3.81866139E-09
  -3.50500010E-02  -4.20237267E-09
  -3.50000001E-02  -4.49400295E-09
  -3.49499993E-02  -4.61463712E-09
  -3.48999985E-02  -4.54762183E-09
  -3.48500013E-02  -4.35101599E-09
  -3.48000005E-02  -4.13352508E-09
  -3.47499996E-02  -4.00434486E-09
  -3.46999988E-02  -4.02081612E-09
  -3.46500017E-02  -4.15819512E-09
  -3.46000008E-02  -4.31532099E-09
  -3.45500000E-02  -4.35498659E-09
  -3.44999991E-02  -4.16404733E-09
  -3.44499983E-02  -3.70885722E-09
  -3.44000012E-02  -3.05972625E-09
  -3.43500003E-02  -2.36758191E-09
  -3.42999995E-02  -1.79716964E-09
  -3.42499986E-02  -1.44536472E-09
  -3.42000015E-02  -1.28559041E-09
  -3.41500007E-02  -1.16966170E-09
  -3.40999998E-02  -8.90150453E-10
  -3.40499990E-02  -2.75492712E-10
  -3.40000018E-02   7.26352478E-10
  -3.39500010E-02   2.01446659E-09
  -3.39000002E-02   3.36878503E-09
  -3.38499993E-02   4.54020821E-09
  -3.37999985E-02   5.36154587E-09
  -3.37500013E-02   5.83116666E-09
  -3.37000005E-02   6.12691675E-09
  -3.36499996E-02   6.53482646E-09
  -3.35999988E-02   7.31764782E-09
  -3.35500017E-02   8.58272298E-09
  -3.35000008E-02   1.02153530E-08
  -3.34500000E-02   1.19153443E-08
  -3.33999991E-02   1.33242670E-08
  -3.33499983E-02   1.41863126E-08
  -3.33000012E-02   1.44694567E-08
  -3.32500003E-02   1.43907064E-08
  -3.31999995E-02   1.43299550E-08
  -3.31499986E-02   1.46642947E-08
  -3.31000015E-02   1.55910804E-08
  -3.30500007E-02   1.70195555E-08
  -3.29999998E-02   1.85882794E-08
  -3.29499990E-02   1.98119992E-08
  -3.29000019E-02   2.02978185E-08
  -3.28500010E-02   1.99299741E-08
  -3.28000002E-02   1.89310736E-08
  -3.27499993E-02   1.77651014E-08
  -3.26999985E-02   1.69235115E-08
  -3.26500013E-02   1.66918479E-08
  -3.26000005E-02   1.70041456E-08
  -3.25499997E-02   1.74538339E-08
  -3.24999988E-02   1.74629413E-08
  -3.24500017E-02   1.65420992E-08
  -3.24000008E-02   1.45286574E-08
  -3.23500000E-02   1.16897754E-08
  -3.22999991E-02   8.62952820E-09
  -3.22499983E-02   6.02821171E-09
  -3.22000012E-02   4.32748459E-09
  -3.21500003E-02   3.51075613E-09
  -3.20999995E-02   3.08981973E-09
  -3.20499986E-02   2.31220021E-09
  -3.20000015E-02   4.98947161E-10
  -3.19500007E-02  -2.63886468E-09
  -3.18999998E-02  -6.84850043E-09
  -3.18499990E-02  -1.14221628E-08
  -3.18000019E-02  -1.54936028E-08
  -3.17500010E-02  -1.84227353E-08
  -3.17000002E-02  -2.00981631E-08
  -3.16499993E-02  -2.10114006E-08
  -3.15999985E-02  -2.20521130E-08
  -3.15500014E-02  -2.41036791E-08
  -3.15000005E-02  -2.76213630E-08
  -3.14499997E-02  -3.23935545E-08
  -3.13999988E-02  -3.76053002E-08
  -3.13500017E-02  -4.21818420E-08
  -3.13000008E-02  -4.52598670E-08
  -3.12500000E-02  -4.65758880E-08
  -3.11999992E-02  -4.65960746E-08
  -3.11500002E-02  -4.63221070E-08
  -3.10999993E-02  -4.68470773E-08
  -3.10500003E-02  -4.88496532E-08
  -3.09999995E-02  -5.22550891E-08
  -3.09500005E-02  -5.62305509E-08
  -3.08999997E-02  -5.95355516E-08
  -3.08500007E-02  -6.10779480E-08
  -3.07999998E-02  -6.04195876E-08
  -3.07500008E-02  -5.79912260E-08
  -3.07000000E-02  -5.49096235E-08
  -3.06499992E-02  -5.24755066E-08
  -3.06000002E-02  -5.15767340E-08
  -3.05499993E-02  -5.22636192E-08
  -3.05000003E-02  -5.36899840E-08
  -3.04499995E-02  -5.44584751E-08
  -3.04000005E-02  -5.32331619E-08
  -3.03499997E-02  -4.93543517E-08
  -3.03000007E-02  -4.31714149E-08
  -3.02499998E-02  -3.59234065E-08
  -3.02000009E-02  -2.92022158E-08
  -3.01500000E-02  -2.42348559E-08
  -3.00999992E-02  -2.13155467E-08
  -3.00500002E-02  -1.96543510E-08
  -2.99999993E-02  -1.77173902E-08
  -2.99500003E-02  -1.39102507E-08
  -2.98999995E-02  -7.30313454E-09
  -2.98500005E-02   1.92233762E-09
  -2.97999997E-02   1.25090569E-08
  -2.97500007E-02   2.26439258E-08
  -2.96999998E-02   3.07477279E-08
  -2.96500009E-02   3.61897854E-08
  -2.96000000E-02   3.95951432E-08
  -2.95499992E-02   4.25857039E-08
  -2.95000002E-02   4.70572736E-08
  -2.94499993E-02   5.43154464E-08
  -2.94000003E-02   6.44661426E-08
  -2.93499995E-02   7.63390773E-08
  -2.93000005E-02   8.79792097E-08
  -2.92499997E-02   9.74896537E-08
  -2.92000007E-02   1.03857005E-07
  -2.91499998E-02   1.07397469E-07
  -2.91000009E-02   1.09618497E-07
  -2.90500000E-02   1.12540036E-07
  -2.89999992E-02   1.17762220E-07
  -2.89500002E-02   1.25696829E-07
  -2.88999993E-02   1.35323702E-07
  -2.88500004E-02   1.44601600E-07
  -2.87999995E-02   1.51358748E-07
  -2.87500005E-02   1.54259567E-07
  -2.86999997E-02   1.53407058E-07
  -2.86500007E-02   1.50307798E-07
  -2.85999998E-02   1.47213214E-07
  -2.85500009E-02   1.46121778E-07
  -2.85000000E-02   1.47872342E-07
  -2.84499992E-02   1.51727278E-07
  -2.84000002E-02   1.55643917E-07
  -2.83499993E-02   1.57138487E-07
  -2.83000004E-02   1.54376394E-07
  -2.82499995E-02   1.47001316E-07
  -2.82000005E-02   1.36314952E-07
  -2.81499997E-02   1.24711235E-07
  -2.81000007E-02   1.14612291E-07
  -2.80499998E-02   1.07382554E-07
  -2.80000009E-02   1.02707652E-07
  -2.79500000E-02   9.87108635E-08
  -2.78999992E-02   9.27574106E-08
  -2.78500002E-02   8.26077695E-08
  -2.77999993E-02   6.74279335E-08
  -2.77500004E-02   4.82113407E-08
  -2.76999995E-02   2.74072534E-08
  -2.76500005E-02   7.89246801E-09
  -2.75999997E-02  -8.27361024E-09
  -2.75500007E-02  -2.07538911E-08
  -2.74999999E-02  -3.10800488E-08
  -2.74500009E-02  -4.19648316E-08
  -2.74000000E-02  -5.60854083E-08
  -2.73499992E-02  -7.48749756E-08
  -2.73000002E-02  -9.78546169E-08
  -2.72499993E-02  -1.22792144E-07
  -2.72000004E-02  -1.46623648E-07
  -2.71499995E-02  -1.66754845E-07
  -2.71000005E-02  -1.82184621E-07
  -2.70499997E-02  -1.93951166E-07
  -2.70000007E-02  -2.04677150E-07
  -2.69499999E-02  -2.17386457E-07
  -2.69000009E-02  -2.34108171E-07
  -2.68500000E-02  -2.54899106E-07
  -2.67999992E-02  -2.77734955E-07
  -2.67500002E-02  -2.99330821E-07
  -2.66999993E-02  -3.16531469E-07
  -2.66500004E-02  -3.27662065E-07
  -2.65999995E-02  -3.33252501E-07
  -2.65500005E-02  -3.35813411E-07
  -2.64999997E-02  -3.38739682E-07
  -2.64500007E-02  -3.44792937E-07
  -2.63999999E-02  -3.54812443E-07
  -2.63500009E-02  -3.67239608E-07
  -2.63000000E-02  -3.78704868E-07
  -2.62499992E-02  -3.85451500E-07
  -2.62000002E-02  -3.84976545E-07
  -2.61499994E-02  -3.77154635E-07
  -2.61000004E-02  -3.64326979E-07
  -2.60499995E-02  -3.50303139E-07
  -2.60000005E-02  -3.38707764E-07
  -2.59499997E-02  -3.31380022E-07
  -2.59000007E-02  -3.27514812E-07
  -2.58499999E-02  -3.23939702E-07
  -2.58000009E-02  -3.16442623E-07
  -2.57500000E-02  -3.01599044E-07
  -2.56999992E-02  -2.78313507E-07
  -2.56500002E-02  -2.48371634E-07
  -2.55999994E-02  -2.15720732E-07
  -2.55500004E-02  -1.84767487E-07
  -2.54999995E-02  -1.58434489E-07
  -2.54500005E-02  -1.36858446E-07
  -2.53999997E-02  -1.17316134E-07
  -2.53500007E-02  -9.54249018E-08
  -2.52999999E-02  -6.71032865E-08
  -2.52500009E-02  -3.04379242E-08
  -2.52000000E-02   1.33564031E-08
  -2.51499992E-02   6.03392323E-08
  -2.51000002E-02   1.05473461E-07
  -2.50499994E-02   1.44803820E-07
  -2.50000004E-02   1.77227719E-07
  -2.49499995E-02   2.05026865E-07
  -2.49000005E-02   2.32873049E-07
  -2.48499997E-02   2.65720189E-07
  -2.48000007E-02   3.06522651E-07
  -2.47499999E-02   3.54806190E-07
  -2.47000009E-02   4.06745386E-07
  -2.46500000E-02   4.56734512E-07
  -2.45999992E-02   4.99780583E-07
  -2.45500002E-02   5.33680293E-07
  -2.44999994E-02   5.60010676E-07
  -2.44500004E-02   5.83455346E-07
  -2.43999995E-02   6.09700180E-07
  -2.43500005E-02   6.42792827E-07
  -2.42999997E-02   6.83158248E-07
  -2.42500007E-02   7.27208430E-07
  -2.41999999E-02   7.68773873E-07
  -2.41500009E-02   8.01748286E-07
  -2.41000000E-02   8.22763866E-07
  -2.40499992E-02   8.32690773E-07
  -2.40000002E-02   8.36276513E-07
  -2.39499994E-02   8.40055236E-07
  -2.39000004E-02   8.49424396E-07
  -2.38499995E-02   8.66152391E-07
  -2.38000005E-02   8.87443775E-07
  -2.37499997E-02   9.07029857E-07
  -2.37000007E-02   9.17856596E-07
  -2.36499999E-02   9.15211501E-07
  -2.36000009E-02   8.98859639E-07
  -2.35500000E-02   8.73172837E-07
  -2.34999992E-02   8.45162901E-07
  -2.34500002E-02   8.21298102E-07
  -2.33999994E-02   8.04536228E-07
  -2.33500004E-02   7.92908111E-07
  -2.32999995E-02   7.80317350E-07
  -2.32500006E-02   7.59203033E-07
  -2.31999997E-02   7.23916799E-07
  -2.31500007E-02   6.73334910E-07
  -2.30999999E-02   6.11485405E-07
  -2.30500009E-02   5.45853993E-07
  -2.30000000E-02   4.84053999E-07
  -2.29499992E-02   4.30356380E-07
  -2.29000002E-02   3.83702144E-07
  -2.28499994E-02   3.38134271E-07
  -2.28000004E-02   2.85482344E-07
  -2.27499995E-02   2.19101466E-07
  -2.27000006E-02   1.36967515E-07
  -2.26499997E-02   4.27213287E-08
  -2.26000007E-02  -5.58118991E-08
  -2.25499999E-02  -1.50020682E-07
  -2.25000009E-02  -2.34330102E-07
  -2.24500000E-02  -3.08740908E-07
  -2.23999992E-02  -3.78907373E-07
  -2.23500002E-02  -4.53628076E-07
  -2.22999994E-02  -5.40834890E-07
  -2.22500004E-02  -6.43896897E-07
  -2.21999995E-02  -7.59956549E-07
  -2.21500006E-02  -8.81101016E-07
  -2.20999997E-02  -9.97830512E-07
  -2.20500007E-02  -1.10324766E-06
  -2.19999999E-02  -1.19610024E-06
  -2.19500009E-02  -1.28130796E-06
  -2.19000001E-02  -1.36772076E-06
  -2.18499992E-02  -1.46407410E-06
  -2.18000002E-02  -1.57492320E-06
  -2.17499994E-02  -1.69841576E-06
  -2.17000004E-02  -1.82696147E-06
  -2.16499995E-02  -1.95054326E-06
  -2.16000006E-02  -2.06121081E-06
  -2.15499997E-02  -2.15667296E-06
  -2.15000007E-02  -2.24131827E-06
  -2.14499999E-02  -2.32419120E-06
  -2.14000009E-02  -2.41486032E-06
  -2.13500001E-02  -2.51904657E-06
  -2.12999992E-02  -2.63597963E-06
  -2.12500002E-02  -2.75867637E-06
  -2.11999994E-02  -2.87701573E-06
  -2.11500004E-02  -2.98228360E-06
  -2.10999995E-02  -3.07113010E-06
  -2.10500006E-02  -3.14713498E-06
  -2.09999997E-02  -3.21919697E-06
  -2.09500007E-02  -3.29743511E-06
  -2.08999999E-02  -3.38849190E-06
  -2.08500009E-02  -3.49238167E-06
  -2.08000001E-02  -3.60244326E-06
  -2.07499992E-02  -3.70835937E-06
  -2.07000002E-02  -3.80079905E-06
  -2.06499994E-02  -3.87565569E-06
  -2.06000004E-02  -3.93600203E-06
  -2.05499995E-02  -3.99080955E-06
  -2.05000006E-02  -4.05098899E-06
  -2.04499997E-02  -4.12448708E-06
  -2.04000007E-02  -4.21263439E-06
  -2.03499999E-02  -4.30954469E-06
  -2.03000009E-02  -4.40477925E-06
  -2.02500001E-02  -4.48808987E-06
  -2.01999992E-02  -4.55409509E-06
  -2.01500002E-02  -4.60474803E-06
  -2.00999994E-02  -4.64843015E-06
  -2.00500004E-02  -4.69614679E-06
  -1.99999996E-02  -4.75657589E-06
  -1.99500006E-02  -4.83220720E-06
  -1.98999997E-02  -4.91830860E-06
  -1.98500007E-02  -5.00508804E-06
  -1.97999999E-02  -5.08223411E-06
  -1.97500009E-02  -5.14371641E-06
  -1.97000001E-02  -5.19068908E-06
  -1.96499992E-02  -5.23111567E-06
  -1.96000002E-02  -5.27618295E-06
  -1.95499994E-02  -5.33522143E-06
  -1.95000004E-02  -5.41150712E-06
  -1.94499996E-02  -5.50095592E-06
  -1.94000006E-02  -5.59416321E-06
  -1.93499997E-02  -5.68079213E-06
  -1.93000007E-02  -5.75433523E-06
  -1.92499999E-02  -5.81519907E-06
  -1.92000009E-02  -5.87070326E-06
  -1.91500001E-02  -5.93193226E-06
  -1.90999992E-02  -6.00871363E-06
  -1.90500002E-02  -6.10523239E-06
  -1.89999994E-02  -6.21817571E-06
  -1.89500004E-02  -6.33829904E-06
  -1.88999996E-02  -6.45493537E-06
  -1.88500006E-02  -6.56109933E-06
  -1.87999997E-02  -6.65674088E-06
  -1.87500007E-02  -6.74886405E-06
  -1.86999999E-02  -6.84853285E-06
  -1.86500009E-02  -6.96597135E-06
  -1.86000001E-02  -7.10621589E-06
  -1.85499992E-02  -7.26702137E-06
  -1.85000002E-02  -7.43996634E-06
  -1.84499994E-02  -7.61441879E-06
  -1.84000004E-02  -7.78253798E-06
  -1.83499996E-02  -7.94314656E-06
  -1.83000006E-02  -8.10257461E-06
  -1.82499997E-02  -8.27183158E-06
  -1.82000007E-02  -8.46159219E-06
  -1.81499999E-02  -8.67741801E-06
  -1.81000009E-02  -8.91752461E-06
  -1.80500001E-02  -9.17418583E-06
  -1.79999992E-02  -9.43722989E-06
  -1.79500002E-02  -9.69857228E-06
  -1.78999994E-02  -9.95618939E-06
  -1.78500004E-02  -1.02153726E-05
  -1.77999996E-02  -1.04866431E-05
  -1.77500006E-02  -1.07809656E-05
  -1.76999997E-02  -1.11047384E-05
  -1.76500008E-02  -1.14571658E-05
  -1.75999999E-02  -1.18310718E-05
  -1.75500009E-02  -1.22166030E-05
  -1.75000001E-02  -1.26060768E-05
  -1.74499992E-02  -1.29976124E-05
  -1.74000002E-02  -1.33963285E-05
  -1.73499994E-02  -1.38122923E-05
  -1.73000004E-02  -1.42559520E-05
  -1.72499996E-02  -1.47337423E-05
  -1.72000006E-02  -1.52452385E-05
  -1.71499997E-02  -1.57833401E-05
  -1.71000008E-02  -1.63374480E-05
  -1.70499999E-02  -1.68987244E-05
  -1.70000009E-02  -1.74645356E-05
  -1.69500001E-02  -1.80398056E-05
  -1.68999992E-02  -1.86349680E-05
  -1.68500002E-02  -1.92611606E-05
  -1.67999994E-02  -1.99254137E-05
  -1.67500004E-02  -2.06279947E-05
  -1.66999996E-02  -2.13627809E-05
  -1.66500006E-02  -2.21201662E-05
  -1.65999997E-02  -2.28912704E-05
  -1.65500008E-02  -2.36722299E-05
  -1.64999999E-02  -2.44665243E-05
  -1.64500009E-02  -2.52836344E-05
  -1.64000001E-02  -2.61347668E-05
  -1.63499992E-02  -2.70276214E-05
  -1.63000003E-02  -2.79626311E-05
  -1.62499994E-02  -2.89331056E-05
  -1.62000004E-02  -2.99288258E-05
  -1.61499996E-02  -3.09408679E-05
  -1.61000006E-02  -3.19654537E-05
  -1.60499997E-02  -3.30054681E-05
  -1.60000008E-02  -3.40694387E-05
  -1.59499999E-02  -3.51682720E-05
  -1.59000009E-02  -3.63101972E-05
  -1.58500001E-02  -3.74967203E-05
  -1.57999992E-02  -3.87218570E-05
  -1.57500003E-02  -3.99750752E-05
  -1.56999994E-02  -4.12465379E-05
  -1.56500004E-02  -4.25319522E-05
  -1.55999996E-02  -4.38342431E-05
  -1.55499997E-02  -4.51618907E-05
  -1.54999997E-02  -4.65254707E-05
  -1.54499998E-02  -4.79330120E-05
  -1.53999999E-02  -4.93857005E-05
  -1.53500000E-02  -5.08775738E-05
  -1.53000001E-02  -5.23981689E-05
  -1.52500002E-02  -5.39367356E-05
  -1.52000003E-02  -5.54883154E-05
  -1.51500003E-02  -5.70553530E-05
  -1.51000004E-02  -5.86461683E-05
  -1.50499996E-02  -6.02723157E-05
  -1.49999997E-02  -6.19430866E-05
  -1.49499997E-02  -6.36609766E-05
  -1.48999998E-02  -6.54204123E-05
  -1.48499999E-02  -6.72106326E-05
  -1.48000000E-02  -6.90202360E-05
  -1.47500001E-02  -7.08426523E-05
  -1.47000002E-02  -7.26804647E-05
  -1.46500003E-02  -7.45428842E-05
  -1.46000003E-02  -7.64412107E-05
  -1.45500004E-02  -7.83840151E-05
  -1.44999996E-02  -8.03744697E-05
  -1.44499997E-02  -8.24098315E-05
  -1.43999998E-02  -8.44808164E-05
  -1.43499998E-02  -8.65757029E-05
  -1.42999999E-02  -8.86869166E-05
  -1.42500000E-02  -9.08151342E-05
  -1.42000001E-02  -9.29696107E-05
  -1.41500002E-02  -9.51636466E-05
  -1.41000003E-02  -9.74077338E-05
  -1.40500003E-02  -9.97049428E-05
  -1.40000004E-02  -1.02050341E-04
  -1.39499996E-02  -1.04434796E-04
  -1.38999997E-02  -1.06849518E-04
  -1.38499998E-02  -1.09288478E-04
  -1.37999998E-02  -1.11751309E-04
  -1.37499999E-02  -1.14246759E-04
  -1.37000000E-02  -1.16789080E-04
  -1.36500001E-02  -1.19390003E-04
  -1.36000002E-02  -1.22055426E-04
  -1.35500003E-02  -1.24783401E-04
  -1.35000004E-02  -1.27563137E-04
  -1.34500004E-02  -1.30383021E-04
  -1.33999996E-02  -1.33236375E-04
  -1.33499997E-02  -1.36123286E-04
  -1.32999998E-02  -1.39053052E-04
  -1.32499998E-02  -1.42041070E-04
  -1.31999999E-02  -1.45101454E-04
  -1.31500000E-02  -1.48241525E-04
  -1.31000001E-02  -1.51459244E-04
  -1.30500002E-02  -1.54744892E-04
  -1.30000003E-02  -1.58088515E-04
  -1.29500004E-02  -1.61484233E-04
  -1.29000004E-02  -1.64931873E-04
  -1.28499996E-02  -1.68439015E-04
  -1.27999997E-02  -1.72019398E-04
  -1.27499998E-02  -1.75689769E-04
  -1.26999998E-02  -1.79462135E-04
  -1.26499999E-02  -1.83338751E-04
  -1.26000000E-02  -1.87312296E-04
  -1.25500001E-02  -1.91368439E-04
  -1.25000002E-02  -1.95499175E-04
  -1.24500003E-02  -1.99707545E-04
  -1.24000004E-02  -2.04003387E-04
  -1.23500004E-02  -2.08400743E-04
  -1.22999996E-02  -2.12911196E-04
  -1.22499997E-02  -2.17540932E-04
  -1.21999998E-02  -2.22290633E-04
  -1.21499998E-02  -2.27154975E-04
  -1.20999999E-02  -2.32123639E-04
  -1.20500000E-02  -2.37188055E-04
  -1.20000001E-02  -2.42349124E-04
  -1.19500002E-02  -2.47618969E-04
  -1.19000003E-02  -2.53018137E-04
  -1.18500004E-02  -2.58568005E-04
  -1.18000004E-02  -2.64283095E-04
  -1.17499996E-02  -2.70168151E-04
  -1.16999997E-02  -2.76217528E-04
  -1.16499998E-02  -2.82418303E-04
  -1.15999999E-02  -2.88756390E-04
  -1.15499999E-02  -2.95223057E-04
  -1.15000000E-02  -3.01820342E-04
  -1.14500001E-02  -3.08558083E-04
  -1.14000002E-02  -3.15449317E-04
  -1.13500003E-02  -3.22507229E-04
  -1.13000004E-02  -3.29734467E-04
  -1.12500004E-02  -3.37126519E-04
  -1.11999996E-02  -3.44680157E-04
  -1.11499997E-02  -3.52391595E-04
  -1.10999998E-02  -3.60265898E-04
  -1.10499999E-02  -3.68321402E-04
  -1.09999999E-02  -3.76579963E-04
  -1.09500000E-02  -3.85062944E-04
  -1.09000001E-02  -3.93788796E-04
  -1.08500002E-02  -4.02762438E-04
  -1.08000003E-02  -4.11969522E-04
  -1.07500004E-02  -4.21383593E-04
  -1.07000005E-02  -4.30985907E-04
  -1.06499996E-02  -4.40770091E-04
  -1.05999997E-02  -4.50735504E-04
  -1.05499998E-02  -4.60886979E-04
  -1.04999999E-02  -4.71231528E-04
  -1.04499999E-02  -4.81786061E-04
  -1.04000000E-02  -4.92570107E-04
  -1.03500001E-02  -5.03588817E-04
  -1.03000002E-02  -5.14836516E-04
  -1.02500003E-02  -5.26300864E-04
  -1.02000004E-02  -5.37980231E-04
  -1.01500005E-02  -5.49891905E-04
  -1.00999996E-02  -5.62063011E-04
  -1.00499997E-02  -5.74514095E-04
  -9.99999978E-03  -5.87254122E-04
  -9.94999986E-03  -6.00286934E-04
  -9.89999995E-03  -6.13605487E-04
  -9.85000003E-03  -6.27205067E-04
  -9.80000012E-03  -6.41076243E-04
  -9.75000020E-03  -6.55197131E-04
  -9.70000029E-03  -6.69563771E-04
  -9.65000037E-03  -6.84195897E-04
  -9.60000046E-03  -6.99112890E-04
  -9.54999961E-03  -7.14330759E-04
  -9.49999969E-03  -7.29851774E-04
  -9.44999978E-03  -7.45657482E-04
  -9.39999986E-03  -7.61734846E-04
  -9.34999995E-03  -7.78075715E-04
  -9.30000003E-03  -7.94672116E-04
  -9.25000012E-03  -8.11521604E-04
  -9.20000020E-03  -8.28629127E-04
  -9.15000029E-03  -8.46024777E-04
  -9.10000037E-03  -8.63749417E-04
  -9.05000046E-03  -8.81823886E-04
  -8.99999961E-03  -9.00249463E-04
  -8.94999970E-03  -9.19005251E-04
  -8.89999978E-03  -9.38072859E-04
  -8.84999987E-03  -9.57459852E-04
  -8.79999995E-03  -9.77192423E-04
  -8.75000004E-03  -9.97285708E-04
  -8.70000012E-03  -1.01772894E-03
  -8.65000021E-03  -1.03851769E-03
  -8.60000029E-03  -1.05965952E-03
  -8.55000038E-03  -1.08117645E-03
  -8.50000046E-03  -1.10306987E-03
  -8.44999962E-03  -1.12529739E-03
  -8.39999970E-03  -1.14781351E-03
  -8.34999979E-03  -1.17061194E-03
  -8.29999987E-03  -1.19373191E-03
  -8.24999996E-03  -1.21722138E-03
  -8.20000004E-03  -1.24110165E-03
  -8.15000013E-03  -1.26535352E-03
  -8.10000021E-03  -1.28994987E-03
  -8.05000030E-03  -1.31489022E-03
  -8.00000038E-03  -1.34019146E-03
  -7.95000046E-03  -1.36585825E-03
  -7.89999962E-03  -1.39187451E-03
  -7.84999970E-03  -1.41823490E-03
  -7.79999979E-03  -1.44497096E-03
  -7.74999987E-03  -1.47213647E-03
  -7.69999996E-03  -1.49975857E-03
  -7.65000004E-03  -1.52781955E-03
  -7.60000013E-03  -1.55627844E-03
  -7.55000021E-03  -1.58510893E-03
  -7.49999983E-03  -1.61432335E-03
  -7.44999992E-03  -1.64394709E-03
  -7.40000000E-03  -1.67398504E-03
  -7.35000009E-03  -1.70442148E-03
  -7.30000017E-03  -1.73524651E-03
  -7.24999979E-03  -1.76649704E-03
  -7.19999988E-03  -1.79821881E-03
  -7.14999996E-03  -1.83040486E-03
  -7.10000005E-03  -1.86298823E-03
  -7.05000013E-03  -1.89590070E-03
  -7.00000022E-03  -1.92915543E-03
  -6.94999984E-03  -1.96282123E-03
  -6.89999992E-03  -1.99695420E-03
  -6.85000001E-03  -2.03155237E-03
  -6.80000009E-03  -2.06657336E-03
  -6.75000018E-03  -2.10199016E-03
  -6.69999979E-03  -2.13783467E-03
  -6.64999988E-03  -2.17417092E-03
  -6.59999996E-03  -2.21100426E-03
  -6.55000005E-03  -2.24825740E-03
  -6.50000013E-03  -2.28588143E-03
  -6.45000022E-03  -2.32394715E-03
  -6.39999984E-03  -2.36256351E-03
  -6.34999992E-03  -2.40176520E-03
  -6.30000001E-03  -2.44149053E-03
  -6.25000009E-03  -2.48167571E-03
  -6.20000018E-03  -2.52230768E-03
  -6.14999980E-03  -2.56340369E-03
  -6.09999988E-03  -2.60499539E-03
  -6.04999997E-03  -2.64706276E-03
  -6.00000005E-03  -2.68957368E-03
  -5.95000014E-03  -2.73256050E-03
  -5.90000022E-03  -2.77609867E-03
  -5.84999984E-03  -2.82022054E-03
  -5.79999993E-03  -2.86486652E-03
  -5.75000001E-03  -2.90997024E-03
  -5.70000010E-03  -2.95552611E-03
  -5.65000018E-03  -3.00153950E-03
  -5.59999980E-03  -3.04803066E-03
  -5.54999989E-03  -3.09506548E-03
  -5.49999997E-03  -3.14269401E-03
  -5.45000006E-03  -3.19091557E-03
  -5.40000014E-03  -3.23973340E-03
  -5.35000023E-03  -3.28914472E-03
  -5.29999984E-03  -3.33914929E-03
  -5.24999993E-03  -3.38974129E-03
  -5.20000001E-03  -3.44089256E-03
  -5.15000010E-03  -3.49259540E-03
  -5.10000018E-03  -3.54490732E-03
  -5.04999980E-03  -3.59790935E-03
  -4.99999989E-03  -3.65162781E-03
  -4.94999997E-03  -3.70602868E-03
  -4.90000006E-03  -3.76102864E-03
  -4.85000014E-03  -3.81656759E-03
  -4.80000023E-03  -3.87267047E-03
  -4.74999985E-03  -3.92935239E-03
  -4.69999993E-03  -3.98662221E-03
  -4.65000002E-03  -4.04448574E-03
  -4.60000010E-03  -4.10295092E-03
  -4.55000019E-03  -4.16211318E-03
  -4.49999981E-03  -4.22204332E-03
  -4.44999989E-03  -4.28272830E-03
  -4.39999998E-03  -4.34413319E-03
  -4.35000006E-03  -4.40617511E-03
  -4.30000015E-03  -4.46880050E-03
  -4.25000023E-03  -4.53205965E-03
  -4.19999985E-03  -4.59608482E-03
  -4.14999994E-03  -4.66103107E-03
  -4.10000002E-03  -4.72686766E-03
  -4.05000011E-03  -4.79346141E-03
  -4.00000019E-03  -4.86077555E-03
  -3.94999981E-03  -4.92883800E-03
  -3.89999989E-03  -4.99768183E-03
  -3.84999998E-03  -5.06728049E-03
  -3.80000006E-03  -5.13755204E-03
  -3.74999992E-03  -5.20845363E-03
  -3.70000000E-03  -5.28009422E-03
  -3.65000009E-03  -5.35268849E-03
  -3.59999994E-03  -5.42627741E-03
  -3.55000002E-03  -5.50068077E-03
  -3.50000011E-03  -5.57574118E-03
  -3.44999996E-03  -5.65149216E-03
  -3.40000005E-03  -5.72806550E-03
  -3.34999990E-03  -5.80547610E-03
  -3.29999998E-03  -5.88362245E-03
  -3.25000007E-03  -5.96249895E-03
  -3.19999992E-03  -6.04229933E-03
  -3.15000000E-03  -6.12317119E-03
  -3.10000009E-03  -6.20511407E-03
  -3.04999994E-03  -6.28798502E-03
  -3.00000003E-03  -6.37150882E-03
  -2.95000011E-03  -6.45570364E-03
  -2.89999996E-03  -6.54075574E-03
  -2.85000005E-03  -6.62676850E-03
  -2.79999990E-03  -6.71375822E-03
  -2.74999999E-03  -6.80170627E-03
  -2.70000007E-03  -6.89061685E-03
  -2.64999992E-03  -6.98053371E-03
  -2.60000001E-03  -7.07152812E-03
  -2.55000009E-03  -7.16342824E-03
  -2.49999994E-03  -7.25592021E-03
  -2.45000003E-03  -7.34906504E-03
  -2.40000011E-03  -7.44316494E-03
  -2.34999997E-03  -7.53836893E-03
  -2.30000005E-03  -7.63455359E-03
  -2.24999990E-03  -7.73158250E-03
  -2.19999999E-03  -7.82949291E-03
  -2.15000007E-03  -7.92842358E-03
  -2.09999993E-03  -8.02848116E-03
  -2.05000001E-03  -8.12944211E-03
  -2.00000009E-03  -8.23108852E-03
  -1.94999995E-03  -8.33344925E-03
  -1.90000003E-03  -8.43680743E-03
  -1.85000000E-03  -8.54142569E-03
  -1.79999997E-03  -8.64732638E-03
  -1.75000005E-03  -8.75433907E-03
  -1.70000002E-03  -8.86220485E-03
  -1.64999999E-03  -8.97089206E-03
  -1.59999996E-03  -9.08047892E-03
  -1.55000004E-03  -9.19106230E-03
  -1.50000001E-03  -9.30261705E-03
  -1.44999998E-03  -9.41502210E-03
  -1.39999995E-03  -9.52819735E-03
  -1.35000004E-03  -9.64242965E-03
  -1.30000000E-03  -9.75807849E-03
  -1.24999997E-03  -9.87493154E-03
  -1.20000006E-03  -9.99261905E-03
  -1.15000003E-03  -1.01109482E-02
  -1.09999999E-03  -1.02299722E-02
  -1.04999996E-03  -1.03499023E-02
  -1.00000005E-03  -1.04709836E-02
  -9.50000016E-04  -1.05931731E-02
  -8.99999985E-04  -1.07164085E-02
  -8.50000011E-04  -1.08408453E-02
  -7.99999980E-04  -1.09665273E-02
  -7.50000007E-04  -1.10932747E-02
  -6.99999975E-04  -1.12208575E-02
  -6.50000002E-04  -1.13491714E-02
  -6.00000028E-04  -1.14782955E-02
  -5.49999997E-04  -1.16085121E-02
  -5.00000024E-04  -1.17399124E-02
  -4.49999992E-04  -1.18723074E-02
  -3.99999990E-04  -1.20058348E-02
  -3.49999988E-04  -1.21407099E-02
  -3.00000014E-04  -1.22768171E-02
  -2.50000012E-04  -1.24138258E-02
  -1.99999995E-04  -1.25513840E-02
  -1.50000007E-04  -1.26896659E-02
  -9.99999975E-05  -1.28290653E-02
  -4.99999987E-05  -1.29696857E-02
   0.00000000      -1.31114470E-02
   4.99999987E-05  -1.32542616E-02
   9.99999975E-05  -1.33982934E-02
   1.50000007E-04  -1.35437213E-02
   1.99999995E-04  -1.36901895E-02
   2.50000012E-04  -1.38370832E-02
   3.00000014E-04  -1.39842965E-02
   3.49999988E-04  -1.41324522E-02
   3.99999990E-04  -1.42823607E-02
   4.49999992E-04  -1.44341625E-02
   5.00000024E-04  -1.45869050E-02
   5.49999997E-04  -1.47401122E-02
   6.00000028E-04  -1.48942005E-02
   6.50000002E-04  -1.50498068E-02
   6.99999975E-04  -1.52069982E-02
   7.50000007E-04  -1.53650250E-02
   7.99999980E-04  -1.55233974E-02
   8.50000011E-04  -1.56824812E-02
   8.99999985E-04  -1.58430543E-02
   9.50000016E-04  -1.60053261E-02
   1.00000005E-03  -1.61690190E-02
   1.04999996E-03  -1.63337253E-02
   1.09999999E-03  -1.64990500E-02
   1.15000003E-03  -1.66650061E-02
   1.20000006E-03  -1.68318544E-02
   1.24999997E-03  -1.69999059E-02
   1.30000000E-03  -1.71693675E-02
   1.35000004E-03  -1.73398126E-02
   1.39999995E-03  -1.75110884E-02
   1.44999998E-03  -1.76835973E-02
   1.50000001E-03  -1.78577323E-02
   1.55000004E-03  -1.80334467E-02
   1.59999996E-03  -1.82100963E-02
   1.64999999E-03  -1.83870457E-02
   1.70000002E-03  -1.85646545E-02
   1.75000005E-03  -1.87437031E-02
   1.79999997E-03  -1.89245883E-02
   1.85000000E-03  -1.91071089E-02
   1.90000003E-03  -1.92904472E-02
   1.94999995E-03  -1.94743574E-02
   2.00000009E-03  -1.96594279E-02
   2.05000001E-03  -1.98461413E-02
   2.09999993E-03  -2.00340990E-02
   2.15000007E-03  -2.02226378E-02
   2.19999999E-03  -2.04113759E-02
   2.24999990E-03  -2.06011254E-02
   2.30000005E-03  -2.07931269E-02
   2.34999997E-03  -2.09872294E-02
   2.40000011E-03  -2.11823322E-02
   2.45000003E-03  -2.13776305E-02
   2.49999994E-03  -2.15734430E-02
   2.55000009E-03  -2.17707250E-02
   2.60000001E-03  -2.19696872E-02
   2.64999992E-03  -2.21699011E-02
   2.70000007E-03  -2.23708395E-02
   2.74999999E-03  -2.25724429E-02
   2.79999990E-03  -2.27756221E-02