  -3.99999991E-02   0.00000000    
  -3.99499983E-02   0.00000000    
  -3.99000011E-02   0.00000000    
  -3.98500003E-02   0.00000000    
  -3.97999994E-02   4.64269015E-17
  -3.97499986E-02   3.57307773E-16
  -3.97000015E-02   1.38548480E-15
  -3.96500006E-02   3.65819554E-15
  -3.95999998E-02   7.57362651E-15
  -3.95499989E-02   1.35411964E-14
  -3.95000018E-02   2.23234009E-14
  -3.94500010E-02   3.47068599E-14
  -3.94000001E-02   5.00702114E-14
  -3.93499993E-02   6.51444434E-14
  -3.92999984E-02   7.51496304E-14
  -3.92500013E-02   7.75472148E-14
  -3.92000005E-02   7.52855487E-14
  -3.91499996E-02   7.57602531E-14
  -3.90999988E-02   8.55488776E-14
  -3.90500017E-02   1.05529158E-13
  -3.90000008E-02   1.30701290E-13
  -3.89500000E-02   1.53752445E-13
  -3.88999991E-02   1.67523601E-13
  -3.88499983E-02   1.64284656E-13
  -3.88000011E-02   1.35684758E-13
  -3.87500003E-02   7.77276193E-14
  -3.86999995E-02  -2.28217781E-15
  -3.86499986E-02  -8.63165740E-14
  -3.86000015E-02  -1.58485150E-13
  -3.85500006E-02  -2.21565130E-13
  -3.84999998E-02  -3.01528496E-13
  -3.84499989E-02  -4.33859735E-13
  -3.84000018E-02  -6.42915354E-13
  -3.83500010E-02  -9.31777116E-13
  -3.83000001E-02  -1.28769456E-12
  -3.82499993E-02  -1.69193652E-12
  -3.81999984E-02  -2.12227154E-12
  -3.81500013E-02  -2.55126692E-12
  -3.81000005E-02  -2.95341160E-12
  -3.80499996E-02  -3.32342964E-12
  -3.79999988E-02  -3.68868087E-12
  -3.79500017E-02  -4.09669564E-12
  -3.79000008E-02  -4.58234449E-12
  -3.78500000E-02  -5.14323696E-12
  -3.77999991E-02  -5.74680191E-12
  -3.77499983E-02  -6.36039051E-12
  -3.77000012E-02  -6.97199937E-12
  -3.76500003E-02  -7.58184140E-12
  -3.75999995E-02  -8.17976936E-12
  -3.75499986E-02  -8.73923503E-12
  -3.75000015E-02  -9.23603468E-12
  -3.74500006E-02  -9.66713081E-12
  -3.73999998E-02  -1.00426690E-11
  -3.73499990E-02  -1.03568274E-11
  -3.73000018E-02  -1.05700492E-11
  -3.72500010E-02  -1.06214508E-11
  -3.72000001E-02  -1.04521504E-11
  -3.71499993E-02  -1.00067975E-11
  -3.70999984E-02  -9.21310337E-12
  -3.70500013E-02  -7.97936110E-12
  -3.70000005E-02  -6.24282050E-12
  -3.69499996E-02  -4.04531400E-12
  -3.68999988E-02  -1.56612017E-12
  -3.68500017E-02   9.36815512E-13
  -3.68000008E-02   3.25169384E-12
  -3.67500000E-02   5.32422977E-12
  -3.66999991E-02   7.29254851E-12
  -3.66499983E-02   9.44309735E-12
  -3.66000012E-02   1.21225946E-11
  -3.65500003E-02   1.56311995E-11
  -3.64999995E-02   2.01061182E-11
  -3.64499986E-02   2.54264873E-11
  -3.64000015E-02   3.12105307E-11
  -3.63500006E-02   3.69626760E-11
  -3.62999998E-02   4.23310692E-11
  -3.62499990E-02   4.73261569E-11
  -3.62000018E-02   5.23392128E-11
  -3.61500010E-02   5.79175319E-11
  -3.61000001E-02   6.44147652E-11
  -3.60499993E-02   7.17127191E-11
  -3.59999985E-02   7.91600258E-11
  -3.59500013E-02   8.57566518E-11
  -3.59000005E-02   9.05182040E-11
  -3.58499996E-02   9.29030047E-11
  -3.57999988E-02   9.31440688E-11
  -3.57500017E-02   9.23026863E-11
  -3.57000008E-02   9.19173834E-11
  -3.56500000E-02   9.33066263E-11
  -3.55999991E-02   9.68249994E-11
  -3.55499983E-02   1.01487173E-10
  -3.55000012E-02   1.05232566E-10
  -3.54500003E-02   1.05768179E-10
  -3.53999995E-02   1.01604308E-10
  -3.53499986E-02   9.27875346E-11
  -3.53000015E-02   8.09809303E-11
  -3.52500007E-02   6.88212057E-11
  -3.51999998E-02   5.87689966E-11
  -3.51499990E-02   5.18880841E-11
  -3.51000018E-02   4.70930829E-11
  -3.50500010E-02   4.13130294E-11
  -3.50000001E-02   3.06699041E-11
  -3.49499993E-02   1.22560044E-11
  -3.48999985E-02  -1.43204988E-11
  -3.48500013E-02  -4.64568835E-11
  -3.48000005E-02  -7.94995944E-11
  -3.47499996E-02  -1.08749995E-10
  -3.46999988E-02  -1.31618938E-10
  -3.46500017E-02  -1.48919960E-10
  -3.46000008E-02  -1.64662770E-10
  -3.45500000E-02  -1.84345664E-10
  -3.44999991E-02  -2.12391882E-10
  -3.44499983E-02  -2.49816889E-10
  -3.44000012E-02  -2.93257196E-10
  -3.43500003E-02  -3.36020684E-10
  -3.42999995E-02  -3.70921072E-10
  -3.42499986E-02  -3.93699823E-10
  -3.42000015E-02  -4.05359857E-10
  -3.41500007E-02  -4.12108819E-10
  -3.40999998E-02  -4.22721580E-10
  -3.40499990E-02  -4.44420528E-10
  -3.40000018E-02  -4.79154105E-10
  -3.39500010E-02  -5.22045962E-10
  -3.39000002E-02  -5.62873081E-10
  -3.38499993E-02  -5.90124172E-10
  -3.37999985E-02  -5.96017680E-10
  -3.37500013E-02  -5.80265613E-10
  -3.37000005E-02  -5.50689272E-10
  -3.36499996E-02  -5.20053833E-10
  -3.35999988E-02  -5.00240460E-10
  -3.35500017E-02  -4.96349628E-10
  -3.35000008E-02  -5.03618813E-10
  -3.34500000E-02  -5.08869946E-10
  -3.33999991E-02  -4.96084784E-10
  -3.33499983E-02  -4.53692944E-10
  -3.33000012E-02  -3.80256299E-10
  -3.32500003E-02  -2.85839241E-10
  -3.31999995E-02  -1.88211183E-10
  -3.31499986E-02  -1.05275740E-10
  -3.31000015E-02  -4.68977773E-11
  -3.30500007E-02  -9.83945911E-12
  -3.29999998E-02   2.15875269E-11
  -3.29499990E-02   6.89843391E-11
  -3.29000019E-02   1.50111534E-10
  -3.28500010E-02   2.70362316E-10
  -3.28000002E-02   4.19599494E-10
  -3.27499993E-02   5.76132753E-10
  -3.26999985E-02   7.16237125E-10
  -3.26500013E-02   8.24934177E-10
  -3.26000005E-02   9.03083164E-10
  -3.25499997E-02   9.67381286E-10
  -3.24999988E-02   1.04296227E-09
  -3.24500017E-02   1.15158783E-09
  -3.24000008E-02   1.30062472E-09
  -3.23500000E-02   1.47799473E-09
  -3.22999991E-02   1.65591174E-09
  -3.22499983E-02   1.80228765E-09
  -3.22000012E-02   1.89490534E-09
  -3.21500003E-02   1.93178806E-09
  -3.20999995E-02   1.93265937E-09
  -3.20499986E-02   1.93044802E-09
  -3.20000015E-02   1.95641547E-09
  -3.19500007E-02   2.02552641E-09
  -3.18999998E-02   2.12871654E-09
  -3.18499990E-02   2.23571806E-09
  -3.18000019E-02   2.30755792E-09
  -3.17500010E-02   2.31354513E-09
  -3.17000002E-02   2.24527574E-09
  -3.16499993E-02   2.12109641E-09
  -3.15999985E-02   1.97844807E-09
  -3.15500014E-02   1.85709736E-09
  -3.15000005E-02   1.78067971E-09
  -3.14499997E-02   1.74506631E-09
  -3.13999988E-02   1.71913073E-09
  -3.13500017E-02   1.65786007E-09
  -3.13000008E-02   1.52203938E-09
  -3.12500000E-02   1.29577571E-09
  -3.11999992E-02   9.94117899E-10
  -3.11500002E-02   6.57225496E-10
  -3.10999993E-02   3.33384820E-10
  -3.10500003E-02   5.80917571E-11
  -3.09999995E-02  -1.61591712E-10
  -3.09500005E-02  -3.50171392E-10
  -3.08999997E-02  -5.52509705E-10
  -3.08500007E-02  -8.13065559E-10
  -3.07999998E-02  -1.15501431E-09
  -3.07500008E-02  -1.56881008E-09
  -3.07000000E-02  -2.01544959E-09
  -3.06499992E-02  -2.44295162E-09
  -3.06000002E-02  -2.80871193E-09
  -3.05499993E-02  -3.09791415E-09
  -3.05000003E-02  -3.32994188E-09
  -3.04499995E-02  -3.54984109E-09
  -3.04000005E-02  -3.80826704E-09
  -3.03499997E-02  -4.13840651E-09
  -3.03000007E-02  -4.53999061E-09
  -3.02499998E-02  -4.97778707E-09
  -3.02000009E-02  -5.39546319E-09
  -3.01500000E-02  -5.73881609E-09
  -3.00999992E-02  -5.97809802E-09
  -3.00500002E-02  -6.11964968E-09
  -2.99999993E-02  -6.20189189E-09
  -2.99500003E-02  -6.27767660E-09
  -2.98999995E-02  -6.39063868E-09
  -2.98500005E-02  -6.55548593E-09
  -2.97999997E-02  -6.75035627E-09
  -2.97500007E-02  -6.92451252E-09
  -2.96999998E-02  -7.01847336E-09
  -2.96500009E-02  -6.98830460E-09
  -2.96000000E-02  -6.82376333E-09
  -2.95499992E-02  -6.55246080E-09
  -2.95000002E-02  -6.22822460E-09
  -2.94499993E-02  -5.90872729E-09
  -2.94000003E-02  -5.63177771E-09
  -2.93499995E-02  -5.39990364E-09
  -2.93000005E-02  -5.17922771E-09
  -2.92499997E-02  -4.91270225E-09
  -2.92000007E-02  -4.54247351E-09
  -2.91499998E-02  -4.03286649E-09
  -2.91000009E-02  -3.38495365E-09
  -2.90500000E-02  -2.63667577E-09
  -2.89999992E-02  -1.84806237E-09
  -2.89500002E-02  -1.07718867E-09
  -2.88999993E-02  -3.56732116E-10
  -2.88500004E-02   3.19102744E-10
  -2.87999995E-02   9.91850380E-10
  -2.87500005E-02   1.72125902E-09
  -2.86999997E-02   2.55982835E-09
  -2.86500007E-02   3.52910390E-09
  -2.85999998E-02   4.60714844E-09
  -2.85500009E-02   5.73300030E-09
  -2.85000000E-02   6.82751677E-09
  -2.84499992E-02   7.82352583E-09
  -2.84000002E-02   8.69332872E-09
  -2.83499993E-02   9.46140499E-09
  -2.83000004E-02   1.01957580E-08
  -2.82499995E-02   1.09798899E-08
  -2.82000005E-02   1.18762644E-08
  -2.81499997E-02   1.28964173E-08
  -2.81000007E-02   1.39905731E-08
  -2.80499998E-02   1.50623976E-08
  -2.80000009E-02   1.60046660E-08
  -2.79500000E-02   1.67423426E-08
  -2.78999992E-02   1.72653252E-08
  -2.78500002E-02   1.76354433E-08
  -2.77999993E-02   1.79616979E-08
  -2.77500004E-02   1.83520221E-08
  -2.76999995E-02   1.88614333E-08
  -2.76500005E-02   1.94595415E-08
  -2.75999997E-02   2.00337276E-08
  -2.75500007E-02   2.04291997E-08
  -2.74999999E-02   2.05106652E-08
  -2.74500009E-02   2.02203232E-08
  -2.74000000E-02   1.96063752E-08
  -2.73499992E-02   1.88070253E-08
  -2.73000002E-02   1.79940685E-08
  -2.72499993E-02   1.72979142E-08
  -2.72000004E-02   1.67458989E-08
  -2.71499995E-02   1.62430638E-08
  -2.71000005E-02   1.56072222E-08
  -2.70499997E-02   1.46462513E-08
  -2.70000007E-02   1.32447022E-08
  -2.69499999E-02   1.14208101E-08
  -2.69000009E-02   9.32662125E-09
  -2.68500000E-02   7.18781568E-09
  -2.67999992E-02   5.20751131E-09
  -2.67500002E-02   3.47540041E-09
  -2.66999993E-02   1.92308680E-09
  -2.66500004E-02   3.48469253E-10
  -2.65999995E-02  -1.49733448E-09
  -2.65500005E-02  -3.79599685E-09
  -2.64999997E-02  -6.57173649E-09
  -2.64500007E-02  -9.66767111E-09
  -2.63999999E-02  -1.28032944E-08
  -2.63500009E-02  -1.56909739E-08
  -2.63000000E-02  -1.81609519E-08
  -2.62499992E-02  -2.02379269E-08
  -2.62000002E-02  -2.21319816E-08
  -2.61499994E-02  -2.41444091E-08
  -2.61000004E-02  -2.65277667E-08
  -2.60499995E-02  -2.93612175E-08
  -2.60000005E-02  -3.24981997E-08
  -2.59499997E-02  -3.56141641E-08
  -2.59000007E-02  -3.83379728E-08
  -2.58499999E-02  -4.04112335E-08
  -2.58000009E-02  -4.18047641E-08
  -2.57500000E-02  -4.27359694E-08
  -2.56999992E-02  -4.35745058E-08
  -2.56500002E-02  -4.46753994E-08
  -2.55999994E-02  -4.62124454E-08
  -2.55500004E-02  -4.80875109E-08
  -2.54999995E-02  -4.99585902E-08
  -2.54500005E-02  -5.13781409E-08
  -2.53999997E-02  -5.19832959E-08
  -2.53500007E-02  -5.16548049E-08
  -2.52999999E-02  -5.05727833E-08
  -2.52500009E-02  -4.91399774E-08
  -2.52000000E-02  -4.78023452E-08
  -2.51499992E-02  -4.68448462E-08
  -2.51000002E-02  -4.62552272E-08
  -2.50499994E-02  -4.57192968E-08
  -2.50000004E-02  -4.47527846E-08
  -2.49499995E-02  -4.29139213E-08
  -2.49000005E-02  -4.00027815E-08
  -2.48499997E-02  -3.61576333E-08
  -2.48000007E-02  -3.18035127E-08
  -2.47499999E-02  -2.74725718E-08
  -2.47000009E-02  -2.35732394E-08
  -2.46500000E-02  -2.02096935E-08
  -2.45999992E-02  -1.71341199E-08
  -2.45500002E-02  -1.38570568E-08
  -2.44999994E-02  -9.86937732E-09
  -2.44500004E-02  -4.87800023E-09
  -2.43999995E-02   1.05083509E-09
  -2.43500005E-02   7.50641505E-09
  -2.42999997E-02   1.39019463E-08
  -2.42500007E-02   1.97237338E-08
  -2.41999999E-02   2.47511824E-08
  -2.41500009E-02   2.91494242E-08
  -2.41000000E-02   3.33913910E-08
  -2.40499992E-02   3.80406817E-08
  -2.40000002E-02   4.34897380E-08
  -2.39499994E-02   4.97686266E-08
  -2.39000004E-02   5.65105616E-08
  -2.38499995E-02   6.30923580E-08
  -2.38000005E-02   6.88904791E-08
  -2.37499997E-02   7.35414858E-08
  -2.37000007E-02   7.70915278E-08
  -2.36499999E-02   7.99675206E-08
  -2.36000009E-02   8.27817530E-08
  -2.35500000E-02   8.60543494E-08
  -2.34999992E-02   8.99739803E-08
  -2.34500002E-02   9.43011571E-08
  -2.33999994E-02   9.84574982E-08
  -2.33500004E-02   1.01762765E-07
  -2.32999995E-02   1.03716872E-07
  -2.32500006E-02   1.04208127E-07
  -2.31999997E-02   1.03555905E-07
  -2.31500007E-02   1.02365931E-07
  -2.30999999E-02   1.01261293E-07
  -2.30500009E-02   1.00604964E-07
  -2.30000000E-02   1.00335441E-07
  -2.29499992E-02   9.99865648E-08
  -2.29000002E-02   9.88804203E-08
  -2.28499994E-02   9.64114406E-08
  -2.28000004E-02   9.23018391E-08
  -2.27499995E-02   8.67198935E-08
  -2.27000006E-02   8.02101354E-08
  -2.26499997E-02   7.34637808E-08
  -2.26000007E-02   6.70269813E-08
  -2.25499999E-02   6.10712831E-08
  -2.25000009E-02   5.53260193E-08
  -2.24500000E-02   4.92017342E-08
  -2.23999992E-02   4.20525978E-08
  -2.23500002E-02   3.34673942E-08
  -2.22999994E-02   2.34643522E-08
  -2.22500004E-02   1.25069430E-08
  -2.21999995E-02   1.33234224E-09
  -2.21500006E-02  -9.33819333E-09
  -2.20999997E-02  -1.90851122E-08
  -2.20500007E-02  -2.79538348E-08
  -2.19999999E-02  -3.64250106E-08
  -2.19500009E-02  -4.51990232E-08
  -2.19000001E-02  -5.48815180E-08
  -2.18499992E-02  -6.57008030E-08
  -2.18000002E-02  -7.73780613E-08
  -2.17499994E-02  -8.92088963E-08
  -2.17000004E-02  -1.00326162E-07
  -2.16499995E-02  -1.10036609E-07
  -2.16000006E-02  -1.18091897E-07
  -2.15499997E-02  -1.24779007E-07
  -2.15000007E-02  -1.30786546E-07
  -2.14499999E-02  -1.36896347E-07
  -2.14000009E-02  -1.43625257E-07
  -2.13500001E-02  -1.50966429E-07
  -2.12999992E-02  -1.58344719E-07
  -2.12500002E-02  -1.64814765E-07
  -2.11999994E-02  -1.69425704E-07
  -2.11500004E-02  -1.71604896E-07
  -2.10999995E-02  -1.71396024E-07
  -2.10500006E-02  -1.69442828E-07
  -2.09999997E-02  -1.66718394E-07
  -2.09500007E-02  -1.64107718E-07
  -2.08999999E-02  -1.62013578E-07
  -2.08500009E-02  -1.60155807E-07
  -2.08000001E-02  -1.57661276E-07
  -2.07499992E-02  -1.53415101E-07
  -2.07000002E-02  -1.46533225E-07
  -2.06499994E-02  -1.36756270E-07
  -2.06000004E-02  -1.24587473E-07
  -2.05499995E-02  -1.11102736E-07
  -2.05000006E-02  -9.75036585E-08
  -2.04499997E-02  -8.45995913E-08
  -2.04000007E-02  -7.24438536E-08
  -2.03499999E-02  -6.02925070E-08
  -2.03000009E-02  -4.69186574E-08
  -2.02500001E-02  -3.11556150E-08
  -2.01999992E-02  -1.24408981E-08
  -2.01500002E-02   8.87703155E-09
  -2.00999994E-02   3.16194537E-08
  -2.00500004E-02   5.42265504E-08
  -1.99999996E-02   7.53944320E-08
  -1.99500006E-02   9.46219885E-08
  -1.98999997E-02   1.12419677E-07
  -1.98500007E-02   1.30070759E-07
  -1.97999999E-02   1.49033994E-07
  -1.97500009E-02   1.70242544E-07
  -1.97000001E-02   1.93607391E-07
  -1.96499992E-02   2.17955375E-07
  -1.96000002E-02   2.41445861E-07
  -1.95499994E-02   2.62302706E-07
  -1.95000004E-02   2.79547436E-07
  -1.94499996E-02   2.93405378E-07
  -1.94000006E-02   3.05190383E-07
  -1.93499997E-02   3.16696060E-07
  -1.93000007E-02   3.29347216E-07
  -1.92499999E-02   3.43485084E-07
  -1.92000009E-02   3.58114448E-07
  -1.91500001E-02   3.71240702E-07
  -1.90999992E-02   3.80662726E-07
  -1.90500002E-02   3.84882100E-07
  -1.89999994E-02   3.83727524E-07
  -1.89500004E-02   3.78406810E-07
  -1.88999996E-02   3.70944008E-07
  -1.88500006E-02   3.63234790E-07
  -1.87999997E-02   3.56133626E-07
  -1.87500007E-02   3.48985054E-07
  -1.86999999E-02   3.39824282E-07
  -1.86500009E-02   3.26176746E-07
  -1.86000001E-02   3.06112838E-07
  -1.85499992E-02   2.79087033E-07
  -1.85000002E-02   2.46179837E-07
  -1.84499994E-02   2.09616232E-07
  -1.84000004E-02   1.71758629E-07
  -1.83499996E-02   1.34019672E-07
  -1.83000006E-02   9.61773026E-08
  -1.82499997E-02   5.64115332E-08
  -1.82000007E-02   1.20657022E-08
  -1.81499999E-02  -3.91926278E-08
  -1.81000009E-02  -9.83246409E-08
  -1.80500001E-02  -1.64462236E-07
  -1.79999992E-02  -2.35265460E-07
  -1.79500002E-02  -3.07946038E-07
  -1.78999994E-02  -3.80503678E-07
  -1.78500004E-02  -4.52633685E-07
  -1.77999996E-02  -5.25885810E-07
  -1.77500006E-02  -6.02981402E-07
  -1.76999997E-02  -6.86577437E-07
  -1.76500008E-02  -7.78033154E-07
  -1.75999999E-02  -8.76729871E-07
  -1.75500009E-02  -9.80258733E-07
  -1.75000001E-02  -1.08541008E-06
  -1.74499992E-02  -1.18953972E-06
  -1.74000002E-02  -1.29170849E-06
  -1.73499994E-02  -1.39307122E-06
  -1.73000004E-02  -1.49633308E-06
  -1.72499996E-02  -1.60450679E-06
  -1.72000006E-02  -1.71951274E-06
  -1.71499997E-02  -1.84124895E-06
  -1.71000008E-02  -1.96755991E-06
  -1.70499999E-02  -2.09511813E-06
  -1.70000009E-02  -2.22083213E-06
  -1.69500001E-02  -2.34315621E-06
  -1.68999992E-02  -2.46273316E-06
  -1.68500002E-02  -2.58206546E-06
  -1.67999994E-02  -2.70434430E-06
  -1.67500004E-02  -2.83194640E-06
  -1.66999996E-02  -2.96528515E-06
  -1.66500006E-02  -3.10254950E-06
  -1.65999997E-02  -3.24044549E-06
  -1.65500008E-02  -3.37559391E-06
  -1.64999999E-02  -3.50596861E-06
  -1.64500009E-02  -3.63174809E-06
  -1.64000001E-02  -3.75521290E-06
  -1.63499992E-02  -3.87970067E-06
  -1.63000003E-02  -4.00808131E-06
  -1.62499994E-02  -4.14143005E-06
  -1.62000004E-02  -4.27851455E-06
  -1.61499996E-02  -4.41631028E-06
  -1.61000006E-02  -4.55134295E-06
  -1.60499997E-02  -4.68124017E-06
  -1.60000008E-02  -4.80577319E-06
  -1.59499999E-02  -4.92695153E-06
  -1.59000009E-02  -5.04813988E-06
  -1.58500001E-02  -5.17262288E-06
  -1.57999992E-02  -5.30213447E-06
  -1.57500003E-02  -5.43602982E-06
  -1.56999994E-02  -5.57160456E-06
  -1.56500004E-02  -5.70531893E-06
  -1.55999996E-02  -5.83441306E-06
  -1.55499997E-02  -5.95817846E-06
  -1.54999997E-02  -6.07825950E-06
  -1.54499998E-02  -6.19797811E-06
  -1.53999999E-02  -6.32100728E-06
  -1.53500000E-02  -6.44980537E-06
  -1.53000001E-02  -6.58458657E-06
  -1.52500002E-02  -6.72333726E-06
  -1.52000003E-02  -6.86280418E-06
  -1.51500003E-02  -7.00005148E-06
  -1.51000004E-02  -7.13385953E-06
  -1.50499996E-02  -7.26536109E-06
  -1.49999997E-02  -7.39767756E-06
  -1.49499997E-02  -7.53461154E-06
  -1.48999998E-02  -7.67910296E-06
  -1.48499999E-02  -7.83205269E-06
  -1.48000000E-02  -7.99207282E-06
  -1.47500001E-02  -8.15628027E-06
  -1.47000002E-02  -8.32164096E-06
  -1.46500003E-02  -8.48641321E-06
  -1.46000003E-02  -8.65104084E-06
  -1.45500004E-02  -8.81809592E-06
  -1.44999996E-02  -8.99123097E-06
  -1.44499997E-02  -9.17372927E-06
  -1.43999998E-02  -9.36715060E-06
  -1.43499998E-02  -9.57073462E-06
  -1.42999999E-02  -9.78194566E-06
  -1.42500000E-02  -9.99784697E-06
  -1.42000001E-02  -1.02165341E-05
  -1.41500002E-02  -1.04380351E-05
  -1.41000003E-02  -1.06644347E-05
  -1.40500003E-02  -1.08991162E-05
  -1.40000004E-02  -1.11453974E-05
  -1.39499996E-02  -1.14053782E-05
  -1.38999997E-02  -1.16791653E-05
  -1.38499998E-02  -1.19646693E-05
  -1.37999998E-02  -1.22587799E-05
  -1.37499999E-02  -1.25589349E-05
  -1.37000000E-02  -1.28643978E-05
  -1.36500001E-02  -1.31768566E-05
  -1.36000002E-02  -1.34995553E-05
  -1.35500003E-02  -1.38358500E-05
  -1.35000004E-02  -1.41880300E-05
  -1.34500004E-02  -1.45566919E-05
  -1.33999996E-02  -1.49406042E-05
  -1.33499997E-02  -1.53371238E-05
  -1.32999998E-02  -1.57434752E-05
  -1.32499998E-02  -1.61581829E-05
  -1.31999999E-02  -1.65820420E-05
  -1.31500000E-02  -1.70177718E-05
  -1.31000001E-02  -1.74688230E-05
  -1.30500002E-02  -1.79381204E-05
  -1.30000003E-02  -1.84268738E-05
  -1.29500004E-02  -1.89341263E-05
  -1.29000004E-02  -1.94575041E-05
  -1.28499996E-02  -1.99944807E-05
  -1.27999997E-02  -2.05433262E-05
  -1.27499998E-02  -2.11037459E-05
  -1.26999998E-02  -2.16772332E-05
  -1.26499999E-02  -2.22668186E-05
  -1.26000000E-02  -2.28758654E-05
  -1.25500001E-02  -2.35063326E-05
  -1.25000002E-02  -2.41579764E-05
  -1.24500003E-02  -2.48290053E-05
  -1.24000004E-02  -2.55171999E-05
  -1.23500004E-02  -2.62211834E-05
  -1.22999996E-02  -2.69411048E-05
  -1.22499997E-02  -2.76785213E-05
  -1.21999998E-02  -2.84359321E-05
  -1.21499998E-02  -2.92161058E-05
  -1.20999999E-02  -3.00212905E-05
  -1.20500000E-02  -3.08515773E-05
  -1.20000001E-02  -3.17046397E-05
  -1.19500002E-02  -3.25772453E-05
  -1.19000003E-02  -3.34671349E-05
  -1.18500004E-02  -3.43742322E-05
  -1.18000004E-02  -3.53002797E-05
  -1.17499996E-02  -3.62484388E-05
  -1.16999997E-02  -3.72227114E-05
  -1.16499998E-02  -3.82268554E-05
  -1.15999999E-02  -3.92634065E-05
  -1.15499999E-02  -4.03328559E-05
  -1.15000000E-02  -4.14338283E-05
  -1.14500001E-02  -4.25639300E-05
  -1.14000002E-02  -4.37210074E-05
  -1.13500003E-02  -4.49047075E-05
  -1.13000004E-02  -4.61163618E-05
  -1.12500004E-02  -4.73572218E-05
  -1.11999996E-02  -4.86279059E-05
  -1.11499997E-02  -4.99283415E-05
  -1.10999998E-02  -5.12580446E-05
  -1.10499999E-02  -5.26169970E-05
  -1.09999999E-02  -5.40051988E-05
  -1.09500000E-02  -5.54235266E-05
  -1.09000001E-02  -5.68749274E-05
  -1.08500002E-02  -5.83642650E-05
  -1.08000003E-02  -5.98980223E-05
  -1.07500004E-02  -6.14819946E-05
  -1.07000005E-02  -6.31187213E-05
  -1.06499996E-02  -6.48073110E-05
  -1.05999997E-02  -6.65450789E-05
  -1.05499998E-02  -6.83288526E-05
  -1.04999999E-02  -7.01552926E-05
  -1.04499999E-02  -7.20217067E-05
  -1.04000000E-02  -7.39260795E-05
  -1.03500001E-02  -7.58676179E-05
  -1.03000002E-02  -7.78480389E-05
  -1.02500003E-02  -7.98707115E-05
  -1.02000004E-02  -8.19379347E-05
  -1.01500005E-02  -8.40503853E-05
  -1.00999996E-02  -8.62089728E-05
  -1.00499997E-02  -8.84164838E-05
  -9.99999978E-03  -9.06777641E-05
  -9.94999986E-03  -9.29982270E-05
  -9.89999995E-03  -9.53822891E-05
  -9.85000003E-03  -9.78329408E-05
  -9.80000012E-03  -1.00351841E-04
  -9.75000020E-03  -1.02939812E-04
  -9.70000029E-03  -1.05595784E-04
  -9.65000037E-03  -1.08317341E-04
  -9.60000046E-03  -1.11102010E-04
  -9.54999961E-03  -1.13948867E-04
  -9.49999969E-03  -1.16858995E-04
  -9.44999978E-03  -1.19833996E-04
  -9.39999986E-03  -1.22873927E-04
  -9.34999995E-03  -1.25978157E-04
  -9.30000003E-03  -1.29147345E-04
  -9.25000012E-03  -1.32381130E-04
  -9.20000020E-03  -1.35677561E-04
  -9.15000029E-03  -1.39035619E-04
  -9.10000037E-03  -1.42456774E-04
  -9.05000046E-03  -1.45944039E-04
  -8.99999961E-03  -1.49501284E-04
  -8.94999970E-03  -1.53132380E-04
  -8.89999978E-03  -1.56840921E-04
  -8.84999987E-03  -1.60630108E-04
  -8.79999995E-03  -1.64503144E-04
  -8.75000004E-03  -1.68462007E-04
  -8.70000012E-03  -1.72507935E-04
  -8.65000021E-03  -1.76642905E-04
  -8.60000029E-03  -1.80870004E-04
  -8.55000038E-03  -1.85192737E-04
  -8.50000046E-03  -1.89610786E-04
  -8.44999962E-03  -1.94120745E-04
  -8.39999970E-03  -1.98721289E-04
  -8.34999979E-03  -2.03411502E-04
  -8.29999987E-03  -2.08189522E-04
  -8.24999996E-03  -2.13052685E-04
  -8.20000004E-03  -2.17998080E-04
  -8.15000013E-03  -2.23027120E-04
  -8.10000021E-03  -2.28145902E-04
  -8.05000030E-03  -2.33357758E-04
  -8.00000038E-03  -2.38660054E-04
  -7.95000046E-03  -2.44050942E-04
  -7.89999962E-03  -2.49531033E-04
  -7.84999970E-03  -2.55105871E-04
  -7.79999979E-03  -2.60780216E-04
  -7.74999987E-03  -2.66554824E-04
  -7.69999996E-03  -2.72431818E-04
  -7.65000004E-03  -2.78418156E-04
  -7.60000013E-03  -2.84521433E-04
  -7.55000021E-03  -2.90747179E-04
  -7.49999983E-03  -2.97095627E-04
  -7.44999992E-03  -3.03561887E-04
  -7.40000000E-03  -3.10144882E-04
  -7.35000009E-03  -3.16848978E-04
  -7.30000017E-03  -3.23677610E-04
  -7.24999979E-03  -3.30630923E-04
  -7.19999988E-03  -3.37707897E-04
  -7.14999996E-03  -3.44906817E-04
  -7.10000005E-03  -3.52228788E-04
  -7.05000013E-03  -3.59674479E-04
  -7.00000022E-03  -3.67241795E-04
  -6.94999984E-03  -3.74928844E-04
  -6.89999992E-03  -3.82733502E-04
  -6.85000001E-03  -3.90657427E-04
  -6.80000009E-03  -3.98711069E-04
  -6.75000018E-03  -4.06904175E-04
  -6.69999979E-03  -4.15240967E-04
  -6.64999988E-03  -4.23720834E-04
  -6.59999996E-03  -4.32341272E-04
  -6.55000005E-03  -4.41102369E-04
  -6.50000013E-03  -4.50011197E-04
  -6.45000022E-03  -4.59075702E-04
  -6.39999984E-03  -4.68298676E-04
  -6.34999992E-03  -4.77684633E-04
  -6.30000001E-03  -4.87236946E-04
  -6.25000009E-03  -4.96962981E-04
  -6.20000018E-03  -5.06873534E-04
  -6.14999980E-03  -5.16965985E-04
  -6.09999988E-03  -5.27228462E-04
  -6.04999997E-03  -5.37653978E-04
  -6.00000005E-03  -5.48247248E-04
  -5.95000014E-03  -5.59019856E-04
  -5.90000022E-03  -5.69978671E-04
  -5.84999984E-03  -5.81120315E-04
  -5.79999993E-03  -5.92438504E-04
  -5.75000001E-03  -6.03939523E-04
  -5.70000010E-03  -6.15634315E-04
  -5.65000018E-03  -6.27526082E-04
  -5.59999980E-03  -6.39606849E-04
  -5.54999989E-03  -6.51867245E-04
  -5.49999997E-03  -6.64317166E-04
  -5.45000006E-03  -6.76977681E-04
  -5.40000014E-03  -6.89860375E-04
  -5.35000023E-03  -7.02967052E-04
  -5.29999984E-03  -7.16297538E-04
  -5.24999993E-03  -7.29857013E-04
  -5.20000001E-03  -7.43650657E-04
  -5.15000010E-03  -7.57682079E-04
  -5.10000018E-03  -7.71953899E-04
  -5.04999980E-03  -7.86468328E-04
  -4.99999989E-03  -8.01228860E-04
  -4.94999997E-03  -8.16243293E-04
  -4.90000006E-03  -8.31525947E-04
  -4.85000014E-03  -8.47070944E-04
  -4.80000023E-03  -8.62861983E-04
  -4.74999985E-03  -8.78892781E-04
  -4.69999993E-03  -8.95171135E-04
  -4.65000002E-03  -9.11700947E-04
  -4.60000010E-03  -9.28478374E-04
  -4.55000019E-03  -9.45508247E-04
  -4.49999981E-03  -9.62792896E-04
  -4.44999989E-03  -9.80343204E-04
  -4.39999998E-03  -9.98181407E-04
  -4.35000006E-03  -1.01632113E-03
  -4.30000015E-03  -1.03475631E-03
  -4.25000023E-03  -1.05347426E-03
  -4.19999985E-03  -1.07247534E-03
  -4.14999994E-03  -1.09177758E-03
  -4.10000002E-03  -1.11140369E-03
  -4.05000011E-03  -1.13136158E-03
  -4.00000019E-03  -1.15164800E-03
  -3.94999981E-03  -1.17225456E-03
  -3.89999989E-03  -1.19317893E-03
  -3.84999998E-03  -1.21442764E-03
  -3.80000006E-03  -1.23600836E-03
  -3.74999992E-03  -1.25791889E-03
  -3.70000000E-03  -1.28014223E-03
  -3.65000009E-03  -1.30266184E-03
  -3.59999994E-03  -1.32549333E-03
  -3.55000002E-03  -1.34867325E-03
  -3.50000011E-03  -1.37221382E-03
  -3.44999996E-03  -1.39609689E-03
  -3.40000005E-03  -1.42028870E-03
  -3.34999990E-03  -1.44479866E-03
  -3.29999998E-03  -1.46966253E-03
  -3.25000007E-03  -1.49489276E-03
  -3.19999992E-03  -1.52047700E-03
  -3.15000000E-03  -1.54640165E-03
  -3.10000009E-03  -1.57268334E-03
  -3.04999994E-03  -1.59934454E-03
  -3.00000003E-03  -1.62640691E-03
  -2.95000011E-03  -1.65385881E-03
  -2.89999996E-03  -1.68165856E-03
  -2.85000005E-03  -1.70980417E-03
  -2.79999990E-03  -1.73832336E-03
  -2.74999999E-03  -1.76724070E-03
  -2.70000007E-03  -1.79656083E-03
  -2.64999992E-03  -1.82626955E-03
  -2.60000001E-03  -1.85634429E-03
  -2.55000009E-03  -1.88679143E-03
  -2.49999994E-03  -1.91765185E-03
  -2.45000003E-03  -1.94893463E-03
  -2.40000011E-03  -1.98058994E-03
  -2.34999997E-03  -2.01257272E-03
  -2.30000005E-03  -2.04489566E-03
  -2.24999990E-03  -2.07761372E-03
  -2.19999999E-03  -2.11076066E-03
  -2.15000007E-03  -2.14430992E-03
  -2.09999993E-03  -2.17822217E-03
  -2.05000001E-03  -2.21246365E-03
  -2.00000009E-03  -2.24707415E-03
  -1.94999995E-03  -2.28212634E-03
  -1.90000003E-03  -2.31761392E-03
  -1.85000000E-03  -2.35347450E-03
  -1.79999997E-03  -2.38968199E-03
  -1.75000005E-03  -2.42627994E-03
  -1.70000002E-03  -2.46332260E-03
  -1.64999999E-03  -2.50084023E-03
  -1.59999996E-03  -2.53878161E-03
  -1.55000004E-03  -2.57708062E-03
  -1.50000001E-03  -2.61573470E-03
  -1.44999998E-03  -2.65477481E-03
  -1.39999995E-03  -2.69425916E-03
  -1.35000004E-03  -2.73416610E-03
  -1.30000000E-03  -2.77441950E-03
  -1.24999997E-03  -2.81498441E-03
  -1.20000006E-03  -2.85590882E-03
  -1.15000003E-03  -2.89726001E-03
  -1.09999999E-03  -2.93901959E-03
  -1.04999996E-03  -2.98115169E-03
  -1.00000005E-03  -3.02360579E-03
  -9.50000016E-04  -3.06637632E-03
  -8.99999985E-04  -3.10952007E-03
  -8.50000011E-04  -3.15308408E-03
  -7.99999980E-04  -3.19709326E-03
  -7.50000007E-04  -3.24148079E-03
  -6.99999975E-04  -3.28619010E-03
  -6.50000002E-04  -3.33126984E-03
  -6.00000028E-04  -3.37676494E-03
  -5.49999997E-04  -3.42266401E-03
  -5.00000024E-04  -3.46891442E-03
  -4.49999992E-04  -3.51545075E-03
  -3.99999990E-04  -3.56230419E-03
  -3.49999988E-04  -3.60961095E-03
  -3.00000014E-04  -3.65735311E-03
  -2.50000012E-04  -3.70538491E-03
  -1.99999995E-04  -3.75369005E-03
  -1.50000007E-04  -3.80233605E-03
  -9.99999975E-05  -3.85130430E-03
  -4.99999987E-05  -3.90056684E-03
   0.00000000      -3.95016139E-03
   4.99999987E-05  -4.00013058E-03
   9.99999975E-05  -4.05044807E-03
   1.50000007E-04  -4.10103938E-03
   1.99999995E-04  -4.15190682E-03
   2.50000012E-04  -4.20311000E-03
   3.00000014E-04  -4.25466942E-03
   3.49999988E-04  -4.30653198E-03
   3.99999990E-04  -4.35862970E-03
   4.49999992E-04  -4.41096863E-03
   5.00000024E-04  -4.46362747E-03
   5.49999997E-04  -4.51669144E-03
   6.00000028E-04  -4.57012048E-03
   6.50000002E-04  -4.62375814E-03
   6.99999975E-04  -4.67758998E-03
   7.50000007E-04  -4.73173428E-03
   7.99999980E-04  -4.78623901E-03
   8.50000011E-04  -4.84102173E-03
   8.99999985E-04  -4.89597581E-03
   9.50000016E-04  -4.95113805E-03
   1.00000005E-03  -5.00659086E-03
   1.04999996E-03  -5.06238919E-03
   1.09999999E-03  -5.11849346E-03
   1.15000003E-03  -5.17474208E-03
   1.20000006E-03  -5.23108942E-03
   1.24999997E-03  -5.28767053E-03
   1.30000000E-03  -5.34456316E-03
   1.35000004E-03  -5.40171145E-03
   1.39999995E-03  -5.45902876E-03
   1.44999998E-03  -5.51645737E-03
   1.50000001E-03  -5.57410205E-03
   1.55000004E-03  -5.63206943E-03
   1.59999996E-03  -5.69030456E-03
   1.64999999E-03  -5.74867334E-03
   1.70000002E-03  -5.80717344E-03
   1.75000005E-03  -5.86585095E-03
   1.79999997E-03  -5.92475152E-03
   1.85000000E-03  -5.98393008E-03
   1.90000003E-03  -6.04329631E-03
   1.94999995E-03  -6.10281108E-03
   2.00000009E-03  -6.16249815E-03
   2.05000001E-03  -6.22236775E-03
   2.09999993E-03  -6.28240500E-03
   2.15000007E-03  -6.34254422E-03
   2.19999999E-03  -6.40279660E-03
   2.24999990E-03  -6.46314211E-03
   2.30000005E-03  -6.52353326E-03
   2.34999997E-03  -6.58409251E-03
   2.40000011E-03  -6.64492697E-03
   2.45000003E-03  -6.70597469E-03
   2.49999994E-03  -6.76707365E-03
   2.55000009E-03  -6.82811020E-03
   2.60000001E-03  -6.88922405E-03
   2.64999992E-03  -6.95055164E-03
   2.70000007E-03  -7.01202732E-03
   2.74999999E-03  -7.07362732E-03
   2.79999990E-03  -7.13536330E-03