  -3.99999991E-02   0.00000000    
  -3.99499983E-02   0.00000000    
  -3.99000011E-02   0.00000000    
  -3.98500003E-02   3.40623987E-15
  -3.97999994E-02   2.71216799E-14
  -3.97499986E-02   1.11779611E-13
  -3.97000015E-02   3.19432957E-13
  -3.96500006E-02   7.19434440E-13
  -3.95999998E-02   1.38660567E-12
  -3.95499989E-02   2.42683781E-12
  -3.95000018E-02   3.99011640E-12
  -3.94500010E-02   6.19919871E-12
  -3.94000001E-02   8.99944876E-12
  -3.93499993E-02   1.20775074E-11
  -3.92999984E-02   1.50188594E-11
  -3.92500013E-02   1.76686374E-11
  -3.92000005E-02   2.03988597E-11
  -3.91499996E-02   2.39904520E-11
  -3.90999988E-02   2.91833918E-11
  -3.90500017E-02   3.62848293E-11
  -3.90000008E-02   4.51460883E-11
  -3.89500000E-02   5.53903971E-11
  -3.88999991E-02   6.65229399E-11
  -3.88499983E-02   7.78317341E-11
  -3.88000011E-02   8.84447793E-11
  -3.87500003E-02   9.78623571E-11
  -3.86999995E-02   1.06630024E-10
  -3.86499986E-02   1.16331167E-10
  -3.86000015E-02   1.28533531E-10
  -3.85500006E-02   1.43425577E-10
  -3.84999998E-02   1.59394928E-10
  -3.84499989E-02   1.73985784E-10
  -3.84000018E-02   1.85300261E-10
  -3.83500010E-02   1.92533170E-10
  -3.83000001E-02   1.95426009E-10
  -3.82499993E-02   1.93694782E-10
  -3.81999984E-02   1.87357130E-10
  -3.81500013E-02   1.77488538E-10
  -3.81000005E-02   1.66070713E-10
  -3.80499996E-02   1.54534052E-10
  -3.79999988E-02   1.42342388E-10
  -3.79500017E-02   1.27267932E-10
  -3.79000008E-02   1.07204204E-10
  -3.78500000E-02   8.14922019E-11
  -3.77999991E-02   5.01729144E-11
  -3.77499983E-02   1.20829076E-11
  -3.77000012E-02  -3.56505797E-11
  -3.76500003E-02  -9.55955801E-11
  -3.75999995E-02  -1.67424463E-10
  -3.75499986E-02  -2.47762449E-10
  -3.75000015E-02  -3.33081507E-10
  -3.74500006E-02  -4.22926916E-10
  -3.73999998E-02  -5.20368082E-10
  -3.73499990E-02  -6.29538366E-10
  -3.73000018E-02  -7.52924501E-10
  -3.72500010E-02  -8.90441609E-10
  -3.72000001E-02  -1.03941722E-09
  -3.71499993E-02  -1.19353394E-09
  -3.70999984E-02  -1.34133205E-09
  -3.70500013E-02  -1.46780421E-09
  -3.70000005E-02  -1.56128144E-09
  -3.69499996E-02  -1.62238079E-09
  -3.68999988E-02  -1.66781544E-09
  -3.68500017E-02  -1.72440440E-09
  -3.68000008E-02  -1.81603321E-09
  -3.67500000E-02  -1.95163308E-09
  -3.66999991E-02  -2.12069584E-09
  -3.66499983E-02  -2.29689046E-09
  -3.66000012E-02  -2.44640619E-09
  -3.65500003E-02  -2.53830845E-09
  -3.64999995E-02  -2.55577848E-09
  -3.64499986E-02  -2.50522136E-09
  -3.64000015E-02  -2.41676701E-09
  -3.63500006E-02  -2.33103870E-09
  -3.62999998E-02  -2.27580843E-09
  -3.62499990E-02  -2.24600671E-09
  -3.62000018E-02  -2.20141128E-09
  -3.61500010E-02  -2.08552864E-09
  -3.61000001E-02  -1.85494620E-09
  -3.60499993E-02  -1.50252533E-09
  -3.59999985E-02  -1.06340026E-09
  -3.59500013E-02  -6.02792316E-10
  -3.59000005E-02  -1.91085828E-10
  -3.58499996E-02   1.26445382E-10
  -3.57999988E-02   3.55605961E-10
  -3.57500017E-02   5.61872382E-10
  -3.57000008E-02   8.50377435E-10
  -3.56500000E-02   1.31908051E-09
  -3.55999991E-02   2.00590078E-09
  -3.55499983E-02   2.86023427E-09
  -3.55000012E-02   3.75876752E-09
  -3.54500003E-02   4.56011096E-09
  -3.53999995E-02   5.17056531E-09
  -3.53499986E-02   5.58910340E-09
  -3.53000015E-02   5.91216232E-09
  -3.52500007E-02   6.29683283E-09
  -3.51999998E-02   6.89505786E-09
  -3.51499990E-02   7.78134890E-09
  -3.51000018E-02   8.90371155E-09
  -3.50500010E-02   1.00862030E-08
  -3.50000001E-02   1.10935474E-08
  -3.49499993E-02   1.17355867E-08
  -3.48999985E-02   1.19611094E-08
  -3.48500013E-02   1.18892185E-08
  -3.48000005E-02   1.17575851E-08
  -3.47499996E-02   1.18114878E-08
  -3.46999988E-02   1.21871500E-08
  -3.46500017E-02   1.28426150E-08
  -3.46000008E-02   1.35655194E-08
  -3.45500000E-02   1.40559102E-08
  -3.44999991E-02   1.40544953E-08
  -3.44499983E-02   1.34659759E-08
  -3.44000012E-02   1.24199113E-08
  -3.43500003E-02   1.12289600E-08
  -3.42999995E-02   1.02495852E-08
  -3.42499986E-02   9.70529168E-09
  -3.42000015E-02   9.56186774E-09
  -3.41500007E-02   9.52364587E-09
  -3.40999998E-02   9.15845089E-09
  -3.40499990E-02   8.09295919E-09
  -3.40000018E-02   6.18742213E-09
  -3.39500010E-02   3.61151575E-09
  -3.39000002E-02   7.86351095E-10
  -3.38499993E-02  -1.78895732E-09
  -3.37999985E-02  -3.75968368E-09
  -3.37500013E-02  -5.09222797E-09
  -3.37000005E-02  -6.11630613E-09
  -3.36499996E-02  -7.39397343E-09
  -3.35999988E-02  -9.46018730E-09
  -3.35500017E-02  -1.25538850E-08
  -3.35000008E-02  -1.64753047E-08
  -3.34500000E-02  -2.06478568E-08
  -3.33999991E-02  -2.43611762E-08
  -3.33499983E-02  -2.70840879E-08
  -3.33000012E-02  -2.87065642E-08
  -3.32500003E-02  -2.96035854E-08
  -3.31999995E-02  -3.04877439E-08
  -3.31499986E-02  -3.21029852E-08
  -3.31000015E-02  -3.48818077E-08
  -3.30500007E-02  -3.87173813E-08
  -3.29999998E-02  -4.29688853E-08
  -3.29499990E-02  -4.67198440E-08
  -3.29000019E-02  -4.91833383E-08
  -3.28500010E-02  -5.00631323E-08
  -3.28000002E-02  -4.96919732E-08
  -3.27499993E-02  -4.88754459E-08
  -3.26999985E-02  -4.85133498E-08
  -3.26500013E-02  -4.91736571E-08
  -3.26000005E-02  -5.08098630E-08
  -3.25499997E-02  -5.27478257E-08
  -3.24999988E-02  -5.39568141E-08
  -3.24500017E-02  -5.35004290E-08
  -3.24000008E-02  -5.09767375E-08
  -3.23500000E-02  -4.67412988E-08
  -3.22999991E-02  -4.17866524E-08
  -3.22499983E-02  -3.73085527E-08
  -3.22000012E-02  -3.41504780E-08
  -3.21500003E-02  -3.23929719E-08
  -3.20999995E-02  -3.12915809E-08
  -3.20499986E-02  -2.95983327E-08
  -3.20000015E-02  -2.61208211E-08
  -3.19500007E-02  -2.02672013E-08
  -3.18999998E-02  -1.23375328E-08
  -3.18499990E-02  -3.42945738E-09
  -3.18000019E-02   5.01596586E-09
  -3.17500010E-02   1.18476295E-08
  -3.17000002E-02   1.67423373E-08
  -3.16499993E-02   2.03886827E-08
  -3.15999985E-02   2.42037146E-08
  -3.15500014E-02   2.96883673E-08
  -3.15000005E-02   3.77153953E-08
  -3.14499997E-02   4.80892943E-08
  -3.13999988E-02   5.95897163E-08
  -3.13500017E-02   7.04789898E-08
  -3.13000008E-02   7.92435344E-08
  -3.12500000E-02   8.52436202E-08
  -3.11999992E-02   8.89913281E-08
  -3.11500002E-02   9.19306657E-08
  -3.10999993E-02   9.57959259E-08
  -3.10500003E-02   1.01811494E-07
  -3.09999995E-02   1.10089047E-07
  -3.09500005E-02   1.19516898E-07
  -3.08999997E-02   1.28220492E-07
  -3.08500007E-02   1.34395364E-07
  -3.07999998E-02   1.37122782E-07
  -3.07500008E-02   1.36782930E-07
  -3.07000000E-02   1.34875606E-07
  -3.06499992E-02   1.33336627E-07
  -3.06000002E-02   1.33659100E-07
  -3.05499993E-02   1.36201535E-07
  -3.05000003E-02   1.39983101E-07
  -3.04499995E-02   1.43067140E-07
  -3.04000005E-02   1.43391844E-07
  -3.03499997E-02   1.39699608E-07
  -3.03000007E-02   1.32137572E-07
  -3.02499998E-02   1.22227604E-07
  -3.02000009E-02   1.12190357E-07
  -3.01500000E-02   1.03930290E-07
  -3.00999992E-02   9.81590631E-08
  -3.00500002E-02   9.40606952E-08
  -2.99999993E-02   8.96463490E-08
  -2.99500003E-02   8.26327877E-08
  -2.98999995E-02   7.14596027E-08
  -2.98500005E-02   5.60150433E-08
  -2.97999997E-02   3.77537965E-08
  -2.97500007E-02   1.91297342E-08
  -2.96999998E-02   2.55775823E-09
  -2.96500009E-02  -1.06548148E-08
  -2.96000000E-02  -2.09097237E-08
  -2.95499992E-02  -3.01503214E-08
  -2.95000002E-02  -4.09867909E-08
  -2.94499993E-02  -5.55124657E-08
  -2.94000003E-02  -7.43570894E-08
  -2.93499995E-02  -9.63929310E-08
  -2.93000005E-02  -1.19202440E-07
  -2.92499997E-02  -1.40092737E-07
  -2.92000007E-02  -1.57226523E-07
  -2.91499998E-02  -1.70398309E-07
  -2.91000009E-02  -1.81113819E-07
  -2.90500000E-02  -1.91908214E-07
  -2.89999992E-02  -2.05172512E-07
  -2.89500002E-02  -2.22008822E-07
  -2.88999993E-02  -2.41656409E-07
  -2.88500004E-02  -2.61772612E-07
  -2.87999995E-02  -2.79442276E-07
  -2.87500005E-02  -2.92442593E-07
  -2.86999997E-02  -3.00190919E-07
  -2.86500007E-02  -3.03970978E-07
  -2.85999998E-02  -3.06355616E-07
  -2.85500009E-02  -3.10074597E-07
  -2.85000000E-02  -3.16791812E-07
  -2.84499992E-02  -3.26309987E-07
  -2.84000002E-02  -3.36572327E-07
  -2.83499993E-02  -3.44502780E-07
  -2.83000004E-02  -3.47345718E-07
  -2.82499995E-02  -3.43901036E-07
  -2.82000005E-02  -3.35069302E-07
  -2.81499997E-02  -3.23442606E-07
  -2.81000007E-02  -3.12136592E-07
  -2.80499998E-02  -3.03398735E-07
  -2.80000009E-02  -2.97599541E-07
  -2.79500000E-02  -2.93032286E-07
  -2.78999992E-02  -2.86597981E-07
  -2.78500002E-02  -2.75107311E-07
  -2.77999993E-02  -2.56681204E-07
  -2.77500004E-02  -2.31642858E-07
  -2.76999995E-02  -2.02473828E-07
  -2.76500005E-02  -1.72800171E-07
  -2.75999997E-02  -1.45833695E-07
  -2.75500007E-02  -1.22970789E-07
  -2.74999999E-02  -1.03194623E-07
  -2.74500009E-02  -8.35526492E-08
  -2.74000000E-02  -6.04802537E-08
  -2.73499992E-02  -3.13818518E-08
  -2.73000002E-02   4.20938084E-09
  -2.72499993E-02   4.43633823E-08
  -2.72000004E-02   8.54910240E-08
  -2.71499995E-02   1.23819163E-07
  -2.71000005E-02   1.57002219E-07
  -2.70499997E-02   1.85156466E-07
  -2.70000007E-02   2.10809247E-07
  -2.69499999E-02   2.37736685E-07
  -2.69000009E-02   2.69202303E-07
  -2.68500000E-02   3.06412005E-07
  -2.67999992E-02   3.47893717E-07
  -2.67500002E-02   3.90072898E-07
  -2.66999993E-02   4.28768118E-07
  -2.66500004E-02   4.60950503E-07
  -2.65999995E-02   4.86025101E-07
  -2.65500005E-02   5.06085485E-07
  -2.64999997E-02   5.24995414E-07
  -2.64500007E-02   5.46634737E-07
  -2.63999999E-02   5.73049988E-07
  -2.63500009E-02   6.03361173E-07
  -2.63000000E-02   6.33985906E-07
  -2.62499992E-02   6.60141495E-07
  -2.62000002E-02   6.77945081E-07
  -2.61499994E-02   6.86144745E-07
  -2.61000004E-02   6.86695159E-07
  -2.60499995E-02   6.83926032E-07
  -2.60000005E-02   6.82670645E-07
  -2.59499997E-02   6.86143153E-07
  -2.59000007E-02   6.94460709E-07
  -2.58499999E-02   7.04464981E-07
  -2.58000009E-02   7.10984636E-07
  -2.57500000E-02   7.09067251E-07
  -2.56999992E-02   6.96214556E-07
  -2.56500002E-02   6.73577290E-07
  -2.55999994E-02   6.45502155E-07
  -2.55500004E-02   6.17609544E-07
  -2.54999995E-02   5.94274240E-07
  -2.54500005E-02   5.76666253E-07
  -2.53999997E-02   5.62220350E-07
  -2.53500007E-02   5.45754915E-07
  -2.52999999E-02   5.21763866E-07
  -2.52500009E-02   4.86888609E-07
  -2.52000000E-02   4.41513095E-07
  -2.51499992E-02   3.89756764E-07
  -2.51000002E-02   3.37778516E-07
  -2.50499994E-02   2.91076418E-07
  -2.50000004E-02   2.51998046E-07
  -2.49499995E-02   2.18647557E-07
  -2.49000005E-02   1.85750423E-07
  -2.48499997E-02   1.47095747E-07
  -2.48000007E-02   9.84165993E-08
  -2.47499999E-02   3.93851067E-08
  -2.47000009E-02  -2.61658535E-08
  -2.46500000E-02  -9.18767853E-08
  -2.45999992E-02  -1.51646603E-07
  -2.45500002E-02  -2.02363864E-07
  -2.44999994E-02  -2.45365356E-07
  -2.44500004E-02  -2.85928337E-07
  -2.43999995E-02  -3.30911320E-07
  -2.43500005E-02  -3.85538044E-07
  -2.42999997E-02  -4.50828963E-07
  -2.42500007E-02  -5.22940582E-07
  -2.41999999E-02  -5.94780659E-07
  -2.41500009E-02  -6.59163391E-07
  -2.41000000E-02  -7.12044823E-07
  -2.40499992E-02  -7.54359917E-07
  -2.40000002E-02  -7.91654372E-07
  -2.39499994E-02  -8.31674754E-07
  -2.39000004E-02  -8.80939467E-07
  -2.38499995E-02  -9.41765506E-07
  -2.38000005E-02  -1.01108265E-06
  -2.37499997E-02  -1.08165841E-06
  -2.37000007E-02  -1.14529269E-06
  -2.36499999E-02  -1.19656306E-06
  -2.36000009E-02  -1.23536336E-06
  -2.35500000E-02  -1.26699740E-06
  -2.34999992E-02  -1.29976570E-06
  -2.34500002E-02  -1.34119341E-06
  -2.33999994E-02  -1.39463623E-06
  -2.33500004E-02  -1.45778552E-06
  -2.32999995E-02  -1.52371331E-06
  -2.32500006E-02  -1.58398439E-06
  -2.31999997E-02  -1.63249467E-06
  -2.31500007E-02  -1.66834616E-06
  -2.30999999E-02  -1.69640589E-06
  -2.30500009E-02  -1.72520561E-06
  -2.30000000E-02  -1.76305832E-06
  -2.29499992E-02  -1.81417886E-06
  -2.29000002E-02  -1.87669650E-06
  -2.28499994E-02  -1.94353265E-06
  -2.28000004E-02  -2.00572777E-06
  -2.27499995E-02  -2.05663241E-06
  -2.27000006E-02  -2.09504901E-06
  -2.26499997E-02  -2.12590135E-06
  -2.26000007E-02  -2.15813884E-06
  -2.25499999E-02  -2.20080256E-06
  -2.25000009E-02  -2.25894951E-06
  -2.24500000E-02  -2.33125297E-06
  -2.23999992E-02  -2.41046564E-06
  -2.23500002E-02  -2.48670244E-06
  -2.22999994E-02  -2.55204236E-06
  -2.22500004E-02  -2.60430875E-06
  -2.21999995E-02  -2.64820005E-06
  -2.21500006E-02  -2.69316797E-06
  -2.20999997E-02  -2.74913600E-06
  -2.20500007E-02  -2.82204519E-06
  -2.19999999E-02  -2.91115953E-06
  -2.19500009E-02  -3.00936358E-06
  -2.19000001E-02  -3.10633527E-06
  -2.18499992E-02  -3.19319975E-06
  -2.18000002E-02  -3.26667032E-06
  -2.17499994E-02  -3.33072171E-06
  -2.17000004E-02  -3.39490612E-06
  -2.16499995E-02  -3.47007563E-06
  -2.16000006E-02  -3.56338751E-06
  -2.15499997E-02  -3.67495477E-06
  -2.15000007E-02  -3.79779726E-06
  -2.14499999E-02  -3.92110269E-06
  -2.14000009E-02  -4.03518152E-06
  -2.13500001E-02  -4.13580710E-06
  -2.12999992E-02  -4.22603716E-06
  -2.12500002E-02  -4.31480248E-06
  -2.11999994E-02  -4.41285874E-06
  -2.11500004E-02  -4.52781069E-06
  -2.10999995E-02  -4.66048459E-06
  -2.10500006E-02  -4.80440076E-06
  -2.09999997E-02  -4.94874030E-06
  -2.09500007E-02  -5.08343373E-06
  -2.08999999E-02  -5.20396679E-06
  -2.08500009E-02  -5.31363867E-06
  -2.08000001E-02  -5.42211092E-06
  -2.07499992E-02  -5.54096187E-06
  -2.07000002E-02  -5.67844063E-06
  -2.06499994E-02  -5.83567771E-06
  -2.06000004E-02  -6.00604517E-06
  -2.05499995E-02  -6.17810474E-06
  -2.05000006E-02  -6.34074649E-06
  -2.04499997E-02  -6.48828518E-06
  -2.04000007E-02  -6.62328193E-06
  -2.03499999E-02  -6.75563069E-06
  -2.03000009E-02  -6.89815352E-06
  -2.02500001E-02  -7.06084302E-06
  -2.01999992E-02  -7.24633992E-06
  -2.01500002E-02  -7.44881163E-06
  -2.00999994E-02  -7.65675486E-06
  -2.00500004E-02  -7.85843349E-06
  -1.99999996E-02  -8.04737647E-06
  -1.99500006E-02  -8.22540460E-06
  -1.98999997E-02  -8.40199118E-06
  -1.98500007E-02  -8.59032752E-06
  -1.97999999E-02  -8.80155494E-06
  -1.97500009E-02  -9.03973887E-06
  -1.97000001E-02  -9.30023180E-06
  -1.96499992E-02  -9.57198881E-06
  -1.96000002E-02  -9.84277449E-06
  -1.95499994E-02  -1.01051410E-05
  -1.95000004E-02  -1.03602224E-05
  -1.94499996E-02  -1.06173884E-05
  -1.94000006E-02  -1.08901877E-05
  -1.93499997E-02  -1.11903319E-05
  -1.93000007E-02  -1.15226785E-05
  -1.92499999E-02  -1.18833650E-05
  -1.92000009E-02  -1.22616311E-05
  -1.91500001E-02  -1.26449549E-05
  -1.90999992E-02  -1.30253175E-05
  -1.90500002E-02  -1.34030606E-05
  -1.89999994E-02  -1.37871166E-05
  -1.89500004E-02  -1.41914898E-05
  -1.88999996E-02  -1.46290195E-05
  -1.88500006E-02  -1.51057275E-05
  -1.87999997E-02  -1.56180740E-05
  -1.87500007E-02  -1.61548669E-05
  -1.86999999E-02  -1.67026210E-05
  -1.86500009E-02  -1.72520413E-05
  -1.86000001E-02  -1.78026148E-05
  -1.85499992E-02  -1.83630491E-05
  -1.85000002E-02  -1.89476214E-05
  -1.84499994E-02  -1.95702505E-05
  -1.84000004E-02  -2.02383617E-05
  -1.83499996E-02  -2.09496047E-05
  -1.83000006E-02  -2.16928856E-05
  -1.82499997E-02  -2.24531814E-05
  -1.82000007E-02  -2.32187867E-05
  -1.81499999E-02  -2.39867259E-05
  -1.81000009E-02  -2.47642602E-05
  -1.80500001E-02  -2.55654923E-05
  -1.79999992E-02  -2.64052214E-05
  -1.79500002E-02  -2.72924499E-05
  -1.78999994E-02  -2.82264173E-05
  -1.78500004E-02  -2.91973447E-05
  -1.77999996E-02  -3.01906603E-05
  -1.77500006E-02  -3.11934164E-05
  -1.76999997E-02  -3.22003143E-05
  -1.76500008E-02  -3.32163872E-05
  -1.75999999E-02  -3.42548010E-05
  -1.75500009E-02  -3.53306350E-05
  -1.75000001E-02  -3.64534462E-05
  -1.74499992E-02  -3.76227399E-05
  -1.74000002E-02  -3.88283152E-05
  -1.73499994E-02  -4.00549470E-05
  -1.73000004E-02  -4.12894551E-05
  -1.72499996E-02  -4.25259459E-05
  -1.72000006E-02  -4.37683957E-05
  -1.71499997E-02  -4.50292900E-05
  -1.71000008E-02  -4.63243014E-05
  -1.70499999E-02  -4.76651185E-05
  -1.70000009E-02  -4.90533603E-05
  -1.69500001E-02  -5.04796553E-05
  -1.68999992E-02  -5.19278510E-05
  -1.68500002E-02  -5.33821658E-05
  -1.67999994E-02  -5.48343924E-05
  -1.67500004E-02  -5.62875503E-05
  -1.66999996E-02  -5.77542633E-05
  -1.66500006E-02  -5.92505094E-05
  -1.65999997E-02  -6.07886541E-05
  -1.65500008E-02  -6.23731030E-05
  -1.64999999E-02  -6.39971331E-05
  -1.64500009E-02  -6.56449629E-05
  -1.64000001E-02  -6.72993774E-05
  -1.63499992E-02  -6.89498920E-05
  -1.63000003E-02  -7.05982529E-05
  -1.62499994E-02  -7.22569021E-05
  -1.62000004E-02  -7.39435054E-05
  -1.61499996E-02  -7.56734298E-05
  -1.61000006E-02  -7.74529472E-05
  -1.60499997E-02  -7.92771680E-05
  -1.60000008E-02  -8.11328864E-05
  -1.59499999E-02  -8.30043864E-05
  -1.59000009E-02  -8.48795607E-05
  -1.58500001E-02  -8.67560302E-05
  -1.57999992E-02  -8.86442067E-05
  -1.57500003E-02  -9.05630150E-05
  -1.56999994E-02  -9.25304266E-05
  -1.56500004E-02  -9.45553111E-05
  -1.55999996E-02  -9.66348307E-05
  -1.55499997E-02  -9.87576859E-05
  -1.54999997E-02  -1.00908925E-04
  -1.54499998E-02  -1.03077262E-04
  -1.53999999E-02  -1.05261199E-04
  -1.53500000E-02  -1.07469939E-04
  -1.53000001E-02  -1.09721594E-04
  -1.52500002E-02  -1.12037080E-04
  -1.52000003E-02  -1.14429087E-04
  -1.51500003E-02  -1.16896183E-04
  -1.51000004E-02  -1.19426513E-04
  -1.50499996E-02  -1.22005033E-04
  -1.49999997E-02  -1.24619939E-04
  -1.49499997E-02  -1.27269290E-04
  -1.48999998E-02  -1.29962762E-04
  -1.48499999E-02  -1.32718604E-04
  -1.48000000E-02  -1.35557944E-04
  -1.47500001E-02  -1.38497460E-04
  -1.47000002E-02  -1.41541663E-04
  -1.46500003E-02  -1.44680991E-04
  -1.46000003E-02  -1.47899103E-04
  -1.45500004E-02  -1.51181026E-04
  -1.44999996E-02  -1.54522335E-04
  -1.44499997E-02  -1.57931907E-04
  -1.43999998E-02  -1.61427815E-04
  -1.43499998E-02  -1.65030709E-04
  -1.42999999E-02  -1.68757266E-04
  -1.42500000E-02  -1.72615051E-04
  -1.42000001E-02  -1.76601345E-04
  -1.41500002E-02  -1.80702584E-04
  -1.41000003E-02  -1.84901131E-04
  -1.40500003E-02  -1.89188519E-04
  -1.40000004E-02  -1.93571163E-04
  -1.39499996E-02  -1.98068621E-04
  -1.38999997E-02  -2.02704570E-04
  -1.38499998E-02  -2.07495395E-04
  -1.37999998E-02  -2.12445870E-04
  -1.37499999E-02  -2.17550725E-04
  -1.37000000E-02  -2.22800605E-04
  -1.36500001E-02  -2.28185454E-04
  -1.36000002E-02  -2.33695246E-04
  -1.35500003E-02  -2.39326968E-04
  -1.35000004E-02  -2.45092524E-04
  -1.34500004E-02  -2.51018471E-04
  -1.33999996E-02  -2.57129868E-04
  -1.33499997E-02  -2.63435417E-04
  -1.32999998E-02  -2.69926997E-04
  -1.32499998E-02  -2.76588340E-04
  -1.31999999E-02  -2.83405621E-04
  -1.31500000E-02  -2.90374621E-04
  -1.31000001E-02  -2.97500897E-04
  -1.30500002E-02  -3.04794929E-04
  -1.30000003E-02  -3.12271644E-04
  -1.29500004E-02  -3.19952727E-04
  -1.29000004E-02  -3.27856425E-04
  -1.28499996E-02  -3.35982186E-04
  -1.27999997E-02  -3.44310392E-04
  -1.27499998E-02  -3.52817209E-04
  -1.26999998E-02  -3.61491198E-04
  -1.26499999E-02  -3.70337686E-04
  -1.26000000E-02  -3.79369361E-04
  -1.25500001E-02  -3.88601853E-04
  -1.25000002E-02  -3.98054224E-04
  -1.24500003E-02  -4.07743384E-04
  -1.24000004E-02  -4.17679228E-04
  -1.23500004E-02  -4.27855965E-04
  -1.22999996E-02  -4.38255840E-04
  -1.22499997E-02  -4.48860083E-04
  -1.21999998E-02  -4.59662551E-04
  -1.21499998E-02  -4.70675703E-04
  -1.20999999E-02  -4.81919240E-04
  -1.20500000E-02  -4.93404688E-04
  -1.20000001E-02  -5.05131204E-04
  -1.19500002E-02  -5.17097593E-04
  -1.19000003E-02  -5.29301760E-04
  -1.18500004E-02  -5.41742949E-04
  -1.18000004E-02  -5.54411439E-04
  -1.17499996E-02  -5.67293668E-04
  -1.16999997E-02  -5.80400287E-04
  -1.16499998E-02  -5.93766512E-04
  -1.15999999E-02  -6.07430120E-04
  -1.15499999E-02  -6.21406944E-04
  -1.15000000E-02  -6.35687902E-04
  -1.14500001E-02  -6.50250993E-04
  -1.14000002E-02  -6.65079337E-04
  -1.13500003E-02  -6.80163677E-04
  -1.13000004E-02  -6.95491326E-04
  -1.12500004E-02  -7.11049477E-04
  -1.11999996E-02  -7.26839819E-04
  -1.11499997E-02  -7.42882024E-04
  -1.10999998E-02  -7.59207527E-04
  -1.10499999E-02  -7.75836583E-04
  -1.09999999E-02  -7.92768435E-04
  -1.09500000E-02  -8.09999241E-04
  -1.09000001E-02  -8.27528478E-04
  -1.08500002E-02  -8.45369825E-04
  -1.08000003E-02  -8.63545283E-04
  -1.07500004E-02  -8.82067252E-04
  -1.07000005E-02  -9.00941261E-04
  -1.06499996E-02  -9.20169987E-04
  -1.05999997E-02  -9.39739111E-04
  -1.05499998E-02  -9.59633908E-04
  -1.04999999E-02  -9.79836215E-04
  -1.04499999E-02  -1.00031856E-03
  -1.04000000E-02  -1.02107052E-03
  -1.03500001E-02  -1.04209757E-03
  -1.03000002E-02  -1.06342346E-03
  -1.02500003E-02  -1.08508603E-03
  -1.02000004E-02  -1.10712077E-03
  -1.01500005E-02  -1.12954446E-03
  -1.00999996E-02  -1.15235802E-03
  -1.00499997E-02  -1.17556844E-03
  -9.99999978E-03  -1.19917816E-03
  -9.94999986E-03  -1.22317858E-03
  -9.89999995E-03  -1.24755711E-03
  -9.85000003E-03  -1.27231085E-03
  -9.80000012E-03  -1.29745237E-03
  -9.75000020E-03  -1.32299529E-03
  -9.70000029E-03  -1.34893449E-03
  -9.65000037E-03  -1.37525587E-03
  -9.60000046E-03  -1.40194048E-03
  -9.54999961E-03  -1.42899039E-03
  -9.49999969E-03  -1.45642005E-03
  -9.44999978E-03  -1.48424017E-03
  -9.39999986E-03  -1.51246379E-03
  -9.34999995E-03  -1.54110440E-03
  -9.30000003E-03  -1.57018844E-03
  -9.25000012E-03  -1.59972394E-03
  -9.20000020E-03  -1.62970484E-03
  -9.15000029E-03  -1.66012393E-03
  -9.10000037E-03  -1.69096410E-03
  -9.05000046E-03  -1.72222278E-03
  -8.99999961E-03  -1.75391813E-03
  -8.94999970E-03  -1.78606913E-03
  -8.89999978E-03  -1.81868393E-03
  -8.84999987E-03  -1.85178663E-03
  -8.79999995E-03  -1.88539212E-03
  -8.75000004E-03  -1.91948796E-03
  -8.70000012E-03  -1.95407541E-03
  -8.65000021E-03  -1.98915484E-03
  -8.60000029E-03  -2.02469691E-03
  -8.55000038E-03  -2.06068461E-03
  -8.50000046E-03  -2.09713751E-03
  -8.44999962E-03  -2.13408028E-03
  -8.39999970E-03  -2.17153993E-03
  -8.34999979E-03  -2.20952742E-03
  -8.29999987E-03  -2.24802969E-03
  -8.24999996E-03  -2.28701974E-03
  -8.20000004E-03  -2.32650316E-03
  -8.15000013E-03  -2.36652186E-03
  -8.10000021E-03  -2.40710704E-03
  -8.05000030E-03  -2.44821794E-03
  -8.00000038E-03  -2.48983921E-03
  -7.95000046E-03  -2.53201881E-03
  -7.89999962E-03  -2.57481472E-03
  -7.84999970E-03  -2.61824159E-03
  -7.79999979E-03  -2.66223704E-03
  -7.74999987E-03  -2.70675658E-03
  -7.69999996E-03  -2.75184168E-03
  -7.65000004E-03  -2.79755727E-03
  -7.60000013E-03  -2.84392759E-03
  -7.55000021E-03  -2.89095705E-03
  -7.49999983E-03  -2.93862796E-03
  -7.44999992E-03  -2.98692263E-03
  -7.40000000E-03  -3.03586759E-03
  -7.35000009E-03  -3.08551174E-03
  -7.30000017E-03  -3.13583133E-03
  -7.24999979E-03  -3.18672648E-03
  -7.19999988E-03  -3.23817180E-03
  -7.14999996E-03  -3.29025183E-03
  -7.10000005E-03  -3.34306713E-03
  -7.05000013E-03  -3.39664356E-03
  -7.00000022E-03  -3.45092430E-03
  -6.94999984E-03  -3.50585068E-03
  -6.89999992E-03  -3.56146204E-03
  -6.85000001E-03  -3.61787388E-03
  -6.80000009E-03  -3.67511413E-03
  -6.75000018E-03  -3.73309408E-03
  -6.69999979E-03  -3.79175367E-03
  -6.64999988E-03  -3.85113736E-03
  -6.59999996E-03  -3.91141279E-03
  -6.55000005E-03  -3.97265516E-03
  -6.50000013E-03  -4.03475249E-03
  -6.45000022E-03  -4.09760419E-03
  -6.39999984E-03  -4.16117534E-03
  -6.34999992E-03  -4.22552601E-03
  -6.30000001E-03  -4.29080054E-03
  -6.25000009E-03  -4.35705530E-03
  -6.20000018E-03  -4.42418037E-03
  -6.14999980E-03  -4.49207751E-03
  -6.09999988E-03  -4.56082122E-03
  -6.04999997E-03  -4.63054935E-03
  -6.00000005E-03  -4.70125303E-03
  -5.95000014E-03  -4.77281399E-03
  -5.90000022E-03  -4.84515354E-03
  -5.84999984E-03  -4.91832010E-03
  -5.79999993E-03  -4.99245897E-03
  -5.75000001E-03  -5.06768376E-03
  -5.70000010E-03  -5.14395628E-03
  -5.65000018E-03  -5.22120344E-03
  -5.59999980E-03  -5.29941916E-03
  -5.54999989E-03  -5.37868263E-03
  -5.49999997E-03  -5.45906695E-03
  -5.45000006E-03  -5.54046361E-03
  -5.40000014E-03  -5.62275574E-03
  -5.35000023E-03  -5.70601085E-03
  -5.29999984E-03  -5.79035562E-03
  -5.24999993E-03  -5.87587105E-03
  -5.20000001E-03  -5.96258463E-03
  -5.15000010E-03  -6.05040835E-03
  -5.10000018E-03  -6.13926258E-03
  -5.04999980E-03  -6.22912496E-03
  -4.99999989E-03  -6.32000808E-03
  -4.94999997E-03  -6.41196780E-03
  -4.90000006E-03  -6.50503207E-03
  -4.85000014E-03  -6.59921858E-03
  -4.80000023E-03  -6.69452362E-03
  -4.74999985E-03  -6.79093599E-03
  -4.69999993E-03  -6.88853161E-03
  -4.65000002E-03  -6.98736450E-03
  -4.60000010E-03  -7.08736805E-03
  -4.55000019E-03  -7.18843425E-03
  -4.49999981E-03  -7.29057519E-03
  -4.44999989E-03  -7.39390543E-03
  -4.39999998E-03  -7.49853766E-03
  -4.35000006E-03  -7.60447932E-03
  -4.30000015E-03  -7.71169690E-03
  -4.25000023E-03  -7.82014616E-03
  -4.19999985E-03  -7.92985409E-03
  -4.14999994E-03  -8.04081280E-03
  -4.10000002E-03  -8.15292075E-03
  -4.05000011E-03  -8.26617144E-03
  -4.00000019E-03  -8.38051643E-03
  -3.94999981E-03  -8.49603955E-03
  -3.89999989E-03  -8.61291867E-03
  -3.84999998E-03  -8.73119757E-03
  -3.80000006E-03  -8.85082502E-03
  -3.74999992E-03  -8.97158124E-03
  -3.70000000E-03  -9.09346249E-03
  -3.65000009E-03  -9.21664760E-03
  -3.59999994E-03  -9.34111513E-03
  -3.55000002E-03  -9.46674403E-03
  -3.50000011E-03  -9.59356129E-03
  -3.44999996E-03  -9.72181279E-03
  -3.40000005E-03  -9.85159539E-03
  -3.34999990E-03  -9.98280197E-03
  -3.29999998E-03  -1.01153171E-02
  -3.25000007E-03  -1.02490885E-02
  -3.19999992E-03  -1.03840893E-02
  -3.15000000E-03  -1.05204219E-02
  -3.10000009E-03  -1.06581720E-02
  -3.04999994E-03  -1.07972417E-02
  -3.00000003E-03  -1.09376060E-02
  -2.95000011E-03  -1.10794203E-02
  -2.89999996E-03  -1.12227174E-02
  -2.85000005E-03  -1.13674160E-02
  -2.79999990E-03  -1.15134995E-02
  -2.74999999E-03  -1.16607528E-02
  -2.70000007E-03  -1.18090697E-02
  -2.64999992E-03  -1.19587351E-02
  -2.60000001E-03  -1.21099073E-02
  -2.55000009E-03  -1.22625455E-02
  -2.49999994E-03  -1.24166347E-02
  -2.45000003E-03  -1.25720976E-02
  -2.40000011E-03  -1.27290655E-02
  -2.34999997E-03  -1.28876911E-02
  -2.30000005E-03  -1.30476709E-02
  -2.24999990E-03  -1.32086864E-02
  -2.19999999E-03  -1.33707821E-02
  -2.15000007E-03  -1.35343270E-02
  -2.09999993E-03  -1.36996359E-02
  -2.05000001E-03  -1.38666593E-02
  -2.00000009E-03  -1.40351988E-02
  -1.94999995E-03  -1.42051373E-02
  -1.90000003E-03  -1.43764773E-02
  -1.85000000E-03  -1.45492004E-02
  -1.79999997E-03  -1.47232739E-02
  -1.75000005E-03  -1.48987565E-02
  -1.70000002E-03  -1.50755811E-02
  -1.64999999E-03  -1.52537916E-02
  -1.59999996E-03  -1.54337129E-02
  -1.55000004E-03  -1.56153645E-02
  -1.50000001E-03  -1.57984626E-02
  -1.44999998E-03  -1.59829240E-02
  -1.39999995E-03  -1.61687117E-02
  -1.35000004E-03  -1.63558014E-02
  -1.30000000E-03  -1.65442955E-02
  -1.24999997E-03  -1.67341586E-02
  -1.20000006E-03  -1.69255305E-02
  -1.15000003E-03  -1.71185248E-02
  -1.09999999E-03  -1.73131954E-02
  -1.04999996E-03  -1.75095573E-02
  -1.00000005E-03  -1.77073162E-02
  -9.50000016E-04  -1.79063343E-02
  -8.99999985E-04  -1.81068387E-02
  -8.50000011E-04  -1.83089022E-02
  -7.99999980E-04  -1.85123403E-02
  -7.50000007E-04  -1.87170468E-02
  -6.99999975E-04  -1.89233646E-02
  -6.50000002E-04  -1.91315114E-02
  -6.00000028E-04  -1.93413887E-02
  -5.49999997E-04  -1.95527989E-02
  -5.00000024E-04  -1.97652876E-02
  -4.49999992E-04  -1.99787989E-02
  -3.99999990E-04  -2.01939289E-02
  -3.49999988E-04  -2.04107929E-02
  -3.00000014E-04  -2.06289217E-02
  -2.50000012E-04  -2.08482165E-02
  -1.99999995E-04  -2.10688002E-02
  -1.50000007E-04  -2.12911591E-02
  -9.99999975E-05  -2.15155054E-02
  -4.99999987E-05  -2.17413045E-02
   0.00000000      -2.19678096E-02
   4.99999987E-05  -2.21952274E-02
   9.99999975E-05  -2.24242229E-02
   1.50000007E-04  -2.26551965E-02
   1.99999995E-04  -2.28880905E-02
   2.50000012E-04  -2.31222175E-02
   3.00000014E-04  -2.33574454E-02
   3.49999988E-04  -2.35940367E-02
   3.99999990E-04  -2.38324311E-02
   4.49999992E-04  -2.40724757E-02
   5.00000024E-04  -2.43133008E-02
   5.49999997E-04  -2.45547313E-02
   6.00000028E-04  -2.47975346E-02
   6.50000002E-04  -2.50420757E-02
   6.99999975E-04  -2.52883434E-02
   7.50000007E-04  -2.55360678E-02
   7.99999980E-04  -2.57848632E-02
   8.50000011E-04  -2.60346830E-02
   8.99999985E-04  -2.62854956E-02
   9.50000016E-04  -2.65375413E-02
   1.00000005E-03  -2.67906971E-02
   1.04999996E-03  -2.70447768E-02
   1.09999999E-03  -2.73001585E-02
   1.15000003E-03  -2.75571123E-02
   1.20000006E-03  -2.78156009E-02
   1.24999997E-03  -2.80756671E-02
   1.30000000E-03  -2.83369739E-02
   1.35000004E-03  -2.85988394E-02
   1.39999995E-03  -2.88609006E-02
   1.44999998E-03  -2.91236639E-02
   1.50000001E-03  -2.93880738E-02
   1.55000004E-03  -2.96542682E-02
   1.59999996E-03  -2.99216527E-02
   1.64999999E-03  -3.01894005E-02
   1.70000002E-03  -3.04579344E-02
   1.75000005E-03  -3.07279453E-02
   1.79999997E-03  -3.09988894E-02
   1.85000000E-03  -3.12703885E-02
   1.90000003E-03  -3.15421037E-02
   1.94999995E-03  -3.18140015E-02
   2.00000009E-03  -3.20866480E-02
   2.05000001E-03  -3.23604941E-02
   2.09999993E-03  -3.26354690E-02
   2.15000007E-03  -3.29109430E-02
   2.19999999E-03  -3.31866629E-02
   2.24999990E-03  -3.34625766E-02
   2.30000005E-03  -3.37387398E-02
   2.34999997E-03  -3.40155810E-02
   2.40000011E-03  -3.42931524E-02
   2.45000003E-03  -3.45712304E-02
   2.49999994E-03  -3.48493308E-02
   2.55000009E-03  -3.51275243E-02
   2.60000001E-03  -3.54063399E-02
   2.64999992E-03  -3.56854722E-02
   2.70000007E-03  -3.59646343E-02
   2.74999999E-03  -3.62436846E-02
   2.79999990E-03  -3.65221538E-02