  -3.99999991E-02   0.00000000    
  -3.99499983E-02   0.00000000    
  -3.99000011E-02   0.00000000    
  -3.98500003E-02   0.00000000    
  -3.97999994E-02   0.00000000    
  -3.97499986E-02   1.80012795E-22
  -3.97000015E-02   2.12887977E-21
  -3.96500006E-02   1.32403432E-20
  -3.95999998E-02   5.72476580E-20
  -3.95499989E-02   1.92338750E-19
  -3.95000018E-02   5.32826272E-19
  -3.94500010E-02   1.26219335E-18
  -3.94000001E-02   2.61992047E-18
  -3.93499993E-02   4.84958291E-18
  -3.92999984E-02   8.11583874E-18
  -3.92500013E-02   1.24278113E-17
  -3.92000005E-02   1.76285440E-17
  -3.91499996E-02   2.35019135E-17
  -3.90999988E-02   2.99975395E-17
  -3.90500017E-02   3.74946744E-17
  -3.90000008E-02   4.69603106E-17
  -3.89500000E-02   5.98567214E-17
  -3.88999991E-02   7.77467719E-17
  -3.88499983E-02   1.01707051E-16
  -3.88000011E-02   1.31811720E-16
  -3.87500003E-02   1.66997892E-16
  -3.86999995E-02   2.05505625E-16
  -3.86499986E-02   2.45818358E-16
  -3.86000015E-02   2.87723275E-16
  -3.85500006E-02   3.32924421E-16
  -3.84999998E-02   3.84718924E-16
  -3.84499989E-02   4.46619668E-16
  -3.84000018E-02   5.20353886E-16
  -3.83500010E-02   6.04125180E-16
  -3.83000001E-02   6.92111786E-16
  -3.82499993E-02   7.75751472E-16
  -3.81999984E-02   8.46551621E-16
  -3.81500013E-02   8.99326432E-16
  -3.81000005E-02   9.34344786E-16
  -3.80499996E-02   9.57159195E-16
  -3.79999988E-02   9.75825683E-16
  -3.79500017E-02   9.96449983E-16
  -3.79000008E-02   1.01891044E-15
  -3.78500000E-02   1.03475694E-15
  -3.77999991E-02   1.02847111E-15
  -3.77499983E-02   9.81800971E-16
  -3.77000012E-02   8.79390929E-16
  -3.76500003E-02   7.13164525E-16
  -3.75999995E-02   4.83350193E-16
  -3.75499986E-02   1.95532527E-16
  -3.75000015E-02  -1.45006230E-16
  -3.74500006E-02  -5.39055103E-16
  -3.73999998E-02  -9.96637918E-16
  -3.73499990E-02  -1.53599483E-15
  -3.73000018E-02  -2.17864201E-15
  -3.72500010E-02  -2.94241204E-15
  -3.72000001E-02  -3.83511362E-15
  -3.71499993E-02  -4.85104959E-15
  -3.70999984E-02  -5.97138873E-15
  -3.70500013E-02  -7.16799091E-15
  -3.70000005E-02  -8.40935665E-15
  -3.69499996E-02  -9.66720651E-15
  -3.68999988E-02  -1.09225187E-14
  -3.68500017E-02  -1.21701745E-14
  -3.68000008E-02  -1.34211286E-14
  -3.67500000E-02  -1.47005380E-14
  -3.66999991E-02  -1.60403104E-14
  -3.66499983E-02  -1.74658770E-14
  -3.66000012E-02  -1.89798569E-14
  -3.65500003E-02  -2.05484552E-14
  -3.64999995E-02  -2.20977394E-14
  -3.64499986E-02  -2.35249323E-14
  -3.64000015E-02  -2.47238973E-14
  -3.63500006E-02  -2.56163888E-14
  -3.62999998E-02  -2.61750359E-14
  -3.62499990E-02  -2.64242550E-14
  -3.62000018E-02  -2.64130436E-14
  -3.61500010E-02  -2.61671500E-14
  -3.61000001E-02  -2.56414474E-14
  -3.60499993E-02  -2.46991775E-14
  -3.59999985E-02  -2.31375012E-14
  -3.59500013E-02  -2.07590276E-14
  -3.59000005E-02  -1.74638780E-14
  -3.58499996E-02  -1.33191399E-14
  -3.57999988E-02  -8.56331506E-15
  -3.57500017E-02  -3.52676377E-15
  -3.57000008E-02   1.51185831E-15
  -3.56500000E-02   6.47576932E-15
  -3.55999991E-02   1.15730806E-14
  -3.55499983E-02   1.72568208E-14
  -3.55000012E-02   2.40561745E-14
  -3.54500003E-02   3.23364552E-14
  -3.53999995E-02   4.20922757E-14
  -3.53499986E-02   5.28815544E-14
  -3.53000015E-02   6.39574860E-14
  -3.52500007E-02   7.45668921E-14
  -3.51999998E-02   8.42944827E-14
  -3.51499990E-02   9.32888478E-14
  -3.51000018E-02   1.02237270E-13
  -3.50500010E-02   1.12059118E-13
  -3.50000001E-02   1.23423461E-13
  -3.49499993E-02   1.36301330E-13
  -3.48999985E-02   1.49780972E-13
  -3.48500013E-02   1.62281253E-13
  -3.48000005E-02   1.72124129E-13
  -3.47499996E-02   1.78243799E-13
  -3.46999988E-02   1.80708950E-13
  -3.46500017E-02   1.80777160E-13
  -3.46000008E-02   1.80387972E-13
  -3.45500000E-02   1.81261500E-13
  -3.44999991E-02   1.83985666E-13
  -3.44499983E-02   1.87532742E-13
  -3.44000012E-02   1.89496395E-13
  -3.43500003E-02   1.87028575E-13
  -3.42999995E-02   1.78111432E-13
  -3.42499986E-02   1.62589072E-13
  -3.42000015E-02   1.42426259E-13
  -3.41500007E-02   1.20969613E-13
  -3.40999998E-02   1.01444271E-13
  -3.40499990E-02   8.53221844E-14
  -3.40000018E-02   7.13414516E-14
  -3.39500010E-02   5.57383763E-14
  -3.39000002E-02   3.37348083E-14
  -3.38499993E-02   1.72007097E-15
  -3.37999985E-02  -4.08385822E-14
  -3.37500013E-02  -9.07081756E-14
  -3.37000005E-02  -1.41900502E-13
  -3.36499996E-02  -1.88094671E-13
  -3.35999988E-02  -2.25474289E-13
  -3.35500017E-02  -2.54669549E-13
  -3.35000008E-02  -2.80777734E-13
  -3.34500000E-02  -3.11243978E-13
  -3.33999991E-02  -3.52387851E-13
  -3.33499983E-02  -4.06095079E-13
  -3.33000012E-02  -4.68279170E-13
  -3.32500003E-02  -5.30038578E-13
  -3.31999995E-02  -5.81241760E-13
  -3.31499986E-02  -6.15079602E-13
  -3.31000015E-02  -6.31511228E-13
  -3.30500007E-02  -6.37841234E-13
  -3.29999998E-02  -6.45857770E-13
  -3.29499990E-02  -6.66540662E-13
  -3.29000019E-02  -7.04609765E-13
  -3.28500010E-02  -7.55483024E-13
  -3.28000002E-02  -8.06321860E-13
  -3.27499993E-02  -8.41060294E-13
  -3.26999985E-02  -8.47416430E-13
  -3.26500013E-02  -8.22756468E-13
  -3.26000005E-02  -7.75936281E-13
  -3.25499997E-02  -7.23892951E-13
  -3.24999988E-02  -6.84135853E-13
  -3.24500017E-02  -6.66336452E-13
  -3.24000008E-02  -6.66927830E-13
  -3.23500000E-02  -6.69543847E-13
  -3.22999991E-02  -6.51608325E-13
  -3.22499983E-02  -5.94495536E-13
  -3.22000012E-02  -4.92764575E-13
  -3.21500003E-02  -3.58013396E-13
  -3.20999995E-02  -2.15059050E-13
  -3.20499986E-02  -9.15788712E-14
  -3.20000015E-02  -5.53257272E-15
  -3.19500007E-02   4.39026731E-14
  -3.18999998E-02   7.73294054E-14
  -3.18499990E-02   1.26928483E-13
  -3.18000019E-02   2.22165290E-13
  -3.17500010E-02   3.75622466E-13
  -3.17000002E-02   5.75615564E-13
  -3.16499993E-02   7.89580749E-13
  -3.15999985E-02   9.77476455E-13
  -3.15500014E-02   1.10967594E-12
  -3.15000005E-02   1.18129692E-12
  -3.14499997E-02   1.21597329E-12
  -3.13999988E-02   1.25650196E-12
  -3.13500017E-02   1.34576497E-12
  -3.13000008E-02   1.50614807E-12
  -3.12500000E-02   1.72698986E-12
  -3.11999992E-02   1.96654368E-12
  -3.11500002E-02   2.16860687E-12
  -3.10999993E-02   2.28712492E-12
  -3.10500003E-02   2.30786354E-12
  -3.09999995E-02   2.25683296E-12
  -3.09500005E-02   2.19061141E-12
  -3.08999997E-02   2.17181871E-12
  -3.08500007E-02   2.24013668E-12
  -3.07999998E-02   2.39206962E-12
  -3.07500008E-02   2.57943558E-12
  -3.07000000E-02   2.72853376E-12
  -3.06499992E-02   2.77241294E-12
  -3.06000002E-02   2.68207396E-12
  -3.05499993E-02   2.48200614E-12
  -3.05000003E-02   2.24181828E-12
  -3.04499995E-02   2.04632101E-12
  -3.04000005E-02   1.95661564E-12
  -3.03499997E-02   1.97972606E-12
  -3.03000007E-02   2.06145799E-12
  -3.02499998E-02   2.10729351E-12
  -3.02000009E-02   2.02340336E-12
  -3.01500000E-02   1.76001867E-12
  -3.00999992E-02   1.33720780E-12
  -3.00500002E-02   8.40051715E-13
  -2.99999993E-02   3.83597071E-13
  -2.99500003E-02   6.20051699E-14
  -2.98999995E-02  -9.55210439E-14
  -2.98500005E-02  -1.41260213E-13
  -2.97999997E-02  -1.88723860E-13
  -2.97500007E-02  -3.62904476E-13
  -2.96999998E-02  -7.42356643E-13
  -2.96500009E-02  -1.31943935E-12
  -2.96000000E-02  -1.99813625E-12
  -2.95499992E-02  -2.63257862E-12
  -2.95000002E-02  -3.09076007E-12
  -2.94499993E-02  -3.31542085E-12
  -2.94000003E-02  -3.35384281E-12
  -2.93499995E-02  -3.34109867E-12
  -2.93000005E-02  -3.44193510E-12
  -2.92499997E-02  -3.77582817E-12
  -2.92000007E-02  -4.35880889E-12
  -2.91499998E-02  -5.08970947E-12
  -2.91000009E-02  -5.78947827E-12
  -2.90500000E-02  -6.27820712E-12
  -2.89999992E-02  -6.45640876E-12
  -2.89500002E-02  -6.35340305E-12
  -2.88999993E-02  -6.11894563E-12
  -2.88500004E-02  -5.95915548E-12
  -2.87999995E-02  -6.04344049E-12
  -2.87500005E-02  -6.42379552E-12
  -2.86999997E-02  -7.00416981E-12
  -2.86500007E-02  -7.57643167E-12
  -2.85999998E-02  -7.90963909E-12
  -2.85500009E-02  -7.85423202E-12
  -2.85000000E-02  -7.41400864E-12
  -2.84499992E-02  -6.75135902E-12
  -2.84000002E-02  -6.12015213E-12
  -2.83499993E-02  -5.75362848E-12
  -2.83000004E-02  -5.75651896E-12
  -2.82499995E-02  -6.05096875E-12
  -2.82000005E-02  -6.40345242E-12
  -2.81499997E-02  -6.52404953E-12
  -2.81000007E-02  -6.19591965E-12
  -2.80499998E-02  -5.37716226E-12
  -2.80000009E-02  -4.22729516E-12
  -2.79500000E-02  -3.04300031E-12
  -2.78999992E-02  -2.12858507E-12
  -2.78500002E-02  -1.65756428E-12
  -2.77999993E-02  -1.58822532E-12
  -2.77500004E-02  -1.67407668E-12
  -2.76999995E-02  -1.56843093E-12
  -2.76500005E-02  -9.79390831E-13
  -2.75999997E-02   1.93383571E-13
  -2.75500007E-02   1.80327281E-12
  -2.74999999E-02   3.51132339E-12
  -2.74500009E-02   4.93058502E-12
  -2.74000000E-02   5.79810852E-12
  -2.73499992E-02   6.09748710E-12
  -2.73000002E-02   6.07420017E-12
  -2.72499993E-02   6.13261612E-12
  -2.72000004E-02   6.65684955E-12
  -2.71499995E-02   7.83399821E-12
  -2.71000005E-02   9.56020939E-12
  -2.70499997E-02   1.14753927E-11
  -2.70000007E-02   1.31156613E-11
  -2.69499999E-02   1.41186082E-11
  -2.69000009E-02   1.43900673E-11
  -2.68500000E-02   1.41551337E-11
  -2.67999992E-02   1.38659318E-11
  -2.67500002E-02   1.40027165E-11
  -2.66999993E-02   1.48547008E-11
  -2.66500004E-02   1.63793597E-11
  -2.65999995E-02   1.82069412E-11
  -2.65500005E-02   1.97934082E-11
  -2.64999997E-02   2.06578123E-11
  -2.64500007E-02   2.05995568E-11
  -2.63999999E-02   1.97963989E-11
  -2.63500009E-02   1.87346614E-11
  -2.63000000E-02   1.79974750E-11
  -2.62499992E-02   1.80020599E-11
  -2.62000002E-02   1.88032437E-11
  -2.61499994E-02   2.00544460E-11
  -2.61000004E-02   2.11490200E-11
  -2.60499995E-02   2.14840905E-11
  -2.60000005E-02   2.07315259E-11
  -2.59499997E-02   1.89937181E-11
  -2.59000007E-02   1.67699032E-11
  -2.58499999E-02   1.47420322E-11
  -2.58000009E-02   1.34711253E-11
  -2.57500000E-02   1.31384565E-11
  -2.56999992E-02   1.34499981E-11
  -2.56500002E-02   1.37525633E-11
  -2.55999994E-02   1.33159976E-11
  -2.55500004E-02   1.16593332E-11
  -2.54999995E-02   8.77518804E-12
  -2.54500005E-02   5.14806947E-12
  -2.53999997E-02   1.55205547E-12
  -2.53500007E-02  -1.28754548E-12
  -2.52999999E-02  -3.02006532E-12
  -2.52500009E-02  -3.83557509E-12
  -2.52000000E-02  -4.39156871E-12
  -2.51499992E-02  -5.52623355E-12
  -2.51000002E-02  -7.88137090E-12
  -2.50499994E-02  -1.16023345E-11
  -2.50000004E-02  -1.62525462E-11
  -2.49499995E-02  -2.09874566E-11
  -2.49000005E-02  -2.49170823E-11
  -2.48499997E-02  -2.74993622E-11
  -2.48000007E-02  -2.87880362E-11
  -2.47499999E-02  -2.94193489E-11
  -2.47000009E-02  -3.03361884E-11
  -2.46500000E-02  -3.23664255E-11
  -2.45999992E-02  -3.58411564E-11
  -2.45500002E-02  -4.04256385E-11
  -2.44999994E-02  -4.52447350E-11
  -2.44500004E-02  -4.92544200E-11
  -2.43999995E-02  -5.16988674E-11
  -2.43500005E-02  -5.24497772E-11
  -2.42999997E-02  -5.20723083E-11
  -2.42500007E-02  -5.15806738E-11
  -2.41999999E-02  -5.19852807E-11
  -2.41500009E-02  -5.38295346E-11
  -2.41000000E-02  -5.69244929E-11
  -2.40499992E-02  -6.04058539E-11
  -2.40000002E-02  -6.30961672E-11
  -2.39499994E-02  -6.40175135E-11
  -2.39000004E-02  -6.28282912E-11
  -2.38499995E-02  -5.99860855E-11
  -2.38000005E-02  -5.65566968E-11
  -2.37499997E-02  -5.37462262E-11
  -2.37000007E-02  -5.23594397E-11
  -2.36499999E-02  -5.24256714E-11
  -2.36000009E-02  -5.31641987E-11
  -2.35500000E-02  -5.33127258E-11
  -2.34999992E-02  -5.16802226E-11
  -2.34500002E-02  -4.76813485E-11
  -2.33999994E-02  -4.16122206E-11
  -2.33500004E-02  -3.45378726E-11
  -2.32999995E-02  -2.78328628E-11
  -2.32500006E-02  -2.25733338E-11
  -2.31999997E-02  -1.90499283E-11
  -2.31500007E-02  -1.66229721E-11
  -2.30999999E-02  -1.39927150E-11
  -2.30500009E-02  -9.77292379E-12
  -2.30000000E-02  -3.11742082E-12
  -2.29499992E-02   5.88012191E-12
  -2.29000002E-02   1.61973750E-11
  -2.28499994E-02   2.63094910E-11
  -2.28000004E-02   3.48481313E-11
  -2.27499995E-02   4.12031832E-11
  -2.27000006E-02   4.57963008E-11
  -2.26499997E-02   4.98969824E-11
  -2.26000007E-02   5.50543014E-11
  -2.25499999E-02   6.23911062E-11
  -2.25000009E-02   7.20744089E-11
  -2.24500000E-02   8.32029862E-11
  -2.23999992E-02   9.41710737E-11
  -2.23500002E-02   1.03354825E-10
  -2.22999994E-02   1.09820299E-10
  -2.22500004E-02   1.13736298E-10
  -2.21999995E-02   1.16301087E-10
  -2.21500006E-02   1.19206353E-10
  -2.20999997E-02   1.23869581E-10
  -2.20500007E-02   1.30774017E-10
  -2.19999999E-02   1.39213779E-10
  -2.19500009E-02   1.47566015E-10
  -2.19000001E-02   1.53977664E-10
  -2.18499992E-02   1.57167432E-10
  -2.18000002E-02   1.56986008E-10
  -2.17499994E-02   1.54479748E-10
  -2.17000004E-02   1.51420973E-10
  -2.16499995E-02   1.49505949E-10
  -2.16000006E-02   1.49574450E-10
  -2.15499997E-02   1.51200566E-10
  -2.15000007E-02   1.52844487E-10
  -2.14499999E-02   1.52507118E-10
  -2.14000009E-02   1.48602505E-10
  -2.13500001E-02   1.40661802E-10
  -2.12999992E-02   1.29550856E-10
  -2.12500002E-02   1.17096471E-10
  -2.11999994E-02   1.05279223E-10
  -2.11500004E-02   9.53474175E-11
  -2.10999995E-02   8.72472025E-11
  -2.10500006E-02   7.96285121E-11
  -2.09999997E-02   7.04328332E-11
  -2.09500007E-02   5.78082998E-11
  -2.08999999E-02   4.09476827E-11
  -2.08500009E-02   2.04736835E-11
  -2.08000001E-02  -1.80699986E-12
  -2.07499992E-02  -2.36789650E-11
  -2.07000002E-02  -4.34829811E-11
  -2.06499994E-02  -6.08410475E-11
  -2.06000004E-02  -7.68139718E-11
  -2.05499995E-02  -9.34135755E-11
  -2.05000006E-02  -1.12679290E-10
  -2.04499997E-02  -1.35726749E-10
  -2.04000007E-02  -1.62193786E-10
  -2.03499999E-02  -1.90336261E-10
  -2.03000009E-02  -2.17739632E-10
  -2.02500001E-02  -2.42335263E-10
  -2.01999992E-02  -2.63271460E-10
  -2.01500002E-02  -2.81248996E-10
  -2.00999994E-02  -2.98165131E-10
  -2.00500004E-02  -3.16218857E-10
  -1.99999996E-02  -3.36871281E-10
  -1.99500006E-02  -3.60124708E-10
  -1.98999997E-02  -3.84445226E-10
  -1.98500007E-02  -4.07370304E-10
  -1.97999999E-02  -4.26535307E-10
  -1.97500009E-02  -4.40664977E-10
  -1.97000001E-02  -4.50086163E-10
  -1.96499992E-02  -4.56528843E-10
  -1.96000002E-02  -4.62297978E-10
  -1.95499994E-02  -4.69182082E-10
  -1.95000004E-02  -4.77583417E-10
  -1.94499996E-02  -4.86261198E-10
  -1.94000006E-02  -4.92807295E-10
  -1.93499997E-02  -4.94647823E-10
  -1.93000007E-02  -4.90128771E-10
  -1.92499999E-02  -4.79201123E-10
  -1.92000009E-02  -4.63398819E-10
  -1.91500001E-02  -4.45115056E-10
  -1.90999992E-02  -4.26497199E-10
  -1.90500002E-02  -4.08451328E-10
  -1.89999994E-02  -3.90202259E-10
  -1.89500004E-02  -3.69608122E-10
  -1.88999996E-02  -3.44092532E-10
  -1.88500006E-02  -3.11781434E-10
  -1.87999997E-02  -2.72337486E-10
  -1.87500007E-02  -2.27118407E-10
  -1.86999999E-02  -1.78586396E-10
  -1.86500009E-02  -1.29229405E-10
  -1.86000001E-02  -8.04747796E-11
  -1.85499992E-02  -3.20797937E-11
  -1.85000002E-02   1.77263985E-11
  -1.84499994E-02   7.14106690E-11
  -1.84000004E-02   1.30983127E-10
  -1.83499996E-02   1.97036359E-10
  -1.83000006E-02   2.68405215E-10
  -1.82499997E-02   3.42598616E-10
  -1.82000007E-02   4.16812501E-10
  -1.81499999E-02   4.89070340E-10
  -1.81000009E-02   5.58983637E-10
  -1.80500001E-02   6.27793539E-10
  -1.79999992E-02   6.97675639E-10
  -1.79500002E-02   7.70617736E-10
  -1.78999994E-02   8.47374615E-10
  -1.78500004E-02   9.26964172E-10
  -1.77999996E-02   1.00693054E-09
  -1.77500006E-02   1.08425491E-09
  -1.76999997E-02   1.15650900E-09
  -1.76500008E-02   1.22273314E-09
  -1.75999999E-02   1.28365207E-09
  -1.75500009E-02   1.34113243E-09
  -1.75000001E-02   1.39712553E-09
  -1.74499992E-02   1.45257317E-09
  -1.74000002E-02   1.50675761E-09
  -1.73499994E-02   1.55739044E-09
  -1.73000004E-02   1.60138935E-09
  -1.72499996E-02   1.63600011E-09
  -1.72000006E-02   1.65975289E-09
  -1.71499997E-02   1.67283620E-09
  -1.71000008E-02   1.67672121E-09
  -1.70499999E-02   1.67321157E-09
  -1.70000009E-02   1.66334924E-09
  -1.69500001E-02   1.64666503E-09
  -1.68999992E-02   1.62110692E-09
  -1.68500002E-02   1.58367630E-09
  -1.67999994E-02   1.53147850E-09
  -1.67500004E-02   1.46272083E-09
  -1.66999996E-02   1.37721190E-09
  -1.66500006E-02   1.27614497E-09
  -1.65999997E-02   1.16127130E-09
  -1.65500008E-02   1.03383757E-09
  -1.64999999E-02   8.93767282E-10
  -1.64500009E-02   7.39441286E-10
  -1.64000001E-02   5.68179059E-10
  -1.63499992E-02   3.77190668E-10
  -1.63000003E-02   1.64562031E-10
  -1.62499994E-02  -7.01527725E-11
  -1.62000004E-02  -3.25998006E-10
  -1.61499996E-02  -6.01305339E-10
  -1.61000006E-02  -8.94678776E-10
  -1.60499997E-02  -1.20583776E-09
  -1.60000008E-02  -1.53593449E-09
  -1.59499999E-02  -1.88721683E-09
  -1.59000009E-02  -2.26219554E-09
  -1.58500001E-02  -2.66269984E-09
  -1.57999992E-02  -3.08923664E-09
  -1.57500003E-02  -3.54094842E-09
  -1.56999994E-02  -4.01615896E-09
  -1.56500004E-02  -4.51327153E-09
  -1.55999996E-02  -5.03159159E-09
  -1.55499997E-02  -5.57172353E-09
  -1.54999997E-02  -6.13536466E-09
  -1.54499998E-02  -6.72460576E-09
  -1.53999999E-02  -7.34106509E-09
  -1.53500000E-02  -7.98525246E-09
  -1.53000001E-02  -8.65643646E-09
  -1.52500002E-02  -9.35306765E-09
  -1.52000003E-02  -1.00735562E-08
  -1.51500003E-02  -1.08170415E-08
  -1.51000004E-02  -1.15837908E-08
  -1.50499996E-02  -1.23750947E-08
  -1.49999997E-02  -1.31926772E-08
  -1.49499997E-02  -1.40379353E-08
  -1.48999998E-02  -1.49113237E-08
  -1.48499999E-02  -1.58121907E-08
  -1.48000000E-02  -1.67391274E-08
  -1.47500001E-02  -1.76906170E-08
  -1.47000002E-02  -1.86657250E-08
  -1.46500003E-02  -1.96645082E-08
  -1.46000003E-02  -2.06879402E-08
  -1.45500004E-02  -2.17374421E-08
  -1.44999996E-02  -2.28142163E-08
  -1.44499997E-02  -2.39187283E-08
  -1.43999998E-02  -2.50505288E-08
  -1.43499998E-02  -2.62085447E-08
  -1.42999999E-02  -2.73916339E-08
  -1.42500000E-02  -2.85991799E-08
  -1.42000001E-02  -2.98314156E-08
  -1.41500002E-02  -3.10893604E-08
  -1.41000003E-02  -3.23744302E-08
  -1.40500003E-02  -3.36878223E-08
  -1.40000004E-02  -3.50301192E-08
  -1.39499996E-02  -3.64011719E-08
  -1.38999997E-02  -3.78003335E-08
  -1.38499998E-02  -3.92269826E-08
  -1.37999998E-02  -4.06809733E-08
  -1.37499999E-02  -4.21629416E-08
  -1.37000000E-02  -4.36741665E-08
  -1.36500001E-02  -4.52161935E-08
  -1.36000002E-02  -4.67903476E-08
  -1.35500003E-02  -4.83974283E-08
  -1.35000004E-02  -5.00376416E-08
  -1.34500004E-02  -5.17109164E-08
  -1.33999996E-02  -5.34173594E-08
  -1.33499997E-02  -5.51576740E-08
  -1.32999998E-02  -5.69332670E-08
  -1.32499998E-02  -5.87460605E-08
  -1.31999999E-02  -6.05981043E-08
  -1.31500000E-02  -6.24910825E-08
  -1.31000001E-02  -6.44261320E-08
  -1.30500002E-02  -6.64038495E-08
  -1.30000003E-02  -6.84247183E-08
  -1.29500004E-02  -7.04895911E-08
  -1.29000004E-02  -7.25999811E-08
  -1.28499996E-02  -7.47581765E-08
  -1.27999997E-02  -7.69668489E-08
  -1.27499998E-02  -7.92286201E-08
  -1.26999998E-02  -8.15456147E-08
  -1.26499999E-02  -8.39192822E-08
  -1.26000000E-02  -8.63505889E-08
  -1.25500001E-02  -8.88405154E-08
  -1.25000002E-02  -9.13906462E-08
  -1.24500003E-02  -9.40034681E-08
  -1.24000004E-02  -9.66822711E-08
  -1.23500004E-02  -9.94307854E-08
  -1.22999996E-02  -1.02252514E-07
  -1.22499997E-02  -1.05150235E-07
  -1.21999998E-02  -1.08125846E-07
  -1.21499998E-02  -1.11180739E-07
  -1.20999999E-02  -1.14316364E-07
  -1.20500000E-02  -1.17534924E-07
  -1.20000001E-02  -1.20839715E-07
  -1.19500002E-02  -1.24235029E-07
  -1.19000003E-02  -1.27725528E-07
  -1.18500004E-02  -1.31315460E-07
  -1.18000004E-02  -1.35008136E-07
  -1.17499996E-02  -1.38805746E-07
  -1.16999997E-02  -1.42709752E-07
  -1.16499998E-02  -1.46721788E-07
  -1.15999999E-02  -1.50844400E-07
  -1.15499999E-02  -1.55081523E-07
  -1.15000000E-02  -1.59438400E-07
  -1.14500001E-02  -1.63920802E-07
  -1.14000002E-02  -1.68534058E-07
  -1.13500003E-02  -1.73282316E-07
  -1.13000004E-02  -1.78168349E-07
  -1.12500004E-02  -1.83193990E-07
  -1.11999996E-02  -1.88361071E-07
  -1.11499997E-02  -1.93672435E-07
  -1.10999998E-02  -1.99132501E-07
  -1.10499999E-02  -2.04747195E-07
  -1.09999999E-02  -2.10523098E-07
  -1.09500000E-02  -2.16466404E-07
  -1.09000001E-02  -2.22581832E-07
  -1.08500002E-02  -2.28872494E-07
  -1.08000003E-02  -2.35340281E-07
  -1.07500004E-02  -2.41986982E-07
  -1.07000005E-02  -2.48815610E-07
  -1.06499996E-02  -2.55831054E-07
  -1.05999997E-02  -2.63040192E-07
  -1.05499998E-02  -2.70450840E-07
  -1.04999999E-02  -2.78070644E-07
  -1.04499999E-02  -2.85905713E-07
  -1.04000000E-02  -2.93960085E-07
  -1.03500001E-02  -3.02236401E-07
  -1.03000002E-02  -3.10736908E-07
  -1.02500003E-02  -3.19464846E-07
  -1.02000004E-02  -3.28425728E-07
  -1.01500005E-02  -3.37627000E-07
  -1.00999996E-02  -3.47077702E-07
  -1.00499997E-02  -3.56786586E-07
  -9.99999978E-03  -3.66760872E-07
  -9.94999986E-03  -3.77005676E-07
  -9.89999995E-03  -3.87524040E-07
  -9.85000003E-03  -3.98318605E-07
  -9.80000012E-03  -4.09392840E-07
  -9.75000020E-03  -4.20752713E-07
  -9.70000029E-03  -4.32406665E-07
  -9.65000037E-03  -4.44364929E-07
  -9.60000046E-03  -4.56638105E-07
  -9.54999961E-03  -4.69235260E-07
  -9.49999969E-03  -4.82163273E-07
  -9.44999978E-03  -4.95426661E-07
  -9.39999986E-03  -5.09029292E-07
  -9.34999995E-03  -5.22975654E-07
  -9.30000003E-03  -5.37272911E-07
  -9.25000012E-03  -5.51930839E-07
  -9.20000020E-03  -5.66961660E-07
  -9.15000029E-03  -5.82377822E-07
  -9.10000037E-03  -5.98190468E-07
  -9.05000046E-03  -6.14408179E-07
  -8.99999961E-03  -6.31037096E-07
  -8.94999970E-03  -6.48081880E-07
  -8.89999978E-03  -6.65547930E-07
  -8.84999987E-03  -6.83442920E-07
  -8.79999995E-03  -7.01777708E-07
  -8.75000004E-03  -7.20565708E-07
  -8.70000012E-03  -7.39821360E-07
  -8.65000021E-03  -7.59557906E-07
  -8.60000029E-03  -7.79786319E-07
  -8.55000038E-03  -8.00515068E-07
  -8.50000046E-03  -8.21750746E-07
  -8.44999962E-03  -8.43500459E-07
  -8.39999970E-03  -8.65773529E-07
  -8.34999979E-03  -8.88582804E-07
  -8.29999987E-03  -9.11944142E-07
  -8.24999996E-03  -9.35874198E-07
  -8.20000004E-03  -9.60389571E-07
  -8.15000013E-03  -9.85503902E-07
  -8.10000021E-03  -1.01122828E-06
  -8.05000030E-03  -1.03757168E-06
  -8.00000038E-03  -1.06454286E-06
  -7.95000046E-03  -1.09215273E-06
  -7.89999962E-03  -1.12041573E-06
  -7.84999970E-03  -1.14934903E-06
  -7.79999979E-03  -1.17897196E-06
  -7.74999987E-03  -1.20930292E-06
  -7.69999996E-03  -1.24035842E-06
  -7.65000004E-03  -1.27215139E-06
  -7.60000013E-03  -1.30469323E-06
  -7.55000021E-03  -1.33799483E-06
  -7.49999983E-03  -1.37206894E-06
  -7.44999992E-03  -1.40693191E-06
  -7.40000000E-03  -1.44260309E-06
  -7.35000009E-03  -1.47910498E-06
  -7.30000017E-03  -1.51645895E-06
  -7.24999979E-03  -1.55468467E-06
  -7.19999988E-03  -1.59379852E-06
  -7.14999996E-03  -1.63381435E-06
  -7.10000005E-03  -1.67474604E-06
  -7.05000013E-03  -1.71660872E-06
  -7.00000022E-03  -1.75942080E-06
  -6.94999984E-03  -1.80320490E-06
  -6.89999992E-03  -1.84798535E-06
  -6.85000001E-03  -1.89378704E-06
  -6.80000009E-03  -1.94063227E-06
  -6.75000018E-03  -1.98854036E-06
  -6.69999979E-03  -2.03752802E-06
  -6.64999988E-03  -2.08761139E-06
  -6.59999996E-03  -2.13880844E-06
  -6.55000005E-03  -2.19113963E-06
  -6.50000013E-03  -2.24462997E-06
  -6.45000022E-03  -2.29930629E-06
  -6.39999984E-03  -2.35519587E-06
  -6.34999992E-03  -2.41232374E-06
  -6.30000001E-03  -2.47071262E-06
  -6.25000009E-03  -2.53038274E-06
  -6.20000018E-03  -2.59135277E-06
  -6.14999980E-03  -2.65364383E-06
  -6.09999988E-03  -2.71728004E-06
  -6.04999997E-03  -2.78228958E-06
  -6.00000005E-03  -2.84870248E-06
  -5.95000014E-03  -2.91654874E-06
  -5.90000022E-03  -2.98585792E-06
  -5.84999984E-03  -3.05665571E-06
  -5.79999993E-03  -3.12896645E-06
  -5.75000001E-03  -3.20281333E-06
  -5.70000010E-03  -3.27822067E-06
  -5.65000018E-03  -3.35521509E-06
  -5.59999980E-03  -3.43382840E-06
  -5.54999989E-03  -3.51409403E-06
  -5.49999997E-03  -3.59604587E-06
  -5.45000006E-03  -3.67971711E-06
  -5.40000014E-03  -3.76513640E-06
  -5.35000023E-03  -3.85233170E-06
  -5.29999984E-03  -3.94132849E-06
  -5.24999993E-03  -4.03215563E-06
  -5.20000001E-03  -4.12484405E-06
  -5.15000010E-03  -4.21942877E-06
  -5.10000018E-03  -4.31594754E-06
  -5.04999980E-03  -4.41443763E-06
  -4.99999989E-03  -4.51493679E-06
  -4.94999997E-03  -4.61747777E-06
  -4.90000006E-03  -4.72209194E-06
  -4.85000014E-03  -4.82881069E-06
  -4.80000023E-03  -4.93766584E-06
  -4.74999985E-03  -5.04869331E-06
  -4.69999993E-03  -5.16193404E-06
  -4.65000002E-03  -5.27742986E-06
  -4.60000010E-03  -5.39522352E-06
  -4.55000019E-03  -5.51535459E-06
  -4.49999981E-03  -5.63786261E-06
  -4.44999989E-03  -5.76278126E-06
  -4.39999998E-03  -5.89014644E-06
  -4.35000006E-03  -6.01999363E-06
  -4.30000015E-03  -6.15236331E-06
  -4.25000023E-03  -6.28729867E-06
  -4.19999985E-03  -6.42484747E-06
  -4.14999994E-03  -6.56505654E-06
  -4.10000002E-03  -6.70797226E-06
  -4.05000011E-03  -6.85363602E-06
  -4.00000019E-03  -7.00208648E-06
  -3.94999981E-03  -7.15336046E-06
  -3.89999989E-03  -7.30749889E-06
  -3.84999998E-03  -7.46454589E-06
  -3.80000006E-03  -7.62455193E-06
  -3.74999992E-03  -7.78756930E-06
  -3.70000000E-03  -7.95365122E-06
  -3.65000009E-03  -8.12284907E-06
  -3.59999994E-03  -8.29520741E-06
  -3.55000002E-03  -8.47076899E-06
  -3.50000011E-03  -8.64957565E-06
  -3.44999996E-03  -8.83167195E-06
  -3.40000005E-03  -9.01710791E-06
  -3.34999990E-03  -9.20593538E-06
  -3.29999998E-03  -9.39821075E-06
  -3.25000007E-03  -9.59399313E-06
  -3.19999992E-03  -9.79333709E-06
  -3.15000000E-03  -9.99629083E-06
  -3.10000009E-03  -1.02029026E-05
  -3.04999994E-03  -1.04132159E-05
  -3.00000003E-03  -1.06272764E-05
  -2.95000011E-03  -1.08451368E-05
  -2.89999996E-03  -1.10668534E-05
  -2.85000005E-03  -1.12924854E-05
  -2.79999990E-03  -1.15220982E-05
  -2.74999999E-03  -1.17557529E-05
  -2.70000007E-03  -1.19935012E-05
  -2.64999992E-03  -1.22353958E-05
  -2.60000001E-03  -1.24814806E-05
  -2.55000009E-03  -1.27318035E-05
  -2.49999994E-03  -1.29864175E-05
  -2.45000003E-03  -1.32453815E-05
  -2.40000011E-03  -1.35087639E-05
  -2.34999997E-03  -1.37766319E-05
  -2.30000005E-03  -1.40490511E-05
  -2.24999990E-03  -1.43260786E-05
  -2.19999999E-03  -1.46077637E-05
  -2.15000007E-03  -1.48941526E-05
  -2.09999993E-03  -1.51852928E-05
  -2.05000001E-03  -1.54812387E-05
  -2.00000009E-03  -1.57820505E-05
  -1.94999995E-03  -1.60877971E-05
  -1.90000003E-03  -1.63985515E-05
  -1.85000000E-03  -1.67143808E-05
  -1.79999997E-03  -1.70353487E-05
  -1.75000005E-03  -1.73615026E-05
  -1.70000002E-03  -1.76928934E-05
  -1.64999999E-03  -1.80295665E-05
  -1.59999996E-03  -1.83715692E-05
  -1.55000004E-03  -1.87189689E-05
  -1.50000001E-03  -1.90718329E-05
  -1.44999998E-03  -1.94302338E-05
  -1.39999995E-03  -1.97942481E-05
  -1.35000004E-03  -2.01639396E-05
  -1.30000000E-03  -2.05393571E-05
  -1.24999997E-03  -2.09205500E-05
  -1.20000006E-03  -2.13075564E-05
  -1.15000003E-03  -2.17004290E-05
  -1.09999999E-03  -2.20992242E-05
  -1.04999996E-03  -2.25040112E-05
  -1.00000005E-03  -2.29148718E-05
  -9.50000016E-04  -2.33318824E-05
  -8.99999985E-04  -2.37551067E-05
  -8.50000011E-04  -2.41846010E-05
  -7.99999980E-04  -2.46204017E-05
  -7.50000007E-04  -2.50625471E-05
  -6.99999975E-04  -2.55110772E-05
  -6.50000002E-04  -2.59660483E-05
  -6.00000028E-04  -2.64275277E-05
  -5.49999997E-04  -2.68955973E-05
  -5.00000024E-04  -2.73703299E-05
  -4.49999992E-04  -2.78517982E-05
  -3.99999990E-04  -2.83400459E-05
  -3.49999988E-04  -2.88351184E-05
  -3.00000014E-04  -2.93370413E-05
  -2.50000012E-04  -2.98458508E-05
  -1.99999995E-04  -3.03615943E-05
  -1.50000007E-04  -3.08843410E-05
  -9.99999975E-05  -3.14141689E-05
  -4.99999987E-05  -3.19511455E-05
   0.00000000      -3.24953435E-05
   4.99999987E-05  -3.30468101E-05
   9.99999975E-05  -3.36055746E-05
   1.50000007E-04  -3.41716623E-05
   1.99999995E-04  -3.47450987E-05
   2.50000012E-04  -3.53259238E-05
   3.00000014E-04  -3.59141959E-05
   3.49999988E-04  -3.65099841E-05
   3.99999990E-04  -3.71133647E-05
   4.49999992E-04  -3.77243887E-05
   5.00000024E-04  -3.83431034E-05
   5.49999997E-04  -3.89695342E-05
   6.00000028E-04  -3.96036958E-05
   6.50000002E-04  -4.02456099E-05
   6.99999975E-04  -4.08952983E-05
   7.50000007E-04  -4.15528120E-05
   7.99999980E-04  -4.22182020E-05
   8.50000011E-04  -4.28915337E-05
   8.99999985E-04  -4.35728725E-05
   9.50000016E-04  -4.42622586E-05
   1.00000005E-03  -4.49597028E-05
   1.04999996E-03  -4.56652087E-05
   1.09999999E-03  -4.63787801E-05
   1.15000003E-03  -4.71004205E-05
   1.20000006E-03  -4.78301627E-05
   1.24999997E-03  -4.85680466E-05
   1.30000000E-03  -4.93141342E-05
   1.35000004E-03  -5.00684728E-05
   1.39999995E-03  -5.08311095E-05
   1.44999998E-03  -5.16020336E-05
   1.50000001E-03  -5.23812269E-05
   1.55000004E-03  -5.31686783E-05
   1.59999996E-03  -5.39643806E-05
   1.64999999E-03  -5.47683376E-05
   1.70000002E-03  -5.55805855E-05
   1.75000005E-03  -5.64011607E-05
   1.79999997E-03  -5.72301069E-05
   1.85000000E-03  -5.80674314E-05
   1.90000003E-03  -5.89131268E-05
   1.94999995E-03  -5.97671642E-05
   2.00000009E-03  -6.06295180E-05
   2.05000001E-03  -6.15001336E-05
   2.09999993E-03  -6.23790183E-05
   2.15000007E-03  -6.32661540E-05
   2.19999999E-03  -6.41615843E-05
   2.24999990E-03  -6.50653164E-05
   2.30000005E-03  -6.59773577E-05
   2.34999997E-03  -6.68976936E-05
   2.40000011E-03  -6.78262659E-05
   2.45000003E-03  -6.87630163E-05
   2.49999994E-03  -6.97078722E-05
   2.55000009E-03  -7.06607898E-05
   2.60000001E-03  -7.16217473E-05
   2.64999992E-03  -7.25907448E-05
   2.70000007E-03  -7.35677895E-05
   2.74999999E-03  -7.45528523E-05
   2.79999990E-03  -7.55459114E-05