  -3.99999991E-02   0.00000000    
  -3.99499983E-02   0.00000000    
  -3.99000011E-02   0.00000000    
  -3.98500003E-02   4.80498709E-16
  -3.97999994E-02   3.94581998E-15
  -3.97499986E-02   1.69450788E-14
  -3.97000015E-02   5.05808570E-14
  -3.96500006E-02   1.17471964E-13
  -3.95999998E-02   2.25591166E-13
  -3.95499989E-02   3.72902745E-13
  -3.95000018E-02   5.47745389E-13
  -3.94500010E-02   7.36438308E-13
  -3.94000001E-02   9.33974903E-13
  -3.93499993E-02   1.15083138E-12
  -3.92999984E-02   1.41153517E-12
  -3.92500013E-02   1.74649943E-12
  -3.92000005E-02   2.18303197E-12
  -3.91499996E-02   2.74146352E-12
  -3.90999988E-02   3.43849623E-12
  -3.90500017E-02   4.29446062E-12
  -3.90000008E-02   5.33682820E-12
  -3.89500000E-02   6.59222676E-12
  -3.88999991E-02   8.06590385E-12
  -3.88499983E-02   9.71966951E-12
  -3.88000011E-02   1.14685856E-11
  -3.87500003E-02   1.32123869E-11
  -3.86999995E-02   1.48967817E-11
  -3.86499986E-02   1.65733417E-11
  -3.86000015E-02   1.84140984E-11
  -3.85500006E-02   2.06516887E-11
  -3.84999998E-02   2.34538274E-11
  -3.84499989E-02   2.67834522E-11
  -3.84000018E-02   3.03189245E-11
  -3.83500010E-02   3.34973958E-11
  -3.83000001E-02   3.56961648E-11
  -3.82499993E-02   3.64966980E-11
  -3.81999984E-02   3.59152777E-11
  -3.81500013E-02   3.44707596E-11
  -3.81000005E-02   3.30158748E-11
  -3.80499996E-02   3.23686321E-11
  -3.79999988E-02   3.28918351E-11
  -3.79500017E-02   3.42175559E-11
  -3.79000008E-02   3.52656133E-11
  -3.78500000E-02   3.45788433E-11
  -3.77999991E-02   3.08517933E-11
  -3.77499983E-02   2.34309985E-11
  -3.77000012E-02   1.25598533E-11
  -3.76500003E-02  -7.61564314E-13
  -3.75999995E-02  -1.52658042E-11
  -3.75499986E-02  -3.00559126E-11
  -3.75000015E-02  -4.51083441E-11
  -3.74500006E-02  -6.14066645E-11
  -3.73999998E-02  -8.06341383E-11
  -3.73499990E-02  -1.04546649E-10
  -3.73000018E-02  -1.34273620E-10
  -3.72500010E-02  -1.69803449E-10
  -3.72000001E-02  -2.09822923E-10
  -3.71499993E-02  -2.51957205E-10
  -3.70999984E-02  -2.93350205E-10
  -3.70500013E-02  -3.31450617E-10
  -3.70000005E-02  -3.64822172E-10
  -3.69499996E-02  -3.93767213E-10
  -3.68999988E-02  -4.20553009E-10
  -3.68500017E-02  -4.49065368E-10
  -3.68000008E-02  -4.83816098E-10
  -3.67500000E-02  -5.28414534E-10
  -3.66999991E-02  -5.83878113E-10
  -3.66499983E-02  -6.47412568E-10
  -3.66000012E-02  -7.12369885E-10
  -3.65500003E-02  -7.69819597E-10
  -3.64999995E-02  -8.11526180E-10
  -3.64499986E-02  -8.33331792E-10
  -3.64000015E-02  -8.37414638E-10
  -3.63500006E-02  -8.32018621E-10
  -3.62999998E-02  -8.28150271E-10
  -3.62499990E-02  -8.34146308E-10
  -3.62000018E-02  -8.50331638E-10
  -3.61500010E-02  -8.66505923E-10
  -3.61000001E-02  -8.64249228E-10
  -3.60499993E-02  -8.24064428E-10
  -3.59999985E-02  -7.34882433E-10
  -3.59500013E-02  -6.01614591E-10
  -3.59000005E-02  -4.46411269E-10
  -3.58499996E-02  -3.01520087E-10
  -3.57999988E-02  -1.95489083E-10
  -3.57500017E-02  -1.38237033E-10
  -3.57000008E-02  -1.12227602E-10
  -3.56500000E-02  -7.53668378E-11
  -3.55999991E-02   2.35241566E-11
  -3.55499983E-02   2.21896210E-10
  -3.55000012E-02   5.23167731E-10
  -3.54500003E-02   8.89349261E-10
  -3.53999995E-02   1.25249944E-09
  -3.53499986E-02   1.54263158E-09
  -3.53000015E-02   1.72111136E-09
  -3.52500007E-02   1.80398574E-09
  -3.51999998E-02   1.86208537E-09
  -3.51499990E-02   1.99410333E-09
  -3.51000018E-02   2.28160069E-09
  -3.50500010E-02   2.74517675E-09
  -3.50000001E-02   3.32340022E-09
  -3.49499993E-02   3.88821864E-09
  -3.48999985E-02   4.29480540E-09
  -3.48500013E-02   4.44677628E-09
  -3.48000005E-02   4.34748504E-09
  -3.47499996E-02   4.11069845E-09
  -3.46999988E-02   3.91992128E-09
  -3.46500017E-02   3.94906197E-09
  -3.46000008E-02   4.27755520E-09
  -3.45500000E-02   4.84007456E-09
  -3.44999991E-02   5.43934409E-09
  -3.44499983E-02   5.82364956E-09
  -3.44000012E-02   5.79960480E-09
  -3.43500003E-02   5.33019806E-09
  -3.42999995E-02   4.56928673E-09
  -3.42499986E-02   3.80847975E-09
  -3.42000015E-02   3.35168893E-09
  -3.41500007E-02   3.36920247E-09
  -3.40999998E-02   3.79901977E-09
  -3.40499990E-02   4.34828440E-09
  -3.40000018E-02   4.60559235E-09
  -3.39500010E-02   4.22289315E-09
  -3.39000002E-02   3.08769521E-09
  -3.38499993E-02   1.40228495E-09
  -3.37999985E-02  -3.77783999E-10
  -3.37500013E-02  -1.73153170E-09
  -3.37000005E-02  -2.31055508E-09
  -3.36499996E-02  -2.11927165E-09
  -3.35999988E-02  -1.54594892E-09
  -3.35500017E-02  -1.21482691E-09
  -3.35000008E-02  -1.71172232E-09
  -3.34500000E-02  -3.30085381E-09
  -3.33999991E-02  -5.76644643E-09
  -3.33499983E-02  -8.46639026E-09
  -3.33000012E-02  -1.05929256E-08
  -3.32500003E-02  -1.15365717E-08
  -3.31999995E-02  -1.11907701E-08
  -3.31499986E-02  -1.00476676E-08
  -3.31000015E-02  -9.02052033E-09
  -3.30500007E-02  -9.05146269E-09
  -3.29999998E-02  -1.06699147E-08
  -3.29499990E-02  -1.37048399E-08
  -3.29000019E-02  -1.72994614E-08
  -3.28500010E-02  -2.02476507E-08
  -3.28000002E-02  -2.15215881E-08
  -3.27499993E-02  -2.07593356E-08
  -3.26999985E-02  -1.84805753E-08
  -3.26500013E-02  -1.59073625E-08
  -3.26000005E-02  -1.44423282E-08
  -3.25499997E-02  -1.50217794E-08
  -3.24999988E-02  -1.76371646E-08
  -3.24500017E-02  -2.12623270E-08
  -3.24000008E-02  -2.42522198E-08
  -3.23500000E-02  -2.50627323E-08
  -3.22999991E-02  -2.29794335E-08
  -3.22499983E-02  -1.85148110E-08
  -3.22000012E-02  -1.32630760E-08
  -3.21500003E-02  -9.23941634E-09
  -3.20999995E-02  -7.97362798E-09
  -3.20499986E-02  -9.76284120E-09
  -3.20000015E-02  -1.34434170E-08
  -3.19500007E-02  -1.68257408E-08
  -3.18999998E-02  -1.76366353E-08
  -3.18499990E-02  -1.45666545E-08
  -3.18000019E-02  -7.94251953E-09
  -3.17500010E-02   3.13644388E-10
  -3.17000002E-02   7.46777395E-09
  -3.16499993E-02   1.11860894E-08
  -3.15999985E-02   1.06416440E-08
  -3.15500014E-02   6.99415237E-09
  -3.15000005E-02   2.97878655E-09
  -3.14499997E-02   1.73608561E-09
  -3.13999988E-02   5.37624434E-09
  -3.13500017E-02   1.39262974E-08
  -3.13000008E-02   2.51726995E-08
  -3.12500000E-02   3.55293643E-08
  -3.11999992E-02   4.15943333E-08
  -3.11500002E-02   4.17184509E-08
  -3.10999993E-02   3.68623958E-08
  -3.10500003E-02   3.03031555E-08
  -3.09999995E-02   2.62562594E-08
  -3.09500005E-02   2.79846333E-08
  -3.08999997E-02   3.62355905E-08
  -3.08500007E-02   4.87452247E-08
  -3.07999998E-02   6.10997617E-08
  -3.07500008E-02   6.86343498E-08
  -3.07000000E-02   6.85531347E-08
  -3.06499992E-02   6.13068352E-08
  -3.06000002E-02   5.05524334E-08
  -3.05499993E-02   4.16354382E-08
  -3.05000003E-02   3.92125479E-08
  -3.04499995E-02   4.50615580E-08
  -3.04000005E-02   5.70959173E-08
  -3.03499997E-02   7.01016276E-08
  -3.03000007E-02   7.79500766E-08
  -3.02499998E-02   7.63490391E-08
  -3.02000009E-02   6.48979253E-08
  -3.01500000E-02   4.74686956E-08
  -3.00999992E-02   3.06518366E-08
  -3.00500002E-02   2.08813020E-08
  -2.99999993E-02   2.14889848E-08
  -2.99500003E-02   3.10341903E-08
  -2.98999995E-02   4.37359198E-08
  -2.98500005E-02   5.19129877E-08
  -2.97999997E-02   4.94126553E-08
  -2.97500007E-02   3.45070639E-08
  -2.96999998E-02   1.09069154E-08
  -2.96500009E-02  -1.36613698E-08
  -2.96000000E-02  -3.07803667E-08
  -2.95499992E-02  -3.51393865E-08
  -2.95000002E-02  -2.70935097E-08
  -2.94499993E-02  -1.27578934E-08
  -2.94000003E-02  -1.48056090E-09
  -2.93499995E-02  -1.72570269E-09
  -2.93000005E-02  -1.71710628E-08
  -2.92499997E-02  -4.48064341E-08
  -2.92000007E-02  -7.59872023E-08
  -2.91499998E-02  -1.00092912E-07
  -2.91000009E-02  -1.09239629E-07
  -2.90500000E-02  -1.01948601E-07
  -2.89999992E-02  -8.40592875E-08
  -2.89500002E-02  -6.63560016E-08
  -2.88999993E-02  -5.98499525E-08
  -2.88500004E-02  -7.07633419E-08
  -2.87999995E-02  -9.74827046E-08
  -2.87500005E-02  -1.30946603E-07
  -2.86999997E-02  -1.58432186E-07
  -2.86500007E-02  -1.69159847E-07
  -2.85999998E-02  -1.59245431E-07
  -2.85500009E-02  -1.33727212E-07
  -2.85000000E-02  -1.04631653E-07
  -2.84499992E-02  -8.57981561E-08
  -2.84000002E-02  -8.66807923E-08
  -2.83499993E-02  -1.07894699E-07
  -2.83000004E-02  -1.40590771E-07
  -2.82499995E-02  -1.70088384E-07
  -2.82000005E-02  -1.82283472E-07
  -2.81499997E-02  -1.70037296E-07
  -2.81000007E-02  -1.36655103E-07
  -2.80499998E-02  -9.47732985E-08
  -2.80000009E-02  -6.09896134E-08
  -2.79500000E-02  -4.85080740E-08
  -2.78999992E-02  -6.10521766E-08
  -2.78500002E-02  -9.08438054E-08
  -2.77999993E-02  -1.21708510E-07
  -2.77500004E-02  -1.36089284E-07
  -2.76999995E-02  -1.22941742E-07
  -2.76500005E-02  -8.29778060E-08
  -2.75999997E-02  -2.87971762E-08
  -2.75500007E-02   2.03340189E-08
  -2.74999999E-02   4.68913086E-08
  -2.74500009E-02   4.30083098E-08
  -2.74000000E-02   1.43175054E-08
  -2.73499992E-02  -2.21534577E-08
  -2.73000002E-02  -4.52834605E-08
  -2.72499993E-02  -3.92445969E-08
  -2.72000004E-02  -8.17976908E-10
  -2.71499995E-02   5.87228222E-08
  -2.71000005E-02   1.18186229E-07
  -2.70499997E-02   1.55647740E-07
  -2.70000007E-02   1.58262978E-07
  -2.69499999E-02   1.28314838E-07
  -2.69000009E-02   8.26532798E-08
  -2.68500000E-02   4.55673863E-08
  -2.67999992E-02   3.80847176E-08
  -2.67500002E-02   6.83950674E-08
  -2.66999993E-02   1.27738488E-07
  -2.66500004E-02   1.93777893E-07
  -2.65999995E-02   2.40175382E-07
  -2.65500005E-02   2.48264399E-07
  -2.64999997E-02   2.15641094E-07
  -2.64500007E-02   1.57723136E-07
  -2.63999999E-02   1.01361927E-07
  -2.63500009E-02   7.31345580E-08
  -2.63000000E-02   8.74099655E-08
  -2.62499992E-02   1.39538685E-07
  -2.62000002E-02   2.07376445E-07
  -2.61499994E-02   2.60706884E-07
  -2.61000004E-02   2.74570510E-07
  -2.60499995E-02   2.40634932E-07
  -2.60000005E-02   1.71446885E-07
  -2.59499997E-02   9.54481578E-08
  -2.59000007E-02   4.47188810E-08
  -2.58499999E-02   4.07310417E-08
  -2.58000009E-02   8.44409485E-08
  -2.57500000E-02   1.55287339E-07
  -2.56999992E-02   2.19801791E-07
  -2.56500002E-02   2.46249499E-07
  -2.55999994E-02   2.18914408E-07
  -2.55500004E-02   1.45619779E-07
  -2.54999995E-02   5.49254011E-08
  -2.54500005E-02  -1.60329794E-08
  -2.53999997E-02  -3.78774274E-08
  -2.53500007E-02  -2.29586217E-09
  -2.52999999E-02   7.37176151E-08
  -2.52500009E-02   1.54836798E-07
  -2.52000000E-02   2.02775297E-07
  -2.51499992E-02   1.93401348E-07
  -2.51000002E-02   1.27980130E-07
  -2.50499994E-02   3.33507906E-08
  -2.50000004E-02  -4.93402901E-08
  -2.49499995E-02  -8.26149105E-08
  -2.49000005E-02  -4.94828143E-08
  -2.48499997E-02   3.84513328E-08
  -2.48000007E-02   1.45450912E-07
  -2.47499999E-02   2.27012777E-07
  -2.47000009E-02   2.49544286E-07
  -2.46500000E-02   2.05660328E-07
  -2.45999992E-02   1.18144129E-07
  -2.45500002E-02   3.05106695E-08
  -2.44999994E-02  -1.19455654E-08
  -2.44500004E-02   1.76198807E-08
  -2.43999995E-02   1.15113558E-07
  -2.43500005E-02   2.46540651E-07
  -2.42999997E-02   3.62439778E-07
  -2.42500007E-02   4.19590492E-07
  -2.41999999E-02   4.00461118E-07
  -2.41500009E-02   3.21634928E-07
  -2.41000000E-02   2.27170815E-07
  -2.40499992E-02   1.69496545E-07
  -2.40000002E-02   1.86075269E-07
  -2.39499994E-02   2.82181304E-07
  -2.39000004E-02   4.27638497E-07
  -2.38499995E-02   5.69316171E-07
  -2.38000005E-02   6.54174301E-07
  -2.37499997E-02   6.52802441E-07
  -2.37000007E-02   5.72939086E-07
  -2.36499999E-02   4.56692476E-07
  -2.36000009E-02   3.62324982E-07
  -2.35500000E-02   3.38390748E-07
  -2.34999992E-02   4.01616944E-07
  -2.34500002E-02   5.28506121E-07
  -2.33999994E-02   6.64729441E-07
  -2.33500004E-02   7.48512548E-07
  -2.32999995E-02   7.37868163E-07
  -2.32500006E-02   6.29585998E-07
  -2.31999997E-02   4.61303330E-07
  -2.31500007E-02   2.95357239E-07
  -2.30999999E-02   1.91238712E-07
  -2.30500009E-02   1.78717229E-07
  -2.30000000E-02   2.43667870E-07
  -2.29499992E-02   3.33211773E-07
  -2.29000002E-02   3.78281698E-07
  -2.28499994E-02   3.23893943E-07
  -2.28000004E-02   1.53756801E-07
  -2.27499995E-02  -1.01902259E-07
  -2.27000006E-02  -3.79138953E-07
  -2.26499997E-02  -6.08416030E-07
  -2.26000007E-02  -7.45776902E-07
  -2.25499999E-02  -7.93194772E-07
  -2.25000009E-02  -7.98777535E-07
  -2.24500000E-02  -8.36333868E-07
  -2.23999992E-02  -9.73029387E-07
  -2.23500002E-02  -1.23936059E-06
  -2.22999994E-02  -1.61492380E-06
  -2.22500004E-02  -2.03664877E-06
  -2.21999995E-02  -2.42624765E-06
  -2.21500006E-02  -2.72497664E-06
  -2.20999997E-02  -2.92030722E-06
  -2.20500007E-02  -3.05242793E-06
  -2.19999999E-02  -3.19729565E-06
  -2.19500009E-02  -3.43338161E-06
  -2.19000001E-02  -3.80667893E-06
  -2.18499992E-02  -4.30958289E-06
  -2.18000002E-02  -4.88333490E-06
  -2.17499994E-02  -5.44335580E-06
  -2.17000004E-02  -5.91654680E-06
  -2.16499995E-02  -6.27408872E-06
  -2.16000006E-02  -6.54500400E-06
  -2.15499997E-02  -6.80408084E-06
  -2.15000007E-02  -7.13912186E-06
  -2.14499999E-02  -7.61179990E-06
  -2.14000009E-02  -8.22952279E-06
  -2.13500001E-02  -8.94105415E-06
  -2.12999992E-02  -9.65823619E-06
  -2.12500002E-02  -1.02945478E-05
  -2.11999994E-02  -1.08035383E-05
  -2.11500004E-02  -1.11999498E-05
  -2.10999995E-02  -1.15538478E-05
  -2.10500006E-02  -1.19599499E-05
  -2.09999997E-02  -1.24955041E-05
  -2.09500007E-02  -1.31853285E-05
  -2.08999999E-02  -1.39897456E-05
  -2.08500009E-02  -1.48211839E-05
  -2.08000001E-02  -1.55823782E-05
  -2.07499992E-02  -1.62094530E-05
  -2.07000002E-02  -1.67007020E-05
  -2.06499994E-02  -1.71179927E-05
  -2.06000004E-02  -1.75597925E-05
  -2.05499995E-02  -1.81174710E-05
  -2.05000006E-02  -1.88341892E-05
  -2.04499997E-02  -1.96847377E-05
  -2.04000007E-02  -2.05856813E-05
  -2.03499999E-02  -2.14316133E-05
  -2.03000009E-02  -2.21417322E-05
  -2.02500001E-02  -2.26960783E-05
  -2.01999992E-02  -2.31450449E-05
  -2.01500002E-02  -2.35876669E-05
  -2.00999994E-02  -2.41279704E-05
  -2.00500004E-02  -2.48285760E-05
  -1.99999996E-02  -2.56822750E-05
  -1.99500006E-02  -2.66144816E-05
  -1.98999997E-02  -2.75157618E-05
  -1.98500007E-02  -2.82903802E-05
  -1.97999999E-02  -2.88993269E-05
  -1.97500009E-02  -2.93784888E-05
  -1.97000001E-02  -2.98236628E-05
  -1.96499992E-02  -3.03486504E-05
  -1.96000002E-02  -3.10348987E-05
  -1.95499994E-02  -3.18950551E-05
  -1.95000004E-02  -3.28668611E-05
  -1.94499996E-02  -3.38404170E-05
  -1.94000006E-02  -3.47070090E-05
  -1.93499997E-02  -3.54079821E-05
  -1.93000007E-02  -3.59616788E-05
  -1.92499999E-02  -3.64564512E-05
  -1.92000009E-02  -3.70124362E-05
  -1.91500001E-02  -3.77288052E-05
  -1.90999992E-02  -3.86398933E-05
  -1.90500002E-02  -3.96999676E-05
  -1.89999994E-02  -4.08035594E-05
  -1.89500004E-02  -4.18326672E-05
  -1.88999996E-02  -4.27098967E-05
  -1.88500006E-02  -4.34340400E-05
  -1.87999997E-02  -4.40819531E-05
  -1.87500007E-02  -4.47757157E-05
  -1.86999999E-02  -4.56293383E-05
  -1.86500009E-02  -4.66985439E-05
  -1.86000001E-02  -4.79563205E-05
  -1.85499992E-02  -4.93051157E-05
  -1.85000002E-02  -5.06204960E-05
  -1.84499994E-02  -5.18072338E-05
  -1.84000004E-02  -5.28428354E-05
  -1.83499996E-02  -5.37888009E-05
  -1.83000006E-02  -5.47645614E-05
  -1.82499997E-02  -5.58955362E-05
  -1.82000007E-02  -5.72581885E-05
  -1.81499999E-02  -5.88463954E-05
  -1.81000009E-02  -6.05745699E-05
  -1.80500001E-02  -6.23161250E-05
  -1.79999992E-02  -6.39605787E-05
  -1.79500002E-02  -6.54637915E-05
  -1.78999994E-02  -6.68687499E-05
  -1.78500004E-02  -6.82878526E-05
  -1.77999996E-02  -6.98541044E-05
  -1.77500006E-02  -7.16626673E-05
  -1.76999997E-02  -7.37290466E-05
  -1.76500008E-02  -7.59824179E-05
  -1.75999999E-02  -7.82976276E-05
  -1.75500009E-02  -8.05512900E-05
  -1.75000001E-02  -8.26771065E-05
  -1.74499992E-02  -8.46963740E-05
  -1.74000002E-02  -8.67097551E-05
  -1.73499994E-02  -8.88530776E-05
  -1.73000004E-02  -9.12377436E-05
  -1.72499996E-02  -9.39017191E-05
  -1.72000006E-02  -9.67929736E-05
  -1.71499997E-02  -9.97928728E-05
  -1.71000008E-02  -1.02769322E-04
  -1.70499999E-02  -1.05636456E-04
  -1.70000009E-02  -1.08393549E-04
  -1.69500001E-02  -1.11126035E-04
  -1.68999992E-02  -1.13968461E-04
  -1.68500002E-02  -1.17045412E-04
  -1.67999994E-02  -1.20416335E-04
  -1.67500004E-02  -1.24049518E-04
  -1.66999996E-02  -1.27836480E-04
  -1.66500006E-02  -1.31640394E-04
  -1.65999997E-02  -1.35357550E-04
  -1.65500008E-02  -1.38964067E-04
  -1.64999999E-02  -1.42526886E-04
  -1.64500009E-02  -1.46174629E-04
  -1.64000001E-02  -1.50041349E-04
  -1.63499992E-02  -1.54206951E-04
  -1.63000003E-02  -1.58662122E-04
  -1.62499994E-02  -1.63313307E-04
  -1.62000004E-02  -1.68024344E-04
  -1.61499996E-02  -1.72677988E-04
  -1.61000006E-02  -1.77229012E-04
  -1.60499997E-02  -1.81725001E-04
  -1.60000008E-02  -1.86286037E-04
  -1.59499999E-02  -1.91052401E-04
  -1.59000009E-02  -1.96122492E-04
  -1.58500001E-02  -2.01509902E-04
  -1.57999992E-02  -2.07138321E-04
  -1.57500003E-02  -2.12876068E-04
  -1.56999994E-02  -2.18595364E-04
  -1.56500004E-02  -2.24230243E-04
  -1.55999996E-02  -2.29806785E-04
  -1.55499997E-02  -2.35432468E-04
  -1.54999997E-02  -2.41249683E-04
  -1.54499998E-02  -2.47373420E-04
  -1.53999999E-02  -2.53840786E-04
  -1.53500000E-02  -2.60596251E-04
  -1.53000001E-02  -2.67517986E-04
  -1.52500002E-02  -2.74473015E-04
  -1.52000003E-02  -2.81378365E-04
  -1.51500003E-02  -2.88239709E-04
  -1.51000004E-02  -2.95150501E-04
  -1.50499996E-02  -3.02251632E-04
  -1.49999997E-02  -3.09670198E-04
  -1.49499997E-02  -3.17465077E-04
  -1.48999998E-02  -3.25602392E-04
  -1.48499999E-02  -3.33972421E-04
  -1.48000000E-02  -3.42440559E-04
  -1.47500001E-02  -3.50909511E-04
  -1.47000002E-02  -3.59364785E-04
  -1.46500003E-02  -3.67882574E-04
  -1.46000003E-02  -3.76597716E-04
  -1.45500004E-02  -3.85645864E-04
  -1.44999996E-02  -3.95105424E-04
  -1.44499997E-02  -4.04964172E-04
  -1.43999998E-02  -4.15128423E-04
  -1.43499998E-02  -4.25467559E-04
  -1.42999999E-02  -4.35873517E-04
  -1.42500000E-02  -4.46312362E-04
  -1.42000001E-02  -4.56842186E-04
  -1.41500002E-02  -4.67588630E-04
  -1.41000003E-02  -4.78692527E-04
  -1.40500003E-02  -4.90250066E-04
  -1.40000004E-02  -5.02271054E-04
  -1.39499996E-02  -5.14679065E-04
  -1.38999997E-02  -5.27348428E-04
  -1.38499998E-02  -5.40161505E-04
  -1.37999998E-02  -5.53065271E-04
  -1.37499999E-02  -5.66098315E-04
  -1.37000000E-02  -5.79373911E-04
  -1.36500001E-02  -5.93033386E-04
  -1.36000002E-02  -6.07185473E-04
  -1.35500003E-02  -6.21860963E-04
  -1.35000004E-02  -6.37001591E-04
  -1.34500004E-02  -6.52490300E-04
  -1.33999996E-02  -6.68206369E-04
  -1.33499997E-02  -6.84081635E-04
  -1.32999998E-02  -7.00133445E-04
  -1.32499998E-02  -7.16460694E-04
  -1.31999999E-02  -7.33201508E-04
  -1.31500000E-02  -7.50474166E-04
  -1.31000001E-02  -7.68327503E-04
  -1.30500002E-02  -7.86721299E-04
  -1.30000003E-02  -8.05550953E-04
  -1.29500004E-02  -8.24694638E-04
  -1.29000004E-02  -8.44070339E-04
  -1.28499996E-02  -8.63677124E-04
  -1.27999997E-02  -8.83595843E-04
  -1.27499998E-02  -9.03954438E-04
  -1.26999998E-02  -9.24875902E-04
  -1.26499999E-02  -9.46425775E-04
  -1.26000000E-02  -9.68583568E-04
  -1.25500001E-02  -9.91257839E-04
  -1.25000002E-02  -1.01432891E-03
  -1.24500003E-02  -1.03770616E-03
  -1.24000004E-02  -1.06137001E-03
  -1.23500004E-02  -1.08538300E-03
  -1.22999996E-02  -1.10986514E-03
  -1.22499997E-02  -1.13494322E-03
  -1.21999998E-02  -1.16069952E-03
  -1.21499998E-02  -1.18713570E-03
  -1.20999999E-02  -1.21417409E-03
  -1.20500000E-02  -1.24169863E-03
  -1.20000001E-02  -1.26960711E-03
  -1.19500002E-02  -1.29786052E-03
  -1.19000003E-02  -1.32650207E-03
  -1.18500004E-02  -1.35564164E-03
  -1.18000004E-02  -1.38540938E-03
  -1.17499996E-02  -1.41589635E-03
  -1.16999997E-02  -1.44711998E-03
  -1.16499998E-02  -1.47902127E-03
  -1.15999999E-02  -1.51149230E-03
  -1.15499999E-02  -1.54442887E-03
  -1.15000000E-02  -1.57778140E-03
  -1.14500001E-02  -1.61157758E-03
  -1.14000002E-02  -1.64591393E-03
  -1.13500003E-02  -1.68091804E-03
  -1.13000004E-02  -1.71669212E-03
  -1.12500004E-02  -1.75327016E-03
  -1.11999996E-02  -1.79060898E-03
  -1.11499997E-02  -1.82860869E-03
  -1.10999998E-02  -1.86715892E-03
  -1.10499999E-02  -1.90619729E-03
  -1.09999999E-02  -1.94573635E-03
  -1.09500000E-02  -1.98585610E-03
  -1.09000001E-02  -2.02667667E-03
  -1.08500002E-02  -2.06831237E-03
  -1.08000003E-02  -2.11081747E-03
  -1.07500004E-02  -2.15416658E-03
  -1.07000005E-02  -2.19827332E-03
  -1.06499996E-02  -2.24303524E-03
  -1.05999997E-02  -2.28837691E-03
  -1.05499998E-02  -2.33429042E-03
  -1.04999999E-02  -2.38084351E-03
  -1.04499999E-02  -2.42814817E-03
  -1.04000000E-02  -2.47632014E-03
  -1.03500001E-02  -2.52542971E-03
  -1.03000002E-02  -2.57546827E-03
  -1.02500003E-02  -2.62636691E-03
  -1.02000004E-02  -2.67802621E-03
  -1.01500005E-02  -2.73036282E-03
  -1.00999996E-02  -2.78335181E-03
  -1.00499997E-02  -2.83704116E-03
  -9.99999978E-03  -2.89153703E-03
  -9.94999986E-03  -2.94695725E-03
  -9.89999995E-03  -3.00338003E-03
  -9.85000003E-03  -3.06082005E-03
  -9.80000012E-03  -3.11922305E-03
  -9.75000020E-03  -3.17849149E-03
  -9.70000029E-03  -3.23853688E-03
  -9.65000037E-03  -3.29931523E-03
  -9.60000046E-03  -3.36085702E-03
  -9.54999961E-03  -3.42326146E-03
  -9.49999969E-03  -3.48664331E-03
  -9.44999978E-03  -3.55109922E-03
  -9.39999986E-03  -3.61665874E-03
  -9.34999995E-03  -3.68327578E-03
  -9.30000003E-03  -3.75086511E-03
  -9.25000012E-03  -3.81933060E-03
  -9.20000020E-03  -3.88862076E-03
  -9.15000029E-03  -3.95875471E-03
  -9.10000037E-03  -4.02980438E-03
  -9.05000046E-03  -4.10187803E-03
  -8.99999961E-03  -4.17507393E-03
  -8.94999970E-03  -4.24943026E-03
  -8.89999978E-03  -4.32492886E-03
  -8.84999987E-03  -4.40149242E-03
  -8.79999995E-03  -4.47902223E-03
  -8.75000004E-03  -4.55745729E-03
  -8.70000012E-03  -4.63680085E-03
  -8.65000021E-03  -4.71711624E-03
  -8.60000029E-03  -4.79850685E-03
  -8.55000038E-03  -4.88106720E-03
  -8.50000046E-03  -4.96484339E-03
  -8.44999962E-03  -5.04982239E-03
  -8.39999970E-03  -5.13594411E-03
  -8.34999979E-03  -5.22311544E-03
  -8.29999987E-03  -5.31126279E-03
  -8.24999996E-03  -5.40036475E-03
  -8.20000004E-03  -5.49045857E-03
  -8.15000013E-03  -5.58164204E-03
  -8.10000021E-03  -5.67402365E-03
  -8.05000030E-03  -5.76766953E-03
  -8.00000038E-03  -5.86257456E-03
  -7.95000046E-03  -5.95866609E-03
  -7.89999962E-03  -6.05584588E-03
  -7.84999970E-03  -6.15403941E-03
  -7.79999979E-03  -6.25322526E-03
  -7.74999987E-03  -6.35343883E-03
  -7.69999996E-03  -6.45476766E-03
  -7.65000004E-03  -6.55730255E-03
  -7.60000013E-03  -6.66109938E-03
  -7.55000021E-03  -6.76617911E-03
  -7.49999983E-03  -6.87250402E-03
  -7.44999992E-03  -6.97999727E-03
  -7.40000000E-03  -7.08856434E-03
  -7.35000009E-03  -7.19814841E-03
  -7.30000017E-03  -7.30876671E-03
  -7.24999979E-03  -7.42046814E-03
  -7.19999988E-03  -7.53333187E-03
  -7.14999996E-03  -7.64743565E-03
  -7.10000005E-03  -7.76280649E-03
  -7.05000013E-03  -7.87941832E-03
  -7.00000022E-03  -7.99719058E-03
  -6.94999984E-03  -8.11603758E-03
  -6.89999992E-03  -8.23589414E-03
  -6.85000001E-03  -8.35674256E-03
  -6.80000009E-03  -8.47865175E-03
  -6.75000018E-03  -8.60169623E-03
  -6.69999979E-03  -8.72594398E-03
  -6.64999988E-03  -8.85142945E-03
  -6.59999996E-03  -8.97812471E-03
  -6.55000005E-03  -9.10597388E-03
  -6.50000013E-03  -9.23488569E-03
  -6.45000022E-03  -9.36477352E-03
  -6.39999984E-03  -9.49561317E-03
  -6.34999992E-03  -9.62743536E-03
  -6.30000001E-03  -9.76030994E-03
  -6.25000009E-03  -9.89430491E-03
  -6.20000018E-03  -1.00294575E-02
  -6.14999980E-03  -1.01657715E-02
  -6.09999988E-03  -1.03031769E-02
  -6.04999997E-03  -1.04415603E-02
  -6.00000005E-03  -1.05808293E-02
  -5.95000014E-03  -1.07209422E-02
  -5.90000022E-03  -1.08618774E-02
  -5.84999984E-03  -1.10036712E-02
  -5.79999993E-03  -1.11464113E-02
  -5.75000001E-03  -1.12901721E-02
  -5.70000010E-03  -1.14349714E-02
  -5.65000018E-03  -1.15807550E-02
  -5.59999980E-03  -1.17274532E-02
  -5.54999989E-03  -1.18749440E-02
  -5.49999997E-03  -1.20231174E-02
  -5.45000006E-03  -1.21719483E-02
  -5.40000014E-03  -1.23214554E-02
  -5.35000023E-03  -1.24716675E-02
  -5.29999984E-03  -1.26226349E-02
  -5.24999993E-03  -1.27744228E-02
  -5.20000001E-03  -1.29270284E-02
  -5.15000010E-03  -1.30803939E-02
  -5.10000018E-03  -1.32344132E-02
  -5.04999980E-03  -1.33889252E-02
  -4.99999989E-03  -1.35438126E-02
  -4.94999997E-03  -1.36990417E-02
  -4.90000006E-03  -1.38546461E-02
  -4.85000014E-03  -1.40106883E-02
  -4.80000023E-03  -1.41672203E-02
  -4.74999985E-03  -1.43242674E-02
  -4.69999993E-03  -1.44817857E-02
  -4.65000002E-03  -1.46396728E-02
  -4.60000010E-03  -1.47977602E-02
  -4.55000019E-03  -1.49559220E-02
  -4.49999981E-03  -1.51140783E-02
  -4.44999989E-03  -1.52721992E-02
  -4.39999998E-03  -1.54303415E-02
  -4.35000006E-03  -1.55885657E-02
  -4.30000015E-03  -1.57469437E-02
  -4.25000023E-03  -1.59054715E-02
  -4.19999985E-03  -1.60640143E-02
  -4.14999994E-03  -1.62223950E-02
  -4.10000002E-03  -1.63804106E-02
  -4.05000011E-03  -1.65379401E-02
  -4.00000019E-03  -1.66949537E-02
  -3.94999981E-03  -1.68514587E-02
  -3.89999989E-03  -1.70074962E-02
  -3.84999998E-03  -1.71631295E-02
  -3.80000006E-03  -1.73184145E-02
  -3.74999992E-03  -1.74732860E-02
  -3.70000000E-03  -1.76275466E-02
  -3.65000009E-03  -1.77809875E-02
  -3.59999994E-03  -1.79333892E-02
  -3.55000002E-03  -1.80845894E-02
  -3.50000011E-03  -1.82345714E-02
  -3.44999996E-03  -1.83833875E-02
  -3.40000005E-03  -1.85311809E-02
  -3.34999990E-03  -1.86780412E-02
  -3.29999998E-03  -1.88239366E-02
  -3.25000007E-03  -1.89687014E-02
  -3.19999992E-03  -1.91121232E-02
  -3.15000000E-03  -1.92539152E-02
  -3.10000009E-03  -1.93937700E-02
  -3.04999994E-03  -1.95315685E-02
  -3.00000003E-03  -1.96674149E-02
  -2.95000011E-03  -1.98015086E-02
  -2.89999996E-03  -1.99340098E-02
  -2.85000005E-03  -2.00649519E-02
  -2.79999990E-03  -2.01941244E-02
  -2.74999999E-03  -2.03211922E-02
  -2.70000007E-03  -2.04458274E-02
  -2.64999992E-03  -2.05677357E-02
  -2.60000001E-03  -2.06867289E-02
  -2.55000009E-03  -2.08028015E-02
  -2.49999994E-03  -2.09161714E-02
  -2.45000003E-03  -2.10270751E-02
  -2.40000011E-03  -2.11355407E-02
  -2.34999997E-03  -2.12416109E-02
  -2.30000005E-03  -2.13450454E-02
  -2.24999990E-03  -2.14452725E-02
  -2.19999999E-03  -2.15417854E-02
  -2.15000007E-03  -2.16342900E-02
  -2.09999993E-03  -2.17227563E-02
  -2.05000001E-03  -2.18073428E-02
  -2.00000009E-03  -2.18883771E-02
  -1.94999995E-03  -2.19662059E-02
  -1.90000003E-03  -2.20409073E-02
  -1.85000000E-03  -2.21121758E-02
  -1.79999997E-03  -2.21794322E-02
  -1.75000005E-03  -2.22420134E-02
  -1.70000002E-03  -2.22994443E-02
  -1.64999999E-03  -2.23515723E-02
  -1.59999996E-03  -2.23985370E-02
  -1.55000004E-03  -2.24408098E-02
  -1.50000001E-03  -2.24788990E-02
  -1.44999998E-03  -2.25128438E-02
  -1.39999995E-03  -2.25423668E-02
  -1.35000004E-03  -2.25669760E-02
  -1.30000000E-03  -2.25858875E-02
  -1.24999997E-03  -2.25985292E-02
  -1.20000006E-03  -2.26046443E-02
  -1.15000003E-03  -2.26042680E-02
  -1.09999999E-03  -2.25978252E-02
  -1.04999996E-03  -2.25858018E-02
  -1.00000005E-03  -2.25684438E-02
  -9.50000016E-04  -2.25456841E-02
  -8.99999985E-04  -2.25170627E-02
  -8.50000011E-04  -2.24818476E-02
  -7.99999980E-04  -2.24391911E-02
  -7.50000007E-04  -2.23884974E-02
  -6.99999975E-04  -2.23298129E-02
  -6.50000002E-04  -2.22634822E-02
  -6.00000028E-04  -2.21901201E-02
  -5.49999997E-04  -2.21103244E-02
  -5.00000024E-04  -2.20240988E-02
  -4.49999992E-04  -2.19309963E-02
  -3.99999990E-04  -2.18301918E-02
  -3.49999988E-04  -2.17206404E-02
  -3.00000014E-04  -2.16015801E-02
  -2.50000012E-04  -2.14728285E-02
  -1.99999995E-04  -2.13347133E-02
  -1.50000007E-04  -2.11879648E-02
  -9.99999975E-05  -2.10333597E-02
  -4.99999987E-05  -2.08711643E-02
   0.00000000      -2.07010023E-02
   4.99999987E-05  -2.05220096E-02
   9.99999975E-05  -2.03330517E-02
   1.50000007E-04  -2.01330427E-02
   1.99999995E-04  -1.99216008E-02
   2.50000012E-04  -1.96991619E-02
   3.00000014E-04  -1.94665007E-02
   3.49999988E-04  -1.92244556E-02
   3.99999990E-04  -1.89735480E-02
   4.49999992E-04  -1.87134817E-02
   5.00000024E-04  -1.84432734E-02
   5.49999997E-04  -1.81617234E-02
   6.00000028E-04  -1.78677272E-02
   6.50000002E-04  -1.75607074E-02
   6.99999975E-04  -1.72409136E-02
   7.50000007E-04  -1.69092398E-02
   7.99999980E-04  -1.65665634E-02
   8.50000011E-04  -1.62133612E-02
   8.99999985E-04  -1.58496145E-02
   9.50000016E-04  -1.54745663E-02
   1.00000005E-03  -1.50869498E-02
   1.04999996E-03  -1.46856112E-02
   1.09999999E-03  -1.42697729E-02
   1.15000003E-03  -1.38393650E-02
   1.20000006E-03  -1.33952163E-02
   1.24999997E-03  -1.29383998E-02
   1.30000000E-03  -1.24694742E-02
   1.35000004E-03  -1.19883781E-02
   1.39999995E-03  -1.14945825E-02
   1.44999998E-03  -1.09870927E-02
   1.50000001E-03  -1.04646552E-02
   1.55000004E-03  -9.92634054E-03
   1.59999996E-03  -9.37190838E-03
   1.64999999E-03  -8.80190451E-03
   1.70000002E-03  -8.21735896E-03
   1.75000005E-03  -7.61911925E-03
   1.79999997E-03  -7.00746803E-03
   1.85000000E-03  -6.38201227E-03
   1.90000003E-03  -5.74176572E-03
   1.94999995E-03  -5.08537889E-03
   2.00000009E-03  -4.41161124E-03
   2.05000001E-03  -3.71989631E-03
   2.09999993E-03  -3.01072025E-03
   2.15000007E-03  -2.28520879E-03
   2.19999999E-03  -1.54455868E-03
   2.24999990E-03  -7.89339072E-04
   2.30000005E-03  -1.92148073E-05
   2.34999997E-03   7.66901358E-04
   2.40000011E-03   1.57036621E-03
   2.45000003E-03   2.39232392E-03
   2.49999994E-03   3.23355687E-03
   2.55000009E-03   4.09386586E-03
   2.60000001E-03   4.97227767E-03
   2.64999992E-03   5.86749660E-03
   2.70000007E-03   6.77850191E-03
   2.74999999E-03   7.70533690E-03
   2.79999990E-03   8.64904653E-03