  -3.99999991E-02   0.00000000    
  -3.99499983E-02   0.00000000    
  -3.99000011E-02   0.00000000    
  -3.98500003E-02   0.00000000    
  -3.97999994E-02   3.23245045E-19
  -3.97499986E-02   2.57279020E-18
  -3.97000015E-02   1.09231822E-17
  -3.96500006E-02   3.28563286E-17
  -3.95999998E-02   7.91165897E-17
  -3.95499989E-02   1.64277183E-16
  -3.95000018E-02   3.09121604E-16
  -3.94500010E-02   5.42438576E-16
  -3.94000001E-02   8.96641655E-16
  -3.93499993E-02   1.39534427E-15
  -3.92999984E-02   2.04128778E-15
  -3.92500013E-02   2.81884624E-15
  -3.92000005E-02   3.71611608E-15
  -3.91499996E-02   4.75271203E-15
  -3.90999988E-02   5.99068414E-15
  -3.90500017E-02   7.51973404E-15
  -3.90000008E-02   9.43104102E-15
  -3.89500000E-02   1.18002989E-14
  -3.88999991E-02   1.46830722E-14
  -3.88499983E-02   1.81082295E-14
  -3.88000011E-02   2.20639089E-14
  -3.87500003E-02   2.64963883E-14
  -3.86999995E-02   3.13464735E-14
  -3.86499986E-02   3.66120810E-14
  -3.86000015E-02   4.23839329E-14
  -3.85500006E-02   4.88084169E-14
  -3.84999998E-02   5.59942141E-14
  -3.84499989E-02   6.39352395E-14
  -3.84000018E-02   7.25078092E-14
  -3.83500010E-02   8.15261893E-14
  -3.83000001E-02   9.07903107E-14
  -3.82499993E-02   1.00089669E-13
  -3.81999984E-02   1.09196960E-13
  -3.81500013E-02   1.17903056E-13
  -3.81000005E-02   1.26082359E-13
  -3.80499996E-02   1.33713353E-13
  -3.79999988E-02   1.40806163E-13
  -3.79500017E-02   1.47288974E-13
  -3.79000008E-02   1.52961357E-13
  -3.78500000E-02   1.57552235E-13
  -3.77999991E-02   1.60798512E-13
  -3.77499983E-02   1.62432418E-13
  -3.77000012E-02   1.62079958E-13
  -3.76500003E-02   1.59200723E-13
  -3.75999995E-02   1.53177316E-13
  -3.75499986E-02   1.43500365E-13
  -3.75000015E-02   1.29872228E-13
  -3.74500006E-02   1.12117835E-13
  -3.73999998E-02   8.99825868E-14
  -3.73499990E-02   6.30002913E-14
  -3.73000018E-02   3.05239673E-14
  -3.72500010E-02  -8.14934888E-15
  -3.72000001E-02  -5.36596355E-14
  -3.71499993E-02  -1.06457093E-13
  -3.70999984E-02  -1.66583002E-13
  -3.70500013E-02  -2.33401189E-13
  -3.70000005E-02  -3.05530503E-13
  -3.69499996E-02  -3.81228903E-13
  -3.68999988E-02  -4.59173335E-13
  -3.68500017E-02  -5.39205074E-13
  -3.68000008E-02  -6.22542003E-13
  -3.67500000E-02  -7.11288884E-13
  -3.66999991E-02  -8.07511176E-13
  -3.66499983E-02  -9.12319374E-13
  -3.66000012E-02  -1.02528500E-12
  -3.65500003E-02  -1.14431576E-12
  -3.64999995E-02  -1.26605269E-12
  -3.64499986E-02  -1.38680972E-12
  -3.64000015E-02  -1.50383384E-12
  -3.63500006E-02  -1.61629282E-12
  -3.62999998E-02  -1.72528127E-12
  -3.62499990E-02  -1.83259744E-12
  -3.62000018E-02  -1.93885619E-12
  -3.61500010E-02  -2.04204665E-12
  -3.61000001E-02  -2.13743107E-12
  -3.60499993E-02  -2.21888371E-12
  -3.59999985E-02  -2.28098681E-12
  -3.59500013E-02  -2.32093750E-12
  -3.59000005E-02  -2.33949232E-12
  -3.58499996E-02  -2.34051385E-12
  -3.57999988E-02  -2.32904885E-12
  -3.57500017E-02  -2.30841474E-12
  -3.57000008E-02  -2.27746229E-12
  -3.56500000E-02  -2.22955530E-12
  -3.55999991E-02  -2.15426700E-12
  -3.55499983E-02  -2.04136447E-12
  -3.55000012E-02  -1.88520402E-12
  -3.54500003E-02  -1.68722133E-12
  -3.53999995E-02  -1.45515609E-12
  -3.53499986E-02  -1.19931658E-12
  -3.53000015E-02  -9.27543957E-13
  -3.52500007E-02  -6.41022120E-13
  -3.51999998E-02  -3.32722863E-13
  -3.51499990E-02   1.05575483E-14
  -3.51000018E-02   4.02910236E-13
  -3.50500010E-02   8.52628352E-13
  -3.50000001E-02   1.35715679E-12
  -3.49499993E-02   1.90251916E-12
  -3.48999985E-02   2.46815177E-12
  -3.48500013E-02   3.03521639E-12
  -3.48000005E-02   3.59440754E-12
  -3.47499996E-02   4.14937182E-12
  -3.46999988E-02   4.71401911E-12
  -3.46500017E-02   5.30489931E-12
  -3.46000008E-02   5.93196802E-12
  -3.45500000E-02   6.59169420E-12
  -3.44999991E-02   7.26564945E-12
  -3.44499983E-02   7.92575294E-12
  -3.44000012E-02   8.54453400E-12
  -3.43500003E-02   9.10614292E-12
  -3.42999995E-02   9.61267784E-12
  -3.42499986E-02   1.00820177E-11
  -3.42000015E-02   1.05374260E-11
  -3.41500007E-02   1.09935724E-11
  -3.40999998E-02   1.14457697E-11
  -3.40499990E-02   1.18678036E-11
  -3.40000018E-02   1.22196498E-11
  -3.39500010E-02   1.24618336E-11
  -3.39000002E-02   1.25703345E-11
  -3.38499993E-02   1.25454777E-11
  -3.37999985E-02   1.24104451E-11
  -3.37500013E-02   1.21991358E-11
  -3.37000005E-02   1.19379498E-11
  -3.36499996E-02   1.16296356E-11
  -3.35999988E-02   1.12474448E-11
  -3.35500017E-02   1.07435146E-11
  -3.35000008E-02   1.00684548E-11
  -3.34500000E-02   9.19323992E-12
  -3.33999991E-02   8.12297452E-12
  -3.33499983E-02   6.89581075E-12
  -3.33000012E-02   5.56712272E-12
  -3.32500003E-02   4.18553126E-12
  -3.31999995E-02   2.77101367E-12
  -3.31499986E-02   1.30484013E-12
  -3.31000015E-02  -2.63377048E-13
  -3.30500007E-02  -1.99333106E-12
  -3.29999998E-02  -3.92539603E-12
  -3.29499990E-02  -6.05874248E-12
  -3.29000019E-02  -8.34710513E-12
  -3.28500010E-02  -1.07152039E-11
  -3.28000002E-02  -1.30886699E-11
  -3.27499993E-02  -1.54235721E-11
  -3.26999985E-02  -1.77216332E-11
  -3.26500013E-02  -2.00239721E-11
  -3.26000005E-02  -2.23860618E-11
  -3.25499997E-02  -2.48447322E-11
  -3.24999988E-02  -2.73918076E-11
  -3.24500017E-02  -2.99667166E-11
  -3.24000008E-02  -3.24727085E-11
  -3.23500000E-02  -3.48110811E-11
  -3.22999991E-02  -3.69185377E-11
  -3.22499983E-02  -3.87900684E-11
  -3.22000012E-02  -4.04753661E-11
  -3.21500003E-02  -4.20492217E-11
  -3.20999995E-02  -4.35690789E-11
  -3.20499986E-02  -4.50395138E-11
  -3.20000015E-02  -4.64001060E-11
  -3.19500007E-02  -4.75427163E-11
  -3.18999998E-02  -4.83508511E-11
  -3.18499990E-02  -4.87445258E-11
  -3.18000019E-02  -4.87108132E-11
  -3.17500010E-02  -4.83058420E-11
  -3.17000002E-02  -4.76255216E-11
  -3.16499993E-02  -4.67566957E-11
  -3.15999985E-02  -4.57304090E-11
  -3.15500014E-02  -4.44997338E-11
  -3.15000005E-02  -4.29538766E-11
  -3.14499997E-02  -4.09632848E-11
  -3.13999988E-02  -3.84354076E-11
  -3.13500017E-02  -3.53557808E-11
  -3.13000008E-02  -3.17959339E-11
  -3.12500000E-02  -2.78844881E-11
  -3.11999992E-02  -2.37536605E-11
  -3.11500002E-02  -1.94840099E-11
  -3.10999993E-02  -1.50715829E-11
  -3.10500003E-02  -1.04331630E-11
  -3.09999995E-02  -5.44898241E-12
  -3.09500005E-02  -2.49766215E-14
  -3.08999997E-02   5.85390937E-12
  -3.08500007E-02   1.21048284E-11
  -3.07999998E-02   1.85723294E-11
  -3.07500008E-02   2.50865145E-11
  -3.07000000E-02   3.15274404E-11
  -3.06499992E-02   3.78665155E-11
  -3.06000002E-02   4.41665003E-11
  -3.05499993E-02   5.05399368E-11
  -3.05000003E-02   5.70837821E-11
  -3.04499995E-02   6.38183603E-11
  -3.04000005E-02   7.06580003E-11
  -3.03499997E-02   7.74283276E-11
  -3.03000007E-02   8.39245895E-11
  -3.02499998E-02   8.99858035E-11
  -3.02000009E-02   9.55504564E-11
  -3.01500000E-02   1.00666982E-10
  -3.00999992E-02   1.05453757E-10
  -3.00500002E-02   1.10026752E-10
  -2.99999993E-02   1.14427780E-10
  -2.99500003E-02   1.18585405E-10
  -2.98999995E-02   1.22325997E-10
  -2.98500005E-02   1.25430499E-10
  -2.97999997E-02   1.27714214E-10
  -2.97500007E-02   1.29094874E-10
  -2.96999998E-02   1.29619093E-10
  -2.96500009E-02   1.29432659E-10
  -2.96000000E-02   1.28706032E-10
  -2.95499992E-02   1.27547722E-10
  -2.95000002E-02   1.25945282E-10
  -2.94499993E-02   1.23761057E-10
  -2.94000003E-02   1.20784743E-10
  -2.93499995E-02   1.16818624E-10
  -2.93000005E-02   1.11758137E-10
  -2.92499997E-02   1.05633224E-10
  -2.92000007E-02   9.85934112E-11
  -2.91499998E-02   9.08425002E-11
  -2.91000009E-02   8.25501681E-11
  -2.90500000E-02   7.37788858E-11
  -2.89999992E-02   6.44595072E-11
  -2.89500002E-02   5.44287185E-11
  -2.88999993E-02   4.35127247E-11
  -2.88500004E-02   3.16191760E-11
  -2.87999995E-02   1.87946984E-11
  -2.87500005E-02   5.22183815E-12
  -2.86999997E-02  -8.84259419E-12
  -2.86500007E-02  -2.31601925E-11
  -2.85999998E-02  -3.75942923E-11
  -2.85500009E-02  -5.21485494E-11
  -2.85000000E-02  -6.69438185E-11
  -2.84499992E-02  -8.21413493E-11
  -2.84000002E-02  -9.78443368E-11
  -2.83499993E-02  -1.14020925E-10
  -2.83000004E-02  -1.30484470E-10
  -2.82499995E-02  -1.46942847E-10
  -2.82000005E-02  -1.63095287E-10
  -2.81499997E-02  -1.78733445E-10
  -2.81000007E-02  -1.93800281E-10
  -2.80499998E-02  -2.08381132E-10
  -2.80000009E-02  -2.22631399E-10
  -2.79500000E-02  -2.36672348E-10
  -2.78999992E-02  -2.50499399E-10
  -2.78500002E-02  -2.63942146E-10
  -2.77999993E-02  -2.76694917E-10
  -2.77500004E-02  -2.88409074E-10
  -2.76999995E-02  -2.98808200E-10
  -2.76500005E-02  -3.07776554E-10
  -2.75999997E-02  -3.15379362E-10
  -2.75500007E-02  -3.21804222E-10
  -2.74999999E-02  -3.27249228E-10
  -2.74500009E-02  -3.31807443E-10
  -2.74000000E-02  -3.35399264E-10
  -2.73499992E-02  -3.37781636E-10
  -2.73000002E-02  -3.38629402E-10
  -2.72499993E-02  -3.37654016E-10
  -2.72000004E-02  -3.34710953E-10
  -2.71499995E-02  -3.29849426E-10
  -2.71000005E-02  -3.23281096E-10
  -2.70499997E-02  -3.15277526E-10
  -2.70000007E-02  -3.06040970E-10
  -2.69499999E-02  -2.95605956E-10
  -2.69000009E-02  -2.83818941E-10
  -2.68500000E-02  -2.70406059E-10
  -2.67999992E-02  -2.55098637E-10
  -2.67500002E-02  -2.37759978E-10
  -2.66999993E-02  -2.18457447E-10
  -2.66500004E-02  -1.97448599E-10
  -2.65999995E-02  -1.75087445E-10
  -2.65500005E-02  -1.51689328E-10
  -2.64999997E-02  -1.27412442E-10
  -2.64500007E-02  -1.02208665E-10
  -2.63999999E-02  -7.58700533E-11
  -2.63500009E-02  -4.81542445E-11
  -2.63000000E-02  -1.89346212E-11
  -2.62499992E-02   1.16946470E-11
  -2.62000002E-02   4.34094878E-11
  -2.61499994E-02   7.57487961E-11
  -2.61000004E-02   1.08268852E-10
  -2.60499995E-02   1.40691098E-10
  -2.60000005E-02   1.72978937E-10
  -2.59499997E-02   2.05309533E-10
  -2.59000007E-02   2.37950465E-10
  -2.58499999E-02   2.71091843E-10
  -2.58000009E-02   3.04704928E-10
  -2.57500000E-02   3.38492873E-10
  -2.56999992E-02   3.71959491E-10
  -2.56500002E-02   4.04570683E-10
  -2.55999994E-02   4.35936814E-10
  -2.55500004E-02   4.65932182E-10
  -2.54999995E-02   4.94696617E-10
  -2.54500005E-02   5.22517640E-10
  -2.53999997E-02   5.49647161E-10
  -2.53500007E-02   5.76132753E-10
  -2.52999999E-02   6.01738659E-10
  -2.52500009E-02   6.25993035E-10
  -2.52000000E-02   6.48342102E-10
  -2.51499992E-02   6.68348099E-10
  -2.51000002E-02   6.85843826E-10
  -2.50499994E-02   7.00971337E-10
  -2.50000004E-02   7.14082238E-10
  -2.49499995E-02   7.25541627E-10
  -2.49000005E-02   7.35524419E-10
  -2.48499997E-02   7.43899942E-10
  -2.48000007E-02   7.50257967E-10
  -2.47499999E-02   7.54064422E-10
  -2.47000009E-02   7.54876217E-10
  -2.46500000E-02   7.52518436E-10
  -2.45999992E-02   7.47145901E-10
  -2.45500002E-02   7.39158734E-10
  -2.44999994E-02   7.29006133E-10
  -2.44500004E-02   7.16964155E-10
  -2.43999995E-02   7.02986280E-10
  -2.43500005E-02   6.86702584E-10
  -2.42999997E-02   6.67573608E-10
  -2.42500007E-02   6.45131504E-10
  -2.41999999E-02   6.19196805E-10
  -2.41500009E-02   5.89968518E-10
  -2.41000000E-02   5.57943969E-10
  -2.40499992E-02   5.23703914E-10
  -2.40000002E-02   4.87659246E-10
  -2.39499994E-02   4.49869947E-10
  -2.39000004E-02   4.10017686E-10
  -2.38499995E-02   3.67547826E-10
  -2.38000005E-02   3.21922156E-10
  -2.37499997E-02   2.72873169E-10
  -2.37000007E-02   2.20542390E-10
  -2.36499999E-02   1.65434111E-10
  -2.36000009E-02   1.08201184E-10
  -2.35500000E-02   4.93593291E-11
  -2.34999992E-02  -1.09365789E-11
  -2.34500002E-02  -7.29517211E-11
  -2.33999994E-02  -1.37240136E-10
  -2.33500004E-02  -2.04384371E-10
  -2.32999995E-02  -2.74723161E-10
  -2.32500006E-02  -3.48188534E-10
  -2.31999997E-02  -4.24325852E-10
  -2.31500007E-02  -5.02492215E-10
  -2.30999999E-02  -5.82146997E-10
  -2.30500009E-02  -6.63103683E-10
  -2.30000000E-02  -7.45624062E-10
  -2.29499992E-02  -8.30303826E-10
  -2.29000002E-02  -9.17802445E-10
  -2.28499994E-02  -1.00854092E-09
  -2.28000004E-02  -1.10251397E-09
  -2.27499995E-02  -1.19930066E-09
  -2.27000006E-02  -1.29826971E-09
  -2.26499997E-02  -1.39888678E-09
  -2.26000007E-02  -1.50098289E-09
  -2.25499999E-02  -1.60486457E-09
  -2.25000009E-02  -1.71121306E-09
  -2.24500000E-02  -1.82081161E-09
  -2.23999992E-02  -1.93421701E-09
  -2.23500002E-02  -2.05153183E-09
  -2.22999994E-02  -2.17238361E-09
  -2.22500004E-02  -2.29612973E-09
  -2.21999995E-02  -2.42219333E-09
  -2.21500006E-02  -2.55037280E-09
  -2.20999997E-02  -2.68097899E-09
  -2.20500007E-02  -2.81474333E-09
  -2.19999999E-02  -2.95253577E-09
  -2.19500009E-02  -3.09501758E-09
  -2.19000001E-02  -3.24239013E-09
  -2.18499992E-02  -3.39434525E-09
  -2.18000002E-02  -3.55024876E-09
  -2.17499994E-02  -3.70948317E-09
  -2.17000004E-02  -3.87178822E-09
  -2.16499995E-02  -4.03744371E-09
  -2.16000006E-02  -4.20720925E-09
  -2.15499997E-02  -4.38203740E-09
  -2.15000007E-02  -4.56269866E-09
  -2.14499999E-02  -4.74948925E-09
  -2.14000009E-02  -4.94216224E-09
  -2.13500001E-02  -5.14010390E-09
  -2.12999992E-02  -5.34267075E-09
  -2.12500002E-02  -5.54953505E-09
  -2.11999994E-02  -5.76089176E-09
  -2.11500004E-02  -5.97742433E-09
  -2.10999995E-02  -6.20004093E-09
  -2.10500006E-02  -6.42950271E-09
  -2.09999997E-02  -6.66610811E-09
  -2.09500007E-02  -6.90960089E-09
  -2.08999999E-02  -7.15933401E-09
  -2.08500009E-02  -7.41462625E-09
  -2.08000001E-02  -7.67514319E-09
  -2.07499992E-02  -7.94111088E-09
  -2.07000002E-02  -8.21328427E-09
  -2.06499994E-02  -8.49266346E-09
  -2.06000004E-02  -8.78010731E-09
  -2.05499995E-02  -9.07599240E-09
  -2.05000006E-02  -9.38010203E-09
  -2.04499997E-02  -9.69177005E-09
  -2.04000007E-02  -1.00102442E-08
  -2.03499999E-02  -1.03351034E-08
  -2.03000009E-02  -1.06665246E-08
  -2.02500001E-02  -1.10052927E-08
  -2.01999992E-02  -1.13525260E-08
  -2.01500002E-02  -1.17092540E-08
  -2.00999994E-02  -1.20760468E-08
  -2.00500004E-02  -1.24528494E-08
  -1.99999996E-02  -1.28391324E-08
  -1.99500006E-02  -1.32342342E-08
  -1.98999997E-02  -1.36377976E-08
  -1.98500007E-02  -1.40500545E-08
  -1.97999999E-02  -1.44718877E-08
  -1.97500009E-02  -1.49045771E-08
  -1.97000001E-02  -1.53493911E-08
  -1.96499992E-02  -1.58071689E-08
  -1.96000002E-02  -1.62781397E-08
  -1.95499994E-02  -1.67619927E-08
  -1.95000004E-02  -1.72582624E-08
  -1.94499996E-02  -1.77667498E-08
  -1.94000006E-02  -1.82878690E-08
  -1.93499997E-02  -1.88226981E-08
  -1.93000007E-02  -1.93727523E-08
  -1.92499999E-02  -1.99395682E-08
  -1.92000009E-02  -2.05242952E-08
  -1.91500001E-02  -2.11274589E-08
  -1.90999992E-02  -2.17490363E-08
  -1.90500002E-02  -2.23888001E-08
  -1.89999994E-02  -2.30467609E-08
  -1.89500004E-02  -2.37235369E-08
  -1.88999996E-02  -2.44204568E-08
  -1.88500006E-02  -2.51393519E-08
  -1.87999997E-02  -2.58821160E-08
  -1.87500007E-02  -2.66502447E-08
  -1.86999999E-02  -2.74445817E-08
  -1.86500009E-02  -2.82653527E-08
  -1.86000001E-02  -2.91125346E-08
  -1.85499992E-02  -2.99863068E-08
  -1.85000002E-02  -3.08874704E-08
  -1.84499994E-02  -3.18175530E-08
  -1.84000004E-02  -3.27786616E-08
  -1.83499996E-02  -3.37730270E-08
  -1.83000006E-02  -3.48025360E-08
  -1.82499997E-02  -3.58683785E-08
  -1.82000007E-02  -3.69710271E-08
  -1.81499999E-02  -3.81105671E-08
  -1.81000009E-02  -3.92871939E-08
  -1.80500001E-02  -4.05016856E-08
  -1.79999992E-02  -4.17555661E-08
  -1.79500002E-02  -4.30510099E-08
  -1.78999994E-02  -4.43903900E-08
  -1.78500004E-02  -4.57758027E-08
  -1.77999996E-02  -4.72087045E-08
  -1.77500006E-02  -4.86898273E-08
  -1.76999997E-02  -5.02194091E-08
  -1.76500008E-02  -5.17976879E-08
  -1.75999999E-02  -5.34253708E-08
  -1.75500009E-02  -5.51039285E-08
  -1.75000001E-02  -5.68355141E-08
  -1.74499992E-02  -5.86224935E-08
  -1.74000002E-02  -6.04669594E-08
  -1.73499994E-02  -6.23703187E-08
  -1.73000004E-02  -6.43332427E-08
  -1.72499996E-02  -6.63559021E-08
  -1.72000006E-02  -6.84384105E-08
  -1.71499997E-02  -7.05813079E-08
  -1.71000008E-02  -7.27858875E-08
  -1.70499999E-02  -7.50541531E-08
  -1.70000009E-02  -7.73885205E-08
  -1.69500001E-02  -7.97911568E-08
  -1.68999992E-02  -8.22635684E-08
  -1.68500002E-02  -8.48064232E-08
  -1.67999994E-02  -8.74197141E-08
  -1.67500004E-02  -9.01033488E-08
  -1.66999996E-02  -9.28576256E-08
  -1.66500006E-02  -9.56836317E-08
  -1.65999997E-02  -9.85831647E-08
  -1.65500008E-02  -1.01558477E-07
  -1.64999999E-02  -1.04611786E-07
  -1.64500009E-02  -1.07744718E-07
  -1.64000001E-02  -1.10957998E-07
  -1.63499992E-02  -1.14251627E-07
  -1.63000003E-02  -1.17625348E-07
  -1.62499994E-02  -1.21079310E-07
  -1.62000004E-02  -1.24614431E-07
  -1.61499996E-02  -1.28232557E-07
  -1.61000006E-02  -1.31936034E-07
  -1.60499997E-02  -1.35727291E-07
  -1.60000008E-02  -1.39608247E-07
  -1.59499999E-02  -1.43580053E-07
  -1.59000009E-02  -1.47643163E-07
  -1.58500001E-02  -1.51797622E-07
  -1.57999992E-02  -1.56043583E-07
  -1.57500003E-02  -1.60382086E-07
  -1.56999994E-02  -1.64815134E-07
  -1.56500004E-02  -1.69345427E-07
  -1.55999996E-02  -1.73975806E-07
  -1.55499997E-02  -1.78708689E-07
  -1.54999997E-02  -1.83545879E-07
  -1.54499998E-02  -1.88488386E-07
  -1.53999999E-02  -1.93536906E-07
  -1.53500000E-02  -1.98692362E-07
  -1.53000001E-02  -2.03956319E-07
  -1.52500002E-02  -2.09331375E-07
  -1.52000003E-02  -2.14821085E-07
  -1.51500003E-02  -2.20429243E-07
  -1.51000004E-02  -2.26159287E-07
  -1.50499996E-02  -2.32013889E-07
  -1.49999997E-02  -2.37995081E-07
  -1.49499997E-02  -2.44104399E-07
  -1.48999998E-02  -2.50343732E-07
  -1.48499999E-02  -2.56715481E-07
  -1.48000000E-02  -2.63223257E-07
  -1.47500001E-02  -2.69871492E-07
  -1.47000002E-02  -2.76665418E-07
  -1.46500003E-02  -2.83609893E-07
  -1.46000003E-02  -2.90709153E-07
  -1.45500004E-02  -2.97966608E-07
  -1.44999996E-02  -3.05385043E-07
  -1.44499997E-02  -3.12967444E-07
  -1.43999998E-02  -3.20717504E-07
  -1.43499998E-02  -3.28639857E-07
  -1.42999999E-02  -3.36740101E-07
  -1.42500000E-02  -3.45024603E-07
  -1.42000001E-02  -3.53499615E-07
  -1.41500002E-02  -3.62171221E-07
  -1.41000003E-02  -3.71044450E-07
  -1.40500003E-02  -3.80123652E-07
  -1.40000004E-02  -3.89413117E-07
  -1.39499996E-02  -3.98917791E-07
  -1.38999997E-02  -4.08643785E-07
  -1.38499998E-02  -4.18598404E-07
  -1.37999998E-02  -4.28789207E-07
  -1.37499999E-02  -4.39223925E-07
  -1.37000000E-02  -4.49909805E-07
  -1.36500001E-02  -4.60853556E-07
  -1.36000002E-02  -4.72061544E-07
  -1.35500003E-02  -4.83539566E-07
  -1.35000004E-02  -4.95293534E-07
  -1.34500004E-02  -5.07330526E-07
  -1.33999996E-02  -5.19658954E-07
  -1.33499997E-02  -5.32288311E-07
  -1.32999998E-02  -5.45227863E-07
  -1.32499998E-02  -5.58486192E-07
  -1.31999999E-02  -5.72071087E-07
  -1.31500000E-02  -5.85989881E-07
  -1.31000001E-02  -6.00250019E-07
  -1.30500002E-02  -6.14859403E-07
  -1.30000003E-02  -6.29826332E-07
  -1.29500004E-02  -6.45160071E-07
  -1.29000004E-02  -6.60871137E-07
  -1.28499996E-02  -6.76970501E-07
  -1.27999997E-02  -6.93468735E-07
  -1.27499998E-02  -7.10374991E-07
  -1.26999998E-02  -7.27697284E-07
  -1.26499999E-02  -7.45443799E-07
  -1.26000000E-02  -7.63623234E-07
  -1.25500001E-02  -7.82244967E-07
  -1.25000002E-02  -8.01319118E-07
  -1.24500003E-02  -8.20856769E-07
  -1.24000004E-02  -8.40869745E-07
  -1.23500004E-02  -8.61370154E-07
  -1.22999996E-02  -8.82369307E-07
  -1.22499997E-02  -9.03877606E-07
  -1.21999998E-02  -9.25904487E-07
  -1.21499998E-02  -9.48459672E-07
  -1.20999999E-02  -9.71554073E-07
  -1.20500000E-02  -9.95199343E-07
  -1.20000001E-02  -1.01940725E-06
  -1.19500002E-02  -1.04418950E-06
  -1.19000003E-02  -1.06955758E-06
  -1.18500004E-02  -1.09552320E-06
  -1.18000004E-02  -1.12209796E-06
  -1.17499996E-02  -1.14929230E-06
  -1.16999997E-02  -1.17711659E-06
  -1.16499998E-02  -1.20558252E-06
  -1.15999999E-02  -1.23470375E-06
  -1.15499999E-02  -1.26449549E-06
  -1.15000000E-02  -1.29497278E-06
  -1.14500001E-02  -1.32615014E-06
  -1.14000002E-02  -1.35804066E-06
  -1.13500003E-02  -1.39065708E-06
  -1.13000004E-02  -1.42401177E-06
  -1.12500004E-02  -1.45811623E-06
  -1.11999996E-02  -1.49298148E-06
  -1.11499997E-02  -1.52861935E-06
  -1.10999998E-02  -1.56504234E-06
  -1.10499999E-02  -1.60226591E-06
  -1.09999999E-02  -1.64030428E-06
  -1.09500000E-02  -1.67917267E-06
  -1.09000001E-02  -1.71888530E-06
  -1.08500002E-02  -1.75945684E-06
  -1.08000003E-02  -1.80090308E-06
  -1.07500004E-02  -1.84324119E-06
  -1.07000005E-02  -1.88648778E-06
  -1.06499996E-02  -1.93066012E-06
  -1.05999997E-02  -1.97577583E-06
  -1.05499998E-02  -2.02185061E-06
  -1.04999999E-02  -2.06890036E-06
  -1.04499999E-02  -2.11693941E-06
  -1.04000000E-02  -2.16598119E-06
  -1.03500001E-02  -2.21603887E-06
  -1.03000002E-02  -2.26712609E-06
  -1.02500003E-02  -2.31925833E-06
  -1.02000004E-02  -2.37245331E-06
  -1.01500005E-02  -2.42672968E-06
  -1.00999996E-02  -2.48210699E-06
  -1.00499997E-02  -2.53860367E-06
  -9.99999978E-03  -2.59623994E-06
  -9.94999986E-03  -2.65503468E-06
  -9.89999995E-03  -2.71500721E-06
  -9.85000003E-03  -2.77617573E-06
  -9.80000012E-03  -2.83855843E-06
  -9.75000020E-03  -2.90217463E-06
  -9.70000029E-03  -2.96704479E-06
  -9.65000037E-03  -3.03318757E-06
  -9.60000046E-03  -3.10062137E-06
  -9.54999961E-03  -3.16936325E-06
  -9.49999969E-03  -3.23943254E-06
  -9.44999978E-03  -3.31084743E-06
  -9.39999986E-03  -3.38362793E-06
  -9.34999995E-03  -3.45779335E-06
  -9.30000003E-03  -3.53336532E-06
  -9.25000012E-03  -3.61036541E-06
  -9.20000020E-03  -3.68881592E-06
  -9.15000029E-03  -3.76873891E-06
  -9.10000037E-03  -3.85015574E-06
  -9.05000046E-03  -3.93308528E-06
  -8.99999961E-03  -4.01754960E-06
  -8.94999970E-03  -4.10357052E-06
  -8.89999978E-03  -4.19117077E-06
  -8.84999987E-03  -4.28037265E-06
  -8.79999995E-03  -4.37120207E-06
  -8.75000004E-03  -4.46368222E-06
  -8.70000012E-03  -4.55783766E-06
  -8.65000021E-03  -4.65369249E-06
  -8.60000029E-03  -4.75127035E-06
  -8.55000038E-03  -4.85059354E-06
  -8.50000046E-03  -4.95168388E-06
  -8.44999962E-03  -5.05456455E-06
  -8.39999970E-03  -5.15926058E-06
  -8.34999979E-03  -5.26579834E-06
  -8.29999987E-03  -5.37420283E-06
  -8.24999996E-03  -5.48449952E-06
  -8.20000004E-03  -5.59671071E-06
  -8.15000013E-03  -5.71086230E-06
  -8.10000021E-03  -5.82698203E-06
  -8.05000030E-03  -5.94509720E-06
  -8.00000038E-03  -6.06523145E-06
  -7.95000046E-03  -6.18741205E-06
  -7.89999962E-03  -6.31166586E-06
  -7.84999970E-03  -6.43802605E-06
  -7.79999979E-03  -6.56652264E-06
  -7.74999987E-03  -6.69718065E-06
  -7.69999996E-03  -6.83002554E-06
  -7.65000004E-03  -6.96508823E-06
  -7.60000013E-03  -7.10240010E-06
  -7.55000021E-03  -7.24199344E-06
  -7.49999983E-03  -7.38390145E-06
  -7.44999992E-03  -7.52815322E-06
  -7.40000000E-03  -7.67477923E-06
  -7.35000009E-03  -7.82381358E-06
  -7.30000017E-03  -7.97529083E-06
  -7.24999979E-03  -8.12924281E-06
  -7.19999988E-03  -8.28569409E-06
  -7.14999996E-03  -8.44467377E-06
  -7.10000005E-03  -8.60621640E-06
  -7.05000013E-03  -8.77035927E-06
  -7.00000022E-03  -8.93713786E-06
  -6.94999984E-03  -9.10658582E-06
  -6.89999992E-03  -9.27873498E-06
  -6.85000001E-03  -9.45361990E-06
  -6.80000009E-03  -9.63128241E-06
  -6.75000018E-03  -9.81176345E-06
  -6.69999979E-03  -9.99509484E-06
  -6.64999988E-03  -1.01813102E-05
  -6.59999996E-03  -1.03704479E-05
  -6.55000005E-03  -1.05625568E-05
  -6.50000013E-03  -1.07576807E-05
  -6.45000022E-03  -1.09558596E-05
  -6.39999984E-03  -1.11571271E-05
  -6.34999992E-03  -1.13615206E-05
  -6.30000001E-03  -1.15690809E-05
  -6.25000009E-03  -1.17798581E-05
  -6.20000018E-03  -1.19938977E-05
  -6.14999980E-03  -1.22112378E-05
  -6.09999988E-03  -1.24319140E-05
  -6.04999997E-03  -1.26559762E-05
  -6.00000005E-03  -1.28834718E-05
  -5.95000014E-03  -1.31144470E-05
  -5.90000022E-03  -1.33489393E-05
  -5.84999984E-03  -1.35869877E-05
  -5.79999993E-03  -1.38286341E-05
  -5.75000001E-03  -1.40739330E-05
  -5.70000010E-03  -1.43229372E-05
  -5.65000018E-03  -1.45756940E-05
  -5.59999980E-03  -1.48322506E-05
  -5.54999989E-03  -1.50926553E-05
  -5.49999997E-03  -1.53569636E-05
  -5.45000006E-03  -1.56252318E-05
  -5.40000014E-03  -1.58974999E-05
  -5.35000023E-03  -1.61738117E-05
  -5.29999984E-03  -1.64542234E-05
  -5.24999993E-03  -1.67387861E-05
  -5.20000001E-03  -1.70275616E-05
  -5.15000010E-03  -1.73206063E-05
  -5.10000018E-03  -1.76179710E-05
  -5.04999980E-03  -1.79197032E-05
  -4.99999989E-03  -1.82258573E-05
  -4.94999997E-03  -1.85364825E-05
  -4.90000006E-03  -1.88516333E-05
  -4.85000014E-03  -1.91713607E-05
  -4.80000023E-03  -1.94957229E-05
  -4.74999985E-03  -1.98247744E-05
  -4.69999993E-03  -2.01585681E-05
  -4.65000002E-03  -2.04971693E-05
  -4.60000010E-03  -2.08406345E-05
  -4.55000019E-03  -2.11890183E-05
  -4.49999981E-03  -2.15423697E-05
  -4.44999989E-03  -2.19007488E-05
  -4.39999998E-03  -2.22642120E-05
  -4.35000006E-03  -2.26328302E-05
  -4.30000015E-03  -2.30066635E-05
  -4.25000023E-03  -2.33857754E-05
  -4.19999985E-03  -2.37702207E-05
  -4.14999994E-03  -2.41600683E-05
  -4.10000002E-03  -2.45553729E-05
  -4.05000011E-03  -2.49561963E-05
  -4.00000019E-03  -2.53625876E-05
  -3.94999981E-03  -2.57746033E-05
  -3.89999989E-03  -2.61923087E-05
  -3.84999998E-03  -2.66157676E-05
  -3.80000006E-03  -2.70450510E-05
  -3.74999992E-03  -2.74802260E-05
  -3.70000000E-03  -2.79213345E-05
  -3.65000009E-03  -2.83684440E-05
  -3.59999994E-03  -2.88216179E-05
  -3.55000002E-03  -2.92809218E-05
  -3.50000011E-03  -2.97464012E-05
  -3.44999996E-03  -3.02181270E-05
  -3.40000005E-03  -3.06961738E-05
  -3.34999990E-03  -3.11806107E-05
  -3.29999998E-03  -3.16715123E-05
  -3.25000007E-03  -3.21689331E-05
  -3.19999992E-03  -3.26729460E-05
  -3.15000000E-03  -3.31835945E-05
  -3.10000009E-03  -3.37009660E-05
  -3.04999994E-03  -3.42251187E-05
  -3.00000003E-03  -3.47561181E-05
  -2.95000011E-03  -3.52940333E-05
  -2.89999996E-03  -3.58389370E-05
  -2.85000005E-03  -3.63908985E-05
  -2.79999990E-03  -3.69499867E-05
  -2.74999999E-03  -3.75162745E-05
  -2.70000007E-03  -3.80898055E-05
  -2.64999992E-03  -3.86706379E-05
  -2.60000001E-03  -3.92588518E-05
  -2.55000009E-03  -3.98545162E-05
  -2.49999994E-03  -4.04577004E-05
  -2.45000003E-03  -4.10684806E-05
  -2.40000011E-03  -4.16869188E-05
  -2.34999997E-03  -4.23131023E-05
  -2.30000005E-03  -4.29471074E-05
  -2.24999990E-03  -4.35889924E-05
  -2.19999999E-03  -4.42388009E-05
  -2.15000007E-03  -4.48965948E-05
  -2.09999993E-03  -4.55624577E-05
  -2.05000001E-03  -4.62364806E-05
  -2.00000009E-03  -4.69187362E-05
  -1.94999995E-03  -4.76093046E-05
  -1.90000003E-03  -4.83082513E-05
  -1.85000000E-03  -4.90156490E-05
  -1.79999997E-03  -4.97315596E-05
  -1.75000005E-03  -5.04560558E-05
  -1.70000002E-03  -5.11892067E-05
  -1.64999999E-03  -5.19310706E-05
  -1.59999996E-03  -5.26817275E-05
  -1.55000004E-03  -5.34412720E-05
  -1.50000001E-03  -5.42097769E-05
  -1.44999998E-03  -5.49873112E-05
  -1.39999995E-03  -5.57739513E-05
  -1.35000004E-03  -5.65697483E-05
  -1.30000000E-03  -5.73747784E-05
  -1.24999997E-03  -5.81891181E-05
  -1.20000006E-03  -5.90128147E-05
  -1.15000003E-03  -5.98459701E-05
  -1.09999999E-03  -6.06886460E-05
  -1.04999996E-03  -6.15409444E-05
  -1.00000005E-03  -6.24029271E-05
  -9.50000016E-04  -6.32746815E-05
  -8.99999985E-04  -6.41562510E-05
  -8.50000011E-04  -6.50477305E-05
  -7.99999980E-04  -6.59491780E-05
  -7.50000007E-04  -6.68606735E-05
  -6.99999975E-04  -6.77822754E-05
  -6.50000002E-04  -6.87140709E-05
  -6.00000028E-04  -6.96561619E-05
  -5.49999997E-04  -7.06086284E-05
  -5.00000024E-04  -7.15715360E-05
  -4.49999992E-04  -7.25449281E-05
  -3.99999990E-04  -7.35288631E-05
  -3.49999988E-04  -7.45234429E-05
  -3.00000014E-04  -7.55287329E-05
  -2.50000012E-04  -7.65447912E-05
  -1.99999995E-04  -7.75716908E-05
  -1.50000007E-04  -7.86094970E-05
  -9.99999975E-05  -7.96583045E-05
  -4.99999987E-05  -8.07182150E-05
   0.00000000      -8.17892942E-05
   4.99999987E-05  -8.28715347E-05
   9.99999975E-05  -8.39650311E-05
   1.50000007E-04  -8.50698561E-05
   1.99999995E-04  -8.61861263E-05
   2.50000012E-04  -8.73139288E-05
   3.00000014E-04  -8.84532928E-05
   3.49999988E-04  -8.96042984E-05
   3.99999990E-04  -9.07670110E-05
   4.49999992E-04  -9.19415324E-05
   5.00000024E-04  -9.31279283E-05
   5.49999997E-04  -9.43262203E-05
   6.00000028E-04  -9.55364521E-05
   6.50000002E-04  -9.67587257E-05
   6.99999975E-04  -9.79930992E-05
   7.50000007E-04  -9.92396817E-05
   7.99999980E-04  -1.00498532E-04
   8.50000011E-04  -1.01769692E-04
   8.99999985E-04  -1.03053229E-04
   9.50000016E-04  -1.04349179E-04
   1.00000005E-03  -1.05657622E-04
   1.04999996E-03  -1.06978587E-04
   1.09999999E-03  -1.08312146E-04
   1.15000003E-03  -1.09658373E-04
   1.20000006E-03  -1.11017340E-04
   1.24999997E-03  -1.12389127E-04
   1.30000000E-03  -1.13773815E-04
   1.35000004E-03  -1.15171453E-04
   1.39999995E-03  -1.16582065E-04
   1.44999998E-03  -1.18005642E-04
   1.50000001E-03  -1.19442258E-04
   1.55000004E-03  -1.20892000E-04
   1.59999996E-03  -1.22354977E-04
   1.64999999E-03  -1.23831211E-04
   1.70000002E-03  -1.25320701E-04
   1.75000005E-03  -1.26823536E-04
   1.79999997E-03  -1.28339787E-04
   1.85000000E-03  -1.29869470E-04
   1.90000003E-03  -1.31412642E-04
   1.94999995E-03  -1.32969275E-04
   2.00000009E-03  -1.34539398E-04
   2.05000001E-03  -1.36123068E-04
   2.09999993E-03  -1.37720359E-04
   2.15000007E-03  -1.39331314E-04
   2.19999999E-03  -1.40955948E-04
   2.24999990E-03  -1.42594290E-04
   2.30000005E-03  -1.44246325E-04
   2.34999997E-03  -1.45912098E-04
   2.40000011E-03  -1.47591651E-04
   2.45000003E-03  -1.49284999E-04
   2.49999994E-03  -1.50992200E-04
   2.55000009E-03  -1.52713212E-04
   2.60000001E-03  -1.54448077E-04
   2.64999992E-03  -1.56196838E-04
   2.70000007E-03  -1.57959468E-04
   2.74999999E-03  -1.59736010E-04
   2.79999990E-03  -1.61526434E-04