  -3.99999991E-02   0.00000000    
  -3.99499983E-02   0.00000000    
  -3.99000011E-02   0.00000000    
  -3.98500003E-02   0.00000000    
  -3.97999994E-02   1.60419014E-19
  -3.97499986E-02   1.41712417E-18
  -3.97000015E-02   6.33748025E-18
  -3.96500006E-02   1.88671179E-17
  -3.95999998E-02   4.09488913E-17
  -3.95499989E-02   6.53168811E-17
  -3.95000018E-02   6.74966807E-17
  -3.94500010E-02   4.27450421E-18
  -3.94000001E-02  -1.73207187E-16
  -3.93499993E-02  -4.89413308E-16
  -3.92999984E-02  -9.07400456E-16
  -3.92500013E-02  -1.30749573E-15
  -3.92000005E-02  -1.50743330E-15
  -3.91499996E-02  -1.33496119E-15
  -3.90999988E-02  -7.32677729E-16
  -3.90500017E-02   1.57932681E-16
  -3.90000008E-02   9.97227347E-16
  -3.89500000E-02   1.36854584E-15
  -3.88999991E-02   9.92064470E-16
  -3.88499983E-02  -6.44460783E-17
  -3.88000011E-02  -1.30375396E-15
  -3.87500003E-02  -1.93390264E-15
  -3.86999995E-02  -1.20607380E-15
  -3.86499986E-02   1.17861066E-15
  -3.86000015E-02   4.80344973E-15
  -3.85500006E-02   8.59894634E-15
  -3.84999998E-02   1.12870842E-14
  -3.84499989E-02   1.20601635E-14
  -3.84000018E-02   1.11766446E-14
  -3.83500010E-02   1.01207410E-14
  -3.83000001E-02   1.11282850E-14
  -3.82499993E-02   1.61867590E-14
  -3.81999984E-02   2.59312242E-14
  -3.81500013E-02   3.90029162E-14
  -3.81000005E-02   5.22995445E-14
  -3.80499996E-02   6.21530754E-14
  -3.79999988E-02   6.59933534E-14
  -3.79500017E-02   6.37331713E-14
  -3.79000008E-02   5.81311800E-14
  -3.78500000E-02   5.37920843E-14
  -3.77999991E-02   5.51018446E-14
  -3.77499983E-02   6.39792852E-14
  -3.77000012E-02   7.85457379E-14
  -3.76500003E-02   9.34986951E-14
  -3.75999995E-02   1.02209426E-13
  -3.75499986E-02   9.96922813E-14
  -3.75000015E-02   8.50628229E-14
  -3.74500006E-02   6.22300402E-14
  -3.73999998E-02   3.83429928E-14
  -3.73499990E-02   2.05807780E-14
  -3.73000018E-02   1.27141060E-14
  -3.72500010E-02   1.30478268E-14
  -3.72000001E-02   1.47649854E-14
  -3.71499993E-02   8.59102235E-15
  -3.70999984E-02  -1.33998401E-14
  -3.70500013E-02  -5.45601026E-14
  -3.70000005E-02  -1.12458775E-13
  -3.69499996E-02  -1.80114861E-13
  -3.68999988E-02  -2.48911406E-13
  -3.68500017E-02  -3.11694491E-13
  -3.68000008E-02  -3.64677120E-13
  -3.67500000E-02  -4.07624021E-13
  -3.66999991E-02  -4.42820964E-13
  -3.66499983E-02  -4.73871864E-13
  -3.66000012E-02  -5.05095369E-13
  -3.65500003E-02  -5.41439181E-13
  -3.64999995E-02  -5.88047894E-13
  -3.64499986E-02  -6.48559765E-13
  -3.64000015E-02  -7.22099355E-13
  -3.63500006E-02  -8.00345846E-13
  -3.62999998E-02  -8.67051656E-13
  -3.62499990E-02  -9.02008503E-13
  -3.62000018E-02  -8.89396575E-13
  -3.61500010E-02  -8.27450467E-13
  -3.61000001E-02  -7.34127711E-13
  -3.60499993E-02  -6.43763200E-13
  -3.59999985E-02  -5.93288873E-13
  -3.59500013E-02  -6.02351285E-13
  -3.59000005E-02  -6.56698437E-13
  -3.58499996E-02  -7.05295360E-13
  -3.57999988E-02  -6.76971337E-13
  -3.57500017E-02  -5.13076615E-13
  -3.57000008E-02  -2.02712440E-13
  -3.56500000E-02   1.98024174E-13
  -3.55999991E-02   5.77571519E-13
  -3.55499983E-02   8.13124795E-13
  -3.55000012E-02   8.32274028E-13
  -3.54500003E-02   6.63576236E-13
  -3.53999995E-02   4.46508363E-13
  -3.53499986E-02   3.85793638E-13
  -3.53000015E-02   6.60999738E-13
  -3.52500007E-02   1.32824958E-12
  -3.51999998E-02   2.26307948E-12
  -3.51499990E-02   3.18260392E-12
  -3.51000018E-02   3.75217956E-12
  -3.50500010E-02   3.73950090E-12
  -3.50000001E-02   3.14754776E-12
  -3.49499993E-02   2.25533047E-12
  -3.48999985E-02   1.52876420E-12
  -3.48500013E-02   1.42273281E-12
  -3.48000005E-02   2.15413473E-12
  -3.47499996E-02   3.55447768E-12
  -3.46999988E-02   5.08938768E-12
  -3.46500017E-02   6.06335338E-12
  -3.46000008E-02   5.93808986E-12
  -3.45500000E-02   4.62418905E-12
  -3.44999991E-02   2.59636778E-12
  -3.44499983E-02   7.46959677E-13
  -3.44000012E-02   9.49387392E-15
  -3.43500003E-02   9.03715362E-13
  -3.42999995E-02   3.21570917E-12
  -3.42499986E-02   5.99205538E-12
  -3.42000015E-02   7.89787766E-12
  -3.41500007E-02   7.81560927E-12
  -3.40999998E-02   5.42401237E-12
  -3.40499990E-02   1.46907302E-12
  -3.40000018E-02  -2.45046821E-12
  -3.39500010E-02  -4.54563470E-12
  -3.39000002E-02  -3.68431414E-12
  -3.38499993E-02  -3.22842711E-14
  -3.37999985E-02   4.85424635E-12
  -3.37500013E-02   8.60362736E-12
  -3.37000005E-02   9.07862154E-12
  -3.36499996E-02   5.45019455E-12
  -3.35999988E-02  -1.22634216E-12
  -3.35500017E-02  -8.27860697E-12
  -3.35000008E-02  -1.25058202E-11
  -3.34500000E-02  -1.16632095E-11
  -3.33999991E-02  -5.67003215E-12
  -3.33499983E-02   3.07987620E-12
  -3.33000012E-02   1.05659058E-11
  -3.32500003E-02   1.28767604E-11
  -3.31999995E-02   8.10130869E-12
  -3.31499986E-02  -2.52117706E-12
  -3.31000015E-02  -1.48331330E-11
  -3.30500007E-02  -2.34206838E-11
  -3.29999998E-02  -2.40675639E-11
  -3.29499990E-02  -1.59084933E-11
  -3.29000019E-02  -2.21214128E-12
  -3.28500010E-02   1.07341566E-11
  -3.28000002E-02   1.63091311E-11
  -3.27499993E-02   1.06912916E-11
  -3.26999985E-02  -5.01543642E-12
  -3.26500013E-02  -2.47919549E-11
  -3.26000005E-02  -4.00703151E-11
  -3.25499997E-02  -4.35674483E-11
  -3.24999988E-02  -3.29008695E-11
  -3.24500017E-02  -1.22317738E-11
  -3.24000008E-02   9.05225114E-12
  -3.23500000E-02   2.02844685E-11
  -3.22999991E-02   1.44734415E-11
  -3.22499983E-02  -8.00160892E-12
  -3.22000012E-02  -3.88423044E-11
  -3.21500003E-02  -6.49981943E-11
  -3.20999995E-02  -7.43988759E-11
  -3.20499986E-02  -6.17655024E-11
  -3.20000015E-02  -3.17413353E-11
  -3.19500007E-02   2.40179231E-12
  -3.18999998E-02   2.42795662E-11
  -3.18499990E-02   2.19024729E-11
  -3.18000019E-02  -6.21082569E-12
  -3.17500010E-02  -4.93466934E-11
  -3.17000002E-02  -8.85403903E-11
  -3.16499993E-02  -1.04788782E-10
  -3.15999985E-02  -8.80215553E-11
  -3.15500014E-02  -4.26488324E-11
  -3.15000005E-02   1.32426067E-11
  -3.14499997E-02   5.52193569E-11
  -3.13999988E-02   6.34580305E-11
  -3.13500017E-02   3.24643819E-11
  -3.13000008E-02  -2.51377703E-11
  -3.12500000E-02  -8.30335037E-11
  -3.11999992E-02  -1.12456239E-10
  -3.11500002E-02  -9.55043475E-11
  -3.10999993E-02  -3.44313120E-11
  -3.10500003E-02   4.77920793E-11
  -3.09999995E-02   1.16610610E-10
  -3.09500005E-02   1.41189213E-10
  -3.08999997E-02   1.09179638E-10
  -3.08500007E-02   3.39630823E-11
  -3.07999998E-02  -4.96245094E-11
  -3.07500008E-02  -9.99710384E-11
  -3.07000000E-02  -8.76810430E-11
  -3.06499992E-02  -1.02988130E-11
  -3.06000002E-02   1.04469634E-10
  -3.05499993E-02   2.09414971E-10
  -3.05000003E-02   2.58408434E-10
  -3.04499995E-02   2.28007349E-10
  -3.04000005E-02   1.30042907E-10
  -3.03499997E-02   8.63967144E-12
  -3.03000007E-02  -7.80701198E-11
  -3.02499998E-02  -8.40909078E-11
  -3.02000009E-02   2.08958848E-12
  -3.01500000E-02   1.49662310E-10
  -3.00999992E-02   2.96852709E-10
  -3.00500002E-02   3.77516490E-10
  -2.99999993E-02   3.51627422E-10
  -2.99500003E-02   2.25706592E-10
  -2.98999995E-02   5.29761061E-11
  -2.98500005E-02  -8.82205142E-11
  -2.97999997E-02  -1.29156769E-10
  -2.97500007E-02  -4.33357794E-11
  -2.96999998E-02   1.38339493E-10
  -2.96500009E-02   3.38053530E-10
  -2.96000000E-02   4.64042055E-10
  -2.95499992E-02   4.52191284E-10
  -2.95000002E-02   2.97517344E-10
  -2.94499993E-02   6.02634539E-11
  -2.94000003E-02  -1.57837313E-10
  -2.93499995E-02  -2.58020522E-10
  -2.93000005E-02  -1.90365571E-10
  -2.92499997E-02   2.00804373E-11
  -2.92000007E-02   2.80258178E-10
  -2.91499998E-02   4.67950179E-10
  -2.91000009E-02   4.86501228E-10
  -2.90500000E-02   3.11048298E-10
  -2.89999992E-02   4.36023917E-12
  -2.89500002E-02  -3.06866615E-10
  -2.88999993E-02  -4.86664709E-10
  -2.88500004E-02  -4.51988863E-10
  -2.87999995E-02  -2.14164714E-10
  -2.87500005E-02   1.20761567E-10
  -2.86999997E-02   3.95331018E-10
  -2.86500007E-02   4.70189221E-10
  -2.85999998E-02   2.89263891E-10
  -2.85500009E-02  -8.96893323E-11
  -2.85000000E-02  -5.15213483E-10
  -2.84499992E-02  -8.06536782E-10
  -2.84000002E-02  -8.35050362E-10
  -2.83499993E-02  -5.86318882E-10
  -2.83000004E-02  -1.73007567E-10
  -2.82499995E-02   2.09930157E-10
  -2.82000005E-02   3.70364156E-10
  -2.81499997E-02   2.07467862E-10
  -2.81000007E-02  -2.36914321E-10
  -2.80499998E-02  -7.89615651E-10
  -2.80000009E-02  -1.21837140E-09
  -2.79500000E-02  -1.33501787E-09
  -2.78999992E-02  -1.08395903E-09
  -2.78500002E-02  -5.74547743E-10
  -2.77999993E-02  -3.95928776E-11
  -2.77500004E-02   2.64844091E-10
  -2.76999995E-02   1.75499823E-10
  -2.76500005E-02  -2.98522151E-10
  -2.75999997E-02  -9.70955982E-10
  -2.75500007E-02  -1.55434687E-09
  -2.74999999E-02  -1.78611714E-09
  -2.74500009E-02  -1.54958268E-09
  -2.74000000E-02  -9.34332500E-10
  -2.73499992E-02  -2.05355954E-10
  -2.73000002E-02   3.09485604E-10
  -2.72499993E-02   3.66250585E-10
  -2.72000004E-02  -7.94004723E-11
  -2.71499995E-02  -8.41973768E-10
  -2.71000005E-02  -1.57931834E-09
  -2.70499997E-02  -1.94081817E-09
  -2.70000007E-02  -1.72660608E-09
  -2.69499999E-02  -9.85724058E-10
  -2.69000009E-02  -5.56947500E-12
  -2.68500000E-02   8.07706291E-10
  -2.67999992E-02   1.10849530E-09
  -2.67500002E-02   7.71847253E-10
  -2.66999993E-02  -3.94106761E-11
  -2.66500004E-02  -9.35431399E-10
  -2.65999995E-02  -1.46624068E-09
  -2.65500005E-02  -1.32370392E-09
  -2.64999997E-02  -4.88284246E-10
  -2.64500007E-02   7.48693940E-10
  -2.63999999E-02   1.90306548E-09
  -2.63500009E-02   2.50883359E-09
  -2.63000000E-02   2.33045250E-09
  -2.62499992E-02   1.47996493E-09
  -2.62000002E-02   3.81497584E-10
  -2.61499994E-02  -4.07589018E-10
  -2.61000004E-02  -4.44070475E-10
  -2.60499995E-02   3.94511729E-10
  -2.60000005E-02   1.83954385E-09
  -2.59499997E-02   3.33526162E-09
  -2.59000007E-02   4.27739932E-09
  -2.58499999E-02   4.28421387E-09
  -2.58000009E-02   3.37841022E-09
  -2.57500000E-02   1.99364081E-09
  -2.56999992E-02   7.95082666E-10
  -2.56500002E-02   3.87421012E-10
  -2.55999994E-02   1.03774223E-09
  -2.55500004E-02   2.53951415E-09
  -2.54999995E-02   4.28526592E-09
  -2.54500005E-02   5.52389778E-09
  -2.53999997E-02   5.69391423E-09
  -2.53500007E-02   4.68491024E-09
  -2.52999999E-02   2.90594993E-09
  -2.52500009E-02   1.12181675E-09
  -2.52000000E-02   1.21554405E-10
  -2.51499992E-02   3.62308628E-10
  -2.51000002E-02   1.74855541E-09
  -2.50499994E-02   3.65216501E-09
  -2.50000004E-02   5.17413579E-09
  -2.49499995E-02   5.53956259E-09
  -2.49000005E-02   4.45270976E-09
  -2.48499997E-02   2.25005858E-09
  -2.48000007E-02  -2.26056882E-10
  -2.47499999E-02  -1.98742089E-09
  -2.47000009E-02  -2.34025355E-09
  -2.46500000E-02  -1.21012411E-09
  -2.45999992E-02   7.99989464E-10
  -2.45500002E-02   2.65542610E-09
  -2.44999994E-02   3.34048056E-09
  -2.44500004E-02   2.31856023E-09
  -2.43999995E-02  -2.05613179E-10
  -2.43500005E-02  -3.34803385E-09
  -2.42999997E-02  -5.91649529E-09
  -2.42500007E-02  -6.93537316E-09
  -2.41999999E-02  -6.09321393E-09
  -2.41500009E-02  -3.90806676E-09
  -2.41000000E-02  -1.52488522E-09
  -2.40499992E-02  -2.22129523E-10
  -2.40000002E-02  -8.38956016E-10
  -2.39499994E-02  -3.37842532E-09
  -2.39000004E-02  -6.97258340E-09
  -2.38499995E-02  -1.02390789E-08
  -2.38000005E-02  -1.18834258E-08
  -2.37499997E-02  -1.12845733E-08
  -2.37000007E-02  -8.79896156E-09
  -2.36499999E-02  -5.63519320E-09
  -2.36000009E-02  -3.33960526E-09
  -2.35500000E-02  -3.11012016E-09
  -2.34999992E-02  -5.24142019E-09
  -2.34500002E-02  -8.95665586E-09
  -2.33999994E-02  -1.27160762E-08
  -2.33500004E-02  -1.48811887E-08
  -2.32999995E-02  -1.44481751E-08
  -2.32500006E-02  -1.15223937E-08
  -2.31999997E-02  -7.31044869E-09
  -2.31500007E-02  -3.61568731E-09
  -2.30999999E-02  -2.04641748E-09
  -2.30500009E-02  -3.28339156E-09
  -2.30000000E-02  -6.73902134E-09
  -2.29499992E-02  -1.07761995E-08
  -2.29000002E-02  -1.34083065E-08
  -2.28499994E-02  -1.31821025E-08
  -2.28000004E-02  -9.85199211E-09
  -2.27499995E-02  -4.53417259E-09
  -2.27000006E-02   7.47429063E-10
  -2.26499997E-02   3.94035382E-09
  -2.26000007E-02   3.88662391E-09
  -2.25499999E-02   8.74980255E-10
  -2.25000009E-02  -3.43970830E-09
  -2.24500000E-02  -6.73576084E-09
  -2.23999992E-02  -7.04913150E-09
  -2.23500002E-02  -3.67252229E-09
  -2.22999994E-02   2.48045606E-09
  -2.22500004E-02   9.22873156E-09
  -2.21999995E-02   1.40602161E-08
  -2.21500006E-02   1.52491531E-08
  -2.20999997E-02   1.26569608E-08
  -2.20500007E-02   7.84486787E-09
  -2.19999999E-02   3.42430084E-09
  -2.19500009E-02   1.91213134E-09
  -2.19000001E-02   4.59009408E-09
  -2.18499992E-02   1.08825917E-08
  -2.18000002E-02   1.85505904E-08
  -2.17499994E-02   2.46412952E-08
  -2.17000004E-02   2.67906657E-08
  -2.16499995E-02   2.43034055E-08
  -2.16000006E-02   1.85165092E-08
  -2.15499997E-02   1.22592585E-08
  -2.15000007E-02   8.62367155E-09
  -2.14499999E-02   9.57720037E-09
  -2.14000009E-02   1.50376653E-08
  -2.13500001E-02   2.28420287E-08
  -2.12999992E-02   2.96514919E-08
  -2.12500002E-02   3.24148210E-08
  -2.11999994E-02   2.97482075E-08
  -2.11500004E-02   2.26074803E-08
  -2.10999995E-02   1.39277239E-08
  -2.10500006E-02   7.36071648E-09
  -2.09999997E-02   5.65110492E-09
  -2.09500007E-02   9.37175670E-09
  -2.08999999E-02   1.65990279E-08
  -2.08500009E-02   2.37029223E-08
  -2.08000001E-02   2.69300315E-08
  -2.07499992E-02   2.40902001E-08
  -2.07000002E-02   1.55903432E-08
  -2.06499994E-02   4.33034275E-09
  -2.06000004E-02  -5.52595658E-09
  -2.05499995E-02  -1.03843867E-08
  -2.05000006E-02  -8.85077256E-09
  -2.04499997E-02  -2.41783127E-09
  -2.04000007E-02   5.12803089E-09
  -2.03499999E-02   9.34993061E-09
  -2.03000009E-02   7.14404802E-09
  -2.02500001E-02  -1.81985904E-09
  -2.01999992E-02  -1.48649972E-08
  -2.01500002E-02  -2.74203931E-08
  -2.00999994E-02  -3.50169813E-08
  -2.00500004E-02  -3.52931231E-08
  -1.99999996E-02  -2.91070705E-08
  -1.99500006E-02  -2.02309671E-08
  -1.98999997E-02  -1.37251508E-08
  -1.98500007E-02  -1.36882834E-08
  -1.97999999E-02  -2.13789644E-08
  -1.97500009E-02  -3.45641666E-08
  -1.97000001E-02  -4.84206666E-08
  -1.96499992E-02  -5.76253854E-08
  -1.96000002E-02  -5.87257816E-08
  -1.95499994E-02  -5.17313303E-08
  -1.95000004E-02  -4.01897466E-08
  -1.94499996E-02  -2.96743412E-08
  -1.94000006E-02  -2.53219081E-08
  -1.93499997E-02  -2.95042994E-08
  -1.93000007E-02  -4.06844158E-08
  -1.92499999E-02  -5.40013936E-08
  -1.92000009E-02  -6.33654622E-08
  -1.91500001E-02  -6.41583497E-08
  -1.90999992E-02  -5.53399246E-08
  -1.90500002E-02  -3.99992466E-08
  -1.89999994E-02  -2.40637661E-08
  -1.89500004E-02  -1.37019764E-08
  -1.88999996E-02  -1.25555859E-08
  -1.88500006E-02  -2.00413854E-08
  -1.87999997E-02  -3.15118633E-08
  -1.87500007E-02  -4.02469880E-08
  -1.86999999E-02  -4.04254266E-08
  -1.86500009E-02  -2.97628517E-08
  -1.86000001E-02  -1.06241798E-08
  -1.85499992E-02   1.09258025E-08
  -1.85000002E-02   2.77544512E-08
  -1.84499994E-02   3.48316718E-08
  -1.84000004E-02   3.15268274E-08
  -1.83499996E-02   2.19802274E-08
  -1.83000006E-02   1.33389104E-08
  -1.82499997E-02   1.26014355E-08
  -1.82000007E-02   2.34579787E-08
  -1.81499999E-02   4.45448052E-08
  -1.81000009E-02   6.99284044E-08
  -1.80500001E-02   9.16504277E-08
  -1.79999992E-02   1.03235330E-07
  -1.79500002E-02   1.02606585E-07
  -1.78999994E-02   9.30897670E-08
  -1.78500004E-02   8.20111765E-08
  -1.77999996E-02   7.74709719E-08
  -1.77500006E-02   8.47009005E-08
  -1.76999997E-02   1.03632580E-07
  -1.76500008E-02   1.28793388E-07
  -1.75999999E-02   1.51624050E-07
  -1.75500009E-02   1.64227330E-07
  -1.75000001E-02   1.62894196E-07
  -1.74499992E-02   1.49821346E-07
  -1.74000002E-02   1.32213430E-07
  -1.73499994E-02   1.19120955E-07
  -1.73000004E-02   1.17388090E-07
  -1.72499996E-02   1.28510962E-07
  -1.72000006E-02   1.47833873E-07
  -1.71499997E-02   1.66488476E-07
  -1.71000008E-02   1.75259814E-07
  -1.70499999E-02   1.68681169E-07
  -1.70000009E-02   1.47526251E-07
  -1.69500001E-02   1.18550929E-07
  -1.68999992E-02   9.15494809E-08
  -1.68500002E-02   7.49965494E-08
  -1.67999994E-02   7.22004998E-08
  -1.67500004E-02   7.97043640E-08
  -1.66999996E-02   8.86916851E-08
  -1.66500006E-02   8.88202436E-08
  -1.65999997E-02   7.28097547E-08
  -1.65500008E-02   3.97397066E-08
  -1.64999999E-02  -4.44381776E-09
  -1.64500009E-02  -4.94870598E-08
  -1.64000001E-02  -8.53600142E-08
  -1.63499992E-02  -1.06764645E-07
  -1.63000003E-02  -1.15597039E-07
  -1.62499994E-02  -1.20227298E-07
  -1.62000004E-02  -1.31866855E-07
  -1.61499996E-02  -1.59598088E-07
  -1.61000006E-02  -2.06273413E-07
  -1.60499997E-02  -2.67136102E-07
  -1.60000008E-02  -3.31823657E-07
  -1.59499999E-02  -3.88910905E-07
  -1.59000009E-02  -4.30999535E-07
  -1.58500001E-02  -4.58083548E-07
  -1.57999992E-02  -4.77656044E-07
  -1.57500003E-02  -5.01458828E-07
  -1.56999994E-02  -5.40275892E-07
  -1.56500004E-02  -5.99074554E-07
  -1.55999996E-02  -6.74675107E-07
  -1.55499997E-02  -7.57028431E-07
  -1.54999997E-02  -8.33588729E-07
  -1.54499998E-02  -8.94866957E-07
  -1.53999999E-02  -9.38699031E-07
  -1.53500000E-02  -9.71296117E-07
  -1.53000001E-02  -1.00456123E-06
  -1.52500002E-02  -1.05081790E-06
  -1.52000003E-02  -1.11727479E-06
  -1.51500003E-02  -1.20269829E-06
  -1.51000004E-02  -1.29781756E-06
  -1.50499996E-02  -1.38933046E-06
  -1.49999997E-02  -1.46576735E-06
  -1.49499997E-02  -1.52262089E-06
  -1.48999998E-02  -1.56442616E-06
  -1.48499999E-02  -1.60282673E-06
  -1.48000000E-02  -1.65143445E-06
  -1.47500001E-02  -1.71973920E-06
  -1.47000002E-02  -1.80878078E-06
  -1.46500003E-02  -1.91054596E-06
  -1.46000003E-02  -2.01141484E-06
  -1.45500004E-02  -2.09815721E-06
  -1.44999996E-02  -2.16383592E-06
  -1.44499997E-02  -2.21097639E-06
  -1.43999998E-02  -2.25053736E-06
  -1.43499998E-02  -2.29710236E-06
  -1.42999999E-02  -2.36239111E-06
  -1.42500000E-02  -2.44998046E-06
  -1.42000001E-02  -2.55359487E-06
  -1.41500002E-02  -2.65978633E-06
  -1.41000003E-02  -2.75386924E-06
  -1.40500003E-02  -2.82647284E-06
  -1.40000004E-02  -2.87779676E-06
  -1.39499996E-02  -2.91764013E-06
  -1.38999997E-02  -2.96114422E-06
  -1.38499998E-02  -3.02209878E-06
  -1.37999998E-02  -3.10677319E-06
  -1.37499999E-02  -3.21104949E-06
  -1.37000000E-02  -3.32216996E-06
  -1.36500001E-02  -3.42437829E-06
  -1.36000002E-02  -3.50597020E-06
  -1.35500003E-02  -3.56459805E-06
  -1.35000004E-02  -3.60845752E-06
  -1.34500004E-02  -3.65278652E-06
  -1.33999996E-02  -3.71316037E-06
  -1.33499997E-02  -3.79857670E-06
  -1.32999998E-02  -3.90742343E-06
  -1.32499998E-02  -4.02814339E-06
  -1.31999999E-02  -4.14435908E-06
  -1.31500000E-02  -4.24221207E-06
  -1.31000001E-02  -4.31665012E-06
  -1.30500002E-02  -4.37383233E-06
  -1.30000003E-02  -4.42855344E-06
  -1.29500004E-02  -4.49778327E-06
  -1.29000004E-02  -4.59316061E-06
  -1.28499996E-02  -4.71581416E-06
  -1.27999997E-02  -4.85584042E-06
  -1.27499998E-02  -4.99669704E-06
  -1.26999998E-02  -5.12262932E-06
  -1.26499999E-02  -5.22580467E-06
  -1.26000000E-02  -5.30997522E-06
  -1.25500001E-02  -5.38899076E-06
  -1.25000002E-02  -5.48076014E-06
  -1.24500003E-02  -5.59936780E-06
  -1.24000004E-02  -5.74885280E-06
  -1.23500004E-02  -5.92137667E-06
  -1.22999996E-02  -6.10072675E-06
  -1.22499997E-02  -6.26961491E-06
  -1.21999998E-02  -6.41746101E-06
  -1.21499998E-02  -6.54526002E-06
  -1.20999999E-02  -6.66531287E-06
  -1.20500000E-02  -6.79590585E-06
  -1.20000001E-02  -6.95326617E-06
  -1.19500002E-02  -7.14434327E-06
  -1.19000003E-02  -7.36371658E-06
  -1.18500004E-02  -7.59604200E-06
  -1.18000004E-02  -7.82290954E-06
  -1.17499996E-02  -8.03115927E-06
  -1.16999997E-02  -8.21888534E-06
  -1.16499998E-02  -8.39642871E-06
  -1.15999999E-02  -8.58193380E-06
  -1.15499999E-02  -8.79337858E-06
  -1.15000000E-02  -9.04058925E-06
  -1.14500001E-02  -9.32084004E-06
  -1.14000002E-02  -9.62008016E-06
  -1.13500003E-02  -9.91922207E-06
  -1.13000004E-02  -1.02027088E-05
  -1.12500004E-02  -1.04655601E-05
  -1.11999996E-02  -1.07157575E-05
  -1.11499997E-02  -1.09707762E-05
  -1.10999998E-02  -1.12498983E-05
  -1.10499999E-02  -1.15656931E-05
  -1.09999999E-02  -1.19183733E-05
  -1.09500000E-02  -1.22957281E-05
  -1.09000001E-02  -1.26785753E-05
  -1.08500002E-02  -1.30494291E-05
  -1.08000003E-02  -1.34004040E-05
  -1.07500004E-02  -1.37368033E-05
  -1.07000005E-02  -1.40749189E-05
  -1.06499996E-02  -1.44348987E-05
  -1.05999997E-02  -1.48317667E-05
  -1.05499998E-02  -1.52687062E-05
  -1.04999999E-02  -1.57356844E-05
  -1.04499999E-02  -1.62139804E-05
  -1.04000000E-02  -1.66845512E-05
  -1.03500001E-02  -1.71366610E-05
  -1.03000002E-02  -1.75728055E-05
  -1.02500003E-02  -1.80076750E-05
  -1.02000004E-02  -1.84617329E-05
  -1.01500005E-02  -1.89522198E-05
  -1.00999996E-02  -1.94854256E-05
  -1.00499997E-02  -2.00539071E-05
  -9.99999978E-03  -2.06399345E-05
  -9.94999986E-03  -2.12235009E-05
  -9.89999995E-03  -2.17913057E-05
  -9.85000003E-03  -2.23428924E-05
  -9.80000012E-03  -2.28910940E-05
  -9.75000020E-03  -2.34563468E-05
  -9.70000029E-03  -2.40577265E-05
  -9.65000037E-03  -2.47045336E-05
  -9.60000046E-03  -2.53922226E-05
  -9.54999961E-03  -2.61045334E-05
  -9.49999969E-03  -2.68209042E-05
  -9.44999978E-03  -2.75258444E-05
  -9.39999986E-03  -2.82160636E-05
  -9.34999995E-03  -2.89020463E-05
  -9.30000003E-03  -2.96035851E-05
  -9.25000012E-03  -3.03410634E-05
  -9.20000020E-03  -3.11264921E-05
  -9.15000029E-03  -3.19582687E-05
  -9.10000037E-03  -3.28220449E-05
  -9.05000046E-03  -3.36973681E-05
  -8.99999961E-03  -3.45669432E-05
  -8.94999970E-03  -3.54246658E-05
  -8.89999978E-03  -3.62786268E-05
  -8.84999987E-03  -3.71476017E-05
  -8.79999995E-03  -3.80528618E-05
  -8.75000004E-03  -3.90089845E-05
  -8.70000012E-03  -4.00174758E-05
  -8.65000021E-03  -4.10663451E-05
  -8.60000029E-03  -4.21356344E-05
  -8.55000038E-03  -4.32067100E-05
  -8.50000046E-03  -4.42708370E-05
  -8.44999962E-03  -4.53333305E-05
  -8.39999970E-03  -4.64114783E-05
  -8.34999979E-03  -4.75271263E-05
  -8.29999987E-03  -4.86971658E-05
  -8.24999996E-03  -4.99260350E-05
  -8.20000004E-03  -5.12040788E-05
  -8.15000013E-03  -5.25122596E-05
  -8.10000021E-03  -5.38307577E-05
  -8.05000030E-03  -5.51482590E-05
  -8.00000038E-03  -5.64673501E-05
  -7.95000046E-03  -5.78034997E-05
  -7.89999962E-03  -5.91784446E-05
  -7.84999970E-03  -6.06107678E-05
  -7.79999979E-03  -6.21079962E-05
  -7.74999987E-03  -6.36632903E-05
  -7.69999996E-03  -6.52588351E-05
  -7.65000004E-03  -6.68742287E-05
  -7.60000013E-03  -6.84959887E-05
  -7.55000021E-03  -7.01238823E-05
  -7.49999983E-03  -7.17711519E-05
  -7.44999992E-03  -7.34590794E-05
  -7.40000000E-03  -7.52078704E-05
  -7.35000009E-03  -7.70277184E-05
  -7.30000017E-03  -7.89144178E-05
  -7.24999979E-03  -8.08516925E-05
  -7.19999988E-03  -8.28191041E-05
  -7.14999996E-03  -8.48012060E-05
  -7.10000005E-03  -8.67947747E-05
  -7.05000013E-03  -8.88108771E-05
  -7.00000022E-03  -9.08700822E-05
  -6.94999984E-03  -9.29935923E-05
  -6.89999992E-03  -9.51936017E-05
  -6.85000001E-03  -9.74686554E-05
  -6.80000009E-03  -9.98048854E-05
  -6.75000018E-03  -1.02181686E-04
  -6.69999979E-03  -1.04581915E-04
  -6.64999988E-03  -1.07000065E-04
  -6.59999996E-03  -1.09444649E-04
  -6.55000005E-03  -1.11934540E-04
  -6.50000013E-03  -1.14491049E-04
  -6.45000022E-03  -1.17128766E-04
  -6.39999984E-03  -1.19849545E-04
  -6.34999992E-03  -1.22641708E-04
  -6.30000001E-03  -1.25485676E-04
  -6.25000009E-03  -1.28363128E-04
  -6.20000018E-03  -1.31265799E-04
  -6.14999980E-03  -1.34199639E-04
  -6.09999988E-03  -1.37181894E-04
  -6.04999997E-03  -1.40234275E-04
  -6.00000005E-03  -1.43373574E-04
  -5.95000014E-03  -1.46604114E-04
  -5.90000022E-03  -1.49916217E-04
  -5.84999984E-03  -1.53291228E-04
  -5.79999993E-03  -1.56710186E-04
  -5.75000001E-03  -1.60163167E-04
  -5.70000010E-03  -1.63653356E-04
  -5.65000018E-03  -1.67196034E-04
  -5.59999980E-03  -1.70812593E-04
  -5.54999989E-03  -1.74520916E-04
  -5.49999997E-03  -1.78327929E-04
  -5.45000006E-03  -1.82227028E-04
  -5.40000014E-03  -1.86201316E-04
  -5.35000023E-03  -1.90232036E-04
  -5.29999984E-03  -1.94306936E-04
  -5.24999993E-03  -1.98425958E-04
  -5.20000001E-03  -2.02602154E-04
  -5.15000010E-03  -2.06856421E-04
  -5.10000018E-03  -2.11208244E-04
  -5.04999980E-03  -2.15667314E-04
  -4.99999989E-03  -2.20230097E-04
  -4.94999997E-03  -2.24881980E-04
  -4.90000006E-03  -2.29603698E-04
  -4.85000014E-03  -2.34381150E-04
  -4.80000023E-03  -2.39211833E-04
  -4.74999985E-03  -2.44105948E-04
  -4.69999993E-03  -2.49083823E-04
  -4.65000002E-03  -2.54166254E-04
  -4.60000010E-03  -2.59365246E-04
  -4.55000019E-03  -2.64680071E-04
  -4.49999981E-03  -2.70098128E-04
  -4.44999989E-03  -2.75600731E-04
  -4.39999998E-03  -2.81172310E-04
  -4.35000006E-03  -2.86807190E-04
  -4.30000015E-03  -2.92513665E-04
  -4.25000023E-03  -2.98309984E-04
  -4.19999985E-03  -3.04216548E-04
  -4.14999994E-03  -3.10248346E-04
  -4.10000002E-03  -3.16408434E-04
  -4.05000011E-03  -3.22687119E-04
  -4.00000019E-03  -3.29066534E-04
  -3.94999981E-03  -3.35529854E-04
  -3.89999989E-03  -3.42068670E-04
  -3.84999998E-03  -3.48688191E-04
  -3.80000006E-03  -3.55404976E-04
  -3.74999992E-03  -3.62238818E-04
  -3.70000000E-03  -3.69207235E-04
  -3.65000009E-03  -3.76316719E-04
  -3.59999994E-03  -3.83561128E-04
  -3.55000002E-03  -3.90924222E-04
  -3.50000011E-03  -3.98387027E-04
  -3.44999996E-03  -4.05938219E-04
  -3.40000005E-03  -4.13579779E-04
  -3.34999990E-03  -4.21325531E-04
  -3.29999998E-03  -4.29194421E-04
  -3.25000007E-03  -4.37205919E-04
  -3.19999992E-03  -4.45369718E-04
  -3.15000000E-03  -4.53682063E-04
  -3.10000009E-03  -4.62129916E-04
  -3.04999994E-03  -4.70694591E-04
  -3.00000003E-03  -4.79362294E-04
  -2.95000011E-03  -4.88130725E-04
  -2.89999996E-03  -4.97009605E-04
  -2.85000005E-03  -5.06018347E-04
  -2.79999990E-03  -5.15176740E-04
  -2.74999999E-03  -5.24496834E-04
  -2.70000007E-03  -5.33978455E-04
  -2.64999992E-03  -5.43611124E-04
  -2.60000001E-03  -5.53377322E-04
  -2.55000009E-03  -5.63260692E-04
  -2.49999994E-03  -5.73255238E-04
  -2.45000003E-03  -5.83367364E-04
  -2.40000011E-03  -5.93614823E-04
  -2.34999997E-03  -6.04016706E-04
  -2.30000005E-03  -6.14588149E-04
  -2.24999990E-03  -6.25333574E-04
  -2.19999999E-03  -6.36244251E-04
  -2.15000007E-03  -6.47305278E-04
  -2.09999993E-03  -6.58500008E-04
  -2.05000001E-03  -6.69817382E-04
  -2.00000009E-03  -6.81257050E-04
  -1.94999995E-03  -6.92830945E-04
  -1.90000003E-03  -7.04559265E-04
  -1.85000000E-03  -7.16457726E-04
  -1.79999997E-03  -7.28535466E-04
  -1.75000005E-03  -7.40790972E-04
  -1.70000002E-03  -7.53210275E-04
  -1.64999999E-03  -7.65779172E-04
  -1.59999996E-03  -7.78485322E-04
  -1.55000004E-03  -7.91322207E-04
  -1.50000001E-03  -8.04296287E-04
  -1.44999998E-03  -8.17422464E-04
  -1.39999995E-03  -8.30716628E-04
  -1.35000004E-03  -8.44190712E-04
  -1.30000000E-03  -8.57847859E-04
  -1.24999997E-03  -8.71679746E-04
  -1.20000006E-03  -8.85672343E-04
  -1.15000003E-03  -8.99813254E-04
  -1.09999999E-03  -9.14092991E-04
  -1.04999996E-03  -9.28510097E-04
  -1.00000005E-03  -9.43074992E-04
  -9.50000016E-04  -9.57802578E-04
  -8.99999985E-04  -9.72705777E-04
  -8.50000011E-04  -9.87792504E-04
  -7.99999980E-04  -1.00306130E-03
  -7.50000007E-04  -1.01850205E-03
  -6.99999975E-04  -1.03409891E-03
  -6.50000002E-04  -1.04983686E-03
  -6.00000028E-04  -1.06570823E-03
  -5.49999997E-04  -1.08171755E-03
  -5.00000024E-04  -1.09787821E-03
  -4.49999992E-04  -1.11420872E-03
  -3.99999990E-04  -1.13072025E-03
  -3.49999988E-04  -1.14741339E-03
  -3.00000014E-04  -1.16428209E-03
  -2.50000012E-04  -1.18131342E-03
  -1.99999995E-04  -1.19848934E-03
  -1.50000007E-04  -1.21579634E-03
  -9.99999975E-05  -1.23323069E-03
  -4.99999987E-05  -1.25079823E-03
   0.00000000      -1.26851827E-03
   4.99999987E-05  -1.28640654E-03
   9.99999975E-05  -1.30447361E-03
   1.50000007E-04  -1.32272113E-03
   1.99999995E-04  -1.34113629E-03
   2.50000012E-04  -1.35969790E-03
   3.00000014E-04  -1.37837965E-03
   3.49999988E-04  -1.39716698E-03
   3.99999990E-04  -1.41606189E-03
   4.49999992E-04  -1.43508276E-03
   5.00000024E-04  -1.45425217E-03
   5.49999997E-04  -1.47358375E-03
   6.00000028E-04  -1.49308494E-03
   6.50000002E-04  -1.51275145E-03
   6.99999975E-04  -1.53256371E-03
   7.50000007E-04  -1.55248912E-03
   7.99999980E-04  -1.57250022E-03
   8.50000011E-04  -1.59259525E-03
   8.99999985E-04  -1.61278527E-03
   9.50000016E-04  -1.63308764E-03
   1.00000005E-03  -1.65352877E-03
   1.04999996E-03  -1.67412159E-03
   1.09999999E-03  -1.69486157E-03
   1.15000003E-03  -1.71573367E-03
   1.20000006E-03  -1.73670833E-03
   1.24999997E-03  -1.75775436E-03
   1.30000000E-03  -1.77885778E-03
   1.35000004E-03  -1.80002116E-03
   1.39999995E-03  -1.82125845E-03
   1.44999998E-03  -1.84259191E-03
   1.50000001E-03  -1.86404237E-03
   1.55000004E-03  -1.88561319E-03
   1.59999996E-03  -1.90728938E-03
   1.64999999E-03  -1.92904647E-03
   1.70000002E-03  -1.95084873E-03
   1.75000005E-03  -1.97267230E-03
   1.79999997E-03  -1.99450972E-03
   1.85000000E-03  -2.01637088E-03
   1.90000003E-03  -2.03828420E-03
   1.94999995E-03  -2.06028041E-03
   2.00000009E-03  -2.08236650E-03
   2.05000001E-03  -2.10452778E-03
   2.09999993E-03  -2.12674239E-03
   2.15000007E-03  -2.14897259E-03
   2.19999999E-03  -2.17117695E-03
   2.24999990E-03  -2.19333777E-03
   2.30000005E-03  -2.21545971E-03
   2.34999997E-03  -2.23757117E-03
   2.40000011E-03  -2.25970871E-03
   2.45000003E-03  -2.28189374E-03
   2.49999994E-03  -2.30412022E-03
   2.55000009E-03  -2.32636277E-03
   2.60000001E-03  -2.34858575E-03
   2.64999992E-03  -2.37073889E-03
   2.70000007E-03  -2.39278306E-03
   2.74999999E-03  -2.41471338E-03
   2.79999990E-03  -2.43655965E-03