  -3.99999991E-02   0.00000000    
  -3.99499983E-02   0.00000000    
  -3.99000011E-02   0.00000000    
  -3.98500003E-02   0.00000000    
  -3.97999994E-02   0.00000000    
  -3.97499986E-02   3.83274382E-23
  -3.97000015E-02   3.23070953E-22
  -3.96500006E-02   1.36705218E-21
  -3.95999998E-02   3.70862429E-21
  -3.95499989E-02   6.60231452E-21
  -3.95000018E-02   5.55537811E-21
  -3.94500010E-02  -9.99260918E-21
  -3.94000001E-02  -5.59376624E-20
  -3.93499993E-02  -1.46686148E-19
  -3.92999984E-02  -2.81989748E-19
  -3.92500013E-02  -4.32485179E-19
  -3.92000005E-02  -5.33691968E-19
  -3.91499996E-02  -4.97906584E-19
  -3.90999988E-02  -2.45277896E-19
  -3.90500017E-02   2.58631434E-19
  -3.90000008E-02   9.83733539E-19
  -3.89500000E-02   1.86011765E-18
  -3.88999991E-02   2.85461684E-18
  -3.88499983E-02   4.07638245E-18
  -3.88000011E-02   5.85965233E-18
  -3.87500003E-02   8.76521771E-18
  -3.86999995E-02   1.34706437E-17
  -3.86499986E-02   2.05773767E-17
  -3.86000015E-02   3.04249933E-17
  -3.85500006E-02   4.30318413E-17
  -3.84999998E-02   5.82488742E-17
  -3.84499989E-02   7.61175239E-17
  -3.84000018E-02   9.72983769E-17
  -3.83500010E-02   1.23348564E-16
  -3.83000001E-02   1.56635900E-16
  -3.82499993E-02   1.99812703E-16
  -3.81999984E-02   2.54991857E-16
  -3.81500013E-02   3.22969825E-16
  -3.81000005E-02   4.02909062E-16
  -3.80499996E-02   4.92753847E-16
  -3.79999988E-02   5.90340089E-16
  -3.79500017E-02   6.94799210E-16
  -3.79000008E-02   8.07626592E-16
  -3.78500000E-02   9.32827962E-16
  -3.77999991E-02   1.07590019E-15
  -3.77499983E-02   1.24192797E-15
  -3.77000012E-02   1.43355371E-15
  -3.76500003E-02   1.64975262E-15
  -3.75999995E-02   1.88608572E-15
  -3.75499986E-02   2.13645469E-15
  -3.75000015E-02   2.39564592E-15
  -3.74500006E-02   2.66145714E-15
  -3.73999998E-02   2.93526245E-15
  -3.73499990E-02   3.22050460E-15
  -3.73000018E-02   3.51953561E-15
  -3.72500010E-02   3.83008266E-15
  -3.72000001E-02   4.14291607E-15
  -3.71499993E-02   4.44191108E-15
  -3.70999984E-02   4.70674228E-15
  -3.70500013E-02   4.91728630E-15
  -3.70000005E-02   5.05802421E-15
  -3.69499996E-02   5.12065340E-15
  -3.68999988E-02   5.10381227E-15
  -3.68500017E-02   5.01002455E-15
  -3.68000008E-02   4.84104994E-15
  -3.67500000E-02   4.59341563E-15
  -3.66999991E-02   4.25566336E-15
  -3.66499983E-02   3.80808141E-15
  -3.66000012E-02   3.22477153E-15
  -3.65500003E-02   2.47716585E-15
  -3.64999995E-02   1.53789102E-15
  -3.64499986E-02   3.83931951E-16
  -3.64000015E-02  -1.00162694E-15
  -3.63500006E-02  -2.62973682E-15
  -3.62999998E-02  -4.50750828E-15
  -3.62499990E-02  -6.64199107E-15
  -3.62000018E-02  -9.04455090E-15
  -3.61500010E-02  -1.17339559E-14
  -3.61000001E-02  -1.47357712E-14
  -3.60499993E-02  -1.80761642E-14
  -3.59999985E-02  -2.17701477E-14
  -3.59500013E-02  -2.58073948E-14
  -3.59000005E-02  -3.01416166E-14
  -3.58499996E-02  -3.46904614E-14
  -3.57999988E-02  -3.93503115E-14
  -3.57500017E-02  -4.40244053E-14
  -3.57000008E-02  -4.86553004E-14
  -3.56500000E-02  -5.32474726E-14
  -3.55999991E-02  -5.78661874E-14
  -3.55499983E-02  -6.26064887E-14
  -3.55000012E-02  -6.75389988E-14
  -3.54500003E-02  -7.26526519E-14
  -3.53999995E-02  -7.78207793E-14
  -3.53499986E-02  -8.28120260E-14
  -3.53000015E-02  -8.73502253E-14
  -3.52500007E-02  -9.12039202E-14
  -3.51999998E-02  -9.42672454E-14
  -3.51499990E-02  -9.65901418E-14
  -3.51000018E-02  -9.83327799E-14
  -3.50500010E-02  -9.96519084E-14
  -3.50000001E-02  -1.00563126E-13
  -3.49499993E-02  -1.00844172E-13
  -3.48999985E-02  -1.00037031E-13
  -3.48500013E-02  -9.75687833E-14
  -3.48000005E-02  -9.29559300E-14
  -3.47499996E-02  -8.60087080E-14
  -3.46999988E-02  -7.69355960E-14
  -3.46500017E-02  -6.62799012E-14
  -3.46000008E-02  -5.46897800E-14
  -3.45500000E-02  -4.26057640E-14
  -3.44999991E-02  -3.00039602E-14
  -3.44499983E-02  -1.63289961E-14
  -3.44000012E-02  -6.79337364E-16
  -3.43500003E-02   1.78059844E-14
  -3.42999995E-02   3.95169771E-14
  -3.42499986E-02   6.41021117E-14
  -3.42000015E-02   9.05139136E-14
  -3.41500007E-02   1.17395595E-13
  -3.40999998E-02   1.43669893E-13
  -3.40499990E-02   1.69070798E-13
  -3.40000018E-02   1.94347996E-13
  -3.39500010E-02   2.20993457E-13
  -3.39000002E-02   2.50551180E-13
  -3.38499993E-02   2.83783657E-13
  -3.37999985E-02   3.20077786E-13
  -3.37500013E-02   3.57411258E-13
  -3.37000005E-02   3.92974932E-13
  -3.36499996E-02   4.24242211E-13
  -3.35999988E-02   4.50034189E-13
  -3.35500017E-02   4.71070990E-13
  -3.35000008E-02   4.89682513E-13
  -3.34500000E-02   5.08713893E-13
  -3.33999991E-02   5.30052998E-13
  -3.33499983E-02   5.53442546E-13
  -3.33000012E-02   5.76183632E-13
  -3.32500003E-02   5.93981515E-13
  -3.31999995E-02   6.02665921E-13
  -3.31499986E-02   6.00063510E-13
  -3.31000015E-02   5.87141663E-13
  -3.30500007E-02   5.67787516E-13
  -3.29999998E-02   5.47168376E-13
  -3.29499990E-02   5.29289611E-13
  -3.29000019E-02   5.14827113E-13
  -3.28500010E-02   5.00297449E-13
  -3.28000002E-02   4.79113656E-13
  -3.27499993E-02   4.44233951E-13
  -3.26999985E-02   3.91320331E-13
  -3.26500013E-02   3.20966181E-13
  -3.26000005E-02   2.38841526E-13
  -3.25499997E-02   1.53476027E-13
  -3.24999988E-02   7.24960388E-14
  -3.24500017E-02  -1.04892706E-15
  -3.24000008E-02  -7.05115762E-14
  -3.23500000E-02  -1.44568100E-13
  -3.22999991E-02  -2.33456131E-13
  -3.22499983E-02  -3.44051339E-13
  -3.22000012E-02  -4.76009369E-13
  -3.21500003E-02  -6.20914724E-13
  -3.20999995E-02  -7.65143157E-13
  -3.20499986E-02  -8.95449405E-13
  -3.20000015E-02  -1.00490525E-12
  -3.19500007E-02  -1.09641994E-12
  -3.18999998E-02  -1.18195276E-12
  -3.18499990E-02  -1.27739009E-12
  -3.18000019E-02  -1.39509845E-12
  -3.17500010E-02  -1.53744866E-12
  -3.17000002E-02  -1.69444157E-12
  -3.16499993E-02  -1.84691346E-12
  -3.15999985E-02  -1.97429811E-12
  -3.15500014E-02  -2.06369036E-12
  -3.15000005E-02  -2.11605603E-12
  -3.14499997E-02  -2.14643060E-12
  -3.13999988E-02  -2.17750601E-12
  -3.13500017E-02  -2.22907023E-12
  -3.13000008E-02  -2.30792490E-12
  -3.12500000E-02  -2.40306950E-12
  -3.11999992E-02  -2.48885808E-12
  -3.11500002E-02  -2.53531397E-12
  -3.10999993E-02  -2.52135704E-12
  -3.10500003E-02  -2.44498627E-12
  -3.09999995E-02  -2.32541070E-12
  -3.09500005E-02  -2.19549682E-12
  -3.08999997E-02  -2.08730494E-12
  -3.08500007E-02  -2.01693350E-12
  -3.07999998E-02  -1.97569934E-12
  -3.07500008E-02  -1.93223974E-12
  -3.07000000E-02  -1.84536869E-12
  -3.06499992E-02  -1.68247848E-12
  -3.06000002E-02  -1.43530023E-12
  -3.05499993E-02  -1.12547417E-12
  -3.05000003E-02  -7.96594019E-13
  -3.04499995E-02  -4.95470039E-13
  -3.04000005E-02  -2.50588829E-13
  -3.03499997E-02  -5.76320269E-14
  -3.03000007E-02   1.20677380E-13
  -3.02499998E-02   3.39301314E-13
  -3.02000009E-02   6.46199782E-13
  -3.01500000E-02   1.05905443E-12
  -3.00999992E-02   1.55431570E-12
  -3.00500002E-02   2.07450853E-12
  -2.99999993E-02   2.55163902E-12
  -2.99500003E-02   2.93693000E-12
  -2.98999995E-02   3.22352171E-12
  -2.98500005E-02   3.45116600E-12
  -2.97999997E-02   3.68959767E-12
  -2.97500007E-02   4.00693758E-12
  -2.96999998E-02   4.43683978E-12
  -2.96500009E-02   4.95953929E-12
  -2.96000000E-02   5.50646594E-12
  -2.95499992E-02   5.98776063E-12
  -2.95000002E-02   6.33137943E-12
  -2.94499993E-02   6.51639073E-12
  -2.94000003E-02   6.58470847E-12
  -2.93499995E-02   6.62451604E-12
  -2.93000005E-02   6.73133294E-12
  -2.92499997E-02   6.96336608E-12
  -2.92000007E-02   7.31142490E-12
  -2.91499998E-02   7.69812859E-12
  -2.91000009E-02   8.00848537E-12
  -2.90500000E-02   8.13953679E-12
  -2.89999992E-02   8.04729720E-12
  -2.89500002E-02   7.76921322E-12
  -2.88999993E-02   7.41045419E-12
  -2.88500004E-02   7.09837137E-12
  -2.87999995E-02   6.92437167E-12
  -2.87500005E-02   6.89930274E-12
  -2.86999997E-02   6.94364097E-12
  -2.86500007E-02   6.91888343E-12
  -2.85999998E-02   6.68790327E-12
  -2.85500009E-02   6.17805720E-12
  -2.85000000E-02   5.41814336E-12
  -2.84499992E-02   4.53085312E-12
  -2.84000002E-02   3.68182655E-12
  -2.83499993E-02   3.00644384E-12
  -2.83000004E-02   2.54679329E-12
  -2.82499995E-02   2.22823886E-12
  -2.82000005E-02   1.88832435E-12
  -2.81499997E-02   1.34738520E-12
  -2.81000007E-02   4.90596984E-13
  -2.80499998E-02  -6.75549081E-13
  -2.80000009E-02  -2.01941263E-12
  -2.79500000E-02  -3.33728748E-12
  -2.78999992E-02  -4.44180023E-12
  -2.78500002E-02  -5.24683985E-12
  -2.77999993E-02  -5.80999355E-12
  -2.77500004E-02  -6.31108620E-12
  -2.76999995E-02  -6.97368508E-12
  -2.76500005E-02  -7.96281097E-12
  -2.75999997E-02  -9.30453718E-12
  -2.75500007E-02  -1.08652124E-11
  -2.74999999E-02  -1.24025417E-11
  -2.74500009E-02  -1.36684665E-11
  -2.74000000E-02  -1.45192669E-11
  -2.73499992E-02  -1.49830582E-11
  -2.73000002E-02  -1.52520514E-11
  -2.72499993E-02  -1.55999137E-11
  -2.72000004E-02  -1.62586351E-11
  -2.71499995E-02  -1.73092547E-11
  -2.71000005E-02  -1.86367744E-11
  -2.70499997E-02  -1.99724230E-11
  -2.70000007E-02  -2.10076349E-11
  -2.69499999E-02  -2.15308396E-11
  -2.69000009E-02  -2.15257135E-11
  -2.68500000E-02  -2.11846738E-11
  -2.67999992E-02  -2.08280043E-11
  -2.67500002E-02  -2.07615765E-11
  -2.66999993E-02  -2.11353990E-11
  -2.66500004E-02  -2.18672563E-11
  -2.65999995E-02  -2.26687263E-11
  -2.65500005E-02  -2.31658304E-11
  -2.64999997E-02  -2.30632666E-11
  -2.64500007E-02  -2.22794890E-11
  -2.63999999E-02  -2.09902876E-11
  -2.63500009E-02  -1.95576645E-11
  -2.63000000E-02  -1.83719272E-11
  -2.62499992E-02  -1.76752744E-11
  -2.62000002E-02  -1.74460689E-11
  -2.61499994E-02  -1.73983900E-11
  -2.61000004E-02  -1.71012891E-11
  -2.60499995E-02  -1.61680912E-11
  -2.60000005E-02  -1.44326235E-11
  -2.59499997E-02  -1.20322112E-11
  -2.59000007E-02  -9.35656674E-12
  -2.58499999E-02  -6.88095978E-12
  -2.58000009E-02  -4.95497827E-12
  -2.57500000E-02  -3.64080380E-12
  -2.56999992E-02  -2.67576608E-12
  -2.56500002E-02  -1.58043251E-12
  -2.55999994E-02   1.31527791E-13
  -2.55500004E-02   2.73286949E-12
  -2.54999995E-02   6.15071882E-12
  -2.54500005E-02   9.98538925E-12
  -2.53999997E-02   1.36765521E-11
  -2.53500007E-02   1.67467186E-11
  -2.52999999E-02   1.90148123E-11
  -2.52500009E-02   2.06827177E-11
  -2.52000000E-02   2.22517040E-11
  -2.51499992E-02   2.43010091E-11
  -2.51000002E-02   2.72239210E-11
  -2.50499994E-02   3.10388798E-11
  -2.50000004E-02   3.53630736E-11
  -2.49499995E-02   3.95655730E-11
  -2.49000005E-02   4.30367443E-11
  -2.48499997E-02   4.54564476E-11
  -2.48000007E-02   4.69403821E-11
  -2.47499999E-02   4.79950038E-11
  -2.47000009E-02   4.92954705E-11
  -2.46500000E-02   5.13809099E-11
  -2.45999992E-02   5.44013827E-11
  -2.45500002E-02   5.80317287E-11
  -2.44999994E-02   6.15958326E-11
  -2.44500004E-02   6.43518572E-11
  -2.43999995E-02   6.58150132E-11
  -2.43500005E-02   6.59742677E-11
  -2.42999997E-02   6.53026175E-11
  -2.42500007E-02   6.45503997E-11
  -2.41999999E-02   6.44082843E-11
  -2.41500009E-02   6.51872722E-11
  -2.41000000E-02   6.66599137E-11
  -2.40499992E-02   6.81385434E-11
  -2.40000002E-02   6.87623292E-11
  -2.39499994E-02   6.78704315E-11
  -2.39000004E-02   6.52966015E-11
  -2.38499995E-02   6.14511844E-11
  -2.38000005E-02   5.71479079E-11
  -2.37499997E-02   5.32460603E-11
  -2.37000007E-02   5.02631756E-11
  -2.36499999E-02   4.81307598E-11
  -2.36000009E-02   4.62062784E-11
  -2.35500000E-02   4.35428117E-11
  -2.34999992E-02   3.93026722E-11
  -2.34500002E-02   3.31336937E-11
  -2.33999994E-02   2.53390416E-11
  -2.33500004E-02   1.67591826E-11
  -2.32999995E-02   8.41137490E-12
  -2.32500006E-02   1.04178222E-12
  -2.31999997E-02  -5.21172732E-12
  -2.31500007E-02  -1.08923096E-11
  -2.30999999E-02  -1.69929869E-11
  -2.30500009E-02  -2.45170915E-11
  -2.30000000E-02  -3.40213968E-11
  -2.29499992E-02  -4.53455710E-11
  -2.29000002E-02  -5.76535972E-11
  -2.28499994E-02  -6.97763999E-11
  -2.28000004E-02  -8.07102371E-11
  -2.27499995E-02  -9.00520492E-11
  -2.27000006E-02  -9.81759882E-11
  -2.26499997E-02  -1.06065941E-10
  -2.26000007E-02  -1.14870634E-10
  -2.25499999E-02  -1.25373309E-10
  -2.25000009E-02  -1.37610770E-10
  -2.24500000E-02  -1.50815582E-10
  -2.23999992E-02  -1.63714903E-10
  -2.23500002E-02  -1.75061118E-10
  -2.22999994E-02  -1.84162741E-10
  -2.22500004E-02  -1.91178809E-10
  -2.21999995E-02  -1.97039496E-10
  -2.21500006E-02  -2.03019893E-10
  -2.20999997E-02  -2.10148982E-10
  -2.20500007E-02  -2.18713478E-10
  -2.19999999E-02  -2.28080416E-10
  -2.19500009E-02  -2.36924647E-10
  -2.19000001E-02  -2.43769088E-10
  -2.18499992E-02  -2.47604048E-10
  -2.18000002E-02  -2.48311344E-10
  -2.17499994E-02  -2.46699883E-10
  -2.17000004E-02  -2.44129050E-10
  -2.16499995E-02  -2.41878489E-10
  -2.16000006E-02  -2.40540893E-10
  -2.15499997E-02  -2.39708781E-10
  -2.15000007E-02  -2.38101566E-10
  -2.14499999E-02  -2.34086250E-10
  -2.14000009E-02  -2.26367425E-10
  -2.13500001E-02  -2.14543452E-10
  -2.12999992E-02  -1.99277803E-10
  -2.12500002E-02  -1.82001553E-10
  -2.11999994E-02  -1.64270070E-10
  -2.11500004E-02  -1.47053827E-10
  -2.10999995E-02  -1.30278205E-10
  -2.10500006E-02  -1.12822529E-10
  -2.09999997E-02  -9.29884156E-11
  -2.09500007E-02  -6.92379279E-11
  -2.08999999E-02  -4.08785991E-11
  -2.08500009E-02  -8.38922248E-12
  -2.08000001E-02   2.67651006E-11
  -2.07499992E-02   6.27557312E-11
  -2.07000002E-02   9.81813866E-11
  -2.06499994E-02   1.32677661E-10
  -2.06000004E-02   1.67069608E-10
  -2.05499995E-02   2.02991041E-10
  -2.05000006E-02   2.42129761E-10
  -2.04499997E-02   2.85427876E-10
  -2.04000007E-02   3.32593175E-10
  -2.03499999E-02   3.82143622E-10
  -2.03000009E-02   4.31976149E-10
  -2.02500001E-02   4.80214424E-10
  -2.01999992E-02   5.25963995E-10
  -2.01500002E-02   5.69636838E-10
  -2.00999994E-02   6.12693341E-10
  -2.00500004E-02   6.56907251E-10
  -1.99999996E-02   7.03472058E-10
  -1.99500006E-02   7.52344409E-10
  -1.98999997E-02   8.02120315E-10
  -1.98500007E-02   8.50506998E-10
  -1.97999999E-02   8.95190533E-10
  -1.97500009E-02   9.34718303E-10
  -1.97000001E-02   9.69004765E-10
  -1.96499992E-02   9.99228145E-10
  -1.96000002E-02   1.02715692E-09
  -1.95499994E-02   1.05419540E-09
  -1.95000004E-02   1.08056986E-09
  -1.94499996E-02   1.10502096E-09
  -1.94000006E-02   1.12514420E-09
  -1.93499997E-02   1.13823928E-09
  -1.93000007E-02   1.14229703E-09
  -1.92499999E-02   1.13668830E-09
  -1.92000009E-02   1.12224396E-09
  -1.91500001E-02   1.10068454E-09
  -1.90999992E-02   1.07364273E-09
  -1.90500002E-02   1.04171127E-09
  -1.89999994E-02   1.00393660E-09
  -1.89500004E-02   9.57992574E-10
  -1.88999996E-02   9.00963137E-10
  -1.88500006E-02   8.30394975E-10
  -1.87999997E-02   7.45155659E-10
  -1.87500007E-02   6.45713483E-10
  -1.86999999E-02   5.33709077E-10
  -1.86500009E-02   4.11000428E-10
  -1.86000001E-02   2.78600837E-10
  -1.85499992E-02   1.35980366E-10
  -1.85000002E-02  -1.89540363E-11
  -1.84499994E-02  -1.89183863E-10
  -1.84000004E-02  -3.77499865E-10
  -1.83499996E-02  -5.85494042E-10
  -1.83000006E-02  -8.13068723E-10
  -1.82499997E-02  -1.05868592E-09
  -1.82000007E-02  -1.32025235E-09
  -1.81499999E-02  -1.59625269E-09
  -1.81000009E-02  -1.88663130E-09
  -1.80500001E-02  -2.19302732E-09
  -1.79999992E-02  -2.51825538E-09
  -1.79500002E-02  -2.86525470E-09
  -1.78999994E-02  -3.23596816E-09
  -1.78500004E-02  -3.63064756E-09
  -1.77999996E-02  -4.04789802E-09
  -1.77500006E-02  -4.48544490E-09
  -1.76999997E-02  -4.94129004E-09
  -1.76500008E-02  -5.41474643E-09
  -1.75999999E-02  -5.90689675E-09
  -1.75500009E-02  -6.42026032E-09
  -1.75000001E-02  -6.95781921E-09
  -1.74499992E-02  -7.52182494E-09
  -1.74000002E-02  -8.11291390E-09
  -1.73499994E-02  -8.72992434E-09
  -1.73000004E-02  -9.37049993E-09
  -1.72499996E-02  -1.00322159E-08
  -1.72000006E-02  -1.07137330E-08
  -1.71499997E-02  -1.14154650E-08
  -1.71000008E-02  -1.21394752E-08
  -1.70499999E-02  -1.28886288E-08
  -1.70000009E-02  -1.36653888E-08
  -1.69500001E-02  -1.44707721E-08
  -1.68999992E-02  -1.53039483E-08
  -1.68500002E-02  -1.61626392E-08
  -1.67999994E-02  -1.70441705E-08
  -1.67500004E-02  -1.79466806E-08
  -1.66999996E-02  -1.88699989E-08
  -1.66500006E-02  -1.98157633E-08
  -1.65999997E-02  -2.07867483E-08
  -1.65500008E-02  -2.17856932E-08
  -1.64999999E-02  -2.28141559E-08
  -1.64500009E-02  -2.38718592E-08
  -1.64000001E-02  -2.49568917E-08
  -1.63499992E-02  -2.60665995E-08
  -1.63000003E-02  -2.71988210E-08
  -1.62499994E-02  -2.83529200E-08
  -1.62000004E-02  -2.95301419E-08
  -1.61499996E-02  -3.07331582E-08
  -1.61000006E-02  -3.19649942E-08
  -1.60499997E-02  -3.32278134E-08
  -1.60000008E-02  -3.45220847E-08
  -1.59499999E-02  -3.58465329E-08
  -1.59000009E-02  -3.71988520E-08
  -1.58500001E-02  -3.85768999E-08
  -1.57999992E-02  -3.99798274E-08
  -1.57500003E-02  -4.14086756E-08
  -1.56999994E-02  -4.28661302E-08
  -1.56500004E-02  -4.43556196E-08
  -1.55999996E-02  -4.58800713E-08
  -1.55499997E-02  -4.74409489E-08
  -1.54999997E-02  -4.90379257E-08
  -1.54499998E-02  -5.06693745E-08
  -1.53999999E-02  -5.23334869E-08
  -1.53500000E-02  -5.40294067E-08
  -1.53000001E-02  -5.57580648E-08
  -1.52500002E-02  -5.75221755E-08
  -1.52000003E-02  -5.93255152E-08
  -1.51500003E-02  -6.11717610E-08
  -1.51000004E-02  -6.30634247E-08
  -1.50499996E-02  -6.50012737E-08
  -1.49999997E-02  -6.69846401E-08
  -1.49499997E-02  -6.90122803E-08
  -1.48999998E-02  -7.10836474E-08
  -1.48499999E-02  -7.31997361E-08
  -1.48000000E-02  -7.53633884E-08
  -1.47500001E-02  -7.75787825E-08
  -1.47000002E-02  -7.98503947E-08
  -1.46500003E-02  -8.21818347E-08
  -1.46000003E-02  -8.45751558E-08
  -1.45500004E-02  -8.70308483E-08
  -1.44999996E-02  -8.95485286E-08
  -1.44499997E-02  -9.21280616E-08
  -1.43999998E-02  -9.47705772E-08
  -1.43499998E-02  -9.74790098E-08
  -1.42999999E-02  -1.00257758E-07
  -1.42500000E-02  -1.03111873E-07
  -1.42000001E-02  -1.06045931E-07
  -1.41500002E-02  -1.09063194E-07
  -1.41000003E-02  -1.12165303E-07
  -1.40500003E-02  -1.15352840E-07
  -1.40000004E-02  -1.18626239E-07
  -1.39499996E-02  -1.21986872E-07
  -1.38999997E-02  -1.25437694E-07
  -1.38499998E-02  -1.28983302E-07
  -1.37999998E-02  -1.32629182E-07
  -1.37499999E-02  -1.36380777E-07
  -1.37000000E-02  -1.40242506E-07
  -1.36500001E-02  -1.44217239E-07
  -1.36000002E-02  -1.48306611E-07
  -1.35500003E-02  -1.52511760E-07
  -1.35000004E-02  -1.56834346E-07
  -1.34500004E-02  -1.61277342E-07
  -1.33999996E-02  -1.65845279E-07
  -1.33499997E-02  -1.70543899E-07
  -1.32999998E-02  -1.75379142E-07
  -1.32499998E-02  -1.80356338E-07
  -1.31999999E-02  -1.85479536E-07
  -1.31500000E-02  -1.90751408E-07
  -1.31000001E-02  -1.96173843E-07
  -1.30500002E-02  -2.01748975E-07
  -1.30000003E-02  -2.07479829E-07
  -1.29500004E-02  -2.13370910E-07
  -1.29000004E-02  -2.19428046E-07
  -1.28499996E-02  -2.25657686E-07
  -1.27999997E-02  -2.32066057E-07
  -1.27499998E-02  -2.38658288E-07
  -1.26999998E-02  -2.45438287E-07
  -1.26499999E-02  -2.52408938E-07
  -1.26000000E-02  -2.59572886E-07
  -1.25500001E-02  -2.66933455E-07
  -1.25000002E-02  -2.74495051E-07
  -1.24500003E-02  -2.82263557E-07
  -1.24000004E-02  -2.90245708E-07
  -1.23500004E-02  -2.98448413E-07
  -1.22999996E-02  -3.06877894E-07
  -1.22499997E-02  -3.15539296E-07
  -1.21999998E-02  -3.24436598E-07
  -1.21499998E-02  -3.33573240E-07
  -1.20999999E-02  -3.42953001E-07
  -1.20500000E-02  -3.52580514E-07
  -1.20000001E-02  -3.62461776E-07
  -1.19500002E-02  -3.72603921E-07
  -1.19000003E-02  -3.83014566E-07
  -1.18500004E-02  -3.93701271E-07
  -1.18000004E-02  -4.04670629E-07
  -1.17499996E-02  -4.15928270E-07
  -1.16999997E-02  -4.27479051E-07
  -1.16499998E-02  -4.39327636E-07
  -1.15999999E-02  -4.51479309E-07
  -1.15499999E-02  -4.63940523E-07
  -1.15000000E-02  -4.76718924E-07
  -1.14500001E-02  -4.89822980E-07
  -1.14000002E-02  -5.03261560E-07
  -1.13500003E-02  -5.17042793E-07
  -1.13000004E-02  -5.31174067E-07
  -1.12500004E-02  -5.45661862E-07
  -1.11999996E-02  -5.60512149E-07
  -1.11499997E-02  -5.75731349E-07
  -1.10999998E-02  -5.91326625E-07
  -1.10499999E-02  -6.07306333E-07
  -1.09999999E-02  -6.23680251E-07
  -1.09500000E-02  -6.40458779E-07
  -1.09000001E-02  -6.57652208E-07
  -1.08500002E-02  -6.75270542E-07
  -1.08000003E-02  -6.93322534E-07
  -1.07500004E-02  -7.11816313E-07
  -1.07000005E-02  -7.30759837E-07
  -1.06499996E-02  -7.50161576E-07
  -1.05999997E-02  -7.70030908E-07
  -1.05499998E-02  -7.90378749E-07
  -1.04999999E-02  -8.11217092E-07
  -1.04499999E-02  -8.32558158E-07
  -1.04000000E-02  -8.54414111E-07
  -1.03500001E-02  -8.76796378E-07
  -1.03000002E-02  -8.99715133E-07
  -1.02500003E-02  -9.23180266E-07
  -1.02000004E-02  -9.47201784E-07
  -1.01500005E-02  -9.71790769E-07
  -1.00999996E-02  -9.96959557E-07
  -1.00499997E-02  -1.02272224E-06
  -9.99999978E-03  -1.04909338E-06
  -9.94999986E-03  -1.07608821E-06
  -9.89999995E-03  -1.10372093E-06
  -9.85000003E-03  -1.13200497E-06
  -9.80000012E-03  -1.16095293E-06
  -9.75000020E-03  -1.19057700E-06
  -9.70000029E-03  -1.22089034E-06
  -9.65000037E-03  -1.25190684E-06
  -9.60000046E-03  -1.28364240E-06
  -9.54999961E-03  -1.31611421E-06
  -9.49999969E-03  -1.34933975E-06
  -9.44999978E-03  -1.38333655E-06
  -9.39999986E-03  -1.41812086E-06
  -9.34999995E-03  -1.45370780E-06
  -9.30000003E-03  -1.49011191E-06
  -9.25000012E-03  -1.52734765E-06
  -9.20000020E-03  -1.56543103E-06
  -9.15000029E-03  -1.60437958E-06
  -9.10000037E-03  -1.64421294E-06
  -9.05000046E-03  -1.68495160E-06
  -8.99999961E-03  -1.72661635E-06
  -8.94999970E-03  -1.76922708E-06
  -8.89999978E-03  -1.81280222E-06
  -8.84999987E-03  -1.85735928E-06
  -8.79999995E-03  -1.90291564E-06
  -8.75000004E-03  -1.94948984E-06
  -8.70000012E-03  -1.99710166E-06
  -8.65000021E-03  -2.04577373E-06
  -8.60000029E-03  -2.09552923E-06
  -8.55000038E-03  -2.14639272E-06
  -8.50000046E-03  -2.19838694E-06
  -8.44999962E-03  -2.25153394E-06
  -8.39999970E-03  -2.30585420E-06
  -8.34999979E-03  -2.36136793E-06
  -8.29999987E-03  -2.41809494E-06
  -8.24999996E-03  -2.47605794E-06
  -8.20000004E-03  -2.53528060E-06
  -8.15000013E-03  -2.59578997E-06
  -8.10000021E-03  -2.65761241E-06
  -8.05000030E-03  -2.72077546E-06
  -8.00000038E-03  -2.78530433E-06
  -7.95000046E-03  -2.85122360E-06
  -7.89999962E-03  -2.91855554E-06
  -7.84999970E-03  -2.98732380E-06
  -7.79999979E-03  -3.05755293E-06
  -7.74999987E-03  -3.12927045E-06
  -7.69999996E-03  -3.20250570E-06
  -7.65000004E-03  -3.27729003E-06
  -7.60000013E-03  -3.35365485E-06
  -7.55000021E-03  -3.43163015E-06
  -7.49999983E-03  -3.51124390E-06
  -7.44999992E-03  -3.59252249E-06
  -7.40000000E-03  -3.67549205E-06
  -7.35000009E-03  -3.76017920E-06
  -7.30000017E-03  -3.84661462E-06
  -7.24999979E-03  -3.93483060E-06
  -7.19999988E-03  -4.02486239E-06
  -7.14999996E-03  -4.11674591E-06
  -7.10000005E-03  -4.21051436E-06
  -7.05000013E-03  -4.30620003E-06
  -7.00000022E-03  -4.40383337E-06
  -6.94999984E-03  -4.50344260E-06
  -6.89999992E-03  -4.60505862E-06
  -6.85000001E-03  -4.70871328E-06
  -6.80000009E-03  -4.81444340E-06
  -6.75000018E-03  -4.92228764E-06
  -6.69999979E-03  -5.03228603E-06
  -6.64999988E-03  -5.14447811E-06
  -6.59999996E-03  -5.25889982E-06
  -6.55000005E-03  -5.37558617E-06
  -6.50000013E-03  -5.49456945E-06
  -6.45000022E-03  -5.61588422E-06
  -6.39999984E-03  -5.73956549E-06
  -6.34999992E-03  -5.86565284E-06
  -6.30000001E-03  -5.99419081E-06
  -6.25000009E-03  -6.12522354E-06
  -6.20000018E-03  -6.25879466E-06
  -6.14999980E-03  -6.39494556E-06
  -6.09999988E-03  -6.53371490E-06
  -6.04999997E-03  -6.67513814E-06
  -6.00000005E-03  -6.81925258E-06
  -5.95000014E-03  -6.96609732E-06
  -5.90000022E-03  -7.11571556E-06
  -5.84999984E-03  -7.26815324E-06
  -5.79999993E-03  -7.42345946E-06
  -5.75000001E-03  -7.58168289E-06
  -5.70000010E-03  -7.74286855E-06
  -5.65000018E-03  -7.90706054E-06
  -5.59999980E-03  -8.07429842E-06
  -5.54999989E-03  -8.24462131E-06
  -5.49999997E-03  -8.41807196E-06
  -5.45000006E-03  -8.59469583E-06
  -5.40000014E-03  -8.77454477E-06
  -5.35000023E-03  -8.95767062E-06
  -5.29999984E-03  -9.14412522E-06
  -5.24999993E-03  -9.33396132E-06
  -5.20000001E-03  -9.52722348E-06
  -5.15000010E-03  -9.72395628E-06
  -5.10000018E-03  -9.92420337E-06
  -5.04999980E-03  -1.01280102E-05
  -4.99999989E-03  -1.03354232E-05
  -4.94999997E-03  -1.05464969E-05
  -4.90000006E-03  -1.07612859E-05
  -4.85000014E-03  -1.09798475E-05
  -4.80000023E-03  -1.12022344E-05
  -4.74999985E-03  -1.14284985E-05
  -4.69999993E-03  -1.16586843E-05
  -4.65000002E-03  -1.18928383E-05
  -4.60000010E-03  -1.21310077E-05
  -4.55000019E-03  -1.23732398E-05
  -4.49999981E-03  -1.26195919E-05
  -4.44999989E-03  -1.28701222E-05
  -4.39999998E-03  -1.31248898E-05
  -4.35000006E-03  -1.33839512E-05
  -4.30000015E-03  -1.36473618E-05
  -4.25000023E-03  -1.39151698E-05
  -4.19999985E-03  -1.41874216E-05
  -4.14999994E-03  -1.44641645E-05
  -4.10000002E-03  -1.47454502E-05
  -4.05000011E-03  -1.50313335E-05
  -4.00000019E-03  -1.53218771E-05
  -3.94999981E-03  -1.56171427E-05
  -3.89999989E-03  -1.59171905E-05
  -3.84999998E-03  -1.62220767E-05
  -3.80000006E-03  -1.65318488E-05
  -3.74999992E-03  -1.68465540E-05
  -3.70000000E-03  -1.71662414E-05
  -3.65000009E-03  -1.74909583E-05
  -3.59999994E-03  -1.78207647E-05
  -3.55000002E-03  -1.81557189E-05
  -3.50000011E-03  -1.84958808E-05
  -3.44999996E-03  -1.88413160E-05
  -3.40000005E-03  -1.91920790E-05
  -3.34999990E-03  -1.95482244E-05
  -3.29999998E-03  -1.99097940E-05
  -3.25000007E-03  -2.02768388E-05
  -3.19999992E-03  -2.06494042E-05
  -3.15000000E-03  -2.10275466E-05
  -3.10000009E-03  -2.14113243E-05
  -3.04999994E-03  -2.18008045E-05
  -3.00000003E-03  -2.21960436E-05
  -2.95000011E-03  -2.25971016E-05
  -2.89999996E-03  -2.30040314E-05
  -2.85000005E-03  -2.34168747E-05
  -2.79999990E-03  -2.38356770E-05
  -2.74999999E-03  -2.42604820E-05
  -2.70000007E-03  -2.46913423E-05
  -2.64999992E-03  -2.51283145E-05
  -2.60000001E-03  -2.55714640E-05
  -2.55000009E-03  -2.60208471E-05
  -2.49999994E-03  -2.64765185E-05
  -2.45000003E-03  -2.69385291E-05
  -2.40000011E-03  -2.74069225E-05
  -2.34999997E-03  -2.78817388E-05
  -2.30000005E-03  -2.83630197E-05
  -2.24999990E-03  -2.88508072E-05
  -2.19999999E-03  -2.93451558E-05
  -2.15000007E-03  -2.98461218E-05
  -2.09999993E-03  -3.03537672E-05
  -2.05000001E-03  -3.08681483E-05
  -2.00000009E-03  -3.13893070E-05
  -1.94999995E-03  -3.19172832E-05
  -1.90000003E-03  -3.24521097E-05
  -1.85000000E-03  -3.29938193E-05
  -1.79999997E-03  -3.35424520E-05
  -1.75000005E-03  -3.40980514E-05
  -1.70000002E-03  -3.46606721E-05
  -1.64999999E-03  -3.52303614E-05
  -1.59999996E-03  -3.58071811E-05
  -1.55000004E-03  -3.63911640E-05
  -1.50000001E-03  -3.69823465E-05
  -1.44999998E-03  -3.75807540E-05
  -1.39999995E-03  -3.81864047E-05
  -1.35000004E-03  -3.87993241E-05
  -1.30000000E-03  -3.94195558E-05
  -1.24999997E-03  -4.00471436E-05
  -1.20000006E-03  -4.06821309E-05
  -1.15000003E-03  -4.13245652E-05
  -1.09999999E-03  -4.19744792E-05
  -1.04999996E-03  -4.26318948E-05
  -1.00000005E-03  -4.32968263E-05
  -9.50000016E-04  -4.39692740E-05
  -8.99999985E-04  -4.46492522E-05
  -8.50000011E-04  -4.53367902E-05
  -7.99999980E-04  -4.60319206E-05
  -7.50000007E-04  -4.67346799E-05
  -6.99999975E-04  -4.74451044E-05
  -6.50000002E-04  -4.81632269E-05
  -6.00000028E-04  -4.88890437E-05
  -5.49999997E-04  -4.96225548E-05
  -5.00000024E-04  -5.03637530E-05
  -4.49999992E-04  -5.11126309E-05
  -3.99999990E-04  -5.18692032E-05
  -3.49999988E-04  -5.26334807E-05
  -3.00000014E-04  -5.34054889E-05
  -2.50000012E-04  -5.41852532E-05
  -1.99999995E-04  -5.49727738E-05
  -1.50000007E-04  -5.57680578E-05
  -9.99999975E-05  -5.65710834E-05
  -4.99999987E-05  -5.73818252E-05
   0.00000000      -5.82002394E-05
   4.99999987E-05  -5.90263153E-05
   9.99999975E-05  -5.98600491E-05
   1.50000007E-04  -6.07014445E-05
   1.99999995E-04  -6.15505123E-05
   2.50000012E-04  -6.24072418E-05
   3.00000014E-04  -6.32716110E-05
   3.49999988E-04  -6.41435909E-05
   3.99999990E-04  -6.50231159E-05
   4.49999992E-04  -6.59101424E-05
   5.00000024E-04  -6.68046196E-05
   5.49999997E-04  -6.77065109E-05
   6.00000028E-04  -6.86158019E-05
   6.50000002E-04  -6.95324707E-05
   6.99999975E-04  -7.04565027E-05
   7.50000007E-04  -7.13878399E-05
   7.99999980E-04  -7.23264457E-05
   8.50000011E-04  -7.32722110E-05
   8.99999985E-04  -7.42250704E-05
   9.50000016E-04  -7.51849293E-05
   1.00000005E-03  -7.61517222E-05
   1.04999996E-03  -7.71254126E-05
   1.09999999E-03  -7.81059571E-05
   1.15000003E-03  -7.90932972E-05
   1.20000006E-03  -8.00873822E-05
   1.24999997E-03  -8.10881102E-05
   1.30000000E-03  -8.20953792E-05
   1.35000004E-03  -8.31090583E-05
   1.39999995E-03  -8.41290312E-05
   1.44999998E-03  -8.51552031E-05
   1.50000001E-03  -8.61874723E-05
   1.55000004E-03  -8.72257879E-05
   1.59999996E-03  -8.82700624E-05
   1.64999999E-03  -8.93202014E-05
   1.70000002E-03  -9.03760883E-05
   1.75000005E-03  -9.14375632E-05
   1.79999997E-03  -9.25044733E-05
   1.85000000E-03  -9.35766657E-05
   1.90000003E-03  -9.46539876E-05
   1.94999995E-03  -9.57363300E-05
   2.00000009E-03  -9.68235763E-05
   2.05000001E-03  -9.79156175E-05
   2.09999993E-03  -9.90123153E-05
   2.15000007E-03  -1.00113532E-04
   2.19999999E-03  -1.01219070E-04
   2.24999990E-03  -1.02328726E-04
   2.30000005E-03  -1.03442304E-04
   2.34999997E-03  -1.04559593E-04
   2.40000011E-03  -1.05680461E-04
   2.45000003E-03  -1.06804735E-04
   2.49999994E-03  -1.07932254E-04
   2.55000009E-03  -1.09062872E-04
   2.60000001E-03  -1.10196386E-04
   2.64999992E-03  -1.11332556E-04
   2.70000007E-03  -1.12471156E-04
   2.74999999E-03  -1.13611924E-04
   2.79999990E-03  -1.14754635E-04