  -3.99999991E-02   0.00000000    
  -3.99499983E-02   0.00000000    
  -3.99000011E-02   0.00000000    
  -3.98500003E-02   0.00000000    
  -3.97999994E-02  -1.12860394E-19
  -3.97499986E-02  -8.66889676E-19
  -3.97000015E-02  -3.57168606E-18
  -3.96500006E-02  -1.04987244E-17
  -3.95999998E-02  -2.48850405E-17
  -3.95499989E-02  -5.11889539E-17
  -3.95000018E-02  -9.58454242E-17
  -3.94500010E-02  -1.67718717E-16
  -3.94000001E-02  -2.76713779E-16
  -3.93499993E-02  -4.30227595E-16
  -3.92999984E-02  -6.29926544E-16
  -3.92500013E-02  -8.72680470E-16
  -3.92000005E-02  -1.15677056E-15
  -3.91499996E-02  -1.48945386E-15
  -3.90999988E-02  -1.88989652E-15
  -3.90500017E-02  -2.38532355E-15
  -3.90000008E-02  -3.00423888E-15
  -3.89500000E-02  -3.77195884E-15
  -3.88999991E-02  -4.70903605E-15
  -3.88499983E-02  -5.82887247E-15
  -3.88000011E-02  -7.13347092E-15
  -3.87500003E-02  -8.61308756E-15
  -3.86999995E-02  -1.02562790E-14
  -3.86499986E-02  -1.20670025E-14
  -3.86000015E-02  -1.40745121E-14
  -3.85500006E-02  -1.63239597E-14
  -3.84999998E-02  -1.88522107E-14
  -3.84499989E-02  -2.16677601E-14
  -3.84000018E-02  -2.47494371E-14
  -3.83500010E-02  -2.80592369E-14
  -3.83000001E-02  -3.15521433E-14
  -3.82499993E-02  -3.51746017E-14
  -3.81999984E-02  -3.88618784E-14
  -3.81500013E-02  -4.25486266E-14
  -3.81000005E-02  -4.61895808E-14
  -3.80499996E-02  -4.97693724E-14
  -3.79999988E-02  -5.32871781E-14
  -3.79500017E-02  -5.67283952E-14
  -3.79000008E-02  -6.00506380E-14
  -3.78500000E-02  -6.31938553E-14
  -3.77999991E-02  -6.60937844E-14
  -3.77499983E-02  -6.86719561E-14
  -3.77000012E-02  -7.08061268E-14
  -3.76500003E-02  -7.23175927E-14
  -3.75999995E-02  -7.30027949E-14
  -3.75499986E-02  -7.26909987E-14
  -3.75000015E-02  -7.12764334E-14
  -3.74500006E-02  -6.86923595E-14
  -3.73999998E-02  -6.48486459E-14
  -3.73499990E-02  -5.95853526E-14
  -3.73000018E-02  -5.26724728E-14
  -3.72500010E-02  -4.38419781E-14
  -3.72000001E-02  -3.28280426E-14
  -3.71499993E-02  -1.94169987E-14
  -3.70999984E-02  -3.52390228E-15
  -3.70500013E-02   1.47236281E-14
  -3.70000005E-02   3.49677562E-14
  -3.69499996E-02   5.67372484E-14
  -3.68999988E-02   7.96784717E-14
  -3.68500017E-02   1.03775732E-13
  -3.68000008E-02   1.29417852E-13
  -3.67500000E-02   1.57261668E-13
  -3.66999991E-02   1.87966694E-13
  -3.66499983E-02   2.21928392E-13
  -3.66000012E-02   2.59104858E-13
  -3.65500003E-02   2.98977097E-13
  -3.64999995E-02   3.40661689E-13
  -3.64499986E-02   3.83178298E-13
  -3.64000015E-02   4.25804845E-13
  -3.63500006E-02   4.68352462E-13
  -3.62999998E-02   5.11163431E-13
  -3.62499990E-02   5.54766086E-13
  -3.62000018E-02   5.99346148E-13
  -3.61500010E-02   6.44340267E-13
  -3.61000001E-02   6.88400183E-13
  -3.60499993E-02   7.29751220E-13
  -3.59999985E-02   7.66760733E-13
  -3.59500013E-02   7.98460853E-13
  -3.59000005E-02   8.24819759E-13
  -3.58499996E-02   8.46645291E-13
  -3.57999988E-02   8.65098249E-13
  -3.57500017E-02   8.80932480E-13
  -3.57000008E-02   8.93764717E-13
  -3.56500000E-02   9.01781742E-13
  -3.55999991E-02   9.02152376E-13
  -3.55499983E-02   8.92037746E-13
  -3.55000012E-02   8.69713644E-13
  -3.54500003E-02   8.35206795E-13
  -3.53999995E-02   7.90105828E-13
  -3.53499986E-02   7.36636013E-13
  -3.53000015E-02   6.76416876E-13
  -3.52500007E-02   6.09432968E-13
  -3.51999998E-02   5.33641436E-13
  -3.51499990E-02   4.45450832E-13
  -3.51000018E-02   3.40998551E-13
  -3.50500010E-02   2.17794383E-13
  -3.50000001E-02   7.59904157E-14
  -3.49499993E-02  -8.14295734E-14
  -3.48999985E-02  -2.49782698E-13
  -3.48500013E-02  -4.24671935E-13
  -3.48000005E-02  -6.03857838E-13
  -3.47499996E-02  -7.88087369E-13
  -3.46999988E-02  -9.80494332E-13
  -3.46500017E-02  -1.18486503E-12
  -3.46000008E-02  -1.40352985E-12
  -3.45500000E-02  -1.63576466E-12
  -3.44999991E-02  -1.87739559E-12
  -3.44499983E-02  -2.12189532E-12
  -3.44000012E-02  -2.36264263E-12
  -3.43500003E-02  -2.59542041E-12
  -3.42999995E-02  -2.81991509E-12
  -3.42499986E-02  -3.03933181E-12
  -3.42000015E-02  -3.25815893E-12
  -3.41500007E-02  -3.47911652E-12
  -3.40999998E-02  -3.70078881E-12
  -3.40499990E-02  -3.91709234E-12
  -3.40000018E-02  -4.11882117E-12
  -3.39500010E-02  -4.29657481E-12
  -3.39000002E-02  -4.44382421E-12
  -3.38499993E-02  -4.55881166E-12
  -3.37999985E-02  -4.64440118E-12
  -3.37500013E-02  -4.70576789E-12
  -3.37000005E-02  -4.74678326E-12
  -3.36499996E-02  -4.76672998E-12
  -3.35999988E-02  -4.75904255E-12
  -3.35500017E-02  -4.71290845E-12
  -3.35000008E-02  -4.61713003E-12
  -3.34500000E-02  -4.46444487E-12
  -3.33999991E-02  -4.25423976E-12
  -3.33499983E-02  -3.99239539E-12
  -3.33000012E-02  -3.68835561E-12
  -3.32500003E-02  -3.35065851E-12
  -3.31999995E-02  -2.98280324E-12
  -3.31499986E-02  -2.58120348E-12
  -3.31000015E-02  -2.13623086E-12
  -3.30500007E-02  -1.63613990E-12
  -3.29999998E-02  -1.07231487E-12
  -3.29499990E-02  -4.43473220E-13
  -3.29000019E-02   2.43254744E-13
  -3.28500010E-02   9.74989295E-13
  -3.28000002E-02   1.73824702E-12
  -3.27499993E-02   2.52408055E-12
  -3.26999985E-02   3.33082303E-12
  -3.26500013E-02   4.16326305E-12
  -3.26000005E-02   5.02872700E-12
  -3.25499997E-02   5.93179282E-12
  -3.24999988E-02   6.86988660E-12
  -3.24500017E-02   7.83169970E-12
  -3.24000008E-02   8.79933452E-12
  -3.23500000E-02   9.75348535E-12
  -3.22999991E-02   1.06794183E-11
  -3.22499983E-02   1.15709248E-11
  -3.22000012E-02   1.24302365E-11
  -3.21500003E-02   1.32638562E-11
  -3.20999995E-02   1.40763295E-11
  -3.20499986E-02   1.48649617E-11
  -3.20000015E-02   1.56178299E-11
  -3.19500007E-02   1.63158931E-11
  -3.18999998E-02   1.69381661E-11
  -3.18499990E-02   1.74678258E-11
  -3.18000019E-02   1.78966720E-11
  -3.17500010E-02   1.82259884E-11
  -3.17000002E-02   1.84631633E-11
  -3.16499993E-02   1.86153783E-11
  -3.15999985E-02   1.86831904E-11
  -3.15500014E-02   1.86571331E-11
  -3.15000005E-02   1.85191203E-11
  -3.14499997E-02   1.82479951E-11
  -3.13999988E-02   1.78266603E-11
  -3.13500017E-02   1.72474899E-11
  -3.13000008E-02   1.65139447E-11
  -3.12500000E-02   1.56378747E-11
  -3.11999992E-02   1.46337890E-11
  -3.11500002E-02   1.35124238E-11
  -3.10999993E-02   1.22761879E-11
  -3.10500003E-02   1.09185196E-11
  -3.09999995E-02   9.42764877E-12
  -3.09500005E-02   7.79320618E-12
  -3.08999997E-02   6.01260838E-12
  -3.08500007E-02   4.09413866E-12
  -3.07999998E-02   2.05535393E-12
  -3.07500008E-02  -8.22312121E-14
  -3.07000000E-02  -2.29950976E-12
  -3.06499992E-02  -4.58438799E-12
  -3.06000002E-02  -6.93296679E-12
  -3.05499993E-02  -9.34706913E-12
  -3.05000003E-02  -1.18292060E-11
  -3.04499995E-02  -1.43769172E-11
  -3.04000005E-02  -1.69787726E-11
  -3.03499997E-02  -1.96139858E-11
  -3.03000007E-02  -2.22559818E-11
  -3.02499998E-02  -2.48783771E-11
  -3.02000009E-02  -2.74603673E-11
  -3.01500000E-02  -2.99889627E-11
  -3.00999992E-02  -3.24572591E-11
  -3.00500002E-02  -3.48599032E-11
  -2.99999993E-02  -3.71881068E-11
  -2.99500003E-02  -3.94262296E-11
  -2.98999995E-02  -4.15511826E-11
  -2.98500005E-02  -4.35347314E-11
  -2.97999997E-02  -4.53481939E-11
  -2.97500007E-02  -4.69677595E-11
  -2.96999998E-02  -4.83783534E-11
  -2.96500009E-02  -4.95740220E-11
  -2.96000000E-02  -5.05544287E-11
  -2.95499992E-02  -5.13191226E-11
  -2.95000002E-02  -5.18622922E-11
  -2.94499993E-02  -5.21703548E-11
  -2.94000003E-02  -5.22230731E-11
  -2.93499995E-02  -5.19972260E-11
  -2.93000005E-02  -5.14713341E-11
  -2.92499997E-02  -5.06298961E-11
  -2.92000007E-02  -4.94658516E-11
  -2.91499998E-02  -4.79804148E-11
  -2.91000009E-02  -4.61798759E-11
  -2.90500000E-02  -4.40706638E-11
  -2.89999992E-02  -4.16548220E-11
  -2.89500002E-02  -3.89283432E-11
  -2.88999993E-02  -3.58830014E-11
  -2.88500004E-02  -3.25107059E-11
  -2.87999995E-02  -2.88080844E-11
  -2.87500005E-02  -2.47793990E-11
  -2.86999997E-02  -2.04371832E-11
  -2.86500007E-02  -1.58006681E-11
  -2.85999998E-02  -1.08925594E-11
  -2.85500009E-02  -5.73497109E-12
  -2.85000000E-02  -3.45874479E-13
  -2.84499992E-02   5.26207420E-12
  -2.84000002E-02   1.10795782E-11
  -2.83499993E-02   1.70963434E-11
  -2.83000004E-02   2.32966459E-11
  -2.82499995E-02   2.96572558E-11
  -2.82000005E-02   3.61483100E-11
  -2.81499997E-02   4.27363284E-11
  -2.81000007E-02   4.93876016E-11
  -2.80499998E-02   5.60706620E-11
  -2.80000009E-02   6.27572369E-11
  -2.79500000E-02   6.94215380E-11
  -2.78999992E-02   7.60378080E-11
  -2.78500002E-02   8.25767094E-11
  -2.77999993E-02   8.90023749E-11
  -2.77500004E-02   9.52720819E-11
  -2.76999995E-02   1.01339097E-10
  -2.76500005E-02   1.07157463E-10
  -2.75999997E-02   1.12686124E-10
  -2.75500007E-02   1.17890364E-10
  -2.74999999E-02   1.22740276E-10
  -2.74500009E-02   1.27207730E-10
  -2.74000000E-02   1.31263347E-10
  -2.73499992E-02   1.34874403E-10
  -2.73000002E-02   1.38004302E-10
  -2.72499993E-02   1.40613493E-10
  -2.72000004E-02   1.42662465E-10
  -2.71499995E-02   1.44115594E-10
  -2.71000005E-02   1.44944140E-10
  -2.70499997E-02   1.45126522E-10
  -2.70000007E-02   1.44645768E-10
  -2.69499999E-02   1.43486362E-10
  -2.69000009E-02   1.41632178E-10
  -2.68500000E-02   1.39066841E-10
  -2.67999992E-02   1.35775099E-10
  -2.67500002E-02   1.31744213E-10
  -2.66999993E-02   1.26964106E-10
  -2.66500004E-02   1.21427257E-10
  -2.65999995E-02   1.15128643E-10
  -2.65500005E-02   1.08066306E-10
  -2.64999997E-02   1.00242023E-10
  -2.64500007E-02   9.16625109E-11
  -2.63999999E-02   8.23412449E-11
  -2.63500009E-02   7.23003740E-11
  -2.63000000E-02   6.15715742E-11
  -2.62499992E-02   5.01936340E-11
  -2.62000002E-02   3.82068786E-11
  -2.61499994E-02   2.56472014E-11
  -2.61000004E-02   1.25430369E-11
  -2.60499995E-02  -1.08207822E-12
  -2.60000005E-02  -1.52026204E-11
  -2.59499997E-02  -2.97831274E-11
  -2.59000007E-02  -4.47730429E-11
  -2.58499999E-02  -6.01064268E-11
  -2.58000009E-02  -7.57071489E-11
  -2.57500000E-02  -9.14981216E-11
  -2.56999992E-02  -1.07411073E-10
  -2.56500002E-02  -1.23392810E-10
  -2.55999994E-02  -1.39403725E-10
  -2.55500004E-02  -1.55407867E-10
  -2.54999995E-02  -1.71358219E-10
  -2.54500005E-02  -1.87184448E-10
  -2.53999997E-02  -2.02790312E-10
  -2.53500007E-02  -2.18062707E-10
  -2.52999999E-02  -2.32889125E-10
  -2.52500009E-02  -2.47175197E-10
  -2.52000000E-02  -2.60854643E-10
  -2.51499992E-02  -2.73886885E-10
  -2.51000002E-02  -2.86242641E-10
  -2.50499994E-02  -2.97883801E-10
  -2.50000004E-02  -3.08745002E-10
  -2.49499995E-02  -3.18727211E-10
  -2.49000005E-02  -3.27707528E-10
  -2.48499997E-02  -3.35563383E-10
  -2.48000007E-02  -3.42200879E-10
  -2.47499999E-02  -3.47572582E-10
  -2.47000009E-02  -3.51675578E-10
  -2.46500000E-02  -3.54528740E-10
  -2.45999992E-02  -3.56139174E-10
  -2.45500002E-02  -3.56473212E-10
  -2.44999994E-02  -3.55445395E-10
  -2.44500004E-02  -3.52931850E-10
  -2.43999995E-02  -3.48803486E-10
  -2.43500005E-02  -3.42966489E-10
  -2.42999997E-02  -3.35392880E-10
  -2.42500007E-02  -3.26125654E-10
  -2.41999999E-02  -3.15253518E-10
  -2.41500009E-02  -3.02864706E-10
  -2.41000000E-02  -2.88999741E-10
  -2.40499992E-02  -2.73626427E-10
  -2.40000002E-02  -2.56650118E-10
  -2.39499994E-02  -2.37956488E-10
  -2.39000004E-02  -2.17467405E-10
  -2.38499995E-02  -1.95185854E-10
  -2.38000005E-02  -1.71209061E-10
  -2.37499997E-02  -1.45703047E-10
  -2.37000007E-02  -1.18847904E-10
  -2.36499999E-02  -9.07762823E-11
  -2.36000009E-02  -6.15324458E-11
  -2.35500000E-02  -3.10728179E-11
  -2.34999992E-02   6.89545751E-13
  -2.34500002E-02   3.38141702E-11
  -2.33999994E-02   6.82695359E-11
  -2.33500004E-02   1.03906099E-10
  -2.32999995E-02   1.40480766E-10
  -2.32500006E-02   1.77723766E-10
  -2.31999997E-02   2.15415852E-10
  -2.31500007E-02   2.53443905E-10
  -2.30999999E-02   2.91807023E-10
  -2.30500009E-02   3.30569516E-10
  -2.30000000E-02   3.69779291E-10
  -2.29499992E-02   4.09385525E-10
  -2.29000002E-02   4.49194348E-10
  -2.28499994E-02   4.88886098E-10
  -2.28000004E-02   5.28089850E-10
  -2.27499995E-02   5.66483915E-10
  -2.27000006E-02   6.03875949E-10
  -2.26499997E-02   6.40225595E-10
  -2.26000007E-02   6.75595024E-10
  -2.25499999E-02   7.10051962E-10
  -2.25000009E-02   7.43565209E-10
  -2.24500000E-02   7.75941089E-10
  -2.23999992E-02   8.06829492E-10
  -2.23500002E-02   8.35799929E-10
  -2.22999994E-02   8.62457772E-10
  -2.22500004E-02   8.86549778E-10
  -2.21999995E-02   9.08010833E-10
  -2.21500006E-02   9.26926702E-10
  -2.20999997E-02   9.43424672E-10
  -2.20500007E-02   9.57543045E-10
  -2.19999999E-02   9.69136882E-10
  -2.19500009E-02   9.77866121E-10
  -2.19000001E-02   9.83270576E-10
  -2.18499992E-02   9.84901827E-10
  -2.18000002E-02   9.82452786E-10
  -2.17499994E-02   9.75830527E-10
  -2.17000004E-02   9.65136415E-10
  -2.16499995E-02   9.50561074E-10
  -2.16000006E-02   9.32237287E-10
  -2.15499997E-02   9.10115594E-10
  -2.15000007E-02   8.83921991E-10
  -2.14499999E-02   8.53219995E-10
  -2.14000009E-02   8.17551471E-10
  -2.13500001E-02   7.76592624E-10
  -2.12999992E-02   7.30253136E-10
  -2.12500002E-02   6.78673007E-10
  -2.11999994E-02   6.22119578E-10
  -2.11500004E-02   5.60826219E-10
  -2.10999995E-02   4.94845220E-10
  -2.10500006E-02   4.23979463E-10
  -2.09999997E-02   3.47825019E-10
  -2.09500007E-02   2.65915179E-10
  -2.08999999E-02   1.77897683E-10
  -2.08500009E-02   8.36707925E-11
  -2.08000001E-02  -1.65871102E-11
  -2.07499992E-02  -1.22515859E-10
  -2.07000002E-02  -2.33750352E-10
  -2.06499994E-02  -3.50101448E-10
  -2.06000004E-02  -4.71655714E-10
  -2.05499995E-02  -5.98756489E-10
  -2.05000006E-02  -7.31864291E-10
  -2.04499997E-02  -8.71362205E-10
  -2.04000007E-02  -1.01738507E-09
  -2.03499999E-02  -1.16975207E-09
  -2.03000009E-02  -1.32803879E-09
  -2.02500001E-02  -1.49175672E-09
  -2.01999992E-02  -1.66056446E-09
  -2.01500002E-02  -1.83441506E-09
  -2.00999994E-02  -2.01357042E-09
  -2.00500004E-02  -2.19847895E-09
  -1.99999996E-02  -2.38956321E-09
  -1.99500006E-02  -2.58701904E-09
  -1.98999997E-02  -2.79070744E-09
  -1.98500007E-02  -3.00019565E-09
  -1.97999999E-02  -3.21491989E-09
  -1.97500009E-02  -3.43441675E-09
  -1.97000001E-02  -3.65850572E-09
  -1.96499992E-02  -3.88735355E-09
  -1.96000002E-02  -4.12138013E-09
  -1.95499994E-02  -4.36105019E-09
  -1.95000004E-02  -4.60663685E-09
  -1.94499996E-02  -4.85806773E-09
  -1.94000006E-02  -5.11492848E-09
  -1.93499997E-02  -5.37661737E-09
  -1.93000007E-02  -5.64258062E-09
  -1.92499999E-02  -5.91253135E-09
  -1.92000009E-02  -6.18655394E-09
  -1.91500001E-02  -6.46504850E-09
  -1.90999992E-02  -6.74853728E-09
  -1.90500002E-02  -7.03740044E-09
  -1.89999994E-02  -7.33169125E-09
  -1.89500004E-02  -7.63107888E-09
  -1.88999996E-02  -7.93497446E-09
  -1.88500006E-02  -8.24277269E-09
  -1.87999997E-02  -8.55412097E-09
  -1.87500007E-02  -8.86906104E-09
  -1.86999999E-02  -9.18802012E-09
  -1.86500009E-02  -9.51161816E-09
  -1.86000001E-02  -9.84039694E-09
  -1.85499992E-02  -1.01745830E-08
  -1.85000002E-02  -1.05139932E-08
  -1.84499994E-02  -1.08581180E-08
  -1.84000004E-02  -1.12063532E-08
  -1.83499996E-02  -1.15582877E-08
  -1.83000006E-02  -1.19139232E-08
  -1.82499997E-02  -1.22737180E-08
  -1.82000007E-02  -1.26384432E-08
  -1.81499999E-02  -1.30088882E-08
  -1.81000009E-02  -1.33855735E-08
  -1.80500001E-02  -1.37685925E-08
  -1.79999992E-02  -1.41576626E-08
  -1.79500002E-02  -1.45523176E-08
  -1.78999994E-02  -1.49522066E-08
  -1.78500004E-02  -1.53573598E-08
  -1.77999996E-02  -1.57682845E-08
  -1.77500006E-02  -1.61858935E-08
  -1.76999997E-02  -1.66112262E-08
  -1.76500008E-02  -1.70451173E-08
  -1.75999999E-02  -1.74879844E-08
  -1.75500009E-02  -1.79397990E-08
  -1.75000001E-02  -1.84002680E-08
  -1.74499992E-02  -1.88691551E-08
  -1.74000002E-02  -1.93465741E-08
  -1.73499994E-02  -1.98331467E-08
  -1.73000004E-02  -2.03299724E-08
  -1.72499996E-02  -2.08383444E-08
  -1.72000006E-02  -2.13594706E-08
  -1.71499997E-02  -2.18941754E-08
  -1.71000008E-02  -2.24428121E-08
  -1.70499999E-02  -2.30053683E-08
  -1.70000009E-02  -2.35817907E-08
  -1.69500001E-02  -2.41723193E-08
  -1.68999992E-02  -2.47777443E-08
  -1.68500002E-02  -2.53993839E-08
  -1.67999994E-02  -2.60388724E-08
  -1.67500004E-02  -2.66977906E-08
  -1.66999996E-02  -2.73773750E-08
  -1.66500006E-02  -2.80783574E-08
  -1.65999997E-02  -2.88010540E-08
  -1.65500008E-02  -2.95456228E-08
  -1.64999999E-02  -3.03124246E-08
  -1.64500009E-02  -3.11023385E-08
  -1.64000001E-02  -3.19168478E-08
  -1.63499992E-02  -3.27578746E-08
  -1.63000003E-02  -3.36274226E-08
  -1.62499994E-02  -3.45271758E-08
  -1.62000004E-02  -3.54582745E-08
  -1.61499996E-02  -3.64213619E-08
  -1.61000006E-02  -3.74168181E-08
  -1.60499997E-02  -3.84451582E-08
  -1.60000008E-02  -3.95073450E-08
  -1.59499999E-02  -4.06049558E-08
  -1.59000009E-02  -4.17400763E-08
  -1.58500001E-02  -4.29149907E-08
  -1.57999992E-02  -4.41317951E-08
  -1.57500003E-02  -4.53920315E-08
  -1.56999994E-02  -4.66966661E-08
  -1.56500004E-02  -4.80462710E-08
  -1.55999996E-02  -4.94414500E-08
  -1.55499997E-02  -5.08831661E-08
  -1.54999997E-02  -5.23730037E-08
  -1.54499998E-02  -5.39131193E-08
  -1.53999999E-02  -5.55059714E-08
  -1.53500000E-02  -5.71538230E-08
  -1.53000001E-02  -5.88585074E-08
  -1.52500002E-02  -6.06212396E-08
  -1.52000003E-02  -6.24427443E-08
  -1.51500003E-02  -6.43236788E-08
  -1.51000004E-02  -6.62649740E-08
  -1.50499996E-02  -6.82681716E-08
  -1.49999997E-02  -7.03354317E-08
  -1.49499997E-02  -7.24692981E-08
  -1.48999998E-02  -7.46722577E-08
  -1.48499999E-02  -7.69463426E-08
  -1.48000000E-02  -7.92929100E-08
  -1.47500001E-02  -8.17127486E-08
  -1.47000002E-02  -8.42064480E-08
  -1.46500003E-02  -8.67748469E-08
  -1.46000003E-02  -8.94193306E-08
  -1.45500004E-02  -9.21419669E-08
  -1.44999996E-02  -9.49451859E-08
  -1.44499997E-02  -9.78315171E-08
  -1.43999998E-02  -1.00803206E-07
  -1.43499998E-02  -1.03861815E-07
  -1.42999999E-02  -1.07008297E-07
  -1.42500000E-02  -1.10243164E-07
  -1.42000001E-02  -1.13567083E-07
  -1.41500002E-02  -1.16981290E-07
  -1.41000003E-02  -1.20487755E-07
  -1.40500003E-02  -1.24088942E-07
  -1.40000004E-02  -1.27787473E-07
  -1.39499996E-02  -1.31585679E-07
  -1.38999997E-02  -1.35485351E-07
  -1.38499998E-02  -1.39487625E-07
  -1.37999998E-02  -1.43593198E-07
  -1.37499999E-02  -1.47802723E-07
  -1.37000000E-02  -1.52117394E-07
  -1.36500001E-02  -1.56539059E-07
  -1.36000002E-02  -1.61070105E-07
  -1.35500003E-02  -1.65713359E-07
  -1.35000004E-02  -1.70471466E-07
  -1.34500004E-02  -1.75346599E-07
  -1.33999996E-02  -1.80340265E-07
  -1.33499997E-02  -1.85453459E-07
  -1.32999998E-02  -1.90687103E-07
  -1.32499998E-02  -1.96042478E-07
  -1.31999999E-02  -2.01521644E-07
  -1.31500000E-02  -2.07127371E-07
  -1.31000001E-02  -2.12862773E-07
  -1.30500002E-02  -2.18730776E-07
  -1.30000003E-02  -2.24733924E-07
  -1.29500004E-02  -2.30874335E-07
  -1.29000004E-02  -2.37153600E-07
  -1.28499996E-02  -2.43573083E-07
  -1.27999997E-02  -2.50134434E-07
  -1.27499998E-02  -2.56839968E-07
  -1.26999998E-02  -2.63692868E-07
  -1.26499999E-02  -2.70696887E-07
  -1.26000000E-02  -2.77855918E-07
  -1.25500001E-02  -2.85173343E-07
  -1.25000002E-02  -2.92651777E-07
  -1.24500003E-02  -3.00293408E-07
  -1.24000004E-02  -3.08100368E-07
  -1.23500004E-02  -3.16075074E-07
  -1.22999996E-02  -3.24220537E-07
  -1.22499997E-02  -3.32540253E-07
  -1.21999998E-02  -3.41038515E-07
  -1.21499998E-02  -3.49720324E-07
  -1.20999999E-02  -3.58590370E-07
  -1.20500000E-02  -3.67652831E-07
  -1.20000001E-02  -3.76911174E-07
  -1.19500002E-02  -3.86368498E-07
  -1.19000003E-02  -3.96028042E-07
  -1.18500004E-02  -4.05893758E-07
  -1.18000004E-02  -4.15970021E-07
  -1.17499996E-02  -4.26261835E-07
  -1.16999997E-02  -4.36774428E-07
  -1.16499998E-02  -4.47513116E-07
  -1.15999999E-02  -4.58482930E-07
  -1.15499999E-02  -4.69688501E-07
  -1.15000000E-02  -4.81134236E-07
  -1.14500001E-02  -4.92824881E-07
  -1.14000002E-02  -5.04765637E-07
  -1.13500003E-02  -5.16962643E-07
  -1.13000004E-02  -5.29423232E-07
  -1.12500004E-02  -5.42154908E-07
  -1.11999996E-02  -5.55165059E-07
  -1.11499997E-02  -5.68460450E-07
  -1.10999998E-02  -5.82046596E-07
  -1.10499999E-02  -5.95928725E-07
  -1.09999999E-02  -6.10112011E-07
  -1.09500000E-02  -6.24601569E-07
  -1.09000001E-02  -6.39403424E-07
  -1.08500002E-02  -6.54523888E-07
  -1.08000003E-02  -6.69970802E-07
  -1.07500004E-02  -6.85752241E-07
  -1.07000005E-02  -7.01876559E-07
  -1.06499996E-02  -7.18352169E-07
  -1.05999997E-02  -7.35187143E-07
  -1.05499998E-02  -7.52390008E-07
  -1.04999999E-02  -7.69969574E-07
  -1.04499999E-02  -7.87935448E-07
  -1.04000000E-02  -8.06297237E-07
  -1.03500001E-02  -8.25064831E-07
  -1.03000002E-02  -8.44248007E-07
  -1.02500003E-02  -8.63855860E-07
  -1.02000004E-02  -8.83896291E-07
  -1.01500005E-02  -9.04376520E-07
  -1.00999996E-02  -9.25303425E-07
  -1.00499997E-02  -9.46684850E-07
  -9.99999978E-03  -9.68528639E-07
  -9.94999986E-03  -9.90844796E-07
  -9.89999995E-03  -1.01364378E-06
  -9.85000003E-03  -1.03693662E-06
  -9.80000012E-03  -1.06073583E-06
  -9.75000020E-03  -1.08505299E-06
  -9.70000029E-03  -1.10989902E-06
  -9.65000037E-03  -1.13528552E-06
  -9.60000046E-03  -1.16122419E-06
  -9.54999961E-03  -1.18772675E-06
  -9.49999969E-03  -1.21480559E-06
  -9.44999978E-03  -1.24247356E-06
  -9.39999986E-03  -1.27074361E-06
  -9.34999995E-03  -1.29962916E-06
  -9.30000003E-03  -1.32914215E-06
  -9.25000012E-03  -1.35929463E-06
  -9.20000020E-03  -1.39009796E-06
  -9.15000029E-03  -1.42156250E-06
  -9.10000037E-03  -1.45370018E-06
  -9.05000046E-03  -1.48652384E-06
  -8.99999961E-03  -1.52004634E-06
  -8.94999970E-03  -1.55428131E-06
  -8.89999978E-03  -1.58924138E-06
  -8.84999987E-03  -1.62493984E-06
  -8.79999995E-03  -1.66139012E-06
  -8.75000004E-03  -1.69860618E-06
  -8.70000012E-03  -1.73660169E-06
  -8.65000021E-03  -1.77539084E-06
  -8.60000029E-03  -1.81498876E-06
  -8.55000038E-03  -1.85541171E-06
  -8.50000046E-03  -1.89667799E-06
  -8.44999962E-03  -1.93880578E-06
  -8.39999970E-03  -1.98181192E-06
  -8.34999979E-03  -2.02571164E-06
  -8.29999987E-03  -2.07052062E-06
  -8.24999996E-03  -2.11625456E-06
  -8.20000004E-03  -2.16293006E-06
  -8.15000013E-03  -2.21056303E-06
  -8.10000021E-03  -2.25917006E-06
  -8.05000030E-03  -2.30876685E-06
  -8.00000038E-03  -2.35937068E-06
  -7.95000046E-03  -2.41099860E-06
  -7.89999962E-03  -2.46366744E-06
  -7.84999970E-03  -2.51739198E-06
  -7.79999979E-03  -2.57218835E-06
  -7.74999987E-03  -2.62807225E-06
  -7.69999996E-03  -2.68506142E-06
  -7.65000004E-03  -2.74317313E-06
  -7.60000013E-03  -2.80242625E-06
  -7.55000021E-03  -2.86283876E-06
  -7.49999983E-03  -2.92443019E-06
  -7.44999992E-03  -2.98721943E-06
  -7.40000000E-03  -3.05122649E-06
  -7.35000009E-03  -3.11646954E-06
  -7.30000017E-03  -3.18296748E-06
  -7.24999979E-03  -3.25073893E-06
  -7.19999988E-03  -3.31980641E-06
  -7.14999996E-03  -3.39019152E-06
  -7.10000005E-03  -3.46191587E-06
  -7.05000013E-03  -3.53499922E-06
  -7.00000022E-03  -3.60946046E-06
  -6.94999984E-03  -3.68531846E-06
  -6.89999992E-03  -3.76259277E-06
  -6.85000001E-03  -3.84130317E-06
  -6.80000009E-03  -3.92146694E-06
  -6.75000018E-03  -4.00310319E-06
  -6.69999979E-03  -4.08623055E-06
  -6.64999988E-03  -4.17087085E-06
  -6.59999996E-03  -4.25704638E-06
  -6.55000005E-03  -4.34477624E-06
  -6.50000013E-03  -4.43407907E-06
  -6.45000022E-03  -4.52497125E-06
  -6.39999984E-03  -4.61747550E-06
  -6.34999992E-03  -4.71161502E-06
  -6.30000001E-03  -4.80741028E-06
  -6.25000009E-03  -4.90488128E-06
  -6.20000018E-03  -5.00405031E-06
  -6.14999980E-03  -5.10494192E-06
  -6.09999988E-03  -5.20758113E-06
  -6.04999997E-03  -5.31198975E-06
  -6.00000005E-03  -5.41818827E-06
  -5.95000014E-03  -5.52619758E-06
  -5.90000022E-03  -5.63603908E-06
  -5.84999984E-03  -5.74773912E-06
  -5.79999993E-03  -5.86132046E-06
  -5.75000001E-03  -5.97680400E-06
  -5.70000010E-03  -6.09420840E-06
  -5.65000018E-03  -6.21355866E-06
  -5.59999980E-03  -6.33487616E-06
  -5.54999989E-03  -6.45818272E-06
  -5.49999997E-03  -6.58349700E-06
  -5.45000006E-03  -6.71083944E-06
  -5.40000014E-03  -6.84023234E-06
  -5.35000023E-03  -6.97170071E-06
  -5.29999984E-03  -7.10526683E-06
  -5.24999993E-03  -7.24095526E-06
  -5.20000001E-03  -7.37878781E-06
  -5.15000010E-03  -7.51878906E-06
  -5.10000018E-03  -7.66098310E-06
  -5.04999980E-03  -7.80539358E-06
  -4.99999989E-03  -7.95204778E-06
  -4.94999997E-03  -8.10097117E-06
  -4.90000006E-03  -8.25219013E-06
  -4.85000014E-03  -8.40573193E-06
  -4.80000023E-03  -8.56162205E-06
  -4.74999985E-03  -8.71988868E-06
  -4.69999993E-03  -8.88055820E-06
  -4.65000002E-03  -9.04365515E-06
  -4.60000010E-03  -9.20920138E-06
  -4.55000019E-03  -9.37721961E-06
  -4.49999981E-03  -9.54773441E-06
  -4.44999989E-03  -9.72077214E-06
  -4.39999998E-03  -9.89635828E-06
  -4.35000006E-03  -1.00745210E-05
  -4.30000015E-03  -1.02552822E-05
  -4.25000023E-03  -1.04386672E-05
  -4.19999985E-03  -1.06247007E-05
  -4.14999994E-03  -1.08134136E-05
  -4.10000002E-03  -1.10048368E-05
  -4.05000011E-03  -1.11990003E-05
  -4.00000019E-03  -1.13959268E-05
  -3.94999981E-03  -1.15956491E-05
  -3.89999989E-03  -1.17981981E-05
  -3.84999998E-03  -1.20036111E-05
  -3.80000006E-03  -1.22119200E-05
  -3.74999992E-03  -1.24231528E-05
  -3.70000000E-03  -1.26373325E-05
  -3.65000009E-03  -1.28544907E-05
  -3.59999994E-03  -1.30746630E-05
  -3.55000002E-03  -1.32978830E-05
  -3.50000011E-03  -1.35241789E-05
  -3.44999996E-03  -1.37535772E-05
  -3.40000005E-03  -1.39861058E-05
  -3.34999990E-03  -1.42218014E-05
  -3.29999998E-03  -1.44606975E-05
  -3.25000007E-03  -1.47028213E-05
  -3.19999992E-03  -1.49482003E-05
  -3.15000000E-03  -1.51968643E-05
  -3.10000009E-03  -1.54488480E-05
  -3.04999994E-03  -1.57041904E-05
  -3.00000003E-03  -1.59629271E-05
  -2.95000011E-03  -1.62250872E-05
  -2.89999996E-03  -1.64907051E-05
  -2.85000005E-03  -1.67598137E-05
  -2.79999990E-03  -1.70324511E-05
  -2.74999999E-03  -1.73086519E-05
  -2.70000007E-03  -1.75884579E-05
  -2.64999992E-03  -1.78719019E-05
  -2.60000001E-03  -1.81590131E-05
  -2.55000009E-03  -1.84498349E-05
  -2.49999994E-03  -1.87444075E-05
  -2.45000003E-03  -1.90427563E-05
  -2.40000011E-03  -1.93449323E-05
  -2.34999997E-03  -1.96509645E-05
  -2.30000005E-03  -1.99609003E-05
  -2.24999990E-03  -2.02747633E-05
  -2.19999999E-03  -2.05925880E-05
  -2.15000007E-03  -2.09144127E-05
  -2.09999993E-03  -2.12402774E-05
  -2.05000001E-03  -2.15702221E-05
  -2.00000009E-03  -2.19042722E-05
  -1.94999995E-03  -2.22424642E-05
  -1.90000003E-03  -2.25848362E-05
  -1.85000000E-03  -2.29314355E-05
  -1.79999997E-03  -2.32822968E-05
  -1.75000005E-03  -2.36374599E-05
  -1.70000002E-03  -2.39969559E-05
  -1.64999999E-03  -2.43608265E-05
  -1.59999996E-03  -2.47291136E-05
  -1.55000004E-03  -2.51018573E-05
  -1.50000001E-03  -2.54791066E-05
  -1.44999998E-03  -2.58609089E-05
  -1.39999995E-03  -2.62472950E-05
  -1.35000004E-03  -2.66382976E-05
  -1.30000000E-03  -2.70339660E-05
  -1.24999997E-03  -2.74343474E-05
  -1.20000006E-03  -2.78394764E-05
  -1.15000003E-03  -2.82493838E-05
  -1.09999999E-03  -2.86641134E-05
  -1.04999996E-03  -2.90837015E-05
  -1.00000005E-03  -2.95081882E-05
  -9.50000016E-04  -2.99376225E-05
  -8.99999985E-04  -3.03720317E-05
  -8.50000011E-04  -3.08114541E-05
  -7.99999980E-04  -3.12559350E-05
  -7.50000007E-04  -3.17055128E-05
  -6.99999975E-04  -3.21602274E-05
  -6.50000002E-04  -3.26201298E-05
  -6.00000028E-04  -3.30852563E-05
  -5.49999997E-04  -3.35556433E-05
  -5.00000024E-04  -3.40313418E-05
  -4.49999992E-04  -3.45123954E-05
  -3.99999990E-04  -3.49988441E-05
  -3.49999988E-04  -3.54907315E-05
  -3.00000014E-04  -3.59880978E-05
  -2.50000012E-04  -3.64909865E-05
  -1.99999995E-04  -3.69994377E-05
  -1.50000007E-04  -3.75135060E-05
  -9.99999975E-05  -3.80332276E-05
  -4.99999987E-05  -3.85586354E-05
   0.00000000      -3.90897731E-05
   4.99999987E-05  -3.96266878E-05
   9.99999975E-05  -4.01694269E-05
   1.50000007E-04  -4.07180341E-05
   1.99999995E-04  -4.12725421E-05
   2.50000012E-04  -4.18329801E-05
   3.00000014E-04  -4.23993843E-05
   3.49999988E-04  -4.29718057E-05
   3.99999990E-04  -4.35502989E-05
   4.49999992E-04  -4.41349075E-05
   5.00000024E-04  -4.47256825E-05
   5.49999997E-04  -4.53226348E-05
   6.00000028E-04  -4.59258081E-05
   6.50000002E-04  -4.65352641E-05
   6.99999975E-04  -4.71510648E-05
   7.50000007E-04  -4.77732356E-05
   7.99999980E-04  -4.84018092E-05
   8.50000011E-04  -4.90368293E-05
   8.99999985E-04  -4.96783614E-05
   9.50000016E-04  -5.03264564E-05
   1.00000005E-03  -5.09811507E-05
   1.04999996E-03  -5.16424734E-05
   1.09999999E-03  -5.23104791E-05
   1.15000003E-03  -5.29852114E-05
   1.20000006E-03  -5.36667139E-05
   1.24999997E-03  -5.43550123E-05
   1.30000000E-03  -5.50501572E-05
   1.35000004E-03  -5.57522035E-05
   1.39999995E-03  -5.64611728E-05
   1.44999998E-03  -5.71771161E-05
   1.50000001E-03  -5.79000734E-05
   1.55000004E-03  -5.86300885E-05
   1.59999996E-03  -5.93672121E-05
   1.64999999E-03  -6.01114807E-05
   1.70000002E-03  -6.08629343E-05
   1.75000005E-03  -6.16216275E-05
   1.79999997E-03  -6.23876113E-05
   1.85000000E-03  -6.31609364E-05
   1.90000003E-03  -6.39416394E-05
   1.94999995E-03  -6.47297566E-05
   2.00000009E-03  -6.55253389E-05
   2.05000001E-03  -6.63284445E-05
   2.09999993E-03  -6.71391390E-05
   2.15000007E-03  -6.79574296E-05
   2.19999999E-03  -6.87833599E-05
   2.24999990E-03  -6.96169809E-05
   2.30000005E-03  -7.04583508E-05
   2.34999997E-03  -7.13075351E-05
   2.40000011E-03  -7.21645774E-05
   2.45000003E-03  -7.30294851E-05
   2.49999994E-03  -7.39022798E-05
   2.55000009E-03  -7.47830418E-05
   2.60000001E-03  -7.56718437E-05
   2.64999992E-03  -7.65687219E-05
   2.70000007E-03  -7.74737127E-05
   2.74999999E-03  -7.83868236E-05
   2.79999990E-03  -7.93081417E-05