  -3.99999991E-02   0.00000000    
  -3.99499983E-02   0.00000000    
  -3.99000011E-02   0.00000000    
  -3.98500003E-02   0.00000000    
  -3.97999994E-02   3.70115606E-19
  -3.97499986E-02   3.26646469E-18
  -3.97000015E-02   1.45880266E-17
  -3.96500006E-02   4.33423748E-17
  -3.95999998E-02   9.37702927E-17
  -3.95499989E-02   1.48698804E-16
  -3.95000018E-02   1.51292035E-16
  -3.94500010E-02   2.18002479E-18
  -3.94000001E-02  -4.09102461E-16
  -3.93499993E-02  -1.13327121E-15
  -3.92999984E-02  -2.07480742E-15
  -3.92500013E-02  -2.94338338E-15
  -3.92000005E-02  -3.30377048E-15
  -3.91499996E-02  -2.74966016E-15
  -3.90999988E-02  -1.15264476E-15
  -3.90500017E-02   1.14017591E-15
  -3.90000008E-02   3.31226982E-15
  -3.89500000E-02   4.37184409E-15
  -3.88999991E-02   3.66672982E-15
  -3.88499983E-02   1.38910418E-15
  -3.88000011E-02  -1.23300945E-15
  -3.87500003E-02  -2.26870088E-15
  -3.86999995E-02   9.19009109E-17
  -3.86499986E-02   6.54921004E-15
  -3.86000015E-02   1.60527973E-14
  -3.85500006E-02   2.59635165E-14
  -3.84999998E-02   3.31482685E-14
  -3.84499989E-02   3.56469208E-14
  -3.84000018E-02   3.41312976E-14
  -3.83500010E-02   3.22867818E-14
  -3.83000001E-02   3.56284284E-14
  -3.82499993E-02   4.90161263E-14
  -3.81999984E-02   7.39121085E-14
  -3.81500013E-02   1.06789509E-13
  -3.81000005E-02   1.39766183E-13
  -3.80499996E-02   1.63562455E-13
  -3.79999988E-02   1.71685108E-13
  -3.79500017E-02   1.63920228E-13
  -3.79000008E-02   1.47254916E-13
  -3.78500000E-02   1.33352124E-13
  -3.77999991E-02   1.33314109E-13
  -3.77499983E-02   1.51957426E-13
  -3.77000012E-02   1.84401404E-13
  -3.76500003E-02   2.16992589E-13
  -3.75999995E-02   2.32650813E-13
  -3.75499986E-02   2.18489614E-13
  -3.75000015E-02   1.72177905E-13
  -3.74500006E-02   1.03791033E-13
  -3.73999998E-02   3.18555573E-14
  -3.73499990E-02  -2.49551102E-14
  -3.73000018E-02  -5.68071828E-14
  -3.72500010E-02  -6.81685272E-14
  -3.72000001E-02  -7.70078649E-14
  -3.71499993E-02  -1.07845705E-13
  -3.70999984E-02  -1.81673483E-13
  -3.70500013E-02  -3.07277180E-13
  -3.70000005E-02  -4.77834244E-13
  -3.69499996E-02  -6.74074511E-13
  -3.68999988E-02  -8.72131685E-13
  -3.68500017E-02  -1.05215131E-12
  -3.68000008E-02  -1.20384648E-12
  -3.67500000E-02  -1.32731890E-12
  -3.66999991E-02  -1.43019960E-12
  -3.66499983E-02  -1.52379108E-12
  -3.66000012E-02  -1.62048055E-12
  -3.65500003E-02  -1.73268518E-12
  -3.64999995E-02  -1.87154198E-12
  -3.64499986E-02  -2.04315211E-12
  -3.64000015E-02  -2.24210906E-12
  -3.63500006E-02  -2.44536140E-12
  -3.62999998E-02  -2.61188510E-12
  -3.62499990E-02  -2.69282361E-12
  -3.62000018E-02  -2.65182234E-12
  -3.61500010E-02  -2.48804926E-12
  -3.61000001E-02  -2.24894951E-12
  -3.60499993E-02  -2.02063279E-12
  -3.59999985E-02  -1.89276741E-12
  -3.59500013E-02  -1.90912564E-12
  -3.59000005E-02  -2.02732904E-12
  -3.58499996E-02  -2.11378614E-12
  -3.57999988E-02  -1.98779946E-12
  -3.57500017E-02  -1.50517229E-12
  -3.57000008E-02  -6.46687673E-13
  -3.56500000E-02   4.35692389E-13
  -3.55999991E-02   1.45183420E-12
  -3.55499983E-02   2.08926973E-12
  -3.55000012E-02   2.17150495E-12
  -3.54500003E-02   1.78516446E-12
  -3.53999995E-02   1.30062226E-12
  -3.53499986E-02   1.24916429E-12
  -3.53000015E-02   2.08690378E-12
  -3.52500007E-02   3.94220160E-12
  -3.51999998E-02   6.47353178E-12
  -3.51499990E-02   8.93495954E-12
  -3.51000018E-02   1.04596878E-11
  -3.50500010E-02   1.04622795E-11
  -3.50000001E-02   8.97956709E-12
  -3.49499993E-02   6.76624121E-12
  -3.48999985E-02   5.05052337E-12
  -3.48500013E-02   5.00983196E-12
  -3.48000005E-02   7.17894017E-12
  -3.47499996E-02   1.10754019E-11
  -3.46999988E-02   1.52676500E-11
  -3.46500017E-02   1.79272552E-11
  -3.46000008E-02   1.76703617E-11
  -3.45500000E-02   1.43156485E-11
  -3.44999991E-02   9.16680100E-12
  -3.44499983E-02   4.60210732E-12
  -3.44000012E-02   3.06538996E-12
  -3.43500003E-02   5.86615695E-12
  -3.42999995E-02   1.23554387E-11
  -3.42499986E-02   1.99438955E-11
  -3.42000015E-02   2.50809738E-11
  -3.41500007E-02   2.48545576E-11
  -3.40999998E-02   1.85121987E-11
  -3.40499990E-02   8.14136345E-12
  -3.40000018E-02  -1.94806476E-12
  -3.39500010E-02  -7.01963704E-12
  -3.39000002E-02  -4.16660066E-12
  -3.38499993E-02   6.01665245E-12
  -3.37999985E-02   1.92491353E-11
  -3.37500013E-02   2.91570518E-11
  -3.37000005E-02   3.01053973E-11
  -3.36499996E-02   2.00460100E-11
  -3.35999988E-02   1.99089551E-12
  -3.35500017E-02  -1.67893876E-11
  -3.35000008E-02  -2.77466227E-11
  -3.34500000E-02  -2.50421611E-11
  -3.33999991E-02  -8.72723161E-12
  -3.33499983E-02   1.45317413E-11
  -3.33000012E-02   3.38403680E-11
  -3.32500003E-02   3.88007508E-11
  -3.31999995E-02   2.45682762E-11
  -3.31499986E-02  -5.16596488E-12
  -3.31000015E-02  -3.89538193E-11
  -3.30500007E-02  -6.21931812E-11
  -3.29999998E-02  -6.37761857E-11
  -3.29499990E-02  -4.18106279E-11
  -3.29000019E-02  -5.55338804E-12
  -3.28500010E-02   2.77986124E-11
  -3.28000002E-02   4.04842132E-11
  -3.27499993E-02   2.26285466E-11
  -3.26999985E-02  -2.21784986E-11
  -3.26500013E-02  -7.71663289E-11
  -3.26000005E-02  -1.19019364E-10
  -3.25499997E-02  -1.28350691E-10
  -3.24999988E-02  -9.93906693E-11
  -3.24500017E-02  -4.41623682E-11
  -3.24000008E-02   1.14269410E-11
  -3.23500000E-02   3.85355081E-11
  -3.22999991E-02   1.88543139E-11
  -3.22499983E-02  -4.55936434E-11
  -3.22000012E-02  -1.31370206E-10
  -3.21500003E-02  -2.02633813E-10
  -3.20999995E-02  -2.26934416E-10
  -3.20499986E-02  -1.90916588E-10
  -3.20000015E-02  -1.08435663E-10
  -3.19500007E-02  -1.64950657E-11
  -3.18999998E-02   4.02134090E-11
  -3.18499990E-02   2.98785996E-11
  -3.18000019E-02  -5.00620274E-11
  -3.17500010E-02  -1.68930397E-10
  -3.17000002E-02  -2.74230444E-10
  -3.16499993E-02  -3.14471810E-10
  -3.15999985E-02  -2.63599587E-10
  -3.15500014E-02  -1.35591482E-10
  -3.15000005E-02   1.85728204E-11
  -3.14499997E-02   1.31694308E-10
  -3.13999988E-02   1.50613313E-10
  -3.13500017E-02   6.24605923E-11
  -3.13000008E-02  -9.58474550E-11
  -3.12500000E-02  -2.50780174E-10
  -3.11999992E-02  -3.23726518E-10
  -3.11500002E-02  -2.67549732E-10
  -3.10999993E-02  -9.13409487E-11
  -3.10500003E-02   1.39267195E-10
  -3.09999995E-02   3.28368360E-10
  -3.09500005E-02   3.92410993E-10
  -3.08999997E-02   3.00431818E-10
  -3.08500007E-02   9.27659616E-11
  -3.07999998E-02  -1.32276870E-10
  -3.07500008E-02  -2.60028082E-10
  -3.07000000E-02  -2.12020637E-10
  -3.06499992E-02   1.43485362E-11
  -3.06000002E-02   3.38673117E-10
  -3.05499993E-02   6.28752828E-10
  -3.05000003E-02   7.58440977E-10
  -3.04499995E-02   6.67010891E-10
  -3.04000005E-02   3.92335470E-10
  -3.03499997E-02   6.03938566E-11
  -3.03000007E-02  -1.67199782E-10
  -3.02499998E-02  -1.66158906E-10
  -3.02000009E-02   8.96657679E-11
  -3.01500000E-02   5.08942499E-10
  -3.00999992E-02   9.16995313E-10
  -3.00500002E-02   1.13127763E-09
  -2.99999993E-02   1.04585507E-09
  -2.99500003E-02   6.86090962E-10
  -2.98999995E-02   2.05932341E-10
  -2.98500005E-02  -1.74916054E-10
  -2.97999997E-02  -2.68783218E-10
  -2.97500007E-02  -9.61353219E-12
  -2.96999998E-02   5.07942077E-10
  -2.96500009E-02   1.06153097E-09
  -2.96000000E-02   1.39567347E-09
  -2.95499992E-02   1.33802325E-09
  -2.95000002E-02   8.84708362E-10
  -2.94499993E-02   2.13081122E-10
  -2.94000003E-02  -3.88759192E-10
  -2.93499995E-02  -6.48322673E-10
  -2.93000005E-02  -4.35909808E-10
  -2.92499997E-02   1.66321637E-10
  -2.92000007E-02   8.89091079E-10
  -2.91499998E-02   1.38894474E-09
  -2.91000009E-02   1.40257428E-09
  -2.90500000E-02   8.73580430E-10
  -2.89999992E-02  -8.71130772E-12
  -2.89500002E-02  -8.81725026E-10
  -2.88999993E-02  -1.36663070E-09
  -2.88500004E-02  -1.24235633E-09
  -2.87999995E-02  -5.57182689E-10
  -2.87500005E-02   3.77374160E-10
  -2.86999997E-02   1.11454801E-09
  -2.86500007E-02   1.27025268E-09
  -2.85999998E-02   7.03692771E-10
  -2.85500009E-02  -4.03684614E-10
  -2.85000000E-02  -1.61318159E-09
  -2.84499992E-02  -2.41607023E-09
  -2.84000002E-02  -2.46371124E-09
  -2.83499993E-02  -1.73696191E-09
  -2.83000004E-02  -5.73415038E-10
  -2.82499995E-02   4.68054373E-10
  -2.82000005E-02   8.52151849E-10
  -2.81499997E-02   3.14828413E-10
  -2.81000007E-02  -1.00003028E-09
  -2.80499998E-02  -2.58384203E-09
  -2.80000009E-02  -3.77644893E-09
  -2.79500000E-02  -4.06042222E-09
  -2.78999992E-02  -3.30577410E-09
  -2.78500002E-02  -1.85005589E-09
  -2.77999993E-02  -3.68308495E-10
  -2.77500004E-02   4.18626134E-10
  -2.76999995E-02   7.21881513E-11
  -2.76500005E-02  -1.34790579E-09
  -2.75999997E-02  -3.28456551E-09
  -2.75500007E-02  -4.91193664E-09
  -2.74999999E-02  -5.49872858E-09
  -2.74500009E-02  -4.74681361E-09
  -2.74000000E-02  -2.94887204E-09
  -2.73499992E-02  -8.83794815E-10
  -2.73000002E-02   5.15510856E-10
  -2.72499993E-02   5.81381610E-10
  -2.72000004E-02  -7.69619035E-10
  -2.71499995E-02  -2.96877323E-09
  -2.71000005E-02  -5.02179320E-09
  -2.70499997E-02  -5.94091754E-09
  -2.70000007E-02  -5.19528331E-09
  -2.69499999E-02  -2.97488767E-09
  -2.69000009E-02  -1.38656656E-10
  -2.68500000E-02   2.14490914E-09
  -2.67999992E-02   2.91536417E-09
  -2.67500002E-02   1.86776838E-09
  -2.66999993E-02  -4.77341611E-10
  -2.66500004E-02  -2.97204150E-09
  -2.65999995E-02  -4.33423830E-09
  -2.65500005E-02  -3.72520015E-09
  -2.64999997E-02  -1.15233556E-09
  -2.64500007E-02   2.49429855E-09
  -2.63999999E-02   5.80532555E-09
  -2.63500009E-02   7.46832463E-09
  -2.63000000E-02   6.86829793E-09
  -2.62499992E-02   4.39847980E-09
  -2.62000002E-02   1.32690559E-09
  -2.61499994E-02  -7.40814188E-10
  -2.61000004E-02  -5.76652837E-10
  -2.60499995E-02   2.09364770E-09
  -2.60000005E-02   6.42134745E-09
  -2.59499997E-02   1.07675131E-08
  -2.59000007E-02   1.34091467E-08
  -2.58499999E-02   1.33147084E-08
  -2.58000009E-02   1.06401874E-08
  -2.57500000E-02   6.70836542E-09
  -2.56999992E-02   3.45804141E-09
  -2.56500002E-02   2.58988964E-09
  -2.55999994E-02   4.78307527E-09
  -2.55500004E-02   9.34088451E-09
  -2.54999995E-02   1.44445629E-08
  -2.54500005E-02   1.79265278E-08
  -2.53999997E-02   1.82349034E-08
  -2.53500007E-02   1.51605981E-08
  -2.52999999E-02   9.98744554E-09
  -2.52500009E-02   4.97289943E-09
  -2.52000000E-02   2.36606046E-09
  -2.51499992E-02   3.38809358E-09
  -2.51000002E-02   7.63500196E-09
  -2.50499994E-02   1.31908076E-08
  -2.50000004E-02   1.74296257E-08
  -2.49499995E-02   1.81724911E-08
  -2.49000005E-02   1.46903156E-08
  -2.48499997E-02   8.09294409E-09
  -2.48000007E-02   9.03023600E-10
  -2.47499999E-02  -4.02617184E-09
  -2.47000009E-02  -4.78650808E-09
  -2.46500000E-02  -1.31542044E-09
  -2.45999992E-02   4.50142279E-09
  -2.45500002E-02   9.60415836E-09
  -2.44999994E-02   1.10952190E-08
  -2.44500004E-02   7.55705187E-09
  -2.43999995E-02  -2.45194698E-10
  -2.43500005E-02  -9.61834257E-09
  -2.42999997E-02  -1.70766903E-08
  -2.42500007E-02  -1.98807353E-08
  -2.41999999E-02  -1.73002253E-08
  -2.41500009E-02  -1.10201395E-08
  -2.41000000E-02  -4.47216042E-09
  -2.40499992E-02  -1.35095213E-09
  -2.40000002E-02  -3.95296329E-09
  -2.39499994E-02  -1.20807284E-08
  -2.39000004E-02  -2.30295196E-08
  -2.38499995E-02  -3.27047225E-08
  -2.38000005E-02  -3.74097482E-08
  -2.37499997E-02  -3.55235983E-08
  -2.37000007E-02  -2.83067756E-08
  -2.36499999E-02  -1.94380263E-08
  -2.36000009E-02  -1.34421319E-08
  -2.35500000E-02  -1.36754803E-08
  -2.34999992E-02  -2.07614299E-08
  -2.34500002E-02  -3.21986278E-08
  -2.33999994E-02  -4.33638263E-08
  -2.33500004E-02  -4.95099002E-08
  -2.32999995E-02  -4.78955435E-08
  -2.32500006E-02  -3.90911019E-08
  -2.31999997E-02  -2.68405849E-08
  -2.31500007E-02  -1.64879399E-08
  -2.30999999E-02  -1.26237429E-08
  -2.30500009E-02  -1.69845027E-08
  -2.30000000E-02  -2.75614358E-08
  -2.29499992E-02  -3.93654531E-08
  -2.29000002E-02  -4.65645655E-08
  -2.28499994E-02  -4.50803839E-08
  -2.28000004E-02  -3.44897977E-08
  -2.27499995E-02  -1.83488247E-08
  -2.27000006E-02  -2.73503420E-09
  -2.26499997E-02   6.39907061E-09
  -2.26000007E-02   5.91154681E-09
  -2.25499999E-02  -3.01410608E-09
  -2.25000009E-02  -1.52498920E-08
  -2.24500000E-02  -2.38965470E-08
  -2.23999992E-02  -2.33335946E-08
  -2.23500002E-02  -1.18026584E-08
  -2.22999994E-02   7.65700658E-09
  -2.22500004E-02   2.84008124E-08
  -2.21999995E-02   4.30367209E-08
  -2.21500006E-02   4.67191761E-08
  -2.20999997E-02   3.94097874E-08
  -2.20500007E-02   2.60499160E-08
  -2.19999999E-02   1.44948213E-08
  -2.19500009E-02   1.20628698E-08
  -2.19000001E-02   2.22072334E-08
  -2.18499992E-02   4.28142428E-08
  -2.18000002E-02   6.69510101E-08
  -2.17499994E-02   8.58090701E-08
  -2.17000004E-02   9.25923729E-08
  -2.16499995E-02   8.56298854E-08
  -2.16000006E-02   6.92841837E-08
  -2.15499997E-02   5.21727976E-08
  -2.15000007E-02   4.34137917E-08
  -2.14499999E-02   4.85213505E-08
  -2.14000009E-02   6.67887505E-08
  -2.13500001E-02   9.13868163E-08
  -2.12999992E-02   1.12222921E-07
  -2.12500002E-02   1.20362955E-07
  -2.11999994E-02   1.12075526E-07
  -2.11500004E-02   9.06645852E-08
  -2.10999995E-02   6.51938024E-08
  -2.10500006E-02   4.65773660E-08
  -2.09999997E-02   4.27139284E-08
  -2.09500007E-02   5.48248451E-08
  -2.08999999E-02   7.66843158E-08
  -2.08500009E-02   9.71798571E-08
  -2.08000001E-02   1.05154911E-07
  -2.07499992E-02   9.44243865E-08
  -2.07000002E-02   6.67104274E-08
  -2.06499994E-02   3.11116857E-08
  -2.06000004E-02   2.38170983E-10
  -2.05499995E-02  -1.53508157E-08
  -2.05000006E-02  -1.19534347E-08
  -2.04499997E-02   5.41030953E-09
  -2.04000007E-02   2.50050629E-08
  -2.03499999E-02   3.34711707E-08
  -2.03000009E-02   2.18012453E-08
  -2.02500001E-02  -1.04613500E-08
  -2.01999992E-02  -5.47446390E-08
  -2.01500002E-02  -9.70159704E-08
  -2.00999994E-02  -1.23909359E-07
  -2.00500004E-02  -1.28729724E-07
  -1.99999996E-02  -1.14628449E-07
  -1.99500006E-02  -9.34395601E-08
  -1.98999997E-02  -8.05744307E-08
  -1.98500007E-02  -8.81591262E-08
  -1.97999999E-02  -1.19451514E-07
  -1.97500009E-02  -1.67085943E-07
  -1.97000001E-02  -2.16043730E-07
  -1.96499992E-02  -2.50146087E-07
  -1.96000002E-02  -2.59248083E-07
  -1.95499994E-02  -2.43917782E-07
  -1.95000004E-02  -2.15427079E-07
  -1.94499996E-02  -1.90928830E-07
  -1.94000006E-02  -1.85858610E-07
  -1.93499997E-02  -2.06901092E-07
  -1.93000007E-02  -2.48699649E-07
  -1.92499999E-02  -2.95889237E-07
  -1.92000009E-02  -3.29681541E-07
  -1.91500001E-02  -3.36163907E-07
  -1.90999992E-02  -3.12626071E-07
  -1.90500002E-02  -2.69020120E-07
  -1.89999994E-02  -2.23769220E-07
  -1.89500004E-02  -1.95661514E-07
  -1.88999996E-02  -1.95370902E-07
  -1.88500006E-02  -2.20405596E-07
  -1.87999997E-02  -2.55842224E-07
  -1.87500007E-02  -2.80663812E-07
  -1.86999999E-02  -2.76996815E-07
  -1.86500009E-02  -2.38170770E-07
  -1.86000001E-02  -1.71951442E-07
  -1.85499992E-02  -9.73740768E-08
  -1.85000002E-02  -3.64406709E-08
  -1.84499994E-02  -4.28374047E-09
  -1.84000004E-02  -2.17669527E-09
  -1.83499996E-02  -1.65985519E-08
  -1.83000006E-02  -2.49208760E-08
  -1.82499997E-02  -5.32324629E-09
  -1.82000007E-02   5.34126166E-08
  -1.81499999E-02   1.46629731E-07
  -1.81000009E-02   2.55518358E-07
  -1.80500001E-02   3.55225950E-07
  -1.79999992E-02   4.25865267E-07
  -1.79500002E-02   4.61547017E-07
  -1.78999994E-02   4.73339469E-07
  -1.78500004E-02   4.84685359E-07
  -1.77999996E-02   5.21159791E-07
  -1.77500006E-02   5.99036355E-07
  -1.76999997E-02   7.17761282E-07
  -1.76500008E-02   8.59802242E-07
  -1.75999999E-02   9.98102905E-07
  -1.75500009E-02   1.10797043E-06
  -1.75000001E-02   1.17816148E-06
  -1.74499992E-02   1.21617870E-06
  -1.74000002E-02   1.24527628E-06
  -1.73499994E-02   1.29433602E-06
  -1.73000004E-02   1.38499956E-06
  -1.72499996E-02   1.52176847E-06
  -1.72000006E-02   1.68957058E-06
  -1.71499997E-02   1.86004627E-06
  -1.71000008E-02   2.00392037E-06
  -1.70499999E-02   2.10404119E-06
  -1.70000009E-02   2.16326248E-06
  -1.69500001E-02   2.20352058E-06
  -1.68999992E-02   2.25634722E-06
  -1.68500002E-02   2.34889126E-06
  -1.67999994E-02   2.49161531E-06
  -1.67500004E-02   2.67322025E-06
  -1.66999996E-02   2.86521504E-06
  -1.66500006E-02   3.03427555E-06
  -1.65999997E-02   3.15701755E-06
  -1.65500008E-02   3.23061136E-06
  -1.64999999E-02   3.27440625E-06
  -1.64500009E-02   3.32165700E-06
  -1.64000001E-02   3.40486758E-06
  -1.63499992E-02   3.54118629E-06
  -1.63000003E-02   3.72440331E-06
  -1.62499994E-02   3.92725133E-06
  -1.62000004E-02   4.11317114E-06
  -1.61499996E-02   4.25247890E-06
  -1.61000006E-02   4.33574814E-06
  -1.60499997E-02   4.37839162E-06
  -1.60000008E-02   4.41422071E-06
  -1.59499999E-02   4.48065293E-06
  -1.59000009E-02   4.60205320E-06
  -1.58500001E-02   4.77861067E-06
  -1.57999992E-02   4.98583131E-06
  -1.57500003E-02   5.18506931E-06
  -1.56999994E-02   5.34059245E-06
  -1.56500004E-02   5.43564374E-06
  -1.55999996E-02   5.48030357E-06
  -1.55499997E-02   5.50749974E-06
  -1.54999997E-02   5.55873794E-06
  -1.54499998E-02   5.66575591E-06
  -1.53999999E-02   5.83622614E-06
  -1.53500000E-02   6.04999013E-06
  -1.53000001E-02   6.26767087E-06
  -1.52500002E-02   6.44802731E-06
  -1.52000003E-02   6.56644124E-06
  -1.51500003E-02   6.62627872E-06
  -1.51000004E-02   6.65795642E-06
  -1.50499996E-02   6.70590543E-06
  -1.49999997E-02   6.80905032E-06
  -1.49499997E-02   6.98343956E-06
  -1.48999998E-02   7.21482866E-06
  -1.48499999E-02   7.46467913E-06
  -1.48000000E-02   7.68711743E-06
  -1.47500001E-02   7.84945041E-06
  -1.47000002E-02   7.94709285E-06
  -1.46500003E-02   8.00621456E-06
  -1.46000003E-02   8.07266406E-06
  -1.45500004E-02   8.19192519E-06
  -1.44999996E-02   8.38895357E-06
  -1.44499997E-02   8.65685342E-06
  -1.43999998E-02   8.95963058E-06
  -1.43499998E-02   9.24797314E-06
  -1.42999999E-02   9.48121215E-06
  -1.42500000E-02   9.64575884E-06
  -1.42000001E-02   9.76173487E-06
  -1.41500002E-02   9.87463227E-06
  -1.41000003E-02   1.00355073E-05
  -1.40500003E-02   1.02784315E-05
  -1.40000004E-02   1.06052121E-05
  -1.39499996E-02   1.09842631E-05
  -1.38999997E-02   1.13643882E-05
  -1.38499998E-02   1.16974952E-05
  -1.37999998E-02   1.19602582E-05
  -1.37499999E-02   1.21650273E-05
  -1.37000000E-02   1.23549526E-05
  -1.36500001E-02   1.25852948E-05
  -1.36000002E-02   1.28990450E-05
  -1.35500003E-02   1.33077110E-05
  -1.35000004E-02   1.37859452E-05
  -1.34500004E-02   1.42824729E-05
  -1.33999996E-02   1.47427518E-05
  -1.33499997E-02   1.51334316E-05
  -1.32999998E-02   1.54575573E-05
  -1.32499998E-02   1.57538452E-05
  -1.31999999E-02   1.60799864E-05
  -1.31500000E-02   1.64872454E-05
  -1.31000001E-02   1.69976720E-05
  -1.30500002E-02   1.75940077E-05
  -1.30000003E-02   1.82269559E-05
  -1.29500004E-02   1.88369468E-05
  -1.29000004E-02   1.93807300E-05
  -1.28499996E-02   1.98509097E-05
  -1.27999997E-02   2.02797983E-05
  -1.27499998E-02   2.07255944E-05
  -1.26999998E-02   2.12468440E-05
  -1.26499999E-02   2.18764471E-05
  -1.26000000E-02   2.26067950E-05
  -1.25500001E-02   2.33927894E-05
  -1.25000002E-02   2.41716334E-05
  -1.24500003E-02   2.48907400E-05
  -1.24000004E-02   2.55313771E-05
  -1.23500004E-02   2.61175555E-05
  -1.22999996E-02   2.67058767E-05
  -1.22499997E-02   2.73607566E-05
  -1.21999998E-02   2.81259636E-05
  -1.21499998E-02   2.90050175E-05
  -1.20999999E-02   2.99592866E-05
  -1.20500000E-02   3.09249117E-05
  -1.20000001E-02   3.18412021E-05
  -1.19500002E-02   3.26778427E-05
  -1.19000003E-02   3.34487959E-05
  -1.18500004E-02   3.42067542E-05
  -1.18000004E-02   3.50201772E-05
  -1.17499996E-02   3.59430196E-05
  -1.16999997E-02   3.69907939E-05
  -1.16499998E-02   3.81334175E-05
  -1.15999999E-02   3.93083428E-05
  -1.15499999E-02   4.04483071E-05
  -1.15000000E-02   4.15115319E-05
  -1.14500001E-02   4.25007129E-05
  -1.14000002E-02   4.34624671E-05
  -1.13500003E-02   4.44672369E-05
  -1.13000004E-02   4.55782429E-05
  -1.12500004E-02   4.68236540E-05
  -1.11999996E-02   4.81838979E-05
  -1.11499997E-02   4.96002176E-05
  -1.10999998E-02   5.10008431E-05
  -1.10499999E-02   5.23330309E-05
  -1.09999999E-02   5.35869658E-05
  -1.09500000E-02   5.48007883E-05
  -1.09000001E-02   5.60442786E-05
  -1.08500002E-02   5.73882608E-05
  -1.08000003E-02   5.88735238E-05
  -1.07500004E-02   6.04926536E-05
  -1.07000005E-02   6.21932704E-05
  -1.06499996E-02   6.39014324E-05
  -1.05999997E-02   6.55546901E-05
  -1.05499998E-02   6.71304006E-05
  -1.04999999E-02   6.86563872E-05
  -1.04499999E-02   7.01992467E-05
  -1.04000000E-02   7.18356387E-05
  -1.03500001E-02   7.36182847E-05
  -1.03000002E-02   7.55527144E-05
  -1.02500003E-02   7.75952576E-05
  -1.02000004E-02   7.96722961E-05
  -1.01500005E-02   8.17132823E-05
  -1.00999996E-02   8.36824838E-05
  -1.00499997E-02   8.55956387E-05
  -9.99999978E-03   8.75137412E-05
  -9.94999986E-03   8.95163903E-05
  -9.89999995E-03   9.16671634E-05
  -9.85000003E-03   9.39855599E-05
  -9.80000012E-03   9.64383362E-05
  -9.75000020E-03   9.89546388E-05
  -9.70000029E-03   1.01457830E-04
  -9.65000037E-03   1.03899918E-04
  -9.60000046E-03   1.06283340E-04
  -9.54999961E-03   1.08660672E-04
  -9.49999969E-03   1.11112218E-04
  -9.44999978E-03   1.13710630E-04
  -9.39999986E-03   1.16489187E-04
  -9.34999995E-03   1.19427561E-04
  -9.30000003E-03   1.22460784E-04
  -9.25000012E-03   1.25508479E-04
  -9.20000020E-03   1.28510917E-04
  -9.15000029E-03   1.31456414E-04
  -9.10000037E-03   1.34387228E-04
  -9.05000046E-03   1.37381387E-04
  -8.99999961E-03   1.40518780E-04
  -8.94999970E-03   1.43846148E-04
  -8.89999978E-03   1.47356419E-04
  -8.84999987E-03   1.50992622E-04
  -8.79999995E-03   1.54673442E-04
  -8.75000004E-03   1.58329261E-04
  -8.70000012E-03   1.61933931E-04
  -8.65000021E-03   1.65517471E-04
  -8.60000029E-03   1.69153122E-04
  -8.55000038E-03   1.72925647E-04
  -8.50000046E-03   1.76894086E-04
  -8.44999962E-03   1.81066207E-04
  -8.39999970E-03   1.85395300E-04
  -8.34999979E-03   1.89801227E-04
  -8.29999987E-03   1.94206572E-04
  -8.24999996E-03   1.98572045E-04
  -8.20000004E-03   2.02914394E-04
  -8.15000013E-03   2.07299337E-04
  -8.10000021E-03   2.11813414E-04
  -8.05000030E-03   2.16525863E-04
  -8.00000038E-03   2.21459151E-04
  -7.95000046E-03   2.26579214E-04
  -7.89999962E-03   2.31811064E-04
  -7.84999970E-03   2.37072658E-04
  -7.79999979E-03   2.42311376E-04
  -7.74999987E-03   2.47528660E-04
  -7.69999996E-03   2.52780068E-04
  -7.65000004E-03   2.58150831E-04
  -7.60000013E-03   2.63719296E-04
  -7.55000021E-03   2.69523036E-04
  -7.49999983E-03   2.75542261E-04
  -7.44999992E-03   2.81709450E-04
  -7.40000000E-03   2.87940289E-04
  -7.35000009E-03   2.94171565E-04
  -7.30000017E-03   3.00389453E-04
  -7.24999979E-03   3.06637055E-04
  -7.19999988E-03   3.12995544E-04
  -7.14999996E-03   3.19549319E-04
  -7.10000005E-03   3.26349749E-04
  -7.05000013E-03   3.33392585E-04
  -7.00000022E-03   3.40621191E-04
  -6.94999984E-03   3.47950554E-04
  -6.89999992E-03   3.55307915E-04
  -6.85000001E-03   3.62665160E-04
  -6.80000009E-03   3.70050984E-04
  -6.75000018E-03   3.77540797E-04
  -6.69999979E-03   3.85223015E-04
  -6.64999988E-03   3.93159949E-04
  -6.59999996E-03   4.01362660E-04
  -6.55000005E-03   4.09786560E-04
  -6.50000013E-03   4.18351556E-04
  -6.45000022E-03   4.26978688E-04
  -6.39999984E-03   4.35625669E-04
  -6.34999992E-03   4.44307341E-04
  -6.30000001E-03   4.53088753E-04
  -6.25000009E-03   4.62057767E-04
  -6.20000018E-03   4.71287145E-04
  -6.14999980E-03   4.80802875E-04
  -6.09999988E-03   4.90575098E-04
  -6.04999997E-03   5.00530645E-04
  -6.00000005E-03   5.10585844E-04
  -5.95000014E-03   5.20686910E-04
  -5.90000022E-03   5.30832447E-04
  -5.84999984E-03   5.41075016E-04
  -5.79999993E-03   5.51499194E-04
  -5.75000001E-03   5.62184141E-04
  -5.70000010E-03   5.73171827E-04
  -5.65000018E-03   5.84447000E-04
  -5.59999980E-03   5.95945690E-04
  -5.54999989E-03   6.07585651E-04
  -5.49999997E-03   6.19302387E-04
  -5.45000006E-03   6.31079020E-04
  -5.40000014E-03   6.42953615E-04
  -5.35000023E-03   6.55003067E-04
  -5.29999984E-03   6.67311193E-04
  -5.24999993E-03   6.79933000E-04
  -5.20000001E-03   6.92870177E-04
  -5.15000010E-03   7.06072256E-04
  -5.10000018E-03   7.19458621E-04
  -5.04999980E-03   7.32955348E-04
  -4.99999989E-03   7.46529608E-04
  -4.94999997E-03   7.60203286E-04
  -4.90000006E-03   7.74046057E-04
  -4.85000014E-03   7.88142963E-04
  -4.80000023E-03   8.02558323E-04
  -4.74999985E-03   8.17309599E-04
  -4.69999993E-03   8.32358084E-04
  -4.65000002E-03   8.47630086E-04
  -4.60000010E-03   8.63049587E-04
  -4.55000019E-03   8.78570834E-04
  -4.49999981E-03   8.94197670E-04
  -4.44999989E-03   9.09985916E-04
  -4.39999998E-03   9.26017587E-04
  -4.35000006E-03   9.42364743E-04
  -4.30000015E-03   9.59061319E-04
  -4.25000023E-03   9.76085837E-04
  -4.19999985E-03   9.93373338E-04
  -4.14999994E-03   1.01084530E-03
  -4.10000002E-03   1.02844310E-03
  -4.05000011E-03   1.04615418E-03
  -4.00000019E-03   1.06401963E-03
  -3.94999981E-03   1.08211464E-03
  -3.89999989E-03   1.10051641E-03
  -3.84999998E-03   1.11927197E-03
  -3.80000006E-03   1.13837793E-03
  -3.74999992E-03   1.15778204E-03
  -3.70000000E-03   1.17740838E-03
  -3.65000009E-03   1.19718898E-03
  -3.59999994E-03   1.21709332E-03
  -3.55000002E-03   1.23714213E-03
  -3.50000011E-03   1.25740073E-03
  -3.44999996E-03   1.27794791E-03
  -3.40000005E-03   1.29884237E-03
  -3.34999990E-03   1.32009864E-03
  -3.29999998E-03   1.34167983E-03
  -3.25000007E-03   1.36351807E-03
  -3.19999992E-03   1.38553814E-03
  -3.15000000E-03   1.40769326E-03
  -3.10000009E-03   1.42998784E-03
  -3.04999994E-03   1.45247183E-03
  -3.00000003E-03   1.47521961E-03
  -2.95000011E-03   1.49830082E-03
  -2.89999996E-03   1.52174942E-03
  -2.85000005E-03   1.54554506E-03
  -2.79999990E-03   1.56962522E-03
  -2.74999999E-03   1.59391481E-03
  -2.70000007E-03   1.61835179E-03
  -2.64999992E-03   1.64291332E-03
  -2.60000001E-03   1.66763575E-03
  -2.55000009E-03   1.69259310E-03
  -2.49999994E-03   1.71785988E-03
  -2.45000003E-03   1.74348603E-03
  -2.40000011E-03   1.76947052E-03
  -2.34999997E-03   1.79576315E-03
  -2.30000005E-03   1.82228407E-03
  -2.24999990E-03   1.84895890E-03
  -2.19999999E-03   1.87574851E-03
  -2.15000007E-03   1.90266955E-03
  -2.09999993E-03   1.92978489E-03
  -2.05000001E-03   1.95717462E-03
  -2.00000009E-03   1.98490801E-03
  -1.94999995E-03   2.01300066E-03
  -1.90000003E-03   2.04141135E-03
  -1.85000000E-03   2.07006466E-03
  -1.79999997E-03   2.09887745E-03
  -1.75000005E-03   2.12779292E-03
  -1.70000002E-03   2.15681084E-03
  -1.64999999E-03   2.18598126E-03
  -1.59999996E-03   2.21538194E-03
  -1.55000004E-03   2.24508485E-03
  -1.50000001E-03   2.27512722E-03
  -1.44999998E-03   2.30549346E-03
  -1.39999995E-03   2.33611395E-03
  -1.35000004E-03   2.36689672E-03
  -1.30000000E-03   2.39777029E-03
  -1.24999997E-03   2.42870790E-03
  -1.20000006E-03   2.45973491E-03
  -1.15000003E-03   2.49092304E-03
  -1.09999999E-03   2.52236170E-03
  -1.04999996E-03   2.55410466E-03
  -1.00000005E-03   2.58615566E-03
  -9.50000016E-04   2.61846697E-03
  -8.99999985E-04   2.65094312E-03
  -8.50000011E-04   2.68348772E-03
  -7.99999980E-04   2.71604839E-03
  -7.50000007E-04   2.74863443E-03
  -6.99999975E-04   2.78130895E-03
  -6.50000002E-04   2.81416485E-03
  -6.00000028E-04   2.84728059E-03
  -5.49999997E-04   2.88067921E-03
  -5.00000024E-04   2.91432231E-03
  -4.49999992E-04   2.94811768E-03
  -3.99999990E-04   2.98195775E-03
  -3.49999988E-04   3.01576452E-03
  -3.00000014E-04   3.04951891E-03
  -2.50000012E-04   3.08326585E-03
  -1.99999995E-04   3.11709405E-03
  -1.50000007E-04   3.15109966E-03
  -9.99999975E-05   3.18534533E-03
  -4.99999987E-05   3.21981614E-03
   0.00000000       3.25442478E-03
   4.99999987E-05   3.28904786E-03
   9.99999975E-05   3.32356920E-03
   1.50000007E-04   3.35794478E-03
   1.99999995E-04   3.39221396E-03
   2.50000012E-04   3.42646381E-03
   3.00000014E-04   3.46080191E-03
   3.49999988E-04   3.49530694E-03
   3.99999990E-04   3.52998381E-03
   4.49999992E-04   3.56475427E-03
   5.00000024E-04   3.59949330E-03
   5.49999997E-04   3.63407680E-03
   6.00000028E-04   3.66842467E-03
   6.50000002E-04   3.70254321E-03
   6.99999975E-04   3.73651483E-03
   7.50000007E-04   3.77045688E-03
   7.99999980E-04   3.80446319E-03
   8.50000011E-04   3.83856683E-03
   8.99999985E-04   3.87272006E-03
   9.50000016E-04   3.90678970E-03
   1.00000005E-03   3.94062465E-03
   1.04999996E-03   3.97413410E-03
   1.09999999E-03   4.00729058E-03
   1.15000003E-03   4.04014392E-03
   1.20000006E-03   4.07280913E-03
   1.24999997E-03   4.10540402E-03
   1.30000000E-03   4.13798541E-03
   1.35000004E-03   4.17053280E-03
   1.39999995E-03   4.20294330E-03
   1.44999998E-03   4.23505856E-03
   1.50000001E-03   4.26674075E-03
   1.55000004E-03   4.29793587E-03
   1.59999996E-03   4.32866905E-03
   1.64999999E-03   4.35903342E-03
   1.70000002E-03   4.38915938E-03
   1.75000005E-03   4.41914052E-03
   1.79999997E-03   4.44898568E-03
   1.85000000E-03   4.47860826E-03
   1.90000003E-03   4.50787088E-03
   1.94999995E-03   4.53662360E-03
   2.00000009E-03   4.56474815E-03
   2.05000001E-03   4.59219981E-03
   2.09999993E-03   4.61904518E-03
   2.15000007E-03   4.64543654E-03
   2.19999999E-03   4.67151403E-03
   2.24999990E-03   4.69734473E-03
   2.30000005E-03   4.72288346E-03
   2.34999997E-03   4.74798121E-03
   2.40000011E-03   4.77244565E-03
   2.45000003E-03   4.79611196E-03
   2.49999994E-03   4.81890980E-03
   2.55000009E-03   4.84087784E-03
   2.60000001E-03   4.86215809E-03
   2.64999992E-03   4.88292333E-03
   2.70000007E-03   4.90326900E-03
   2.74999999E-03   4.92321001E-03
   2.79999990E-03   4.94264718E-03