  -3.99999991E-02   0.00000000    
  -3.99499983E-02   0.00000000    
  -3.99000011E-02   0.00000000    
  -3.98500003E-02  -4.25977131E-16
  -3.97999994E-02  -2.05636645E-15
  -3.97499986E-02  -5.24166265E-15
  -3.97000015E-02  -9.56289694E-15
  -3.96500006E-02  -1.47506434E-14
  -3.95999998E-02  -2.17492667E-14
  -3.95499989E-02  -3.20786861E-14
  -3.95000018E-02  -4.57247663E-14
  -3.94500010E-02  -6.02364296E-14
  -3.94000001E-02  -7.28601275E-14
  -3.93499993E-02  -8.37629865E-14
  -3.92999984E-02  -9.63988207E-14
  -3.92500013E-02  -1.14019972E-13
  -3.92000005E-02  -1.36119523E-13
  -3.91499996E-02  -1.59100977E-13
  -3.90999988E-02  -1.80486783E-13
  -3.90500017E-02  -2.01429612E-13
  -3.90000008E-02  -2.24183533E-13
  -3.89500000E-02  -2.47629011E-13
  -3.88999991E-02  -2.66842538E-13
  -3.88499983E-02  -2.77886140E-13
  -3.88000011E-02  -2.82090838E-13
  -3.87500003E-02  -2.84037306E-13
  -3.86999995E-02  -2.84996473E-13
  -3.86499986E-02  -2.79665234E-13
  -3.86000015E-02  -2.60613308E-13
  -3.85500006E-02  -2.25502952E-13
  -3.84999998E-02  -1.78314408E-13
  -3.84499989E-02  -1.22756690E-13
  -3.84000018E-02  -5.56805917E-14
  -3.83500010E-02   3.13163903E-14
  -3.83000001E-02   1.43718587E-13
  -3.82499993E-02   2.79121886E-13
  -3.81999984E-02   4.31463947E-13
  -3.81500013E-02   5.99135433E-13
  -3.81000005E-02   7.86794024E-13
  -3.80499996E-02   9.98675968E-13
  -3.79999988E-02   1.23226841E-12
  -3.79500017E-02   1.48131323E-12
  -3.79000008E-02   1.74546684E-12
  -3.78500000E-02   2.03472785E-12
  -3.77999991E-02   2.36189280E-12
  -3.77499983E-02   2.73033419E-12
  -3.77000012E-02   3.13050020E-12
  -3.76500003E-02   3.54895171E-12
  -3.75999995E-02   3.97963086E-12
  -3.75499986E-02   4.42519849E-12
  -3.75000015E-02   4.88863117E-12
  -3.74500006E-02   5.36656700E-12
  -3.73999998E-02   5.85234942E-12
  -3.73499990E-02   6.34316471E-12
  -3.73000018E-02   6.83967986E-12
  -3.72500010E-02   7.33631558E-12
  -3.72000001E-02   7.81398644E-12
  -3.71499993E-02   8.24707750E-12
  -3.70999984E-02   8.62112898E-12
  -3.70500013E-02   8.94447277E-12
  -3.70000005E-02   9.24179570E-12
  -3.69499996E-02   9.53546010E-12
  -3.68999988E-02   9.83127902E-12
  -3.68500017E-02   1.01181060E-11
  -3.68000008E-02   1.03750732E-11
  -3.67500000E-02   1.05755283E-11
  -3.66999991E-02   1.06868646E-11
  -3.66499983E-02   1.06755186E-11
  -3.66000012E-02   1.05217371E-11
  -3.65500003E-02   1.02337817E-11
  -3.64999995E-02   9.84521405E-12
  -3.64499986E-02   9.39192994E-12
  -3.64000015E-02   8.88532130E-12
  -3.63500006E-02   8.30291391E-12
  -3.62999998E-02   7.60237706E-12
  -3.62499990E-02   6.74526884E-12
  -3.62000018E-02   5.71291842E-12
  -3.61500010E-02   4.50933258E-12
  -3.61000001E-02   3.15792748E-12
  -3.60499993E-02   1.69716107E-12
  -3.59999985E-02   1.70886539E-13
  -3.59500013E-02  -1.39132369E-12
  -3.59000005E-02  -2.99614240E-12
  -3.58499996E-02  -4.69207442E-12
  -3.57999988E-02  -6.54686418E-12
  -3.57500017E-02  -8.60710201E-12
  -3.57000008E-02  -1.08670043E-11
  -3.56500000E-02  -1.32673855E-11
  -3.55999991E-02  -1.57231606E-11
  -3.55499983E-02  -1.81596248E-11
  -3.55000012E-02  -2.05384234E-11
  -3.54500003E-02  -2.28666721E-11
  -3.53999995E-02  -2.51915242E-11
  -3.53499986E-02  -2.75809792E-11
  -3.53000015E-02  -3.00906661E-11
  -3.52500007E-02  -3.27246563E-11
  -3.51999998E-02  -3.54114411E-11
  -3.51499990E-02  -3.80165170E-11
  -3.51000018E-02  -4.03929806E-11
  -3.50500010E-02  -4.24442460E-11
  -3.50000001E-02  -4.41622086E-11
  -3.49499993E-02  -4.56195776E-11
  -3.48999985E-02  -4.69240272E-11
  -3.48500013E-02  -4.81606664E-11
  -3.48000005E-02  -4.93483379E-11
  -3.47499996E-02  -5.04226765E-11
  -3.46999988E-02  -5.12491195E-11
  -3.46500017E-02  -5.16643985E-11
  -3.46000008E-02  -5.15373369E-11
  -3.45500000E-02  -5.08260239E-11
  -3.44999991E-02  -4.95994287E-11
  -3.44499983E-02  -4.80029939E-11
  -3.44000012E-02  -4.61794249E-11
  -3.43500003E-02  -4.41865780E-11
  -3.42999995E-02  -4.19586761E-11
  -3.42499986E-02  -3.93308545E-11
  -3.42000015E-02  -3.61102745E-11
  -3.41500007E-02  -3.21562221E-11
  -3.40999998E-02  -2.74353769E-11
  -3.40499990E-02  -2.20349676E-11
  -3.40000018E-02  -1.61307148E-11
  -3.39500010E-02  -9.91704982E-12
  -3.39000002E-02  -3.52103698E-12
  -3.38499993E-02   3.06245025E-12
  -3.37999985E-02   9.97452208E-12
  -3.37500013E-02   1.74209657E-11
  -3.37000005E-02   2.55565326E-11
  -3.36499996E-02   3.43872118E-11
  -3.35999988E-02   4.37454378E-11
  -3.35500017E-02   5.33495782E-11
  -3.35000008E-02   6.29134453E-11
  -3.34500000E-02   7.22523916E-11
  -3.33999991E-02   8.13445145E-11
  -3.33499983E-02   9.03282310E-11
  -3.33000012E-02   9.94357791E-11
  -3.32500003E-02   1.08879288E-10
  -3.31999995E-02   1.18728055E-10
  -3.31499986E-02   1.28834513E-10
  -3.31000015E-02   1.38857259E-10
  -3.30500007E-02   1.48382487E-10
  -3.29999998E-02   1.57085803E-10
  -3.29499990E-02   1.64848427E-10
  -3.29000019E-02   1.71769723E-10
  -3.28500010E-02   1.78078760E-10
  -3.28000002E-02   1.83996818E-10
  -3.27499993E-02   1.89613478E-10
  -3.26999985E-02   1.94820007E-10
  -3.26500013E-02   1.99320796E-10
  -3.26000005E-02   2.02724559E-10
  -3.25499997E-02   2.04691014E-10
  -3.24999988E-02   2.05075026E-10
  -3.24500017E-02   2.03991546E-10
  -3.24000008E-02   2.01753211E-10
  -3.23500000E-02   1.98703373E-10
  -3.22999991E-02   1.95032324E-10
  -3.22499983E-02   1.90675156E-10
  -3.22000012E-02   1.85337107E-10
  -3.21500003E-02   1.78620840E-10
  -3.20999995E-02   1.70189585E-10
  -3.20499986E-02   1.59901481E-10
  -3.20000015E-02   1.47871729E-10
  -3.19500007E-02   1.34437558E-10
  -3.18999998E-02   1.20025892E-10
  -3.18499990E-02   1.04964863E-10
  -3.18000019E-02   8.93255053E-11
  -3.17500010E-02   7.28852256E-11
  -3.17000002E-02   5.52461583E-11
  -3.16499993E-02   3.60514257E-11
  -3.15999985E-02   1.51832314E-11
  -3.15500014E-02  -7.15519397E-12
  -3.15000005E-02  -3.05005882E-11
  -3.14499997E-02  -5.42902286E-11
  -3.13999988E-02  -7.80515999E-11
  -3.13500017E-02  -1.01555465E-10
  -3.13000008E-02  -1.24879815E-10
  -3.12500000E-02  -1.48349208E-10
  -3.11999992E-02  -1.72353673E-10
  -3.11500002E-02  -1.97115976E-10
  -3.10999993E-02  -2.22522112E-10
  -3.10500003E-02  -2.48112558E-10
  -3.09999995E-02  -2.73243594E-10
  -3.09500005E-02  -2.97331049E-10
  -3.08999997E-02  -3.20050569E-10
  -3.08500007E-02  -3.41407735E-10
  -3.07999998E-02  -3.61667474E-10
  -3.07500008E-02  -3.81186444E-10
  -3.07000000E-02  -4.00213085E-10
  -3.06499992E-02  -4.18722834E-10
  -3.06000002E-02  -4.36355840E-10
  -3.05499993E-02  -4.52501037E-10
  -3.05000003E-02  -4.66509942E-10
  -3.04499995E-02  -4.77945239E-10
  -3.04000005E-02  -4.86733709E-10
  -3.03499997E-02  -4.93138752E-10
  -3.03000007E-02  -4.97572483E-10
  -3.02499998E-02  -5.00352038E-10
  -3.02000009E-02  -5.01520492E-10
  -3.01500000E-02  -5.00800290E-10
  -3.00999992E-02  -4.97681507E-10
  -3.00500002E-02  -4.91604590E-10
  -2.99999993E-02  -4.82175411E-10
  -2.99500003E-02  -4.69334016E-10
  -2.98999995E-02  -4.53395460E-10
  -2.98500005E-02  -4.34921543E-10
  -2.97999997E-02  -4.14463242E-10
  -2.97500007E-02  -3.92297084E-10
  -2.96999998E-02  -3.68292008E-10
  -2.96500009E-02  -3.41974449E-10
  -2.96000000E-02  -3.12749465E-10
  -2.95499992E-02  -2.80165890E-10
  -2.95000002E-02  -2.44110343E-10
  -2.94499993E-02  -2.04866679E-10
  -2.94000003E-02  -1.63029618E-10
  -2.93499995E-02  -1.19303525E-10
  -2.93000005E-02  -7.42527914E-11
  -2.92499997E-02  -2.81017622E-11
  -2.92000007E-02   1.93161771E-11
  -2.91499998E-02   6.84188747E-11
  -2.91000009E-02   1.19602425E-10
  -2.90500000E-02   1.72971429E-10
  -2.89999992E-02   2.28208744E-10
  -2.89500002E-02   2.84640395E-10
  -2.88999993E-02   3.41449813E-10
  -2.88500004E-02   3.97934380E-10
  -2.87999995E-02   4.53701410E-10
  -2.87500005E-02   5.08736775E-10
  -2.86999997E-02   5.63324221E-10
  -2.86500007E-02   6.17837170E-10
  -2.85999998E-02   6.72474521E-10
  -2.85500009E-02   7.27052862E-10
  -2.85000000E-02   7.80964404E-10
  -2.84499992E-02   8.33335734E-10
  -2.84000002E-02   8.83316309E-10
  -2.83499993E-02   9.30350796E-10
  -2.83000004E-02   9.74303194E-10
  -2.82499995E-02   1.01538555E-09
  -2.82000005E-02   1.05394216E-09
  -2.81499997E-02   1.09019449E-09
  -2.81000007E-02   1.12404464E-09
  -2.80499998E-02   1.15501064E-09
  -2.80000009E-02   1.18232213E-09
  -2.79500000E-02   1.20515653E-09
  -2.78999992E-02   1.22293220E-09
  -2.78500002E-02   1.23552435E-09
  -2.77999993E-02   1.24328636E-09
  -2.77500004E-02   1.24684807E-09
  -2.76999995E-02   1.24678612E-09
  -2.76500005E-02   1.24332811E-09
  -2.75999997E-02   1.23623090E-09
  -2.75500007E-02   1.22487032E-09
  -2.74999999E-02   1.20848875E-09
  -2.74500009E-02   1.18649202E-09
  -2.74000000E-02   1.15868948E-09
  -2.73499992E-02   1.12539023E-09
  -2.73000002E-02   1.08730891E-09
  -2.72499993E-02   1.04529430E-09
  -2.72000004E-02   9.99985317E-10
  -2.71499995E-02   9.51556833E-10
  -2.71000005E-02   8.99689045E-10
  -2.70499997E-02   8.43783765E-10
  -2.70000007E-02   7.83313692E-10
  -2.69499999E-02   7.18126336E-10
  -2.69000009E-02   6.48570642E-10
  -2.68500000E-02   5.75413550E-10
  -2.67999992E-02   4.99602859E-10
  -2.67500002E-02   4.21974566E-10
  -2.66999993E-02   3.43004541E-10
  -2.66500004E-02   2.62705135E-10
  -2.65999995E-02   1.80725587E-10
  -2.65500005E-02   9.66419930E-11
  -2.64999997E-02   1.03074450E-11
  -2.64500007E-02  -7.79208711E-11
  -2.63999999E-02  -1.67207581E-10
  -2.63500009E-02  -2.56504928E-10
  -2.63000000E-02  -3.44913681E-10
  -2.62499992E-02  -4.31958275E-10
  -2.62000002E-02  -5.17665855E-10
  -2.61499994E-02  -6.02439210E-10
  -2.61000004E-02  -6.86790402E-10
  -2.60499995E-02  -7.71022413E-10
  -2.60000005E-02  -8.54978643E-10
  -2.59499997E-02  -9.37966815E-10
  -2.59000007E-02  -1.01892950E-09
  -2.58499999E-02  -1.09680942E-09
  -2.58000009E-02  -1.17093646E-09
  -2.57500000E-02  -1.24123689E-09
  -2.56999992E-02  -1.30815014E-09
  -2.56500002E-02  -1.37231981E-09
  -2.55999994E-02  -1.43422108E-09
  -2.55500004E-02  -1.49390200E-09
  -2.54999995E-02  -1.55092439E-09
  -2.54500005E-02  -1.60450231E-09
  -2.53999997E-02  -1.65378733E-09
  -2.53500007E-02  -1.69820524E-09
  -2.52999999E-02  -1.73771364E-09
  -2.52500009E-02  -1.77285042E-09
  -2.52000000E-02  -1.80451487E-09
  -2.51499992E-02  -1.83357218E-09
  -2.51000002E-02  -1.86047844E-09
  -2.50499994E-02  -1.88512717E-09
  -2.50000004E-02  -1.90697369E-09
  -2.49499995E-02  -1.92534944E-09
  -2.49000005E-02  -1.93979455E-09
  -2.48499997E-02  -1.95027572E-09
  -2.48000007E-02  -1.95722816E-09
  -2.47499999E-02  -1.96142969E-09
  -2.47000009E-02  -1.96374117E-09
  -2.46500000E-02  -1.96480965E-09
  -2.45999992E-02  -1.96486449E-09
  -2.45500002E-02  -1.96372607E-09
  -2.44999994E-02  -1.96105243E-09
  -2.44500004E-02  -1.95668770E-09
  -2.43999995E-02  -1.95092031E-09
  -2.43500005E-02  -1.94451433E-09
  -2.42999997E-02  -1.93849892E-09
  -2.42500007E-02  -1.93386773E-09
  -2.41999999E-02  -1.93132177E-09
  -2.41500009E-02  -1.93115213E-09
  -2.41000000E-02  -1.93328420E-09
  -2.40499992E-02  -1.93746019E-09
  -2.40000002E-02  -1.94351690E-09
  -2.39499994E-02  -1.95165706E-09
  -2.39000004E-02  -1.96257455E-09
  -2.38499995E-02  -1.97735117E-09
  -2.38000005E-02  -1.99716066E-09
  -2.37499997E-02  -2.02293093E-09
  -2.37000007E-02  -2.05515049E-09
  -2.36499999E-02  -2.09389794E-09
  -2.36000009E-02  -2.13905027E-09
  -2.35500000E-02  -2.19054153E-09
  -2.34999992E-02  -2.24855534E-09
  -2.34500002E-02  -2.31360242E-09
  -2.33999994E-02  -2.38645859E-09
  -2.33500004E-02  -2.46802534E-09
  -2.32999995E-02  -2.55911625E-09
  -2.32500006E-02  -2.66027045E-09
  -2.31999997E-02  -2.77169221E-09
  -2.31500007E-02  -2.89336510E-09
  -2.30999999E-02  -3.02526915E-09
  -2.30500009E-02  -3.16759352E-09
  -2.30000000E-02  -3.32079320E-09
  -2.29499992E-02  -3.48548967E-09
  -2.29000002E-02  -3.66230024E-09
  -2.28499994E-02  -3.85169940E-09
  -2.28000004E-02  -4.05397893E-09
  -2.27499995E-02  -4.26929914E-09
  -2.27000006E-02  -4.49774573E-09
  -2.26499997E-02  -4.73943507E-09
  -2.26000007E-02  -4.99460251E-09
  -2.25499999E-02  -5.26366328E-09
  -2.25000009E-02  -5.54716628E-09
  -2.24500000E-02  -5.84566529E-09
  -2.23999992E-02  -6.15956353E-09
  -2.23500002E-02  -6.48905996E-09
  -2.22999994E-02  -6.83424517E-09
  -2.22500004E-02  -7.19527860E-09
  -2.21999995E-02  -7.57250707E-09
  -2.21500006E-02  -7.96644972E-09
  -2.20999997E-02  -8.37771008E-09
  -2.20500007E-02  -8.80686279E-09
  -2.19999999E-02  -9.25437860E-09
  -2.19500009E-02  -9.72060299E-09
  -2.19000001E-02  -1.02057562E-08
  -2.18499992E-02  -1.07099654E-08
  -2.18000002E-02  -1.12334035E-08
  -2.17499994E-02  -1.17764127E-08
  -2.17000004E-02  -1.23395756E-08
  -2.16499995E-02  -1.29236213E-08
  -2.16000006E-02  -1.35292701E-08
  -2.15499997E-02  -1.41570968E-08
  -2.15000007E-02  -1.48075374E-08
  -2.14499999E-02  -1.54810103E-08
  -2.14000009E-02  -1.61780953E-08
  -2.13500001E-02  -1.68995964E-08
  -2.12999992E-02  -1.76465011E-08
  -2.12500002E-02  -1.84198541E-08
  -2.11999994E-02  -1.92205949E-08
  -2.11500004E-02  -2.00494075E-08
  -2.10999995E-02  -2.09066666E-08
  -2.10500006E-02  -2.17924683E-08
  -2.09999997E-02  -2.27068018E-08
  -2.09500007E-02  -2.36498412E-08
  -2.08999999E-02  -2.46222491E-08
  -2.08500009E-02  -2.56252122E-08
  -2.08000001E-02  -2.66602420E-08
  -2.07499992E-02  -2.77288041E-08
  -2.07000002E-02  -2.88319892E-08
  -2.06499994E-02  -2.99703871E-08
  -2.06000004E-02  -3.11441930E-08
  -2.05499995E-02  -3.23534444E-08
  -2.05000006E-02  -3.35983472E-08
  -2.04499997E-02  -3.48794487E-08
  -2.04000007E-02  -3.61978394E-08
  -2.03499999E-02  -3.75549725E-08
  -2.03000009E-02  -3.89523294E-08
  -2.02500001E-02  -4.03910114E-08
  -2.01999992E-02  -4.18714485E-08
  -2.01500002E-02  -4.33935199E-08
  -2.00999994E-02  -4.49568027E-08
  -2.00500004E-02  -4.65611585E-08
  -1.99999996E-02  -4.82069993E-08
  -1.99500006E-02  -4.98953625E-08
  -1.98999997E-02  -5.16277190E-08
  -1.98500007E-02  -5.34055360E-08
  -1.97999999E-02  -5.52298403E-08
  -1.97500009E-02  -5.71010119E-08
  -1.97000001E-02  -5.90188236E-08
  -1.96499992E-02  -6.09826856E-08
  -1.96000002E-02  -6.29921075E-08
  -1.95499994E-02  -6.50472529E-08
  -1.95000004E-02  -6.71491378E-08
  -1.94499996E-02  -6.92993964E-08
  -1.94000006E-02  -7.14997057E-08
  -1.93499997E-02  -7.37511172E-08
  -1.93000007E-02  -7.60537588E-08
  -1.92499999E-02  -7.84069556E-08
  -1.92000009E-02  -8.08097766E-08
  -1.91500001E-02  -8.32615044E-08
  -1.90999992E-02  -8.57621103E-08
  -1.90500002E-02  -8.83125324E-08
  -1.89999994E-02  -9.09145186E-08
  -1.89500004E-02  -9.35702147E-08
  -1.88999996E-02  -9.62812265E-08
  -1.88500006E-02  -9.90480515E-08
  -1.87999997E-02  -1.01870015E-07
  -1.87500007E-02  -1.04745865E-07
  -1.86999999E-02  -1.07674509E-07
  -1.86500009E-02  -1.10655712E-07
  -1.86000001E-02  -1.13690440E-07
  -1.85499992E-02  -1.16780669E-07
  -1.85000002E-02  -1.19928870E-07
  -1.84499994E-02  -1.23137369E-07
  -1.84000004E-02  -1.26407699E-07
  -1.83499996E-02  -1.29740258E-07
  -1.83000006E-02  -1.33134563E-07
  -1.82499997E-02  -1.36590103E-07
  -1.82000007E-02  -1.40107105E-07
  -1.81499999E-02  -1.43687046E-07
  -1.81000009E-02  -1.47332599E-07
  -1.80500001E-02  -1.51047018E-07
  -1.79999992E-02  -1.54833245E-07
  -1.79500002E-02  -1.58693396E-07
  -1.78999994E-02  -1.62628567E-07
  -1.78500004E-02  -1.66639097E-07
  -1.77999996E-02  -1.70725315E-07
  -1.77500006E-02  -1.74888555E-07
  -1.76999997E-02  -1.79131632E-07
  -1.76500008E-02  -1.83458809E-07
  -1.75999999E-02  -1.87875258E-07
  -1.75500009E-02  -1.92386011E-07
  -1.75000001E-02  -1.96995217E-07
  -1.74499992E-02  -2.01705689E-07
  -1.74000002E-02  -2.06519161E-07
  -1.73499994E-02  -2.11437069E-07
  -1.73000004E-02  -2.16461672E-07
  -1.72499996E-02  -2.21596906E-07
  -1.72000006E-02  -2.26848556E-07
  -1.71499997E-02  -2.32223428E-07
  -1.71000008E-02  -2.37728415E-07
  -1.70499999E-02  -2.43369470E-07
  -1.70000009E-02  -2.49151441E-07
  -1.69500001E-02  -2.55077993E-07
  -1.68999992E-02  -2.61152479E-07
  -1.68500002E-02  -2.67378880E-07
  -1.67999994E-02  -2.73762652E-07
  -1.67500004E-02  -2.80311326E-07
  -1.66999996E-02  -2.87033856E-07
  -1.66500006E-02  -2.93939735E-07
  -1.65999997E-02  -3.01037517E-07
  -1.65500008E-02  -3.08334080E-07
  -1.64999999E-02  -3.15834654E-07
  -1.64500009E-02  -3.23544242E-07
  -1.64000001E-02  -3.31468243E-07
  -1.63499992E-02  -3.39613734E-07
  -1.63000003E-02  -3.47989015E-07
  -1.62499994E-02  -3.56604119E-07
  -1.62000004E-02  -3.65469816E-07
  -1.61499996E-02  -3.74596482E-07
  -1.61000006E-02  -3.83992756E-07
  -1.60499997E-02  -3.93665829E-07
  -1.60000008E-02  -4.03622266E-07
  -1.59499999E-02  -4.13868918E-07
  -1.59000009E-02  -4.24414452E-07
  -1.58500001E-02  -4.35269300E-07
  -1.57999992E-02  -4.46445398E-07
  -1.57500003E-02  -4.57954968E-07
  -1.56999994E-02  -4.69809322E-07
  -1.56500004E-02  -4.82018493E-07
  -1.55999996E-02  -4.94590836E-07
  -1.55499997E-02  -5.07533343E-07
  -1.54999997E-02  -5.20853064E-07
  -1.54499998E-02  -5.34558922E-07
  -1.53999999E-02  -5.48661546E-07
  -1.53500000E-02  -5.63174012E-07
  -1.53000001E-02  -5.78110246E-07
  -1.52500002E-02  -5.93483435E-07
  -1.52000003E-02  -6.09304550E-07
  -1.51500003E-02  -6.25582572E-07
  -1.51000004E-02  -6.42325688E-07
  -1.50499996E-02  -6.59542025E-07
  -1.49999997E-02  -6.77240507E-07
  -1.49499997E-02  -6.95431766E-07
  -1.48999998E-02  -7.14128873E-07
  -1.48499999E-02  -7.33346212E-07
  -1.48000000E-02  -7.53097765E-07
  -1.47500001E-02  -7.73395527E-07
  -1.47000002E-02  -7.94249672E-07
  -1.46500003E-02  -8.15668443E-07
  -1.46000003E-02  -8.37660366E-07
  -1.45500004E-02  -8.60235673E-07
  -1.44999996E-02  -8.83405448E-07
  -1.44499997E-02  -9.07183392E-07
  -1.43999998E-02  -9.31584111E-07
  -1.43499998E-02  -9.56622216E-07
  -1.42999999E-02  -9.82310439E-07
  -1.42500000E-02  -1.00865964E-06
  -1.42000001E-02  -1.03567845E-06
  -1.41500002E-02  -1.06337484E-06
  -1.41000003E-02  -1.09175892E-06
  -1.40500003E-02  -1.12084206E-06
  -1.40000004E-02  -1.15063892E-06
  -1.39499996E-02  -1.18116486E-06
  -1.38999997E-02  -1.21243500E-06
  -1.38499998E-02  -1.24446296E-06
  -1.37999998E-02  -1.27725991E-06
  -1.37499999E-02  -1.31083561E-06
  -1.37000000E-02  -1.34519996E-06
  -1.36500001E-02  -1.38036330E-06
  -1.36000002E-02  -1.41633791E-06
  -1.35500003E-02  -1.45313834E-06
  -1.35000004E-02  -1.49078176E-06
  -1.34500004E-02  -1.52928590E-06
  -1.33999996E-02  -1.56866577E-06
  -1.33499997E-02  -1.60893330E-06
  -1.32999998E-02  -1.65009772E-06
  -1.32499998E-02  -1.69216912E-06
  -1.31999999E-02  -1.73515855E-06
  -1.31500000E-02  -1.77907953E-06
  -1.31000001E-02  -1.82394751E-06
  -1.30500002E-02  -1.86978025E-06
  -1.30000003E-02  -1.91659683E-06
  -1.29500004E-02  -1.96441601E-06
  -1.29000004E-02  -2.01325383E-06
  -1.28499996E-02  -2.06312279E-06
  -1.27999997E-02  -2.11403449E-06
  -1.27499998E-02  -2.16600188E-06
  -1.26999998E-02  -2.21904133E-06
  -1.26499999E-02  -2.27317128E-06
  -1.26000000E-02  -2.32841057E-06
  -1.25500001E-02  -2.38477628E-06
  -1.25000002E-02  -2.44228568E-06
  -1.24500003E-02  -2.50095627E-06
  -1.24000004E-02  -2.56080534E-06
  -1.23500004E-02  -2.62184699E-06
  -1.22999996E-02  -2.68409531E-06
  -1.22499997E-02  -2.74756803E-06
  -1.21999998E-02  -2.81228927E-06
  -1.21499998E-02  -2.87828630E-06
  -1.20999999E-02  -2.94558595E-06
  -1.20500000E-02  -3.01420982E-06
  -1.20000001E-02  -3.08417430E-06
  -1.19500002E-02  -3.15549710E-06
  -1.19000003E-02  -3.22819415E-06
  -1.18500004E-02  -3.30227999E-06
  -1.18000004E-02  -3.37777033E-06
  -1.17499996E-02  -3.45468470E-06
  -1.16999997E-02  -3.53304586E-06
  -1.16499998E-02  -3.61288198E-06
  -1.15999999E-02  -3.69422173E-06
  -1.15499999E-02  -3.77709284E-06
  -1.15000000E-02  -3.86152033E-06
  -1.14500001E-02  -3.94752897E-06
  -1.14000002E-02  -4.03514468E-06
  -1.13500003E-02  -4.12439840E-06
  -1.13000004E-02  -4.21532013E-06
  -1.12500004E-02  -4.30793943E-06
  -1.11999996E-02  -4.40228496E-06
  -1.11499997E-02  -4.49838126E-06
  -1.10999998E-02  -4.59624971E-06
  -1.10499999E-02  -4.69590941E-06
  -1.09999999E-02  -4.79737719E-06
  -1.09500000E-02  -4.90066941E-06
  -1.09000001E-02  -5.00580836E-06
  -1.08500002E-02  -5.11282315E-06
  -1.08000003E-02  -5.22175105E-06
  -1.07500004E-02  -5.33263574E-06
  -1.07000005E-02  -5.44552313E-06
  -1.06499996E-02  -5.56045279E-06
  -1.05999997E-02  -5.67746383E-06
  -1.05499998E-02  -5.79659445E-06
  -1.04999999E-02  -5.91788103E-06
  -1.04499999E-02  -6.04135585E-06
  -1.04000000E-02  -6.16705211E-06
  -1.03500001E-02  -6.29500300E-06
  -1.03000002E-02  -6.42524174E-06
  -1.02500003E-02  -6.55780150E-06
  -1.02000004E-02  -6.69271458E-06
  -1.01500005E-02  -6.83001235E-06
  -1.00999996E-02  -6.96972029E-06
  -1.00499997E-02  -7.11186840E-06
  -9.99999978E-03  -7.25649306E-06
  -9.94999986E-03  -7.40364112E-06
  -9.89999995E-03  -7.55336396E-06
  -9.85000003E-03  -7.70571114E-06
  -9.80000012E-03  -7.86072815E-06
  -9.75000020E-03  -8.01846454E-06
  -9.70000029E-03  -8.17897217E-06
  -9.65000037E-03  -8.34229832E-06
  -9.60000046E-03  -8.50848392E-06
  -9.54999961E-03  -8.67756353E-06
  -9.49999969E-03  -8.84958172E-06
  -9.44999978E-03  -9.02459578E-06
  -9.39999986E-03  -9.20266484E-06
  -9.34999995E-03  -9.38384619E-06
  -9.30000003E-03  -9.56818440E-06
  -9.25000012E-03  -9.75572493E-06
  -9.20000020E-03  -9.94651873E-06
  -9.15000029E-03  -1.01406122E-05
  -9.10000037E-03  -1.03380544E-05
  -9.05000046E-03  -1.05388835E-05
  -8.99999961E-03  -1.07431470E-05
  -8.94999970E-03  -1.09509028E-05
  -8.89999978E-03  -1.11622148E-05
  -8.84999987E-03  -1.13771457E-05
  -8.79999995E-03  -1.15957464E-05
  -8.75000004E-03  -1.18180651E-05
  -8.70000012E-03  -1.20441591E-05
  -8.65000021E-03  -1.22740903E-05
  -8.60000029E-03  -1.25079241E-05
  -8.55000038E-03  -1.27457251E-05
  -8.50000046E-03  -1.29875598E-05
  -8.44999962E-03  -1.32334908E-05
  -8.39999970E-03  -1.34835918E-05
  -8.34999979E-03  -1.37379348E-05
  -8.29999987E-03  -1.39965814E-05
  -8.24999996E-03  -1.42595809E-05
  -8.20000004E-03  -1.45269869E-05
  -8.15000013E-03  -1.47988612E-05
  -8.10000021E-03  -1.50752785E-05
  -8.05000030E-03  -1.53563160E-05
  -8.00000038E-03  -1.56420356E-05
  -7.95000046E-03  -1.59325045E-05
  -7.89999962E-03  -1.62277938E-05
  -7.84999970E-03  -1.65279762E-05
  -7.79999979E-03  -1.68331171E-05
  -7.74999987E-03  -1.71432694E-05
  -7.69999996E-03  -1.74584875E-05
  -7.65000004E-03  -1.77788424E-05
  -7.60000013E-03  -1.81044161E-05
  -7.55000021E-03  -1.84352921E-05
  -7.49999983E-03  -1.87715395E-05
  -7.44999992E-03  -1.91132349E-05
  -7.40000000E-03  -1.94604563E-05
  -7.35000009E-03  -1.98132839E-05
  -7.30000017E-03  -2.01717939E-05
  -7.24999979E-03  -2.05360466E-05
  -7.19999988E-03  -2.09061127E-05
  -7.14999996E-03  -2.12820705E-05
  -7.10000005E-03  -2.16640146E-05
  -7.05000013E-03  -2.20520415E-05
  -7.00000022E-03  -2.24462256E-05
  -6.94999984E-03  -2.28466379E-05
  -6.89999992E-03  -2.32533384E-05
  -6.85000001E-03  -2.36664055E-05
  -6.80000009E-03  -2.40859226E-05
  -6.75000018E-03  -2.45119681E-05
  -6.69999979E-03  -2.49446039E-05
  -6.64999988E-03  -2.53839062E-05
  -6.59999996E-03  -2.58299642E-05
  -6.55000005E-03  -2.62828835E-05
  -6.50000013E-03  -2.67427404E-05
  -6.45000022E-03  -2.72095967E-05
  -6.39999984E-03  -2.76835144E-05
  -6.34999992E-03  -2.81645735E-05
  -6.30000001E-03  -2.86528502E-05
  -6.25000009E-03  -2.91484375E-05
  -6.20000018E-03  -2.96514245E-05
  -6.14999980E-03  -3.01618966E-05
  -6.09999988E-03  -3.06799629E-05
  -6.04999997E-03  -3.12057236E-05
  -6.00000005E-03  -3.17392623E-05
  -5.95000014E-03  -3.22806445E-05
  -5.90000022E-03  -3.28299502E-05
  -5.84999984E-03  -3.33872595E-05
  -5.79999993E-03  -3.39526632E-05
  -5.75000001E-03  -3.45262561E-05
  -5.70000010E-03  -3.51081253E-05
  -5.65000018E-03  -3.56983437E-05
  -5.59999980E-03  -3.62970059E-05
  -5.54999989E-03  -3.69042064E-05
  -5.49999997E-03  -3.75200325E-05
  -5.45000006E-03  -3.81445388E-05
  -5.40000014E-03  -3.87777836E-05
  -5.35000023E-03  -3.94198541E-05
  -5.29999984E-03  -4.00708523E-05
  -5.24999993E-03  -4.07308944E-05
  -5.20000001E-03  -4.14000642E-05
  -5.15000010E-03  -4.20784418E-05
  -5.10000018E-03  -4.27661143E-05
  -5.04999980E-03  -4.34631838E-05
  -4.99999989E-03  -4.41697484E-05
  -4.94999997E-03  -4.48858991E-05
  -4.90000006E-03  -4.56117268E-05
  -4.85000014E-03  -4.63473043E-05
  -4.80000023E-03  -4.70927516E-05
  -4.74999985E-03  -4.78481634E-05
  -4.69999993E-03  -4.86136632E-05
  -4.65000002E-03  -4.93893531E-05
  -4.60000010E-03  -5.01752766E-05
  -4.55000019E-03  -5.09714955E-05
  -4.49999981E-03  -5.17780827E-05
  -4.44999989E-03  -5.25951327E-05
  -4.39999998E-03  -5.34227620E-05
  -4.35000006E-03  -5.42610615E-05
  -4.30000015E-03  -5.51100820E-05
  -4.25000023E-03  -5.59699256E-05
  -4.19999985E-03  -5.68407122E-05
  -4.14999994E-03  -5.77225692E-05
  -4.10000002E-03  -5.86155584E-05
  -4.05000011E-03  -5.95197162E-05
  -4.00000019E-03  -6.04351299E-05
  -3.94999981E-03  -6.13619268E-05
  -3.89999989E-03  -6.23002270E-05
  -3.84999998E-03  -6.32501396E-05
  -3.80000006E-03  -6.42117448E-05
  -3.74999992E-03  -6.51851369E-05
  -3.70000000E-03  -6.61704034E-05
  -3.65000009E-03  -6.71676316E-05
  -3.59999994E-03  -6.81769161E-05
  -3.55000002E-03  -6.91983296E-05
  -3.50000011E-03  -7.02319376E-05
  -3.44999996E-03  -7.12778128E-05
  -3.40000005E-03  -7.23360718E-05
  -3.34999990E-03  -7.34068453E-05
  -3.29999998E-03  -7.44902136E-05
  -3.25000007E-03  -7.55862202E-05
  -3.19999992E-03  -7.66949379E-05
  -3.15000000E-03  -7.78164467E-05
  -3.10000009E-03  -7.89508485E-05
  -3.04999994E-03  -8.00982161E-05
  -3.00000003E-03  -8.12586150E-05
  -2.95000011E-03  -8.24321251E-05
  -2.89999996E-03  -8.36188774E-05
  -2.85000005E-03  -8.48189811E-05
  -2.79999990E-03  -8.60324944E-05
  -2.74999999E-03  -8.72594755E-05
  -2.70000007E-03  -8.84999827E-05
  -2.64999992E-03  -8.97541031E-05
  -2.60000001E-03  -9.10219096E-05
  -2.55000009E-03  -9.23034895E-05
  -2.49999994E-03  -9.35988865E-05
  -2.45000003E-03  -9.49081950E-05
  -2.40000011E-03  -9.62315025E-05
  -2.34999997E-03  -9.75689181E-05
  -2.30000005E-03  -9.89205000E-05
  -2.24999990E-03  -1.00286263E-04
  -2.19999999E-03  -1.01666257E-04
  -2.15000007E-03  -1.03060527E-04
  -2.09999993E-03  -1.04469138E-04
  -2.05000001E-03  -1.05892163E-04
  -2.00000009E-03  -1.07329644E-04
  -1.94999995E-03  -1.08781642E-04
  -1.90000003E-03  -1.10248257E-04
  -1.85000000E-03  -1.11729474E-04
  -1.79999997E-03  -1.13225338E-04
  -1.75000005E-03  -1.14735849E-04
  -1.70000002E-03  -1.16261122E-04
  -1.64999999E-03  -1.17801195E-04
  -1.59999996E-03  -1.19356089E-04
  -1.55000004E-03  -1.20925848E-04
  -1.50000001E-03  -1.22510493E-04
  -1.44999998E-03  -1.24110084E-04
  -1.39999995E-03  -1.25724691E-04
  -1.35000004E-03  -1.27354317E-04
  -1.30000000E-03  -1.28998989E-04
  -1.24999997E-03  -1.30658620E-04
  -1.20000006E-03  -1.32333211E-04
  -1.15000003E-03  -1.34022848E-04
  -1.09999999E-03  -1.35727620E-04
  -1.04999996E-03  -1.37447496E-04
  -1.00000005E-03  -1.39182404E-04
  -9.50000016E-04  -1.40932316E-04
  -8.99999985E-04  -1.42697230E-04
  -8.50000011E-04  -1.44477162E-04
  -7.99999980E-04  -1.46272170E-04
  -7.50000007E-04  -1.48082152E-04
  -6.99999975E-04  -1.49906991E-04
  -6.50000002E-04  -1.51746674E-04
  -6.00000028E-04  -1.53601286E-04
  -5.49999997E-04  -1.55470843E-04
  -5.00000024E-04  -1.57355302E-04
  -4.49999992E-04  -1.59254472E-04
  -3.99999990E-04  -1.61168253E-04
  -3.49999988E-04  -1.63096658E-04
  -3.00000014E-04  -1.65039717E-04
  -2.50000012E-04  -1.66997415E-04
  -1.99999995E-04  -1.68969549E-04
  -1.50000007E-04  -1.70955973E-04
  -9.99999975E-05  -1.72956643E-04
  -4.99999987E-05  -1.74971603E-04
   0.00000000      -1.77000795E-04
   4.99999987E-05  -1.79044015E-04
   9.99999975E-05  -1.81101015E-04
   1.50000007E-04  -1.83171651E-04
   1.99999995E-04  -1.85255922E-04
   2.50000012E-04  -1.87353799E-04
   3.00000014E-04  -1.89465092E-04
   3.49999988E-04  -1.91589585E-04
   3.99999990E-04  -1.93727072E-04
   4.49999992E-04  -1.95877437E-04
   5.00000024E-04  -1.98040594E-04
   5.49999997E-04  -2.00216396E-04
   6.00000028E-04  -2.02404568E-04
   6.50000002E-04  -2.04604818E-04
   6.99999975E-04  -2.06816971E-04
   7.50000007E-04  -2.09040940E-04
   7.99999980E-04  -2.11276565E-04
   8.50000011E-04  -2.13523643E-04
   8.99999985E-04  -2.15781911E-04
   9.50000016E-04  -2.18050976E-04
   1.00000005E-03  -2.20330534E-04
   1.04999996E-03  -2.22620525E-04
   1.09999999E-03  -2.24920805E-04
   1.15000003E-03  -2.27230979E-04
   1.20000006E-03  -2.29550671E-04
   1.24999997E-03  -2.31879472E-04
   1.30000000E-03  -2.34217092E-04
   1.35000004E-03  -2.36563385E-04
   1.39999995E-03  -2.38918103E-04
   1.44999998E-03  -2.41280810E-04
   1.50000001E-03  -2.43650895E-04
   1.55000004E-03  -2.46027892E-04
   1.59999996E-03  -2.48411729E-04
   1.64999999E-03  -2.50802230E-04
   1.70000002E-03  -2.53198989E-04
   1.75000005E-03  -2.55601248E-04
   1.79999997E-03  -2.58008426E-04
   1.85000000E-03  -2.60420289E-04
   1.90000003E-03  -2.62836751E-04
   1.94999995E-03  -2.65257375E-04
   2.00000009E-03  -2.67681404E-04
   2.05000001E-03  -2.70108023E-04
   2.09999993E-03  -2.72536912E-04
   2.15000007E-03  -2.74967955E-04
   2.19999999E-03  -2.77400715E-04
   2.24999990E-03  -2.79834348E-04
   2.30000005E-03  -2.82268069E-04
   2.34999997E-03  -2.84701295E-04
   2.40000011E-03  -2.87133706E-04
   2.45000003E-03  -2.89564952E-04
   2.49999994E-03  -2.91994220E-04
   2.55000009E-03  -2.94420548E-04
   2.60000001E-03  -2.96843122E-04
   2.64999992E-03  -2.99261679E-04
   2.70000007E-03  -3.01675987E-04
   2.74999999E-03  -3.04085144E-04
   2.79999990E-03  -3.06488102E-04