  -3.99999991E-02   0.00000000    
  -3.99499983E-02   0.00000000    
  -3.99000011E-02   0.00000000    
  -3.98500003E-02   0.00000000    
  -3.97999994E-02   0.00000000    
  -3.97499986E-02   1.19504412E-22
  -3.97000015E-02   1.36907277E-21
  -3.96500006E-02   8.29677341E-21
  -3.95999998E-02   3.51254783E-20
  -3.95499989E-02   1.16025122E-19
  -3.95000018E-02   3.17100050E-19
  -3.94500010E-02   7.43344513E-19
  -3.94000001E-02   1.53119682E-18
  -3.93499993E-02   2.82042471E-18
  -3.92999984E-02   4.71007022E-18
  -3.92500013E-02   7.21900787E-18
  -3.92000005E-02   1.02829601E-17
  -3.91499996E-02   1.38146400E-17
  -3.90999988E-02   1.78260019E-17
  -3.90500017E-02   2.25693285E-17
  -3.90000008E-02   2.86199132E-17
  -3.89500000E-02   3.68246449E-17
  -3.88999991E-02   4.80914503E-17
  -3.88499983E-02   6.30800590E-17
  -3.88000011E-02   8.19334639E-17
  -3.87500003E-02   1.04212158E-16
  -3.86999995E-02   1.29129286E-16
  -3.86499986E-02   1.56044737E-16
  -3.86000015E-02   1.85017949E-16
  -3.85500006E-02   2.17125038E-16
  -3.84999998E-02   2.54289085E-16
  -3.84499989E-02   2.98566753E-16
  -3.84000018E-02   3.51114850E-16
  -3.83500010E-02   4.11291274E-16
  -3.83000001E-02   4.76383506E-16
  -3.82499993E-02   5.42237988E-16
  -3.81999984E-02   6.04654734E-16
  -3.81500013E-02   6.60994601E-16
  -3.81000005E-02   7.11250442E-16
  -3.80499996E-02   7.57981409E-16
  -3.79999988E-02   8.04979191E-16
  -3.79500017E-02   8.55125818E-16
  -3.79000008E-02   9.08336427E-16
  -3.78500000E-02   9.60532186E-16
  -3.77999991E-02   1.00418901E-15
  -3.77499983E-02   1.03030494E-15
  -3.77000012E-02   1.03094783E-15
  -3.76500003E-02   1.00121497E-15
  -3.75999995E-02   9.39673682E-16
  -3.75499986E-02   8.47049570E-16
  -3.75000015E-02   7.23764507E-16
  -3.74500006E-02   5.67475440E-16
  -3.73999998E-02   3.71749605E-16
  -3.73499990E-02   1.26481580E-16
  -3.73000018E-02  -1.80113509E-16
  -3.72500010E-02  -5.58711667E-16
  -3.72000001E-02  -1.01627934E-15
  -3.71499993E-02  -1.55442658E-15
  -3.70999984E-02  -2.16901887E-15
  -3.70500013E-02  -2.85096552E-15
  -3.70000005E-02  -3.58795067E-15
  -3.69499996E-02  -4.36694485E-15
  -3.68999988E-02  -5.17739741E-15
  -3.68500017E-02  -6.01477884E-15
  -3.68000008E-02  -6.88352760E-15
  -3.67500000E-02  -7.79784037E-15
  -3.66999991E-02  -8.77867403E-15
  -3.66499983E-02  -9.84638362E-15
  -3.66000012E-02  -1.10104813E-14
  -3.65500003E-02  -1.22602242E-14
  -3.64999995E-02  -1.35607671E-14
  -3.64499986E-02  -1.48583792E-14
  -3.64000015E-02  -1.60946069E-14
  -3.63500006E-02  -1.72245962E-14
  -3.62999998E-02  -1.82312847E-14
  -3.62499990E-02  -1.91271932E-14
  -3.62000018E-02  -1.99399467E-14
  -3.61500010E-02  -2.06854153E-14
  -3.61000001E-02  -2.13400447E-14
  -3.60499993E-02  -2.18273767E-14
  -3.59999985E-02  -2.20299548E-14
  -3.59500013E-02  -2.18270345E-14
  -3.59000005E-02  -2.11447698E-14
  -3.58499996E-02  -1.99957763E-14
  -3.57999988E-02  -1.84850592E-14
  -3.57500017E-02  -1.67714556E-14
  -3.57000008E-02  -1.49941942E-14
  -3.56500000E-02  -1.31938968E-14
  -3.55999991E-02  -1.12662506E-14
  -3.55499983E-02  -8.97766748E-15
  -3.55000012E-02  -6.04698346E-15
  -3.54500003E-02  -2.26500189E-15
  -3.53999995E-02   2.40018559E-15
  -3.53499986E-02   7.76622825E-15
  -3.53000015E-02   1.34970296E-14
  -3.52500007E-02   1.92461403E-14
  -3.51999998E-02   2.48244486E-14
  -3.51499990E-02   3.03120735E-14
  -3.51000018E-02   3.60494207E-14
  -3.50500010E-02   4.24921803E-14
  -3.50000001E-02   4.99804903E-14
  -3.49499993E-02   5.85231326E-14
  -3.48999985E-02   6.77056610E-14
  -3.48500013E-02   7.67873449E-14
  -3.48000005E-02   8.49687549E-14
  -3.47499996E-02   9.17254825E-14
  -3.46999988E-02   9.70561725E-14
  -3.46500017E-02   1.01513477E-13
  -3.46000008E-02   1.05973986E-13
  -3.45500000E-02   1.11224215E-13
  -3.44999991E-02   1.17539144E-13
  -3.44499983E-02   1.24455432E-13
  -3.44000012E-02   1.30872513E-13
  -3.43500003E-02   1.35472132E-13
  -3.42999995E-02   1.37291071E-13
  -3.42499986E-02   1.36187868E-13
  -3.42000015E-02   1.32964508E-13
  -3.41500007E-02   1.29043328E-13
  -3.40999998E-02   1.25803461E-13
  -3.40499990E-02   1.23858999E-13
  -3.40000018E-02   1.22622818E-13
  -3.39500010E-02   1.20401844E-13
  -3.39000002E-02   1.15040993E-13
  -3.38499993E-02   1.04870336E-13
  -3.37999985E-02   8.95357803E-14
  -3.37500013E-02   7.03035788E-14
  -3.37000005E-02   4.96360528E-14
  -3.36499996E-02   3.01637445E-14
  -3.35999988E-02   1.34809325E-14
  -3.35500017E-02  -6.79625303E-16
  -3.35000008E-02  -1.44614223E-14
  -3.34500000E-02  -3.10009993E-14
  -3.33999991E-02  -5.29799288E-14
  -3.33499983E-02  -8.12487827E-14
  -3.33000012E-02  -1.14188132E-13
  -3.32500003E-02  -1.48184552E-13
  -3.31999995E-02  -1.79103734E-13
  -3.31499986E-02  -2.04155120E-13
  -3.31000015E-02  -2.23297604E-13
  -3.30500007E-02  -2.39473453E-13
  -3.29999998E-02  -2.57446869E-13
  -3.29499990E-02  -2.81665912E-13
  -3.29000019E-02  -3.14066806E-13
  -3.28500010E-02  -3.52851076E-13
  -3.28000002E-02  -3.92897683E-13
  -3.27499993E-02  -4.27757520E-13
  -3.26999985E-02  -4.52426969E-13
  -3.26500013E-02  -4.65661635E-13
  -3.26000005E-02  -4.70704693E-13
  -3.25499997E-02  -4.73961853E-13
  -3.24999988E-02  -4.82084479E-13
  -3.24500017E-02  -4.98713213E-13
  -3.24000008E-02  -5.22393598E-13
  -3.23500000E-02  -5.46743694E-13
  -3.22999991E-02  -5.62975285E-13
  -3.22499983E-02  -5.63768650E-13
  -3.22000012E-02  -5.46781370E-13
  -3.21500003E-02  -5.16109453E-13
  -3.20999995E-02  -4.80851144E-13
  -3.20499986E-02  -4.51219791E-13
  -3.20000015E-02  -4.33839190E-13
  -3.19500007E-02  -4.28360337E-13
  -3.18999998E-02  -4.27081086E-13
  -3.18499990E-02  -4.17964654E-13
  -3.18000019E-02  -3.89892356E-13
  -3.17500010E-02  -3.37857672E-13
  -3.17000002E-02  -2.65674283E-13
  -3.16499993E-02  -1.84765533E-13
  -3.15999985E-02  -1.09335236E-13
  -3.15500014E-02  -4.99338594E-14
  -3.15000005E-02  -8.31894436E-15
  -3.14499997E-02   2.38980199E-14
  -3.13999988E-02   6.19300143E-14
  -3.13500017E-02   1.21054994E-13
  -3.13000008E-02   2.09343868E-13
  -3.12500000E-02   3.23233682E-13
  -3.11999992E-02   4.48201833E-13
  -3.11500002E-02   5.64562774E-13
  -3.10999993E-02   6.56031002E-13
  -3.10500003E-02   7.17255682E-13
  -3.09999995E-02   7.56769972E-13
  -3.09500005E-02   7.93710909E-13
  -3.08999997E-02   8.49447737E-13
  -3.08500007E-02   9.37689596E-13
  -3.07999998E-02   1.05755704E-12
  -3.07500008E-02   1.19299004E-12
  -3.07000000E-02   1.31912450E-12
  -3.06499992E-02   1.41307680E-12
  -3.06000002E-02   1.46438677E-12
  -3.05499993E-02   1.48026307E-12
  -3.05000003E-02   1.48291047E-12
  -3.04499995E-02   1.49973686E-12
  -3.04000005E-02   1.55058193E-12
  -3.03499997E-02   1.63771525E-12
  -3.03000007E-02   1.74339189E-12
  -3.02499998E-02   1.83651727E-12
  -3.02000009E-02   1.88584998E-12
  -3.01500000E-02   1.87401570E-12
  -3.00999992E-02   1.80592227E-12
  -3.00500002E-02   1.70741806E-12
  -2.99999993E-02   1.61430667E-12
  -2.99500003E-02   1.55628808E-12
  -2.98999995E-02   1.54295348E-12
  -2.98500005E-02   1.55837452E-12
  -2.97999997E-02   1.56719169E-12
  -2.97500007E-02   1.52995390E-12
  -2.96999998E-02   1.42109729E-12
  -2.96500009E-02   1.24141734E-12
  -2.96000000E-02   1.01903176E-12
  -2.95499992E-02   7.97841014E-13
  -2.95000002E-02   6.18188606E-13
  -2.94499993E-02   4.98239037E-13
  -2.94000003E-02   4.24651986E-13
  -2.93499995E-02   3.57272073E-13
  -2.93000005E-02   2.46335667E-13
  -2.92499997E-02   5.48928612E-14
  -2.92000007E-02  -2.23570254E-13
  -2.91499998E-02  -5.60576596E-13
  -2.91000009E-02  -9.03813374E-13
  -2.90500000E-02  -1.19957364E-12
  -2.89999992E-02  -1.41671028E-12
  -2.89500002E-02  -1.56123096E-12
  -2.88999993E-02  -1.67449041E-12
  -2.88500004E-02  -1.81515024E-12
  -2.87999995E-02  -2.03249613E-12
  -2.87500005E-02  -2.34296610E-12
  -2.86999997E-02  -2.72075006E-12
  -2.86500007E-02  -3.10732364E-12
  -2.85999998E-02  -3.43631438E-12
  -2.85500009E-02  -3.66296186E-12
  -2.85000000E-02  -3.78490034E-12
  -2.84499992E-02  -3.84444126E-12
  -2.84000002E-02  -3.91059104E-12
  -2.83499993E-02  -4.04820448E-12
  -2.83000004E-02  -4.28782140E-12
  -2.82499995E-02  -4.60993396E-12
  -2.82000005E-02  -4.95135920E-12
  -2.81499997E-02  -5.23162503E-12
  -2.81000007E-02  -5.38808581E-12
  -2.80499998E-02  -5.40412073E-12
  -2.80000009E-02  -5.31736157E-12
  -2.79500000E-02  -5.20353812E-12
  -2.78999992E-02  -5.14245677E-12
  -2.78500002E-02  -5.18100797E-12
  -2.77999993E-02  -5.30992264E-12
  -2.77500004E-02  -5.46534866E-12
  -2.76999995E-02  -5.55537213E-12
  -2.76500005E-02  -5.50029597E-12
  -2.75999997E-02  -5.26884005E-12
  -2.75500007E-02  -4.89368919E-12
  -2.74999999E-02  -4.45865263E-12
  -2.74500009E-02  -4.06230778E-12
  -2.74000000E-02  -3.77385059E-12
  -2.73499992E-02  -3.60087676E-12
  -2.73000002E-02  -3.48405809E-12
  -2.72499993E-02  -3.32191371E-12
  -2.72000004E-02  -3.01537397E-12
  -2.71499995E-02  -2.51254009E-12
  -2.71000005E-02  -1.83339108E-12
  -2.70499997E-02  -1.06269735E-12
  -2.70000007E-02  -3.13463665E-13
  -2.69499999E-02   3.23351833E-13
  -2.69000009E-02   8.20431180E-13
  -2.68500000E-02   1.22788953E-12
  -2.67999992E-02   1.65224247E-12
  -2.67500002E-02   2.20907732E-12
  -2.66999993E-02   2.97015212E-12
  -2.66500004E-02   3.92869764E-12
  -2.65999995E-02   4.99913002E-12
  -2.65500005E-02   6.05222209E-12
  -2.64999997E-02   6.97076685E-12
  -2.64500007E-02   7.70109497E-12
  -2.63999999E-02   8.27706653E-12
  -2.63500009E-02   8.80501748E-12
  -2.63000000E-02   9.41551958E-12
  -2.62499992E-02   1.02029643E-11
  -2.62000002E-02   1.11800109E-11
  -2.61499994E-02   1.22678508E-11
  -2.61000004E-02   1.33275066E-11
  -2.60499995E-02   1.42189602E-11
  -2.60000005E-02   1.48619780E-11
  -2.59499997E-02   1.52711351E-11
  -2.59000007E-02   1.55486232E-11
  -2.58499999E-02   1.58371372E-11
  -2.58000009E-02   1.62532973E-11
  -2.57500000E-02   1.68313211E-11
  -2.56999992E-02   1.75026486E-11
  -2.56500002E-02   1.81215598E-11
  -2.55999994E-02   1.85261650E-11
  -2.55500004E-02   1.86079849E-11
  -2.54999995E-02   1.83588700E-11
  -2.54500005E-02   1.78737060E-11
  -2.53999997E-02   1.73068487E-11
  -2.53500007E-02   1.68012392E-11
  -2.52999999E-02   1.64217650E-11
  -2.52500009E-02   1.61231289E-11
  -2.52000000E-02   1.57673700E-11
  -2.51499992E-02   1.51839444E-11
  -2.51000002E-02   1.42458476E-11
  -2.50499994E-02   1.29275705E-11
  -2.50000004E-02   1.13183317E-11
  -2.49499995E-02   9.58384674E-12
  -2.49000005E-02   7.89319651E-12
  -2.48499997E-02   6.34335856E-12
  -2.48000007E-02   4.91560655E-12
  -2.47499999E-02   3.48395748E-12
  -2.47000009E-02   1.87259279E-12
  -2.46500000E-02  -6.31286676E-14
  -2.45999992E-02  -2.36849993E-12
  -2.45500002E-02  -4.96517064E-12
  -2.44999994E-02  -7.68224720E-12
  -2.44500004E-02  -1.03292427E-11
  -2.43999995E-02  -1.27781908E-11
  -2.43500005E-02  -1.50176069E-11
  -2.42999997E-02  -1.71535147E-11
  -2.42500007E-02  -1.93565337E-11
  -2.41999999E-02  -2.17786327E-11
  -2.41500009E-02  -2.44772466E-11
  -2.41000000E-02  -2.73815068E-11
  -2.40499992E-02  -3.03163709E-11
  -2.40000002E-02  -3.30742655E-11
  -2.39499994E-02  -3.55019313E-11
  -2.39000004E-02  -3.75630221E-11
  -2.38499995E-02  -3.93477334E-11
  -2.38000005E-02  -4.10247288E-11
  -2.37499997E-02  -4.27570652E-11
  -2.37000007E-02  -4.46203664E-11
  -2.36499999E-02  -4.65607414E-11
  -2.36000009E-02  -4.84119238E-11
  -2.35500000E-02  -4.99639774E-11
  -2.34999992E-02  -5.10521798E-11
  -2.34500002E-02  -5.16253360E-11
  -2.33999994E-02  -5.17620044E-11
  -2.33500004E-02  -5.16271227E-11
  -2.32999995E-02  -5.13889313E-11
  -2.32500006E-02  -5.11346694E-11
  -2.31999997E-02  -5.08240984E-11
  -2.31500007E-02  -5.03025711E-11
  -2.30999999E-02  -4.93677564E-11
  -2.30500009E-02  -4.78592166E-11
  -2.30000000E-02  -4.57293092E-11
  -2.29499992E-02  -4.30624043E-11
  -2.29000002E-02  -4.00335876E-11
  -2.28499994E-02  -3.68260630E-11
  -2.28000004E-02  -3.35461277E-11
  -2.27499995E-02  -3.01753796E-11
  -2.27000006E-02  -2.65828644E-11
  -2.26499997E-02  -2.25912292E-11
  -2.26000007E-02  -1.80657052E-11
  -2.25499999E-02  -1.29837842E-11
  -2.25000009E-02  -7.45238159E-12
  -2.24500000E-02  -1.66416869E-12
  -2.23999992E-02   4.18632099E-12
  -2.23500002E-02   9.98682213E-12
  -2.22999994E-02   1.57514401E-11
  -2.22500004E-02   2.16032088E-11
  -2.21999995E-02   2.77030048E-11
  -2.21500006E-02   3.41586273E-11
  -2.20999997E-02   4.09578517E-11
  -2.20500007E-02   4.79579571E-11
  -2.19999999E-02   5.49375927E-11
  -2.19500009E-02   6.16864615E-11
  -2.19000001E-02   6.80896242E-11
  -2.18499992E-02   7.41651254E-11
  -2.18000002E-02   8.00357836E-11
  -2.17499994E-02   8.58476901E-11
  -2.17000004E-02   9.16746887E-11
  -2.16499995E-02   9.74556061E-11
  -2.16000006E-02   1.02996556E-10
  -2.15499997E-02   1.08039071E-10
  -2.15000007E-02   1.12362591E-10
  -2.14499999E-02   1.15871916E-10
  -2.14000009E-02   1.18625651E-10
  -2.13500001E-02   1.20789614E-10
  -2.12999992E-02   1.22535468E-10
  -2.12500002E-02   1.23932753E-10
  -2.11999994E-02   1.24887711E-10
  -2.11500004E-02   1.25161576E-10
  -2.10999995E-02   1.24463051E-10
  -2.10500006E-02   1.22572563E-10
  -2.09999997E-02   1.19438709E-10
  -2.09500007E-02   1.15197477E-10
  -2.08999999E-02   1.10100928E-10
  -2.08500009E-02   1.04385937E-10
  -2.08000001E-02   9.81445689E-11
  -2.07499992E-02   9.12604436E-11
  -2.07000002E-02   8.34466107E-11
  -2.06499994E-02   7.43723971E-11
  -2.06000004E-02   6.38227526E-11
  -2.05499995E-02   5.18141224E-11
  -2.05000006E-02   3.86079189E-11
  -2.04499997E-02   2.46089052E-11
  -2.04000007E-02   1.01910190E-11
  -2.03499999E-02  -4.46905447E-12
  -2.03000009E-02  -1.94696013E-11
  -2.02500001E-02  -3.51298782E-11
  -2.01999992E-02  -5.18226920E-11
  -2.01500002E-02  -6.97677957E-11
  -2.00999994E-02  -8.88831300E-11
  -2.00500004E-02  -1.08769424E-10
  -1.99999996E-02  -1.28843367E-10
  -1.99500006E-02  -1.48564730E-10
  -1.98999997E-02  -1.67654127E-10
  -1.98500007E-02  -1.86196975E-10
  -1.97999999E-02  -2.04577147E-10
  -1.97500009E-02  -2.23261909E-10
  -1.97000001E-02  -2.42531911E-10
  -1.96499992E-02  -2.62281141E-10
  -1.96000002E-02  -2.81985879E-10
  -1.95499994E-02  -3.00867276E-10
  -1.95000004E-02  -3.18181481E-10
  -1.94499996E-02  -3.33508193E-10
  -1.94000006E-02  -3.46900897E-10
  -1.93499997E-02  -3.58821584E-10
  -1.93000007E-02  -3.69878822E-10
  -1.92499999E-02  -3.80482479E-10
  -1.92000009E-02  -3.90573435E-10
  -1.91500001E-02  -3.99559386E-10
  -1.90999992E-02  -4.06498835E-10
  -1.90500002E-02  -4.10459805E-10
  -1.89999994E-02  -4.10895623E-10
  -1.89500004E-02  -4.07862827E-10
  -1.88999996E-02  -4.01971373E-10
  -1.88500006E-02  -3.94077632E-10
  -1.87999997E-02  -3.84849819E-10
  -1.87500007E-02  -3.74402370E-10
  -1.86999999E-02  -3.62173347E-10
  -1.86500009E-02  -3.47113616E-10
  -1.86000001E-02  -3.28115646E-10
  -1.85499992E-02  -3.04494652E-10
  -1.85000002E-02  -2.76301815E-10
  -1.84499994E-02  -2.44317427E-10
  -1.84000004E-02  -2.09712261E-10
  -1.83499996E-02  -1.73519518E-10
  -1.83000006E-02  -1.36153588E-10
  -1.82499997E-02  -9.72006156E-11
  -1.82000007E-02  -5.55901436E-11
  -1.81499999E-02  -1.00862530E-11
  -1.81000009E-02   4.01141932E-11
  -1.80500001E-02   9.49471474E-11
  -1.79999992E-02   1.53418639E-10
  -1.79500002E-02   2.13956644E-10
  -1.78999994E-02   2.75035605E-10
  -1.78500004E-02   3.35795919E-10
  -1.77999996E-02   3.96374406E-10
  -1.77500006E-02   4.57781368E-10
  -1.76999997E-02   5.21363896E-10
  -1.76500008E-02   5.88082638E-10
  -1.75999999E-02   6.57929489E-10
  -1.75500009E-02   7.29756700E-10
  -1.75000001E-02   8.01611888E-10
  -1.74499992E-02   8.71447081E-10
  -1.74000002E-02   9.37887545E-10
  -1.73499994E-02   1.00071540E-09
  -1.73000004E-02   1.06082987E-09
  -1.72499996E-02   1.11968856E-09
  -1.72000006E-02   1.17846022E-09
  -1.71499997E-02   1.23727029E-09
  -1.71000008E-02   1.29488531E-09
  -1.70499999E-02   1.34899703E-09
  -1.70000009E-02   1.39700040E-09
  -1.69500001E-02   1.43692558E-09
  -1.68999992E-02   1.46810808E-09
  -1.68500002E-02   1.49128165E-09
  -1.67999994E-02   1.50803181E-09
  -1.67500004E-02   1.51983925E-09
  -1.66999996E-02   1.52713420E-09
  -1.66500006E-02   1.52879454E-09
  -1.65999997E-02   1.52233115E-09
  -1.65500008E-02   1.50469837E-09
  -1.64999999E-02   1.47338464E-09
  -1.64500009E-02   1.42729162E-09
  -1.64000001E-02   1.36700196E-09
  -1.63499992E-02   1.29429245E-09
  -1.63000003E-02   1.21108379E-09
  -1.62499994E-02   1.11829712E-09
  -1.62000004E-02   1.01512965E-09
  -1.61499996E-02   8.99088137E-10
  -1.61000006E-02   7.66795683E-10
  -1.60499997E-02   6.15223983E-10
  -1.60000008E-02   4.42812675E-10
  -1.59499999E-02   2.49959831E-10
  -1.59000009E-02   3.86477933E-11
  -1.58500001E-02  -1.88655841E-10
  -1.57999992E-02  -4.30336405E-10
  -1.57500003E-02  -6.86619483E-10
  -1.56999994E-02  -9.59739066E-10
  -1.56500004E-02  -1.25319755E-09
  -1.55999996E-02  -1.57041591E-09
  -1.55499997E-02  -1.91337879E-09
  -1.54999997E-02  -2.28188113E-09
  -1.54499998E-02  -2.67373501E-09
  -1.53999999E-02  -3.08587200E-09
  -1.53500000E-02  -3.51586538E-09
  -1.53000001E-02  -3.96319466E-09
  -1.52500002E-02  -4.42967485E-09
  -1.52000003E-02  -4.91883378E-09
  -1.51500003E-02  -5.43449463E-09
  -1.51000004E-02  -5.97917005E-09
  -1.50499996E-02  -6.55301013E-09
  -1.49999997E-02  -7.15377402E-09
  -1.49499997E-02  -7.77787168E-09
  -1.48999998E-02  -8.42203107E-09
  -1.48499999E-02  -9.08485287E-09
  -1.48000000E-02  -9.76756009E-09
  -1.47500001E-02  -1.04735625E-08
  -1.47000002E-02  -1.12070220E-08
  -1.46500003E-02  -1.19710419E-08
  -1.46000003E-02  -1.27662787E-08
  -1.45500004E-02  -1.35906246E-08
  -1.44999996E-02  -1.44401193E-08
  -1.44499997E-02  -1.53107251E-08
  -1.43999998E-02  -1.62001683E-08
  -1.43499998E-02  -1.71090253E-08
  -1.42999999E-02  -1.80405753E-08
  -1.42500000E-02  -1.89993976E-08
  -1.42000001E-02  -1.99893826E-08
  -1.41500002E-02  -2.10119993E-08
  -1.41000003E-02  -2.20656275E-08
  -1.40500003E-02  -2.31462547E-08
  -1.40000004E-02  -2.42492888E-08
  -1.39499996E-02  -2.53716639E-08
  -1.38999997E-02  -2.65133124E-08
  -1.38499998E-02  -2.76773289E-08
  -1.37999998E-02  -2.88687101E-08
  -1.37499999E-02  -3.00922558E-08
  -1.37000000E-02  -3.13504884E-08
  -1.36500001E-02  -3.26425820E-08
  -1.36000002E-02  -3.39648096E-08
  -1.35500003E-02  -3.53122900E-08
  -1.35000004E-02  -3.66813104E-08
  -1.34500004E-02  -3.80712208E-08
  -1.33999996E-02  -3.94849522E-08
  -1.33499997E-02  -4.09280254E-08
  -1.32999998E-02  -4.24063167E-08
  -1.32499998E-02  -4.39237091E-08
  -1.31999999E-02  -4.54806006E-08
  -1.31500000E-02  -4.70739536E-08
  -1.31000001E-02  -4.86989364E-08
  -1.30500002E-02  -5.03513853E-08
  -1.30000003E-02  -5.20301207E-08
  -1.29500004E-02  -5.37378710E-08
  -1.29000004E-02  -5.54805766E-08
  -1.28499996E-02  -5.72652255E-08
  -1.27999997E-02  -5.90972000E-08
  -1.27499998E-02  -6.09783370E-08
  -1.26999998E-02  -6.29066079E-08
  -1.26499999E-02  -6.48774687E-08
  -1.26000000E-02  -6.68865070E-08
  -1.25500001E-02  -6.89319961E-08
  -1.25000002E-02  -7.10164230E-08
  -1.24500003E-02  -7.31460545E-08
  -1.24000004E-02  -7.53289768E-08
  -1.23500004E-02  -7.75722029E-08
  -1.22999996E-02  -7.98793280E-08
  -1.22499997E-02  -8.22496418E-08
  -1.21999998E-02  -8.46792929E-08
  -1.21499998E-02  -8.71638335E-08
  -1.20999999E-02  -8.97010963E-08
  -1.20500000E-02  -9.22931704E-08
  -1.20000001E-02  -9.49465075E-08
  -1.19500002E-02  -9.76700747E-08
  -1.19000003E-02  -1.00472377E-07
  -1.18500004E-02  -1.03358708E-07
  -1.18000004E-02  -1.06329828E-07
  -1.17499996E-02  -1.09382633E-07
  -1.16999997E-02  -1.12512673E-07
  -1.16499998E-02  -1.15717306E-07
  -1.15999999E-02  -1.18998088E-07
  -1.15499999E-02  -1.22361399E-07
  -1.15000000E-02  -1.25816911E-07
  -1.14500001E-02  -1.29374612E-07
  -1.14000002E-02  -1.33041652E-07
  -1.13500003E-02  -1.36820503E-07
  -1.13000004E-02  -1.40709190E-07
  -1.12500004E-02  -1.44703534E-07
  -1.11999996E-02  -1.48800481E-07
  -1.11499997E-02  -1.53000911E-07
  -1.10999998E-02  -1.57310822E-07
  -1.10499999E-02  -1.61740203E-07
  -1.09999999E-02  -1.66300083E-07
  -1.09500000E-02  -1.70999201E-07
  -1.09000001E-02  -1.75841677E-07
  -1.08500002E-02  -1.80826675E-07
  -1.08000003E-02  -1.85950441E-07
  -1.07500004E-02  -1.91209580E-07
  -1.07000005E-02  -1.96604404E-07
  -1.06499996E-02  -2.02140484E-07
  -1.05999997E-02  -2.07828109E-07
  -1.05499998E-02  -2.13679456E-07
  -1.04999999E-02  -2.19705129E-07
  -1.04499999E-02  -2.25911180E-07
  -1.04000000E-02  -2.32298419E-07
  -1.03500001E-02  -2.38863862E-07
  -1.03000002E-02  -2.45604184E-07
  -1.02500003E-02  -2.52519072E-07
  -1.02000004E-02  -2.59613586E-07
  -1.01500005E-02  -2.66897928E-07
  -1.00999996E-02  -2.74385116E-07
  -1.00499997E-02  -2.82087228E-07
  -9.99999978E-03  -2.90012252E-07
  -9.94999986E-03  -2.98162689E-07
  -9.89999995E-03  -3.06536634E-07
  -9.85000003E-03  -3.15130961E-07
  -9.80000012E-03  -3.23945045E-07
  -9.75000020E-03  -3.32983547E-07
  -9.70000029E-03  -3.42256726E-07
  -9.65000037E-03  -3.51778453E-07
  -9.60000046E-03  -3.61562627E-07
  -9.54999961E-03  -3.71619564E-07
  -9.49999969E-03  -3.81954067E-07
  -9.44999978E-03  -3.92566022E-07
  -9.39999986E-03  -4.03453384E-07
  -9.34999995E-03  -4.14615755E-07
  -9.30000003E-03  -4.26057824E-07
  -9.25000012E-03  -4.37790163E-07
  -9.20000020E-03  -4.49827610E-07
  -9.15000029E-03  -4.62185739E-07
  -9.10000037E-03  -4.74877112E-07
  -9.05000046E-03  -4.87908835E-07
  -8.99999961E-03  -5.01282670E-07
  -8.94999970E-03  -5.14997623E-07
  -8.89999978E-03  -5.29053807E-07
  -8.84999987E-03  -5.43455712E-07
  -8.79999995E-03  -5.58213969E-07
  -8.75000004E-03  -5.73344266E-07
  -8.70000012E-03  -5.88863770E-07
  -8.65000021E-03  -6.04787488E-07
  -8.60000029E-03  -6.21125423E-07
  -8.55000038E-03  -6.37882067E-07
  -8.50000046E-03  -6.55058443E-07
  -8.44999962E-03  -6.72656029E-07
  -8.39999970E-03  -6.90680110E-07
  -8.34999979E-03  -7.09142341E-07
  -8.29999987E-03  -7.28059604E-07
  -8.24999996E-03  -7.47451054E-07
  -8.20000004E-03  -7.67334598E-07
  -8.15000013E-03  -7.87723309E-07
  -8.10000021E-03  -8.08624634E-07
  -8.05000030E-03  -8.30042154E-07
  -8.00000038E-03  -8.51978655E-07
  -7.95000046E-03  -8.74440502E-07
  -7.89999962E-03  -8.97439691E-07
  -7.84999970E-03  -9.20994012E-07
  -7.79999979E-03  -9.45124441E-07
  -7.74999987E-03  -9.69850817E-07
  -7.69999996E-03  -9.95189225E-07
  -7.65000004E-03  -1.02114996E-06
  -7.60000013E-03  -1.04773892E-06
  -7.55000021E-03  -1.07496112E-06
  -7.49999983E-03  -1.10282440E-06
  -7.44999992E-03  -1.13134206E-06
  -7.40000000E-03  -1.16053309E-06
  -7.35000009E-03  -1.19042079E-06
  -7.30000017E-03  -1.22102767E-06
  -7.24999979E-03  -1.25237341E-06
  -7.19999988E-03  -1.28447141E-06
  -7.14999996E-03  -1.31733123E-06
  -7.10000005E-03  -1.35096013E-06
  -7.05000013E-03  -1.38536814E-06
  -7.00000022E-03  -1.42057002E-06
  -6.94999984E-03  -1.45658669E-06
  -6.89999992E-03  -1.49344271E-06
  -6.85000001E-03  -1.53116389E-06
  -6.80000009E-03  -1.56977217E-06
  -6.75000018E-03  -1.60928460E-06
  -6.69999979E-03  -1.64971345E-06
  -6.64999988E-03  -1.69106909E-06
  -6.59999996E-03  -1.73336309E-06
  -6.55000005E-03  -1.77661229E-06
  -6.50000013E-03  -1.82083897E-06
  -6.45000022E-03  -1.86606962E-06
  -6.39999984E-03  -1.91233175E-06
  -6.34999992E-03  -1.95965072E-06
  -6.30000001E-03  -2.00804675E-06
  -6.25000009E-03  -2.05753645E-06
  -6.20000018E-03  -2.10813255E-06
  -6.14999980E-03  -2.15985028E-06
  -6.09999988E-03  -2.21270830E-06
  -6.04999997E-03  -2.26673160E-06
  -6.00000005E-03  -2.32194884E-06
  -5.95000014E-03  -2.37839049E-06
  -5.90000022E-03  -2.43608497E-06
  -5.84999984E-03  -2.49505661E-06
  -5.79999993E-03  -2.55532564E-06
  -5.75000001E-03  -2.61690911E-06
  -5.70000010E-03  -2.67982500E-06
  -5.65000018E-03  -2.74409445E-06
  -5.59999980E-03  -2.80974496E-06
  -5.54999989E-03  -2.87680768E-06
  -5.49999997E-03  -2.94531583E-06
  -5.45000006E-03  -3.01530144E-06
  -5.40000014E-03  -3.08679159E-06
  -5.35000023E-03  -3.15981038E-06
  -5.29999984E-03  -3.23437871E-06
  -5.24999993E-03  -3.31051751E-06
  -5.20000001E-03  -3.38825248E-06
  -5.15000010E-03  -3.46761317E-06
  -5.10000018E-03  -3.54863391E-06
  -5.04999980E-03  -3.63135155E-06
  -4.99999989E-03  -3.71580177E-06
  -4.94999997E-03  -3.80201595E-06
  -4.90000006E-03  -3.89002207E-06
  -4.85000014E-03  -3.97984650E-06
  -4.80000023E-03  -4.07151356E-06
  -4.74999985E-03  -4.16505281E-06
  -4.69999993E-03  -4.26049837E-06
  -4.65000002E-03  -4.35788934E-06
  -4.60000010E-03  -4.45726482E-06
  -4.55000019E-03  -4.55866393E-06
  -4.49999981E-03  -4.66212305E-06
  -4.44999989E-03  -4.76767354E-06
  -4.39999998E-03  -4.87534635E-06
  -4.35000006E-03  -4.98517102E-06
  -4.30000015E-03  -5.09717984E-06
  -4.25000023E-03  -5.21141101E-06
  -4.19999985E-03  -5.32790591E-06
  -4.14999994E-03  -5.44670957E-06
  -4.10000002E-03  -5.56786426E-06
  -4.05000011E-03  -5.69141139E-06
  -4.00000019E-03  -5.81738686E-06
  -3.94999981E-03  -5.94582525E-06
  -3.89999989E-03  -6.07675975E-06
  -3.84999998E-03  -6.21022809E-06
  -3.80000006E-03  -6.34627304E-06
  -3.74999992E-03  -6.48494142E-06
  -3.70000000E-03  -6.62628190E-06
  -3.65000009E-03  -6.77034313E-06
  -3.59999994E-03  -6.91716878E-06
  -3.55000002E-03  -7.06680021E-06
  -3.50000011E-03  -7.21927563E-06
  -3.44999996E-03  -7.37463597E-06
  -3.40000005E-03  -7.53292170E-06
  -3.34999990E-03  -7.69417966E-06
  -3.29999998E-03  -7.85845987E-06
  -3.25000007E-03  -8.02581508E-06
  -3.19999992E-03  -8.19629895E-06
  -3.15000000E-03  -8.36995878E-06
  -3.10000009E-03  -8.54684185E-06
  -3.04999994E-03  -8.72698911E-06
  -3.00000003E-03  -8.91044419E-06
  -2.95000011E-03  -9.09725259E-06
  -2.89999996E-03  -9.28746431E-06
  -2.85000005E-03  -9.48113211E-06
  -2.79999990E-03  -9.67831511E-06
  -2.74999999E-03  -9.87907242E-06
  -2.70000007E-03  -1.00834550E-05
  -2.64999992E-03  -1.02915146E-05
  -2.60000001E-03  -1.05032959E-05
  -2.55000009E-03  -1.07188453E-05
  -2.49999994E-03  -1.09382117E-05
  -2.45000003E-03  -1.11614490E-05
  -2.40000011E-03  -1.13886181E-05
  -2.34999997E-03  -1.16197798E-05
  -2.30000005E-03  -1.18549960E-05
  -2.24999990E-03  -1.20943241E-05
  -2.19999999E-03  -1.23378159E-05
  -2.15000007E-03  -1.25855186E-05
  -2.09999993E-03  -1.28374822E-05
  -2.05000001E-03  -1.30937578E-05
  -2.00000009E-03  -1.33544017E-05
  -1.94999995E-03  -1.36194767E-05
  -1.90000003E-03  -1.38890482E-05
  -1.85000000E-03  -1.41631808E-05
  -1.79999997E-03  -1.44419373E-05
  -1.75000005E-03  -1.47253686E-05
  -1.70000002E-03  -1.50135265E-05
  -1.64999999E-03  -1.53064630E-05
  -1.59999996E-03  -1.56042279E-05
  -1.55000004E-03  -1.59068859E-05
  -1.50000001E-03  -1.62144952E-05
  -1.44999998E-03  -1.65271285E-05
  -1.39999995E-03  -1.68448514E-05
  -1.35000004E-03  -1.71677293E-05
  -1.30000000E-03  -1.74958150E-05
  -1.24999997E-03  -1.78291630E-05
  -1.20000006E-03  -1.81678224E-05
  -1.15000003E-03  -1.85118479E-05
  -1.09999999E-03  -1.88612958E-05
  -1.04999996E-03  -1.92162352E-05
  -1.00000005E-03  -1.95767352E-05
  -9.50000016E-04  -1.99428687E-05
  -8.99999985E-04  -2.03146974E-05
  -8.50000011E-04  -2.06922814E-05
  -7.99999980E-04  -2.10756680E-05
  -7.50000007E-04  -2.14649062E-05
  -6.99999975E-04  -2.18600453E-05
  -6.50000002E-04  -2.22611470E-05
  -6.00000028E-04  -2.26682769E-05
  -5.49999997E-04  -2.30815076E-05
  -5.00000024E-04  -2.35009065E-05
  -4.49999992E-04  -2.39265428E-05
  -3.99999990E-04  -2.43584673E-05
  -3.49999988E-04  -2.47967309E-05
  -3.00000014E-04  -2.52413793E-05
  -2.50000012E-04  -2.56924632E-05
  -1.99999995E-04  -2.61500372E-05
  -1.50000007E-04  -2.66141669E-05
  -9.99999975E-05  -2.70849250E-05
  -4.99999987E-05  -2.75623788E-05
   0.00000000      -2.80465902E-05
   4.99999987E-05  -2.85376136E-05
   9.99999975E-05  -2.90354892E-05
   1.50000007E-04  -2.95402679E-05
   1.99999995E-04  -3.00519860E-05
   2.50000012E-04  -3.05707035E-05
   3.00000014E-04  -3.10964788E-05
   3.49999988E-04  -3.16293736E-05
   3.99999990E-04  -3.21694606E-05
   4.49999992E-04  -3.27167872E-05
   5.00000024E-04  -3.32714044E-05
   5.49999997E-04  -3.38333557E-05
   6.00000028E-04  -3.44026739E-05
   6.50000002E-04  -3.49794027E-05
   6.99999975E-04  -3.55635893E-05
   7.50000007E-04  -3.61552811E-05
   7.99999980E-04  -3.67545363E-05
   8.50000011E-04  -3.73614093E-05
   8.99999985E-04  -3.79759622E-05
   9.50000016E-04  -3.85982421E-05
   1.00000005E-03  -3.92282709E-05
   1.04999996E-03  -3.98660850E-05
   1.09999999E-03  -4.05117098E-05
   1.15000003E-03  -4.11651818E-05
   1.20000006E-03  -4.18265336E-05
   1.24999997E-03  -4.24958198E-05
   1.30000000E-03  -4.31730914E-05
   1.35000004E-03  -4.38584029E-05
   1.39999995E-03  -4.45517871E-05
   1.44999998E-03  -4.52532586E-05
   1.50000001E-03  -4.59628318E-05
   1.55000004E-03  -4.66805213E-05
   1.59999996E-03  -4.74063527E-05
   1.64999999E-03  -4.81403549E-05
   1.70000002E-03  -4.88825644E-05
   1.75000005E-03  -4.96330249E-05
   1.79999997E-03  -5.03917618E-05
   1.85000000E-03  -5.11588005E-05
   1.90000003E-03  -5.19341484E-05
   1.94999995E-03  -5.27178054E-05
   2.00000009E-03  -5.35097752E-05
   2.05000001E-03  -5.43100541E-05
   2.09999993E-03  -5.51186604E-05
   2.15000007E-03  -5.59356195E-05
   2.19999999E-03  -5.67609495E-05
   2.24999990E-03  -5.75946651E-05
   2.30000005E-03  -5.84367808E-05
   2.34999997E-03  -5.92872893E-05
   2.40000011E-03  -6.01461688E-05
   2.45000003E-03  -6.10133975E-05
   2.49999994E-03  -6.18889608E-05
   2.55000009E-03  -6.27728441E-05
   2.60000001E-03  -6.36650584E-05
   2.64999992E-03  -6.45656037E-05
   2.70000007E-03  -6.54744799E-05
   2.74999999E-03  -6.63916653E-05
   2.79999990E-03  -6.73171453E-05