  -3.99999991E-02   0.00000000    
  -3.99499983E-02   0.00000000    
  -3.99000011E-02   0.00000000    
  -3.98500003E-02   0.00000000    
  -3.97999994E-02   1.35785981E-23
  -3.97499986E-02  -5.35769146E-23
  -3.97000015E-02  -9.80343725E-22
  -3.96500006E-02  -5.30648601E-21
  -3.95999998E-02  -1.80000156E-20
  -3.95499989E-02  -4.47312166E-20
  -3.95000018E-02  -8.58691089E-20
  -3.94500010E-02  -1.26705536E-19
  -3.94000001E-02  -1.28688986E-19
  -3.93499993E-02  -3.00551843E-20
  -3.92999984E-02   2.36566883E-19
  -3.92500013E-02   7.09588720E-19
  -3.92000005E-02   1.35955033E-18
  -3.91499996E-02   2.06925682E-18
  -3.90999988E-02   2.65616173E-18
  -3.90500017E-02   2.94350318E-18
  -3.90000008E-02   2.85764349E-18
  -3.89500000E-02   2.50263101E-18
  -3.88999991E-02   2.15823147E-18
  -3.88499983E-02   2.17556442E-18
  -3.88000011E-02   2.79758749E-18
  -3.87500003E-02   3.98419855E-18
  -3.86999995E-02   5.34157505E-18
  -3.86499986E-02   6.22250338E-18
  -3.86000015E-02   5.98501197E-18
  -3.85500006E-02   4.30433523E-18
  -3.84999998E-02   1.37683406E-18
  -3.84499989E-02  -2.12565606E-18
  -3.84000018E-02  -5.38836866E-18
  -3.83500010E-02  -7.95938745E-18
  -3.83000001E-02  -1.01917287E-17
  -3.82499993E-02  -1.33661328E-17
  -3.81999984E-02  -1.93588222E-17
  -3.81500013E-02  -2.99372016E-17
  -3.81000005E-02  -4.59800023E-17
  -3.80499996E-02  -6.70086904E-17
  -3.79999988E-02  -9.13168949E-17
  -3.79500017E-02  -1.16720889E-16
  -3.79000008E-02  -1.41641816E-16
  -3.78500000E-02  -1.66022706E-16
  -3.77999991E-02  -1.91600242E-16
  -3.77499983E-02  -2.21313192E-16
  -3.77000012E-02  -2.58038370E-16
  -3.76500003E-02  -3.03207699E-16
  -3.75999995E-02  -3.55981796E-16
  -3.75499986E-02  -4.13443002E-16
  -3.75000015E-02  -4.71796346E-16
  -3.74500006E-02  -5.28061515E-16
  -3.73999998E-02  -5.81458578E-16
  -3.73499990E-02  -6.33798597E-16
  -3.73000018E-02  -6.88644774E-16
  -3.72500010E-02  -7.49596206E-16
  -3.72000001E-02  -8.18471737E-16
  -3.71499993E-02  -8.94230470E-16
  -3.70999984E-02  -9.73112954E-16
  -3.70500013E-02  -1.04990094E-15
  -3.70000005E-02  -1.11966225E-15
  -3.69499996E-02  -1.17914959E-15
  -3.68999988E-02  -1.22727218E-15
  -3.68500017E-02  -1.26460325E-15
  -3.68000008E-02  -1.29241102E-15
  -3.67500000E-02  -1.31187542E-15
  -3.66999991E-02  -1.32388454E-15
  -3.66499983E-02  -1.32927400E-15
  -3.66000012E-02  -1.32896282E-15
  -3.65500003E-02  -1.32346219E-15
  -3.64999995E-02  -1.31173248E-15
  -3.64499986E-02  -1.29004674E-15
  -3.64000015E-02  -1.25192094E-15
  -3.63500006E-02  -1.18989897E-15
  -3.62999998E-02  -1.09901074E-15
  -3.62499990E-02  -9.80477377E-16
  -3.62000018E-02  -8.43455504E-16
  -3.61500010E-02  -7.02978107E-16
  -3.61000001E-02  -5.73911832E-16
  -3.60499993E-02  -4.63097370E-16
  -3.59999985E-02  -3.63612477E-16
  -3.59500013E-02  -2.55059673E-16
  -3.59000005E-02  -1.11436832E-16
  -3.58499996E-02   8.57316589E-17
  -3.57999988E-02   3.34898748E-16
  -3.57500017E-02   6.09698127E-16
  -3.57000008E-02   8.66454195E-16
  -3.56500000E-02   1.06301671E-15
  -3.55999991E-02   1.18155950E-15
  -3.55499983E-02   1.24408028E-15
  -3.55000012E-02   1.31060455E-15
  -3.54500003E-02   1.45701070E-15
  -3.53999995E-02   1.73950614E-15
  -3.53499986E-02   2.16137948E-15
  -3.53000015E-02   2.65982173E-15
  -3.52500007E-02   3.12389393E-15
  -3.51999998E-02   3.44087060E-15
  -3.51499990E-02   3.55308256E-15
  -3.51000018E-02   3.49858234E-15
  -3.50500010E-02   3.41217313E-15
  -3.50000001E-02   3.47905569E-15
  -3.49499993E-02   3.85577529E-15
  -3.48999985E-02   4.59208367E-15
  -3.48500013E-02   5.59256934E-15
  -3.48000005E-02   6.64353606E-15
  -3.47499996E-02   7.50219792E-15
  -3.46999988E-02   8.01378549E-15
  -3.46500017E-02   8.20284324E-15
  -3.46000008E-02   8.28959297E-15
  -3.45500000E-02   8.61194322E-15
  -3.44999991E-02   9.47760750E-15
  -3.44499983E-02   1.10089042E-14
  -3.44000012E-02   1.30554738E-14
  -3.43500003E-02   1.52274298E-14
  -3.42999995E-02   1.70495925E-14
  -3.42499986E-02   1.81780640E-14
  -3.42000015E-02   1.85817209E-14
  -3.41500007E-02   1.85951803E-14
  -3.40999998E-02   1.88001893E-14
  -3.40499990E-02   1.97706706E-14
  -3.40000018E-02   2.17879524E-14
  -3.39500010E-02   2.46609492E-14
  -3.39000002E-02   2.77520452E-14
  -3.38499993E-02   3.02218577E-14
  -3.37999985E-02   3.14010428E-14
  -3.37500013E-02   3.11243273E-14
  -3.37000005E-02   2.98600832E-14
  -3.36499996E-02   2.85479309E-14
  -3.35999988E-02   2.81878589E-14
  -3.35500017E-02   2.93499423E-14
  -3.35000008E-02   3.18321148E-14
  -3.34500000E-02   3.46485536E-14
  -3.33999991E-02   3.63928045E-14
  -3.33499983E-02   3.58442354E-14
  -3.33000012E-02   3.25544916E-14
  -3.32500003E-02   2.71309617E-14
  -3.31999995E-02   2.10485892E-14
  -3.31499986E-02   1.60292413E-14
  -3.31000015E-02   1.32390530E-14
  -3.30500007E-02   1.26676784E-14
  -3.29999998E-02   1.30044155E-14
  -3.29499990E-02   1.21213312E-14
  -3.29000019E-02   7.99508893E-15
  -3.28500010E-02  -3.27088125E-16
  -3.28000002E-02  -1.21723590E-14
  -3.27499993E-02  -2.54023470E-14
  -3.26999985E-02  -3.72818909E-14
  -3.26500013E-02  -4.57120880E-14
  -3.26000005E-02  -5.02768501E-14
  -3.25499997E-02  -5.25885826E-14
  -3.24999988E-02  -5.57028517E-14
  -3.24500017E-02  -6.27925378E-14
  -3.24000008E-02  -7.56405775E-14
  -3.23500000E-02  -9.36477729E-14
  -3.22999991E-02  -1.13871437E-13
  -3.22499983E-02  -1.32169151E-13
  -3.22000012E-02  -1.45005793E-13
  -3.21500003E-02  -1.51129828E-13
  -3.20999995E-02  -1.52316690E-13
  -3.20499986E-02  -1.52748961E-13
  -3.20000015E-02  -1.57209193E-13
  -3.19500007E-02  -1.68837017E-13
  -3.18999998E-02  -1.87470861E-13
  -3.18499990E-02  -2.09405139E-13
  -3.18000019E-02  -2.28795498E-13
  -3.17500010E-02  -2.40188430E-13
  -3.17000002E-02  -2.41078967E-13
  -3.16499993E-02  -2.33297566E-13
  -3.15999985E-02  -2.22480305E-13
  -3.15500014E-02  -2.15716130E-13
  -3.15000005E-02  -2.18327526E-13
  -3.14499997E-02  -2.31222593E-13
  -3.13999988E-02  -2.50100640E-13
  -3.13500017E-02  -2.67025307E-13
  -3.13000008E-02  -2.73810542E-13
  -3.12500000E-02  -2.65776360E-13
  -3.11999992E-02  -2.44149454E-13
  -3.11500002E-02  -2.15890131E-13
  -3.10999993E-02  -1.90838163E-13
  -3.10500003E-02  -1.77313771E-13
  -3.09999995E-02  -1.78111933E-13
  -3.09500005E-02  -1.88784183E-13
  -3.08999997E-02  -1.99170351E-13
  -3.08500007E-02  -1.97696704E-13
  -3.07999998E-02  -1.76635480E-13
  -3.07500008E-02  -1.35947473E-13
  -3.07000000E-02  -8.38247793E-14
  -3.06499992E-02  -3.34555822E-14
  -3.06000002E-02   2.74378874E-15
  -3.05499993E-02   1.89246896E-14
  -3.05000003E-02   1.89451065E-14
  -3.04499995E-02   1.52217868E-14
  -3.04000005E-02   2.35468620E-14
  -3.03499997E-02   5.60067536E-14
  -3.03000007E-02   1.15158276E-13
  -3.02499998E-02   1.92236391E-13
  -3.02000009E-02   2.70477813E-13
  -3.01500000E-02   3.32345506E-13
  -3.00999992E-02   3.67557899E-13
  -3.00500002E-02   3.78261441E-13
  -2.99999993E-02   3.78779609E-13
  -2.99500003E-02   3.89718477E-13
  -2.98999995E-02   4.28802989E-13
  -2.98500005E-02   5.02471166E-13
  -2.97999997E-02   6.02145937E-13
  -2.97500007E-02   7.07183173E-13
  -2.96999998E-02   7.93535159E-13
  -2.96500009E-02   8.44480627E-13
  -2.96000000E-02   8.58607348E-13
  -2.95499992E-02   8.51217751E-13
  -2.95000002E-02   8.48133738E-13
  -2.94499993E-02   8.74311962E-13
  -2.94000003E-02   9.42201503E-13
  -2.93499995E-02   1.04517263E-12
  -2.93000005E-02   1.15931288E-12
  -2.92499997E-02   1.25322799E-12
  -2.92000007E-02   1.30179504E-12
  -2.91499998E-02   1.29777818E-12
  -2.91000009E-02   1.25587279E-12
  -2.90500000E-02   1.20691662E-12
  -2.89999992E-02   1.18439579E-12
  -2.89500002E-02   1.20901162E-12
  -2.88999993E-02   1.27826948E-12
  -2.88500004E-02   1.36611436E-12
  -2.87999995E-02   1.43330812E-12
  -2.87500005E-02   1.44436503E-12
  -2.86999997E-02   1.38365025E-12
  -2.86500007E-02   1.26325426E-12
  -2.85999998E-02   1.11863654E-12
  -2.85500009E-02   9.93415311E-13
  -2.85000000E-02   9.19706152E-13
  -2.84499992E-02   9.02755681E-13
  -2.84000002E-02   9.17093333E-13
  -2.83499993E-02   9.16522609E-13
  -2.83000004E-02   8.54076467E-13
  -2.82499995E-02   7.03332791E-13
  -2.82000005E-02   4.71449431E-13
  -2.81499997E-02   1.97585560E-13
  -2.81000007E-02  -6.32708472E-14
  -2.80499998E-02  -2.64407826E-13
  -2.80000009E-02  -3.88838836E-13
  -2.79500000E-02  -4.58218749E-13
  -2.78999992E-02  -5.24585150E-13
  -2.78500002E-02  -6.47871784E-13
  -2.77999993E-02  -8.68743499E-13
  -2.77500004E-02  -1.18886324E-12
  -2.76999995E-02  -1.56788265E-12
  -2.76500005E-02  -1.93927903E-12
  -2.75999997E-02  -2.23870770E-12
  -2.75500007E-02  -2.43257909E-12
  -2.74999999E-02  -2.53392251E-12
  -2.74500009E-02  -2.59778700E-12
  -2.74000000E-02  -2.69736447E-12
  -2.73499992E-02  -2.89080999E-12
  -2.73000002E-02  -3.19337959E-12
  -2.72499993E-02  -3.56773660E-12
  -2.72000004E-02  -3.93760892E-12
  -2.71499995E-02  -4.21962638E-12
  -2.71000005E-02  -4.35972656E-12
  -2.70499997E-02  -4.35786997E-12
  -2.70000007E-02  -4.26939907E-12
  -2.69499999E-02  -4.18144555E-12
  -2.69000009E-02  -4.17401400E-12
  -2.68500000E-02  -4.28266797E-12
  -2.67999992E-02  -4.47976031E-12
  -2.67500002E-02  -4.68343897E-12
  -2.66999993E-02  -4.79150834E-12
  -2.66500004E-02  -4.72589372E-12
  -2.65999995E-02  -4.46806264E-12
  -2.65500005E-02  -4.06907103E-12
  -2.64999997E-02  -3.62868221E-12
  -2.64500007E-02  -3.25173937E-12
  -2.63999999E-02  -3.00057505E-12
  -2.63500009E-02  -2.86476940E-12
  -2.63000000E-02  -2.76259592E-12
  -2.62499992E-02  -2.57477676E-12
  -2.62000002E-02  -2.19661789E-12
  -2.61499994E-02  -1.58576960E-12
  -2.61000004E-02  -7.83925225E-13
  -2.60499995E-02   9.83261324E-14
  -2.60000005E-02   9.28104598E-13
  -2.59499997E-02   1.60853514E-12
  -2.59000007E-02   2.12294266E-12
  -2.58499999E-02   2.54451430E-12
  -2.58000009E-02   3.00576014E-12
  -2.57500000E-02   3.63998805E-12
  -2.56999992E-02   4.52005924E-12
  -2.56500002E-02   5.62187189E-12
  -2.55999994E-02   6.82992421E-12
  -2.55500004E-02   7.98402837E-12
  -2.54999995E-02   8.94770456E-12
  -2.54500005E-02   9.66830782E-12
  -2.53999997E-02   1.02015531E-11
  -2.53500007E-02   1.06881093E-11
  -2.52999999E-02   1.12910176E-11
  -2.52500009E-02   1.21206387E-11
  -2.52000000E-02   1.31803891E-11
  -2.51499992E-02   1.43584068E-11
  -2.51000002E-02   1.54705432E-11
  -2.50499994E-02   1.63372302E-11
  -2.50000004E-02   1.68608964E-11
  -2.49499995E-02   1.70692436E-11
  -2.49000005E-02   1.71037143E-11
  -2.48499997E-02   1.71564464E-11
  -2.48000007E-02   1.73822380E-11
  -2.47499999E-02   1.78241900E-11
  -2.47000009E-02   1.83868875E-11
  -2.46500000E-02   1.88708667E-11
  -2.45999992E-02   1.90549902E-11
  -2.45500002E-02   1.87914372E-11
  -2.44999994E-02   1.80711262E-11
  -2.44500004E-02   1.70292131E-11
  -2.43999995E-02   1.58861761E-11
  -2.43500005E-02   1.48487576E-11
  -2.42999997E-02   1.40139020E-11
  -2.42500007E-02   1.33188660E-11
  -2.41999999E-02   1.25615005E-11
  -2.41500009E-02   1.14839405E-11
  -2.41000000E-02   9.88430345E-12
  -2.40499992E-02   7.70726451E-12
  -2.40000002E-02   5.07222172E-12
  -2.39499994E-02   2.22442182E-12
  -2.39000004E-02  -5.71507468E-13
  -2.38499995E-02  -3.14971270E-12
  -2.38000005E-02  -5.52032422E-12
  -2.37499997E-02  -7.86977081E-12
  -2.37000007E-02  -1.04815757E-11
  -2.36499999E-02  -1.36105910E-11
  -2.36000009E-02  -1.73655430E-11
  -2.35500000E-02  -2.16527907E-11
  -2.34999992E-02  -2.62083636E-11
  -2.34500002E-02  -3.07066872E-11
  -2.33999994E-02  -3.48996179E-11
  -2.33500004E-02  -3.87244056E-11
  -2.32999995E-02  -4.23312982E-11
  -2.32500006E-02  -4.60159376E-11
  -2.31999997E-02  -5.00839613E-11
  -2.31500007E-02  -5.47064234E-11
  -2.30999999E-02  -5.98305155E-11
  -2.30500009E-02  -6.51871751E-11
  -2.30000000E-02  -7.03950509E-11
  -2.29499992E-02  -7.51170653E-11
  -2.29000002E-02  -7.92010069E-11
  -2.28499994E-02  -8.27406754E-11
  -2.28000004E-02  -8.60280042E-11
  -2.27499995E-02  -8.94143926E-11
  -2.27000006E-02  -9.31408353E-11
  -2.26499997E-02  -9.72120370E-11
  -2.26000007E-02  -1.01372098E-10
  -2.25499999E-02  -1.05195574E-10
  -2.25000009E-02  -1.08256439E-10
  -2.24500000E-02  -1.10301407E-10
  -2.23999992E-02  -1.11350255E-10
  -2.23500002E-02  -1.11676370E-10
  -2.22999994E-02  -1.11672775E-10
  -2.22500004E-02  -1.11660771E-10
  -2.21999995E-02  -1.11725150E-10
  -2.21500006E-02  -1.11650529E-10
  -2.20999997E-02  -1.10989926E-10
  -2.20500007E-02  -1.09238528E-10
  -2.19999999E-02  -1.06037568E-10
  -2.19500009E-02  -1.01318030E-10
  -2.19000001E-02  -9.53183990E-11
  -2.18499992E-02  -8.84652351E-11
  -2.18000002E-02  -8.11666637E-11
  -2.17499994E-02  -7.36088343E-11
  -2.17000004E-02  -6.56465160E-11
  -2.16499995E-02  -5.68392000E-11
  -2.16000006E-02  -4.66200585E-11
  -2.15499997E-02  -3.45257295E-11
  -2.15000007E-02  -2.03856584E-11
  -2.14499999E-02  -4.38550585E-12
  -2.14000009E-02   1.30266440E-11
  -2.13500001E-02   3.13531458E-11
  -2.12999992E-02   5.02862682E-11
  -2.12500002E-02   6.98680072E-11
  -2.11999994E-02   9.04969225E-11
  -2.11500004E-02   1.12775421E-10
  -2.10999995E-02   1.37262049E-10
  -2.10500006E-02   1.64237235E-10
  -2.09999997E-02   1.93587396E-10
  -2.09500007E-02   2.24861782E-10
  -2.08999999E-02   2.57480426E-10
  -2.08500009E-02   2.91003777E-10
  -2.08000001E-02   3.25344890E-10
  -2.07499992E-02   3.60828228E-10
  -2.07000002E-02   3.98065692E-10
  -2.06499994E-02   4.37700959E-10
  -2.06000004E-02   4.80133877E-10
  -2.05499995E-02   5.25347044E-10
  -2.05000006E-02   5.72914494E-10
  -2.04499997E-02   6.22191576E-10
  -2.04000007E-02   6.72606304E-10
  -2.03499999E-02   7.23922755E-10
  -2.03000009E-02   7.76359754E-10
  -2.02500001E-02   8.30508828E-10
  -2.01999992E-02   8.87083240E-10
  -2.01500002E-02   9.46608014E-10
  -2.00999994E-02   1.00918751E-09
  -2.00500004E-02   1.07445486E-09
  -1.99999996E-02   1.14173082E-09
  -1.99500006E-02   1.21032417E-09
  -1.98999997E-02   1.27984257E-09
  -1.98500007E-02   1.35037670E-09
  -1.97999999E-02   1.42247147E-09
  -1.97500009E-02   1.49689616E-09
  -1.97000001E-02   1.57430902E-09
  -1.96499992E-02   1.65496672E-09
  -1.96000002E-02   1.73860726E-09
  -1.95499994E-02   1.82456139E-09
  -1.95000004E-02   1.91204852E-09
  -1.94499996E-02   2.00052597E-09
  -1.94000006E-02   2.08994022E-09
  -1.93499997E-02   2.18076490E-09
  -1.93000007E-02   2.27380448E-09
  -1.92499999E-02   2.36985120E-09
  -1.92000009E-02   2.46933940E-09
  -1.91500001E-02   2.57215782E-09
  -1.90999992E-02   2.67770006E-09
  -1.90500002E-02   2.78513879E-09
  -1.89999994E-02   2.89380164E-09
  -1.89500004E-02   3.00348857E-09
  -1.88999996E-02   3.11458193E-09
  -1.88500006E-02   3.22790328E-09
  -1.87999997E-02   3.34437500E-09
  -1.87500007E-02   3.46463258E-09
  -1.86999999E-02   3.58876173E-09
  -1.86500009E-02   3.71627662E-09
  -1.86000001E-02   3.84635479E-09
  -1.85499992E-02   3.97822530E-09
  -1.85000002E-02   4.11154266E-09
  -1.84499994E-02   4.24657776E-09
  -1.84000004E-02   4.38414149E-09
  -1.83499996E-02   4.52526860E-09
  -1.83000006E-02   4.67080152E-09
  -1.82499997E-02   4.82105644E-09
  -1.82000007E-02   4.97571850E-09
  -1.81499999E-02   5.13402254E-09
  -1.81000009E-02   5.29513322E-09
  -1.80500001E-02   5.45856649E-09
  -1.79999992E-02   5.62446179E-09
  -1.79500002E-02   5.79358339E-09
  -1.78999994E-02   5.96705130E-09
  -1.78500004E-02   6.14590734E-09
  -1.77999996E-02   6.33071950E-09
  -1.77500006E-02   6.52139143E-09
  -1.76999997E-02   6.71726719E-09
  -1.76500008E-02   6.91748792E-09
  -1.75999999E-02   7.12144255E-09
  -1.75500009E-02   7.32911776E-09
  -1.75000001E-02   7.54119078E-09
  -1.74499992E-02   7.75881670E-09
  -1.74000002E-02   7.98320876E-09
  -1.73499994E-02   8.21518853E-09
  -1.73000004E-02   8.45490611E-09
  -1.72499996E-02   8.70186323E-09
  -1.72000006E-02   8.95521612E-09
  -1.71499997E-02   9.21424803E-09
  -1.71000008E-02   9.47878043E-09
  -1.70499999E-02   9.74936043E-09
  -1.70000009E-02   1.00271302E-08
  -1.69500001E-02   1.03134328E-08
  -1.68999992E-02   1.06093285E-08
  -1.68500002E-02   1.09152358E-08
  -1.67999994E-02   1.12308571E-08
  -1.67500004E-02   1.15554135E-08
  -1.66999996E-02   1.18881083E-08
  -1.66500006E-02   1.22285924E-08
  -1.65999997E-02   1.25772486E-08
  -1.65500008E-02   1.29351454E-08
  -1.64999999E-02   1.33037039E-08
  -1.64500009E-02   1.36841951E-08
  -1.64000001E-02   1.40773100E-08
  -1.63499992E-02   1.44829810E-08
  -1.63000003E-02   1.49005421E-08
  -1.62499994E-02   1.53291531E-08
  -1.62000004E-02   1.57683075E-08
  -1.61499996E-02   1.62181912E-08
  -1.61000006E-02   1.66797562E-08
  -1.60499997E-02   1.71544414E-08
  -1.60000008E-02   1.76436981E-08
  -1.59499999E-02   1.81484836E-08
  -1.59000009E-02   1.86690023E-08
  -1.58500001E-02   1.92047587E-08
  -1.57999992E-02   1.97549230E-08
  -1.57500003E-02   2.03188613E-08
  -1.56999994E-02   2.08965609E-08
  -1.56500004E-02   2.14888107E-08
  -1.55999996E-02   2.20970211E-08
  -1.55499997E-02   2.27227641E-08
  -1.54999997E-02   2.33672655E-08
  -1.54499998E-02   2.40310207E-08
  -1.53999999E-02   2.47137599E-08
  -1.53500000E-02   2.54147334E-08
  -1.53000001E-02   2.61332183E-08
  -1.52500002E-02   2.68690243E-08
  -1.52000003E-02   2.76227592E-08
  -1.51500003E-02   2.83957533E-08
  -1.51000004E-02   2.91896747E-08
  -1.50499996E-02   3.00059888E-08
  -1.49999997E-02   3.08455164E-08
  -1.49499997E-02   3.17082716E-08
  -1.48999998E-02   3.25936682E-08
  -1.48499999E-02   3.35009780E-08
  -1.48000000E-02   3.44298670E-08
  -1.47500001E-02   3.53807650E-08
  -1.47000002E-02   3.63549049E-08
  -1.46500003E-02   3.73539990E-08
  -1.46000003E-02   3.83797456E-08
  -1.45500004E-02   3.94332957E-08
  -1.44999996E-02   4.05150011E-08
  -1.44499997E-02   4.16245136E-08
  -1.43999998E-02   4.27611830E-08
  -1.43499998E-02   4.39246008E-08
  -1.42999999E-02   4.51150477E-08
  -1.42500000E-02   4.63336356E-08
  -1.42000001E-02   4.75821054E-08
  -1.41500002E-02   4.88623364E-08
  -1.41000003E-02   5.01758350E-08
  -1.40500003E-02   5.15233509E-08
  -1.40000004E-02   5.29048627E-08
  -1.39499996E-02   5.43198979E-08
  -1.38999997E-02   5.57680586E-08
  -1.38499998E-02   5.72495082E-08
  -1.37999998E-02   5.87652487E-08
  -1.37499999E-02   6.03170136E-08
  -1.37000000E-02   6.19068459E-08
  -1.36500001E-02   6.35365751E-08
  -1.36000002E-02   6.52073808E-08
  -1.35500003E-02   6.69196467E-08
  -1.35000004E-02   6.86731809E-08
  -1.34500004E-02   7.04676637E-08
  -1.33999996E-02   7.23032088E-08
  -1.33499997E-02   7.41807114E-08
  -1.32999998E-02   7.61018555E-08
  -1.32499998E-02   7.80688296E-08
  -1.31999999E-02   8.00837725E-08
  -1.31500000E-02   8.21482899E-08
  -1.31000001E-02   8.42632275E-08
  -1.30500002E-02   8.64287344E-08
  -1.30000003E-02   8.86446898E-08
  -1.29500004E-02   9.09112359E-08
  -1.29000004E-02   9.32291968E-08
  -1.28499996E-02   9.56001998E-08
  -1.27999997E-02   9.80265042E-08
  -1.27499998E-02   1.00510512E-07
  -1.26999998E-02   1.03054255E-07
  -1.26499999E-02   1.05659041E-07
  -1.26000000E-02   1.08325473E-07
  -1.25500001E-02   1.11053694E-07
  -1.25000002E-02   1.13843939E-07
  -1.24500003E-02   1.16696981E-07
  -1.24000004E-02   1.19614413E-07
  -1.23500004E-02   1.22598536E-07
  -1.22999996E-02   1.25651937E-07
  -1.22499997E-02   1.28777074E-07
  -1.21999998E-02   1.31975767E-07
  -1.21499998E-02   1.35249095E-07
  -1.20999999E-02   1.38597557E-07
  -1.20500000E-02   1.42021548E-07
  -1.20000001E-02   1.45521852E-07
  -1.19500002E-02   1.49100018E-07
  -1.19000003E-02   1.52758332E-07
  -1.18500004E-02   1.56499524E-07
  -1.18000004E-02   1.60326394E-07
  -1.17499996E-02   1.64241243E-07
  -1.16999997E-02   1.68245663E-07
  -1.16499998E-02   1.72340648E-07
  -1.15999999E-02   1.76526854E-07
  -1.15499999E-02   1.80805145E-07
  -1.15000000E-02   1.85177058E-07
  -1.14500001E-02   1.89644837E-07
  -1.14000002E-02   1.94211353E-07
  -1.13500003E-02   1.98879690E-07
  -1.13000004E-02   2.03652590E-07
  -1.12500004E-02   2.08532200E-07
  -1.11999996E-02   2.13519925E-07
  -1.11499997E-02   2.18616748E-07
  -1.10999998E-02   2.23823719E-07
  -1.10499999E-02   2.29142302E-07
  -1.09999999E-02   2.34574728E-07
  -1.09500000E-02   2.40123939E-07
  -1.09000001E-02   2.45793188E-07
  -1.08500002E-02   2.51585675E-07
  -1.08000003E-02   2.57504126E-07
  -1.07500004E-02   2.63550476E-07
  -1.07000005E-02   2.69726257E-07
  -1.06499996E-02   2.76032722E-07
  -1.05999997E-02   2.82471404E-07
  -1.05499998E-02   2.89044607E-07
  -1.04999999E-02   2.95755200E-07
  -1.04499999E-02   3.02606651E-07
  -1.04000000E-02   3.09602513E-07
  -1.03500001E-02   3.16745854E-07
  -1.03000002E-02   3.24039348E-07
  -1.02500003E-02   3.31484813E-07
  -1.02000004E-02   3.39083869E-07
  -1.01500005E-02   3.46838164E-07
  -1.00999996E-02   3.54749915E-07
  -1.00499997E-02   3.62822050E-07
  -9.99999978E-03   3.71058093E-07
  -9.94999986E-03   3.79461937E-07
  -9.89999995E-03   3.88037193E-07
  -9.85000003E-03   3.96786959E-07
  -9.80000012E-03   4.05713735E-07
  -9.75000020E-03   4.14819510E-07
  -9.70000029E-03   4.24106219E-07
  -9.65000037E-03   4.33576133E-07
  -9.60000046E-03   4.43232238E-07
  -9.54999961E-03   4.53078172E-07
  -9.49999969E-03   4.63118027E-07
  -9.44999978E-03   4.73355925E-07
  -9.39999986E-03   4.83795475E-07
  -9.34999995E-03   4.94439746E-07
  -9.30000003E-03   5.05291155E-07
  -9.25000012E-03   5.16351861E-07
  -9.20000020E-03   5.27624309E-07
  -9.15000029E-03   5.39111284E-07
  -9.10000037E-03   5.50816480E-07
  -9.05000046E-03   5.62743935E-07
  -8.99999961E-03   5.74898138E-07
  -8.94999970E-03   5.87283239E-07
  -8.89999978E-03   5.99902819E-07
  -8.84999987E-03   6.12759720E-07
  -8.79999995E-03   6.25856615E-07
  -8.75000004E-03   6.39196003E-07
  -8.70000012E-03   6.52780784E-07
  -8.65000021E-03   6.66614596E-07
  -8.60000029E-03   6.80701760E-07
  -8.55000038E-03   6.95046992E-07
  -8.50000046E-03   7.09654842E-07
  -8.44999962E-03   7.24529457E-07
  -8.39999970E-03   7.39674363E-07
  -8.34999979E-03   7.55092572E-07
  -8.29999987E-03   7.70786755E-07
  -8.24999996E-03   7.86759870E-07
  -8.20000004E-03   8.03015496E-07
  -8.15000013E-03   8.19557897E-07
  -8.10000021E-03   8.36391848E-07
  -8.05000030E-03   8.53522124E-07
  -8.00000038E-03   8.70953329E-07
  -7.95000046E-03   8.88689499E-07
  -7.89999962E-03   9.06733817E-07
  -7.84999970E-03   9.25089239E-07
  -7.79999979E-03   9.43758721E-07
  -7.74999987E-03   9.62745730E-07
  -7.69999996E-03   9.82054303E-07
  -7.65000004E-03   1.00168938E-06
  -7.60000013E-03   1.02165598E-06
  -7.55000021E-03   1.04195919E-06
  -7.49999983E-03   1.06260347E-06
  -7.44999992E-03   1.08359257E-06
  -7.40000000E-03   1.10492965E-06
  -7.35000009E-03   1.12661792E-06
  -7.30000017E-03   1.14866066E-06
  -7.24999979E-03   1.17106174E-06
  -7.19999988E-03   1.19382582E-06
  -7.14999996E-03   1.21695837E-06
  -7.10000005E-03   1.24046448E-06
  -7.05000013E-03   1.26434918E-06
  -7.00000022E-03   1.28861666E-06
  -6.94999984E-03   1.31327022E-06
  -6.89999992E-03   1.33831259E-06
  -6.85000001E-03   1.36374706E-06
  -6.80000009E-03   1.38957739E-06
  -6.75000018E-03   1.41580790E-06
  -6.69999979E-03   1.44244370E-06
  -6.64999988E-03   1.46949048E-06
  -6.59999996E-03   1.49695302E-06
  -6.55000005E-03   1.52483597E-06
  -6.50000013E-03   1.55314285E-06
  -6.45000022E-03   1.58187663E-06
  -6.39999984E-03   1.61103992E-06
  -6.34999992E-03   1.64063658E-06
  -6.30000001E-03   1.67067071E-06
  -6.25000009E-03   1.70114720E-06
  -6.20000018E-03   1.73207161E-06
  -6.14999980E-03   1.76344918E-06
  -6.09999988E-03   1.79528456E-06
  -6.04999997E-03   1.82758151E-06
  -6.00000005E-03   1.86034265E-06
  -5.95000014E-03   1.89357092E-06
  -5.90000022E-03   1.92726907E-06
  -5.84999984E-03   1.96144106E-06
  -5.79999993E-03   1.99609144E-06
  -5.75000001E-03   2.03122522E-06
  -5.70000010E-03   2.06684786E-06
  -5.65000018E-03   2.10296389E-06
  -5.59999980E-03   2.13957674E-06
  -5.54999989E-03   2.17668889E-06
  -5.49999997E-03   2.21430287E-06
  -5.45000006E-03   2.25242115E-06
  -5.40000014E-03   2.29104671E-06
  -5.35000023E-03   2.33018341E-06
  -5.29999984E-03   2.36983669E-06
  -5.24999993E-03   2.41001135E-06
  -5.20000001E-03   2.45071192E-06
  -5.15000010E-03   2.49194136E-06
  -5.10000018E-03   2.53370217E-06
  -5.04999980E-03   2.57599618E-06
  -4.99999989E-03   2.61882542E-06
  -4.94999997E-03   2.66219217E-06
  -4.90000006E-03   2.70609962E-06
  -4.85000014E-03   2.75055277E-06
  -4.80000023E-03   2.79555525E-06
  -4.74999985E-03   2.84111138E-06
  -4.69999993E-03   2.88722390E-06
  -4.65000002E-03   2.93389508E-06
  -4.60000010E-03   2.98112514E-06
  -4.55000019E-03   3.02891544E-06
  -4.49999981E-03   3.07726691E-06
  -4.44999989E-03   3.12618249E-06
  -4.39999998E-03   3.17566514E-06
  -4.35000006E-03   3.22571873E-06
  -4.30000015E-03   3.27634643E-06
  -4.25000023E-03   3.32755030E-06
  -4.19999985E-03   3.37933193E-06
  -4.14999994E-03   3.43169086E-06
  -4.10000002E-03   3.48462663E-06
  -4.05000011E-03   3.53813994E-06
  -4.00000019E-03   3.59223145E-06
  -3.94999981E-03   3.64690345E-06
  -3.89999989E-03   3.70215844E-06
  -3.84999998E-03   3.75799891E-06
  -3.80000006E-03   3.81442669E-06
  -3.74999992E-03   3.87144155E-06
  -3.70000000E-03   3.92904212E-06
  -3.65000009E-03   3.98722568E-06
  -3.59999994E-03   4.04599177E-06
  -3.55000002E-03   4.10533949E-06
  -3.50000011E-03   4.16526973E-06
  -3.44999996E-03   4.22578296E-06
  -3.40000005E-03   4.28688054E-06
  -3.34999990E-03   4.34856247E-06
  -3.29999998E-03   4.41082739E-06
  -3.25000007E-03   4.47367256E-06
  -3.19999992E-03   4.53709345E-06
  -3.15000000E-03   4.60108731E-06
  -3.10000009E-03   4.66565189E-06
  -3.04999994E-03   4.73078444E-06
  -3.00000003E-03   4.79648543E-06
  -2.95000011E-03   4.86275394E-06
  -2.89999996E-03   4.92958770E-06
  -2.85000005E-03   4.99698399E-06
  -2.79999990E-03   5.06493825E-06
  -2.74999999E-03   5.13344503E-06
  -2.70000007E-03   5.20249750E-06
  -2.64999992E-03   5.27209158E-06
  -2.60000001E-03   5.34222227E-06
  -2.55000009E-03   5.41288728E-06
  -2.49999994E-03   5.48408343E-06
  -2.45000003E-03   5.55580800E-06
  -2.40000011E-03   5.62805508E-06
  -2.34999997E-03   5.70081784E-06
  -2.30000005E-03   5.77408855E-06
  -2.24999990E-03   5.84785721E-06
  -2.19999999E-03   5.92211563E-06
  -2.15000007E-03   5.99685700E-06
  -2.09999993E-03   6.07207676E-06
  -2.05000001E-03   6.14776900E-06
  -2.00000009E-03   6.22392690E-06
  -1.94999995E-03   6.30054501E-06
  -1.90000003E-03   6.37761150E-06
  -1.85000000E-03   6.45511500E-06
  -1.79999997E-03   6.53304460E-06
  -1.75000005E-03   6.61138847E-06
  -1.70000002E-03   6.69013571E-06
  -1.64999999E-03   6.76927857E-06
  -1.59999996E-03   6.84880797E-06
  -1.55000004E-03   6.92871572E-06
  -1.50000001E-03   7.00899136E-06
  -1.44999998E-03   7.08962307E-06
  -1.39999995E-03   7.17059538E-06
  -1.35000004E-03   7.25189284E-06
  -1.30000000E-03   7.33349952E-06
  -1.24999997E-03   7.41540089E-06
  -1.20000006E-03   7.49758465E-06
  -1.15000003E-03   7.58003898E-06
  -1.09999999E-03   7.66275207E-06
  -1.04999996E-03   7.74571163E-06
  -1.00000005E-03   7.82890129E-06
  -9.50000016E-04   7.91230286E-06
  -8.99999985E-04   7.99589634E-06
  -8.50000011E-04   8.07966080E-06
  -7.99999980E-04   8.16357715E-06
  -7.50000007E-04   8.24762992E-06
  -6.99999975E-04   8.33180366E-06
  -6.50000002E-04   8.41608198E-06
  -6.00000028E-04   8.50045035E-06
  -5.49999997E-04   8.58488784E-06
  -5.00000024E-04   8.66937353E-06
  -4.49999992E-04   8.75388196E-06
  -3.99999990E-04   8.83839039E-06
  -3.49999988E-04   8.92287153E-06
  -3.00000014E-04   9.00730538E-06
  -2.50000012E-04   9.09167284E-06
  -1.99999995E-04   9.17595389E-06
  -1.50000007E-04   9.26013035E-06
  -9.99999975E-05   9.34417767E-06
  -4.99999987E-05   9.42807037E-06
   0.00000000       9.51177844E-06
   4.99999987E-05   9.59527279E-06
   9.99999975E-05   9.67852429E-06
   1.50000007E-04   9.76150568E-06
   1.99999995E-04   9.84419148E-06
   2.50000012E-04   9.92655987E-06
   3.00000014E-04   1.00085854E-05
   3.49999988E-04   1.00902416E-05
   3.99999990E-04   1.01714986E-05
   4.49999992E-04   1.02523236E-05
   5.00000024E-04   1.03326802E-05
   5.49999997E-04   1.04125329E-05
   6.00000028E-04   1.04918499E-05
   6.50000002E-04   1.05706004E-05
   6.99999975E-04   1.06487569E-05
   7.50000007E-04   1.07262913E-05
   7.99999980E-04   1.08031718E-05
   8.50000011E-04   1.08793665E-05
   8.99999985E-04   1.09548355E-05
   9.50000016E-04   1.10295387E-05
   1.00000005E-03   1.11034342E-05
   1.04999996E-03   1.11764839E-05
   1.09999999E-03   1.12486523E-05
   1.15000003E-03   1.13199039E-05
   1.20000006E-03   1.13902097E-05
   1.24999997E-03   1.14595341E-05
   1.30000000E-03   1.15278381E-05
   1.35000004E-03   1.15950788E-05
   1.39999995E-03   1.16612091E-05
   1.44999998E-03   1.17261816E-05
   1.50000001E-03   1.17899526E-05
   1.55000004E-03   1.18524786E-05
   1.59999996E-03   1.19137212E-05
   1.64999999E-03   1.19736451E-05
   1.70000002E-03   1.20322102E-05
   1.75000005E-03   1.20893746E-05
   1.79999997E-03   1.21450930E-05
   1.85000000E-03   1.21993126E-05
   1.90000003E-03   1.22519796E-05
   1.94999995E-03   1.23030413E-05
   2.00000009E-03   1.23524487E-05
   2.05000001E-03   1.24001590E-05
   2.09999993E-03   1.24461321E-05
   2.15000007E-03   1.24903254E-05
   2.19999999E-03   1.25326933E-05
   2.24999990E-03   1.25731849E-05
   2.30000005E-03   1.26117420E-05
   2.34999997E-03   1.26483055E-05
   2.40000011E-03   1.26828163E-05
   2.45000003E-03   1.27152207E-05
   2.49999994E-03   1.27454696E-05
   2.55000009E-03   1.27735166E-05
   2.60000001E-03   1.27993162E-05
   2.64999992E-03   1.28228221E-05
   2.70000007E-03   1.28439760E-05
   2.74999999E-03   1.28627162E-05
   2.79999990E-03   1.28789779E-05