  -3.99999991E-02   0.00000000    
  -3.99499983E-02   0.00000000    
  -3.99000011E-02   0.00000000    
  -3.98500003E-02  -9.10724425E-16
  -3.97999994E-02  -3.82589917E-15
  -3.97499986E-02  -3.44242914E-15
  -3.97000015E-02   1.75856305E-14
  -3.96500006E-02   8.12915477E-14
  -3.95999998E-02   2.00567942E-13
  -3.95499989E-02   3.82999378E-13
  -3.95000018E-02   6.52973064E-13
  -3.94500010E-02   1.04770608E-12
  -3.94000001E-02   1.55319757E-12
  -3.93499993E-02   2.03321019E-12
  -3.92999984E-02   2.26422765E-12
  -3.92500013E-02   2.10581119E-12
  -3.92000005E-02   1.66358648E-12
  -3.91499996E-02   1.25222695E-12
  -3.90999988E-02   1.14802905E-12
  -3.90500017E-02   1.35584480E-12
  -3.90000008E-02   1.61219389E-12
  -3.89500000E-02   1.57856334E-12
  -3.88999991E-02   9.69217545E-13
  -3.88499983E-02  -5.09644789E-13
  -3.88000011E-02  -3.21491314E-12
  -3.87500003E-02  -7.36828914E-12
  -3.86999995E-02  -1.27208114E-11
  -3.86499986E-02  -1.85427784E-11
  -3.86000015E-02  -2.41983135E-11
  -3.85500006E-02  -2.99089642E-11
  -3.84999998E-02  -3.69469108E-11
  -3.84499989E-02  -4.69554395E-11
  -3.84000018E-02  -6.09598136E-11
  -3.83500010E-02  -7.89364130E-11
  -3.83000001E-02  -1.00177720E-10
  -3.82499993E-02  -1.23860366E-10
  -3.81999984E-02  -1.49190035E-10
  -3.81500013E-02  -1.75267259E-10
  -3.81000005E-02  -2.01338946E-10
  -3.80499996E-02  -2.27586935E-10
  -3.79999988E-02  -2.55637511E-10
  -3.79500017E-02  -2.87880247E-10
  -3.79000008E-02  -3.25844657E-10
  -3.78500000E-02  -3.69068748E-10
  -3.77999991E-02  -4.15604134E-10
  -3.77499983E-02  -4.63678179E-10
  -3.77000012E-02  -5.12844989E-10
  -3.76500003E-02  -5.63595892E-10
  -3.75999995E-02  -6.16146967E-10
  -3.75499986E-02  -6.69924893E-10
  -3.75000015E-02  -7.24192484E-10
  -3.74500006E-02  -7.78700437E-10
  -3.73999998E-02  -8.33212110E-10
  -3.73499990E-02  -8.86322793E-10
  -3.73000018E-02  -9.35174493E-10
  -3.72500010E-02  -9.76772996E-10
  -3.72000001E-02  -1.00958530E-09
  -3.71499993E-02  -1.03349829E-09
  -3.70999984E-02  -1.04803322E-09
  -3.70500013E-02  -1.05096676E-09
  -3.70000005E-02  -1.03936759E-09
  -3.69499996E-02  -1.01242870E-09
  -3.68999988E-02  -9.73201297E-10
  -3.68500017E-02  -9.27123656E-10
  -3.68000008E-02  -8.78324802E-10
  -3.67500000E-02  -8.26682944E-10
  -3.66999991E-02  -7.67504893E-10
  -3.66499983E-02  -6.93054891E-10
  -3.66000012E-02  -5.94210126E-10
  -3.65500003E-02  -4.62005267E-10
  -3.64999995E-02  -2.90235752E-10
  -3.64499986E-02  -7.90234544E-11
  -3.64000015E-02   1.63421610E-10
  -3.63500006E-02   4.24009772E-10
  -3.62999998E-02   6.92549185E-10
  -3.62499990E-02   9.69027414E-10
  -3.62000018E-02   1.26456901E-09
  -3.61500010E-02   1.59463820E-09
  -3.61000001E-02   1.96883598E-09
  -3.60499993E-02   2.38364506E-09
  -3.59999985E-02   2.82169332E-09
  -3.59500013E-02   3.25706662E-09
  -3.59000005E-02   3.66438480E-09
  -3.58499996E-02   4.02945055E-09
  -3.57999988E-02   4.35842606E-09
  -3.57500017E-02   4.68040806E-09
  -3.57000008E-02   5.03838304E-09
  -3.56500000E-02   5.46902701E-09
  -3.55999991E-02   5.98030292E-09
  -3.55499983E-02   6.54028698E-09
  -3.55000012E-02   7.08587411E-09
  -3.54500003E-02   7.54852181E-09
  -3.53999995E-02   7.88426124E-09
  -3.53499986E-02   8.09329936E-09
  -3.53000015E-02   8.22048563E-09
  -3.52500007E-02   8.33631830E-09
  -3.51999998E-02   8.50476400E-09
  -3.51499990E-02   8.74932393E-09
  -3.51000018E-02   9.03191300E-09
  -3.50500010E-02   9.25784427E-09
  -3.50000001E-02   9.31083477E-09
  -3.49499993E-02   9.10570463E-09
  -3.48999985E-02   8.63307559E-09
  -3.48500013E-02   7.97053712E-09
  -3.48000005E-02   7.25077820E-09
  -3.47499996E-02   6.60009825E-09
  -3.46999988E-02   6.07646955E-09
  -3.46500017E-02   5.63641311E-09
  -3.46000008E-02   5.14668841E-09
  -3.45500000E-02   4.43796244E-09
  -3.44999991E-02   3.38056982E-09
  -3.44499983E-02   1.95102734E-09
  -3.44000012E-02   2.56658444E-10
  -3.43500003E-02  -1.50067547E-09
  -3.42999995E-02  -3.11350812E-09
  -3.42499986E-02  -4.47211512E-09
  -3.42000015E-02  -5.62996272E-09
  -3.41500007E-02  -6.79282719E-09
  -3.40999998E-02  -8.23008861E-09
  -3.40499990E-02  -1.01469046E-08
  -3.40000018E-02  -1.25766295E-08
  -3.39500010E-02  -1.53448543E-08
  -3.39000002E-02  -1.81257658E-08
  -3.38499993E-02  -2.05723101E-08
  -3.37999985E-02  -2.24681482E-08
  -3.37500013E-02  -2.38343283E-08
  -3.37000005E-02  -2.49352254E-08
  -3.36499996E-02  -2.61680739E-08
  -3.35999988E-02  -2.78760837E-08
  -3.35500017E-02  -3.01696375E-08
  -3.35000008E-02  -3.28458114E-08
  -3.34500000E-02  -3.54543062E-08
  -3.33999991E-02  -3.74873323E-08
  -3.33499983E-02  -3.86089098E-08
  -3.33000012E-02  -3.88174470E-08
  -3.32500003E-02  -3.84631313E-08
  -3.31999995E-02  -3.81041474E-08
  -3.31499986E-02  -3.82559442E-08
  -3.31000015E-02  -3.91393620E-08
  -3.30500007E-02  -4.05437923E-08
  -3.29999998E-02  -4.18810444E-08
  -3.29499990E-02  -4.24235118E-08
  -3.29000019E-02  -4.16290433E-08
  -3.28500010E-02  -3.94009270E-08
  -3.28000002E-02  -3.61516044E-08
  -3.27499993E-02  -3.26277849E-08
  -3.26999985E-02  -2.95693123E-08
  -3.26500013E-02  -2.73571921E-08
  -3.26000005E-02  -2.58144794E-08
  -3.25499997E-02  -2.42581475E-08
  -3.24999988E-02  -2.17916458E-08
  -3.24500017E-02  -1.77191257E-08
  -3.24000008E-02  -1.18986350E-08
  -3.23500000E-02  -4.86329288E-09
  -3.22999991E-02   2.36850872E-09
  -3.22499983E-02   8.73000960E-09
  -3.22000012E-02   1.35993092E-08
  -3.21500003E-02   1.71139565E-08
  -3.20999995E-02   2.01440553E-08
  -3.20499986E-02   2.39186857E-08
  -3.20000015E-02   2.94658928E-08
  -3.19500007E-02   3.71187454E-08
  -3.18999998E-02   4.63153356E-08
  -3.18499990E-02   5.57967041E-08
  -3.18000019E-02   6.41332036E-08
  -3.17500010E-02   7.03585954E-08
  -3.17000002E-02   7.44273692E-08
  -3.16499993E-02   7.72696396E-08
  -3.15999985E-02   8.03904712E-08
  -3.15500014E-02   8.51732764E-08
  -3.15000005E-02   9.22019723E-08
  -3.14499997E-02   1.00926492E-07
  -3.13999988E-02   1.09844962E-07
  -3.13500017E-02   1.17136643E-07
  -3.13000008E-02   1.21467039E-07
  -3.12500000E-02   1.22601278E-07
  -3.11999992E-02   1.21540907E-07
  -3.11500002E-02   1.20103635E-07
  -3.10999993E-02   1.20110329E-07
  -3.10500003E-02   1.22530153E-07
  -3.09999995E-02   1.26976261E-07
  -3.09500005E-02   1.31808051E-07
  -3.08999997E-02   1.34826223E-07
  -3.08500007E-02   1.34262265E-07
  -3.07999998E-02   1.29607599E-07
  -3.07500008E-02   1.21886202E-07
  -3.07000000E-02   1.13224118E-07
  -3.06499992E-02   1.05895332E-07
  -3.06000002E-02   1.01269222E-07
  -3.05499993E-02   9.91366989E-08
  -3.05000003E-02   9.77338175E-08
  -3.04499995E-02   9.44781888E-08
  -3.04000005E-02   8.71179040E-08
  -3.03499997E-02   7.47896607E-08
  -3.03000007E-02   5.84898245E-08
  -3.02499998E-02   4.07097325E-08
  -3.02000009E-02   2.43634197E-08
  -3.01500000E-02   1.14822125E-08
  -3.00999992E-02   2.27656272E-09
  -3.00500002E-02  -4.99299091E-09
  -2.99999993E-02  -1.32544073E-08
  -2.99500003E-02  -2.53020112E-08
  -2.98999995E-02  -4.24984989E-08
  -2.98500005E-02  -6.40836859E-08
  -2.97999997E-02  -8.74212631E-08
  -2.97500007E-02  -1.09104228E-07
  -2.96999998E-02  -1.26452477E-07
  -2.96500009E-02  -1.38740120E-07
  -2.96000000E-02  -1.47571242E-07
  -2.95499992E-02  -1.56195824E-07
  -2.95000002E-02  -1.68048928E-07
  -2.94499993E-02  -1.85162349E-07
  -2.94000003E-02  -2.07175816E-07
  -2.93499995E-02  -2.31409530E-07
  -2.93000005E-02  -2.53979749E-07
  -2.92499997E-02  -2.71472629E-07
  -2.92000007E-02  -2.82439856E-07
  -2.91499998E-02  -2.88044760E-07
  -2.91000009E-02  -2.91547309E-07
  -2.90500000E-02  -2.96824311E-07
  -2.89999992E-02  -3.06565255E-07
  -2.89500002E-02  -3.20958009E-07
  -2.88999993E-02  -3.37485716E-07
  -2.88500004E-02  -3.51963280E-07
  -2.87999995E-02  -3.60368517E-07
  -2.87500005E-02  -3.60645146E-07
  -2.86999997E-02  -3.53656588E-07
  -2.86500007E-02  -3.42845880E-07
  -2.85999998E-02  -3.32732753E-07
  -2.85500009E-02  -3.26895815E-07
  -2.85000000E-02  -3.26322692E-07
  -2.84499992E-02  -3.28872545E-07
  -2.84000002E-02  -3.30125573E-07
  -2.83499993E-02  -3.25276289E-07
  -2.83000004E-02  -3.11256912E-07
  -2.82499995E-02  -2.88139518E-07
  -2.82000005E-02  -2.59158497E-07
  -2.81499997E-02  -2.29313187E-07
  -2.81000007E-02  -2.03159843E-07
  -2.80499998E-02  -1.82773007E-07
  -2.80000009E-02  -1.66789789E-07
  -2.79500000E-02  -1.50978323E-07
  -2.78999992E-02  -1.30091252E-07
  -2.78500002E-02  -1.00211743E-07
  -2.77999993E-02  -6.05754380E-08
  -2.77500004E-02  -1.40422838E-08
  -2.76999995E-02   3.40311033E-08
  -2.76500005E-02   7.80587470E-08
  -2.75999997E-02   1.14642219E-07
  -2.75500007E-02   1.44063520E-07
  -2.74999999E-02   1.70164924E-07
  -2.74500009E-02   1.98635462E-07
  -2.74000000E-02   2.34448933E-07
  -2.73499992E-02   2.79580547E-07
  -2.73000002E-02   3.32023802E-07
  -2.72499993E-02   3.86547384E-07
  -2.72000004E-02   4.36877258E-07
  -2.71499995E-02   4.78380230E-07
  -2.71000005E-02   5.10082145E-07
  -2.70499997E-02   5.35110473E-07
  -2.70000007E-02   5.59314060E-07
  -2.69499999E-02   5.88625085E-07
  -2.69000009E-02   6.26312669E-07
  -2.68500000E-02   6.71361192E-07
  -2.67999992E-02   7.18731997E-07
  -2.67500002E-02   7.61424246E-07
  -2.66999993E-02   7.93446191E-07
  -2.66500004E-02   8.12398923E-07
  -2.65999995E-02   8.20534183E-07
  -2.65500005E-02   8.23796654E-07
  -2.64999997E-02   8.29223154E-07
  -2.64500007E-02   8.41792087E-07
  -2.63999999E-02   8.62090758E-07
  -2.63500009E-02   8.85863187E-07
  -2.63000000E-02   9.05709271E-07
  -2.62499992E-02   9.14248631E-07
  -2.62000002E-02   9.07365006E-07
  -2.61499994E-02   8.86084308E-07
  -2.61000004E-02   8.56216445E-07
  -2.60499995E-02   8.25874167E-07
  -2.60000005E-02   8.01932856E-07
  -2.59499997E-02   7.86954104E-07
  -2.59000007E-02   7.77925663E-07
  -2.58499999E-02   7.67422364E-07
  -2.58000009E-02   7.46747503E-07
  -2.57500000E-02   7.09735843E-07
  -2.56999992E-02   6.55561507E-07
  -2.56500002E-02   5.89259685E-07
  -2.55999994E-02   5.19649632E-07
  -2.55500004E-02   4.55529658E-07
  -2.54999995E-02   4.01792960E-07
  -2.54500005E-02   3.57215413E-07
  -2.53999997E-02   3.14927178E-07
  -2.53500007E-02   2.65413973E-07
  -2.52999999E-02   2.00783447E-07
  -2.52500009E-02   1.18406518E-07
  -2.52000000E-02   2.23194068E-08
  -2.51499992E-02  -7.82918619E-08
  -2.51000002E-02  -1.72964192E-07
  -2.50499994E-02  -2.54551082E-07
  -2.50000004E-02  -3.22491843E-07
  -2.49499995E-02  -3.83222186E-07
  -2.49000005E-02  -4.47438765E-07
  -2.48499997E-02  -5.25351936E-07
  -2.48000007E-02  -6.22021673E-07
  -2.47499999E-02  -7.34880985E-07
  -2.47000009E-02  -8.54604309E-07
  -2.46500000E-02  -9.69004645E-07
  -2.45999992E-02  -1.06830521E-06
  -2.45500002E-02  -1.14948057E-06
  -2.44999994E-02  -1.21769870E-06
  -2.44500004E-02  -1.28414160E-06
  -2.43999995E-02  -1.36104609E-06
  -2.43500005E-02  -1.45608442E-06
  -2.42999997E-02  -1.56862791E-06
  -2.42500007E-02  -1.68966801E-06
  -2.41999999E-02  -1.80554923E-06
  -2.41500009E-02  -1.90392302E-06
  -2.41000000E-02  -1.97927170E-06
  -2.40499992E-02  -2.03550280E-06
  -2.40000002E-02  -2.08438814E-06
  -2.39499994E-02  -2.14045622E-06
  -2.39000004E-02  -2.21452638E-06
  -2.38499995E-02  -2.30872502E-06
  -2.38000005E-02  -2.41524936E-06
  -2.37499997E-02  -2.51957340E-06
  -2.37000007E-02  -2.60680258E-06
  -2.36499999E-02  -2.66837515E-06
  -2.36000009E-02  -2.70606870E-06
  -2.35500000E-02  -2.73138903E-06
  -2.34999992E-02  -2.76052515E-06
  -2.34500002E-02  -2.80710287E-06
  -2.33999994E-02  -2.87595867E-06
  -2.33500004E-02  -2.96076973E-06
  -2.32999995E-02  -3.04668924E-06
  -2.32500006E-02  -3.11689701E-06
  -2.31999997E-02  -3.16021874E-06
  -2.31500007E-02  -3.17642116E-06
  -2.30999999E-02  -3.17667627E-06
  -2.30500009E-02  -3.17886247E-06
  -2.30000000E-02  -3.19966216E-06
  -2.29499992E-02  -3.24700682E-06
  -2.29000002E-02  -3.31637261E-06
  -2.28499994E-02  -3.39269036E-06
  -2.28000004E-02  -3.45710350E-06
  -2.27499995E-02  -3.49556399E-06
  -2.27000006E-02  -3.50543723E-06
  -2.26499997E-02  -3.49706534E-06
  -2.26000007E-02  -3.48948970E-06
  -2.25499999E-02  -3.50214827E-06
  -2.25000009E-02  -3.54617441E-06
  -2.24500000E-02  -3.61922616E-06
  -2.23999992E-02  -3.70630869E-06
  -2.23500002E-02  -3.78643040E-06
  -2.22999994E-02  -3.84213581E-06
  -2.22500004E-02  -3.86761485E-06
  -2.21999995E-02  -3.87164164E-06
  -2.21500006E-02  -3.87389218E-06
  -2.20999997E-02  -3.89633897E-06
  -2.20500007E-02  -3.95354073E-06
  -2.19999999E-02  -4.04608727E-06
  -2.19500009E-02  -4.16027751E-06
  -2.19000001E-02  -4.27426767E-06
  -2.18499992E-02  -4.36800929E-06
  -2.18000002E-02  -4.43262434E-06
  -2.17499994E-02  -4.47481352E-06
  -2.17000004E-02  -4.51412916E-06
  -2.16499995E-02  -4.57439273E-06
  -2.16000006E-02  -4.67299424E-06
  -2.15499997E-02  -4.81291545E-06
  -2.15000007E-02  -4.98123882E-06
  -2.14499999E-02  -5.15496185E-06
  -2.14000009E-02  -5.31140722E-06
  -2.13500001E-02  -5.43856095E-06
  -2.12999992E-02  -5.54072858E-06
  -2.12500002E-02  -5.63689491E-06
  -2.11999994E-02  -5.75244803E-06
  -2.11500004E-02  -5.90782247E-06
  -2.10999995E-02  -6.10920097E-06
  -2.10500006E-02  -6.34563185E-06
  -2.09999997E-02  -6.59402622E-06
  -2.09500007E-02  -6.82971449E-06
  -2.08999999E-02  -7.03781598E-06
  -2.08500009E-02  -7.22035975E-06
  -2.08000001E-02  -7.39564985E-06
  -2.07499992E-02  -7.59014347E-06
  -2.07000002E-02  -7.82664847E-06
  -2.06499994E-02  -8.11403606E-06
  -2.06000004E-02  -8.44301030E-06
  -2.05499995E-02  -8.79021263E-06
  -2.05000006E-02  -9.12875294E-06
  -2.04499997E-02  -9.44047224E-06
  -2.04000007E-02  -9.72450835E-06
  -2.03499999E-02  -9.99797157E-06
  -2.03000009E-02  -1.02884160E-05
  -2.02500001E-02  -1.06216830E-05
  -2.01999992E-02  -1.10104320E-05
  -2.01500002E-02  -1.14484710E-05
  -2.00999994E-02  -1.19136721E-05
  -2.00500004E-02  -1.23782311E-05
  -1.99999996E-02  -1.28215052E-05
  -1.99500006E-02  -1.32395162E-05
  -1.98999997E-02  -1.36469280E-05
  -1.98500007E-02  -1.40707662E-05
  -1.97999999E-02  -1.45383219E-05
  -1.97500009E-02  -1.50647202E-05
  -1.97000001E-02  -1.56460628E-05
  -1.96499992E-02  -1.62611886E-05
  -1.96000002E-02  -1.68813931E-05
  -1.95499994E-02  -1.74837533E-05
  -1.95000004E-02  -1.80617499E-05
  -1.94499996E-02  -1.86283087E-05
  -1.94000006E-02  -1.92101706E-05
  -1.93499997E-02  -1.98360049E-05
  -1.93000007E-02  -2.05235883E-05
  -1.92499999E-02  -2.12718278E-05
  -1.92000009E-02  -2.20610600E-05
  -1.91500001E-02  -2.28621066E-05
  -1.90999992E-02  -2.36500691E-05
  -1.90500002E-02  -2.44155381E-05
  -1.89999994E-02  -2.51691163E-05
  -1.89500004E-02  -2.59370154E-05
  -1.88999996E-02  -2.67491741E-05
  -1.88500006E-02  -2.76259507E-05
  -1.87999997E-02  -2.85687656E-05
  -1.87500007E-02  -2.95595128E-05
  -1.86999999E-02  -3.05688045E-05
  -1.86500009E-02  -3.15694087E-05
  -1.86000001E-02  -3.25485998E-05
  -1.85499992E-02  -3.35140212E-05
  -1.85000002E-02  -3.44902364E-05
  -1.84499994E-02  -3.55076882E-05
  -1.84000004E-02  -3.65888627E-05
  -1.83499996E-02  -3.77381839E-05
  -1.83000006E-02  -3.89400411E-05
  -1.82499997E-02  -4.01655416E-05
  -1.82000007E-02  -4.13862690E-05
  -1.81499999E-02  -4.25872495E-05
  -1.81000009E-02  -4.37736708E-05
  -1.80500001E-02  -4.49683248E-05
  -1.79999992E-02  -4.62018070E-05
  -1.79500002E-02  -4.74987428E-05
  -1.78999994E-02  -4.88663172E-05
  -1.78500004E-02  -5.02911716E-05
  -1.77999996E-02  -5.17451335E-05
  -1.77500006E-02  -5.31981714E-05
  -1.76999997E-02  -5.46320734E-05
  -1.76500008E-02  -5.60485933E-05
  -1.75999999E-02  -5.74683618E-05
  -1.75500009E-02  -5.89215597E-05
  -1.75000001E-02  -6.04339293E-05
  -1.74499992E-02  -6.20147330E-05
  -1.74000002E-02  -6.36523910E-05
  -1.73499994E-02  -6.53199895E-05
  -1.73000004E-02  -6.69884248E-05
  -1.72499996E-02  -6.86388958E-05
  -1.72000006E-02  -7.02713660E-05
  -1.71499997E-02  -7.19053132E-05
  -1.71000008E-02  -7.35717331E-05
  -1.70499999E-02  -7.52992783E-05
  -1.70000009E-02  -7.71006307E-05
  -1.69500001E-02  -7.89669793E-05
  -1.68999992E-02  -8.08722616E-05
  -1.68500002E-02  -8.27849726E-05
  -1.67999994E-02  -8.46827534E-05
  -1.67500004E-02  -8.65629991E-05
  -1.66999996E-02  -8.84437177E-05
  -1.66500006E-02  -9.03547552E-05
  -1.65999997E-02  -9.23251137E-05
  -1.65500008E-02  -9.43717023E-05
  -1.64999999E-02  -9.64910505E-05
  -1.64500009E-02  -9.86602317E-05
  -1.64000001E-02  -1.00848752E-04
  -1.63499992E-02  -1.03033504E-04
  -1.63000003E-02  -1.05210631E-04
  -1.62499994E-02  -1.07397573E-04
  -1.62000004E-02  -1.09625515E-04
  -1.61499996E-02  -1.11925292E-04
  -1.61000006E-02  -1.14314600E-04
  -1.60499997E-02  -1.16792122E-04
  -1.60000008E-02  -1.19339027E-04
  -1.59499999E-02  -1.21927362E-04
  -1.59000009E-02  -1.24531871E-04
  -1.58500001E-02  -1.27143678E-04
  -1.57999992E-02  -1.29777909E-04
  -1.57500003E-02  -1.32467758E-04
  -1.56999994E-02  -1.35248512E-04
  -1.56500004E-02  -1.38141564E-04
  -1.55999996E-02  -1.41147466E-04
  -1.55499997E-02  -1.44249076E-04
  -1.54999997E-02  -1.47419327E-04
  -1.54499998E-02  -1.50634602E-04
  -1.53999999E-02  -1.53887318E-04
  -1.53500000E-02  -1.57189294E-04
  -1.53000001E-02  -1.60570446E-04
  -1.52500002E-02  -1.64069614E-04
  -1.52000003E-02  -1.67713806E-04
  -1.51500003E-02  -1.71506981E-04
  -1.51000004E-02  -1.75432680E-04
  -1.50499996E-02  -1.79462731E-04
  -1.49999997E-02  -1.83571392E-04
  -1.49499997E-02  -1.87749509E-04
  -1.48999998E-02  -1.92008985E-04
  -1.48499999E-02  -1.96378722E-04
  -1.48000000E-02  -2.00895171E-04
  -1.47500001E-02  -2.05589138E-04
  -1.47000002E-02  -2.10470738E-04
  -1.46500003E-02  -2.15526205E-04
  -1.46000003E-02  -2.20728034E-04
  -1.45500004E-02  -2.26047545E-04
  -1.44999996E-02  -2.31471291E-04
  -1.44499997E-02  -2.37009313E-04
  -1.43999998E-02  -2.42690789E-04
  -1.43499998E-02  -2.48552533E-04
  -1.42999999E-02  -2.54625134E-04
  -1.42500000E-02  -2.60921748E-04
  -1.42000001E-02  -2.67434516E-04
  -1.41500002E-02  -2.74136633E-04
  -1.41000003E-02  -2.80996814E-04
  -1.40500003E-02  -2.87998642E-04
  -1.40000004E-02  -2.95149628E-04
  -1.39499996E-02  -3.02478089E-04
  -1.38999997E-02  -3.10021715E-04
  -1.38499998E-02  -3.17810540E-04
  -1.37999998E-02  -3.25857574E-04
  -1.37499999E-02  -3.34153825E-04
  -1.37000000E-02  -3.42673535E-04
  -1.36500001E-02  -3.51388531E-04
  -1.36000002E-02  -3.60278413E-04
  -1.35500003E-02  -3.69340793E-04
  -1.35000004E-02  -3.78600438E-04
  -1.34500004E-02  -3.88102315E-04
  -1.33999996E-02  -3.97885393E-04
  -1.33499997E-02  -4.07965417E-04
  -1.32999998E-02  -4.18332202E-04
  -1.32499998E-02  -4.28955886E-04
  -1.31999999E-02  -4.39803000E-04
  -1.31500000E-02  -4.50853579E-04
  -1.31000001E-02  -4.62108932E-04
  -1.30500002E-02  -4.73588530E-04
  -1.30000003E-02  -4.85324679E-04
  -1.29500004E-02  -4.97355009E-04
  -1.29000004E-02  -5.09704463E-04
  -1.28499996E-02  -5.22369577E-04
  -1.27999997E-02  -5.35320549E-04
  -1.27499998E-02  -5.48517040E-04
  -1.26999998E-02  -5.61932859E-04
  -1.26499999E-02  -5.75569284E-04
  -1.26000000E-02  -5.89445874E-04
  -1.25500001E-02  -6.03594410E-04
  -1.25000002E-02  -6.18049817E-04
  -1.24500003E-02  -6.32836076E-04
  -1.24000004E-02  -6.47957902E-04
  -1.23500004E-02  -6.63390907E-04
  -1.22999996E-02  -6.79094635E-04
  -1.22499997E-02  -6.95038936E-04
  -1.21999998E-02  -7.11223925E-04
  -1.21499998E-02  -7.27677252E-04
  -1.20999999E-02  -7.44440593E-04
  -1.20500000E-02  -7.61544157E-04
  -1.20000001E-02  -7.78998656E-04
  -1.19500002E-02  -7.96804728E-04
  -1.19000003E-02  -8.14942585E-04
  -1.18500004E-02  -8.33380269E-04
  -1.18000004E-02  -8.52076977E-04
  -1.17499996E-02  -8.70999706E-04
  -1.16999997E-02  -8.90156080E-04
  -1.16499998E-02  -9.09596973E-04
  -1.15999999E-02  -9.29382280E-04
  -1.15499999E-02  -9.49546287E-04
  -1.15000000E-02  -9.70091671E-04
  -1.14500001E-02  -9.90998000E-04
  -1.14000002E-02  -1.01224158E-03
  -1.13500003E-02  -1.03380752E-03
  -1.13000004E-02  -1.05569628E-03
  -1.12500004E-02  -1.07791496E-03
  -1.11999996E-02  -1.10047788E-03
  -1.11499997E-02  -1.12341519E-03
  -1.10999998E-02  -1.14676042E-03
  -1.10499999E-02  -1.17051613E-03
  -1.09999999E-02  -1.19464402E-03
  -1.09500000E-02  -1.21908740E-03
  -1.09000001E-02  -1.24379178E-03
  -1.08500002E-02  -1.26874750E-03
  -1.08000003E-02  -1.29399472E-03
  -1.07500004E-02  -1.31958176E-03
  -1.07000005E-02  -1.34554983E-03
  -1.06499996E-02  -1.37194118E-03
  -1.05999997E-02  -1.39878353E-03
  -1.05499998E-02  -1.42609503E-03
  -1.04999999E-02  -1.45387335E-03
  -1.04499999E-02  -1.48207543E-03
  -1.04000000E-02  -1.51066436E-03
  -1.03500001E-02  -1.53964059E-03
  -1.03000002E-02  -1.56904024E-03
  -1.02500003E-02  -1.59891346E-03
  -1.02000004E-02  -1.62927737E-03
  -1.01500005E-02  -1.66010833E-03
  -1.00999996E-02  -1.69136992E-03
  -1.00499997E-02  -1.72304455E-03
  -9.99999978E-03  -1.75511942E-03
  -9.94999986E-03  -1.78756414E-03
  -9.89999995E-03  -1.82035740E-03
  -9.85000003E-03  -1.85351667E-03
  -9.80000012E-03  -1.88711693E-03
  -9.75000020E-03  -1.92125223E-03
  -9.70000029E-03  -1.95594062E-03
  -9.65000037E-03  -1.99113297E-03
  -9.60000046E-03  -2.02678773E-03
  -9.54999961E-03  -2.06291419E-03
  -9.49999969E-03  -2.09954381E-03
  -9.44999978E-03  -2.13669497E-03
  -9.39999986E-03  -2.17436231E-03
  -9.34999995E-03  -2.21256237E-03
  -9.30000003E-03  -2.25137849E-03
  -9.25000012E-03  -2.29087099E-03
  -9.20000020E-03  -2.33103125E-03
  -9.15000029E-03  -2.37179501E-03
  -9.10000037E-03  -2.41307449E-03
  -9.05000046E-03  -2.45484523E-03
  -8.99999961E-03  -2.49714358E-03
  -8.94999970E-03  -2.54000584E-03
  -8.89999978E-03  -2.58343481E-03
  -8.84999987E-03  -2.62744166E-03
  -8.79999995E-03  -2.67203385E-03
  -8.75000004E-03  -2.71721953E-03
  -8.70000012E-03  -2.76304735E-03
  -8.65000021E-03  -2.80951872E-03
  -8.60000029E-03  -2.85656424E-03
  -8.55000038E-03  -2.90413899E-03
  -8.50000046E-03  -2.95230420E-03
  -8.44999962E-03  -3.00118746E-03
  -8.39999970E-03  -3.05089168E-03
  -8.34999979E-03  -3.10142175E-03
  -8.29999987E-03  -3.15271504E-03
  -8.24999996E-03  -3.20470566E-03
  -8.20000004E-03  -3.25739989E-03
  -8.15000013E-03  -3.31087573E-03
  -8.10000021E-03  -3.36516346E-03
  -8.05000030E-03  -3.42016621E-03
  -8.00000038E-03  -3.47585161E-03
  -7.95000046E-03  -3.53233237E-03
  -7.89999962E-03  -3.58973630E-03
  -7.84999970E-03  -3.64808179E-03
  -7.79999979E-03  -3.70724965E-03
  -7.74999987E-03  -3.76712112E-03
  -7.69999996E-03  -3.82771087E-03
  -7.65000004E-03  -3.88911087E-03
  -7.60000013E-03  -3.95138981E-03
  -7.55000021E-03  -4.01456840E-03
  -7.49999983E-03  -4.07860521E-03
  -7.44999992E-03  -4.14348254E-03
  -7.40000000E-03  -4.20927396E-03
  -7.35000009E-03  -4.27610381E-03
  -7.30000017E-03  -4.34395811E-03
  -7.24999979E-03  -4.41266084E-03
  -7.19999988E-03  -4.48213937E-03
  -7.14999996E-03  -4.55250219E-03
  -7.10000005E-03  -4.62396210E-03
  -7.05000013E-03  -4.69663227E-03
  -7.00000022E-03  -4.77041956E-03
  -6.94999984E-03  -4.84517962E-03
  -6.89999992E-03  -4.92093153E-03
  -6.85000001E-03  -4.99783782E-03
  -6.80000009E-03  -5.07596321E-03
  -6.75000018E-03  -5.15519781E-03
  -6.69999979E-03  -5.23539260E-03
  -6.64999988E-03  -5.31652756E-03
  -6.59999996E-03  -5.39881922E-03
  -6.55000005E-03  -5.48247388E-03
  -6.50000013E-03  -5.56743937E-03
  -6.45000022E-03  -5.65350940E-03
  -6.39999984E-03  -5.74049121E-03
  -6.34999992E-03  -5.82843041E-03
  -6.30000001E-03  -5.91759384E-03
  -6.25000009E-03  -6.00812584E-03
  -6.20000018E-03  -6.09988067E-03
  -6.14999980E-03  -6.19268557E-03
  -6.09999988E-03  -6.28662203E-03
  -6.04999997E-03  -6.38195127E-03
  -6.00000005E-03  -6.47877716E-03
  -5.95000014E-03  -6.57694135E-03
  -5.90000022E-03  -6.67622266E-03
  -5.84999984E-03  -6.77660899E-03
  -5.79999993E-03  -6.87832432E-03
  -5.75000001E-03  -6.98157959E-03
  -5.70000010E-03  -7.08633801E-03
  -5.65000018E-03  -7.19247991E-03
  -5.59999980E-03  -7.29997642E-03
  -5.54999989E-03  -7.40885967E-03
  -5.49999997E-03  -7.51921069E-03
  -5.45000006E-03  -7.63093540E-03
  -5.40000014E-03  -7.74385408E-03
  -5.35000023E-03  -7.85800535E-03
  -5.29999984E-03  -7.97350332E-03
  -5.24999993E-03  -8.09043925E-03
  -5.20000001E-03  -8.20890069E-03
  -5.15000010E-03  -8.32882430E-03
  -5.10000018E-03  -8.45005922E-03
  -5.04999980E-03  -8.57252534E-03
  -4.99999989E-03  -8.69627018E-03
  -4.94999997E-03  -8.82141665E-03
  -4.90000006E-03  -8.94808024E-03
  -4.85000014E-03  -9.07632057E-03
  -4.80000023E-03  -9.20607708E-03
  -4.74999985E-03  -9.33732465E-03
  -4.69999993E-03  -9.47021227E-03
  -4.65000002E-03  -9.60487220E-03
  -4.60000010E-03  -9.74116195E-03
  -4.55000019E-03  -9.87880118E-03
  -4.49999981E-03  -1.00177387E-02
  -4.44999989E-03  -1.01581197E-02
  -4.39999998E-03  -1.03000794E-02
  -4.35000006E-03  -1.04436316E-02
  -4.30000015E-03  -1.05887679E-02
  -4.25000023E-03  -1.07353954E-02
  -4.19999985E-03  -1.08834933E-02
  -4.14999994E-03  -1.10330218E-02
  -4.10000002E-03  -1.11839110E-02
  -4.05000011E-03  -1.13362344E-02
  -4.00000019E-03  -1.14898933E-02
  -3.94999981E-03  -1.16449539E-02
  -3.89999989E-03  -1.18016992E-02
  -3.84999998E-03  -1.19602596E-02
  -3.80000006E-03  -1.21205887E-02
  -3.74999992E-03  -1.22823920E-02
  -3.70000000E-03  -1.24456072E-02
  -3.65000009E-03  -1.26104057E-02
  -3.59999994E-03  -1.27767669E-02
  -3.55000002E-03  -1.29445801E-02
  -3.50000011E-03  -1.31138936E-02
  -3.44999996E-03  -1.32849440E-02
  -3.40000005E-03  -1.34577900E-02
  -3.34999990E-03  -1.36324046E-02
  -3.29999998E-03  -1.38087329E-02
  -3.25000007E-03  -1.39865922E-02
  -3.19999992E-03  -1.41657628E-02
  -3.15000000E-03  -1.43463556E-02
  -3.10000009E-03  -1.45284813E-02
  -3.04999994E-03  -1.47121027E-02
  -3.00000003E-03  -1.48974080E-02
  -2.95000011E-03  -1.50845367E-02
  -2.89999996E-03  -1.52733447E-02
  -2.85000005E-03  -1.54637052E-02
  -2.79999990E-03  -1.56557094E-02
  -2.74999999E-03  -1.58491340E-02
  -2.70000007E-03  -1.60437077E-02
  -2.64999992E-03  -1.62397064E-02
  -2.60000001E-03  -1.64373536E-02
  -2.55000009E-03  -1.66367181E-02
  -2.49999994E-03  -1.68379582E-02
  -2.45000003E-03  -1.70409027E-02
  -2.40000011E-03  -1.72456056E-02
  -2.34999997E-03  -1.74522717E-02
  -2.30000005E-03  -1.76605824E-02
  -2.24999990E-03  -1.78701244E-02
  -2.19999999E-03  -1.80808902E-02
  -2.15000007E-03  -1.82932578E-02
  -2.09999993E-03  -1.85075402E-02
  -2.05000001E-03  -1.87238045E-02
  -2.00000009E-03  -1.89418439E-02
  -1.94999995E-03  -1.91614591E-02
  -1.90000003E-03  -1.93825159E-02
  -1.85000000E-03  -1.96049511E-02
  -1.79999997E-03  -1.98287424E-02
  -1.75000005E-03  -2.00538635E-02
  -1.70000002E-03  -2.02803090E-02
  -1.64999999E-03  -2.05082372E-02
  -1.59999996E-03  -2.07381230E-02
  -1.55000004E-03  -2.09700521E-02
  -1.50000001E-03  -2.12036166E-02
  -1.44999998E-03  -2.14387067E-02
  -1.39999995E-03  -2.16754284E-02
  -1.35000004E-03  -2.19136197E-02
  -1.30000000E-03  -2.21530888E-02
  -1.24999997E-03  -2.23937836E-02
  -1.20000006E-03  -2.26360187E-02
  -1.15000003E-03  -2.28801370E-02
  -1.09999999E-03  -2.31264122E-02
  -1.04999996E-03  -2.33747009E-02
  -1.00000005E-03  -2.36241482E-02
  -9.50000016E-04  -2.38745511E-02
  -8.99999985E-04  -2.41263639E-02
  -8.50000011E-04  -2.43796427E-02
  -7.99999980E-04  -2.46341042E-02
  -7.50000007E-04  -2.48896088E-02
  -6.99999975E-04  -2.51465980E-02
  -6.50000002E-04  -2.54055876E-02
  -6.00000028E-04  -2.56665405E-02
  -5.49999997E-04  -2.59289257E-02
  -5.00000024E-04  -2.61920616E-02
  -4.49999992E-04  -2.64559835E-02
  -3.99999990E-04  -2.67213471E-02
  -3.49999988E-04  -2.69881114E-02
  -3.00000014E-04  -2.72558331E-02
  -2.50000012E-04  -2.75246557E-02
  -1.99999995E-04  -2.77948473E-02
  -1.50000007E-04  -2.80667804E-02
  -9.99999975E-05  -2.83404365E-02
  -4.99999987E-05  -2.86152698E-02
   0.00000000      -2.88905539E-02
   4.99999987E-05  -2.91664042E-02
   9.99999975E-05  -2.94431206E-02
   1.50000007E-04  -2.97208987E-02
   1.99999995E-04  -3.00001837E-02
   2.50000012E-04  -3.02811135E-02
   3.00000014E-04  -3.05635631E-02
   3.49999988E-04  -3.08468435E-02
   3.99999990E-04  -3.11306044E-02
   4.49999992E-04  -3.14145908E-02
   5.00000024E-04  -3.16988751E-02
   5.49999997E-04  -3.19838710E-02
   6.00000028E-04  -3.22699398E-02
   6.50000002E-04  -3.25564295E-02
   6.99999975E-04  -3.28429826E-02
   7.50000007E-04  -3.31305079E-02
   7.99999980E-04  -3.34195383E-02
   8.50000011E-04  -3.37096304E-02
   8.99999985E-04  -3.39993872E-02
   9.50000016E-04  -3.42882238E-02
   1.00000005E-03  -3.45765762E-02
   1.04999996E-03  -3.48653980E-02
   1.09999999E-03  -3.51555608E-02
   1.15000003E-03  -3.54468450E-02
   1.20000006E-03  -3.57383005E-02
   1.24999997E-03  -3.60295326E-02
   1.30000000E-03  -3.63207087E-02
   1.35000004E-03  -3.66120487E-02
   1.39999995E-03  -3.69028524E-02
   1.44999998E-03  -3.71921957E-02
   1.50000001E-03  -3.74803655E-02
   1.55000004E-03  -3.77684236E-02
   1.59999996E-03  -3.80572230E-02
   1.64999999E-03  -3.83462384E-02
   1.70000002E-03  -3.86344157E-02
   1.75000005E-03  -3.89211401E-02
   1.79999997E-03  -3.92062441E-02
   1.85000000E-03  -3.94903570E-02
   1.90000003E-03  -3.97737175E-02
   1.94999995E-03  -4.00555618E-02
   2.00000009E-03  -4.03353684E-02
   2.05000001E-03  -4.06133942E-02
   2.09999993E-03  -4.08909209E-02
   2.15000007E-03  -4.11685184E-02
   2.19999999E-03  -4.14453745E-02
   2.24999990E-03  -4.17195410E-02
   2.30000005E-03  -4.19895351E-02
   2.34999997E-03  -4.22569811E-02
   2.40000011E-03  -4.25239466E-02
   2.45000003E-03  -4.27900963E-02
   2.49999994E-03  -4.30530533E-02
   2.55000009E-03  -4.33118418E-02
   2.60000001E-03  -4.35682014E-02
   2.64999992E-03  -4.38232757E-02
   2.70000007E-03  -4.40766662E-02
   2.74999999E-03  -4.43265624E-02
   2.79999990E-03  -4.45706137E-02