  -3.99999991E-02   0.00000000    
  -3.99499983E-02   0.00000000    
  -3.99000011E-02   0.00000000    
  -3.98500003E-02  -1.08977191E-17
  -3.97999994E-02  -9.11368276E-17
  -3.97499986E-02  -4.13559548E-16
  -3.97000015E-02  -1.33205153E-15
  -3.96500006E-02  -3.38740906E-15
  -3.95999998E-02  -7.20086171E-15
  -3.95499989E-02  -1.32621507E-14
  -3.95000018E-02  -2.17010231E-14
  -3.94500010E-02  -3.21866794E-14
  -3.94000001E-02  -4.40826574E-14
  -3.93499993E-02  -5.68793060E-14
  -3.92999984E-02  -7.07652930E-14
  -3.92500013E-02  -8.70641043E-14
  -3.92000005E-02  -1.08246542E-13
  -3.91499996E-02  -1.37387064E-13
  -3.90999988E-02  -1.77213075E-13
  -3.90500017E-02  -2.29156565E-13
  -3.90000008E-02  -2.92888570E-13
  -3.89500000E-02  -3.66629009E-13
  -3.88999991E-02  -4.48157326E-13
  -3.88499983E-02  -5.36099051E-13
  -3.88000011E-02  -6.30913399E-13
  -3.87500003E-02  -7.35126098E-13
  -3.86999995E-02  -8.52669552E-13
  -3.86499986E-02  -9.87572003E-13
  -3.86000015E-02  -1.14251414E-12
  -3.85500006E-02  -1.31783820E-12
  -3.84999998E-02  -1.51139637E-12
  -3.84499989E-02  -1.71925094E-12
  -3.84000018E-02  -1.93686213E-12
  -3.83500010E-02  -2.16025180E-12
  -3.83000001E-02  -2.38678218E-12
  -3.82499993E-02  -2.61550048E-12
  -3.81999984E-02  -2.84720186E-12
  -3.81500013E-02  -3.08428825E-12
  -3.81000005E-02  -3.33026055E-12
  -3.80499996E-02  -3.58855458E-12
  -3.79999988E-02  -3.86066006E-12
  -3.79500017E-02  -4.14394387E-12
  -3.79000008E-02  -4.43009908E-12
  -3.78500000E-02  -4.70522796E-12
  -3.77999991E-02  -4.95214026E-12
  -3.77499983E-02  -5.15455950E-12
  -3.77000012E-02  -5.30183926E-12
  -3.76500003E-02  -5.39207004E-12
  -3.75999995E-02  -5.43156405E-12
  -3.75499986E-02  -5.42999283E-12
  -3.75000015E-02  -5.39267979E-12
  -3.74500006E-02  -5.31356513E-12
  -3.73999998E-02  -5.17296362E-12
  -3.73499990E-02  -4.94259017E-12
  -3.73000018E-02  -4.59684981E-12
  -3.72500010E-02  -4.12574705E-12
  -3.72000001E-02  -3.54291791E-12
  -3.71499993E-02  -2.88343958E-12
  -3.70999984E-02  -2.19023931E-12
  -3.70500013E-02  -1.49339688E-12
  -3.70000005E-02  -7.91152679E-13
  -3.69499996E-02  -4.24862782E-14
  -3.68999988E-02   8.22544615E-13
  -3.68500017E-02   1.87613011E-12
  -3.68000008E-02   3.15959758E-12
  -3.67500000E-02   4.65880589E-12
  -3.66999991E-02   6.30130236E-12
  -3.66499983E-02   7.97976529E-12
  -3.66000012E-02   9.59403824E-12
  -3.65500003E-02   1.10940389E-11
  -3.64999995E-02   1.25031365E-11
  -3.64499986E-02   1.39084508E-11
  -3.64000015E-02   1.54186611E-11
  -3.63500006E-02   1.71055670E-11
  -3.62999998E-02   1.89556166E-11
  -3.62499990E-02   2.08563618E-11
  -3.62000018E-02   2.26291069E-11
  -3.61500010E-02   2.40980361E-11
  -3.61000001E-02   2.51668894E-11
  -3.60499993E-02   2.58671157E-11
  -3.59999985E-02   2.63510255E-11
  -3.59500013E-02   2.68271551E-11
  -3.59000005E-02   2.74623692E-11
  -3.58499996E-02   2.82935810E-11
  -3.57999988E-02   2.91915277E-11
  -3.57500017E-02   2.98987987E-11
  -3.57000008E-02   3.01314494E-11
  -3.56500000E-02   2.97024870E-11
  -3.55999991E-02   2.86109920E-11
  -3.55499983E-02   2.70513507E-11
  -3.55000012E-02   2.53309301E-11
  -3.54500003E-02   2.37273569E-11
  -3.53999995E-02   2.23485119E-11
  -3.53499986E-02   2.10627470E-11
  -3.53000015E-02   1.95390371E-11
  -3.52500007E-02   1.73877267E-11
  -3.51999998E-02   1.43440607E-11
  -3.51499990E-02   1.04114972E-11
  -3.51000018E-02   5.89374079E-12
  -3.50500010E-02   1.29038013E-12
  -3.50000001E-02  -2.90710555E-12
  -3.49499993E-02  -6.43222758E-12
  -3.48999985E-02  -9.37298763E-12
  -3.48500013E-02  -1.21463516E-11
  -3.48000005E-02  -1.53176725E-11
  -3.47499996E-02  -1.93380971E-11
  -3.46999988E-02  -2.43168836E-11
  -3.46500017E-02  -2.99375663E-11
  -3.46000008E-02  -3.55668689E-11
  -3.45500000E-02  -4.05188522E-11
  -3.44999991E-02  -4.43618128E-11
  -3.44499983E-02  -4.71282562E-11
  -3.44000012E-02  -4.93234759E-11
  -3.43500003E-02  -5.17146118E-11
  -3.42999995E-02  -5.49828065E-11
  -3.42499986E-02  -5.93907562E-11
  -3.42000015E-02  -6.46211487E-11
  -3.41500007E-02  -6.98722608E-11
  -3.40999998E-02  -7.41825976E-11
  -3.40499990E-02  -7.68483888E-11
  -3.40000018E-02  -7.77467743E-11
  -3.39500010E-02  -7.74108277E-11
  -3.39000002E-02  -7.68090452E-11
  -3.38499993E-02  -7.69152381E-11
  -3.37999985E-02  -7.82560683E-11
  -3.37500013E-02  -8.06438735E-11
  -3.37000005E-02  -8.32280009E-11
  -3.36499996E-02  -8.48581205E-11
  -3.35999988E-02  -8.46076265E-11
  -3.35500017E-02  -8.22221111E-11
  -3.35000008E-02  -7.82798895E-11
  -3.34500000E-02  -7.39737646E-11
  -3.33999991E-02  -7.05942457E-11
  -3.33499983E-02  -6.89372726E-11
  -3.33000012E-02  -6.89052773E-11
  -3.32500003E-02  -6.94952360E-11
  -3.31999995E-02  -6.91989244E-11
  -3.31499986E-02  -6.66533495E-11
  -3.31000015E-02  -6.12567913E-11
  -3.30500007E-02  -5.34674804E-11
  -3.29999998E-02  -4.46339771E-11
  -3.29499990E-02  -3.64133029E-11
  -3.29000019E-02  -3.00251109E-11
  -3.28500010E-02  -2.56768062E-11
  -3.28000002E-02  -2.24303926E-11
  -3.27499993E-02  -1.85905440E-11
  -3.26999985E-02  -1.24574188E-11
  -3.26500013E-02  -3.11389955E-12
  -3.26000005E-02   9.11179639E-12
  -3.25499997E-02   2.27336414E-11
  -3.24999988E-02   3.57291488E-11
  -3.24500017E-02   4.64340233E-11
  -3.24000008E-02   5.43136335E-11
  -3.23500000E-02   6.02546138E-11
  -3.22999991E-02   6.62236516E-11
  -3.22499983E-02   7.44225445E-11
  -3.22000012E-02   8.63036378E-11
  -3.21500003E-02   1.01886437E-10
  -3.20999995E-02   1.19694962E-10
  -3.20499986E-02   1.37363745E-10
  -3.20000015E-02   1.52658497E-10
  -3.19500007E-02   1.64461278E-10
  -3.18999998E-02   1.73272285E-10
  -3.18499990E-02   1.80985810E-10
  -3.18000019E-02   1.90019389E-10
  -3.17500010E-02   2.02172445E-10
  -3.17000002E-02   2.17725810E-10
  -3.16499993E-02   2.35201636E-10
  -3.15999985E-02   2.51916099E-10
  -3.15500014E-02   2.65100664E-10
  -3.15000005E-02   2.73101458E-10
  -3.14499997E-02   2.76114631E-10
  -3.13999988E-02   2.76110551E-10
  -3.13500017E-02   2.75955619E-10
  -3.13000008E-02   2.78104234E-10
  -3.12500000E-02   2.83439244E-10
  -3.11999992E-02   2.90787061E-10
  -3.11500002E-02   2.97345537E-10
  -3.10999993E-02   2.99856973E-10
  -3.10500003E-02   2.96017461E-10
  -3.09999995E-02   2.85493157E-10
  -3.09500005E-02   2.70074546E-10
  -3.08999997E-02   2.52877080E-10
  -3.08500007E-02   2.36925229E-10
  -3.07999998E-02   2.23744981E-10
  -3.07500008E-02   2.12601423E-10
  -3.07000000E-02   2.00742784E-10
  -3.06499992E-02   1.84567736E-10
  -3.06000002E-02   1.61214764E-10
  -3.05499993E-02   1.29870670E-10
  -3.05000003E-02   9.22044940E-11
  -3.04499995E-02   5.17122907E-11
  -3.04000005E-02   1.22409548E-11
  -3.03499997E-02  -2.36655452E-11
  -3.03000007E-02  -5.58609062E-11
  -3.02499998E-02  -8.66316255E-11
  -3.02000009E-02  -1.19637494E-10
  -3.01500000E-02  -1.58213651E-10
  -3.00999992E-02  -2.03786252E-10
  -3.00500002E-02  -2.55115928E-10
  -2.99999993E-02  -3.08724074E-10
  -2.99500003E-02  -3.60331931E-10
  -2.98999995E-02  -4.06685380E-10
  -2.98500005E-02  -4.46951282E-10
  -2.97999997E-02  -4.83051266E-10
  -2.97500007E-02  -5.18760312E-10
  -2.96999998E-02  -5.57951352E-10
  -2.96500009E-02  -6.02754402E-10
  -2.96000000E-02  -6.52453758E-10
  -2.95499992E-02  -7.03630043E-10
  -2.95000002E-02  -7.51505025E-10
  -2.94499993E-02  -7.91909149E-10
  -2.94000003E-02  -8.23003388E-10
  -2.93499995E-02  -8.45984782E-10
  -2.93000005E-02  -8.64448513E-10
  -2.92499997E-02  -8.82675655E-10
  -2.92000007E-02  -9.03598363E-10
  -2.91499998E-02  -9.27348920E-10
  -2.91000009E-02  -9.51051460E-10
  -2.90500000E-02  -9.69966996E-10
  -2.89999992E-02  -9.79499704E-10
  -2.89500002E-02  -9.77182002E-10
  -2.88999993E-02  -9.63745306E-10
  -2.88500004E-02  -9.42788070E-10
  -2.87999995E-02  -9.19164744E-10
  -2.87500005E-02  -8.96795638E-10
  -2.86999997E-02  -8.76864303E-10
  -2.86500007E-02  -8.57205862E-10
  -2.85999998E-02  -8.33171643E-10
  -2.85500009E-02  -7.99601274E-10
  -2.85000000E-02  -7.53041129E-10
  -2.84499992E-02  -6.93229585E-10
  -2.84000002E-02  -6.23188112E-10
  -2.83499993E-02  -5.47869972E-10
  -2.83000004E-02  -4.71958639E-10
  -2.82499995E-02  -3.97790328E-10
  -2.82000005E-02  -3.24327620E-10
  -2.81499997E-02  -2.47648513E-10
  -2.81000007E-02  -1.62741237E-10
  -2.80499998E-02  -6.58160956E-11
  -2.80000009E-02   4.38960812E-11
  -2.79500000E-02   1.63660752E-10
  -2.78999992E-02   2.88297691E-10
  -2.78500002E-02   4.12322176E-10
  -2.77999993E-02   5.32227873E-10
  -2.77500004E-02   6.47899956E-10
  -2.76999995E-02   7.62527985E-10
  -2.76500005E-02   8.81047291E-10
  -2.75999997E-02   1.00778852E-09
  -2.75500007E-02   1.14437682E-09
  -2.74999999E-02   1.28880484E-09
  -2.74500009E-02   1.43609447E-09
  -2.74000000E-02   1.58025537E-09
  -2.73499992E-02   1.71667336E-09
  -2.73000002E-02   1.84386661E-09
  -2.72499993E-02   1.96384020E-09
  -2.72000004E-02   2.08086792E-09
  -2.71499995E-02   2.19924878E-09
  -2.71000005E-02   2.32102115E-09
  -2.70499997E-02   2.44465270E-09
  -2.70000007E-02   2.56528643E-09
  -2.69499999E-02   2.67644085E-09
  -2.69000009E-02   2.77242362E-09
  -2.68500000E-02   2.85038704E-09
  -2.67999992E-02   2.91113378E-09
  -2.67500002E-02   2.95831071E-09
  -2.66999993E-02   2.99636005E-09
  -2.66500004E-02   3.02813596E-09
  -2.65999995E-02   3.05322190E-09
  -2.65500005E-02   3.06769943E-09
  -2.64999997E-02   3.06545211E-09
  -2.64500007E-02   3.04042902E-09
  -2.63999999E-02   2.98886293E-09
  -2.63500009E-02   2.91047675E-09
  -2.63000000E-02   2.80814505E-09
  -2.62499992E-02   2.68617284E-09
  -2.62000002E-02   2.54796206E-09
  -2.61499994E-02   2.39409559E-09
  -2.61000004E-02   2.22167196E-09
  -2.60499995E-02   2.02518868E-09
  -2.60000005E-02   1.79856019E-09
  -2.59499997E-02   1.53739155E-09
  -2.59000007E-02   1.24050137E-09
  -2.58499999E-02   9.10055975E-10
  -2.58000009E-02   5.50265722E-10
  -2.57500000E-02   1.65223904E-10
  -2.56999992E-02  -2.43129905E-10
  -2.56500002E-02  -6.76069867E-10
  -2.55999994E-02  -1.13767162E-09
  -2.55500004E-02  -1.63317460E-09
  -2.54999995E-02  -2.16682361E-09
  -2.54500005E-02  -2.74015788E-09
  -2.53999997E-02  -3.35150041E-09
  -2.53500007E-02  -3.99684108E-09
  -2.52999999E-02  -4.67172034E-09
  -2.52500009E-02  -5.37328315E-09
  -2.52000000E-02  -6.10160855E-09
  -2.51499992E-02  -6.85973989E-09
  -2.51000002E-02  -7.65243158E-09
  -2.50499994E-02  -8.48416004E-09
  -2.50000004E-02  -9.35728561E-09
  -2.49499995E-02  -1.02711146E-08
  -2.49000005E-02  -1.12223111E-08
  -2.48499997E-02  -1.22063666E-08
  -2.48000007E-02  -1.32195259E-08
  -2.47499999E-02  -1.42603396E-08
  -2.47000009E-02  -1.53301301E-08
  -2.46500000E-02  -1.64322849E-08
  -2.45999992E-02  -1.75706365E-08
  -2.45500002E-02  -1.87477447E-08
  -2.44999994E-02  -1.99637107E-08
  -2.44500004E-02  -2.12161240E-08
  -2.43999995E-02  -2.25010766E-08
  -2.43500005E-02  -2.38147795E-08
  -2.42999997E-02  -2.51551189E-08
  -2.42500007E-02  -2.65224589E-08
  -2.41999999E-02  -2.79193788E-08
  -2.41500009E-02  -2.93495184E-08
  -2.41000000E-02  -3.08159827E-08
  -2.40499992E-02  -3.23200773E-08
  -2.40000002E-02  -3.38607791E-08
  -2.39499994E-02  -3.54352210E-08
  -2.39000004E-02  -3.70399142E-08
  -2.38499995E-02  -3.86721872E-08
  -2.38000005E-02  -4.03311944E-08
  -2.37499997E-02  -4.20181365E-08
  -2.37000007E-02  -4.37356960E-08
  -2.36499999E-02  -4.54868001E-08
  -2.36000009E-02  -4.72734349E-08
  -2.35500000E-02  -4.90958385E-08
  -2.34999992E-02  -5.09525542E-08
  -2.34500002E-02  -5.28410666E-08
  -2.33999994E-02  -5.47590382E-08
  -2.33500004E-02  -5.67053071E-08
  -2.32999995E-02  -5.86805093E-08
  -2.32500006E-02  -6.06869861E-08
  -2.31999997E-02  -6.27279988E-08
  -2.31500007E-02  -6.48066631E-08
  -2.30999999E-02  -6.69250255E-08
  -2.30500009E-02  -6.90835336E-08
  -2.30000000E-02  -7.12812138E-08
  -2.29499992E-02  -7.35164107E-08
  -2.29000002E-02  -7.57878098E-08
  -2.28499994E-02  -7.80953542E-08
  -2.28000004E-02  -8.04406852E-08
  -2.27499995E-02  -8.28269293E-08
  -2.27000006E-02  -8.52580371E-08
  -2.26499997E-02  -8.77377104E-08
  -2.26000007E-02  -9.02685642E-08
  -2.25499999E-02  -9.28516926E-08
  -2.25000009E-02  -9.54868611E-08
  -2.24500000E-02  -9.81733166E-08
  -2.23999992E-02  -1.00910796E-07
  -2.23500002E-02  -1.03700529E-07
  -2.22999994E-02  -1.06545677E-07
  -2.22500004E-02  -1.09451108E-07
  -2.21999995E-02  -1.12422462E-07
  -2.21500006E-02  -1.15465042E-07
  -2.20999997E-02  -1.18582705E-07
  -2.20500007E-02  -1.21777489E-07
  -2.19999999E-02  -1.25049823E-07
  -2.19500009E-02  -1.28399606E-07
  -2.19000001E-02  -1.31827520E-07
  -2.18499992E-02  -1.35336151E-07
  -2.18000002E-02  -1.38930318E-07
  -2.17499994E-02  -1.42616557E-07
  -2.17000004E-02  -1.46401888E-07
  -2.16499995E-02  -1.50292223E-07
  -2.16000006E-02  -1.54291357E-07
  -2.15499997E-02  -1.58400795E-07
  -2.15000007E-02  -1.62620637E-07
  -2.14499999E-02  -1.66951068E-07
  -2.14000009E-02  -1.71394149E-07
  -2.13500001E-02  -1.75954767E-07
  -2.12999992E-02  -1.80640555E-07
  -2.12500002E-02  -1.85460664E-07
  -2.11999994E-02  -1.90423691E-07
  -2.11500004E-02  -1.95536018E-07
  -2.10999995E-02  -2.00800841E-07
  -2.10500006E-02  -2.06218743E-07
  -2.09999997E-02  -2.11789455E-07
  -2.09500007E-02  -2.17514000E-07
  -2.08999999E-02  -2.23396412E-07
  -2.08500009E-02  -2.29444240E-07
  -2.08000001E-02  -2.35667642E-07
  -2.07499992E-02  -2.42076993E-07
  -2.07000002E-02  -2.48680607E-07
  -2.06499994E-02  -2.55483315E-07
  -2.06000004E-02  -2.62486282E-07
  -2.05499995E-02  -2.69688826E-07
  -2.05000006E-02  -2.77091317E-07
  -2.04499997E-02  -2.84697308E-07
  -2.04000007E-02  -2.92514983E-07
  -2.03499999E-02  -3.00556280E-07
  -2.03000009E-02  -3.08834473E-07
  -2.02500001E-02  -3.17360957E-07
  -2.01999992E-02  -3.26143407E-07
  -2.01500002E-02  -3.35184467E-07
  -2.00999994E-02  -3.44483880E-07
  -2.00500004E-02  -3.54041049E-07
  -1.99999996E-02  -3.63858447E-07
  -1.99500006E-02  -3.73943607E-07
  -1.98999997E-02  -3.84308720E-07
  -1.98500007E-02  -3.94968708E-07
  -1.97999999E-02  -4.05937357E-07
  -1.97500009E-02  -4.17224527E-07
  -1.97000001E-02  -4.28834767E-07
  -1.96499992E-02  -4.40768474E-07
  -1.96000002E-02  -4.53024910E-07
  -1.95499994E-02  -4.65606320E-07
  -1.95000004E-02  -4.78520064E-07
  -1.94499996E-02  -4.91779474E-07
  -1.94000006E-02  -5.05401772E-07
  -1.93499997E-02  -5.19403784E-07
  -1.93000007E-02  -5.33798357E-07
  -1.92499999E-02  -5.48592595E-07
  -1.92000009E-02  -5.63787864E-07
  -1.91500001E-02  -5.79383482E-07
  -1.90999992E-02  -5.95380698E-07
  -1.90500002E-02  -6.11786618E-07
  -1.89999994E-02  -6.28614828E-07
  -1.89500004E-02  -6.45884029E-07
  -1.88999996E-02  -6.63613605E-07
  -1.88500006E-02  -6.81819415E-07
  -1.87999997E-02  -7.00510441E-07
  -1.87500007E-02  -7.19689638E-07
  -1.86999999E-02  -7.39356494E-07
  -1.86500009E-02  -7.59511920E-07
  -1.86000001E-02  -7.80162452E-07
  -1.85499992E-02  -8.01322585E-07
  -1.85000002E-02  -8.23012897E-07
  -1.84499994E-02  -8.45255897E-07
  -1.84000004E-02  -8.68071254E-07
  -1.83499996E-02  -8.91471814E-07
  -1.83000006E-02  -9.15462977E-07
  -1.82499997E-02  -9.40045879E-07
  -1.82000007E-02  -9.65221602E-07
  -1.81499999E-02  -9.90996909E-07
  -1.81000009E-02  -1.01738658E-06
  -1.80500001E-02  -1.04441312E-06
  -1.79999992E-02  -1.07210190E-06
  -1.79500002E-02  -1.10047608E-06
  -1.78999994E-02  -1.12955217E-06
  -1.78500004E-02  -1.15933847E-06
  -1.77999996E-02  -1.18983701E-06
  -1.77500006E-02  -1.22104939E-06
  -1.76999997E-02  -1.25298254E-06
  -1.76500008E-02  -1.28565193E-06
  -1.75999999E-02  -1.31908166E-06
  -1.75500009E-02  -1.35330117E-06
  -1.75000001E-02  -1.38833786E-06
  -1.74499992E-02  -1.42421288E-06
  -1.74000002E-02  -1.46093817E-06
  -1.73499994E-02  -1.49851883E-06
  -1.73000004E-02  -1.53695817E-06
  -1.72499996E-02  -1.57626437E-06
  -1.72000006E-02  -1.61645437E-06
  -1.71499997E-02  -1.65755409E-06
  -1.71000008E-02  -1.69959549E-06
  -1.70499999E-02  -1.74261004E-06
  -1.70000009E-02  -1.78662208E-06
  -1.69500001E-02  -1.83164639E-06
  -1.68999992E-02  -1.87768956E-06
  -1.68500002E-02  -1.92475568E-06
  -1.67999994E-02  -1.97285271E-06
  -1.67500004E-02  -2.02199840E-06
  -1.66999996E-02  -2.07222070E-06
  -1.66500006E-02  -2.12355485E-06
  -1.65999997E-02  -2.17603633E-06
  -1.65500008E-02  -2.22969516E-06
  -1.64999999E-02  -2.28455110E-06
  -1.64500009E-02  -2.34061440E-06
  -1.64000001E-02  -2.39789097E-06
  -1.63499992E-02  -2.45639058E-06
  -1.63000003E-02  -2.51613164E-06
  -1.62499994E-02  -2.57714396E-06
  -1.62000004E-02  -2.63946481E-06
  -1.61499996E-02  -2.70313399E-06
  -1.61000006E-02  -2.76818446E-06
  -1.60499997E-02  -2.83464033E-06
  -1.60000008E-02  -2.90251432E-06
  -1.59499999E-02  -2.97181418E-06
  -1.59000009E-02  -3.04255059E-06
  -1.58500001E-02  -3.11474309E-06
  -1.57999992E-02  -3.18842376E-06
  -1.57500003E-02  -3.26363352E-06
  -1.56999994E-02  -3.34041670E-06
  -1.56500004E-02  -3.41881355E-06
  -1.55999996E-02  -3.49885249E-06
  -1.55499997E-02  -3.58055127E-06
  -1.54999997E-02  -3.66392010E-06
  -1.54499998E-02  -3.74897195E-06
  -1.53999999E-02  -3.83572797E-06
  -1.53500000E-02  -3.92422226E-06
  -1.53000001E-02  -4.01449961E-06
  -1.52500002E-02  -4.10660914E-06
  -1.52000003E-02  -4.20059587E-06
  -1.51500003E-02  -4.29649344E-06
  -1.51000004E-02  -4.39432233E-06
  -1.50499996E-02  -4.49409572E-06
  -1.49999997E-02  -4.59582816E-06
  -1.49499997E-02  -4.69954102E-06
  -1.48999998E-02  -4.80527160E-06
  -1.48499999E-02  -4.91306946E-06
  -1.48000000E-02  -5.02298872E-06
  -1.47500001E-02  -5.13508076E-06
  -1.47000002E-02  -5.24938514E-06
  -1.46500003E-02  -5.36592688E-06
  -1.46000003E-02  -5.48472190E-06
  -1.45500004E-02  -5.60578610E-06
  -1.44999996E-02  -5.72914314E-06
  -1.44499997E-02  -5.85483485E-06
  -1.43999998E-02  -5.98291263E-06
  -1.43499998E-02  -6.11343603E-06
  -1.42999999E-02  -6.24646327E-06
  -1.42500000E-02  -6.38203755E-06
  -1.42000001E-02  -6.52018934E-06
  -1.41500002E-02  -6.66093774E-06
  -1.41000003E-02  -6.80430139E-06
  -1.40500003E-02  -6.95030531E-06
  -1.40000004E-02  -7.09899223E-06
  -1.39499996E-02  -7.25041809E-06
  -1.38999997E-02  -7.40464793E-06
  -1.38499998E-02  -7.56174313E-06
  -1.37999998E-02  -7.72175372E-06
  -1.37499999E-02  -7.88471425E-06
  -1.37000000E-02  -8.05064883E-06
  -1.36500001E-02  -8.21957656E-06
  -1.36000002E-02  -8.39152653E-06
  -1.35500003E-02  -8.56654242E-06
  -1.35000004E-02  -8.74468606E-06
  -1.34500004E-02  -8.92602566E-06
  -1.33999996E-02  -9.11063034E-06
  -1.33499997E-02  -9.29855742E-06
  -1.32999998E-02  -9.48984598E-06
  -1.32499998E-02  -9.68451968E-06
  -1.31999999E-02  -9.88260035E-06
  -1.31500000E-02  -1.00841180E-05
  -1.31000001E-02  -1.02891145E-05
  -1.30500002E-02  -1.04976561E-05
  -1.30000003E-02  -1.07098158E-05
  -1.29500004E-02  -1.09256653E-05
  -1.29000004E-02  -1.11452682E-05
  -1.28499996E-02  -1.13686674E-05
  -1.27999997E-02  -1.15958910E-05
  -1.27499998E-02  -1.18269600E-05
  -1.26999998E-02  -1.20619070E-05
  -1.26499999E-02  -1.23007767E-05
  -1.26000000E-02  -1.25436354E-05
  -1.25500001E-02  -1.27905596E-05
  -1.25000002E-02  -1.30416265E-05
  -1.24500003E-02  -1.32969017E-05
  -1.24000004E-02  -1.35564296E-05
  -1.23500004E-02  -1.38202413E-05
  -1.22999996E-02  -1.40883585E-05
  -1.22499997E-02  -1.43608077E-05
  -1.21999998E-02  -1.46376315E-05
  -1.21499998E-02  -1.49188936E-05
  -1.20999999E-02  -1.52046714E-05
  -1.20500000E-02  -1.54950430E-05
  -1.20000001E-02  -1.57900777E-05
  -1.19500002E-02  -1.60898235E-05
  -1.19000003E-02  -1.63943059E-05
  -1.18500004E-02  -1.67035469E-05
  -1.18000004E-02  -1.70175645E-05
  -1.17499996E-02  -1.73364060E-05
  -1.16999997E-02  -1.76601261E-05
  -1.16499998E-02  -1.79888029E-05
  -1.15999999E-02  -1.83225166E-05
  -1.15499999E-02  -1.86613415E-05
  -1.15000000E-02  -1.90053233E-05
  -1.14500001E-02  -1.93544929E-05
  -1.14000002E-02  -1.97088593E-05
  -1.13500003E-02  -2.00684426E-05
  -1.13000004E-02  -2.04332682E-05
  -1.12500004E-02  -2.08033871E-05
  -1.11999996E-02  -2.11788720E-05
  -1.11499997E-02  -2.15598029E-05
  -1.10999998E-02  -2.19462472E-05
  -1.10499999E-02  -2.23382503E-05
  -1.09999999E-02  -2.27358360E-05
  -1.09500000E-02  -2.31390113E-05
  -1.09000001E-02  -2.35477764E-05
  -1.08500002E-02  -2.39621586E-05
  -1.08000003E-02  -2.43822069E-05
  -1.07500004E-02  -2.48079814E-05
  -1.07000005E-02  -2.52395621E-05
  -1.06499996E-02  -2.56770163E-05
  -1.05999997E-02  -2.61203895E-05
  -1.05499998E-02  -2.65696963E-05
  -1.04999999E-02  -2.70249329E-05
  -1.04499999E-02  -2.74860904E-05
  -1.04000000E-02  -2.79531760E-05
  -1.03500001E-02  -2.84262151E-05
  -1.03000002E-02  -2.89052568E-05
  -1.02500003E-02  -2.93903740E-05
  -1.02000004E-02  -2.98816249E-05
  -1.01500005E-02  -3.03790439E-05
  -1.00999996E-02  -3.08826457E-05
  -1.00499997E-02  -3.13924174E-05
  -9.99999978E-03  -3.19083265E-05
  -9.94999986E-03  -3.24303619E-05
  -9.89999995E-03  -3.29585346E-05
  -9.85000003E-03  -3.34928845E-05
  -9.80000012E-03  -3.40334627E-05
  -9.75000020E-03  -3.45803201E-05
  -9.70000029E-03  -3.51334929E-05
  -9.65000037E-03  -3.56929777E-05
  -9.60000046E-03  -3.62587452E-05
  -9.54999961E-03  -3.68307556E-05
  -9.49999969E-03  -3.74089723E-05
  -9.44999978E-03  -3.79933772E-05
  -9.39999986E-03  -3.85839885E-05
  -9.34999995E-03  -3.91808389E-05
  -9.30000003E-03  -3.97839613E-05
  -9.25000012E-03  -4.03933773E-05
  -9.20000020E-03  -4.10090615E-05
  -9.15000029E-03  -4.16309704E-05
  -9.10000037E-03  -4.22590310E-05
  -9.05000046E-03  -4.28931780E-05
  -8.99999961E-03  -4.35333714E-05
  -8.94999970E-03  -4.41795928E-05
  -8.89999978E-03  -4.48318533E-05
  -8.84999987E-03  -4.54901747E-05
  -8.79999995E-03  -4.61545569E-05
  -8.75000004E-03  -4.68249673E-05
  -8.70000012E-03  -4.75013512E-05
  -8.65000021E-03  -4.81835996E-05
  -8.60000029E-03  -4.88716250E-05
  -8.55000038E-03  -4.95653476E-05
  -8.50000046E-03  -5.02647199E-05
  -8.44999962E-03  -5.09697202E-05
  -8.39999970E-03  -5.16803375E-05
  -8.34999979E-03  -5.23965427E-05
  -8.29999987E-03  -5.31182850E-05
  -8.24999996E-03  -5.38454624E-05
  -8.20000004E-03  -5.45779476E-05
  -8.15000013E-03  -5.53156096E-05
  -8.10000021E-03  -5.60583285E-05
  -8.05000030E-03  -5.68060059E-05
  -8.00000038E-03  -5.75585873E-05
  -7.95000046E-03  -5.83160254E-05
  -7.89999962E-03  -5.90782511E-05
  -7.84999970E-03  -5.98451879E-05
  -7.79999979E-03  -6.06167087E-05
  -7.74999987E-03  -6.13926604E-05
  -7.69999996E-03  -6.21728614E-05
  -7.65000004E-03  -6.29571441E-05
  -7.60000013E-03  -6.37453704E-05
  -7.55000021E-03  -6.45374312E-05
  -7.49999983E-03  -6.53332390E-05
  -7.44999992E-03  -6.61326994E-05
  -7.40000000E-03  -6.69356814E-05
  -7.35000009E-03  -6.77420321E-05
  -7.30000017E-03  -6.85515406E-05
  -7.24999979E-03  -6.93639886E-05
  -7.19999988E-03  -7.01791359E-05
  -7.14999996E-03  -7.09967790E-05
  -7.10000005E-03  -7.18167576E-05
  -7.05000013E-03  -7.26389335E-05
  -7.00000022E-03  -7.34631540E-05
  -6.94999984E-03  -7.42892662E-05
  -6.89999992E-03  -7.51170592E-05
  -6.85000001E-03  -7.59462782E-05
  -6.80000009E-03  -7.67766542E-05
  -6.75000018E-03  -7.76078814E-05
  -6.69999979E-03  -7.84396907E-05
  -6.64999988E-03  -7.92718565E-05
  -6.59999996E-03  -8.01041533E-05
  -6.55000005E-03  -8.09363992E-05
  -6.50000013E-03  -8.17683685E-05
  -6.45000022E-03  -8.25998140E-05
  -6.39999984E-03  -8.34304155E-05
  -6.34999992E-03  -8.42598456E-05
  -6.30000001E-03  -8.50877477E-05
  -6.25000009E-03  -8.59137945E-05
  -6.20000018E-03  -8.67376584E-05
  -6.14999980E-03  -8.75590558E-05
  -6.09999988E-03  -8.83777393E-05
  -6.04999997E-03  -8.91934105E-05
  -6.00000005E-03  -9.00057566E-05
  -5.95000014E-03  -9.08144139E-05
  -5.90000022E-03  -9.16189747E-05
  -5.84999984E-03  -9.24190244E-05
  -5.79999993E-03  -9.32141411E-05
  -5.75000001E-03  -9.40039099E-05
  -5.70000010E-03  -9.47879671E-05
  -5.65000018E-03  -9.55659707E-05
  -5.59999980E-03  -9.63375714E-05
  -5.54999989E-03  -9.71023692E-05
  -5.49999997E-03  -9.78599564E-05
  -5.45000006E-03  -9.86098457E-05
  -5.40000014E-03  -9.93515278E-05
  -5.35000023E-03  -1.00084500E-04
  -5.29999984E-03  -1.00808269E-04
  -5.24999993E-03  -1.01522375E-04
  -5.20000001E-03  -1.02226375E-04
  -5.15000010E-03  -1.02919847E-04
  -5.10000018E-03  -1.03602324E-04
  -5.04999980E-03  -1.04273320E-04
  -4.99999989E-03  -1.04932282E-04
  -4.94999997E-03  -1.05578634E-04
  -4.90000006E-03  -1.06211766E-04
  -4.85000014E-03  -1.06831081E-04
  -4.80000023E-03  -1.07436012E-04
  -4.74999985E-03  -1.08026026E-04
  -4.69999993E-03  -1.08600601E-04
  -4.65000002E-03  -1.09159184E-04
  -4.60000010E-03  -1.09701206E-04
  -4.55000019E-03  -1.10226036E-04
  -4.49999981E-03  -1.10732995E-04
  -4.44999989E-03  -1.11221358E-04
  -4.39999998E-03  -1.11690468E-04
  -4.35000006E-03  -1.12139634E-04
  -4.30000015E-03  -1.12568225E-04
  -4.25000023E-03  -1.12975584E-04
  -4.19999985E-03  -1.13361086E-04
  -4.14999994E-03  -1.13724069E-04
  -4.10000002E-03  -1.14063812E-04
  -4.05000011E-03  -1.14379560E-04
  -4.00000019E-03  -1.14670525E-04
  -3.94999981E-03  -1.14935923E-04
  -3.89999989E-03  -1.15174953E-04
  -3.84999998E-03  -1.15386858E-04
  -3.80000006E-03  -1.15570903E-04
  -3.74999992E-03  -1.15726340E-04
  -3.70000000E-03  -1.15852417E-04
  -3.65000009E-03  -1.15948344E-04
  -3.59999994E-03  -1.16013252E-04
  -3.55000002E-03  -1.16046249E-04
  -3.50000011E-03  -1.16046416E-04
  -3.44999996E-03  -1.16012860E-04
  -3.40000005E-03  -1.15944684E-04
  -3.34999990E-03  -1.15841038E-04
  -3.29999998E-03  -1.15701085E-04
  -3.25000007E-03  -1.15523952E-04
  -3.19999992E-03  -1.15308765E-04
  -3.15000000E-03  -1.15054580E-04
  -3.10000009E-03  -1.14760398E-04
  -3.04999994E-03  -1.14425216E-04
  -3.00000003E-03  -1.14048024E-04
  -2.95000011E-03  -1.13627822E-04
  -2.89999996E-03  -1.13163624E-04
  -2.85000005E-03  -1.12654488E-04
  -2.79999990E-03  -1.12099464E-04
  -2.74999999E-03  -1.11497560E-04
  -2.70000007E-03  -1.10847737E-04
  -2.64999992E-03  -1.10148932E-04
  -2.60000001E-03  -1.09399996E-04
  -2.55000009E-03  -1.08599823E-04
  -2.49999994E-03  -1.07747292E-04
  -2.45000003E-03  -1.06841311E-04
  -2.40000011E-03  -1.05880819E-04
  -2.34999997E-03  -1.04864739E-04
  -2.30000005E-03  -1.03792001E-04
  -2.24999990E-03  -1.02661455E-04
  -2.19999999E-03  -1.01471953E-04
  -2.15000007E-03  -1.00222263E-04
  -2.09999993E-03  -9.89111941E-05
  -2.05000001E-03  -9.75375151E-05
  -2.00000009E-03  -9.61000260E-05
  -1.94999995E-03  -9.45975480E-05
  -1.90000003E-03  -9.30289170E-05
  -1.85000000E-03  -9.13929762E-05
  -1.79999997E-03  -8.96885176E-05
  -1.75000005E-03  -8.79142899E-05
  -1.70000002E-03  -8.60690343E-05
  -1.64999999E-03  -8.41514338E-05
  -1.59999996E-03  -8.21601861E-05
  -1.55000004E-03  -8.00939815E-05
  -1.50000001E-03  -7.79515176E-05
  -1.44999998E-03  -7.57315574E-05
  -1.39999995E-03  -7.34328132E-05
  -1.35000004E-03  -7.10540480E-05
  -1.30000000E-03  -6.85939303E-05
  -1.24999997E-03  -6.60511214E-05
  -1.20000006E-03  -6.34242315E-05
  -1.15000003E-03  -6.07118855E-05
  -1.09999999E-03  -5.79126972E-05
  -1.04999996E-03  -5.50252807E-05
  -1.00000005E-03  -5.20482899E-05
  -9.50000016E-04  -4.89804152E-05
  -8.99999985E-04  -4.58202994E-05
  -8.50000011E-04  -4.25666221E-05
  -7.99999980E-04  -3.92179936E-05
  -7.50000007E-04  -3.57729987E-05
  -6.99999975E-04  -3.22301821E-05
  -6.50000002E-04  -2.85881106E-05
  -6.00000028E-04  -2.48453216E-05
  -5.49999997E-04  -2.10004200E-05
  -5.00000024E-04  -1.70520252E-05
  -4.49999992E-04  -1.29987602E-05
  -3.99999990E-04  -8.83923894E-06
  -3.49999988E-04  -4.57203123E-06
  -3.00000014E-04  -1.95723786E-07
  -2.50000012E-04   4.29119746E-06
  -1.99999995E-04   8.89022067E-06
  -1.50000007E-04   1.36028357E-05
  -9.99999975E-05   1.84304899E-05
  -4.99999987E-05   2.33745923E-05
   0.00000000       2.84365397E-05
   4.99999987E-05   3.36177000E-05
   9.99999975E-05   3.89194902E-05
   1.50000007E-04   4.43433782E-05
   1.99999995E-04   4.98908084E-05
   2.50000012E-04   5.55633233E-05
   3.00000014E-04   6.13623706E-05
   3.49999988E-04   6.72894457E-05
   3.99999990E-04   7.33459819E-05
   4.49999992E-04   7.95333253E-05
   5.00000024E-04   8.58528510E-05
   5.49999997E-04   9.23059051E-05
   6.00000028E-04   9.88939428E-05
   6.50000002E-04   1.05618361E-04
   6.99999975E-04   1.12480651E-04
   7.50000007E-04   1.19482298E-04
   7.99999980E-04   1.26624713E-04
   8.50000011E-04   1.33909285E-04
   8.99999985E-04   1.41337368E-04
   9.50000016E-04   1.48910331E-04
   1.00000005E-03   1.56629496E-04
   1.04999996E-03   1.64496130E-04
   1.09999999E-03   1.72511645E-04
   1.15000003E-03   1.80677394E-04
   1.20000006E-03   1.88994760E-04
   1.24999997E-03   1.97465095E-04
   1.30000000E-03   2.06089811E-04
   1.35000004E-03   2.14870219E-04
   1.39999995E-03   2.23807481E-04
   1.44999998E-03   2.32902836E-04
   1.50000001E-03   2.42157446E-04
   1.55000004E-03   2.51572579E-04
   1.59999996E-03   2.61149427E-04
   1.64999999E-03   2.70889315E-04
   1.70000002E-03   2.80793553E-04
   1.75000005E-03   2.90863391E-04
   1.79999997E-03   3.01099994E-04
   1.85000000E-03   3.11504496E-04
   1.90000003E-03   3.22077831E-04
   1.94999995E-03   3.32821044E-04
   2.00000009E-03   3.43735213E-04
   2.05000001E-03   3.54821474E-04
   2.09999993E-03   3.66080872E-04
   2.15000007E-03   3.77514632E-04
   2.19999999E-03   3.89123801E-04
   2.24999990E-03   4.00909368E-04
   2.30000005E-03   4.12872294E-04
   2.34999997E-03   4.25013364E-04
   2.40000011E-03   4.37333394E-04
   2.45000003E-03   4.49833169E-04
   2.49999994E-03   4.62513592E-04
   2.55000009E-03   4.75375709E-04
   2.60000001E-03   4.88420366E-04
   2.64999992E-03   5.01648348E-04
   2.70000007E-03   5.15060499E-04
   2.74999999E-03   5.28657634E-04
   2.79999990E-03   5.42440277E-04