  -3.99999991E-02   0.00000000    
  -3.99499983E-02   0.00000000    
  -3.99000011E-02   0.00000000    
  -3.98500003E-02   0.00000000    
  -3.97999994E-02   6.20865026E-17
  -3.97499986E-02   4.76846886E-16
  -3.97000015E-02   1.84287603E-15
  -3.96500006E-02   4.84005256E-15
  -3.95999998E-02   9.93853403E-15
  -3.95499989E-02   1.75627454E-14
  -3.95000018E-02   2.85169363E-14
  -3.94500010E-02   4.34999665E-14
  -3.94000001E-02   6.11464547E-14
  -3.93499993E-02   7.63851601E-14
  -3.92999984E-02   8.21090090E-14
  -3.92500013E-02   7.44774590E-14
  -3.92000005E-02   5.75276182E-14
  -3.91499996E-02   4.17892446E-14
  -3.90999988E-02   3.68160600E-14
  -3.90500017E-02   4.39064170E-14
  -3.90000008E-02   5.51783012E-14
  -3.89500000E-02   5.81534265E-14
  -3.88999991E-02   3.95971708E-14
  -3.88499983E-02  -1.42931236E-14
  -3.88000011E-02  -1.16537368E-13
  -3.87500003E-02  -2.71555998E-13
  -3.86999995E-02  -4.65612195E-13
  -3.86499986E-02  -6.68823178E-13
  -3.86000015E-02  -8.55206097E-13
  -3.85500006E-02  -1.02825420E-12
  -3.84999998E-02  -1.22903976E-12
  -3.84499989E-02  -1.51649841E-12
  -3.84000018E-02  -1.93450919E-12
  -3.83500010E-02  -2.49113620E-12
  -3.83000001E-02  -3.16048077E-12
  -3.82499993E-02  -3.89536710E-12
  -3.81999984E-02  -4.63601076E-12
  -3.81500013E-02  -5.31723320E-12
  -3.81000005E-02  -5.88818274E-12
  -3.80499996E-02  -6.34377793E-12
  -3.79999988E-02  -6.74149798E-12
  -3.79500017E-02  -7.17645431E-12
  -3.79000008E-02  -7.72249712E-12
  -3.78500000E-02  -8.38352391E-12
  -3.77999991E-02  -9.09451854E-12
  -3.77499983E-02  -9.76637000E-12
  -3.77000012E-02  -1.03299756E-11
  -3.76500003E-02  -1.07450377E-11
  -3.75999995E-02  -1.09833505E-11
  -3.75499986E-02  -1.10212985E-11
  -3.75000015E-02  -1.08531864E-11
  -3.74500006E-02  -1.04981839E-11
  -3.73999998E-02  -9.97223484E-12
  -3.73499990E-02  -9.23905917E-12
  -3.73000018E-02  -8.18862599E-12
  -3.72500010E-02  -6.66982138E-12
  -3.72000001E-02  -4.54747654E-12
  -3.71499993E-02  -1.72972856E-12
  -3.70999984E-02   1.84630761E-12
  -3.70500013E-02   6.22274845E-12
  -3.70000005E-02   1.13749956E-11
  -3.69499996E-02   1.71333694E-11
  -3.68999988E-02   2.31589522E-11
  -3.68500017E-02   2.90390628E-11
  -3.68000008E-02   3.44704681E-11
  -3.67500000E-02   3.94207965E-11
  -3.66999991E-02   4.41733802E-11
  -3.66499983E-02   4.92424053E-11
  -3.66000012E-02   5.52070056E-11
  -3.65500003E-02   6.25138483E-11
  -3.64999995E-02   7.12830836E-11
  -3.64499986E-02   8.11772247E-11
  -3.64000015E-02   9.14351095E-11
  -3.63500006E-02   1.01141769E-10
  -3.62999998E-02   1.09658262E-10
  -3.62499990E-02   1.16971932E-10
  -3.62000018E-02   1.23709043E-10
  -3.61500010E-02   1.30732508E-10
  -3.61000001E-02   1.38513923E-10
  -3.60499993E-02   1.46625156E-10
  -3.59999985E-02   1.53642307E-10
  -3.59500013E-02   1.57553443E-10
  -3.59000005E-02   1.56544167E-10
  -3.58499996E-02   1.49879290E-10
  -3.57999988E-02   1.38508802E-10
  -3.57500017E-02   1.25030430E-10
  -3.57000008E-02   1.12822605E-10
  -3.56500000E-02   1.04542285E-10
  -3.55999991E-02   1.00618527E-10
  -3.55499983E-02   9.85593690E-11
  -3.55000012E-02   9.36087458E-11
  -3.54500003E-02   8.06348183E-11
  -3.53999995E-02   5.64535016E-11
  -3.53499986E-02   2.14907796E-11
  -3.53000015E-02  -2.00684035E-11
  -3.52500007E-02  -6.18603710E-11
  -3.51999998E-02  -9.81166259E-11
  -3.51499990E-02  -1.26511329E-10
  -3.51000018E-02  -1.49759205E-10
  -3.50500010E-02  -1.74982348E-10
  -3.50000001E-02  -2.10764073E-10
  -3.49499993E-02  -2.62973920E-10
  -3.48999985E-02  -3.31302263E-10
  -3.48500013E-02  -4.08396567E-10
  -3.48000005E-02  -4.82392459E-10
  -3.47499996E-02  -5.41968137E-10
  -3.46999988E-02  -5.81679760E-10
  -3.46500017E-02  -6.04997885E-10
  -3.46000008E-02  -6.23358420E-10
  -3.45500000E-02  -6.51276921E-10
  -3.44999991E-02  -6.99413860E-10
  -3.44499983E-02  -7.68650366E-10
  -3.44000012E-02  -8.48162707E-10
  -3.43500003E-02  -9.18981946E-10
  -3.42999995E-02  -9.62052216E-10
  -3.42499986E-02  -9.67388947E-10
  -3.42000015E-02  -9.39885725E-10
  -3.41500007E-02  -8.98430108E-10
  -3.40999998E-02  -8.67975469E-10
  -3.40499990E-02  -8.67715344E-10
  -3.40000018E-02  -9.00747477E-10
  -3.39500010E-02  -9.50378554E-10
  -3.39000002E-02  -9.85497350E-10
  -3.38499993E-02  -9.73385039E-10
  -3.37999985E-02  -8.94693764E-10
  -3.37500013E-02  -7.53753060E-10
  -3.37000005E-02  -5.78795512E-10
  -3.36499996E-02  -4.10862233E-10
  -3.35999988E-02  -2.85460017E-10
  -3.35500017E-02  -2.15087864E-10
  -3.35000008E-02  -1.81213322E-10
  -3.34500000E-02  -1.40516848E-10
  -3.33999991E-02  -4.36780091E-11
  -3.33499983E-02   1.41283027E-10
  -3.33000012E-02   4.11922302E-10
  -3.32500003E-02   7.29206528E-10
  -3.31999995E-02   1.03250042E-09
  -3.31499986E-02   1.26607413E-09
  -3.31000015E-02   1.40561784E-09
  -3.30500007E-02   1.47220647E-09
  -3.29999998E-02   1.52591839E-09
  -3.29499990E-02   1.64024605E-09
  -3.29000019E-02   1.86780968E-09
  -3.28500010E-02   2.21308638E-09
  -3.28000002E-02   2.62585442E-09
  -3.27499993E-02   3.02019321E-09
  -3.26999985E-02   3.31185479E-09
  -3.26500013E-02   3.45745765E-09
  -3.26000005E-02   3.47696338E-09
  -3.25499997E-02   3.44757090E-09
  -3.24999988E-02   3.46984730E-09
  -3.24500017E-02   3.62004404E-09
  -3.24000008E-02   3.91013977E-09
  -3.23500000E-02   4.27523217E-09
  -3.22999991E-02   4.59658756E-09
  -3.22499983E-02   4.75238604E-09
  -3.22000012E-02   4.67425432E-09
  -3.21500003E-02   4.38302949E-09
  -3.20999995E-02   3.98509092E-09
  -3.20499986E-02   3.62807251E-09
  -3.20000015E-02   3.43411255E-09
  -3.19500007E-02   3.44060602E-09
  -3.18999998E-02   3.57680574E-09
  -3.18499990E-02   3.68947051E-09
  -3.18000019E-02   3.60870378E-09
  -3.17500010E-02   3.22591243E-09
  -3.17000002E-02   2.54825783E-09
  -3.16499993E-02   1.70254699E-09
  -3.15999985E-02   8.83325690E-10
  -3.15500014E-02   2.65958450E-10
  -3.15000005E-02  -7.65358957E-11
  -3.14499997E-02  -2.13348048E-10
  -3.13999988E-02  -3.30931921E-10
  -3.13500017E-02  -6.51216525E-10
  -3.13000008E-02  -1.32831879E-09
  -3.12500000E-02  -2.37106668E-09
  -3.11999992E-02  -3.62896757E-09
  -3.11500002E-02  -4.85169016E-09
  -3.10999993E-02  -5.79837645E-09
  -3.10500003E-02  -6.34866648E-09
  -3.09999995E-02  -6.56373444E-09
  -3.09500005E-02  -6.66585187E-09
  -3.08999997E-02  -6.94124491E-09
  -3.08500007E-02  -7.60744001E-09
  -3.07999998E-02  -8.70554651E-09
  -3.07500008E-02  -1.00694741E-08
  -3.07000000E-02  -1.13905818E-08
  -3.06499992E-02  -1.23522641E-08
  -3.06000002E-02  -1.27749225E-08
  -3.05499993E-02  -1.27042430E-08
  -3.05000003E-02  -1.23988730E-08
  -3.04499995E-02  -1.22182140E-08
  -3.04000005E-02  -1.24574910E-08
  -3.03499997E-02  -1.32038975E-08
  -3.03000007E-02  -1.42817536E-08
  -3.02499998E-02  -1.53169868E-08
  -3.02000009E-02  -1.58971023E-08
  -3.01500000E-02  -1.57570152E-08
  -3.00999992E-02  -1.49055861E-08
  -3.00500002E-02  -1.36313920E-08
  -2.99999993E-02  -1.23797106E-08
  -2.99500003E-02  -1.15524497E-08
  -2.98999995E-02  -1.13203917E-08
  -2.98500005E-02  -1.15348193E-08
  -2.97999997E-02  -1.17831833E-08
  -2.97500007E-02  -1.15688454E-08
  -2.96999998E-02  -1.05372875E-08
  -2.96500009E-02  -8.64654570E-09
  -2.96000000E-02  -6.20077811E-09
  -2.95499992E-02  -3.72571796E-09
  -2.95000002E-02  -1.73701686E-09
  -2.94499993E-02  -5.04459252E-10
  -2.94000003E-02   7.91931243E-11
  -2.93499995E-02   4.60397220E-10
  -2.93000005E-02   1.22941068E-09
  -2.92499997E-02   2.85211144E-09
  -2.92000007E-02   5.44984324E-09
  -2.91499998E-02   8.72970052E-09
  -2.91000009E-02   1.21020456E-08
  -2.90500000E-02   1.49376547E-08
  -2.89999992E-02   1.68515086E-08
  -2.89500002E-02   1.78839414E-08
  -2.88999993E-02   1.84920061E-08
  -2.88500004E-02   1.93481977E-08
  -2.87999995E-02   2.10324949E-08
  -2.87500005E-02   2.37560123E-08
  -2.86999997E-02   2.72445604E-08
  -2.86500007E-02   3.08405035E-08
  -2.85999998E-02   3.37829675E-08
  -2.85500009E-02   3.55439660E-08
  -2.85000000E-02   3.60690144E-08
  -2.84499992E-02   3.58103911E-08
  -2.84000002E-02   3.55317091E-08
  -2.83499993E-02   3.59654670E-08
  -2.83000004E-02   3.74745248E-08
  -2.82499995E-02   3.98712068E-08
  -2.82000005E-02   4.24808455E-08
  -2.81499997E-02   4.44280559E-08
  -2.81000007E-02   4.50214834E-08
  -2.80499998E-02   4.40645920E-08
  -2.80000009E-02   4.19502122E-08
  -2.79500000E-02   3.94909776E-08
  -2.78999992E-02   3.75570046E-08
  -2.78500002E-02   3.66803761E-08
  -2.77999993E-02   3.68030939E-08
  -2.77500004E-02   3.72855098E-08
  -2.76999995E-02   3.71778128E-08
  -2.76500005E-02   3.56386423E-08
  -2.75999997E-02   3.23159206E-08
  -2.75500007E-02   2.75171086E-08
  -2.74999999E-02   2.20869136E-08
  -2.74500009E-02   1.70417689E-08
  -2.74000000E-02   1.31208395E-08
  -2.73499992E-02   1.04533289E-08
  -2.73000002E-02   8.49419735E-09
  -2.72499993E-02   6.26147001E-09
  -2.72000004E-02   2.77417622E-09
  -2.71499995E-02  -2.50067034E-09
  -2.71000005E-02  -9.39181088E-09
  -2.70499997E-02  -1.70761769E-08
  -2.70000007E-02  -2.44237697E-08
  -2.69499999E-02  -3.04872998E-08
  -2.69000009E-02  -3.49201379E-08
  -2.68500000E-02  -3.81342851E-08
  -2.67999992E-02  -4.11219041E-08
  -2.67500002E-02  -4.50129818E-08
  -2.66999993E-02  -5.05616882E-08
  -2.66500004E-02  -5.77888279E-08
  -2.65999995E-02  -6.59416344E-08
  -2.65500005E-02  -7.37943537E-08
  -2.64999997E-02  -8.01640212E-08
  -2.64500007E-02  -8.44182964E-08
  -2.63999999E-02  -8.67509300E-08
  -2.63500009E-02  -8.80984103E-08
  -2.63000000E-02  -8.97269317E-08
  -2.62499992E-02  -9.26648198E-08
  -2.62000002E-02  -9.72277618E-08
  -2.61499994E-02  -1.02849199E-07
  -2.61000004E-02  -1.08297023E-07
  -2.60499995E-02  -1.12188495E-07
  -2.60000005E-02  -1.13582118E-07
  -2.59499997E-02  -1.12388030E-07
  -2.59000007E-02  -1.09413627E-07
  -2.58499999E-02  -1.06016834E-07
  -2.58000009E-02  -1.03511802E-07
  -2.57500000E-02  -1.02581424E-07
  -2.56999992E-02  -1.02954097E-07
  -2.56500002E-02  -1.03493974E-07
  -2.55999994E-02  -1.02675145E-07
  -2.55500004E-02  -9.92407649E-08
  -2.54999995E-02  -9.27595920E-08
  -2.54500005E-02  -8.38343155E-08
  -2.53999997E-02  -7.38603561E-08
  -2.53500007E-02  -6.44307789E-08
  -2.52999999E-02  -5.66427474E-08
  -2.52500009E-02  -5.06067437E-08
  -2.52000000E-02  -4.53799913E-08
  -2.51499992E-02  -3.93643163E-08
  -2.51000002E-02  -3.10086925E-08
  -2.50499994E-02  -1.95159728E-08
  -2.50000004E-02  -5.24000932E-09
  -2.49499995E-02   1.04115969E-08
  -2.49000005E-02   2.55436294E-08
  -2.48499997E-02   3.85728818E-08
  -2.48000007E-02   4.89149734E-08
  -2.47499999E-02   5.72518601E-08
  -2.47000009E-02   6.52478391E-08
  -2.46500000E-02   7.48220614E-08
  -2.45999992E-02   8.72836239E-08
  -2.45500002E-02   1.02705847E-07
  -2.44999994E-02   1.19825216E-07
  -2.44500004E-02   1.36528286E-07
  -2.43999995E-02   1.50732319E-07
  -2.43500005E-02   1.61282244E-07
  -2.42999997E-02   1.68466684E-07
  -2.42500007E-02   1.73910010E-07
  -2.41999999E-02   1.79865083E-07
  -2.41500009E-02   1.88200644E-07
  -2.41000000E-02   1.99522475E-07
  -2.40499992E-02   2.12825270E-07
  -2.40000002E-02   2.25850997E-07
  -2.39499994E-02   2.36019105E-07
  -2.39000004E-02   2.41534565E-07
  -2.38499995E-02   2.42186331E-07
  -2.38000005E-02   2.39468847E-07
  -2.37499997E-02   2.35948477E-07
  -2.37000007E-02   2.34130923E-07
  -2.36499999E-02   2.35317216E-07
  -2.36000009E-02   2.38960553E-07
  -2.35500000E-02   2.42833977E-07
  -2.34999992E-02   2.43962432E-07
  -2.34500002E-02   2.39927004E-07
  -2.33999994E-02   2.29967554E-07
  -2.33500004E-02   2.15378549E-07
  -2.32999995E-02   1.98991771E-07
  -2.32500006E-02   1.83952352E-07
  -2.31999997E-02   1.72313918E-07
  -2.31500007E-02   1.64076084E-07
  -2.30999999E-02   1.57117853E-07
  -2.30500009E-02   1.48091814E-07
  -2.30000000E-02   1.33911470E-07
  -2.29499992E-02   1.13180327E-07
  -2.29000002E-02   8.69119319E-08
  -2.28499994E-02   5.81854138E-08
  -2.28000004E-02   3.08565369E-08
  -2.27499995E-02   7.87539811E-09
  -2.27000006E-02  -1.00417212E-08
  -2.26499997E-02  -2.47700385E-08
  -2.26000007E-02  -3.99690983E-08
  -2.25499999E-02  -5.94370597E-08
  -2.25000009E-02  -8.53418882E-08
  -2.24500000E-02  -1.17128920E-07
  -2.23999992E-02  -1.51624590E-07
  -2.23500002E-02  -1.84327831E-07
  -2.22999994E-02  -2.11347057E-07
  -2.22500004E-02  -2.31124460E-07
  -2.21999995E-02  -2.45156741E-07
  -2.21500006E-02  -2.57352184E-07
  -2.20999997E-02  -2.72270029E-07
  -2.20500007E-02  -2.93012079E-07
  -2.19999999E-02  -3.19717003E-07
  -2.19500009E-02  -3.49357691E-07
  -2.19000001E-02  -3.76969950E-07
  -2.18499992E-02  -3.97795645E-07
  -2.18000002E-02  -4.09393692E-07
  -2.17499994E-02  -4.12758482E-07
  -2.17000004E-02  -4.11907735E-07
  -2.16499995E-02  -4.12081619E-07
  -2.16000006E-02  -4.17334491E-07
  -2.15499997E-02  -4.28602903E-07
  -2.15000007E-02  -4.43149020E-07
  -2.14499999E-02  -4.55672222E-07
  -2.14000009E-02  -4.60625245E-07
  -2.13500001E-02  -4.54709522E-07
  -2.12999992E-02  -4.38414844E-07
  -2.12500002E-02  -4.15878873E-07
  -2.11999994E-02  -3.93084605E-07
  -2.11500004E-02  -3.75175887E-07
  -2.10999995E-02  -3.64091562E-07
  -2.10500006E-02  -3.57605359E-07
  -2.09999997E-02  -3.50249081E-07
  -2.09500007E-02  -3.35745369E-07
  -2.08999999E-02  -3.09876043E-07
  -2.08500009E-02  -2.72488364E-07
  -2.08000001E-02  -2.27698706E-07
  -2.07499992E-02  -1.82153869E-07
  -2.07000002E-02  -1.42107154E-07
  -2.06499994E-02  -1.10612362E-07
  -2.06000004E-02  -8.61198828E-08
  -2.05499995E-02  -6.31478727E-08
  -2.05000006E-02  -3.47673783E-08
  -2.04499997E-02   4.19265156E-09
  -2.04000007E-02   5.46630652E-08
  -2.03499999E-02   1.12721267E-07
  -2.03000009E-02   1.71168324E-07
  -2.02500001E-02   2.22630646E-07
  -2.01999992E-02   2.62802217E-07
  -2.01500002E-02   2.92343628E-07
  -2.00999994E-02   3.16553837E-07
  -2.00500004E-02   3.42922618E-07
  -1.99999996E-02   3.77645875E-07
  -1.99500006E-02   4.22671661E-07
  -1.98999997E-02   4.74634220E-07
  -1.98500007E-02   5.26189297E-07
  -1.97999999E-02   5.69183442E-07
  -1.97500009E-02   5.98248278E-07
  -1.97000001E-02   6.13184739E-07
  -1.96499992E-02   6.19027844E-07
  -1.96000002E-02   6.23720439E-07
  -1.95499994E-02   6.34421610E-07
  -1.95000004E-02   6.54112796E-07
  -1.94499996E-02   6.80059429E-07
  -1.94000006E-02   7.04861634E-07
  -1.93499997E-02   7.19652235E-07
  -1.93000007E-02   7.18012075E-07
  -1.92499999E-02   6.98833276E-07
  -1.92000009E-02   6.66814572E-07
  -1.91500001E-02   6.30326042E-07
  -1.90999992E-02   5.97573546E-07
  -1.90500002E-02   5.72788622E-07
  -1.89999994E-02   5.54182009E-07
  -1.89500004E-02   5.34619630E-07
  -1.88999996E-02   5.04750403E-07
  -1.88500006E-02   4.57198865E-07
  -1.87999997E-02   3.89923372E-07
  -1.87500007E-02   3.07197638E-07
  -1.86999999E-02   2.17742766E-07
  -1.86500009E-02   1.30824759E-07
  -1.86000001E-02   5.20664862E-08
  -1.85499992E-02  -1.91276275E-08
  -1.85000002E-02  -8.93464716E-08
  -1.84499994E-02  -1.68218961E-07
  -1.84000004E-02  -2.64044957E-07
  -1.83499996E-02  -3.79971851E-07
  -1.83000006E-02  -5.12465704E-07
  -1.82499997E-02  -6.52791755E-07
  -1.82000007E-02  -7.90863510E-07
  -1.81499999E-02  -9.19732713E-07
  -1.81000009E-02  -1.03868183E-06
  -1.80500001E-02  -1.15350269E-06
  -1.79999992E-02  -1.27382100E-06
  -1.79500002E-02  -1.40864518E-06
  -1.78999994E-02  -1.56214617E-06
  -1.78500004E-02  -1.73160470E-06
  -1.77999996E-02  -1.90846572E-06
  -1.77500006E-02  -2.08203937E-06
  -1.76999997E-02  -2.24418795E-06
  -1.76500008E-02  -2.39291126E-06
  -1.75999999E-02  -2.53317512E-06
  -1.75500009E-02  -2.67458472E-06
  -1.75000001E-02  -2.82692554E-06
  -1.74499992E-02  -2.99560020E-06
  -1.74000002E-02  -3.17903141E-06
  -1.73499994E-02  -3.36921653E-06
  -1.73000004E-02  -3.55520069E-06
  -1.72499996E-02  -3.72791283E-06
  -1.72000006E-02  -3.88419130E-06
  -1.71499997E-02  -4.02816022E-06
  -1.71000008E-02  -4.16932744E-06
  -1.70499999E-02  -4.31822446E-06
  -1.70000009E-02  -4.48153969E-06
  -1.69500001E-02  -4.65894300E-06
  -1.68999992E-02  -4.84308248E-06
  -1.68500002E-02  -5.02280182E-06
  -1.67999994E-02  -5.18807792E-06
  -1.67500004E-02  -5.33445882E-06
  -1.66999996E-02  -5.46501997E-06
  -1.66500006E-02  -5.58901047E-06
  -1.65999997E-02  -5.71773126E-06
  -1.65500008E-02  -5.85942098E-06
  -1.64999999E-02  -6.01550801E-06
  -1.64500009E-02  -6.17993783E-06
  -1.64000001E-02  -6.34191565E-06
  -1.63499992E-02  -6.49081585E-06
  -1.63000003E-02  -6.62102730E-06
  -1.62499994E-02  -6.73451677E-06
  -1.62000004E-02  -6.84001543E-06
  -1.61499996E-02  -6.94917344E-06
  -1.61000006E-02  -7.07140316E-06
  -1.60499997E-02  -7.20972321E-06
  -1.60000008E-02  -7.35941012E-06
  -1.59499999E-02  -7.51014613E-06
  -1.59000009E-02  -7.65076129E-06
  -1.58500001E-02  -7.77453170E-06
  -1.57999992E-02  -7.88234684E-06
  -1.57500003E-02  -7.98239853E-06
  -1.56999994E-02  -8.08666300E-06
  -1.56500004E-02  -8.20568675E-06
  -1.55999996E-02  -8.34406637E-06
  -1.55499997E-02  -8.49856588E-06
  -1.54999997E-02  -8.65956827E-06
  -1.54499998E-02  -8.81549113E-06
  -1.53999999E-02  -8.95834728E-06
  -1.53500000E-02  -9.08755919E-06
  -1.53000001E-02  -9.21039373E-06
  -1.52500002E-02  -9.33892716E-06
  -1.52000003E-02  -9.48474189E-06
  -1.51500003E-02  -9.65386425E-06
  -1.51000004E-02  -9.84424332E-06
  -1.50499996E-02  -1.00467860E-05
  -1.49999997E-02  -1.02495806E-05
  -1.49499997E-02  -1.04433511E-05
  -1.48999998E-02  -1.06257985E-05
  -1.48499999E-02  -1.08028635E-05
  -1.48000000E-02  -1.09863513E-05
  -1.47500001E-02  -1.11889003E-05
  -1.47000002E-02  -1.14183722E-05
  -1.46500003E-02  -1.16744213E-05
  -1.46000003E-02  -1.19487167E-05
  -1.45500004E-02  -1.22289675E-05
  -1.44999996E-02  -1.25046372E-05
  -1.44499997E-02  -1.27719168E-05
  -1.43999998E-02  -1.30355056E-05
  -1.43499998E-02  -1.33065078E-05
  -1.42999999E-02  -1.35977589E-05
  -1.42500000E-02  -1.39183758E-05
  -1.42000001E-02  -1.42698400E-05
  -1.41500002E-02  -1.46451621E-05
  -1.41000003E-02  -1.50320320E-05
  -1.40500003E-02  -1.54185764E-05
  -1.40000004E-02  -1.57988015E-05
  -1.39499996E-02  -1.61758489E-05
  -1.38999997E-02  -1.65606980E-05
  -1.38499998E-02  -1.69668092E-05
  -1.37999998E-02  -1.74043507E-05
  -1.37499999E-02  -1.78758746E-05
  -1.37000000E-02  -1.83753291E-05
  -1.36500001E-02  -1.88910217E-05
  -1.36000002E-02  -1.94106979E-05
  -1.35500003E-02  -1.99270653E-05
  -1.35000004E-02  -2.04413245E-05
  -1.34500004E-02  -2.09631853E-05
  -1.33999996E-02  -2.15070631E-05
  -1.33499997E-02  -2.20851889E-05
  -1.32999998E-02  -2.27019536E-05
  -1.32499998E-02  -2.33521569E-05
  -1.31999999E-02  -2.40235477E-05
  -1.31500000E-02  -2.47026073E-05
  -1.31000001E-02  -2.53808248E-05
  -1.30500002E-02  -2.60583693E-05
  -1.30000003E-02  -2.67441410E-05
  -1.29500004E-02  -2.74522481E-05
  -1.29000004E-02  -2.81961693E-05
  -1.28499996E-02  -2.89830277E-05
  -1.27999997E-02  -2.98103532E-05
  -1.27499998E-02  -3.06669936E-05
  -1.26999998E-02  -3.15380858E-05
  -1.26499999E-02  -3.24128487E-05
  -1.26000000E-02  -3.32901836E-05
  -1.25500001E-02  -3.41785853E-05
  -1.25000002E-02  -3.50922564E-05
  -1.24500003E-02  -3.60454069E-05
  -1.24000004E-02  -3.70463385E-05
  -1.23500004E-02  -3.80944584E-05
  -1.22999996E-02  -3.91805152E-05
  -1.22499997E-02  -4.02908227E-05
  -1.21999998E-02  -4.14138703E-05
  -1.21499998E-02  -4.25462931E-05
  -1.20999999E-02  -4.36956216E-05
  -1.20500000E-02  -4.48766332E-05
  -1.20000001E-02  -4.61044510E-05
  -1.19500002E-02  -4.73882283E-05
  -1.19000003E-02  -4.87272482E-05
  -1.18500004E-02  -5.01116629E-05
  -1.18000004E-02  -5.15266183E-05
  -1.17499996E-02  -5.29591343E-05
  -1.16999997E-02  -5.44045397E-05
  -1.16499998E-02  -5.58691027E-05
  -1.15999999E-02  -5.73685174E-05
  -1.15499999E-02  -5.89214578E-05
  -1.15000000E-02  -6.05420391E-05
  -1.14500001E-02  -6.22338921E-05
  -1.14000002E-02  -6.39888676E-05
  -1.13500003E-02  -6.57926212E-05
  -1.13000004E-02  -6.76314303E-05
  -1.12500004E-02  -6.94973714E-05
  -1.11999996E-02  -7.13928384E-05
  -1.11499997E-02  -7.33293200E-05
  -1.10999998E-02  -7.53216591E-05
  -1.10499999E-02  -7.73818465E-05
  -1.09999999E-02  -7.95129890E-05
  -1.09500000E-02  -8.17077598E-05
  -1.09000001E-02  -8.39517670E-05
  -1.08500002E-02  -8.62306915E-05
  -1.08000003E-02  -8.85387199E-05
  -1.07500004E-02  -9.08820948E-05
  -1.07000005E-02  -9.32766634E-05
  -1.06499996E-02  -9.57424199E-05
  -1.05999997E-02  -9.82955680E-05
  -1.05499998E-02  -1.00941543E-04
  -1.04999999E-02  -1.03673425E-04
  -1.04499999E-02  -1.06475811E-04
  -1.04000000E-02  -1.09330555E-04
  -1.03500001E-02  -1.12223424E-04
  -1.03000002E-02  -1.15151663E-04
  -1.02500003E-02  -1.18126402E-04
  -1.02000004E-02  -1.21166173E-04
  -1.01500005E-02  -1.24286744E-04
  -1.00999996E-02  -1.27494466E-04
  -1.00499997E-02  -1.30785149E-04
  -9.99999978E-03  -1.34145856E-04
  -9.94999986E-03  -1.37561743E-04
  -9.89999995E-03  -1.41024357E-04
  -9.85000003E-03  -1.44534453E-04
  -9.80000012E-03  -1.48100982E-04
  -9.75000020E-03  -1.51740634E-04
  -9.70000029E-03  -1.55470625E-04
  -9.65000037E-03  -1.59300238E-04
  -9.60000046E-03  -1.63226112E-04
  -9.54999961E-03  -1.67234059E-04
  -9.49999969E-03  -1.71305379E-04
  -9.44999978E-03  -1.75426423E-04
  -9.39999986E-03  -1.79595387E-04
  -9.34999995E-03  -1.83823213E-04
  -9.30000003E-03  -1.88130827E-04
  -9.25000012E-03  -1.92536390E-04
  -9.20000020E-03  -1.97047557E-04
  -9.15000029E-03  -2.01661445E-04
  -9.10000037E-03  -2.06366400E-04
  -9.05000046E-03  -2.11146486E-04
  -8.99999961E-03  -2.15986962E-04
  -8.94999970E-03  -2.20880567E-04
  -8.89999978E-03  -2.25833617E-04
  -8.84999987E-03  -2.30865364E-04
  -8.79999995E-03  -2.35999207E-04
  -8.75000004E-03  -2.41248796E-04
  -8.70000012E-03  -2.46612792E-04
  -8.65000021E-03  -2.52078316E-04
  -8.60000029E-03  -2.57629232E-04
  -8.55000038E-03  -2.63254828E-04
  -8.50000046E-03  -2.68951117E-04
  -8.44999962E-03  -2.74722290E-04
  -8.39999970E-03  -2.80585053E-04
  -8.34999979E-03  -2.86560826E-04
  -8.29999987E-03  -2.92665121E-04
  -8.24999996E-03  -2.98900937E-04
  -8.20000004E-03  -3.05254216E-04
  -8.15000013E-03  -3.11706448E-04
  -8.10000021E-03  -3.18250095E-04
  -8.05000030E-03  -3.24882742E-04
  -8.00000038E-03  -3.31606367E-04
  -7.95000046E-03  -3.38436774E-04
  -7.89999962E-03  -3.45394597E-04
  -7.84999970E-03  -3.52498202E-04
  -7.79999979E-03  -3.59755621E-04
  -7.74999987E-03  -3.67157510E-04
  -7.69999996E-03  -3.74683033E-04
  -7.65000004E-03  -3.82316619E-04
  -7.60000013E-03  -3.90054134E-04
  -7.55000021E-03  -3.97907163E-04
  -7.49999983E-03  -4.05895320E-04
  -7.44999992E-03  -4.14035690E-04
  -7.40000000E-03  -4.22343350E-04
  -7.35000009E-03  -4.30825748E-04
  -7.30000017E-03  -4.39476455E-04
  -7.24999979E-03  -4.48282575E-04
  -7.19999988E-03  -4.57231334E-04
  -7.14999996E-03  -4.66311409E-04
  -7.10000005E-03  -4.75526496E-04
  -7.05000013E-03  -4.84894437E-04
  -7.00000022E-03  -4.94439679E-04
  -6.94999984E-03  -5.04182244E-04
  -6.89999992E-03  -5.14126441E-04
  -6.85000001E-03  -5.24261268E-04
  -6.80000009E-03  -5.34576597E-04
  -6.75000018E-03  -5.45066083E-04
  -6.69999979E-03  -5.55727631E-04
  -6.64999988E-03  -5.66564268E-04
  -6.59999996E-03  -5.77582978E-04
  -6.55000005E-03  -5.88799245E-04
  -6.50000013E-03  -6.00240077E-04
  -6.45000022E-03  -6.11926080E-04
  -6.39999984E-03  -6.23845786E-04
  -6.34999992E-03  -6.35977427E-04
  -6.30000001E-03  -6.48304063E-04
  -6.25000009E-03  -6.60824589E-04
  -6.20000018E-03  -6.73558097E-04
  -6.14999980E-03  -6.86518790E-04
  -6.09999988E-03  -6.99714175E-04
  -6.04999997E-03  -7.13148387E-04
  -6.00000005E-03  -7.26833008E-04
  -5.95000014E-03  -7.40784802E-04
  -5.90000022E-03  -7.54998880E-04
  -5.84999984E-03  -7.69449631E-04
  -5.79999993E-03  -7.84110220E-04
  -5.75000001E-03  -7.98992638E-04
  -5.70000010E-03  -8.14137049E-04
  -5.65000018E-03  -8.29572149E-04
  -5.59999980E-03  -8.45301547E-04
  -5.54999989E-03  -8.61309760E-04
  -5.49999997E-03  -8.77598359E-04
  -5.45000006E-03  -8.94182536E-04
  -5.40000014E-03  -9.11051873E-04
  -5.35000023E-03  -9.28186404E-04
  -5.29999984E-03  -9.45580832E-04
  -5.24999993E-03  -9.63249244E-04
  -5.20000001E-03  -9.81215853E-04
  -5.15000010E-03  -9.99503303E-04
  -5.10000018E-03  -1.01812521E-03
  -5.04999980E-03  -1.03707344E-03
  -4.99999989E-03  -1.05632877E-03
  -4.94999997E-03  -1.07587606E-03
  -4.90000006E-03  -1.09572685E-03
  -4.85000014E-03  -1.11588871E-03
  -4.80000023E-03  -1.13636418E-03
  -4.74999985E-03  -1.15716306E-03
  -4.69999993E-03  -1.17830001E-03
  -4.65000002E-03  -1.19979831E-03
  -4.60000010E-03  -1.22166064E-03
  -4.55000019E-03  -1.24386931E-03
  -4.49999981E-03  -1.26638729E-03
  -4.44999989E-03  -1.28920516E-03
  -4.39999998E-03  -1.31236040E-03
  -4.35000006E-03  -1.33588898E-03
  -4.30000015E-03  -1.35980791E-03
  -4.25000023E-03  -1.38410309E-03
  -4.19999985E-03  -1.40875753E-03
  -4.14999994E-03  -1.43378356E-03
  -4.10000002E-03  -1.45919749E-03
  -4.05000011E-03  -1.48499513E-03
  -4.00000019E-03  -1.51115819E-03
  -3.94999981E-03  -1.53766538E-03
  -3.89999989E-03  -1.56451669E-03
  -3.84999998E-03  -1.59175089E-03
  -3.80000006E-03  -1.61941757E-03
  -3.74999992E-03  -1.64752617E-03
  -3.70000000E-03  -1.67602359E-03
  -3.65000009E-03  -1.70484663E-03
  -3.59999994E-03  -1.73400308E-03
  -3.55000002E-03  -1.76355557E-03
  -3.50000011E-03  -1.79353368E-03
  -3.44999996E-03  -1.82390818E-03
  -3.40000005E-03  -1.85464392E-03
  -3.34999990E-03  -1.88577233E-03
  -3.29999998E-03  -1.91735930E-03
  -3.25000007E-03  -1.94942497E-03
  -3.19999992E-03  -1.98190892E-03
  -3.15000000E-03  -2.01473921E-03
  -3.10000009E-03  -2.04791664E-03
  -3.04999994E-03  -2.08149641E-03
  -3.00000003E-03  -2.11553951E-03
  -2.95000011E-03  -2.15005223E-03
  -2.89999996E-03  -2.18498125E-03
  -2.85000005E-03  -2.22029071E-03
  -2.79999990E-03  -2.25600391E-03
  -2.74999999E-03  -2.29215482E-03
  -2.70000007E-03  -2.32872902E-03
  -2.64999992E-03  -2.36566272E-03
  -2.60000001E-03  -2.40289932E-03
  -2.55000009E-03  -2.44049705E-03
  -2.49999994E-03  -2.47857999E-03
  -2.45000003E-03  -2.51718843E-03
  -2.40000011E-03  -2.55624228E-03
  -2.34999997E-03  -2.59562489E-03
  -2.30000005E-03  -2.63533951E-03
  -2.24999990E-03  -2.67546391E-03
  -2.19999999E-03  -2.71604164E-03
  -2.15000007E-03  -2.75704777E-03
  -2.09999993E-03  -2.79840408E-03
  -2.05000001E-03  -2.84007587E-03
  -2.00000009E-03  -2.88218330E-03
  -1.94999995E-03  -2.92486092E-03
  -1.90000003E-03  -2.96805217E-03
  -1.85000000E-03  -3.01157264E-03
  -1.79999997E-03  -3.05532292E-03
  -1.75000005E-03  -3.09936469E-03
  -1.70000002E-03  -3.14381556E-03
  -1.64999999E-03  -3.18874768E-03
  -1.59999996E-03  -3.23412241E-03
  -1.55000004E-03  -3.27989319E-03
  -1.50000001E-03  -3.32604838E-03
  -1.44999998E-03  -3.37258866E-03
  -1.39999995E-03  -3.41955875E-03
  -1.35000004E-03  -3.46693001E-03
  -1.30000000E-03  -3.51457181E-03
  -1.24999997E-03  -3.56241362E-03
  -1.20000006E-03  -3.61059397E-03
  -1.15000003E-03  -3.65928398E-03
  -1.09999999E-03  -3.70848062E-03
  -1.04999996E-03  -3.75810522E-03
  -1.00000005E-03  -3.80806951E-03
  -9.50000016E-04  -3.85832577E-03
  -8.99999985E-04  -3.90890008E-03
  -8.50000011E-04  -3.95981967E-03
  -7.99999980E-04  -4.01107734E-03
  -7.50000007E-04  -4.06264793E-03
  -6.99999975E-04  -4.11456870E-03
  -6.50000002E-04  -4.16693790E-03
  -6.00000028E-04  -4.21980117E-03
  -5.49999997E-04  -4.27312125E-03
  -5.00000024E-04  -4.32675751E-03
  -4.49999992E-04  -4.38057492E-03
  -3.99999990E-04  -4.43462003E-03
  -3.49999988E-04  -4.48905397E-03
  -3.00000014E-04  -4.54387534E-03
  -2.50000012E-04  -4.59897518E-03
  -1.99999995E-04  -4.65438468E-03
  -1.50000007E-04  -4.71025286E-03
  -9.99999975E-05  -4.76657460E-03
  -4.99999987E-05  -4.82324138E-03
   0.00000000      -4.88018617E-03
   4.99999987E-05  -4.93735913E-03
   9.99999975E-05  -4.99477983E-03
   1.50000007E-04  -5.05247712E-03
   1.99999995E-04  -5.11055533E-03
   2.50000012E-04  -5.16912015E-03
   3.00000014E-04  -5.22815390E-03
   3.49999988E-04  -5.28758345E-03
   3.99999990E-04  -5.34732081E-03
   4.49999992E-04  -5.40729752E-03
   5.00000024E-04  -5.46752661E-03
   5.49999997E-04  -5.52807515E-03
   6.00000028E-04  -5.58895990E-03
   6.50000002E-04  -5.65011241E-03
   6.99999975E-04  -5.71158109E-03
   7.50000007E-04  -5.77352475E-03
   7.99999980E-04  -5.83594618E-03
   8.50000011E-04  -5.89869078E-03
   8.99999985E-04  -5.96163794E-03
   9.50000016E-04  -6.02478953E-03
   1.00000005E-03  -6.08812878E-03
   1.04999996E-03  -6.15168270E-03
   1.09999999E-03  -6.21560682E-03
   1.15000003E-03  -6.27999706E-03
   1.20000006E-03  -6.34482643E-03
   1.24999997E-03  -6.41003391E-03
   1.30000000E-03  -6.47554779E-03
   1.35000004E-03  -6.54135086E-03
   1.39999995E-03  -6.60743192E-03
   1.44999998E-03  -6.67365175E-03
   1.50000001E-03  -6.74002944E-03
   1.55000004E-03  -6.80674938E-03
   1.59999996E-03  -6.87391730E-03
   1.64999999E-03  -6.94158720E-03
   1.70000002E-03  -7.00967433E-03
   1.75000005E-03  -7.07800360E-03
   1.79999997E-03  -7.14651076E-03
   1.85000000E-03  -7.21519301E-03
   1.90000003E-03  -7.28406524E-03
   1.94999995E-03  -7.35319871E-03
   2.00000009E-03  -7.42261531E-03
   2.05000001E-03  -7.49232946E-03
   2.09999993E-03  -7.56248040E-03
   2.15000007E-03  -7.63310306E-03
   2.19999999E-03  -7.70413456E-03
   2.24999990E-03  -7.77531788E-03
   2.30000005E-03  -7.84640759E-03
   2.34999997E-03  -7.91756064E-03
   2.40000011E-03  -7.98907224E-03
   2.45000003E-03  -8.06113239E-03
   2.49999994E-03  -8.13361164E-03
   2.55000009E-03  -8.20615236E-03
   2.60000001E-03  -8.27881601E-03
   2.64999992E-03  -8.35192762E-03
   2.70000007E-03  -8.42553191E-03
   2.74999999E-03  -8.49947799E-03
   2.79999990E-03  -8.57341290E-03