  -3.99999991E-02   0.00000000    
  -3.99499983E-02   0.00000000    
  -3.99000011E-02   0.00000000    
  -3.98500003E-02   0.00000000    
  -3.97999994E-02   0.00000000    
  -3.97499986E-02  -8.77920209E-23
  -3.97000015E-02  -1.05939551E-21
  -3.96500006E-02  -6.69712404E-21
  -3.95999998E-02  -2.93427459E-20
  -3.95499989E-02  -9.96558251E-20
  -3.95000018E-02  -2.78510885E-19
  -3.94500010E-02  -6.64438566E-19
  -3.94000001E-02  -1.38679580E-18
  -3.93499993E-02  -2.57735127E-18
  -3.92999984E-02  -4.32396464E-18
  -3.92500013E-02  -6.62684788E-18
  -3.92000005E-02  -9.39088471E-18
  -3.91499996E-02  -1.24836948E-17
  -3.90999988E-02  -1.58611982E-17
  -3.90500017E-02  -1.97174447E-17
  -3.90000008E-02  -2.45770696E-17
  -3.89500000E-02  -3.12467146E-17
  -3.88999991E-02  -4.05928562E-17
  -3.88499983E-02  -5.32056136E-17
  -3.88000011E-02  -6.90975465E-17
  -3.87500003E-02  -8.76178226E-17
  -3.86999995E-02  -1.07697883E-16
  -3.86499986E-02  -1.28392142E-16
  -3.86000015E-02  -1.49497305E-16
  -3.85500006E-02  -1.71920835E-16
  -3.84999998E-02  -1.97506696E-16
  -3.84499989E-02  -2.28240889E-16
  -3.84000018E-02  -2.65078696E-16
  -3.83500010E-02  -3.06910874E-16
  -3.83000001E-02  -3.50248600E-16
  -3.82499993E-02  -3.89967404E-16
  -3.81999984E-02  -4.20973866E-16
  -3.81500013E-02  -4.40151592E-16
  -3.81000005E-02  -4.47675865E-16
  -3.80499996E-02  -4.46936670E-16
  -3.79999988E-02  -4.42866174E-16
  -3.79500017E-02  -4.39214509E-16
  -3.79000008E-02  -4.35901234E-16
  -3.78500000E-02  -4.27689408E-16
  -3.77999991E-02  -4.04955202E-16
  -3.77499983E-02  -3.56415847E-16
  -3.77000012E-02  -2.72726424E-16
  -3.76500003E-02  -1.49334066E-16
  -3.75999995E-02   1.28017433E-17
  -3.75499986E-02   2.09090401E-16
  -3.75000015E-02   4.35040357E-16
  -3.74500006E-02   6.90159428E-16
  -3.73999998E-02   9.80179750E-16
  -3.73499990E-02   1.31645310E-15
  -3.73000018E-02   1.71258849E-15
  -3.72500010E-02   2.17959365E-15
  -3.72000001E-02   2.72141395E-15
  -3.71499993E-02   3.33257553E-15
  -3.70999984E-02   3.99876208E-15
  -3.70500013E-02   4.70003971E-15
  -3.70000005E-02   5.41556148E-15
  -3.69499996E-02   6.12829862E-15
  -3.68999988E-02   6.82861487E-15
  -3.68500017E-02   7.51601980E-15
  -3.68000008E-02   8.19878257E-15
  -3.67500000E-02   8.89119897E-15
  -3.66999991E-02   9.60840802E-15
  -3.66499983E-02   1.03591426E-14
  -3.66000012E-02   1.11379030E-14
  -3.65500003E-02   1.19192715E-14
  -3.64999995E-02   1.26575606E-14
  -3.64499986E-02   1.32939178E-14
  -3.64000015E-02   1.37701130E-14
  -3.63500006E-02   1.40445373E-14
  -3.62999998E-02   1.41032087E-14
  -3.62499990E-02   1.39588429E-14
  -3.62000018E-02   1.36351451E-14
  -3.61500010E-02   1.31406447E-14
  -3.61000001E-02   1.24434468E-14
  -3.60499993E-02   1.14613451E-14
  -3.59999985E-02   1.00777414E-14
  -3.59500013E-02   8.18287105E-15
  -3.59000005E-02   5.72590672E-15
  -3.58499996E-02   2.75357176E-15
  -3.57999988E-02  -5.88755608E-16
  -3.57500017E-02  -4.10415881E-15
  -3.57000008E-02  -7.62801704E-15
  -3.56500000E-02  -1.11153262E-14
  -3.55999991E-02  -1.46885694E-14
  -3.55499983E-02  -1.86132881E-14
  -3.55000012E-02  -2.31976117E-14
  -3.54500003E-02  -2.86493173E-14
  -3.53999995E-02  -3.49522996E-14
  -3.53499986E-02  -4.18269376E-14
  -3.53000015E-02  -4.88094706E-14
  -3.52500007E-02  -5.54324924E-14
  -3.51999998E-02  -6.14346424E-14
  -3.51499990E-02  -6.68999158E-14
  -3.51000018E-02  -7.22441855E-14
  -3.50500010E-02  -7.80283498E-14
  -3.50000001E-02  -8.46606856E-14
  -3.49499993E-02  -9.21171640E-14
  -3.48999985E-02  -9.98220265E-14
  -3.48500013E-02  -1.06776133E-13
  -3.48000005E-02  -1.11912636E-13
  -3.47499996E-02  -1.14544415E-13
  -3.46999988E-02  -1.14700377E-13
  -3.46500017E-02  -1.13169951E-13
  -3.46000008E-02  -1.11190286E-13
  -3.45500000E-02  -1.09875006E-13
  -3.44999991E-02  -1.09624576E-13
  -3.44499983E-02  -1.09801755E-13
  -3.44000012E-02  -1.08866773E-13
  -3.43500003E-02  -1.04970130E-13
  -3.42999995E-02  -9.67770243E-14
  -3.42499986E-02  -8.41536178E-14
  -3.42000015E-02  -6.83622402E-14
  -3.41500007E-02  -5.16044693E-14
  -3.40999998E-02  -3.60479435E-14
  -3.40499990E-02  -2.27433174E-14
  -3.40000018E-02  -1.09456249E-14
  -3.39500010E-02   1.77398451E-15
  -3.39000002E-02   1.85742907E-14
  -3.38499993E-02   4.18982679E-14
  -3.37999985E-02   7.21702293E-14
  -3.37500013E-02   1.07281649E-13
  -3.37000005E-02   1.43212577E-13
  -3.36499996E-02   1.75629937E-13
  -3.35999988E-02   2.01815249E-13
  -3.35500017E-02   2.22037151E-13
  -3.35000008E-02   2.39647007E-13
  -3.34500000E-02   2.59705045E-13
  -3.33999991E-02   2.86628631E-13
  -3.33499983E-02   3.21880923E-13
  -3.33000012E-02   3.62814569E-13
  -3.32500003E-02   4.03355246E-13
  -3.31999995E-02   4.36404466E-13
  -3.31499986E-02   4.57000702E-13
  -3.31000015E-02   4.64809289E-13
  -3.30500007E-02   4.64676908E-13
  -3.29999998E-02   4.64773402E-13
  -3.29499990E-02   4.72947690E-13
  -3.29000019E-02   4.92842366E-13
  -3.28500010E-02   5.21589336E-13
  -3.28000002E-02   5.50345739E-13
  -3.27499993E-02   5.67705496E-13
  -3.26999985E-02   5.64659430E-13
  -3.26500013E-02   5.38906918E-13
  -3.26000005E-02   4.96415246E-13
  -3.25499997E-02   4.49225699E-13
  -3.24999988E-02   4.10192307E-13
  -3.24500017E-02   3.86863528E-13
  -3.24000008E-02   3.77333391E-13
  -3.23500000E-02   3.70220185E-13
  -3.22999991E-02   3.49173164E-13
  -3.22499983E-02   3.00192868E-13
  -3.22000012E-02   2.18555791E-13
  -3.21500003E-02   1.12021232E-13
  -3.20999995E-02  -1.54375503E-15
  -3.20499986E-02  -1.01514202E-13
  -3.20000015E-02  -1.73813790E-13
  -3.19500007E-02  -2.17962963E-13
  -3.18999998E-02  -2.48345534E-13
  -3.18499990E-02  -2.88589356E-13
  -3.18000019E-02  -3.61108983E-13
  -3.17500010E-02  -4.76316089E-13
  -3.17000002E-02  -6.26543251E-13
  -3.16499993E-02  -7.87933575E-13
  -3.15999985E-02  -9.30067546E-13
  -3.15500014E-02  -1.02943945E-12
  -3.15000005E-02  -1.08075853E-12
  -3.14499997E-02  -1.10058761E-12
  -3.13999988E-02  -1.12098427E-12
  -3.13500017E-02  -1.17533132E-12
  -3.13000008E-02  -1.28238566E-12
  -3.12500000E-02  -1.43590120E-12
  -3.11999992E-02  -1.60513866E-12
  -3.11500002E-02  -1.74689083E-12
  -3.10999993E-02  -1.82429397E-12
  -3.10500003E-02  -1.82414739E-12
  -3.09999995E-02  -1.76453264E-12
  -3.09500005E-02  -1.68843552E-12
  -3.08999997E-02  -1.64530119E-12
  -3.08500007E-02  -1.66824226E-12
  -3.07999998E-02  -1.75721774E-12
  -3.07500008E-02  -1.87646231E-12
  -3.07000000E-02  -1.96838834E-12
  -3.06499992E-02  -1.97864208E-12
  -3.06000002E-02  -1.88141061E-12
  -3.05499993E-02  -1.69318747E-12
  -3.05000003E-02  -1.46776645E-12
  -3.04499995E-02  -1.27349509E-12
  -3.04000005E-02  -1.16217485E-12
  -3.03499997E-02  -1.14353947E-12
  -3.03000007E-02  -1.17760673E-12
  -3.02499998E-02  -1.18970144E-12
  -3.02000009E-02  -1.10271482E-12
  -3.01500000E-02  -8.72763667E-13
  -3.00999992E-02  -5.11908495E-13
  -3.00500002E-02  -8.65167719E-14
  -2.99999993E-02   3.09567774E-13
  -2.99500003E-02   5.96237686E-13
  -2.98999995E-02   7.44524776E-13
  -2.98500005E-02   7.92612666E-13
  -2.97999997E-02   8.31684873E-13
  -2.97500007E-02   9.66292693E-13
  -2.96999998E-02   1.26603513E-12
  -2.96500009E-02   1.73042310E-12
  -2.96000000E-02   2.28403299E-12
  -2.95499992E-02   2.80606029E-12
  -2.95000002E-02   3.18268957E-12
  -2.94499993E-02   3.35941951E-12
  -2.94000003E-02   3.36912486E-12
  -2.93499995E-02   3.32142040E-12
  -2.93000005E-02   3.35593662E-12
  -2.92499997E-02   3.57896243E-12
  -2.92000007E-02   4.01174016E-12
  -2.91499998E-02   4.57494763E-12
  -2.91000009E-02   5.11860519E-12
  -2.90500000E-02   5.48618746E-12
  -2.89999992E-02   5.58531129E-12
  -2.89500002E-02   5.43278747E-12
  -2.88999993E-02   5.15186374E-12
  -2.88500004E-02   4.92031589E-12
  -2.87999995E-02   4.89064475E-12
  -2.87500005E-02   5.11764285E-12
  -2.86999997E-02   5.52711175E-12
  -2.86500007E-02   5.94236552E-12
  -2.85999998E-02   6.15940025E-12
  -2.85500009E-02   6.03873592E-12
  -2.85000000E-02   5.57253896E-12
  -2.84499992E-02   4.89485449E-12
  -2.84000002E-02   4.22726090E-12
  -2.83499993E-02   3.78156751E-12
  -2.83000004E-02   3.66202554E-12
  -2.82499995E-02   3.81193124E-12
  -2.82000005E-02   4.03136986E-12
  -2.81499997E-02   4.06154494E-12
  -2.81000007E-02   3.70033735E-12
  -2.80499998E-02   2.89766757E-12
  -2.80000009E-02   1.78596807E-12
  -2.79500000E-02   6.28664276E-13
  -2.78999992E-02  -2.93678005E-13
  -2.78500002E-02  -8.10357152E-13
  -2.77999993E-02  -9.43139338E-13
  -2.77500004E-02  -9.04503957E-13
  -2.76999995E-02  -1.00835811E-12
  -2.76500005E-02  -1.52994024E-12
  -2.75999997E-02  -2.57666262E-12
  -2.75500007E-02  -4.02945993E-12
  -2.74999999E-02  -5.58475488E-12
  -2.74500009E-02  -6.88249327E-12
  -2.74000000E-02  -7.66573437E-12
  -2.73499992E-02  -7.90037306E-12
  -2.73000002E-02  -7.79860985E-12
  -2.72499993E-02  -7.73120370E-12
  -2.72000004E-02  -8.06366172E-12
  -2.71499995E-02  -8.98774284E-12
  -2.71000005E-02  -1.04248849E-11
  -2.70499997E-02  -1.20486711E-11
  -2.70000007E-02  -1.34211539E-11
  -2.69499999E-02  -1.41857446E-11
  -2.69000009E-02  -1.42311579E-11
  -2.68500000E-02  -1.37505129E-11
  -2.67999992E-02  -1.31642596E-11
  -2.67500002E-02  -1.29363794E-11
  -2.66999993E-02  -1.33630607E-11
  -2.66500004E-02  -1.44289303E-11
  -2.65999995E-02  -1.57990010E-11
  -2.65500005E-02  -1.69555602E-11
  -2.64999997E-02  -1.74236892E-11
  -2.64500007E-02  -1.69865060E-11
  -2.63999999E-02  -1.57919910E-11
  -2.63500009E-02  -1.42985892E-11
  -2.63000000E-02  -1.30779831E-11
  -2.62499992E-02  -1.25589617E-11
  -2.62000002E-02  -1.28263520E-11
  -2.61499994E-02  -1.35683626E-11
  -2.61000004E-02  -1.42019270E-11
  -2.60499995E-02  -1.41259998E-11
  -2.60000005E-02  -1.29928160E-11
  -2.59499997E-02  -1.08748314E-11
  -2.59000007E-02  -8.24775578E-12
  -2.58499999E-02  -5.79050349E-12
  -2.58000009E-02  -4.08584668E-12
  -2.57500000E-02  -3.35368257E-12
  -2.56999992E-02  -3.33887540E-12
  -2.56500002E-02  -3.41012136E-12
  -2.55999994E-02  -2.83283705E-12
  -2.55500004E-02  -1.09896174E-12
  -2.54999995E-02   1.83334598E-12
  -2.54500005E-02   5.50166943E-12
  -2.53999997E-02   9.12724323E-12
  -2.53500007E-02   1.19518527E-11
  -2.52999999E-02   1.35767370E-11
  -2.52500009E-02   1.41505063E-11
  -2.52000000E-02   1.43160293E-11
  -2.51499992E-02   1.49320105E-11
  -2.51000002E-02   1.66873147E-11
  -2.50499994E-02   1.97785191E-11
  -2.50000004E-02   2.37984372E-11
  -2.49499995E-02   2.78931184E-11
  -2.49000005E-02   3.11255882E-11
  -2.48499997E-02   3.28893024E-11
  -2.48000007E-02   3.31865438E-11
  -2.47499999E-02   3.26418059E-11
  -2.47000009E-02   3.22354053E-11
  -2.46500000E-02   3.28681735E-11
  -2.45999992E-02   3.49477496E-11
  -2.45500002E-02   3.81835917E-11
  -2.44999994E-02   4.16897107E-11
  -2.44500004E-02   4.43587563E-11
  -2.43999995E-02   4.53477429E-11
  -2.43500005E-02   4.44603590E-11
  -2.42999997E-02   4.22504844E-11
  -2.42500007E-02   3.97916214E-11
  -2.41999999E-02   3.82054492E-11
  -2.41500009E-02   3.81541361E-11
  -2.41000000E-02   3.95236933E-11
  -2.40499992E-02   4.14468668E-11
  -2.40000002E-02   4.26658223E-11
  -2.39499994E-02   4.20823133E-11
  -2.39000004E-02   3.92538189E-11
  -2.38499995E-02   3.46111403E-11
  -2.38000005E-02   2.92912673E-11
  -2.37499997E-02   2.46489253E-11
  -2.37000007E-02   2.16564058E-11
  -2.36499999E-02   2.04578698E-11
  -2.36000009E-02   2.02827477E-11
  -2.35500000E-02   1.97677569E-11
  -2.34999992E-02   1.75550564E-11
  -2.34500002E-02   1.29061484E-11
  -2.33999994E-02   6.05654502E-12
  -2.33500004E-02  -1.85560898E-12
  -2.32999995E-02  -9.26724843E-12
  -2.32500006E-02  -1.48719145E-11
  -2.31999997E-02  -1.82051717E-11
  -2.31500007E-02  -1.98685408E-11
  -2.30999999E-02  -2.12811210E-11
  -2.30500009E-02  -2.40567150E-11
  -2.30000000E-02  -2.92750754E-11
  -2.29499992E-02  -3.69710096E-11
  -2.29000002E-02  -4.60766425E-11
  -2.28499994E-02  -5.48554327E-11
  -2.28000004E-02  -6.16474025E-11
  -2.27499995E-02  -6.56003932E-11
  -2.27000006E-02  -6.70594066E-11
  -2.26499997E-02  -6.74302697E-11
  -2.26000007E-02  -6.85644111E-11
  -2.25499999E-02  -7.19272558E-11
  -2.25000009E-02  -7.79172005E-11
  -2.24500000E-02  -8.56443041E-11
  -2.23999992E-02  -9.32804528E-11
  -2.23500002E-02  -9.88398738E-11
  -2.22999994E-02  -1.01051875E-10
  -2.22500004E-02  -9.99376762E-11
  -2.21999995E-02  -9.68248814E-11
  -2.21500006E-02  -9.37781588E-11
  -2.20999997E-02  -9.26854010E-11
  -2.20500007E-02  -9.43992037E-11
  -2.19999999E-02  -9.83195123E-11
  -2.19500009E-02  -1.02615749E-10
  -2.19000001E-02  -1.05005914E-10
  -2.18499992E-02  -1.03758516E-10
  -2.18000002E-02  -9.84748949E-11
  -2.17499994E-02  -9.02964509E-11
  -2.17000004E-02  -8.14292869E-11
  -2.16499995E-02  -7.41818412E-11
  -2.16000006E-02  -6.99336700E-11
  -2.15499997E-02  -6.84952650E-11
  -2.15000007E-02  -6.81551898E-11
  -2.14499999E-02  -6.64109462E-11
  -2.14000009E-02  -6.10737572E-11
  -2.13500001E-02  -5.12623589E-11
  -2.12999992E-02  -3.78386836E-11
  -2.12500002E-02  -2.30764921E-11
  -2.11999994E-02  -9.69223920E-12
  -2.11500004E-02   3.44046948E-13
  -2.10999995E-02   6.69173094E-12
  -2.10500006E-02   1.08141256E-11
  -2.09999997E-02   1.53495584E-11
  -2.09500007E-02   2.29409408E-11
  -2.08999999E-02   3.50342186E-11
  -2.08500009E-02   5.11822598E-11
  -2.08000001E-02   6.91773860E-11
  -2.07499992E-02   8.59726873E-11
  -2.07000002E-02   9.89987189E-11
  -2.06499994E-02   1.07296151E-10
  -2.06000004E-02   1.11953433E-10
  -2.05499995E-02   1.15638055E-10
  -2.05000006E-02   1.21409841E-10
  -2.04499997E-02   1.31330738E-10
  -2.04000007E-02   1.45487997E-10
  -2.03499999E-02   1.61877275E-10
  -2.03000009E-02   1.77217713E-10
  -2.02500001E-02   1.88356150E-10
  -2.01999992E-02   1.93646363E-10
  -2.01500002E-02   1.93687039E-10
  -2.00999994E-02   1.91074698E-10
  -2.00500004E-02   1.89260385E-10
  -1.99999996E-02   1.91002117E-10
  -1.99500006E-02   1.97095479E-10
  -1.98999997E-02   2.05955836E-10
  -1.98500007E-02   2.14257057E-10
  -1.97999999E-02   2.18363785E-10
  -1.97500009E-02   2.15934159E-10
  -1.97000001E-02   2.06980474E-10
  -1.96499992E-02   1.93902602E-10
  -1.96000002E-02   1.80457566E-10
  -1.95499994E-02   1.70104097E-10
  -1.95000004E-02   1.64448649E-10
  -1.94499996E-02   1.62489411E-10
  -1.94000006E-02   1.61012662E-10
  -1.93499997E-02   1.55987723E-10
  -1.93000007E-02   1.44358123E-10
  -1.92499999E-02   1.25437244E-10
  -1.92000009E-02   1.01277431E-10
  -1.91500001E-02   7.58279620E-11
  -1.90999992E-02   5.32344585E-11
  -1.90500002E-02   3.60226050E-11
  -1.89999994E-02   2.39747441E-11
  -1.89500004E-02   1.42142600E-11
  -1.88999996E-02   2.48243440E-12
  -1.88500006E-02  -1.49400717E-11
  -1.87999997E-02  -3.95134619E-11
  -1.87500007E-02  -6.96929528E-11
  -1.86999999E-02  -1.01507781E-10
  -1.86500009E-02  -1.30231631E-10
  -1.86000001E-02  -1.52418564E-10
  -1.85499992E-02  -1.67402550E-10
  -1.85000002E-02  -1.77581602E-10
  -1.84499994E-02  -1.87338339E-10
  -1.84000004E-02  -2.01054215E-10
  -1.83499996E-02  -2.21088384E-10
  -1.83000006E-02  -2.46622389E-10
  -1.82499997E-02  -2.73900846E-10
  -1.82000007E-02  -2.97785963E-10
  -1.81499999E-02  -3.13953558E-10
  -1.81000009E-02  -3.20762916E-10
  -1.80500001E-02  -3.19961113E-10
  -1.79999992E-02  -3.15889231E-10
  -1.79500002E-02  -3.13519877E-10
  -1.78999994E-02  -3.16184551E-10
  -1.78500004E-02  -3.23999466E-10
  -1.77999996E-02  -3.33704092E-10
  -1.77500006E-02  -3.40007300E-10
  -1.76999997E-02  -3.37865902E-10
  -1.76500008E-02  -3.24692939E-10
  -1.75999999E-02  -3.01512232E-10
  -1.75500009E-02  -2.72526862E-10
  -1.75000001E-02  -2.43270765E-10
  -1.74499992E-02  -2.18147320E-10
  -1.74000002E-02  -1.98440889E-10
  -1.73499994E-02  -1.81697574E-10
  -1.73000004E-02  -1.62767855E-10
  -1.72499996E-02  -1.36073708E-10
  -1.72000006E-02  -9.81033657E-11
  -1.71499997E-02  -4.90288227E-11
  -1.71000008E-02   7.28865145E-12
  -1.70499999E-02   6.49284584E-11
  -1.70000009E-02   1.18471566E-10
  -1.69500001E-02   1.65363223E-10
  -1.68999992E-02   2.07021719E-10
  -1.68500002E-02   2.48180226E-10
  -1.67999994E-02   2.94733904E-10
  -1.67500004E-02   3.51029122E-10
  -1.66999996E-02   4.17795548E-10
  -1.66500006E-02   4.91650609E-10
  -1.65999997E-02   5.66418079E-10
  -1.65500008E-02   6.35694386E-10
  -1.64999999E-02   6.95536739E-10
  -1.64500009E-02   7.46080475E-10
  -1.64000001E-02   7.91348265E-10
  -1.63499992E-02   8.37317493E-10
  -1.63000003E-02   8.89090190E-10
  -1.62499994E-02   9.48407353E-10
  -1.62000004E-02   1.01262365E-09
  -1.61499996E-02   1.07561626E-09
  -1.61000006E-02   1.13024101E-09
  -1.60499997E-02   1.17126453E-09
  -1.60000008E-02   1.19746901E-09
  -1.59499999E-02   1.21198562E-09
  -1.59000009E-02   1.22068855E-09
  -1.58500001E-02   1.22934696E-09
  -1.57999992E-02   1.24078292E-09
  -1.57500003E-02   1.25330879E-09
  -1.56999994E-02   1.26114386E-09
  -1.56500004E-02   1.25665423E-09
  -1.55999996E-02   1.23343102E-09
  -1.55499997E-02   1.18885546E-09
  -1.54999997E-02   1.12500009E-09
  -1.54499998E-02   1.04745479E-09
  -1.53999999E-02   9.62578905E-10
  -1.53500000E-02   8.74391393E-10
  -1.53000001E-02   7.82473530E-10
  -1.52500002E-02   6.81831647E-10
  -1.52000003E-02   5.64795544E-10
  -1.51500003E-02   4.24127788E-10
  -1.51000004E-02   2.55966859E-10
  -1.50499996E-02   6.13066403E-11
  -1.49999997E-02  -1.54670499E-10
  -1.49499997E-02  -3.85119797E-10
  -1.48999998E-02  -6.24818419E-10
  -1.48499999E-02  -8.72746653E-10
  -1.48000000E-02  -1.13281473E-09
  -1.47500001E-02  -1.41240508E-09
  -1.47000002E-02  -1.71935299E-09
  -1.46500003E-02  -2.05869211E-09
  -1.46000003E-02  -2.43061526E-09
  -1.45500004E-02  -2.83056067E-09
  -1.44999996E-02  -3.25139626E-09
  -1.44499997E-02  -3.68674913E-09
  -1.43999998E-02  -4.13401535E-09
  -1.43499998E-02  -4.59569405E-09
  -1.42999999E-02  -5.07846210E-09
  -1.42500000E-02  -5.59036906E-09
  -1.42000001E-02  -6.13740259E-09
  -1.41500002E-02  -6.72093714E-09
  -1.41000003E-02  -7.33719085E-09
  -1.40500003E-02  -7.97898281E-09
  -1.40000004E-02  -8.63897931E-09
  -1.39499996E-02  -9.31302768E-09
  -1.38999997E-02  -1.00020987E-08
  -1.38499998E-02  -1.07119433E-08
  -1.37999998E-02  -1.14506431E-08
  -1.37499999E-02  -1.22250876E-08
  -1.37000000E-02  -1.30379769E-08
  -1.36500001E-02  -1.38866492E-08
  -1.36000002E-02  -1.47642876E-08
  -1.35500003E-02  -1.56629518E-08
  -1.35000004E-02  -1.65771485E-08
  -1.34500004E-02  -1.75062880E-08
  -1.33999996E-02  -1.84550082E-08
  -1.33499997E-02  -1.94311571E-08
  -1.32999998E-02  -2.04423660E-08
  -1.32499998E-02  -2.14926814E-08
  -1.31999999E-02  -2.25808030E-08
  -1.31500000E-02  -2.37006716E-08
  -1.31000001E-02  -2.48441712E-08
  -1.30500002E-02  -2.60047983E-08
  -1.30000003E-02  -2.71805867E-08
  -1.29500004E-02  -2.83750765E-08
  -1.29000004E-02  -2.95958369E-08
  -1.28499996E-02  -3.08512362E-08
  -1.27999997E-02  -3.21468399E-08
  -1.27499998E-02  -3.34830510E-08
  -1.26999998E-02  -3.48550770E-08
  -1.26499999E-02  -3.62551766E-08
  -1.26000000E-02  -3.76762692E-08
  -1.25500001E-02  -3.91152390E-08
  -1.25000002E-02  -4.05745304E-08
  -1.24500003E-02  -4.20612700E-08
  -1.24000004E-02  -4.35843965E-08
  -1.23500004E-02  -4.51509052E-08
  -1.22999996E-02  -4.67630556E-08
  -1.22499997E-02  -4.84176290E-08
  -1.21999998E-02  -5.01076656E-08
  -1.21499998E-02  -5.18259036E-08
  -1.20999999E-02  -5.35683178E-08
  -1.20500000E-02  -5.53363186E-08
  -1.20000001E-02  -5.71365568E-08
  -1.19500002E-02  -5.89784079E-08
  -1.19000003E-02  -6.08703274E-08
  -1.18500004E-02  -6.28166390E-08
  -1.18000004E-02  -6.48161205E-08
  -1.17499996E-02  -6.68631728E-08
  -1.16999997E-02  -6.89508894E-08
  -1.16499998E-02  -7.10747301E-08
  -1.15999999E-02  -7.32352490E-08
  -1.15499999E-02  -7.54384928E-08
  -1.15000000E-02  -7.76940539E-08
  -1.14500001E-02  -8.00115671E-08
  -1.14000002E-02  -8.23972499E-08
  -1.13500003E-02  -8.48519122E-08
  -1.13000004E-02  -8.73714541E-08
  -1.12500004E-02  -8.99495660E-08
  -1.11999996E-02  -9.25813737E-08
  -1.11499997E-02  -9.52665715E-08
  -1.10999998E-02  -9.80105170E-08
  -1.10499999E-02  -1.00822824E-07
  -1.09999999E-02  -1.03714179E-07
  -1.09500000E-02  -1.06692639E-07
  -1.09000001E-02  -1.09761302E-07
  -1.08500002E-02  -1.12917959E-07
  -1.08000003E-02  -1.16157331E-07
  -1.07500004E-02  -1.19474606E-07
  -1.07000005E-02  -1.22868784E-07
  -1.06499996E-02  -1.26344318E-07
  -1.05999997E-02  -1.29910475E-07
  -1.05499998E-02  -1.33578439E-07
  -1.04999999E-02  -1.37357745E-07
  -1.04499999E-02  -1.41253352E-07
  -1.04000000E-02  -1.45264934E-07
  -1.03500001E-02  -1.49388342E-07
  -1.03000002E-02  -1.53618913E-07
  -1.02500003E-02  -1.57955071E-07
  -1.02000004E-02  -1.62400383E-07
  -1.01500005E-02  -1.66963602E-07
  -1.00999996E-02  -1.71656254E-07
  -1.00499997E-02  -1.76489124E-07
  -9.99999978E-03  -1.81469190E-07
  -9.94999986E-03  -1.86598015E-07
  -9.89999995E-03  -1.91872985E-07
  -9.85000003E-03  -1.97290078E-07
  -9.80000012E-03  -2.02847346E-07
  -9.75000020E-03  -2.08547689E-07
  -9.70000029E-03  -2.14399194E-07
  -9.65000037E-03  -2.20413483E-07
  -9.60000046E-03  -2.26602424E-07
  -9.54999961E-03  -2.32974713E-07
  -9.49999969E-03  -2.39534046E-07
  -9.44999978E-03  -2.46279455E-07
  -9.39999986E-03  -2.53207759E-07
  -9.34999995E-03  -2.60316966E-07
  -9.30000003E-03  -2.67609209E-07
  -9.25000012E-03  -2.75091935E-07
  -9.20000020E-03  -2.82776568E-07
  -9.15000029E-03  -2.90675786E-07
  -9.10000037E-03  -2.98799932E-07
  -9.05000046E-03  -3.07154949E-07
  -8.99999961E-03  -3.15741829E-07
  -8.94999970E-03  -3.24558869E-07
  -8.89999978E-03  -3.33604646E-07
  -8.84999987E-03  -3.42881208E-07
  -8.79999995E-03  -3.52395688E-07
  -8.75000004E-03  -3.62159625E-07
  -8.70000012E-03  -3.72186520E-07
  -8.65000021E-03  -3.82488565E-07
  -8.60000029E-03  -3.93073890E-07
  -8.55000038E-03  -4.03945791E-07
  -8.50000046E-03  -4.15104296E-07
  -8.44999962E-03  -4.26548922E-07
  -8.39999970E-03  -4.38282115E-07
  -8.34999979E-03  -4.50310722E-07
  -8.29999987E-03  -4.62646426E-07
  -8.24999996E-03  -4.75303494E-07
  -8.20000004E-03  -4.88295768E-07
  -8.15000013E-03  -5.01633849E-07
  -8.10000021E-03  -5.15323677E-07
  -8.05000030E-03  -5.29367640E-07
  -8.00000038E-03  -5.43766930E-07
  -7.95000046E-03  -5.58524562E-07
  -7.89999962E-03  -5.73647753E-07
  -7.84999970E-03  -5.89148783E-07
  -7.79999979E-03  -6.05042828E-07
  -7.74999987E-03  -6.21345578E-07
  -7.69999996E-03  -6.38070048E-07
  -7.65000004E-03  -6.55225335E-07
  -7.60000013E-03  -6.72816441E-07
  -7.55000021E-03  -6.90846548E-07
  -7.49999983E-03  -7.09320091E-07
  -7.44999992E-03  -7.28245141E-07
  -7.40000000E-03  -7.47634260E-07
  -7.35000009E-03  -7.67503593E-07
  -7.30000017E-03  -7.87870533E-07
  -7.24999979E-03  -8.08750940E-07
  -7.19999988E-03  -8.30156466E-07
  -7.14999996E-03  -8.52095525E-07
  -7.10000005E-03  -8.74573630E-07
  -7.05000013E-03  -8.97597204E-07
  -7.00000022E-03  -9.21175626E-07
  -6.94999984E-03  -9.45322313E-07
  -6.89999992E-03  -9.70054657E-07
  -6.85000001E-03  -9.95391815E-07
  -6.80000009E-03  -1.02135198E-06
  -6.75000018E-03  -1.04795026E-06
  -6.69999979E-03  -1.07519827E-06
  -6.64999988E-03  -1.10310452E-06
  -6.59999996E-03  -1.13167721E-06
  -6.55000005E-03  -1.16092758E-06
  -6.50000013E-03  -1.19087008E-06
  -6.45000022E-03  -1.22152358E-06
  -6.39999984E-03  -1.25290876E-06
  -6.34999992E-03  -1.28504644E-06
  -6.30000001E-03  -1.31795503E-06
  -6.25000009E-03  -1.35164942E-06
  -6.20000018E-03  -1.38614166E-06
  -6.14999980E-03  -1.42144290E-06
  -6.09999988E-03  -1.45756553E-06
  -6.04999997E-03  -1.49452558E-06
  -6.00000005E-03  -1.53234305E-06
  -5.95000014E-03  -1.57104103E-06
  -5.90000022E-03  -1.61064224E-06
  -5.84999984E-03  -1.65116853E-06
  -5.79999993E-03  -1.69263808E-06
  -5.75000001E-03  -1.73506646E-06
  -5.70000010E-03  -1.77846721E-06
  -5.65000018E-03  -1.82285544E-06
  -5.59999980E-03  -1.86824889E-06
  -5.54999989E-03  -1.91466893E-06
  -5.49999997E-03  -1.96214023E-06
  -5.45000006E-03  -2.01068769E-06
  -5.40000014E-03  -2.06033701E-06
  -5.35000023E-03  -2.11110955E-06
  -5.29999984E-03  -2.16302465E-06
  -5.24999993E-03  -2.21609935E-06
  -5.20000001E-03  -2.27035162E-06
  -5.15000010E-03  -2.32580101E-06
  -5.10000018E-03  -2.38247048E-06
  -5.04999980E-03  -2.44038711E-06
  -4.99999989E-03  -2.49957884E-06
  -4.94999997E-03  -2.56007365E-06
  -4.90000006E-03  -2.62189701E-06
  -4.85000014E-03  -2.68507233E-06
  -4.80000023E-03  -2.74962031E-06
  -4.74999985E-03  -2.81556117E-06
  -4.69999993E-03  -2.88291790E-06
  -4.65000002E-03  -2.95171526E-06
  -4.60000010E-03  -3.02198214E-06
  -4.55000019E-03  -3.09374946E-06
  -4.49999981E-03  -3.16704836E-06
  -4.44999989E-03  -3.24190887E-06
  -4.39999998E-03  -3.31835827E-06
  -4.35000006E-03  -3.39642224E-06
  -4.30000015E-03  -3.47612422E-06
  -4.25000023E-03  -3.55749057E-06
  -4.19999985E-03  -3.64054881E-06
  -4.14999994E-03  -3.72532986E-06
  -4.10000002E-03  -3.81186715E-06
  -4.05000011E-03  -3.90019613E-06
  -4.00000019E-03  -3.99035116E-06
  -3.94999981E-03  -4.08236610E-06
  -3.89999989E-03  -4.17626961E-06
  -3.84999998E-03  -4.27208988E-06
  -3.80000006E-03  -4.36985556E-06
  -3.74999992E-03  -4.46959803E-06
  -3.70000000E-03  -4.57134956E-06
  -3.65000009E-03  -4.67514747E-06
  -3.59999994E-03  -4.78103129E-06
  -3.55000002E-03  -4.88904016E-06
  -3.50000011E-03  -4.99921134E-06
  -3.44999996E-03  -5.11157941E-06
  -3.40000005E-03  -5.22617802E-06
  -3.34999990E-03  -5.34303990E-06
  -3.29999998E-03  -5.46219826E-06
  -3.25000007E-03  -5.58369175E-06
  -3.19999992E-03  -5.70755992E-06
  -3.15000000E-03  -5.83384553E-06
  -3.10000009E-03  -5.96259224E-06
  -3.04999994E-03  -6.09384369E-06
  -3.00000003E-03  -6.22764037E-06
  -2.95000011E-03  -6.36402137E-06
  -2.89999996E-03  -6.50302263E-06
  -2.85000005E-03  -6.64468189E-06
  -2.79999990E-03  -6.78904007E-06
  -2.74999999E-03  -6.93613947E-06
  -2.70000007E-03  -7.08602647E-06
  -2.64999992E-03  -7.23874973E-06
  -2.60000001E-03  -7.39435745E-06
  -2.55000009E-03  -7.55289648E-06
  -2.49999994E-03  -7.71441228E-06
  -2.45000003E-03  -7.87894623E-06
  -2.40000011E-03  -8.04653882E-06
  -2.34999997E-03  -8.21723370E-06
  -2.30000005E-03  -8.39107724E-06
  -2.24999990E-03  -8.56811857E-06
  -2.19999999E-03  -8.74841226E-06
  -2.15000007E-03  -8.93201013E-06
  -2.09999993E-03  -9.11896859E-06
  -2.05000001E-03  -9.30933493E-06
  -2.00000009E-03  -9.50315825E-06
  -1.94999995E-03  -9.70048313E-06
  -1.90000003E-03  -9.90135595E-06
  -1.85000000E-03  -1.01058249E-05
  -1.79999997E-03  -1.03139409E-05
  -1.75000005E-03  -1.05257614E-05
  -1.70000002E-03  -1.07413434E-05
  -1.64999999E-03  -1.09607472E-05
  -1.59999996E-03  -1.11840300E-05
  -1.55000004E-03  -1.14112454E-05
  -1.50000001E-03  -1.16424408E-05
  -1.44999998E-03  -1.18776652E-05
  -1.39999995E-03  -1.21169678E-05
  -1.35000004E-03  -1.23604004E-05
  -1.30000000E-03  -1.26080231E-05
  -1.24999997E-03  -1.28599004E-05
  -1.20000006E-03  -1.31160959E-05
  -1.15000003E-03  -1.33766735E-05
  -1.09999999E-03  -1.36416902E-05
  -1.04999996E-03  -1.39111971E-05
  -1.00000005E-03  -1.41852443E-05
  -9.50000016E-04  -1.44638825E-05
  -8.99999985E-04  -1.47471646E-05
  -8.50000011E-04  -1.50351525E-05
  -7.99999980E-04  -1.53279070E-05
  -7.50000007E-04  -1.56255028E-05
  -6.99999975E-04  -1.59280044E-05
  -6.50000002E-04  -1.62354791E-05
  -6.00000028E-04  -1.65479814E-05
  -5.49999997E-04  -1.68655606E-05
  -5.00000024E-04  -1.71882621E-05
  -4.49999992E-04  -1.75161422E-05
  -3.99999990E-04  -1.78492610E-05
  -3.49999988E-04  -1.81876840E-05
  -3.00000014E-04  -1.85314839E-05
  -2.50000012E-04  -1.88807353E-05
  -1.99999995E-04  -1.92355037E-05
  -1.50000007E-04  -1.95958437E-05
  -9.99999975E-05  -1.99618135E-05
  -4.99999987E-05  -2.03334530E-05
   0.00000000      -2.07108169E-05
   4.99999987E-05  -2.10939579E-05
   9.99999975E-05  -2.14829452E-05
   1.50000007E-04  -2.18778514E-05
   1.99999995E-04  -2.22787585E-05
   2.50000012E-04  -2.26857283E-05
   3.00000014E-04  -2.30988262E-05
   3.49999988E-04  -2.35181014E-05
   3.99999990E-04  -2.39435940E-05
   4.49999992E-04  -2.43753511E-05
   5.00000024E-04  -2.48134293E-05
   5.49999997E-04  -2.52578866E-05
   6.00000028E-04  -2.57087995E-05
   6.50000002E-04  -2.61662444E-05
   6.99999975E-04  -2.66302959E-05
   7.50000007E-04  -2.71010103E-05
   7.99999980E-04  -2.75784332E-05
   8.50000011E-04  -2.80626064E-05
   8.99999985E-04  -2.85535662E-05
   9.50000016E-04  -2.90513617E-05
   1.00000005E-03  -2.95560512E-05
   1.04999996E-03  -3.00677057E-05
   1.09999999E-03  -3.05864014E-05
   1.15000003E-03  -3.11122058E-05
   1.20000006E-03  -3.16451806E-05
   1.24999997E-03  -3.21853695E-05
   1.30000000E-03  -3.27328053E-05
   1.35000004E-03  -3.32875279E-05
   1.39999995E-03  -3.38495702E-05
   1.44999998E-03  -3.44189757E-05
   1.50000001E-03  -3.49958136E-05
   1.55000004E-03  -3.55801494E-05
   1.59999996E-03  -3.61720486E-05
   1.64999999E-03  -3.67715766E-05
   1.70000002E-03  -3.73787734E-05
   1.75000005E-03  -3.79936682E-05
   1.79999997E-03  -3.86162719E-05
   1.85000000E-03  -3.92466172E-05
   1.90000003E-03  -3.98847369E-05
   1.94999995E-03  -4.05306891E-05
   2.00000009E-03  -4.11845213E-05
   2.05000001E-03  -4.18463060E-05
   2.09999993E-03  -4.25160943E-05
   2.15000007E-03  -4.31939334E-05
   2.19999999E-03  -4.38798306E-05
   2.24999990E-03  -4.45737969E-05
   2.30000005E-03  -4.52758395E-05
   2.34999997E-03  -4.59859730E-05
   2.40000011E-03  -4.67042410E-05
   2.45000003E-03  -4.74306908E-05
   2.49999994E-03  -4.81653733E-05
   2.55000009E-03  -4.89083432E-05
   2.60000001E-03  -4.96596331E-05
   2.64999992E-03  -5.04192394E-05
   2.70000007E-03  -5.11871585E-05
   2.74999999E-03  -5.19633795E-05
   2.79999990E-03  -5.27478915E-05