  -3.99999991E-02   0.00000000    
  -3.99499983E-02   0.00000000    
  -3.99000011E-02   0.00000000    
  -3.98500003E-02   2.55255513E-20
  -3.97999994E-02   1.43433920E-19
  -3.97499986E-02   4.16848752E-19
  -3.97000015E-02   7.79178753E-19
  -3.96500006E-02   8.85875177E-19
  -3.95999998E-02   7.06584012E-20
  -3.95499989E-02  -2.49323921E-18
  -3.95000018E-02  -7.46489806E-18
  -3.94500010E-02  -1.50342773E-17
  -3.94000001E-02  -2.48733789E-17
  -3.93499993E-02  -3.64215333E-17
  -3.92999984E-02  -4.93592899E-17
  -3.92500013E-02  -6.39805873E-17
  -3.92000005E-02  -8.12141873E-17
  -3.91499996E-02  -1.02248345E-16
  -3.90999988E-02  -1.27960341E-16
  -3.90500017E-02  -1.58507208E-16
  -3.90000008E-02  -1.93393967E-16
  -3.89500000E-02  -2.32077498E-16
  -3.88999991E-02  -2.74792549E-16
  -3.88499983E-02  -3.23029408E-16
  -3.88000011E-02  -3.79179805E-16
  -3.87500003E-02  -4.45336466E-16
  -3.86999995E-02  -5.21829100E-16
  -3.86499986E-02  -6.06406081E-16
  -3.86000015E-02  -6.94744629E-16
  -3.85500006E-02  -7.82273202E-16
  -3.84999998E-02  -8.66480559E-16
  -3.84499989E-02  -9.48429461E-16
  -3.84000018E-02  -1.03237996E-15
  -3.83500010E-02  -1.12326214E-15
  -3.83000001E-02  -1.22289884E-15
  -3.82499993E-02  -1.32680437E-15
  -3.81999984E-02  -1.42347169E-15
  -3.81500013E-02  -1.49706583E-15
  -3.81000005E-02  -1.53271056E-15
  -3.80499996E-02  -1.52200777E-15
  -3.79999988E-02  -1.46599507E-15
  -3.79500017E-02  -1.37379321E-15
  -3.79000008E-02  -1.25723756E-15
  -3.78500000E-02  -1.12377979E-15
  -3.77999991E-02  -9.70944444E-16
  -3.77499983E-02  -7.85088951E-16
  -3.77000012E-02  -5.45379845E-16
  -3.76500003E-02  -2.31507578E-16
  -3.75999995E-02   1.68225362E-16
  -3.75499986E-02   6.52169630E-16
  -3.75000015E-02   1.20620647E-15
  -3.74500006E-02   1.80987647E-15
  -3.73999998E-02   2.44494070E-15
  -3.73499990E-02   3.10262663E-15
  -3.73000018E-02   3.78672347E-15
  -3.72500010E-02   4.51167102E-15
  -3.72000001E-02   5.29667278E-15
  -3.71499993E-02   6.15785880E-15
  -3.70999984E-02   7.10057598E-15
  -3.70500013E-02   8.11352277E-15
  -3.70000005E-02   9.16611368E-15
  -3.69499996E-02   1.02101767E-14
  -3.68999988E-02   1.11867802E-14
  -3.68500017E-02   1.20381347E-14
  -3.68000008E-02   1.27227881E-14
  -3.67500000E-02   1.32297466E-14
  -3.66999991E-02   1.35850498E-14
  -3.66499983E-02   1.38442453E-14
  -3.66000012E-02   1.40684329E-14
  -3.65500003E-02   1.42892578E-14
  -3.64999995E-02   1.44766062E-14
  -3.64499986E-02   1.45264253E-14
  -3.64000015E-02   1.42813617E-14
  -3.63500006E-02   1.35836336E-14
  -3.62999998E-02   1.23428294E-14
  -3.62499990E-02   1.05889198E-14
  -3.62000018E-02   8.48069123E-15
  -3.61500010E-02   6.25476064E-15
  -3.61000001E-02   4.12684277E-15
  -3.60499993E-02   2.18396307E-15
  -3.59999985E-02   3.19923338E-16
  -3.59500013E-02  -1.74405894E-15
  -3.59000005E-02  -4.34631409E-15
  -3.58499996E-02  -7.71800667E-15
  -3.57999988E-02  -1.18367569E-14
  -3.57500017E-02  -1.63785120E-14
  -3.57000008E-02  -2.08102036E-14
  -3.56500000E-02  -2.46022414E-14
  -3.55999991E-02  -2.74755973E-14
  -3.55499983E-02  -2.95656782E-14
  -3.55000012E-02  -3.14060233E-14
  -3.54500003E-02  -3.37081437E-14
  -3.53999995E-02  -3.70121753E-14
  -3.53499986E-02  -4.13606798E-14
  -3.53000015E-02  -4.61626756E-14
  -3.52500007E-02  -5.03476553E-14
  -3.51999998E-02  -5.27812521E-14
  -3.51499990E-02  -5.27796597E-14
  -3.51000018E-02  -5.04861689E-14
  -3.50500010E-02  -4.69054523E-14
  -3.50000001E-02  -4.35295077E-14
  -3.49499993E-02  -4.16790049E-14
  -3.48999985E-02  -4.18401953E-14
  -3.48500013E-02  -4.33186066E-14
  -3.48000005E-02  -4.44205762E-14
  -3.47499996E-02  -4.31453884E-14
  -3.46999988E-02  -3.81200605E-14
  -3.46500017E-02  -2.93552278E-14
  -3.46000008E-02  -1.84334800E-14
  -3.45500000E-02  -7.96739688E-15
  -3.44999991E-02  -4.98837502E-16
  -3.44499983E-02   2.69822557E-15
  -3.44000012E-02   2.34726763E-15
  -3.43500003E-02   1.02630239E-15
  -3.42999995E-02   2.12071703E-15
  -3.42499986E-02   8.27064993E-15
  -3.42000015E-02   1.99994186E-14
  -3.41500007E-02   3.51994164E-14
  -3.40999998E-02   4.98152104E-14
  -3.40499990E-02   5.95265617E-14
  -3.40000018E-02   6.17333333E-14
  -3.39500010E-02   5.69259334E-14
  -3.39000002E-02   4.87237949E-14
  -3.38499993E-02   4.24291644E-14
  -3.37999985E-02   4.26383579E-14
  -3.37500013E-02   5.09574852E-14
  -3.37000005E-02   6.49240725E-14
  -3.36499996E-02   7.87691581E-14
  -3.35999988E-02   8.58389287E-14
  -3.35500017E-02   8.16867258E-14
  -3.35000008E-02   6.64305714E-14
  -3.34500000E-02   4.51853622E-14
  -3.33999991E-02   2.61807381E-14
  -3.33499983E-02   1.72375796E-14
  -3.33000012E-02   2.21180021E-14
  -3.32500003E-02   3.84623092E-14
  -3.31999995E-02   5.84296473E-14
  -3.31499986E-02   7.19793691E-14
  -3.31000015E-02   7.14773631E-14
  -3.30500007E-02   5.55718123E-14
  -3.29999998E-02   3.04499400E-14
  -3.29499990E-02   7.66078705E-15
  -3.29000019E-02  -7.63582202E-16
  -3.28500010E-02   1.21762731E-14
  -3.28000002E-02   4.48302284E-14
  -3.27499993E-02   8.70307583E-14
  -3.26999985E-02   1.24213194E-13
  -3.26500013E-02   1.43909529E-13
  -3.26000005E-02   1.41759841E-13
  -3.25499997E-02   1.24188718E-13
  -3.24999988E-02   1.06236505E-13
  -3.24500017E-02   1.05188095E-13
  -3.24000008E-02   1.32656364E-13
  -3.23500000E-02   1.88697473E-13
  -3.22999991E-02   2.60850342E-13
  -3.22499983E-02   3.28905441E-13
  -3.22000012E-02   3.73591918E-13
  -3.21500003E-02   3.85413679E-13
  -3.20999995E-02   3.69528355E-13
  -3.20499986E-02   3.44119752E-13
  -3.20000015E-02   3.32571617E-13
  -3.19500007E-02   3.52662886E-13
  -3.18999998E-02   4.07614670E-13
  -3.18499990E-02   4.83286317E-13
  -3.18000019E-02   5.53247335E-13
  -3.17500010E-02   5.89903235E-13
  -3.17000002E-02   5.76916824E-13
  -3.16499993E-02   5.17250034E-13
  -3.15999985E-02   4.32809170E-13
  -3.15500014E-02   3.55312459E-13
  -3.15000005E-02   3.12044824E-13
  -3.14499997E-02   3.12770399E-13
  -3.13999988E-02   3.43937552E-13
  -3.13500017E-02   3.73318564E-13
  -3.13000008E-02   3.63592511E-13
  -3.12500000E-02   2.89151461E-13
  -3.11999992E-02   1.48567261E-13
  -3.11500002E-02  -3.32942258E-14
  -3.10999993E-02  -2.15106307E-13
  -3.10500003E-02  -3.57034904E-13
  -3.09999995E-02  -4.39012894E-13
  -3.09500005E-02  -4.70929448E-13
  -3.08999997E-02  -4.89566775E-13
  -3.08500007E-02  -5.42925351E-13
  -3.07999998E-02  -6.68424734E-13
  -3.07500008E-02  -8.74657605E-13
  -3.07000000E-02  -1.13528392E-12
  -3.06499992E-02  -1.39855076E-12
  -3.06000002E-02  -1.60892979E-12
  -3.05499993E-02  -1.73160932E-12
  -3.05000003E-02  -1.76876623E-12
  -3.04499995E-02  -1.75972008E-12
  -3.04000005E-02  -1.76406112E-12
  -3.03499997E-02  -1.83459541E-12
  -3.03000007E-02  -1.99199338E-12
  -3.02499998E-02  -2.21285230E-12
  -3.02000009E-02  -2.43735110E-12
  -3.01500000E-02  -2.59399663E-12
  -3.00999992E-02  -2.63101151E-12
  -3.00500002E-02  -2.54032928E-12
  -2.99999993E-02  -2.36285080E-12
  -2.99500003E-02  -2.17161445E-12
  -2.98999995E-02  -2.03948729E-12
  -2.98500005E-02  -2.00538826E-12
  -2.97999997E-02  -2.05441198E-12
  -2.97500007E-02  -2.12162666E-12
  -2.96999998E-02  -2.11896473E-12
  -2.96500009E-02  -1.97406284E-12
  -2.96000000E-02  -1.66390155E-12
  -2.95499992E-02  -1.22766825E-12
  -2.95000002E-02  -7.51998127E-13
  -2.94499993E-02  -3.34033284E-13
  -2.94000003E-02  -3.81043463E-14
  -2.93499995E-02   1.34523333E-13
  -2.93000005E-02   2.48455038E-13
  -2.92499997E-02   4.06993043E-13
  -2.92000007E-02   7.05990876E-13
  -2.91499998E-02   1.18887788E-12
  -2.91000009E-02   1.82336936E-12
  -2.90500000E-02   2.51142748E-12
  -2.89999992E-02   3.12943161E-12
  -2.89500002E-02   3.58164952E-12
  -2.88999993E-02   3.84332973E-12
  -2.88500004E-02   3.97340537E-12
  -2.87999995E-02   4.08977279E-12
  -2.87500005E-02   4.31675312E-12
  -2.86999997E-02   4.72742635E-12
  -2.86500007E-02   5.30677282E-12
  -2.85999998E-02   5.95321535E-12
  -2.85500009E-02   6.51945425E-12
  -2.85000000E-02   6.87571571E-12
  -2.84499992E-02   6.96766212E-12
  -2.84000002E-02   6.84252611E-12
  -2.83499993E-02   6.63033083E-12
  -2.83000004E-02   6.48693295E-12
  -2.82499995E-02   6.52314053E-12
  -2.82000005E-02   6.75148912E-12
  -2.81499997E-02   7.07548473E-12
  -2.81000007E-02   7.32790651E-12
  -2.80499998E-02   7.34277136E-12
  -2.80000009E-02   7.02974831E-12
  -2.79500000E-02   6.41745684E-12
  -2.78999992E-02   5.64487476E-12
  -2.78500002E-02   4.90272840E-12
  -2.77999993E-02   4.34945266E-12
  -2.77500004E-02   4.03873376E-12
  -2.76999995E-02   3.89182089E-12
  -2.76500005E-02   3.72881847E-12
  -2.75999997E-02   3.34703532E-12
  -2.75500007E-02   2.61277870E-12
  -2.74999999E-02   1.52561850E-12
  -2.74500009E-02   2.25073757E-13
  -2.74000000E-02  -1.06544667E-12
  -2.73499992E-02  -2.13445841E-12
  -2.73000002E-02  -2.87620253E-12
  -2.72499993E-02  -3.34002444E-12
  -2.72000004E-02  -3.71144608E-12
  -2.71499995E-02  -4.23098145E-12
  -2.71000005E-02  -5.08507039E-12
  -2.70499997E-02  -6.31729521E-12
  -2.70000007E-02  -7.80062473E-12
  -2.69499999E-02  -9.28535287E-12
  -2.69000009E-02  -1.05038096E-11
  -2.68500000E-02  -1.12866582E-11
  -2.67999992E-02  -1.16388279E-11
  -2.67500002E-02  -1.17394957E-11
  -2.66999993E-02  -1.18635397E-11
  -2.66500004E-02  -1.22572378E-11
  -2.65999995E-02  -1.30226290E-11
  -2.65500005E-02  -1.40629799E-11
  -2.64999997E-02  -1.51159606E-11
  -2.64500007E-02  -1.58626029E-11
  -2.63999999E-02  -1.60655031E-11
  -2.63500009E-02  -1.56750203E-11
  -2.63000000E-02  -1.48546453E-11
  -2.62499992E-02  -1.39114631E-11
  -2.62000002E-02  -1.31598968E-11
  -2.61499994E-02  -1.27778942E-11
  -2.61000004E-02  -1.27201227E-11
  -2.60499995E-02  -1.27290487E-11
  -2.60000005E-02  -1.24421723E-11
  -2.59499997E-02  -1.15501983E-11
  -2.59000007E-02  -9.93672158E-12
  -2.58499999E-02  -7.73594990E-12
  -2.58000009E-02  -5.27991236E-12
  -2.57500000E-02  -2.95553079E-12
  -2.56999992E-02  -1.03294272E-12
  -2.56500002E-02   4.58488662E-13
  -2.55999994E-02   1.74920560E-12
  -2.55500004E-02   3.23167383E-12
  -2.54999995E-02   5.28610098E-12
  -2.54500005E-02   8.10564029E-12
  -2.53999997E-02   1.15996665E-11
  -2.53500007E-02   1.54209735E-11
  -2.52999999E-02   1.91084423E-11
  -2.52500009E-02   2.22845232E-11
  -2.52000000E-02   2.48204877E-11
  -2.51499992E-02   2.68941779E-11
  -2.51000002E-02   2.89111998E-11
  -2.50499994E-02   3.13209424E-11
  -2.50000004E-02   3.44070536E-11
  -2.49499995E-02   3.81457435E-11
  -2.49000005E-02   4.21975857E-11
  -2.48499997E-02   4.60403417E-11
  -2.48000007E-02   4.91871543E-11
  -2.47499999E-02   5.13945969E-11
  -2.47000009E-02   5.27666973E-11
  -2.46500000E-02   5.37054672E-11
  -2.45999992E-02   5.47257378E-11
  -2.45500002E-02   5.62138287E-11
  -2.44999994E-02   5.82369847E-11
  -2.44500004E-02   6.04904182E-11
  -2.43999995E-02   6.24098204E-11
  -2.43500005E-02   6.34031785E-11
  -2.42999997E-02   6.31011493E-11
  -2.42500007E-02   6.15140508E-11
  -2.41999999E-02   5.90225854E-11
  -2.41500009E-02   5.62020916E-11
  -2.41000000E-02   5.35548619E-11
  -2.40499992E-02   5.12684617E-11
  -2.40000002E-02   4.91093104E-11
  -2.39499994E-02   4.65029543E-11
  -2.39000004E-02   4.27697114E-11
  -2.38499995E-02   3.74140857E-11
  -2.38000005E-02   3.03392901E-11
  -2.37499997E-02   2.18886315E-11
  -2.37000007E-02   1.26908423E-11
  -2.36499999E-02   3.37383485E-12
  -2.36000009E-02  -5.72791294E-12
  -2.35500000E-02  -1.47411701E-11
  -2.34999992E-02  -2.42184085E-11
  -2.34500002E-02  -3.49098805E-11
  -2.33999994E-02  -4.74409366E-11
  -2.33500004E-02  -6.20368062E-11
  -2.32999995E-02  -7.84197707E-11
  -2.32500006E-02  -9.59287025E-11
  -2.31999997E-02  -1.13812751E-10
  -2.31500007E-02  -1.31571379E-10
  -2.30999999E-02  -1.49189425E-10
  -2.30500009E-02  -1.67159120E-10
  -2.30000000E-02  -1.86274704E-10
  -2.29499992E-02  -2.07285994E-10
  -2.29000002E-02  -2.30563610E-10
  -2.28499994E-02  -2.55926308E-10
  -2.28000004E-02  -2.82711132E-10
  -2.27499995E-02  -3.10060866E-10
  -2.27000006E-02  -3.37304351E-10
  -2.26499997E-02  -3.64261482E-10
  -2.26000007E-02  -3.91334076E-10
  -2.25499999E-02  -4.19337787E-10
  -2.25000009E-02  -4.49144860E-10
  -2.24500000E-02  -4.81293394E-10
  -2.23999992E-02  -5.15738285E-10
  -2.23500002E-02  -5.51858503E-10
  -2.22999994E-02  -5.88721849E-10
  -2.22500004E-02  -6.25495600E-10
  -2.21999995E-02  -6.61819988E-10
  -2.21500006E-02  -6.97977620E-10
  -2.20999997E-02  -7.34778682E-10
  -2.20500007E-02  -7.73206776E-10
  -2.19999999E-02  -8.13981216E-10
  -2.19500009E-02  -8.57228177E-10
  -2.19000001E-02  -9.02412423E-10
  -2.18499992E-02  -9.48563672E-10
  -2.18000002E-02  -9.94703320E-10
  -2.17499994E-02  -1.04028330E-09
  -2.17000004E-02  -1.08544096E-09
  -2.16499995E-02  -1.13095255E-09
  -2.16000006E-02  -1.17790089E-09
  -2.15499997E-02  -1.22719945E-09
  -2.15000007E-02  -1.27918520E-09
  -2.14499999E-02  -1.33346156E-09
  -2.14000009E-02  -1.38906975E-09
  -2.13500001E-02  -1.44491419E-09
  -2.12999992E-02  -1.50025758E-09
  -2.12500002E-02  -1.55506641E-09
  -2.11999994E-02  -1.61004765E-09
  -2.11500004E-02  -1.66635561E-09
  -2.10999995E-02  -1.72509507E-09
  -2.10500006E-02  -1.78683968E-09
  -2.09999997E-02  -1.85137894E-09
  -2.09500007E-02  -1.91781591E-09
  -2.08999999E-02  -1.98497130E-09
  -2.08500009E-02  -2.05192596E-09
  -2.08000001E-02  -2.11845297E-09
  -2.07499992E-02  -2.18515028E-09
  -2.07000002E-02  -2.25320784E-09
  -2.06499994E-02  -2.32390684E-09
  -2.06000004E-02  -2.39807307E-09
  -2.05499995E-02  -2.47572607E-09
  -2.05000006E-02  -2.55608290E-09
  -2.04499997E-02  -2.63792654E-09
  -2.04000007E-02  -2.72017053E-09
  -2.03499999E-02  -2.80237833E-09
  -2.03000009E-02  -2.88499868E-09
  -2.02500001E-02  -2.96920932E-09
  -2.01999992E-02  -3.05643710E-09
  -2.01500002E-02  -3.14775583E-09
  -2.00999994E-02  -3.24343752E-09
  -2.00500004E-02  -3.34285533E-09
  -1.99999996E-02  -3.44478845E-09
  -1.99500006E-02  -3.54799590E-09
  -1.98999997E-02  -3.65181108E-09
  -1.98500007E-02  -3.75648668E-09
  -1.97999999E-02  -3.86313648E-09
  -1.97500009E-02  -3.97328748E-09
  -1.97000001E-02  -4.08825063E-09
  -1.96499992E-02  -4.20857305E-09
  -1.96000002E-02  -4.33382885E-09
  -1.95499994E-02  -4.46284165E-09
  -1.95000004E-02  -4.59424587E-09
  -1.94499996E-02  -4.72714001E-09
  -1.94000006E-02  -4.86154006E-09
  -1.93499997E-02  -4.99843411E-09
  -1.93000007E-02  -5.13939824E-09
  -1.92499999E-02  -5.28594990E-09
  -1.92000009E-02  -5.43891865E-09
  -1.91500001E-02  -5.59811575E-09
  -1.90999992E-02  -5.76245673E-09
  -1.90500002E-02  -5.93048455E-09
  -1.89999994E-02  -6.10106543E-09
  -1.89500004E-02  -6.27394714E-09
  -1.88999996E-02  -6.44993525E-09
  -1.88500006E-02  -6.63059740E-09
  -1.87999997E-02  -6.81762158E-09
  -1.87500007E-02  -7.01212288E-09
  -1.86999999E-02  -7.21419235E-09
  -1.86500009E-02  -7.42289963E-09
  -1.86000001E-02  -7.63675789E-09
  -1.85499992E-02  -7.85443088E-09
  -1.85000002E-02  -8.07539813E-09
  -1.84499994E-02  -8.30024494E-09
  -1.84000004E-02  -8.53047499E-09
  -1.83499996E-02  -8.76791439E-09
  -1.83000006E-02  -9.01395403E-09
  -1.82499997E-02  -9.26899624E-09
  -1.82000007E-02  -9.53232160E-09
  -1.81499999E-02  -9.80247528E-09
  -1.81000009E-02  -1.00779625E-08
  -1.80500001E-02  -1.03579909E-08
  -1.79999992E-02  -1.06428972E-08
  -1.79500002E-02  -1.09340812E-08
  -1.78999994E-02  -1.12334595E-08
  -1.78500004E-02  -1.15426992E-08
  -1.77999996E-02  -1.18625447E-08
  -1.77500006E-02  -1.21925599E-08
  -1.76999997E-02  -1.25313955E-08
  -1.76500008E-02  -1.28774609E-08
  -1.75999999E-02  -1.32297222E-08
  -1.75500009E-02  -1.35882541E-08
  -1.75000001E-02  -1.39543026E-08
  -1.74499992E-02  -1.43298431E-08
  -1.74000002E-02  -1.47167993E-08
  -1.73499994E-02  -1.51162780E-08
  -1.73000004E-02  -1.55281885E-08
  -1.72499996E-02  -1.59513593E-08
  -1.72000006E-02  -1.63841740E-08
  -1.71499997E-02  -1.68253909E-08
  -1.71000008E-02  -1.72748038E-08
  -1.70499999E-02  -1.77334751E-08
  -1.70000009E-02  -1.82033766E-08
  -1.69500001E-02  -1.86866451E-08
  -1.68999992E-02  -1.91847604E-08
  -1.68500002E-02  -1.96980157E-08
  -1.67999994E-02  -2.02255031E-08
  -1.67500004E-02  -2.07656576E-08
  -1.66999996E-02  -2.13170797E-08
  -1.66500006E-02  -2.18793090E-08
  -1.65999997E-02  -2.24531806E-08
  -1.65500008E-02  -2.30406076E-08
  -1.64999999E-02  -2.36439028E-08
  -1.64500009E-02  -2.42649101E-08
  -1.64000001E-02  -2.49043346E-08
  -1.63499992E-02  -2.55615991E-08
  -1.63000003E-02  -2.62352629E-08
  -1.62499994E-02  -2.69238267E-08
  -1.62000004E-02  -2.76265801E-08
  -1.61499996E-02  -2.83441075E-08
  -1.61000006E-02  -2.90782083E-08
  -1.60499997E-02  -2.98313196E-08
  -1.60000008E-02  -3.06055910E-08
  -1.59499999E-02  -3.14021769E-08
  -1.59000009E-02  -3.22208713E-08
  -1.58500001E-02  -3.30604273E-08
  -1.57999992E-02  -3.39193100E-08
  -1.57500003E-02  -3.47965958E-08
  -1.56999994E-02  -3.56925760E-08
  -1.56500004E-02  -3.66089097E-08
  -1.55999996E-02  -3.75480660E-08
  -1.55499997E-02  -3.85125034E-08
  -1.54999997E-02  -3.95037922E-08
  -1.54499998E-02  -4.05221598E-08
  -1.53999999E-02  -4.15666292E-08
  -1.53500000E-02  -4.26356763E-08
  -1.53000001E-02  -4.37281820E-08
  -1.52500002E-02  -4.48441604E-08
  -1.52000003E-02  -4.59850327E-08
  -1.51500003E-02  -4.71532431E-08
  -1.51000004E-02  -4.83514704E-08
  -1.50499996E-02  -4.95816863E-08
  -1.49999997E-02  -5.08445659E-08
  -1.49499997E-02  -5.21394519E-08
  -1.48999998E-02  -5.34649303E-08
  -1.48499999E-02  -5.48197505E-08
  -1.48000000E-02  -5.62036355E-08
  -1.47500001E-02  -5.76177328E-08
  -1.47000002E-02  -5.90643836E-08
  -1.46500003E-02  -6.05464265E-08
  -1.46000003E-02  -6.20662064E-08
  -1.45500004E-02  -6.36248529E-08
  -1.44999996E-02  -6.52220962E-08
  -1.44499997E-02  -6.68567068E-08
  -1.43999998E-02  -6.85273278E-08
  -1.43499998E-02  -7.02334262E-08
  -1.42999999E-02  -7.19758546E-08
  -1.42500000E-02  -7.37568016E-08
  -1.42000001E-02  -7.55791518E-08
  -1.41500002E-02  -7.74455842E-08
  -1.41000003E-02  -7.93577044E-08
  -1.40500003E-02  -8.13156902E-08
  -1.40000004E-02  -8.33185680E-08
  -1.39499996E-02  -8.53649667E-08
  -1.38999997E-02  -8.74541612E-08
  -1.38499998E-02  -8.95866492E-08
  -1.37999998E-02  -9.17644272E-08
  -1.37499999E-02  -9.39904297E-08
  -1.37000000E-02  -9.62676125E-08
  -1.36500001E-02  -9.85980648E-08
  -1.36000002E-02  -1.00982440E-07
  -1.35500003E-02  -1.03420106E-07
  -1.35000004E-02  -1.05909798E-07
  -1.34500004E-02  -1.08450585E-07
  -1.33999996E-02  -1.11042702E-07
  -1.33499997E-02  -1.13687882E-07
  -1.32999998E-02  -1.16389003E-07
  -1.32499998E-02  -1.19149270E-07
  -1.31999999E-02  -1.21971198E-07
  -1.31500000E-02  -1.24856015E-07
  -1.31000001E-02  -1.27803503E-07
  -1.30500002E-02  -1.30812552E-07
  -1.30000003E-02  -1.33882182E-07
  -1.29500004E-02  -1.37012336E-07
  -1.29000004E-02  -1.40204477E-07
  -1.28499996E-02  -1.43461364E-07
  -1.27999997E-02  -1.46786334E-07
  -1.27499998E-02  -1.50182387E-07
  -1.26999998E-02  -1.53651229E-07
  -1.26499999E-02  -1.57193185E-07
  -1.26000000E-02  -1.60807446E-07
  -1.25500001E-02  -1.64492974E-07
  -1.25000002E-02  -1.68249514E-07
  -1.24500003E-02  -1.72078217E-07
  -1.24000004E-02  -1.75981668E-07
  -1.23500004E-02  -1.79963351E-07
  -1.22999996E-02  -1.84026533E-07
  -1.22499997E-02  -1.88173544E-07
  -1.21999998E-02  -1.92405210E-07
  -1.21499998E-02  -1.96721018E-07
  -1.20999999E-02  -2.01120045E-07
  -1.20500000E-02  -2.05601793E-07
  -1.20000001E-02  -2.10167073E-07
  -1.19500002E-02  -2.14818215E-07
  -1.19000003E-02  -2.19558700E-07
  -1.18500004E-02  -2.24392210E-07
  -1.18000004E-02  -2.29321600E-07
  -1.17499996E-02  -2.34348292E-07
  -1.16999997E-02  -2.39472229E-07
  -1.16499998E-02  -2.44692643E-07
  -1.15999999E-02  -2.50008810E-07
  -1.15499999E-02  -2.55421298E-07
  -1.15000000E-02  -2.60932154E-07
  -1.14500001E-02  -2.66544703E-07
  -1.14000002E-02  -2.72262753E-07
  -1.13500003E-02  -2.78089601E-07
  -1.13000004E-02  -2.84027237E-07
  -1.12500004E-02  -2.90076088E-07
  -1.11999996E-02  -2.96235498E-07
  -1.11499997E-02  -3.02504787E-07
  -1.10999998E-02  -3.08884069E-07
  -1.10499999E-02  -3.15375104E-07
  -1.09999999E-02  -3.21981105E-07
  -1.09500000E-02  -3.28706136E-07
  -1.09000001E-02  -3.35553949E-07
  -1.08500002E-02  -3.42527215E-07
  -1.08000003E-02  -3.49626845E-07
  -1.07500004E-02  -3.56852524E-07
  -1.07000005E-02  -3.64203430E-07
  -1.06499996E-02  -3.71679363E-07
  -1.05999997E-02  -3.79281545E-07
  -1.05499998E-02  -3.87012960E-07
  -1.04999999E-02  -3.94877588E-07
  -1.04499999E-02  -4.02879493E-07
  -1.04000000E-02  -4.11021745E-07
  -1.03500001E-02  -4.19305962E-07
  -1.03000002E-02  -4.27732061E-07
  -1.02500003E-02  -4.36299416E-07
  -1.02000004E-02  -4.45007601E-07
  -1.01500005E-02  -4.53857581E-07
  -1.00999996E-02  -4.62851858E-07
  -1.00499997E-02  -4.71994269E-07
  -9.99999978E-03  -4.81289135E-07
  -9.94999986E-03  -4.90740092E-07
  -9.89999995E-03  -5.00349245E-07
  -9.85000003E-03  -5.10117275E-07
  -9.80000012E-03  -5.20043614E-07
  -9.75000020E-03  -5.30127522E-07
  -9.70000029E-03  -5.40369626E-07
  -9.65000037E-03  -5.50771801E-07
  -9.60000046E-03  -5.61337629E-07
  -9.54999961E-03  -5.72071656E-07
  -9.49999969E-03  -5.82977975E-07
  -9.44999978E-03  -5.94059145E-07
  -9.39999986E-03  -6.05316302E-07
  -9.34999995E-03  -6.16749105E-07
  -9.30000003E-03  -6.28356645E-07
  -9.25000012E-03  -6.40138921E-07
  -9.20000020E-03  -6.52097469E-07
  -9.15000029E-03  -6.64235415E-07
  -9.10000037E-03  -6.76557022E-07
  -9.05000046E-03  -6.89066894E-07
  -8.99999961E-03  -7.01768386E-07
  -8.94999970E-03  -7.14663145E-07
  -8.89999978E-03  -7.27751285E-07
  -8.84999987E-03  -7.41031897E-07
  -8.79999995E-03  -7.54504526E-07
  -8.75000004E-03  -7.68170196E-07
  -8.70000012E-03  -7.82031577E-07
  -8.65000021E-03  -7.96093047E-07
  -8.60000029E-03  -8.10359040E-07
  -8.55000038E-03  -8.24833421E-07
  -8.50000046E-03  -8.39517952E-07
  -8.44999962E-03  -8.54413031E-07
  -8.39999970E-03  -8.69518317E-07
  -8.34999979E-03  -8.84832730E-07
  -8.29999987E-03  -9.00356440E-07
  -8.24999996E-03  -9.16091267E-07
  -8.20000004E-03  -9.32041019E-07
  -8.15000013E-03  -9.48210186E-07
  -8.10000021E-03  -9.64602918E-07
  -8.05000030E-03  -9.81221774E-07
  -8.00000038E-03  -9.98067662E-07
  -7.95000046E-03  -1.01513979E-06
  -7.89999962E-03  -1.03243713E-06
  -7.84999970E-03  -1.04995866E-06
  -7.79999979E-03  -1.06770597E-06
  -7.74999987E-03  -1.08568190E-06
  -7.69999996E-03  -1.10389090E-06
  -7.65000004E-03  -1.12233749E-06
  -7.60000013E-03  -1.14102488E-06
  -7.55000021E-03  -1.15995431E-06
  -7.49999983E-03  -1.17912498E-06
  -7.44999992E-03  -1.19853473E-06
  -7.40000000E-03  -1.21818232E-06
  -7.35000009E-03  -1.23806785E-06
  -7.30000017E-03  -1.25819327E-06
  -7.24999979E-03  -1.27856242E-06
  -7.19999988E-03  -1.29917953E-06
  -7.14999996E-03  -1.32004777E-06
  -7.10000005E-03  -1.34116920E-06
  -7.05000013E-03  -1.36254289E-06
  -7.00000022E-03  -1.38416681E-06
  -6.94999984E-03  -1.40603822E-06
  -6.89999992E-03  -1.42815611E-06
  -6.85000001E-03  -1.45052093E-06
  -6.80000009E-03  -1.47313585E-06
  -6.75000018E-03  -1.49600487E-06
  -6.69999979E-03  -1.51913173E-06
  -6.64999988E-03  -1.54251859E-06
  -6.59999996E-03  -1.56616488E-06
  -6.55000005E-03  -1.59006800E-06
  -6.50000013E-03  -1.61422383E-06
  -6.45000022E-03  -1.63862978E-06
  -6.39999984E-03  -1.66328573E-06
  -6.34999992E-03  -1.68819270E-06
  -6.30000001E-03  -1.71335512E-06
  -6.25000009E-03  -1.73877618E-06
  -6.20000018E-03  -1.76445758E-06
  -6.14999980E-03  -1.79039887E-06
  -6.09999988E-03  -1.81659698E-06
  -6.04999997E-03  -1.84304724E-06
  -6.00000005E-03  -1.86974546E-06
  -5.95000014E-03  -1.89668935E-06
  -5.90000022E-03  -1.92387915E-06
  -5.84999984E-03  -1.95131679E-06
  -5.79999993E-03  -1.97900567E-06
  -5.75000001E-03  -2.00694808E-06
  -5.70000010E-03  -2.03514332E-06
  -5.65000018E-03  -2.06358800E-06
  -5.59999980E-03  -2.09227687E-06
  -5.54999989E-03  -2.12120403E-06
  -5.49999997E-03  -2.15036516E-06
  -5.45000006E-03  -2.17975867E-06
  -5.40000014E-03  -2.20938568E-06
  -5.35000023E-03  -2.23924803E-06
  -5.29999984E-03  -2.26934776E-06
  -5.24999993E-03  -2.29968464E-06
  -5.20000001E-03  -2.33025548E-06
  -5.15000010E-03  -2.36105302E-06
  -5.10000018E-03  -2.39207020E-06
  -5.04999980E-03  -2.42329975E-06
  -4.99999989E-03  -2.45473825E-06
  -4.94999997E-03  -2.48638480E-06
  -4.90000006E-03  -2.51824008E-06
  -4.85000014E-03  -2.55030659E-06
  -4.80000023E-03  -2.58258297E-06
  -4.74999985E-03  -2.61506489E-06
  -4.69999993E-03  -2.64774621E-06
  -4.65000002E-03  -2.68061694E-06
  -4.60000010E-03  -2.71366798E-06
  -4.55000019E-03  -2.74689296E-06
  -4.49999981E-03  -2.78028847E-06
  -4.44999989E-03  -2.81385519E-06
  -4.39999998E-03  -2.84759335E-06
  -4.35000006E-03  -2.88150227E-06
  -4.30000015E-03  -2.91557740E-06
  -4.25000023E-03  -2.94981055E-06
  -4.19999985E-03  -2.98419104E-06
  -4.14999994E-03  -3.01870682E-06
  -4.10000002E-03  -3.05334902E-06
  -4.05000011E-03  -3.08811150E-06
  -4.00000019E-03  -3.12299221E-06
  -3.94999981E-03  -3.15799093E-06
  -3.89999989E-03  -3.19310629E-06
  -3.84999998E-03  -3.22833421E-06
  -3.80000006E-03  -3.26366489E-06
  -3.74999992E-03  -3.29908630E-06
  -3.70000000E-03  -3.33458388E-06
  -3.65000009E-03  -3.37014512E-06
  -3.59999994E-03  -3.40575980E-06
  -3.55000002E-03  -3.44142450E-06
  -3.50000011E-03  -3.47713740E-06
  -3.44999996E-03  -3.51289691E-06
  -3.40000005E-03  -3.54869803E-06
  -3.34999990E-03  -3.58453144E-06
  -3.29999998E-03  -3.62038213E-06
  -3.25000007E-03  -3.65623328E-06
  -3.19999992E-03  -3.69206850E-06
  -3.15000000E-03  -3.72787395E-06
  -3.10000009E-03  -3.76364301E-06
  -3.04999994E-03  -3.79937183E-06
  -3.00000003E-03  -3.83505949E-06
  -2.95000011E-03  -3.87069895E-06
  -2.89999996E-03  -3.90627974E-06
  -2.85000005E-03  -3.94178687E-06
  -2.79999990E-03  -3.97719896E-06
  -2.74999999E-03  -4.01249690E-06
  -2.70000007E-03  -4.04766388E-06
  -2.64999992E-03  -4.08268852E-06
  -2.60000001E-03  -4.11756537E-06
  -2.55000009E-03  -4.15229078E-06
  -2.49999994E-03  -4.18685840E-06
  -2.45000003E-03  -4.22125822E-06
  -2.40000011E-03  -4.25547250E-06
  -2.34999997E-03  -4.28947760E-06
  -2.30000005E-03  -4.32324941E-06
  -2.24999990E-03  -4.35676702E-06
  -2.19999999E-03  -4.39001678E-06
  -2.15000007E-03  -4.42298960E-06
  -2.09999993E-03  -4.45568048E-06
  -2.05000001E-03  -4.48808305E-06
  -2.00000009E-03  -4.52018503E-06
  -1.94999995E-03  -4.55196687E-06
  -1.90000003E-03  -4.58340492E-06
  -1.85000000E-03  -4.61447053E-06
  -1.79999997E-03  -4.64513914E-06
  -1.75000005E-03  -4.67539166E-06
  -1.70000002E-03  -4.70521582E-06
  -1.64999999E-03  -4.73460477E-06
  -1.59999996E-03  -4.76355081E-06
  -1.55000004E-03  -4.79204209E-06
  -1.50000001E-03  -4.82005680E-06
  -1.44999998E-03  -4.84756856E-06
  -1.39999995E-03  -4.87454599E-06
  -1.35000004E-03  -4.90095908E-06
  -1.30000000E-03  -4.92678555E-06
  -1.24999997E-03  -4.95200902E-06
  -1.20000006E-03  -4.97662040E-06
  -1.15000003E-03  -5.00061060E-06
  -1.09999999E-03  -5.02396551E-06
  -1.04999996E-03  -5.04666559E-06
  -1.00000005E-03  -5.06868037E-06
  -9.50000016E-04  -5.08997573E-06
  -8.99999985E-04  -5.11051803E-06
  -8.50000011E-04  -5.13027862E-06
  -7.99999980E-04  -5.14923795E-06
  -7.50000007E-04  -5.16738419E-06
  -6.99999975E-04  -5.18470733E-06
  -6.50000002E-04  -5.20119283E-06
  -6.00000028E-04  -5.21682023E-06
  -5.49999997E-04  -5.23155632E-06
  -5.00000024E-04  -5.24536335E-06
  -4.49999992E-04  -5.25820451E-06
  -3.99999990E-04  -5.27004568E-06
  -3.49999988E-04  -5.28086457E-06
  -3.00000014E-04  -5.29064482E-06
  -2.50000012E-04  -5.29937506E-06
  -1.99999995E-04  -5.30704074E-06
  -1.50000007E-04  -5.31361820E-06
  -9.99999975E-05  -5.31907608E-06
  -4.99999987E-05  -5.32337344E-06
   0.00000000      -5.32646982E-06
   4.99999987E-05  -5.32832701E-06
   9.99999975E-05  -5.32891681E-06
   1.50000007E-04  -5.32822014E-06
   1.99999995E-04  -5.32622153E-06
   2.50000012E-04  -5.32290551E-06
   3.00000014E-04  -5.31825026E-06
   3.49999988E-04  -5.31222304E-06
   3.99999990E-04  -5.30478246E-06
   4.49999992E-04  -5.29588351E-06
   5.00000024E-04  -5.28548389E-06
   5.49999997E-04  -5.27355087E-06
   6.00000028E-04  -5.26005942E-06
   6.50000002E-04  -5.24499319E-06
   6.99999975E-04  -5.22833670E-06
   7.50000007E-04  -5.21006814E-06
   7.99999980E-04  -5.19015339E-06
   8.50000011E-04  -5.16854971E-06
   8.99999985E-04  -5.14520889E-06
   9.50000016E-04  -5.12008592E-06
   1.00000005E-03  -5.09314214E-06
   1.04999996E-03  -5.06435026E-06
   1.09999999E-03  -5.03369074E-06
   1.15000003E-03  -5.00114629E-06
   1.20000006E-03  -4.96669372E-06
   1.24999997E-03  -4.93029984E-06
   1.30000000E-03  -4.89192325E-06
   1.35000004E-03  -4.85151168E-06
   1.39999995E-03  -4.80901781E-06
   1.44999998E-03  -4.76440073E-06
   1.50000001E-03  -4.71762905E-06
   1.55000004E-03  -4.66867868E-06
   1.59999996E-03  -4.61753098E-06
   1.64999999E-03  -4.56416319E-06
   1.70000002E-03  -4.50854350E-06
   1.75000005E-03  -4.45062915E-06
   1.79999997E-03  -4.39036967E-06
   1.85000000E-03  -4.32771321E-06
   1.90000003E-03  -4.26261613E-06
   1.94999995E-03  -4.19504295E-06
   2.00000009E-03  -4.12496820E-06
   2.05000001E-03  -4.05236960E-06
   2.09999993E-03  -3.97722397E-06
   2.15000007E-03  -3.89950037E-06
   2.19999999E-03  -3.81915788E-06
   2.24999990E-03  -3.73614671E-06
   2.30000005E-03  -3.65041637E-06
   2.34999997E-03  -3.56191867E-06
   2.40000011E-03  -3.47061496E-06
   2.45000003E-03  -3.37647725E-06
   2.49999994E-03  -3.27948237E-06
   2.55000009E-03  -3.17960689E-06
   2.60000001E-03  -3.07682217E-06
   2.64999992E-03  -2.97108841E-06
   2.70000007E-03  -2.86235604E-06
   2.74999999E-03  -2.75057278E-06
   2.79999990E-03  -2.63568995E-06