  -3.99999991E-02   0.00000000    
  -3.99499983E-02   0.00000000    
  -3.99000011E-02   0.00000000    
  -3.98500003E-02  -7.85069946E-15
  -3.97999994E-02  -5.79583107E-14
  -3.97499986E-02  -2.22479465E-13
  -3.97000015E-02  -5.99251931E-13
  -3.96500006E-02  -1.29391571E-12
  -3.95999998E-02  -2.43461284E-12
  -3.95499989E-02  -4.21687121E-12
  -3.95000018E-02  -6.89986349E-12
  -3.94500010E-02  -1.06728185E-11
  -3.94000001E-02  -1.54472182E-11
  -3.93499993E-02  -2.07923453E-11
  -3.92999984E-02  -2.61964027E-11
  -3.92500013E-02  -3.15449819E-11
  -3.92000005E-02  -3.74268498E-11
  -3.91499996E-02  -4.49523092E-11
  -3.90999988E-02  -5.52008404E-11
  -3.90500017E-02  -6.87615728E-11
  -3.90000008E-02  -8.56825513E-11
  -3.89500000E-02  -1.05662319E-10
  -3.88999991E-02  -1.28103445E-10
  -3.88499983E-02  -1.52007532E-10
  -3.88000011E-02  -1.76162238E-10
  -3.87500003E-02  -1.99913419E-10
  -3.86999995E-02  -2.24027380E-10
  -3.86499986E-02  -2.50656024E-10
  -3.86000015E-02  -2.82033424E-10
  -3.85500006E-02  -3.18814836E-10
  -3.84999998E-02  -3.59502733E-10
  -3.84499989E-02  -4.01424893E-10
  -3.84000018E-02  -4.42191533E-10
  -3.83500010E-02  -4.80209261E-10
  -3.83000001E-02  -5.14120246E-10
  -3.82499993E-02  -5.42421164E-10
  -3.81999984E-02  -5.64249258E-10
  -3.81500013E-02  -5.80634041E-10
  -3.81000005E-02  -5.94508331E-10
  -3.80499996E-02  -6.08901207E-10
  -3.79999988E-02  -6.24854057E-10
  -3.79500017E-02  -6.41072417E-10
  -3.79000008E-02  -6.55358823E-10
  -3.78500000E-02  -6.65768995E-10
  -3.77999991E-02  -6.69871714E-10
  -3.77499983E-02  -6.63220145E-10
  -3.77000012E-02  -6.39811593E-10
  -3.76500003E-02  -5.95412775E-10
  -3.75999995E-02  -5.30977651E-10
  -3.75499986E-02  -4.52296506E-10
  -3.75000015E-02  -3.65231623E-10
  -3.74500006E-02  -2.70303946E-10
  -3.73999998E-02  -1.61178626E-10
  -3.73499990E-02  -2.79185546E-11
  -3.73000018E-02   1.38044867E-10
  -3.72500010E-02   3.40312029E-10
  -3.72000001E-02   5.75398396E-10
  -3.71499993E-02   8.30845337E-10
  -3.70999984E-02   1.08480125E-09
  -3.70500013E-02   1.31104227E-09
  -3.70000005E-02   1.49106349E-09
  -3.69499996E-02   1.62780511E-09
  -3.68999988E-02   1.75079051E-09
  -3.68500017E-02   1.90626848E-09
  -3.68000008E-02   2.13634799E-09
  -3.67500000E-02   2.45900766E-09
  -3.66999991E-02   2.85948709E-09
  -3.66499983E-02   3.29543304E-09
  -3.66000012E-02   3.71150377E-09
  -3.65500003E-02   4.05820444E-09
  -3.64999995E-02   4.31085434E-09
  -3.64499986E-02   4.48273685E-09
  -3.64000015E-02   4.62345096E-09
  -3.63500006E-02   4.79672435E-09
  -3.62999998E-02   5.04441644E-09
  -3.62499990E-02   5.35656097E-09
  -3.62000018E-02   5.66809888E-09
  -3.61500010E-02   5.88752469E-09
  -3.61000001E-02   5.94209881E-09
  -3.60499993E-02   5.81485038E-09
  -3.59999985E-02   5.55561552E-09
  -3.59500013E-02   5.26303978E-09
  -3.59000005E-02   5.04551423E-09
  -3.58499996E-02   4.97367081E-09
  -3.57999988E-02   5.04050934E-09
  -3.57500017E-02   5.14865217E-09
  -3.57000008E-02   5.14005283E-09
  -3.56500000E-02   4.86449325E-09
  -3.55999991E-02   4.25678559E-09
  -3.55499983E-02   3.37935746E-09
  -3.55000012E-02   2.40147435E-09
  -3.54500003E-02   1.52196455E-09
  -3.53999995E-02   8.74283368E-10
  -3.53499986E-02   4.59782018E-10
  -3.53000015E-02   1.38269951E-10
  -3.52500007E-02  -3.20919624E-10
  -3.51999998E-02  -1.14538301E-09
  -3.51499990E-02  -2.45585907E-09
  -3.51000018E-02  -4.19447632E-09
  -3.50500010E-02  -6.12509510E-09
  -3.50000001E-02  -7.92069699E-09
  -3.49499993E-02  -9.30805388E-09
  -3.48999985E-02  -1.02006146E-08
  -3.48500013E-02  -1.07475806E-08
  -3.48000005E-02  -1.12689671E-08
  -3.47499996E-02  -1.21071784E-08
  -3.46999988E-02  -1.34667157E-08
  -3.46500017E-02  -1.53144342E-08
  -3.46000008E-02  -1.73815824E-08
  -3.45500000E-02  -1.92678193E-08
  -3.44999991E-02  -2.06101447E-08
  -3.44499983E-02  -2.12513047E-08
  -3.44000012E-02  -2.13307700E-08
  -3.43500003E-02  -2.12415951E-08
  -3.42999995E-02  -2.14550866E-08
  -3.42499986E-02  -2.22884449E-08
  -3.42000015E-02  -2.37320279E-08
  -3.41500007E-02  -2.54292214E-08
  -3.40999998E-02  -2.68235656E-08
  -3.40499990E-02  -2.74031198E-08
  -3.40000018E-02  -2.69282463E-08
  -3.39500010E-02  -2.55433115E-08
  -3.39000002E-02  -2.37239934E-08
  -3.38499993E-02  -2.20760423E-08
  -3.37999985E-02  -2.10610285E-08
  -3.37500013E-02  -2.07637267E-08
  -3.37000005E-02  -2.08159037E-08
  -3.36499996E-02  -2.05343547E-08
  -3.35999988E-02  -1.92285601E-08
  -3.35500017E-02  -1.65367400E-08
  -3.35000008E-02  -1.26220421E-08
  -3.34500000E-02  -8.12564327E-09
  -3.33999991E-02  -3.89514554E-09
  -3.33499983E-02  -6.13790074E-10
  -3.33000012E-02   1.50566493E-09
  -3.32500003E-02   2.83190604E-09
  -3.31999995E-02   4.17981960E-09
  -3.31499986E-02   6.47403908E-09
  -3.31000015E-02   1.03408730E-08
  -3.30500007E-02   1.58043747E-08
  -3.29999998E-02   2.22384937E-08
  -3.29499990E-02   2.86206312E-08
  -3.29000019E-02   3.39826300E-08
  -3.28500010E-02   3.78470482E-08
  -3.28000002E-02   4.04363476E-08
  -3.27499993E-02   4.25556230E-08
  -3.26999985E-02   4.52088997E-08
  -3.26500013E-02   4.91269176E-08
  -3.26000005E-02   5.44133236E-08
  -3.25499997E-02   6.04600530E-08
  -3.24999988E-02   6.61746995E-08
  -3.24500017E-02   7.04379701E-08
  -3.24000008E-02   7.26044220E-08
  -3.23500000E-02   7.28177056E-08
  -3.22999991E-02   7.19739006E-08
  -3.22499983E-02   7.13247488E-08
  -3.22000012E-02   7.18960607E-08
  -3.21500003E-02   7.39991677E-08
  -3.20999995E-02   7.70702897E-08
  -3.20499986E-02   7.99091922E-08
  -3.20000015E-02   8.12022947E-08
  -3.19500007E-02   8.00964131E-08
  -3.18999998E-02   7.65790489E-08
  -3.18499990E-02   7.15046227E-08
  -3.18000019E-02   6.62423787E-08
  -3.17500010E-02   6.20756708E-08
  -3.17000002E-02   5.96041758E-08
  -3.16499993E-02   5.84281423E-08
  -3.15999985E-02   5.72862646E-08
  -3.15500014E-02   5.46065095E-08
  -3.15000005E-02   4.92192989E-08
  -3.14499997E-02   4.08976568E-08
  -3.13999988E-02   3.04761407E-08
  -3.13500017E-02   1.95075316E-08
  -3.13000008E-02   9.61838786E-09
  -3.12500000E-02   1.83737670E-09
  -3.11999992E-02  -3.83034715E-09
  -3.11500002E-02  -8.40583692E-09
  -3.10999993E-02  -1.34969849E-08
  -3.10500003E-02  -2.05817621E-08
  -3.09999995E-02  -3.03199990E-08
  -3.09500005E-02  -4.22175432E-08
  -3.08999997E-02  -5.48182761E-08
  -3.08500007E-02  -6.63430058E-08
  -3.07999998E-02  -7.54722151E-08
  -3.07500008E-02  -8.19086878E-08
  -3.07000000E-02  -8.64785932E-08
  -3.06499992E-02  -9.07500066E-08
  -3.06000002E-02  -9.63454880E-08
  -3.05499993E-02  -1.04230807E-07
  -3.05000003E-02  -1.14265731E-07
  -3.04499995E-02  -1.25213589E-07
  -3.04000005E-02  -1.35233662E-07
  -3.03499997E-02  -1.42668199E-07
  -3.03000007E-02  -1.46775918E-07
  -3.02499998E-02  -1.48058746E-07
  -3.02000009E-02  -1.48015076E-07
  -3.01500000E-02  -1.48436087E-07
  -3.00999992E-02  -1.50583276E-07
  -3.00500002E-02  -1.54618974E-07
  -2.99999993E-02  -1.59519658E-07
  -2.99500003E-02  -1.63492103E-07
  -2.98999995E-02  -1.64715459E-07
  -2.98500005E-02  -1.62122760E-07
  -2.97999997E-02  -1.55909106E-07
  -2.97500007E-02  -1.47523707E-07
  -2.96999998E-02  -1.39102426E-07
  -2.96500009E-02  -1.32558185E-07
  -2.96000000E-02  -1.28734015E-07
  -2.95499992E-02  -1.27018779E-07
  -2.95000002E-02  -1.25606419E-07
  -2.94499993E-02  -1.22268517E-07
  -2.94000003E-02  -1.15282461E-07
  -2.93499995E-02  -1.04130592E-07
  -2.93000005E-02  -8.97081449E-08
  -2.92499997E-02  -7.39707815E-08
  -2.92000007E-02  -5.91505653E-08
  -2.91499998E-02  -4.68258285E-08
  -2.91000009E-02  -3.72278812E-08
  -2.90500000E-02  -2.91135915E-08
  -2.89999992E-02  -2.03077750E-08
  -2.89500002E-02  -8.69208261E-09
  -2.88999993E-02   6.82212464E-09
  -2.88500004E-02   2.57882089E-08
  -2.87999995E-02   4.63992542E-08
  -2.87500005E-02   6.62341861E-08
  -2.86999997E-02   8.32410123E-08
  -2.86500007E-02   9.65658558E-08
  -2.85999998E-02   1.06913284E-07
  -2.85500009E-02   1.16281136E-07
  -2.85000000E-02   1.27131699E-07
  -2.84499992E-02   1.41305065E-07
  -2.84000002E-02   1.59147973E-07
  -2.83499993E-02   1.79293465E-07
  -2.83000004E-02   1.99229433E-07
  -2.82499995E-02   2.16399613E-07
  -2.82000005E-02   2.29318445E-07
  -2.81499997E-02   2.38191873E-07
  -2.81000007E-02   2.44796240E-07
  -2.80499998E-02   2.51698026E-07
  -2.80000009E-02   2.61135966E-07
  -2.79500000E-02   2.73999291E-07
  -2.78999992E-02   2.89321804E-07
  -2.78500002E-02   3.04552856E-07
  -2.77999993E-02   3.16566172E-07
  -2.77500004E-02   3.23016138E-07
  -2.76999995E-02   3.23426406E-07
  -2.76500005E-02   3.19466324E-07
  -2.75999997E-02   3.14251650E-07
  -2.75500007E-02   3.10996825E-07
  -2.74999999E-02   3.11634523E-07
  -2.74500009E-02   3.15989638E-07
  -2.74000000E-02   3.21830413E-07
  -2.73499992E-02   3.25763267E-07
  -2.73000002E-02   3.24630435E-07
  -2.72499993E-02   3.16877333E-07
  -2.72000004E-02   3.03310856E-07
  -2.71499995E-02   2.86852440E-07
  -2.71000005E-02   2.71317901E-07
  -2.70499997E-02   2.59739267E-07
  -2.70000007E-02   2.53003606E-07
  -2.69499999E-02   2.49461152E-07
  -2.69000009E-02   2.45668758E-07
  -2.68500000E-02   2.37900878E-07
  -2.67999992E-02   2.23758576E-07
  -2.67500002E-02   2.03197374E-07
  -2.66999993E-02   1.78574609E-07
  -2.66500004E-02   1.53698892E-07
  -2.65999995E-02   1.32233893E-07
  -2.65500005E-02   1.16104935E-07
  -2.64999997E-02   1.04621321E-07
  -2.64500007E-02   9.47748831E-08
  -2.63999999E-02   8.26352817E-08
  -2.63500009E-02   6.52073382E-08
  -2.63000000E-02   4.18647907E-08
  -2.62499992E-02   1.46813210E-08
  -2.62000002E-02  -1.24711024E-08
  -2.61499994E-02  -3.56109666E-08
  -2.61000004E-02  -5.23798498E-08
  -2.60499995E-02  -6.31019645E-08
  -2.60000005E-02  -7.07283121E-08
  -2.59499997E-02  -7.96561679E-08
  -2.59000007E-02  -9.38595122E-08
  -2.58499999E-02  -1.15103290E-07
  -2.58000009E-02  -1.42071002E-07
  -2.57500000E-02  -1.70878110E-07
  -2.56999992E-02  -1.96783006E-07
  -2.56500002E-02  -2.16307697E-07
  -2.55999994E-02  -2.28778021E-07
  -2.55500004E-02  -2.36591973E-07
  -2.54999995E-02  -2.44153654E-07
  -2.54500005E-02  -2.55979273E-07
  -2.53999997E-02  -2.74780604E-07
  -2.53500007E-02  -3.00293351E-07
  -2.52999999E-02  -3.29333602E-07
  -2.52500009E-02  -3.57125458E-07
  -2.52000000E-02  -3.79396283E-07
  -2.51499992E-02  -3.94329817E-07
  -2.51000002E-02  -4.03474672E-07
  -2.50499994E-02  -4.11151149E-07
  -2.50000004E-02  -4.22605524E-07
  -2.49499995E-02  -4.41783442E-07
  -2.49000005E-02  -4.69744094E-07
  -2.48499997E-02  -5.04360116E-07
  -2.48000007E-02  -5.41342899E-07
  -2.47499999E-02  -5.76113905E-07
  -2.47000009E-02  -6.05749335E-07
  -2.46500000E-02  -6.30223099E-07
  -2.45999992E-02  -6.52428582E-07
  -2.45500002E-02  -6.76927414E-07
  -2.44999994E-02  -7.07920947E-07
  -2.44500004E-02  -7.47351180E-07
  -2.43999995E-02  -7.94049754E-07
  -2.43500005E-02  -8.44340775E-07
  -2.42999997E-02  -8.93784829E-07
  -2.42500007E-02  -9.39203346E-07
  -2.41999999E-02  -9.80066261E-07
  -2.41500009E-02  -1.01870091E-06
  -2.41000000E-02  -1.05930189E-06
  -2.40499992E-02  -1.10618487E-06
  -2.40000002E-02  -1.16196270E-06
  -2.39499994E-02  -1.22637869E-06
  -2.39000004E-02  -1.29633213E-06
  -2.38499995E-02  -1.36716915E-06
  -2.38000005E-02  -1.43471539E-06
  -2.37499997E-02  -1.49714265E-06
  -2.37000007E-02  -1.55578732E-06
  -2.36499999E-02  -1.61452965E-06
  -2.36000009E-02  -1.67808594E-06
  -2.35500000E-02  -1.75001401E-06
  -2.34999992E-02  -1.83127077E-06
  -2.34500002E-02  -1.91984486E-06
  -2.33999994E-02  -2.01152943E-06
  -2.33500004E-02  -2.10155713E-06
  -2.32999995E-02  -2.18651348E-06
  -2.32500006E-02  -2.26577890E-06
  -2.31999997E-02  -2.34183517E-06
  -2.31500007E-02  -2.41922430E-06
  -2.30999999E-02  -2.50258381E-06
  -2.30500009E-02  -2.59466924E-06
  -2.30000000E-02  -2.69524594E-06
  -2.29499992E-02  -2.80129871E-06
  -2.29000002E-02  -2.90834760E-06
  -2.28499994E-02  -3.01225032E-06
  -2.28000004E-02  -3.11080385E-06
  -2.27499995E-02  -3.20457639E-06
  -2.27000006E-02  -3.29669365E-06
  -2.26499997E-02  -3.39157555E-06
  -2.26000007E-02  -3.49305242E-06
  -2.25499999E-02  -3.60265221E-06
  -2.25000009E-02  -3.71885767E-06
  -2.24500000E-02  -3.83773659E-06
  -2.23999992E-02  -3.95465167E-06
  -2.23500002E-02  -4.06625077E-06
  -2.22999994E-02  -4.17184219E-06
  -2.22500004E-02  -4.27363375E-06
  -2.21999995E-02  -4.37581411E-06
  -2.21500006E-02  -4.48288984E-06
  -2.20999997E-02  -4.59791363E-06
  -2.20500007E-02  -4.72119700E-06
  -2.19999999E-02  -4.85009150E-06
  -2.19500009E-02  -4.98008285E-06
  -2.19000001E-02  -5.10682048E-06
  -2.18499992E-02  -5.22819528E-06
  -2.18000002E-02  -5.34548644E-06
  -2.17499994E-02  -5.46293450E-06
  -2.17000004E-02  -5.58591137E-06
  -2.16499995E-02  -5.71868532E-06
  -2.16000006E-02  -5.86267470E-06
  -2.15499997E-02  -6.01580496E-06
  -2.15000007E-02  -6.17324258E-06
  -2.14499999E-02  -6.32937690E-06
  -2.14000009E-02  -6.48029709E-06
  -2.13500001E-02  -6.62578714E-06
  -2.12999992E-02  -6.76991885E-06
  -2.12500002E-02  -6.91972809E-06
  -2.11999994E-02  -7.08248444E-06
  -2.11500004E-02  -7.26273720E-06
  -2.10999995E-02  -7.46053956E-06
  -2.10500006E-02  -7.67164238E-06
  -2.09999997E-02  -7.88951093E-06
  -2.09500007E-02  -8.10814072E-06
  -2.08999999E-02  -8.32468140E-06
  -2.08500009E-02  -8.54091377E-06
  -2.08000001E-02  -8.76284230E-06
  -2.07499992E-02  -8.99843963E-06
  -2.07000002E-02  -9.25435234E-06
  -2.06499994E-02  -9.53310519E-06
  -2.06000004E-02  -9.83198606E-06
  -2.05499995E-02  -1.01444220E-05
  -2.05000006E-02  -1.04632327E-05
  -2.04499997E-02  -1.07840924E-05
  -2.04000007E-02  -1.11077406E-05
  -2.03499999E-02  -1.14398472E-05
  -2.03000009E-02  -1.17887630E-05
  -2.02500001E-02  -1.21622716E-05
  -2.01999992E-02  -1.25645111E-05
  -2.01500002E-02  -1.29941373E-05
  -2.00999994E-02  -1.34448501E-05
  -2.00500004E-02  -1.39082986E-05
  -1.99999996E-02  -1.43781263E-05
  -1.99500006E-02  -1.48531735E-05
  -1.98999997E-02  -1.53382243E-05
  -1.98500007E-02  -1.58420826E-05
  -1.97999999E-02  -1.63737113E-05
  -1.97500009E-02  -1.69382438E-05
  -1.97000001E-02  -1.75345358E-05
  -1.96499992E-02  -1.81556115E-05
  -1.96000002E-02  -1.87917976E-05
  -1.95499994E-02  -1.94349414E-05
  -1.95000004E-02  -2.00819650E-05
  -1.94499996E-02  -2.07364556E-05
  -1.94000006E-02  -2.14075208E-05
  -1.93499997E-02  -2.21060891E-05
  -1.93000007E-02  -2.28399385E-05
  -1.92499999E-02  -2.36099349E-05
  -1.92000009E-02  -2.44094299E-05
  -1.91500001E-02  -2.52272348E-05
  -1.90999992E-02  -2.60527577E-05
  -1.90500002E-02  -2.68804943E-05
  -1.89999994E-02  -2.77124527E-05
  -1.89500004E-02  -2.85571641E-05
  -1.88999996E-02  -2.94260753E-05
  -1.88500006E-02  -3.03289289E-05
  -1.87999997E-02  -3.12692537E-05
  -1.87500007E-02  -3.22424967E-05
  -1.86999999E-02  -3.32377422E-05
  -1.86500009E-02  -3.42423955E-05
  -1.86000001E-02  -3.52478091E-05
  -1.85499992E-02  -3.62533938E-05
  -1.85000002E-02  -3.72665381E-05
  -1.84499994E-02  -3.82987782E-05
  -1.84000004E-02  -3.93604132E-05
  -1.83499996E-02  -4.04562779E-05
  -1.83000006E-02  -4.15838767E-05
  -1.82499997E-02  -4.27341329E-05
  -1.82000007E-02  -4.38956667E-05
  -1.81499999E-02  -4.50600674E-05
  -1.81000009E-02  -4.62257485E-05
  -1.80500001E-02  -4.73991749E-05
  -1.79999992E-02  -4.85924320E-05
  -1.79500002E-02  -4.98175214E-05
  -1.78999994E-02  -5.10804166E-05
  -1.78500004E-02  -5.23783820E-05
  -1.77999996E-02  -5.37012857E-05
  -1.77500006E-02  -5.50363329E-05
  -1.76999997E-02  -5.63736903E-05
  -1.76500008E-02  -5.77107858E-05
  -1.75999999E-02  -5.90535019E-05
  -1.75500009E-02  -6.04144589E-05
  -1.75000001E-02  -6.18081613E-05
  -1.74499992E-02  -6.32443262E-05
  -1.74000002E-02  -6.47234265E-05
  -1.73499994E-02  -6.62370585E-05
  -1.73000004E-02  -6.77724965E-05
  -1.72499996E-02  -6.93187976E-05
  -1.72000006E-02  -7.08717635E-05
  -1.71499997E-02  -7.24363417E-05
  -1.71000008E-02  -7.40252217E-05
  -1.70499999E-02  -7.56538066E-05
  -1.70000009E-02  -7.73337815E-05
  -1.69500001E-02  -7.90685517E-05
  -1.68999992E-02  -8.08523037E-05
  -1.68500002E-02  -8.26727992E-05
  -1.67999994E-02  -8.45174654E-05
  -1.67500004E-02  -8.63804235E-05
  -1.66999996E-02  -8.82655950E-05
  -1.66500006E-02  -9.01851090E-05
  -1.65999997E-02  -9.21548417E-05
  -1.65500008E-02  -9.41883700E-05
  -1.64999999E-02  -9.62921549E-05
  -1.64500009E-02  -9.84631988E-05
  -1.64000001E-02  -1.00691657E-04
  -1.63499992E-02  -1.02966667E-04
  -1.63000003E-02  -1.05282052E-04
  -1.62499994E-02  -1.07640786E-04
  -1.62000004E-02  -1.10054491E-04
  -1.61499996E-02  -1.12537964E-04
  -1.61000006E-02  -1.15104078E-04
  -1.60499997E-02  -1.17760050E-04
  -1.60000008E-02  -1.20504614E-04
  -1.59499999E-02  -1.23328748E-04
  -1.59000009E-02  -1.26220286E-04
  -1.58500001E-02  -1.29171734E-04
  -1.57999992E-02  -1.32185902E-04
  -1.57500003E-02  -1.35275899E-04
  -1.56999994E-02  -1.38459989E-04
  -1.56500004E-02  -1.41753946E-04
  -1.55999996E-02  -1.45165672E-04
  -1.55499997E-02  -1.48693842E-04
  -1.54999997E-02  -1.52329318E-04
  -1.54499998E-02  -1.56060472E-04
  -1.53999999E-02  -1.59878997E-04
  -1.53500000E-02  -1.63783334E-04
  -1.53000001E-02  -1.67782579E-04
  -1.52500002E-02  -1.71895794E-04
  -1.52000003E-02  -1.76141926E-04
  -1.51500003E-02  -1.80532370E-04
  -1.51000004E-02  -1.85067620E-04
  -1.50499996E-02  -1.89738639E-04
  -1.49999997E-02  -1.94533772E-04
  -1.49499997E-02  -1.99444199E-04
  -1.48999998E-02  -2.04467447E-04
  -1.48499999E-02  -2.09610196E-04
  -1.48000000E-02  -2.14886866E-04
  -1.47500001E-02  -2.20315298E-04
  -1.47000002E-02  -2.25909112E-04
  -1.46500003E-02  -2.31671613E-04
  -1.46000003E-02  -2.37596425E-04
  -1.45500004E-02  -2.43670103E-04
  -1.44999996E-02  -2.49881443E-04
  -1.44499997E-02  -2.56229920E-04
  -1.43999998E-02  -2.62724789E-04
  -1.43499998E-02  -2.69381242E-04
  -1.42999999E-02  -2.76215724E-04
  -1.42500000E-02  -2.83240573E-04
  -1.42000001E-02  -2.90460273E-04
  -1.41500002E-02  -2.97868624E-04
  -1.41000003E-02  -3.05452442E-04
  -1.40500003E-02  -3.13199678E-04
  -1.40000004E-02  -3.21106607E-04
  -1.39499996E-02  -3.29180330E-04
  -1.38999997E-02  -3.37436300E-04
  -1.38499998E-02  -3.45892418E-04
  -1.37999998E-02  -3.54564749E-04
  -1.37499999E-02  -3.63459199E-04
  -1.37000000E-02  -3.72567039E-04
  -1.36500001E-02  -3.81872640E-04
  -1.36000002E-02  -3.91363428E-04
  -1.35500003E-02  -4.01034486E-04
  -1.35000004E-02  -4.10893088E-04
  -1.34500004E-02  -4.20959055E-04
  -1.33999996E-02  -4.31252847E-04
  -1.33499997E-02  -4.41790005E-04
  -1.32999998E-02  -4.52578330E-04
  -1.32499998E-02  -4.63614007E-04
  -1.31999999E-02  -4.74883040E-04
  -1.31500000E-02  -4.86368313E-04
  -1.31000001E-02  -4.98058565E-04
  -1.30500002E-02  -5.09954290E-04
  -1.30000003E-02  -5.22070331E-04
  -1.29500004E-02  -5.34429913E-04
  -1.29000004E-02  -5.47051197E-04
  -1.28499996E-02  -5.59941807E-04
  -1.27999997E-02  -5.73100580E-04
  -1.27499998E-02  -5.86518261E-04
  -1.26999998E-02  -6.00183208E-04
  -1.26499999E-02  -6.14091812E-04
  -1.26000000E-02  -6.28247741E-04
  -1.25500001E-02  -6.42658852E-04
  -1.25000002E-02  -6.57341443E-04
  -1.24500003E-02  -6.72314898E-04
  -1.24000004E-02  -6.87588938E-04
  -1.23500004E-02  -7.03153550E-04
  -1.22999996E-02  -7.18983065E-04
  -1.22499997E-02  -7.35057576E-04
  -1.21999998E-02  -7.51379004E-04
  -1.21499998E-02  -7.67963647E-04
  -1.20999999E-02  -7.84837466E-04
  -1.20500000E-02  -8.02024617E-04
  -1.20000001E-02  -8.19547568E-04
  -1.19500002E-02  -8.37429077E-04
  -1.19000003E-02  -8.55674793E-04
  -1.18500004E-02  -8.74268182E-04
  -1.18000004E-02  -8.93176068E-04
  -1.17499996E-02  -9.12364398E-04
  -1.16999997E-02  -9.31813498E-04
  -1.16499998E-02  -9.51528957E-04
  -1.15999999E-02  -9.71528934E-04
  -1.15499999E-02  -9.91833513E-04
  -1.15000000E-02  -1.01246033E-03
  -1.14500001E-02  -1.03341579E-03
  -1.14000002E-02  -1.05470186E-03
  -1.13500003E-02  -1.07632799E-03
  -1.13000004E-02  -1.09831733E-03
  -1.12500004E-02  -1.12069014E-03
  -1.11999996E-02  -1.14346331E-03
  -1.11499997E-02  -1.16666080E-03
  -1.10999998E-02  -1.19030976E-03
  -1.10499999E-02  -1.21442124E-03
  -1.09999999E-02  -1.23896939E-03
  -1.09500000E-02  -1.26389519E-03
  -1.09000001E-02  -1.28912274E-03
  -1.08500002E-02  -1.31460885E-03
  -1.08000003E-02  -1.34035933E-03
  -1.07500004E-02  -1.36638456E-03
  -1.07000005E-02  -1.39269768E-03
  -1.06499996E-02  -1.41933828E-03
  -1.05999997E-02  -1.44637458E-03
  -1.05499998E-02  -1.47387735E-03
  -1.04999999E-02  -1.50188967E-03
  -1.04499999E-02  -1.53040746E-03
  -1.04000000E-02  -1.55940861E-03
  -1.03500001E-02  -1.58889301E-03
  -1.03000002E-02  -1.61888544E-03
  -1.02500003E-02  -1.64941442E-03
  -1.02000004E-02  -1.68046297E-03
  -1.01500005E-02  -1.71198405E-03
  -1.00999996E-02  -1.74394937E-03
  -1.00499997E-02  -1.77635078E-03
  -9.99999978E-03  -1.80917257E-03
  -9.94999986E-03  -1.84237037E-03
  -9.89999995E-03  -1.87589647E-03
  -9.85000003E-03  -1.90975936E-03
  -9.80000012E-03  -1.94403902E-03
  -9.75000020E-03  -1.97884091E-03
  -9.70000029E-03  -2.01420672E-03
  -9.65000037E-03  -2.05010967E-03
  -9.60000046E-03  -2.08653184E-03
  -9.54999961E-03  -2.12350162E-03
  -9.49999969E-03  -2.16105510E-03
  -9.44999978E-03  -2.19918368E-03
  -9.39999986E-03  -2.23783590E-03
  -9.34999995E-03  -2.27699568E-03
  -9.30000003E-03  -2.31674616E-03
  -9.25000012E-03  -2.35718396E-03
  -9.20000020E-03  -2.39834073E-03
  -9.15000029E-03  -2.44017225E-03
  -9.10000037E-03  -2.48260377E-03
  -9.05000046E-03  -2.52561690E-03
  -8.99999961E-03  -2.56924238E-03
  -8.94999970E-03  -2.61349021E-03
  -8.89999978E-03  -2.65833107E-03
  -8.84999987E-03  -2.70374212E-03
  -8.79999995E-03  -2.74973689E-03
  -8.75000004E-03  -2.79636495E-03
  -8.70000012E-03  -2.84368941E-03
  -8.65000021E-03  -2.89171329E-03
  -8.60000029E-03  -2.94036884E-03
  -8.55000038E-03  -2.98960577E-03
  -8.50000046E-03  -3.03947367E-03
  -8.44999962E-03  -3.09009105E-03
  -8.39999970E-03  -3.14154406E-03
  -8.34999979E-03  -3.19383177E-03
  -8.29999987E-03  -3.24692111E-03
  -8.24999996E-03  -3.30081186E-03
  -8.20000004E-03  -3.35555384E-03
  -8.15000013E-03  -3.41117778E-03
  -8.10000021E-03  -3.46764340E-03
  -8.05000030E-03  -3.52485827E-03
  -8.00000038E-03  -3.58281191E-03
  -7.95000046E-03  -3.64162168E-03
  -7.89999962E-03  -3.70139163E-03
  -7.84999970E-03  -3.76213831E-03
  -7.79999979E-03  -3.82381375E-03
  -7.74999987E-03  -3.88635974E-03
  -7.69999996E-03  -3.94975999E-03
  -7.65000004E-03  -4.01403895E-03
  -7.60000013E-03  -4.07920964E-03
  -7.55000021E-03  -4.14523575E-03
  -7.49999983E-03  -4.21208749E-03
  -7.44999992E-03  -4.27980395E-03
  -7.40000000E-03  -4.34847781E-03
  -7.35000009E-03  -4.41822782E-03
  -7.30000017E-03  -4.48905490E-03
  -7.24999979E-03  -4.56086174E-03
  -7.19999988E-03  -4.63360641E-03
  -7.14999996E-03  -4.70733363E-03
  -7.10000005E-03  -4.78215935E-03
  -7.05000013E-03  -4.85814549E-03
  -7.00000022E-03  -4.93524317E-03
  -6.94999984E-03  -5.01340767E-03
  -6.89999992E-03  -5.09271398E-03
  -6.85000001E-03  -5.17326267E-03
  -6.80000009E-03  -5.25506167E-03
  -6.75000018E-03  -5.33801084E-03
  -6.69999979E-03  -5.42197656E-03
  -6.64999988E-03  -5.50694391E-03
  -6.59999996E-03  -5.59303910E-03
  -6.55000005E-03  -5.68039902E-03
  -6.50000013E-03  -5.76902879E-03
  -6.45000022E-03  -5.85883623E-03
  -6.39999984E-03  -5.94973145E-03
  -6.34999992E-03  -6.04175450E-03
  -6.30000001E-03  -6.13501109E-03
  -6.25000009E-03  -6.22951007E-03
  -6.20000018E-03  -6.32514805E-03
  -6.14999980E-03  -6.42183051E-03
  -6.09999988E-03  -6.51965570E-03
  -6.04999997E-03  -6.61883969E-03
  -6.00000005E-03  -6.71951100E-03
  -5.95000014E-03  -6.82160631E-03
  -5.90000022E-03  -6.92499941E-03
  -5.84999984E-03  -7.02968426E-03
  -5.79999993E-03  -7.13573070E-03
  -5.75000001E-03  -7.24318903E-03
  -5.70000010E-03  -7.35199591E-03
  -5.65000018E-03  -7.46208616E-03
  -5.59999980E-03  -7.57353660E-03
  -5.54999989E-03  -7.68643012E-03
  -5.49999997E-03  -7.80081749E-03
  -5.45000006E-03  -7.91665260E-03
  -5.40000014E-03  -8.03381111E-03
  -5.35000023E-03  -8.15228187E-03
  -5.29999984E-03  -8.27209372E-03
  -5.24999993E-03  -8.39322619E-03
  -5.20000001E-03  -8.51568580E-03
  -5.15000010E-03  -8.63947533E-03
  -5.10000018E-03  -8.76458827E-03
  -5.04999980E-03  -8.89111590E-03
  -4.99999989E-03  -9.01913829E-03
  -4.94999997E-03  -9.14864894E-03
  -4.90000006E-03  -9.27964598E-03
  -4.85000014E-03  -9.41211171E-03
  -4.80000023E-03  -9.54598282E-03
  -4.74999985E-03  -9.68132820E-03
  -4.69999993E-03  -9.81833413E-03
  -4.65000002E-03  -9.95710678E-03
  -4.60000010E-03  -1.00975148E-02
  -4.55000019E-03  -1.02394372E-02
  -4.49999981E-03  -1.03829056E-02
  -4.44999989E-03  -1.05279824E-02
  -4.39999998E-03  -1.06746042E-02
  -4.35000006E-03  -1.08225942E-02
  -4.30000015E-03  -1.09719336E-02
  -4.25000023E-03  -1.11226719E-02
  -4.19999985E-03  -1.12749301E-02
  -4.14999994E-03  -1.14288190E-02
  -4.10000002E-03  -1.15843406E-02
  -4.05000011E-03  -1.17414324E-02
  -4.00000019E-03  -1.18999369E-02
  -3.94999981E-03  -1.20598786E-02
  -3.89999989E-03  -1.22214407E-02
  -3.84999998E-03  -1.23846903E-02
  -3.80000006E-03  -1.25495419E-02
  -3.74999992E-03  -1.27158584E-02
  -3.70000000E-03  -1.28837610E-02
  -3.65000009E-03  -1.30535355E-02
  -3.59999994E-03  -1.32251829E-02
  -3.55000002E-03  -1.33984508E-02
  -3.50000011E-03  -1.35732284E-02
  -3.44999996E-03  -1.37495827E-02
  -3.40000005E-03  -1.39275379E-02
  -3.34999990E-03  -1.41071649E-02
  -3.29999998E-03  -1.42884580E-02
  -3.25000007E-03  -1.44713679E-02
  -3.19999992E-03  -1.46558629E-02
  -3.15000000E-03  -1.48420697E-02
  -3.10000009E-03  -1.50299883E-02
  -3.04999994E-03  -1.52194379E-02
  -3.00000003E-03  -1.54104009E-02
  -2.95000011E-03  -1.56029612E-02
  -2.89999996E-03  -1.57971308E-02
  -2.85000005E-03  -1.59928538E-02
  -2.79999990E-03  -1.61902700E-02
  -2.74999999E-03  -1.63893960E-02
  -2.70000007E-03  -1.65900886E-02
  -2.64999992E-03  -1.67924482E-02
  -2.60000001E-03  -1.69965457E-02
  -2.55000009E-03  -1.72022227E-02
  -2.49999994E-03  -1.74093563E-02
  -2.45000003E-03  -1.76178515E-02
  -2.40000011E-03  -1.78280603E-02
  -2.34999997E-03  -1.80403572E-02
  -2.30000005E-03  -1.82545260E-02
  -2.24999990E-03  -1.84701979E-02
  -2.19999999E-03  -1.86873898E-02
  -2.15000007E-03  -1.89063456E-02
  -2.09999993E-03  -1.91271286E-02
  -2.05000001E-03  -1.93496570E-02
  -2.00000009E-03  -1.95735507E-02
  -1.94999995E-03  -1.97986439E-02
  -1.90000003E-03  -2.00252235E-02
  -1.85000000E-03  -2.02536322E-02
  -1.79999997E-03  -2.04838663E-02
  -1.75000005E-03  -2.07155216E-02
  -1.70000002E-03  -2.09483374E-02
  -1.64999999E-03  -2.11825017E-02
  -1.59999996E-03  -2.14183200E-02
  -1.55000004E-03  -2.16558240E-02
  -1.50000001E-03  -2.18947381E-02
  -1.44999998E-03  -2.21349560E-02
  -1.39999995E-03  -2.23768074E-02
  -1.35000004E-03  -2.26206072E-02
  -1.30000000E-03  -2.28661615E-02
  -1.24999997E-03  -2.31130011E-02
  -1.20000006E-03  -2.33610850E-02
  -1.15000003E-03  -2.36106403E-02
  -1.09999999E-03  -2.38619074E-02
  -1.04999996E-03  -2.41147503E-02
  -1.00000005E-03  -2.43686773E-02
  -9.50000016E-04  -2.46236622E-02
  -8.99999985E-04  -2.48801354E-02
  -8.50000011E-04  -2.51382627E-02
  -7.99999980E-04  -2.53978316E-02
  -7.50000007E-04  -2.56584566E-02
  -6.99999975E-04  -2.59199459E-02
  -6.50000002E-04  -2.61826217E-02
  -6.00000028E-04  -2.64467187E-02
  -5.49999997E-04  -2.67120134E-02
  -5.00000024E-04  -2.69782227E-02
  -4.49999992E-04  -2.72453912E-02
  -3.99999990E-04  -2.75139362E-02
  -3.49999988E-04  -2.77839173E-02
  -3.00000014E-04  -2.80550700E-02
  -2.50000012E-04  -2.83270683E-02
  -1.99999995E-04  -2.85996404E-02
  -1.50000007E-04  -2.88730375E-02
  -9.99999975E-05  -2.91475896E-02
  -4.99999987E-05  -2.94234995E-02
   0.00000000      -2.97004860E-02
   4.99999987E-05  -2.99781431E-02
   9.99999975E-05  -3.02562192E-02
   1.50000007E-04  -3.05347685E-02
   1.99999995E-04  -3.08142528E-02
   2.50000012E-04  -3.10949292E-02
   3.00000014E-04  -3.13764364E-02
   3.49999988E-04  -3.16579416E-02
   3.99999990E-04  -3.19393463E-02
   4.49999992E-04  -3.22210789E-02
   5.00000024E-04  -3.25036310E-02
   5.49999997E-04  -3.27870585E-02
   6.00000028E-04  -3.30708958E-02
   6.50000002E-04  -3.33542041E-02
   6.99999975E-04  -3.36367488E-02
   7.50000007E-04  -3.39197442E-02
   7.99999980E-04  -3.42038125E-02
   8.50000011E-04  -3.44883576E-02
   8.99999985E-04  -3.47721614E-02
   9.50000016E-04  -3.50547880E-02
   1.00000005E-03  -3.53369787E-02
   1.04999996E-03  -3.56197506E-02
   1.09999999E-03  -3.59030850E-02
   1.15000003E-03  -3.61859128E-02
   1.20000006E-03  -3.64672840E-02
   1.24999997E-03  -3.67473997E-02
   1.30000000E-03  -3.70273516E-02
   1.35000004E-03  -3.73076610E-02
   1.39999995E-03  -3.75872031E-02
   1.44999998E-03  -3.78644839E-02
   1.50000001E-03  -3.81395407E-02
   1.55000004E-03  -3.84139195E-02
   1.59999996E-03  -3.86884846E-02
   1.64999999E-03  -3.89621109E-02
   1.70000002E-03  -3.92332152E-02
   1.75000005E-03  -3.95013131E-02
   1.79999997E-03  -3.97675633E-02
   1.85000000E-03  -4.00332361E-02
   1.90000003E-03  -4.02979478E-02
   1.94999995E-03  -4.05598916E-02
   2.00000009E-03  -4.08181399E-02
   2.05000001E-03  -4.10734974E-02
   2.09999993E-03  -4.13276628E-02
   2.15000007E-03  -4.15811166E-02
   2.19999999E-03  -4.18322198E-02
   2.24999990E-03  -4.20790948E-02
   2.30000005E-03  -4.23213430E-02
   2.34999997E-03  -4.25609201E-02
   2.40000011E-03  -4.27994803E-02
   2.45000003E-03  -4.30356003E-02
   2.49999994E-03  -4.32664417E-02
   2.55000009E-03  -4.34911959E-02
   2.60000001E-03  -4.37122621E-02
   2.64999992E-03  -4.39317264E-02
   2.70000007E-03  -4.41484526E-02
   2.74999999E-03  -4.43596914E-02
   2.79999990E-03  -4.45637815E-02