  -3.99999991E-02   0.00000000    
  -3.99499983E-02   0.00000000    
  -3.99000011E-02   0.00000000    
  -3.98500003E-02   1.24630245E-20
  -3.97999994E-02   6.14934587E-18
  -3.97499986E-02   4.96552320E-17
  -3.97000015E-02   2.15736486E-16
  -3.96500006E-02   6.60730486E-16
  -3.95999998E-02   1.58641351E-15
  -3.95499989E-02   3.15832561E-15
  -3.95000018E-02   5.39884570E-15
  -3.94500010E-02   8.12424028E-15
  -3.94000001E-02   1.09913858E-14
  -3.93499993E-02   1.36659516E-14
  -3.92999984E-02   1.60489992E-14
  -3.92500013E-02   1.84475882E-14
  -3.92000005E-02   2.15774054E-14
  -3.91499996E-02   2.63470818E-14
  -3.90999988E-02   3.34779032E-14
  -3.90500017E-02   4.31186391E-14
  -3.90000008E-02   5.46631120E-14
  -3.89500000E-02   6.69148642E-14
  -3.88999991E-02   7.85743202E-14
  -3.88499983E-02   8.88334613E-14
  -3.88000011E-02   9.77728166E-14
  -3.87500003E-02   1.06332362E-13
  -3.86999995E-02   1.15833843E-13
  -3.86499986E-02   1.27253216E-13
  -3.86000015E-02   1.40569780E-13
  -3.85500006E-02   1.54504149E-13
  -3.84999998E-02   1.66805751E-13
  -3.84499989E-02   1.75009204E-13
  -3.84000018E-02   1.77335130E-13
  -3.83500010E-02   1.73293034E-13
  -3.83000001E-02   1.63657336E-13
  -3.82499993E-02   1.49808280E-13
  -3.81999984E-02   1.32781305E-13
  -3.81500013E-02   1.12522235E-13
  -3.81000005E-02   8.77030924E-14
  -3.80499996E-02   5.61215909E-14
  -3.79999988E-02   1.54075683E-14
  -3.79500017E-02  -3.63506663E-14
  -3.79000008E-02  -1.00354356E-13
  -3.78500000E-02  -1.77298605E-13
  -3.77999991E-02  -2.67873126E-13
  -3.77499983E-02  -3.73217760E-13
  -3.77000012E-02  -4.94975209E-13
  -3.76500003E-02  -6.34809154E-13
  -3.75999995E-02  -7.93645423E-13
  -3.75499986E-02  -9.71182878E-13
  -3.75000015E-02  -1.16613544E-12
  -3.74500006E-02  -1.37717843E-12
  -3.73999998E-02  -1.60400610E-12
  -3.73499990E-02  -1.84769170E-12
  -3.73000018E-02  -2.10988952E-12
  -3.72500010E-02  -2.39112354E-12
  -3.72000001E-02  -2.68905774E-12
  -3.71499993E-02  -2.99785804E-12
  -3.70999984E-02  -3.30941112E-12
  -3.70500013E-02  -3.61633813E-12
  -3.70000005E-02  -3.91569503E-12
  -3.69499996E-02  -4.21147709E-12
  -3.68999988E-02  -4.51405666E-12
  -3.68500017E-02  -4.83583269E-12
  -3.68000008E-02  -5.18434601E-12
  -3.67500000E-02  -5.55590036E-12
  -3.66999991E-02  -5.93318884E-12
  -3.66499983E-02  -6.28898149E-12
  -3.66000012E-02  -6.59515498E-12
  -3.65500003E-02  -6.83350512E-12
  -3.64999995E-02  -7.00336403E-12
  -3.64499986E-02  -7.12184565E-12
  -3.64000015E-02  -7.21545350E-12
  -3.63500006E-02  -7.30578445E-12
  -3.62999998E-02  -7.39545057E-12
  -3.62499990E-02  -7.46134144E-12
  -3.62000018E-02  -7.45987213E-12
  -3.61500010E-02  -7.34353550E-12
  -3.61000001E-02  -7.08216862E-12
  -3.60499993E-02  -6.67891437E-12
  -3.59999985E-02  -6.17217215E-12
  -3.59500013E-02  -5.62068014E-12
  -3.59000005E-02  -5.07680053E-12
  -3.58499996E-02  -4.55945438E-12
  -3.57999988E-02  -4.03970564E-12
  -3.57500017E-02  -3.44758076E-12
  -3.57000008E-02  -2.69961570E-12
  -3.56500000E-02  -1.73655209E-12
  -3.55999991E-02  -5.54244964E-13
  -3.55499983E-02   7.88064655E-13
  -3.55000012E-02   2.18886237E-12
  -3.54500003E-02   3.54794644E-12
  -3.53999995E-02   4.81371974E-12
  -3.53499986E-02   6.01154413E-12
  -3.53000015E-02   7.23733747E-12
  -3.52500007E-02   8.61574267E-12
  -3.51999998E-02   1.02391611E-11
  -3.51499990E-02   1.21147901E-11
  -3.51000018E-02   1.41459310E-11
  -3.50500010E-02   1.61604046E-11
  -3.50000001E-02   1.79778501E-11
  -3.49499993E-02   1.94881472E-11
  -3.48999985E-02   2.07048233E-11
  -3.48500013E-02   2.17654037E-11
  -3.48000005E-02   2.28732883E-11
  -3.47499996E-02   2.42031083E-11
  -3.46999988E-02   2.58110183E-11
  -3.46500017E-02   2.75926192E-11
  -3.46000008E-02   2.93125281E-11
  -3.45500000E-02   3.06978054E-11
  -3.44999991E-02   3.15569897E-11
  -3.44499983E-02   3.18709399E-11
  -3.44000012E-02   3.18103530E-11
  -3.43500003E-02   3.16653197E-11
  -3.42999995E-02   3.17124729E-11
  -3.42499986E-02   3.20770840E-11
  -3.42000015E-02   3.26548615E-11
  -3.41500007E-02   3.31351717E-11
  -3.40999998E-02   3.31231119E-11
  -3.40499990E-02   3.23109040E-11
  -3.40000018E-02   3.06223727E-11
  -3.39500010E-02   2.82610099E-11
  -3.39000002E-02   2.56322810E-11
  -3.38499993E-02   2.31671054E-11
  -3.37999985E-02   2.11217155E-11
  -3.37500013E-02   1.94454695E-11
  -3.37000005E-02   1.77833824E-11
  -3.36499996E-02   1.56217851E-11
  -3.35999988E-02   1.25190587E-11
  -3.35500017E-02   8.31926368E-12
  -3.35000008E-02   3.24724189E-12
  -3.34500000E-02  -2.16758642E-12
  -3.33999991E-02  -7.31492644E-12
  -3.33499983E-02  -1.17803770E-11
  -3.33000012E-02  -1.55497507E-11
  -3.32500003E-02  -1.90408141E-11
  -3.31999995E-02  -2.29357800E-11
  -3.31499986E-02  -2.78787566E-11
  -3.31000015E-02  -3.41692299E-11
  -3.30500007E-02  -4.15932670E-11
  -3.29999998E-02  -4.94794206E-11
  -3.29499990E-02  -5.69676806E-11
  -3.29000019E-02  -6.33802177E-11
  -3.28500010E-02  -6.85287035E-11
  -3.28000002E-02  -7.28125824E-11
  -3.27499993E-02  -7.70509073E-11
  -3.26999985E-02  -8.21105337E-11
  -3.26500013E-02  -8.84909507E-11
  -3.26000005E-02  -9.60551846E-11
  -3.25499997E-02  -1.04039451E-10
  -3.24999988E-02  -1.11352809E-10
  -3.24500017E-02  -1.17044777E-10
  -3.24000008E-02  -1.20734575E-10
  -3.23500000E-02  -1.22801658E-10
  -3.22999991E-02  -1.24236496E-10
  -3.22499983E-02  -1.26201730E-10
  -3.22000012E-02  -1.29490307E-10
  -3.21500003E-02  -1.34124281E-10
  -3.20999995E-02  -1.39285958E-10
  -3.20499986E-02  -1.43629622E-10
  -3.20000015E-02  -1.45849999E-10
  -3.19500007E-02  -1.45258999E-10
  -3.18999998E-02  -1.42107062E-10
  -3.18499990E-02  -1.37489631E-10
  -3.18000019E-02  -1.32862416E-10
  -3.17500010E-02  -1.29369959E-10
  -3.17000002E-02  -1.27287680E-10
  -3.16499993E-02  -1.25839492E-10
  -3.15999985E-02  -1.23492661E-10
  -3.15500014E-02  -1.18617380E-10
  -3.15000005E-02  -1.10225051E-10
  -3.14499997E-02  -9.84503312E-11
  -3.13999988E-02  -8.45440246E-11
  -3.13500017E-02  -7.03575809E-11
  -3.13000008E-02  -5.75323192E-11
  -3.12500000E-02  -4.67507769E-11
  -3.11999992E-02  -3.73949795E-11
  -3.11500002E-02  -2.77852862E-11
  -3.10999993E-02  -1.59157132E-11
  -3.10500003E-02  -3.71231203E-13
  -3.09999995E-02   1.89836237E-11
  -3.09500005E-02   4.08682116E-11
  -3.08999997E-02   6.30858144E-11
  -3.08500007E-02   8.34576297E-11
  -3.07999998E-02   1.00781723E-10
  -3.07500008E-02   1.15380698E-10
  -3.07000000E-02   1.28972291E-10
  -3.06499992E-02   1.43895812E-10
  -3.06000002E-02   1.62022271E-10
  -3.05499993E-02   1.83832699E-10
  -3.05000003E-02   2.08090573E-10
  -3.04499995E-02   2.32280251E-10
  -3.04000005E-02   2.53640886E-10
  -3.03499997E-02   2.70348105E-10
  -3.03000007E-02   2.82312923E-10
  -3.02499998E-02   2.91221408E-10
  -3.02000009E-02   2.99771125E-10
  -3.01500000E-02   3.10423603E-10
  -3.00999992E-02   3.24223648E-10
  -3.00500002E-02   3.40223766E-10
  -2.99999993E-02   3.55796281E-10
  -2.99500003E-02   3.67720160E-10
  -2.98999995E-02   3.73574977E-10
  -2.98500005E-02   3.72819164E-10
  -2.97999997E-02   3.67052888E-10
  -2.97500007E-02   3.59319074E-10
  -2.96999998E-02   3.52728735E-10
  -2.96500009E-02   3.49011264E-10
  -2.96000000E-02   3.47646772E-10
  -2.95499992E-02   3.45992124E-10
  -2.95000002E-02   3.40376644E-10
  -2.94499993E-02   3.27703142E-10
  -2.94000003E-02   3.06844689E-10
  -2.93499995E-02   2.79201023E-10
  -2.93000005E-02   2.48137316E-10
  -2.92499997E-02   2.17526733E-10
  -2.92000007E-02   1.90029353E-10
  -2.91499998E-02   1.65877756E-10
  -2.91000009E-02   1.42732201E-10
  -2.90500000E-02   1.16701648E-10
  -2.89999992E-02   8.41023085E-11
  -2.89500002E-02   4.31793767E-11
  -2.88999993E-02  -4.98779794E-12
  -2.88500004E-02  -5.68297180E-11
  -2.87999995E-02  -1.07759759E-10
  -2.87500005E-02  -1.54142143E-10
  -2.86999997E-02  -1.94880570E-10
  -2.86500007E-02  -2.31899874E-10
  -2.85999998E-02  -2.69274630E-10
  -2.85500009E-02  -3.11361020E-10
  -2.85000000E-02  -3.60747793E-10
  -2.84499992E-02  -4.16943674E-10
  -2.84000002E-02  -4.76412132E-10
  -2.83499993E-02  -5.33970479E-10
  -2.83000004E-02  -5.84958804E-10
  -2.82499995E-02  -6.27219165E-10
  -2.82000005E-02  -6.61990074E-10
  -2.81499997E-02  -6.93287872E-10
  -2.81000007E-02  -7.26018856E-10
  -2.80499998E-02  -7.63644425E-10
  -2.80000009E-02  -8.06442912E-10
  -2.79500000E-02  -8.51166027E-10
  -2.78999992E-02  -8.92279250E-10
  -2.78500002E-02  -9.24265664E-10
  -2.77999993E-02  -9.43981338E-10
  -2.77500004E-02  -9.52003476E-10
  -2.76999995E-02  -9.52340540E-10
  -2.76500005E-02  -9.50595380E-10
  -2.75999997E-02  -9.51375534E-10
  -2.75500007E-02  -9.56095203E-10
  -2.74999999E-02  -9.62170565E-10
  -2.74500009E-02  -9.63999103E-10
  -2.74000000E-02  -9.55323376E-10
  -2.73499992E-02  -9.31947630E-10
  -2.73000002E-02  -8.93593255E-10
  -2.72499993E-02  -8.44045001E-10
  -2.72000004E-02  -7.89484700E-10
  -2.71499995E-02  -7.35727201E-10
  -2.71000005E-02  -6.85577983E-10
  -2.70499997E-02  -6.37503994E-10
  -2.70000007E-02  -5.86243609E-10
  -2.69499999E-02  -5.25122945E-10
  -2.69000009E-02  -4.49071946E-10
  -2.68500000E-02  -3.57000762E-10
  -2.67999992E-02  -2.52456195E-10
  -2.67500002E-02  -1.42230297E-10
  -2.66999993E-02  -3.35071242E-11
  -2.66500004E-02   6.91997987E-11
  -2.65999995E-02   1.65948838E-10
  -2.65500005E-02   2.61235839E-10
  -2.64999997E-02   3.61847302E-10
  -2.64500007E-02   4.73628636E-10
  -2.63999999E-02   5.98599781E-10
  -2.63500009E-02   7.33718586E-10
  -2.63000000E-02   8.71879791E-10
  -2.62499992E-02   1.00473740E-09
  -2.62000002E-02   1.12611709E-09
  -2.61499994E-02   1.23449473E-09
  -2.61000004E-02   1.33341160E-09
  -2.60499995E-02   1.42960555E-09
  -2.60000005E-02   1.52965784E-09
  -2.59499997E-02   1.63663738E-09
  -2.59000007E-02   1.74824777E-09
  -2.58499999E-02   1.85733962E-09
  -2.58000009E-02   1.95459315E-09
  -2.57500000E-02   2.03220840E-09
  -2.56999992E-02   2.08696260E-09
  -2.56500002E-02   2.12125495E-09
  -2.55999994E-02   2.14163709E-09
  -2.55500004E-02   2.15545493E-09
  -2.54999995E-02   2.16708052E-09
  -2.54500005E-02   2.17542273E-09
  -2.53999997E-02   2.17385487E-09
  -2.53500007E-02   2.15262963E-09
  -2.52999999E-02   2.10273687E-09
  -2.52500009E-02   2.01949479E-09
  -2.52000000E-02   1.90425764E-09
  -2.51499992E-02   1.76344828E-09
  -2.51000002E-02   1.60530922E-09
  -2.50499994E-02   1.43579859E-09
  -2.50000004E-02   1.25545985E-09
  -2.49499995E-02   1.05868492E-09
  -2.49000005E-02   8.35733094E-10
  -2.48499997E-02   5.76640347E-10
  -2.48000007E-02   2.75289291E-10
  -2.47499999E-02  -6.81803433E-11
  -2.47000009E-02  -4.47721193E-10
  -2.46500000E-02  -8.54361970E-10
  -2.45999992E-02  -1.28051558E-09
  -2.45500002E-02  -1.72369330E-09
  -2.44999994E-02  -2.18794893E-09
  -2.44500004E-02  -2.68237699E-09
  -2.43999995E-02  -3.21730664E-09
  -2.43500005E-02  -3.79987419E-09
  -2.42999997E-02  -4.43095560E-09
  -2.42500007E-02  -5.10485654E-09
  -2.41999999E-02  -5.81192738E-09
  -2.41500009E-02  -6.54297283E-09
  -2.41000000E-02  -7.29348137E-09
  -2.40499992E-02  -8.06578360E-09
  -2.40000002E-02  -8.86815243E-09
  -2.39499994E-02  -9.71120162E-09
  -2.39000004E-02  -1.06031903E-08
  -2.38499995E-02  -1.15463150E-08
  -2.38000005E-02  -1.25356756E-08
  -2.37499997E-02  -1.35613902E-08
  -2.37000007E-02  -1.46129668E-08
  -2.36499999E-02  -1.56839519E-08
  -2.36000009E-02  -1.67748020E-08
  -2.35500000E-02  -1.78926634E-08
  -2.34999992E-02  -1.90481249E-08
  -2.34500002E-02  -2.02503827E-08
  -2.33999994E-02  -2.15030038E-08
  -2.33500004E-02  -2.28021353E-08
  -2.32999995E-02  -2.41380658E-08
  -2.32500006E-02  -2.54994088E-08
  -2.31999997E-02  -2.68780731E-08
  -2.31500007E-02  -2.82728010E-08
  -2.30999999E-02  -2.96896712E-08
  -2.30500009E-02  -3.11393187E-08
  -2.30000000E-02  -3.26320979E-08
  -2.29499992E-02  -3.41733504E-08
  -2.29000002E-02  -3.57609053E-08
  -2.28499994E-02  -3.73859521E-08
  -2.28000004E-02  -3.90369017E-08
  -2.27499995E-02  -4.07045455E-08
  -2.27000006E-02  -4.23861728E-08
  -2.26499997E-02  -4.40868142E-08
  -2.26000007E-02  -4.58170355E-08
  -2.25499999E-02  -4.75882480E-08
  -2.25000009E-02  -4.94076282E-08
  -2.24500000E-02  -5.12749772E-08
  -2.23999992E-02  -5.31828590E-08
  -2.23500002E-02  -5.51200543E-08
  -2.22999994E-02  -5.70767646E-08
  -2.22500004E-02  -5.90491922E-08
  -2.21999995E-02  -6.10415398E-08
  -2.21500006E-02  -6.30644195E-08
  -2.20999997E-02  -6.51304006E-08
  -2.20500007E-02  -6.72487559E-08
  -2.19999999E-02  -6.94216524E-08
  -2.19500009E-02  -7.16436404E-08
  -2.19000001E-02  -7.39045305E-08
  -2.18499992E-02  -7.61945529E-08
  -2.18000002E-02  -7.85092880E-08
  -2.17499994E-02  -8.08523239E-08
  -2.17000004E-02  -8.32343190E-08
  -2.16499995E-02  -8.56689226E-08
  -2.16000006E-02  -8.81673898E-08
  -2.15499997E-02  -9.07342965E-08
  -2.15000007E-02  -9.33662747E-08
  -2.14499999E-02  -9.60543574E-08
  -2.14000009E-02  -9.87889024E-08
  -2.13500001E-02  -1.01564815E-07
  -2.12999992E-02  -1.04384860E-07
  -2.12500002E-02  -1.07259346E-07
  -2.11999994E-02  -1.10202613E-07
  -2.11500004E-02  -1.13227664E-07
  -2.10999995E-02  -1.16341425E-07
  -2.10500006E-02  -1.19542875E-07
  -2.09999997E-02  -1.22824687E-07
  -2.09500007E-02  -1.26177866E-07
  -2.08999999E-02  -1.29597041E-07
  -2.08500009E-02  -1.33084285E-07
  -2.08000001E-02  -1.36649490E-07
  -2.07499992E-02  -1.40307293E-07
  -2.07000002E-02  -1.44071990E-07
  -2.06499994E-02  -1.47952420E-07
  -2.06000004E-02  -1.51949536E-07
  -2.05499995E-02  -1.56057439E-07
  -2.05000006E-02  -1.60267618E-07
  -2.04499997E-02  -1.64574246E-07
  -2.04000007E-02  -1.68978474E-07
  -2.03499999E-02  -1.73489425E-07
  -2.03000009E-02  -1.78121766E-07
  -2.02500001E-02  -1.82890716E-07
  -2.01999992E-02  -1.87806990E-07
  -2.01500002E-02  -1.92873657E-07
  -2.00999994E-02  -1.98086653E-07
  -2.00500004E-02  -2.03438518E-07
  -1.99999996E-02  -2.08923552E-07
  -1.99500006E-02  -2.14542439E-07
  -1.98999997E-02  -2.20303747E-07
  -1.98500007E-02  -2.26222113E-07
  -1.97999999E-02  -2.32313496E-07
  -1.97500009E-02  -2.38590161E-07
  -1.97000001E-02  -2.45057009E-07
  -1.96499992E-02  -2.51711697E-07
  -1.96000002E-02  -2.58547658E-07
  -1.95499994E-02  -2.65559351E-07
  -1.95000004E-02  -2.72746945E-07
  -1.94499996E-02  -2.80118371E-07
  -1.94000006E-02  -2.87688209E-07
  -1.93499997E-02  -2.95473285E-07
  -1.93000007E-02  -3.03487468E-07
  -1.92499999E-02  -3.11737978E-07
  -1.92000009E-02  -3.20224785E-07
  -1.91500001E-02  -3.28943059E-07
  -1.90999992E-02  -3.37888196E-07
  -1.90500002E-02  -3.47060649E-07
  -1.89999994E-02  -3.56468348E-07
  -1.89500004E-02  -3.66126017E-07
  -1.88999996E-02  -3.76051190E-07
  -1.88500006E-02  -3.86259359E-07
  -1.87999997E-02  -3.96759901E-07
  -1.87500007E-02  -4.07554978E-07
  -1.86999999E-02  -4.18641662E-07
  -1.86500009E-02  -4.30016598E-07
  -1.86000001E-02  -4.41680783E-07
  -1.85499992E-02  -4.53642457E-07
  -1.85000002E-02  -4.65916656E-07
  -1.84499994E-02  -4.78521883E-07
  -1.84000004E-02  -4.91475419E-07
  -1.83499996E-02  -5.04789000E-07
  -1.83000006E-02  -5.18467289E-07
  -1.82499997E-02  -5.32509887E-07
  -1.82000007E-02  -5.46915146E-07
  -1.81499999E-02  -5.61685226E-07
  -1.81000009E-02  -5.76829279E-07
  -1.80500001E-02  -5.92363051E-07
  -1.79999992E-02  -6.08306493E-07
  -1.79500002E-02  -6.24678705E-07
  -1.78999994E-02  -6.41493841E-07
  -1.78500004E-02  -6.58759291E-07
  -1.77999996E-02  -6.76476986E-07
  -1.77500006E-02  -6.94647326E-07
  -1.76999997E-02  -7.13273778E-07
  -1.76500008E-02  -7.32366402E-07
  -1.75999999E-02  -7.51941855E-07
  -1.75500009E-02  -7.72021224E-07
  -1.75000001E-02  -7.92625428E-07
  -1.74499992E-02  -8.13770896E-07
  -1.74000002E-02  -8.35467745E-07
  -1.73499994E-02  -8.57720693E-07
  -1.73000004E-02  -8.80532411E-07
  -1.72499996E-02  -9.03908358E-07
  -1.72000006E-02  -9.27860071E-07
  -1.71499997E-02  -9.52405628E-07
  -1.71000008E-02  -9.77567538E-07
  -1.70499999E-02  -1.00336877E-06
  -1.70000009E-02  -1.02982801E-06
  -1.69500001E-02  -1.05695813E-06
  -1.68999992E-02  -1.08476650E-06
  -1.68500002E-02  -1.11325778E-06
  -1.67999994E-02  -1.14243937E-06
  -1.67500004E-02  -1.17232378E-06
  -1.66999996E-02  -1.20293021E-06
  -1.66500006E-02  -1.23428208E-06
  -1.65999997E-02  -1.26640350E-06
  -1.65500008E-02  -1.29931550E-06
  -1.64999999E-02  -1.33303251E-06
  -1.64500009E-02  -1.36756432E-06
  -1.64000001E-02  -1.40291831E-06
  -1.63499992E-02  -1.43910370E-06
  -1.63000003E-02  -1.47613480E-06
  -1.62499994E-02  -1.51403242E-06
  -1.62000004E-02  -1.55282169E-06
  -1.61499996E-02  -1.59252875E-06
  -1.61000006E-02  -1.63317623E-06
  -1.60499997E-02  -1.67478140E-06
  -1.60000008E-02  -1.71735610E-06
  -1.59499999E-02  -1.76090975E-06
  -1.59000009E-02  -1.80545328E-06
  -1.58500001E-02  -1.85100237E-06
  -1.57999992E-02  -1.89757895E-06
  -1.57500003E-02  -1.94520931E-06
  -1.56999994E-02  -1.99392116E-06
  -1.56500004E-02  -2.04373873E-06
  -1.55999996E-02  -2.09468158E-06
  -1.55499997E-02  -2.14676447E-06
  -1.54999997E-02  -2.19999947E-06
  -1.54499998E-02  -2.25440021E-06
  -1.53999999E-02  -2.30998467E-06
  -1.53500000E-02  -2.36677715E-06
  -1.53000001E-02  -2.42480587E-06
  -1.52500002E-02  -2.48410083E-06
  -1.52000003E-02  -2.54468932E-06
  -1.51500003E-02  -2.60659385E-06
  -1.51000004E-02  -2.66983147E-06
  -1.50499996E-02  -2.73441742E-06
  -1.49999997E-02  -2.80036784E-06
  -1.49499997E-02  -2.86770364E-06
  -1.48999998E-02  -2.93645076E-06
  -1.48499999E-02  -3.00664010E-06
  -1.48000000E-02  -3.07830396E-06
  -1.47500001E-02  -3.15147258E-06
  -1.47000002E-02  -3.22617120E-06
  -1.46500003E-02  -3.30242142E-06
  -1.46000003E-02  -3.38024120E-06
  -1.45500004E-02  -3.45965032E-06
  -1.44999996E-02  -3.54067333E-06
  -1.44499997E-02  -3.62333958E-06
  -1.43999998E-02  -3.70768339E-06
  -1.43499998E-02  -3.79373978E-06
  -1.42999999E-02  -3.88154285E-06
  -1.42500000E-02  -3.97112217E-06
  -1.42000001E-02  -4.06250183E-06
  -1.41500002E-02  -4.15570503E-06
  -1.41000003E-02  -4.25075586E-06
  -1.40500003E-02  -4.34768117E-06
  -1.40000004E-02  -4.44651550E-06
  -1.39499996E-02  -4.54729525E-06
  -1.38999997E-02  -4.65006042E-06
  -1.38499998E-02  -4.75484694E-06
  -1.37999998E-02  -4.86168801E-06
  -1.37499999E-02  -4.97061228E-06
  -1.37000000E-02  -5.08164703E-06
  -1.36500001E-02  -5.19482046E-06
  -1.36000002E-02  -5.31016531E-06
  -1.35500003E-02  -5.42771841E-06
  -1.35000004E-02  -5.54752160E-06
  -1.34500004E-02  -5.66961762E-06
  -1.33999996E-02  -5.79404605E-06
  -1.33499997E-02  -5.92084507E-06
  -1.32999998E-02  -6.05004789E-06
  -1.32499998E-02  -6.18168497E-06
  -1.31999999E-02  -6.31579042E-06
  -1.31500000E-02  -6.45240016E-06
  -1.31000001E-02  -6.59155694E-06
  -1.30500002E-02  -6.73330487E-06
  -1.30000003E-02  -6.87769125E-06
  -1.29500004E-02  -7.02475927E-06
  -1.29000004E-02  -7.17454805E-06
  -1.28499996E-02  -7.32709486E-06
  -1.27999997E-02  -7.48243565E-06
  -1.27499998E-02  -7.64060678E-06
  -1.26999998E-02  -7.80165101E-06
  -1.26499999E-02  -7.96561289E-06
  -1.26000000E-02  -8.13254337E-06
  -1.25500001E-02  -8.30248973E-06
  -1.25000002E-02  -8.47550018E-06
  -1.24500003E-02  -8.65161746E-06
  -1.24000004E-02  -8.83088342E-06
  -1.23500004E-02  -9.01333624E-06
  -1.22999996E-02  -9.19901868E-06
  -1.22499997E-02  -9.38797621E-06
  -1.21999998E-02  -9.58025703E-06
  -1.21499998E-02  -9.77591390E-06
  -1.20999999E-02  -9.97499956E-06
  -1.20500000E-02  -1.01775604E-05
  -1.20000001E-02  -1.03836428E-05
  -1.19500002E-02  -1.05932895E-05
  -1.19000003E-02  -1.08065396E-05
  -1.18500004E-02  -1.10234405E-05
  -1.18000004E-02  -1.12440393E-05
  -1.17499996E-02  -1.14683908E-05
  -1.16999997E-02  -1.16965475E-05
  -1.16499998E-02  -1.19285660E-05
  -1.15999999E-02  -1.21644962E-05
  -1.15499999E-02  -1.24043854E-05
  -1.15000000E-02  -1.26482764E-05
  -1.14500001E-02  -1.28962138E-05
  -1.14000002E-02  -1.31482411E-05
  -1.13500003E-02  -1.34044121E-05
  -1.13000004E-02  -1.36647805E-05
  -1.12500004E-02  -1.39293998E-05
  -1.11999996E-02  -1.41983255E-05
  -1.11499997E-02  -1.44716105E-05
  -1.10999998E-02  -1.47492956E-05
  -1.10499999E-02  -1.50314236E-05
  -1.09999999E-02  -1.53180445E-05
  -1.09500000E-02  -1.56091992E-05
  -1.09000001E-02  -1.59049414E-05
  -1.08500002E-02  -1.62053293E-05
  -1.08000003E-02  -1.65104211E-05
  -1.07500004E-02  -1.68202732E-05
  -1.07000005E-02  -1.71349329E-05
  -1.06499996E-02  -1.74544457E-05
  -1.05999997E-02  -1.77788552E-05
  -1.05499998E-02  -1.81082014E-05
  -1.04999999E-02  -1.84425280E-05
  -1.04499999E-02  -1.87818878E-05
  -1.04000000E-02  -1.91263334E-05
  -1.03500001E-02  -1.94759250E-05
  -1.03000002E-02  -1.98307098E-05
  -1.02500003E-02  -2.01907405E-05
  -1.02000004E-02  -2.05560500E-05
  -1.01500005E-02  -2.09266836E-05
  -1.00999996E-02  -2.13026760E-05
  -1.00499997E-02  -2.16840690E-05
  -9.99999978E-03  -2.20709117E-05
  -9.94999986E-03  -2.24632549E-05
  -9.89999995E-03  -2.28611498E-05
  -9.85000003E-03  -2.32646507E-05
  -9.80000012E-03  -2.36737997E-05
  -9.75000020E-03  -2.40886366E-05
  -9.70000029E-03  -2.45091924E-05
  -9.65000037E-03  -2.49355035E-05
  -9.60000046E-03  -2.53675971E-05
  -9.54999961E-03  -2.58055225E-05
  -9.49999969E-03  -2.62493213E-05
  -9.44999978E-03  -2.66990410E-05
  -9.39999986E-03  -2.71547269E-05
  -9.34999995E-03  -2.76164174E-05
  -9.30000003E-03  -2.80841377E-05
  -9.25000012E-03  -2.85579099E-05
  -9.20000020E-03  -2.90377520E-05
  -9.15000029E-03  -2.95236860E-05
  -9.10000037E-03  -3.00157462E-05
  -9.05000046E-03  -3.05139674E-05
  -8.99999961E-03  -3.10183896E-05
  -8.94999970E-03  -3.15290526E-05
  -8.89999978E-03  -3.20459803E-05
  -8.84999987E-03  -3.25691944E-05
  -8.79999995E-03  -3.30986950E-05
  -8.75000004E-03  -3.36344892E-05
  -8.70000012E-03  -3.41765917E-05
  -8.65000021E-03  -3.47250207E-05
  -8.60000029E-03  -3.52798015E-05
  -8.55000038E-03  -3.58409634E-05
  -8.50000046E-03  -3.64085281E-05
  -8.44999962E-03  -3.69825138E-05
  -8.39999970E-03  -3.75629170E-05
  -8.34999979E-03  -3.81497302E-05
  -8.29999987E-03  -3.87429463E-05
  -8.24999996E-03  -3.93425435E-05
  -8.20000004E-03  -3.99485289E-05
  -8.15000013E-03  -4.05609098E-05
  -8.10000021E-03  -4.11797009E-05
  -8.05000030E-03  -4.18049021E-05
  -8.00000038E-03  -4.24365098E-05
  -7.95000046E-03  -4.30745022E-05
  -7.89999962E-03  -4.37188501E-05
  -7.84999970E-03  -4.43695171E-05
  -7.79999979E-03  -4.50264670E-05
  -7.74999987E-03  -4.56896851E-05
  -7.69999996E-03  -4.63591459E-05
  -7.65000004E-03  -4.70348459E-05
  -7.60000013E-03  -4.77167705E-05
  -7.55000021E-03  -4.84048942E-05
  -7.49999983E-03  -4.90991770E-05
  -7.44999992E-03  -4.97995607E-05
  -7.40000000E-03  -5.05059797E-05
  -7.35000009E-03  -5.12183760E-05
  -7.30000017E-03  -5.19366877E-05
  -7.24999979E-03  -5.26608783E-05
  -7.19999988E-03  -5.33909042E-05
  -7.14999996E-03  -5.41267327E-05
  -7.10000005E-03  -5.48683165E-05
  -7.05000013E-03  -5.56155828E-05
  -7.00000022E-03  -5.63684407E-05
  -6.94999984E-03  -5.71267847E-05
  -6.89999992E-03  -5.78905165E-05
  -6.85000001E-03  -5.86595379E-05
  -6.80000009E-03  -5.94337835E-05
  -6.75000018E-03  -6.02131768E-05
  -6.69999979E-03  -6.09976596E-05
  -6.64999988E-03  -6.17871410E-05
  -6.59999996E-03  -6.25815228E-05
  -6.55000005E-03  -6.33806631E-05
  -6.50000013E-03  -6.41844235E-05
  -6.45000022E-03  -6.49926660E-05
  -6.39999984E-03  -6.58052450E-05
  -6.34999992E-03  -6.66220512E-05
  -6.30000001E-03  -6.74429903E-05
  -6.25000009E-03  -6.82679602E-05
  -6.20000018E-03  -6.90968373E-05
  -6.14999980E-03  -6.99294833E-05
  -6.09999988E-03  -7.07657236E-05
  -6.04999997E-03  -7.16053692E-05
  -6.00000005E-03  -7.24482234E-05
  -5.95000014E-03  -7.32941044E-05
  -5.90000022E-03  -7.41428375E-05
  -5.84999984E-03  -7.49942847E-05
  -5.79999993E-03  -7.58483075E-05
  -5.75000001E-03  -7.67047386E-05
  -5.70000010E-03  -7.75633889E-05
  -5.65000018E-03  -7.84240401E-05
  -5.59999980E-03  -7.92864375E-05
  -5.54999989E-03  -8.01503338E-05
  -5.49999997E-03  -8.10154961E-05
  -5.45000006E-03  -8.18816916E-05
  -5.40000014E-03  -8.27487165E-05
  -5.35000023E-03  -8.36163745E-05
  -5.29999984E-03  -8.44844617E-05
  -5.24999993E-03  -8.53527454E-05
  -5.20000001E-03  -8.62209417E-05
  -5.15000010E-03  -8.70887743E-05
  -5.10000018E-03  -8.79559084E-05
  -5.04999980E-03  -8.88220602E-05
  -4.99999989E-03  -8.96869315E-05
  -4.94999997E-03  -9.05502529E-05
  -4.90000006E-03  -9.14117845E-05
  -4.85000014E-03  -9.22712352E-05
  -4.80000023E-03  -9.31283284E-05
  -4.74999985E-03  -9.39827369E-05
  -4.69999993E-03  -9.48340967E-05
  -4.65000002E-03  -9.56820295E-05
  -4.60000010E-03  -9.65261424E-05
  -4.55000019E-03  -9.73660717E-05
  -4.49999981E-03  -9.82014681E-05
  -4.44999989E-03  -9.90319822E-05
  -4.39999998E-03  -9.98573305E-05
  -4.35000006E-03  -1.00677149E-04
  -4.30000015E-03  -1.01491052E-04
  -4.25000023E-03  -1.02298618E-04
  -4.19999985E-03  -1.03099374E-04
  -4.14999994E-03  -1.03892853E-04
  -4.10000002E-03  -1.04678584E-04
  -4.05000011E-03  -1.05456165E-04
  -4.00000019E-03  -1.06225198E-04
  -3.94999981E-03  -1.06985295E-04
  -3.89999989E-03  -1.07736058E-04
  -3.84999998E-03  -1.08477005E-04
  -3.80000006E-03  -1.09207656E-04
  -3.74999992E-03  -1.09927460E-04
  -3.70000000E-03  -1.10635861E-04
  -3.65000009E-03  -1.11332323E-04
  -3.59999994E-03  -1.12016322E-04
  -3.55000002E-03  -1.12687354E-04
  -3.50000011E-03  -1.13344970E-04
  -3.44999996E-03  -1.13988695E-04
  -3.40000005E-03  -1.14617986E-04
  -3.34999990E-03  -1.15232280E-04
  -3.29999998E-03  -1.15830939E-04
  -3.25000007E-03  -1.16413299E-04
  -3.19999992E-03  -1.16978721E-04
  -3.15000000E-03  -1.17526601E-04
  -3.10000009E-03  -1.18056341E-04
  -3.04999994E-03  -1.18567419E-04
  -3.00000003E-03  -1.19059274E-04
  -2.95000011E-03  -1.19531294E-04
  -2.89999996E-03  -1.19982826E-04
  -2.85000005E-03  -1.20413169E-04
  -2.79999990E-03  -1.20821569E-04
  -2.74999999E-03  -1.21207282E-04
  -2.70000007E-03  -1.21569596E-04
  -2.64999992E-03  -1.21907833E-04
  -2.60000001E-03  -1.22221332E-04
  -2.55000009E-03  -1.22509489E-04
  -2.49999994E-03  -1.22771598E-04
  -2.45000003E-03  -1.23006932E-04
  -2.40000011E-03  -1.23214719E-04
  -2.34999997E-03  -1.23394100E-04
  -2.30000005E-03  -1.23544218E-04
  -2.24999990E-03  -1.23664242E-04
  -2.19999999E-03  -1.23753402E-04
  -2.15000007E-03  -1.23810925E-04
  -2.09999993E-03  -1.23836144E-04
  -2.05000001E-03  -1.23828271E-04
  -2.00000009E-03  -1.23786493E-04
  -1.94999995E-03  -1.23709920E-04
  -1.90000003E-03  -1.23597623E-04
  -1.85000000E-03  -1.23448641E-04
  -1.79999997E-03  -1.23262071E-04
  -1.75000005E-03  -1.23036996E-04
  -1.70000002E-03  -1.22772602E-04
  -1.64999999E-03  -1.22468075E-04
  -1.59999996E-03  -1.22122598E-04
  -1.55000004E-03  -1.21735255E-04
  -1.50000001E-03  -1.21305078E-04
  -1.44999998E-03  -1.20831050E-04
  -1.39999995E-03  -1.20312121E-04
  -1.35000004E-03  -1.19747274E-04
  -1.30000000E-03  -1.19135511E-04
  -1.24999997E-03  -1.18475895E-04
  -1.20000006E-03  -1.17767515E-04
  -1.15000003E-03  -1.17009477E-04
  -1.09999999E-03  -1.16200805E-04
  -1.04999996E-03  -1.15340452E-04
  -1.00000005E-03  -1.14427305E-04
  -9.50000016E-04  -1.13460221E-04
  -8.99999985E-04  -1.12438043E-04
  -8.50000011E-04  -1.11359703E-04
  -7.99999980E-04  -1.10224166E-04
  -7.50000007E-04  -1.09030458E-04
  -6.99999975E-04  -1.07777596E-04
  -6.50000002E-04  -1.06464555E-04
  -6.00000028E-04  -1.05090221E-04
  -5.49999997E-04  -1.03653416E-04
  -5.00000024E-04  -1.02152888E-04
  -4.49999992E-04  -1.00587422E-04
  -3.99999990E-04  -9.89558393E-05
  -3.49999988E-04  -9.72570342E-05
  -3.00000014E-04  -9.54899515E-05
  -2.50000012E-04  -9.36535507E-05
  -1.99999995E-04  -9.17467478E-05
  -1.50000007E-04  -8.97683494E-05
  -9.99999975E-05  -8.77171042E-05
  -4.99999987E-05  -8.55916951E-05
   0.00000000      -8.33908198E-05
   4.99999987E-05  -8.11132122E-05
   9.99999975E-05  -7.87577010E-05
   1.50000007E-04  -7.63231583E-05
   1.99999995E-04  -7.38084855E-05
   2.50000012E-04  -7.12125402E-05
   3.00000014E-04  -6.85341147E-05
   3.49999988E-04  -6.57719065E-05
   3.99999990E-04  -6.29245478E-05
   4.49999992E-04  -5.99906743E-05
   5.00000024E-04  -5.69689400E-05
   5.49999997E-04  -5.38581189E-05
   6.00000028E-04  -5.06570359E-05
   6.50000002E-04  -4.73645523E-05
   6.99999975E-04  -4.39795222E-05
   7.50000007E-04  -4.05007158E-05
   7.99999980E-04  -3.69268128E-05
   8.50000011E-04  -3.32564050E-05
   8.99999985E-04  -2.94880647E-05
   9.50000016E-04  -2.56204130E-05
   1.00000005E-03  -2.16521457E-05
   1.04999996E-03  -1.75820460E-05
   1.09999999E-03  -1.34089669E-05
   1.15000003E-03  -9.13174335E-06
   1.20000006E-03  -4.74914441E-06
   1.24999997E-03  -2.59855653E-07
   1.30000000E-03   4.33752530E-06
   1.35000004E-03   9.04445915E-06
   1.39999995E-03   1.38623491E-05
   1.44999998E-03   1.87925179E-05
   1.50000001E-03   2.38361936E-05
   1.55000004E-03   2.89945310E-05
   1.59999996E-03   3.42686653E-05
   1.64999999E-03   3.96597825E-05
   1.70000002E-03   4.51691667E-05
   1.75000005E-03   5.07982004E-05
   1.79999997E-03   5.65483242E-05
   1.85000000E-03   6.24209351E-05
   1.90000003E-03   6.84173792E-05
   1.94999995E-03   7.45388825E-05
   2.00000009E-03   8.07865581E-05
   2.05000001E-03   8.71615193E-05
   2.09999993E-03   9.36648939E-05
   2.15000007E-03   1.00297868E-04
   2.19999999E-03   1.07061773E-04
   2.24999990E-03   1.13957991E-04
   2.30000005E-03   1.20987905E-04
   2.34999997E-03   1.28152838E-04
   2.40000011E-03   1.35453971E-04
   2.45000003E-03   1.42892401E-04
   2.49999994E-03   1.50469117E-04
   2.55000009E-03   1.58185168E-04
   2.60000001E-03   1.66041616E-04
   2.64999992E-03   1.74039713E-04
   2.70000007E-03   1.82180738E-04
   2.74999999E-03   1.90465973E-04
   2.79999990E-03   1.98896683E-04