  -3.99999991E-02   0.00000000    
  -3.99499983E-02   0.00000000    
  -3.99000011E-02   0.00000000    
  -3.98500003E-02   0.00000000    
  -3.97999994E-02   0.00000000    
  -3.97499986E-02   9.65207290E-23
  -3.97000015E-02   1.17847146E-21
  -3.96500006E-02   7.51206012E-21
  -3.95999998E-02   3.31075874E-20
  -3.95499989E-02   1.12906509E-19
  -3.95000018E-02   3.16423597E-19
  -3.94500010E-02   7.56197091E-19
  -3.94000001E-02   1.57967767E-18
  -3.93499993E-02   2.93613156E-18
  -3.92999984E-02   4.92290751E-18
  -3.92500013E-02   7.53480392E-18
  -3.92000005E-02   1.06550409E-17
  -3.91499996E-02   1.41216605E-17
  -3.90999988E-02   1.78708053E-17
  -3.90500017E-02   2.21068204E-17
  -3.90000008E-02   2.74057609E-17
  -3.89500000E-02   3.46575012E-17
  -3.88999991E-02   4.48109314E-17
  -3.88499983E-02   5.84918800E-17
  -3.88000011E-02   7.56640834E-17
  -3.87500003E-02   9.55372366E-17
  -3.86999995E-02   1.16850564E-16
  -3.86499986E-02   1.38486393E-16
  -3.86000015E-02   1.60165447E-16
  -3.85500006E-02   1.82850988E-16
  -3.84999998E-02   2.08537023E-16
  -3.84499989E-02   2.39340806E-16
  -3.84000018E-02   2.76181842E-16
  -3.83500010E-02   3.17635529E-16
  -3.83000001E-02   3.59611941E-16
  -3.82499993E-02   3.96230895E-16
  -3.81999984E-02   4.21722511E-16
  -3.81500013E-02   4.32615328E-16
  -3.81000005E-02   4.29185162E-16
  -3.80499996E-02   4.15322647E-16
  -3.79999988E-02   3.96616269E-16
  -3.79500017E-02   3.77283510E-16
  -3.79000008E-02   3.57225875E-16
  -3.78500000E-02   3.30594921E-16
  -3.77999991E-02   2.86708397E-16
  -3.77499983E-02   2.13131118E-16
  -3.77000012E-02   9.96832643E-17
  -3.76500003E-02  -5.84210337E-17
  -3.75999995E-02  -2.59825821E-16
  -3.75499986E-02  -4.99151487E-16
  -3.75000015E-02  -7.71103432E-16
  -3.74500006E-02  -1.07469857E-15
  -3.73999998E-02  -1.41560127E-15
  -3.73499990E-02  -1.80535777E-15
  -3.73000018E-02  -2.25767781E-15
  -3.72500010E-02  -2.78318213E-15
  -3.72000001E-02  -3.38466594E-15
  -3.71499993E-02  -4.05467430E-15
  -3.70999984E-02  -4.77621381E-15
  -3.70500013E-02  -5.52623311E-15
  -3.70000005E-02  -6.28063961E-15
  -3.69499996E-02  -7.01935145E-15
  -3.68999988E-02  -7.73022681E-15
  -3.68500017E-02  -8.41120827E-15
  -3.68000008E-02  -9.07027952E-15
  -3.67500000E-02  -9.72282608E-15
  -3.66999991E-02  -1.03860275E-14
  -3.66499983E-02  -1.10705614E-14
  -3.66000012E-02  -1.17712812E-14
  -3.65500003E-02  -1.24601325E-14
  -3.64999995E-02  -1.30852436E-14
  -3.64499986E-02  -1.35788402E-14
  -3.64000015E-02  -1.38732350E-14
  -3.63500006E-02  -1.39196965E-14
  -3.62999998E-02  -1.37017591E-14
  -3.62499990E-02  -1.32347949E-14
  -3.62000018E-02  -1.25484306E-14
  -3.61500010E-02  -1.16567378E-14
  -3.61000001E-02  -1.05292607E-14
  -3.60499993E-02  -9.07950625E-15
  -3.59999985E-02  -7.18282245E-15
  -3.59500013E-02  -4.72300404E-15
  -3.59000005E-02  -1.65102984E-15
  -3.58499996E-02   1.97190795E-15
  -3.57999988E-02   5.97418394E-15
  -3.57500017E-02   1.01281246E-14
  -3.57000008E-02   1.42453103E-14
  -3.56500000E-02   1.82747291E-14
  -3.55999991E-02   2.23551595E-14
  -3.55499983E-02   2.67852418E-14
  -3.55000012E-02   3.19080293E-14
  -3.54500003E-02   3.79490818E-14
  -3.53999995E-02   4.48783839E-14
  -3.53499986E-02   5.23684523E-14
  -3.53000015E-02   5.98868015E-14
  -3.52500007E-02   6.69009051E-14
  -3.51999998E-02   7.31134649E-14
  -3.51499990E-02   7.86160010E-14
  -3.51000018E-02   8.38698821E-14
  -3.50500010E-02   8.94941808E-14
  -3.50000001E-02   9.59329729E-14
  -3.49499993E-02   1.03147071E-13
  -3.48999985E-02   1.10487940E-13
  -3.48500013E-02   1.16847802E-13
  -3.48000005E-02   1.21058965E-13
  -3.47499996E-02   1.22388224E-13
  -3.46999988E-02   1.20900455E-13
  -3.46500017E-02   1.17494881E-13
  -3.46000008E-02   1.13547470E-13
  -3.45500000E-02   1.10275951E-13
  -3.44999991E-02   1.08096231E-13
  -3.44499983E-02   1.06281676E-13
  -3.44000012E-02   1.03132414E-13
  -3.43500003E-02   9.66417227E-14
  -3.42999995E-02   8.54021443E-14
  -3.42499986E-02   6.93422235E-14
  -3.42000015E-02   4.99124125E-14
  -3.41500007E-02   2.95568928E-14
  -3.40999998E-02   1.06350763E-14
  -3.40499990E-02  -5.75281696E-15
  -3.40000018E-02  -2.04748734E-14
  -3.39500010E-02  -3.62034519E-14
  -3.39000002E-02  -5.63421109E-14
  -3.38499993E-02  -8.34447393E-14
  -3.37999985E-02  -1.17825576E-13
  -3.37500013E-02  -1.57053759E-13
  -3.37000005E-02  -1.96684967E-13
  -3.36499996E-02  -2.32029267E-13
  -3.35999988E-02  -2.60231371E-13
  -3.35500017E-02  -2.81704591E-13
  -3.35000008E-02  -3.00158715E-13
  -3.34500000E-02  -3.21050397E-13
  -3.33999991E-02  -3.49024059E-13
  -3.33499983E-02  -3.85458402E-13
  -3.33000012E-02  -4.27308579E-13
  -3.32500003E-02  -4.67941658E-13
  -3.31999995E-02  -4.99783754E-13
  -3.31499986E-02  -5.17707513E-13
  -3.31000015E-02  -5.21618718E-13
  -3.30500007E-02  -5.16919352E-13
  -3.29999998E-02  -5.12399205E-13
  -3.29499990E-02  -5.16290298E-13
  -3.29000019E-02  -5.32170282E-13
  -3.28500010E-02  -5.56647502E-13
  -3.28000002E-02  -5.80106438E-13
  -3.27499993E-02  -5.90466424E-13
  -3.26999985E-02  -5.78468100E-13
  -3.26500013E-02  -5.42133612E-13
  -3.26000005E-02  -4.88211251E-13
  -3.25499997E-02  -4.29642297E-13
  -3.24999988E-02  -3.79885495E-13
  -3.24500017E-02  -3.46505105E-13
  -3.24000008E-02  -3.27001176E-13
  -3.23500000E-02  -3.09069285E-13
  -3.22999991E-02  -2.75573347E-13
  -3.22499983E-02  -2.12303848E-13
  -3.22000012E-02  -1.15095108E-13
  -3.21500003E-02   7.13080785E-15
  -3.20999995E-02   1.35205052E-13
  -3.20499986E-02   2.47625461E-13
  -3.20000015E-02   3.30259176E-13
  -3.19500007E-02   3.83417446E-13
  -3.18999998E-02   4.22743465E-13
  -3.18499990E-02   4.72967965E-13
  -3.18000019E-02   5.56867649E-13
  -3.17500010E-02   6.84216193E-13
  -3.17000002E-02   8.45917845E-13
  -3.16499993E-02   1.01649830E-12
  -3.15999985E-02   1.16445362E-12
  -3.15500014E-02   1.26622259E-12
  -3.15000005E-02   1.31750784E-12
  -3.14499997E-02   1.33641828E-12
  -3.13999988E-02   1.35632065E-12
  -3.13500017E-02   1.41095458E-12
  -3.13000008E-02   1.51820234E-12
  -3.12500000E-02   1.67002631E-12
  -3.11999992E-02   1.83377185E-12
  -3.11500002E-02   1.96509692E-12
  -3.10999993E-02   2.02735983E-12
  -3.10500003E-02   2.00888937E-12
  -3.09999995E-02   1.92991304E-12
  -3.09500005E-02   1.83515594E-12
  -3.08999997E-02   1.77452887E-12
  -3.08500007E-02   1.78005993E-12
  -3.07999998E-02   1.84955827E-12
  -3.07500008E-02   1.94508971E-12
  -3.07000000E-02   2.00799316E-12
  -3.06499992E-02   1.98457223E-12
  -3.06000002E-02   1.85120647E-12
  -3.05499993E-02   1.62714427E-12
  -3.05000003E-02   1.36818703E-12
  -3.04499995E-02   1.14293286E-12
  -3.04000005E-02   1.00149414E-12
  -3.03499997E-02   9.50767351E-13
  -3.03000007E-02   9.48215356E-13
  -3.02499998E-02   9.18285738E-13
  -3.02000009E-02   7.85326014E-13
  -3.01500000E-02   5.08785885E-13
  -3.00999992E-02   1.04516256E-13
  -3.00500002E-02  -3.58595071E-13
  -2.99999993E-02  -7.86646844E-13
  -2.99500003E-02  -1.10195837E-12
  -2.98999995E-02  -1.27923594E-12
  -2.98500005E-02  -1.35962617E-12
  -2.97999997E-02  -1.43482828E-12
  -2.97500007E-02  -1.60684053E-12
  -2.96999998E-02  -1.94053736E-12
  -2.96500009E-02  -2.43060932E-12
  -2.96000000E-02  -2.99901705E-12
  -2.95499992E-02  -3.52592391E-12
  -2.95000002E-02  -3.90175782E-12
  -2.94499993E-02  -4.07755774E-12
  -2.94000003E-02  -4.09025331E-12
  -2.93499995E-02  -4.04976400E-12
  -2.93000005E-02  -4.09171395E-12
  -2.92499997E-02  -4.31563856E-12
  -2.92000007E-02  -4.73635237E-12
  -2.91499998E-02  -5.27160910E-12
  -2.91000009E-02  -5.77370400E-12
  -2.90500000E-02  -6.09284064E-12
  -2.89999992E-02  -6.14479431E-12
  -2.89500002E-02  -5.95198240E-12
  -2.88999993E-02  -5.63766828E-12
  -2.88500004E-02  -5.37355186E-12
  -2.87999995E-02  -5.30246637E-12
  -2.87500005E-02  -5.47046523E-12
  -2.86999997E-02  -5.80002409E-12
  -2.86500007E-02  -6.11876955E-12
  -2.85999998E-02  -6.23334457E-12
  -2.85500009E-02  -6.01674353E-12
  -2.85000000E-02  -5.46968330E-12
  -2.84499992E-02  -4.72653730E-12
  -2.84000002E-02  -4.00037295E-12
  -2.83499993E-02  -3.48929631E-12
  -2.83000004E-02  -3.28514516E-12
  -2.82499995E-02  -3.32646953E-12
  -2.82000005E-02  -3.41943314E-12
  -2.81499997E-02  -3.32028827E-12
  -2.81000007E-02  -2.84457115E-12
  -2.80499998E-02  -1.95432494E-12
  -2.80000009E-02  -7.82466052E-13
  -2.79500000E-02   4.19693333E-13
  -2.78999992E-02   1.39123608E-12
  -2.78500002E-02   1.97953633E-12
  -2.77999993E-02   2.21379035E-12
  -2.77500004E-02   2.29859426E-12
  -2.76999995E-02   2.52697971E-12
  -2.76500005E-02   3.14905198E-12
  -2.75999997E-02   4.25426838E-12
  -2.75500007E-02   5.72166576E-12
  -2.74999999E-02   7.26369919E-12
  -2.74500009E-02   8.54775539E-12
  -2.74000000E-02   9.34331432E-12
  -2.73499992E-02   9.62886455E-12
  -2.73000002E-02   9.60823608E-12
  -2.72499993E-02   9.62521902E-12
  -2.72000004E-02   1.00111499E-11
  -2.71499995E-02   1.09320721E-11
  -2.71000005E-02   1.23049539E-11
  -2.70499997E-02   1.38237807E-11
  -2.70000007E-02   1.50880263E-11
  -2.69499999E-02   1.57791020E-11
  -2.69000009E-02   1.58064915E-11
  -2.68500000E-02   1.53559474E-11
  -2.67999992E-02   1.48140736E-11
  -2.67500002E-02   1.45987337E-11
  -2.66999993E-02   1.49686773E-11
  -2.66500004E-02   1.58979913E-11
  -2.65999995E-02   1.70748381E-11
  -2.65500005E-02   1.80297669E-11
  -2.64999997E-02   1.83403483E-11
  -2.64500007E-02   1.78222506E-11
  -2.63999999E-02   1.66197230E-11
  -2.63500009E-02   1.51508701E-11
  -2.63000000E-02   1.39271650E-11
  -2.62499992E-02   1.33244110E-11
  -2.62000002E-02   1.34070186E-11
  -2.61499994E-02   1.38870304E-11
  -2.61000004E-02   1.42411838E-11
  -2.60499995E-02   1.39386419E-11
  -2.60000005E-02   1.26802969E-11
  -2.59499997E-02   1.05418703E-11
  -2.59000007E-02   7.95279381E-12
  -2.58499999E-02   5.51474361E-12
  -2.58000009E-02   3.73630467E-12
  -2.57500000E-02   2.80073187E-12
  -2.56999992E-02   2.47280581E-12
  -2.56500002E-02   2.19154729E-12
  -2.55999994E-02   1.31324281E-12
  -2.55500004E-02  -5.99782105E-13
  -2.54999995E-02  -3.57327145E-12
  -2.54500005E-02  -7.19353353E-12
  -2.53999997E-02  -1.07764882E-11
  -2.53500007E-02  -1.36634272E-11
  -2.52999999E-02  -1.55143259E-11
  -2.52500009E-02  -1.64665139E-11
  -2.52000000E-02  -1.70830294E-11
  -2.51499992E-02  -1.81072778E-11
  -2.51000002E-02  -2.01284909E-11
  -2.50499994E-02  -2.33058208E-11
  -2.50000004E-02  -2.72771770E-11
  -2.49499995E-02  -3.12996538E-11
  -2.49000005E-02  -3.45655657E-11
  -2.48499997E-02  -3.65573752E-11
  -2.48000007E-02  -3.72831731E-11
  -2.47499999E-02  -3.72831141E-11
  -2.47000009E-02  -3.73970369E-11
  -2.46500000E-02  -3.83904644E-11
  -2.45999992E-02  -4.06027920E-11
  -2.45500002E-02  -4.37763437E-11
  -2.44999994E-02  -4.71484275E-11
  -2.44500004E-02  -4.97727762E-11
  -2.43999995E-02  -5.09327615E-11
  -2.43500005E-02  -5.04634945E-11
  -2.42999997E-02  -4.88356230E-11
  -2.42500007E-02  -4.69563589E-11
  -2.41999999E-02  -4.57689581E-11
  -2.41500009E-02  -4.58246809E-11
  -2.41000000E-02  -4.70186633E-11
  -2.40499992E-02  -4.86129262E-11
  -2.40000002E-02  -4.95445178E-11
  -2.39499994E-02  -4.88886813E-11
  -2.39000004E-02  -4.62738424E-11
  -2.38499995E-02  -4.20610977E-11
  -2.38000005E-02  -3.72011900E-11
  -2.37499997E-02  -3.28242329E-11
  -2.37000007E-02  -2.97386005E-11
  -2.36499999E-02  -2.80610413E-11
  -2.36000009E-02  -2.71472150E-11
  -2.35500000E-02  -2.58618110E-11
  -2.34999992E-02  -2.30763950E-11
  -2.34500002E-02  -1.81780372E-11
  -2.33999994E-02  -1.13612479E-11
  -2.33500004E-02  -3.56679053E-12
  -2.32999995E-02   3.91450978E-12
  -2.32500006E-02   1.00042440E-11
  -2.31999997E-02   1.43176504E-11
  -2.31500007E-02   1.73459615E-11
  -2.30999999E-02   2.02504107E-11
  -2.30500009E-02   2.43500740E-11
  -2.30000000E-02   3.05248257E-11
  -2.29499992E-02   3.87984783E-11
  -2.29000002E-02   4.82932375E-11
  -2.28499994E-02   5.75853185E-11
  -2.28000004E-02   6.53127691E-11
  -2.27499995E-02   7.07701051E-11
  -2.27000006E-02   7.42234260E-11
  -2.26499997E-02   7.67984495E-11
  -2.26000007E-02   7.99810426E-11
  -2.25499999E-02   8.49443710E-11
  -2.25000009E-02   9.19995330E-11
  -2.24500000E-02   1.00418451E-10
  -2.23999992E-02   1.08717299E-10
  -2.23500002E-02   1.15285025E-10
  -2.22999994E-02   1.19083937E-10
  -2.22500004E-02   1.20111088E-10
  -2.21999995E-02   1.19408303E-10
  -2.21500006E-02   1.18605625E-10
  -2.20999997E-02   1.19191532E-10
  -2.20500007E-02   1.21829366E-10
  -2.19999999E-02   1.26026994E-10
  -2.19500009E-02   1.30315120E-10
  -2.19000001E-02   1.32866565E-10
  -2.18499992E-02   1.32289804E-10
  -2.18000002E-02   1.28246330E-10
  -2.17499994E-02   1.21612206E-10
  -2.17000004E-02   1.14101770E-10
  -2.16499995E-02   1.07509800E-10
  -2.16000006E-02   1.02902874E-10
  -2.15499997E-02   1.00119905E-10
  -2.15000007E-02   9.78122652E-11
  -2.14499999E-02   9.40170858E-11
  -2.14000009E-02   8.70193154E-11
  -2.13500001E-02   7.61235242E-11
  -2.12999992E-02   6.19889209E-11
  -2.12500002E-02   4.63686832E-11
  -2.11999994E-02   3.13575485E-11
  -2.11500004E-02   1.84735890E-11
  -2.10999995E-02   7.98078357E-12
  -2.10500006E-02  -1.24023806E-12
  -2.09999997E-02  -1.12044115E-11
  -2.09500007E-02  -2.39228359E-11
  -2.08999999E-02  -4.04851291E-11
  -2.08500009E-02  -6.05328357E-11
  -2.08000001E-02  -8.23665997E-11
  -2.07499992E-02  -1.03651338E-10
  -2.07000002E-02  -1.22416022E-10
  -2.06499994E-02  -1.37907102E-10
  -2.06000004E-02  -1.50911630E-10
  -2.05499995E-02  -1.63395894E-10
  -2.05000006E-02  -1.77607942E-10
  -2.04499997E-02  -1.95035044E-10
  -2.04000007E-02  -2.15679072E-10
  -2.03499999E-02  -2.37979192E-10
  -2.03000009E-02  -2.59428756E-10
  -2.02500001E-02  -2.77624007E-10
  -2.01999992E-02  -2.91284358E-10
  -2.01500002E-02  -3.00789255E-10
  -2.00999994E-02  -3.07983888E-10
  -2.00500004E-02  -3.15327875E-10
  -1.99999996E-02  -3.24756277E-10
  -1.99500006E-02  -3.36755956E-10
  -1.98999997E-02  -3.50073165E-10
  -1.98500007E-02  -3.62193442E-10
  -1.97999999E-02  -3.70391967E-10
  -1.97500009E-02  -3.72895437E-10
  -1.97000001E-02  -3.69638903E-10
  -1.96499992E-02  -3.62273794E-10
  -1.96000002E-02  -3.53411828E-10
  -1.95499994E-02  -3.45430989E-10
  -1.95000004E-02  -3.39369116E-10
  -1.94499996E-02  -3.34400813E-10
  -1.94000006E-02  -3.28139682E-10
  -1.93499997E-02  -3.17644272E-10
  -1.93000007E-02  -3.00689945E-10
  -1.92499999E-02  -2.76744100E-10
  -1.92000009E-02  -2.47206533E-10
  -1.91500001E-02  -2.14797971E-10
  -1.90999992E-02  -1.82358018E-10
  -1.90500002E-02  -1.51580762E-10
  -1.89999994E-02  -1.22250529E-10
  -1.89500004E-02  -9.23255916E-11
  -1.88999996E-02  -5.88430971E-11
  -1.88500006E-02  -1.92530367E-11
  -1.87999997E-02   2.74082181E-11
  -1.87500007E-02   8.00294275E-11
  -1.86999999E-02   1.35847167E-10
  -1.86500009E-02   1.91602595E-10
  -1.86000001E-02   2.44925330E-10
  -1.85499992E-02   2.95331204E-10
  -1.85000002E-02   3.44383994E-10
  -1.84499994E-02   3.94939442E-10
  -1.84000004E-02   4.49797755E-10
  -1.83499996E-02   5.10357201E-10
  -1.83000006E-02   5.75868020E-10
  -1.82499997E-02   6.43624543E-10
  -1.82000007E-02   7.10021042E-10
  -1.81499999E-02   7.72008235E-10
  -1.81000009E-02   8.28308255E-10
  -1.80500001E-02   8.79844253E-10
  -1.79999992E-02   9.29187671E-10
  -1.79500002E-02   9.79257897E-10
  -1.78999994E-02   1.03184938E-09
  -1.78500004E-02   1.08663756E-09
  -1.77999996E-02   1.14111276E-09
  -1.77500006E-02   1.19147836E-09
  -1.76999997E-02   1.23412403E-09
  -1.76500008E-02   1.26702249E-09
  -1.75999999E-02   1.29043021E-09
  -1.75500009E-02   1.30657452E-09
  -1.75000001E-02   1.31845690E-09
  -1.74499992E-02   1.32830125E-09
  -1.74000002E-02   1.33632994E-09
  -1.73499994E-02   1.34041711E-09
  -1.73000004E-02   1.33677680E-09
  -1.72499996E-02   1.32139022E-09
  -1.72000006E-02   1.29153843E-09
  -1.71499997E-02   1.24676558E-09
  -1.71000008E-02   1.18883992E-09
  -1.70499999E-02   1.12072396E-09
  -1.70000009E-02   1.04500875E-09
  -1.69500001E-02   9.62503188E-10
  -1.68999992E-02   8.71607841E-10
  -1.68500002E-02   7.68757114E-10
  -1.67999994E-02   6.49737653E-10
  -1.67500004E-02   5.11304887E-10
  -1.66999996E-02   3.52380958E-10
  -1.66500006E-02   1.74302239E-10
  -1.65999997E-02  -1.99984786E-11
  -1.65500008E-02  -2.27514840E-10
  -1.64999999E-02  -4.46723075E-10
  -1.64500009E-02  -6.78483325E-10
  -1.64000001E-02  -9.25878929E-10
  -1.63499992E-02  -1.19306498E-09
  -1.63000003E-02  -1.48363843E-09
  -1.62499994E-02  -1.79923876E-09
  -1.62000004E-02  -2.13900941E-09
  -1.61499996E-02  -2.50015830E-09
  -1.61000006E-02  -2.87936919E-09
  -1.60499997E-02  -3.27443983E-09
  -1.60000008E-02  -3.68542130E-09
  -1.59499999E-02  -4.11475121E-09
  -1.59000009E-02  -4.56632243E-09
  -1.58500001E-02  -5.04389730E-09
  -1.57999992E-02  -5.54956214E-09
  -1.57500003E-02  -6.08292305E-09
  -1.56999994E-02  -6.64137767E-09
  -1.56500004E-02  -7.22136262E-09
  -1.55999996E-02  -7.82001397E-09
  -1.55499997E-02  -8.43651460E-09
  -1.54999997E-02  -9.07252495E-09
  -1.54499998E-02  -9.73151248E-09
  -1.53999999E-02  -1.04172866E-08
  -1.53500000E-02  -1.11323661E-08
  -1.53000001E-02  -1.18769323E-08
  -1.52500002E-02  -1.26487985E-08
  -1.52000003E-02  -1.34444358E-08
  -1.51500003E-02  -1.42605838E-08
  -1.51000004E-02  -1.50957327E-08
  -1.50499996E-02  -1.59508300E-08
  -1.49999997E-02  -1.68288992E-08
  -1.49499997E-02  -1.77337380E-08
  -1.48999998E-02  -1.86682669E-08
  -1.48499999E-02  -1.96332834E-08
  -1.48000000E-02  -2.06271533E-08
  -1.47500001E-02  -2.16465743E-08
  -1.47000002E-02  -2.26880701E-08
  -1.46500003E-02  -2.37495801E-08
  -1.46000003E-02  -2.48314009E-08
  -1.45500004E-02  -2.59361030E-08
  -1.44999996E-02  -2.70674487E-08
  -1.44499997E-02  -2.82288060E-08
  -1.43999998E-02  -2.94217450E-08
  -1.43499998E-02  -3.06454488E-08
  -1.42999999E-02  -3.18972120E-08
  -1.42500000E-02  -3.31737553E-08
  -1.42000001E-02  -3.44728299E-08
  -1.41500002E-02  -3.57943399E-08
  -1.41000003E-02  -3.71405626E-08
  -1.40500003E-02  -3.85152958E-08
  -1.40000004E-02  -3.99223836E-08
  -1.39499996E-02  -4.13642667E-08
  -1.38999997E-02  -4.28411049E-08
  -1.38499998E-02  -4.43510331E-08
  -1.37999998E-02  -4.58912197E-08
  -1.37499999E-02  -4.74594657E-08
  -1.37000000E-02  -4.90554513E-08
  -1.36500001E-02  -5.06812121E-08
  -1.36000002E-02  -5.23405852E-08
  -1.35500003E-02  -5.40379084E-08
  -1.35000004E-02  -5.57765105E-08
  -1.34500004E-02  -5.75577062E-08
  -1.33999996E-02  -5.93807208E-08
  -1.33499997E-02  -6.12435826E-08
  -1.32999998E-02  -6.31444976E-08
  -1.32499998E-02  -6.50832206E-08
  -1.31999999E-02  -6.70617624E-08
  -1.31500000E-02  -6.90840807E-08
  -1.31000001E-02  -7.11549717E-08
  -1.30500002E-02  -7.32786347E-08
  -1.30000003E-02  -7.54575353E-08
  -1.29500004E-02  -7.76920857E-08
  -1.29000004E-02  -7.99812412E-08
  -1.28499996E-02  -8.23237869E-08
  -1.27999997E-02  -8.47196731E-08
  -1.27499998E-02  -8.71709034E-08
  -1.26999998E-02  -8.96814640E-08
  -1.26499999E-02  -9.22565562E-08
  -1.26000000E-02  -9.49011323E-08
  -1.25500001E-02  -9.76187522E-08
  -1.25000002E-02  -1.00411107E-07
  -1.24500003E-02  -1.03278275E-07
  -1.24000004E-02  -1.06219844E-07
  -1.23500004E-02  -1.09236218E-07
  -1.22999996E-02  -1.12329580E-07
  -1.22499997E-02  -1.15504065E-07
  -1.21999998E-02  -1.18765143E-07
  -1.21499998E-02  -1.22118493E-07
  -1.20999999E-02  -1.25568718E-07
  -1.20500000E-02  -1.29118689E-07
  -1.20000001E-02  -1.32769657E-07
  -1.19500002E-02  -1.36522090E-07
  -1.19000003E-02  -1.40376841E-07
  -1.18500004E-02  -1.44336198E-07
  -1.18000004E-02  -1.48404311E-07
  -1.17499996E-02  -1.52586708E-07
  -1.16999997E-02  -1.56889456E-07
  -1.16499998E-02  -1.61317914E-07
  -1.15999999E-02  -1.65875932E-07
  -1.15499999E-02  -1.70565897E-07
  -1.15000000E-02  -1.75389204E-07
  -1.14500001E-02  -1.80347385E-07
  -1.14000002E-02  -1.85443085E-07
  -1.13500003E-02  -1.90680623E-07
  -1.13000004E-02  -1.96065812E-07
  -1.12500004E-02  -2.01605133E-07
  -1.11999996E-02  -2.07304723E-07
  -1.11499997E-02  -2.13169500E-07
  -1.10999998E-02  -2.19202875E-07
  -1.10499999E-02  -2.25407263E-07
  -1.09999999E-02  -2.31784796E-07
  -1.09500000E-02  -2.38338458E-07
  -1.09000001E-02  -2.45072556E-07
  -1.08500002E-02  -2.51992901E-07
  -1.08000003E-02  -2.59106116E-07
  -1.07500004E-02  -2.66418766E-07
  -1.07000005E-02  -2.73936678E-07
  -1.06499996E-02  -2.81664398E-07
  -1.05999997E-02  -2.89605481E-07
  -1.05499998E-02  -2.97763222E-07
  -1.04999999E-02  -3.06141430E-07
  -1.04499999E-02  -3.14745051E-07
  -1.04000000E-02  -3.23580338E-07
  -1.03500001E-02  -3.32654565E-07
  -1.03000002E-02  -3.41975152E-07
  -1.02500003E-02  -3.51548863E-07
  -1.02000004E-02  -3.61381552E-07
  -1.01500005E-02  -3.71478109E-07
  -1.00999996E-02  -3.81842938E-07
  -1.00499997E-02  -3.92480672E-07
  -9.99999978E-03  -4.03396825E-07
  -9.94999986E-03  -4.14598219E-07
  -9.89999995E-03  -4.26092413E-07
  -9.85000003E-03  -4.37887479E-07
  -9.80000012E-03  -4.49991205E-07
  -9.75000020E-03  -4.62410668E-07
  -9.70000029E-03  -4.75152206E-07
  -9.65000037E-03  -4.88221701E-07
  -9.60000046E-03  -5.01625152E-07
  -9.54999961E-03  -5.15369379E-07
  -9.49999969E-03  -5.29462113E-07
  -9.44999978E-03  -5.43912051E-07
  -9.39999986E-03  -5.58728573E-07
  -9.34999995E-03  -5.73920886E-07
  -9.30000003E-03  -5.89497915E-07
  -9.25000012E-03  -6.05468017E-07
  -9.20000020E-03  -6.21839092E-07
  -9.15000029E-03  -6.38618872E-07
  -9.10000037E-03  -6.55815768E-07
  -9.05000046E-03  -6.73438819E-07
  -8.99999961E-03  -6.91497860E-07
  -8.94999970E-03  -7.10003292E-07
  -8.89999978E-03  -7.28965858E-07
  -8.84999987E-03  -7.48395848E-07
  -8.79999995E-03  -7.68303323E-07
  -8.75000004E-03  -7.88697946E-07
  -8.70000012E-03  -8.09589437E-07
  -8.65000021E-03  -8.30987801E-07
  -8.60000029E-03  -8.52903668E-07
  -8.55000038E-03  -8.75348917E-07
  -8.50000046E-03  -8.98335600E-07
  -8.44999962E-03  -9.21876222E-07
  -8.39999970E-03  -9.45983345E-07
  -8.34999979E-03  -9.70669362E-07
  -8.29999987E-03  -9.95946721E-07
  -8.24999996E-03  -1.02182742E-06
  -8.20000004E-03  -1.04832407E-06
  -8.15000013E-03  -1.07544963E-06
  -8.10000021E-03  -1.10321787E-06
  -8.05000030E-03  -1.13164299E-06
  -8.00000038E-03  -1.16073932E-06
  -7.95000046E-03  -1.19052186E-06
  -7.89999962E-03  -1.22100516E-06
  -7.84999970E-03  -1.25220367E-06
  -7.79999979E-03  -1.28413240E-06
  -7.74999987E-03  -1.31680554E-06
  -7.69999996E-03  -1.35023868E-06
  -7.65000004E-03  -1.38444716E-06
  -7.60000013E-03  -1.41944747E-06
  -7.55000021E-03  -1.45525610E-06
  -7.49999983E-03  -1.49189032E-06
  -7.44999992E-03  -1.52936730E-06
  -7.40000000E-03  -1.56770409E-06
  -7.35000009E-03  -1.60691843E-06
  -7.30000017E-03  -1.64702783E-06
  -7.24999979E-03  -1.68805036E-06
  -7.19999988E-03  -1.73000421E-06
  -7.14999996E-03  -1.77290826E-06
  -7.10000005E-03  -1.81678172E-06
  -7.05000013E-03  -1.86164448E-06
  -7.00000022E-03  -1.90751643E-06
  -6.94999984E-03  -1.95441839E-06
  -6.89999992E-03  -2.00237037E-06
  -6.85000001E-03  -2.05139327E-06
  -6.80000009E-03  -2.10150756E-06
  -6.75000018E-03  -2.15273394E-06
  -6.69999979E-03  -2.20509378E-06
  -6.64999988E-03  -2.25860936E-06
  -6.59999996E-03  -2.31330341E-06
  -6.55000005E-03  -2.36919846E-06
  -6.50000013E-03  -2.42631836E-06
  -6.45000022E-03  -2.48468632E-06
  -6.39999984E-03  -2.54432553E-06
  -6.34999992E-03  -2.60525917E-06
  -6.30000001E-03  -2.66751135E-06
  -6.25000009E-03  -2.73110663E-06
  -6.20000018E-03  -2.79606957E-06
  -6.14999980E-03  -2.86242584E-06
  -6.09999988E-03  -2.93020253E-06
  -6.04999997E-03  -2.99942690E-06
  -6.00000005E-03  -3.07012556E-06
  -5.95000014E-03  -3.14232489E-06
  -5.90000022E-03  -3.21605171E-06
  -5.84999984E-03  -3.29133331E-06
  -5.79999993E-03  -3.36819767E-06
  -5.75000001E-03  -3.44667342E-06
  -5.70000010E-03  -3.52679012E-06
  -5.65000018E-03  -3.60857803E-06
  -5.59999980E-03  -3.69206782E-06
  -5.54999989E-03  -3.77728998E-06
  -5.49999997E-03  -3.86427473E-06
  -5.45000006E-03  -3.95305324E-06
  -5.40000014E-03  -4.04365528E-06
  -5.35000023E-03  -4.13611224E-06
  -5.29999984E-03  -4.23045594E-06
  -5.24999993E-03  -4.32671914E-06
  -5.20000001E-03  -4.42493683E-06
  -5.15000010E-03  -4.52514405E-06
  -5.10000018E-03  -4.62737535E-06
  -5.04999980E-03  -4.73166483E-06
  -4.99999989E-03  -4.83804706E-06
  -4.94999997E-03  -4.94655615E-06
  -4.90000006E-03  -5.05722619E-06
  -4.85000014E-03  -5.17009403E-06
  -4.80000023E-03  -5.28519649E-06
  -4.74999985E-03  -5.40257406E-06
  -4.69999993E-03  -5.52226538E-06
  -4.65000002E-03  -5.64431093E-06
  -4.60000010E-03  -5.76874845E-06
  -4.55000019E-03  -5.89561660E-06
  -4.49999981E-03  -6.02495311E-06
  -4.44999989E-03  -6.15679664E-06
  -4.39999998E-03  -6.29118676E-06
  -4.35000006E-03  -6.42816576E-06
  -4.30000015E-03  -6.56777593E-06
  -4.25000023E-03  -6.71006092E-06
  -4.19999985E-03  -6.85506529E-06
  -4.14999994E-03  -7.00283272E-06
  -4.10000002E-03  -7.15340639E-06
  -4.05000011E-03  -7.30682723E-06
  -4.00000019E-03  -7.46313663E-06
  -3.94999981E-03  -7.62237687E-06
  -3.89999989E-03  -7.78459344E-06
  -3.84999998E-03  -7.94983498E-06
  -3.80000006E-03  -8.11814880E-06
  -3.74999992E-03  -8.28958673E-06
  -3.70000000E-03  -8.46419698E-06
  -3.65000009E-03  -8.64202593E-06
  -3.59999994E-03  -8.82311724E-06
  -3.55000002E-03  -9.00751729E-06
  -3.50000011E-03  -9.19527156E-06
  -3.44999996E-03  -9.38643007E-06
  -3.40000005E-03  -9.58104283E-06
  -3.34999990E-03  -9.77916534E-06
  -3.29999998E-03  -9.98084943E-06
  -3.25000007E-03  -1.01861478E-05
  -3.19999992E-03  -1.03951115E-05
  -3.15000000E-03  -1.06077887E-05
  -3.10000009E-03  -1.08242275E-05
  -3.04999994E-03  -1.10444762E-05
  -3.00000003E-03  -1.12685848E-05
  -2.95000011E-03  -1.14966097E-05
  -2.89999996E-03  -1.17286063E-05
  -2.85000005E-03  -1.19646320E-05
  -2.79999990E-03  -1.22047441E-05
  -2.74999999E-03  -1.24489979E-05
  -2.70000007E-03  -1.26974437E-05
  -2.64999992E-03  -1.29501350E-05
  -2.60000001E-03  -1.32071191E-05
  -2.55000009E-03  -1.34684506E-05
  -2.49999994E-03  -1.37341831E-05
  -2.45000003E-03  -1.40043758E-05
  -2.40000011E-03  -1.42790923E-05
  -2.34999997E-03  -1.45583899E-05
  -2.30000005E-03  -1.48423314E-05
  -2.24999990E-03  -1.51309687E-05
  -2.19999999E-03  -1.54243517E-05
  -2.15000007E-03  -1.57225313E-05
  -2.09999993E-03  -1.60255586E-05
  -2.05000001E-03  -1.63334917E-05
  -2.00000009E-03  -1.66463906E-05
  -1.94999995E-03  -1.69643172E-05
  -1.90000003E-03  -1.72873351E-05
  -1.85000000E-03  -1.76155081E-05
  -1.79999997E-03  -1.79488925E-05
  -1.75000005E-03  -1.82875392E-05
  -1.70000002E-03  -1.86314974E-05
  -1.64999999E-03  -1.89808216E-05
  -1.59999996E-03  -1.93355609E-05
  -1.55000004E-03  -1.96957790E-05
  -1.50000001E-03  -2.00615359E-05
  -1.44999998E-03  -2.04328971E-05
  -1.39999995E-03  -2.08099336E-05
  -1.35000004E-03  -2.11926999E-05
  -1.30000000E-03  -2.15812470E-05
  -1.24999997E-03  -2.19756221E-05
  -1.20000006E-03  -2.23758743E-05
  -1.15000003E-03  -2.27820528E-05
  -1.09999999E-03  -2.31942140E-05
  -1.04999996E-03  -2.36124215E-05
  -1.00000005E-03  -2.40367444E-05
  -9.50000016E-04  -2.44672519E-05
  -8.99999985E-04  -2.49040004E-05
  -8.50000011E-04  -2.53470425E-05
  -7.99999980E-04  -2.57964239E-05
  -7.50000007E-04  -2.62521826E-05
  -6.99999975E-04  -2.67143623E-05
  -6.50000002E-04  -2.71830140E-05
  -6.00000028E-04  -2.76581977E-05
  -5.49999997E-04  -2.81399807E-05
  -5.00000024E-04  -2.86284303E-05
  -4.49999992E-04  -2.91236120E-05
  -3.99999990E-04  -2.96255694E-05
  -3.49999988E-04  -3.01343462E-05
  -3.00000014E-04  -3.06499714E-05
  -2.50000012E-04  -3.11724834E-05
  -1.99999995E-04  -3.17019294E-05
  -1.50000007E-04  -3.22383639E-05
  -9.99999975E-05  -3.27818561E-05
  -4.99999987E-05  -3.33324606E-05
   0.00000000      -3.38902428E-05
   4.99999987E-05  -3.44552464E-05
   9.99999975E-05  -3.50275041E-05
   1.50000007E-04  -3.56070414E-05
   1.99999995E-04  -3.61938837E-05
   2.50000012E-04  -3.67880748E-05
   3.00000014E-04  -3.73896546E-05
   3.49999988E-04  -3.79986777E-05
   3.99999990E-04  -3.86152060E-05
   4.49999992E-04  -3.92392903E-05
   5.00000024E-04  -3.98709744E-05
   5.49999997E-04  -4.05102874E-05
   6.00000028E-04  -4.11572364E-05
   6.50000002E-04  -4.18118470E-05
   6.99999975E-04  -4.24741338E-05
   7.50000007E-04  -4.31441404E-05
   7.99999980E-04  -4.38219067E-05
   8.50000011E-04  -4.45074802E-05
   8.99999985E-04  -4.52009190E-05
   9.50000016E-04  -4.59022485E-05
   1.00000005E-03  -4.66114871E-05
   1.04999996E-03  -4.73286418E-05
   1.09999999E-03  -4.80537055E-05
   1.15000003E-03  -4.87866891E-05
   1.20000006E-03  -4.95276108E-05
   1.24999997E-03  -5.02764960E-05
   1.30000000E-03  -5.10333848E-05
   1.35000004E-03  -5.17983171E-05
   1.39999995E-03  -5.25713222E-05
   1.44999998E-03  -5.33523998E-05
   1.50000001E-03  -5.41415357E-05
   1.55000004E-03  -5.49387150E-05
   1.59999996E-03  -5.57439271E-05
   1.64999999E-03  -5.65571645E-05
   1.70000002E-03  -5.73784419E-05
   1.75000005E-03  -5.82077737E-05
   1.79999997E-03  -5.90451964E-05
   1.85000000E-03  -5.98907027E-05
   1.90000003E-03  -6.07442889E-05
   1.94999995E-03  -6.16059333E-05
   2.00000009E-03  -6.24755994E-05
   2.05000001E-03  -6.33532472E-05
   2.09999993E-03  -6.42388404E-05
   2.15000007E-03  -6.51323717E-05
   2.19999999E-03  -6.60338337E-05
   2.24999990E-03  -6.69432338E-05
   2.30000005E-03  -6.78605647E-05
   2.34999997E-03  -6.87858192E-05
   2.40000011E-03  -6.97189316E-05
   2.45000003E-03  -7.06598512E-05
   2.49999994E-03  -7.16084978E-05
   2.55000009E-03  -7.25648133E-05
   2.60000001E-03  -7.35287613E-05
   2.64999992E-03  -7.45002981E-05
   2.70000007E-03  -7.54794164E-05
   2.74999999E-03  -7.64660872E-05
   2.79999990E-03  -7.74602813E-05