  -3.99999991E-02   0.00000000    
  -3.99499983E-02   0.00000000    
  -3.99000011E-02   0.00000000    
  -3.98500003E-02   0.00000000    
  -3.97999994E-02  -1.59360593E-22
  -3.97499986E-02  -1.60698787E-21
  -3.97000015E-02  -8.29362221E-21
  -3.96500006E-02  -2.88211730E-20
  -3.95999998E-02  -7.45536335E-20
  -3.95499989E-02  -1.48628252E-19
  -3.95000018E-02  -2.22822139E-19
  -3.94500010E-02  -2.07158260E-19
  -3.94000001E-02   7.17128691E-20
  -3.93499993E-02   8.59882112E-19
  -3.92999984E-02   2.41510827E-18
  -3.92500013E-02   4.90025931E-18
  -3.92000005E-02   8.27151579E-18
  -3.91499996E-02   1.22297289E-17
  -3.90999988E-02   1.62988958E-17
  -3.90500017E-02   2.00445566E-17
  -3.90000008E-02   2.33612382E-17
  -3.89500000E-02   2.66860344E-17
  -3.88999991E-02   3.09878533E-17
  -3.88499983E-02   3.74648827E-17
  -3.88000011E-02   4.70313621E-17
  -3.87500003E-02   5.98164079E-17
  -3.86999995E-02   7.49480427E-17
  -3.86499986E-02   9.08053796E-17
  -3.86000015E-02   1.05709354E-16
  -3.85500006E-02   1.18776810E-16
  -3.84999998E-02   1.30509897E-16
  -3.84499989E-02   1.42739306E-16
  -3.84000018E-02   1.57805825E-16
  -3.83500010E-02   1.77252603E-16
  -3.83000001E-02   2.00619290E-16
  -3.82499993E-02   2.24985556E-16
  -3.81999984E-02   2.45626187E-16
  -3.81500013E-02   2.57615912E-16
  -3.81000005E-02   2.57711574E-16
  -3.80499996E-02   2.45615467E-16
  -3.79999988E-02   2.23936215E-16
  -3.79500017E-02   1.96740475E-16
  -3.79000008E-02   1.67275997E-16
  -3.78500000E-02   1.35906489E-16
  -3.77999991E-02   9.92820486E-17
  -3.77499983E-02   5.12416519E-17
  -3.77000012E-02  -1.48789841E-17
  -3.76500003E-02  -1.03576856E-16
  -3.75999995E-02  -2.15422740E-16
  -3.75499986E-02  -3.47075271E-16
  -3.75000015E-02  -4.93065025E-16
  -3.74500006E-02  -6.48476142E-16
  -3.73999998E-02  -8.11240829E-16
  -3.73499990E-02  -9.83010958E-16
  -3.73000018E-02  -1.16832229E-15
  -3.72500010E-02  -1.37258661E-15
  -3.72000001E-02  -1.59991035E-15
  -3.71499993E-02  -1.85162334E-15
  -3.70999984E-02  -2.12584242E-15
  -3.70500013E-02  -2.41776259E-15
  -3.70000005E-02  -2.72008114E-15
  -3.69499996E-02  -3.02322301E-15
  -3.68999988E-02  -3.31565944E-15
  -3.68500017E-02  -3.58510761E-15
  -3.68000008E-02  -3.82120279E-15
  -3.67500000E-02  -4.01923952E-15
  -3.66999991E-02  -4.18324162E-15
  -3.66499983E-02  -4.32591415E-15
  -3.66000012E-02  -4.46375648E-15
  -3.65500003E-02  -4.60789862E-15
  -3.64999995E-02  -4.75408211E-15
  -3.64499986E-02  -4.87705816E-15
  -3.64000015E-02  -4.93404866E-15
  -3.63500006E-02  -4.87841257E-15
  -3.62999998E-02  -4.67941149E-15
  -3.62499990E-02  -4.33948404E-15
  -3.62000018E-02  -3.89932888E-15
  -3.61500010E-02  -3.42503913E-15
  -3.61000001E-02  -2.97956672E-15
  -3.60499993E-02  -2.58968148E-15
  -3.59999985E-02  -2.22456962E-15
  -3.59500013E-02  -1.79973071E-15
  -3.59000005E-02  -1.20951625E-15
  -3.58499996E-02  -3.77370860E-16
  -3.57999988E-02   6.98596988E-16
  -3.57500017E-02   1.92912114E-15
  -3.57000008E-02   3.16049846E-15
  -3.56500000E-02   4.23910725E-15
  -3.55999991E-02   5.08783299E-15
  -3.55499983E-02   5.75751122E-15
  -3.55000012E-02   6.42240964E-15
  -3.54500003E-02   7.31166887E-15
  -3.53999995E-02   8.59986114E-15
  -3.53499986E-02   1.03047877E-14
  -3.53000015E-02   1.22454681E-14
  -3.52500007E-02   1.40919703E-14
  -3.51999998E-02   1.54979043E-14
  -3.51499990E-02   1.62634595E-14
  -3.51000018E-02   1.64532931E-14
  -3.50500010E-02   1.64040195E-14
  -3.50000001E-02   1.66006921E-14
  -3.49499993E-02   1.74631360E-14
  -3.48999985E-02   1.91335137E-14
  -3.48500013E-02   2.13692504E-14
  -3.48000005E-02   2.36085836E-14
  -3.47499996E-02   2.52007921E-14
  -3.46999988E-02   2.57111684E-14
  -3.46500017E-02   2.51619302E-14
  -3.46000008E-02   2.40829593E-14
  -3.45500000E-02   2.33225660E-14
  -3.44999991E-02   2.36791703E-14
  -3.44499983E-02   2.55098236E-14
  -3.44000012E-02   2.85024080E-14
  -3.43500003E-02   3.17421701E-14
  -3.42999995E-02   3.40764438E-14
  -3.42499986E-02   3.46375320E-14
  -3.42000015E-02   3.32901058E-14
  -3.41500007E-02   3.07784837E-14
  -3.40999998E-02   2.84678592E-14
  -3.40499990E-02   2.77575577E-14
  -3.40000018E-02   2.94117859E-14
  -3.39500010E-02   3.31207128E-14
  -3.39000002E-02   3.75283978E-14
  -3.38499993E-02   4.07649005E-14
  -3.37999985E-02   4.12811265E-14
  -3.37500013E-02   3.86175128E-14
  -3.37000005E-02   3.37300141E-14
  -3.36499996E-02   2.86696631E-14
  -3.35999988E-02   2.57008533E-14
  -3.35500017E-02   2.62219818E-14
  -3.35000008E-02   2.99845903E-14
  -3.34500000E-02   3.50156542E-14
  -3.33999991E-02   3.83524897E-14
  -3.33499983E-02   3.73224468E-14
  -3.33000012E-02   3.08127174E-14
  -3.32500003E-02   1.99256573E-14
  -3.31999995E-02   7.64877104E-15
  -3.31499986E-02  -2.39812053E-15
  -3.31000015E-02  -7.63152884E-15
  -3.30500007E-02  -7.83666158E-15
  -3.29999998E-02  -5.50097416E-15
  -3.29499990E-02  -4.89907297E-15
  -3.29000019E-02  -1.02479992E-14
  -3.28500010E-02  -2.37210713E-14
  -3.28000002E-02  -4.42458638E-14
  -3.27499993E-02  -6.77228117E-14
  -3.26999985E-02  -8.86849594E-14
  -3.26500013E-02  -1.02740116E-13
  -3.26000005E-02  -1.08710499E-13
  -3.25499997E-02  -1.09435796E-13
  -3.24999988E-02  -1.10748867E-13
  -3.24500017E-02  -1.18953661E-13
  -3.24000008E-02  -1.37867582E-13
  -3.23500000E-02  -1.66782319E-13
  -3.22999991E-02  -2.00374602E-13
  -3.22499983E-02  -2.30764897E-13
  -3.22000012E-02  -2.50927941E-13
  -3.21500003E-02  -2.57961892E-13
  -3.20999995E-02  -2.54672450E-13
  -3.20499986E-02  -2.48600348E-13
  -3.20000015E-02  -2.48753600E-13
  -3.19500007E-02  -2.61403122E-13
  -3.18999998E-02  -2.86842056E-13
  -3.18499990E-02  -3.18700470E-13
  -3.18000019E-02  -3.46329058E-13
  -3.17500010E-02  -3.59365668E-13
  -3.17000002E-02  -3.52512697E-13
  -3.16499993E-02  -3.28309320E-13
  -3.15999985E-02  -2.96459282E-13
  -3.15500014E-02  -2.69779235E-13
  -3.15000005E-02  -2.58413869E-13
  -3.14499997E-02  -2.64890811E-13
  -3.13999988E-02  -2.82375279E-13
  -3.13500017E-02  -2.97160110E-13
  -3.13000008E-02  -2.94524252E-13
  -3.12500000E-02  -2.65467688E-13
  -3.11999992E-02  -2.11253785E-13
  -3.11500002E-02  -1.43504363E-13
  -3.10999993E-02  -7.95097291E-14
  -3.10500003E-02  -3.46155464E-14
  -3.09999995E-02  -1.50276486E-14
  -3.09500005E-02  -1.43983675E-14
  -3.08999997E-02  -1.60205948E-14
  -3.08500007E-02   2.78559027E-17
  -3.07999998E-02   4.77831309E-14
  -3.07500008E-02   1.28426404E-13
  -3.07000000E-02   2.28804605E-13
  -3.06499992E-02   3.26465770E-13
  -3.06000002E-02   3.99283769E-13
  -3.05499993E-02   4.35508021E-13
  -3.05000003E-02   4.39626715E-13
  -3.04499995E-02   4.31090059E-13
  -3.04000005E-02   4.36061777E-13
  -3.03499997E-02   4.75595691E-13
  -3.03000007E-02   5.55481984E-13
  -3.02499998E-02   6.62542503E-13
  -3.02000009E-02   7.69454975E-13
  -3.01500000E-02   8.46373644E-13
  -3.00999992E-02   8.74381025E-13
  -3.00500002E-02   8.54680530E-13
  -2.99999993E-02   8.09057628E-13
  -2.99500003E-02   7.70908836E-13
  -2.98999995E-02   7.70437262E-13
  -2.98500005E-02   8.20499918E-13
  -2.97999997E-02   9.09645189E-13
  -2.97500007E-02   1.00593383E-12
  -2.96999998E-02   1.07037621E-12
  -2.96500009E-02   1.07434005E-12
  -2.96000000E-02   1.01315950E-12
  -2.95499992E-02   9.09504785E-13
  -2.95000002E-02   8.04430036E-13
  -2.94499993E-02   7.39553601E-13
  -2.94000003E-02   7.38073123E-13
  -2.93499995E-02   7.93242696E-13
  -2.93000005E-02   8.69968919E-13
  -2.92499997E-02   9.19460688E-13
  -2.92000007E-02   9.00891991E-13
  -2.91499998E-02   8.00524089E-13
  -2.91000009E-02   6.39418911E-13
  -2.90500000E-02   4.65651714E-13
  -2.89999992E-02   3.33811402E-13
  -2.89500002E-02   2.80522431E-13
  -2.88999993E-02   3.06962897E-13
  -2.88500004E-02   3.76690541E-13
  -2.87999995E-02   4.30503696E-13
  -2.87500005E-02   4.12374209E-13
  -2.86999997E-02   2.95158077E-13
  -2.86500007E-02   9.43612796E-14
  -2.85999998E-02  -1.36866077E-13
  -2.85500009E-02  -3.30095706E-13
  -2.85000000E-02  -4.31962924E-13
  -2.84499992E-02  -4.29036743E-13
  -2.84000002E-02  -3.55649565E-13
  -2.83499993E-02  -2.80349176E-13
  -2.83000004E-02  -2.76171122E-13
  -2.82499995E-02  -3.87525109E-13
  -2.82000005E-02  -6.08603229E-13
  -2.81499997E-02  -8.83643419E-13
  -2.81000007E-02  -1.12990270E-12
  -2.80499998E-02  -1.27391056E-12
  -2.80000009E-02  -1.28512023E-12
  -2.79500000E-02  -1.19156692E-12
  -2.78999992E-02  -1.06963711E-12
  -2.78500002E-02  -1.01146771E-12
  -2.77999993E-02  -1.08379571E-12
  -2.77500004E-02  -1.29654956E-12
  -2.76999995E-02  -1.59583219E-12
  -2.76500005E-02  -1.88550694E-12
  -2.75999997E-02  -2.06880671E-12
  -2.75500007E-02  -2.09195248E-12
  -2.74999999E-02  -1.97010615E-12
  -2.74500009E-02  -1.78316986E-12
  -2.74000000E-02  -1.64208729E-12
  -2.73499992E-02  -1.63969034E-12
  -2.73000002E-02  -1.80770600E-12
  -2.72499993E-02  -2.09963080E-12
  -2.72000004E-02  -2.40827562E-12
  -2.71499995E-02  -2.61144838E-12
  -2.71000005E-02  -2.62625598E-12
  -2.70499997E-02  -2.44782796E-12
  -2.70000007E-02  -2.15434268E-12
  -2.69499999E-02  -1.87475556E-12
  -2.69000009E-02  -1.73233845E-12
  -2.68500000E-02  -1.78858176E-12
  -2.67999992E-02  -2.01280702E-12
  -2.67500002E-02  -2.29219812E-12
  -2.66999993E-02  -2.47927763E-12
  -2.66500004E-02  -2.45683053E-12
  -2.65999995E-02  -2.19163316E-12
  -2.65500005E-02  -1.75231184E-12
  -2.64999997E-02  -1.28191902E-12
  -2.64500007E-02  -9.35892097E-13
  -2.63999999E-02  -8.12092255E-13
  -2.63500009E-02  -9.04194146E-13
  -2.63000000E-02  -1.10033022E-12
  -2.62499992E-02  -1.22929748E-12
  -2.62000002E-02  -1.13526311E-12
  -2.61499994E-02  -7.48348107E-13
  -2.61000004E-02  -1.19124247E-13
  -2.60499995E-02   5.99845477E-13
  -2.60000005E-02   1.21903670E-12
  -2.59499997E-02   1.59595340E-12
  -2.59000007E-02   1.70092629E-12
  -2.58499999E-02   1.63442686E-12
  -2.58000009E-02   1.58635756E-12
  -2.57500000E-02   1.75358133E-12
  -2.56999992E-02   2.25134082E-12
  -2.56500002E-02   3.05823379E-12
  -2.55999994E-02   4.02070044E-12
  -2.55500004E-02   4.91709581E-12
  -2.54999995E-02   5.55459108E-12
  -2.54500005E-02   5.85643209E-12
  -2.53999997E-02   5.89994503E-12
  -2.53500007E-02   5.88648314E-12
  -2.52999999E-02   6.05447420E-12
  -2.52500009E-02   6.57273324E-12
  -2.52000000E-02   7.46133363E-12
  -2.51499992E-02   8.57655180E-12
  -2.51000002E-02   9.66880829E-12
  -2.50499994E-02   1.04900012E-11
  -2.50000004E-02   1.09036122E-11
  -2.49499995E-02   1.09481825E-11
  -2.49000005E-02   1.08240890E-11
  -2.48499997E-02   1.08070254E-11
  -2.48000007E-02   1.11247079E-11
  -2.47499999E-02   1.18510245E-11
  -2.47000009E-02   1.28657770E-11
  -2.46500000E-02   1.39002542E-11
  -2.45999992E-02   1.46509055E-11
  -2.45500002E-02   1.49122485E-11
  -2.44999994E-02   1.46698591E-11
  -2.44500004E-02   1.41104394E-11
  -2.43999995E-02   1.35417727E-11
  -2.43500005E-02   1.32557212E-11
  -2.42999997E-02   1.33940064E-11
  -2.42500007E-02   1.38771937E-11
  -2.41999999E-02   1.44307266E-11
  -2.41500009E-02   1.46993650E-11
  -2.41000000E-02   1.44013404E-11
  -2.40499992E-02   1.34542525E-11
  -2.40000002E-02   1.20153037E-11
  -2.39499994E-02   1.04152572E-11
  -2.39000004E-02   9.01257194E-12
  -2.38499995E-02   8.03085896E-12
  -2.38000005E-02   7.45216389E-12
  -2.37499997E-02   7.01569358E-12
  -2.37000007E-02   6.32570819E-12
  -2.36499999E-02   5.02340183E-12
  -2.36000009E-02   2.94752157E-12
  -2.35500000E-02   2.11336509E-13
  -2.34999992E-02  -2.84099220E-12
  -2.34500002E-02  -5.78251899E-12
  -2.33999994E-02  -8.29261052E-12
  -2.33500004E-02  -1.03033493E-11
  -2.32999995E-02  -1.20363294E-11
  -2.32500006E-02  -1.39102454E-11
  -2.31999997E-02  -1.63570893E-11
  -2.31500007E-02  -1.96268540E-11
  -2.30999999E-02  -2.36679721E-11
  -2.30500009E-02  -2.81391837E-11
  -2.30000000E-02  -3.25510521E-11
  -2.29499992E-02  -3.64770956E-11
  -2.29000002E-02  -3.97417828E-11
  -2.28499994E-02  -4.25003643E-11
  -2.28000004E-02  -4.51718697E-11
  -2.27499995E-02  -4.82514202E-11
  -2.27000006E-02  -5.20828450E-11
  -2.26499997E-02  -5.66924528E-11
  -2.26000007E-02  -6.17601387E-11
  -2.25499999E-02  -6.67442421E-11
  -2.25000009E-02  -7.11082096E-11
  -2.24500000E-02  -7.45500398E-11
  -2.23999992E-02  -7.71317177E-11
  -2.23500002E-02  -7.92482399E-11
  -2.22999994E-02  -8.14459680E-11
  -2.22500004E-02  -8.41681447E-11
  -2.21999995E-02  -8.75396769E-11
  -2.21500006E-02  -9.12887058E-11
  -2.20999997E-02  -9.48433901E-11
  -2.20500007E-02  -9.75647271E-11
  -2.19999999E-02  -9.90145743E-11
  -2.19500009E-02  -9.91394328E-11
  -2.19000001E-02  -9.82859419E-11
  -2.18499992E-02  -9.70370728E-11
  -2.18000002E-02  -9.59381949E-11
  -2.17499994E-02  -9.52333212E-11
  -2.17000004E-02  -9.47296477E-11
  -2.16499995E-02  -9.38542577E-11
  -2.16000006E-02  -9.18817106E-11
  -2.15499997E-02  -8.82349124E-11
  -2.15000007E-02  -8.27259025E-11
  -2.14499999E-02  -7.56279137E-11
  -2.14000009E-02  -6.75424924E-11
  -2.13500001E-02  -5.91170862E-11
  -2.12999992E-02  -5.07359224E-11
  -2.12500002E-02  -4.23221805E-11
  -2.11999994E-02  -3.33422352E-11
  -2.11500004E-02  -2.30144463E-11
  -2.10999995E-02  -1.06332642E-11
  -2.10500006E-02   4.13372158E-12
  -2.09999997E-02   2.11092758E-11
  -2.09500007E-02   3.96946608E-11
  -2.08999999E-02   5.91475757E-11
  -2.08500009E-02   7.89295990E-11
  -2.08000001E-02   9.89687429E-11
  -2.07499992E-02   1.19718541E-10
  -2.07000002E-02   1.41982759E-10
  -2.06499994E-02   1.66580180E-10
  -2.06000004E-02   1.93995320E-10
  -2.05499995E-02   2.24171556E-10
  -2.05000006E-02   2.56541399E-10
  -2.04499997E-02   2.90284546E-10
  -2.04000007E-02   3.24703209E-10
  -2.03499999E-02   3.59548641E-10
  -2.03000009E-02   3.95152078E-10
  -2.02500001E-02   4.32299002E-10
  -2.01999992E-02   4.71896910E-10
  -2.01500002E-02   5.14582377E-10
  -2.00999994E-02   5.60441360E-10
  -2.00500004E-02   6.08969541E-10
  -1.99999996E-02   6.59294563E-10
  -1.99500006E-02   7.10565939E-10
  -1.98999997E-02   7.62340358E-10
  -1.98500007E-02   8.14792289E-10
  -1.97999999E-02   8.68650984E-10
  -1.97500009E-02   9.24888943E-10
  -1.97000001E-02   9.84297088E-10
  -1.96499992E-02   1.04713238E-09
  -1.96000002E-02   1.11299869E-09
  -1.95499994E-02   1.18101573E-09
  -1.95000004E-02   1.25020638E-09
  -1.94499996E-02   1.31993250E-09
  -1.94000006E-02   1.39018619E-09
  -1.93499997E-02   1.46160450E-09
  -1.93000007E-02   1.53519741E-09
  -1.92499999E-02   1.61190461E-09
  -1.92000009E-02   1.69217873E-09
  -1.91500001E-02   1.77577886E-09
  -1.90999992E-02   1.86187032E-09
  -1.90500002E-02   1.94939176E-09
  -1.89999994E-02   2.03752637E-09
  -1.89500004E-02   2.12607398E-09
  -1.88999996E-02   2.21555352E-09
  -1.88500006E-02   2.30698638E-09
  -1.87999997E-02   2.40145615E-09
  -1.87500007E-02   2.49963628E-09
  -1.86999999E-02   2.60149280E-09
  -1.86500009E-02   2.70630274E-09
  -1.86000001E-02   2.81297696E-09
  -1.85499992E-02   2.92055469E-09
  -1.85000002E-02   3.02864556E-09
  -1.84499994E-02   3.13762616E-09
  -1.84000004E-02   3.24850058E-09
  -1.83499996E-02   3.36247918E-09
  -1.83000006E-02   3.48046592E-09
  -1.82499997E-02   3.60267483E-09
  -1.82000007E-02   3.72855391E-09
  -1.81499999E-02   3.85704668E-09
  -1.81000009E-02   3.98708755E-09
  -1.80500001E-02   4.11810452E-09
  -1.79999992E-02   4.25031299E-09
  -1.79500002E-02   4.38466374E-09
  -1.78999994E-02   4.52246818E-09
  -1.78500004E-02   4.66486005E-09
  -1.77999996E-02   4.81233453E-09
  -1.77500006E-02   4.96456742E-09
  -1.76999997E-02   5.12060039E-09
  -1.76500008E-02   5.27931032E-09
  -1.75999999E-02   5.43995959E-09
  -1.75500009E-02   5.60258240E-09
  -1.75000001E-02   5.76803538E-09
  -1.74499992E-02   5.93768679E-09
  -1.74000002E-02   6.11287643E-09
  -1.73499994E-02   6.29438945E-09
  -1.73000004E-02   6.48216991E-09
  -1.72499996E-02   6.67541356E-09
  -1.72000006E-02   6.87298840E-09
  -1.71499997E-02   7.07401160E-09
  -1.71000008E-02   7.27832195E-09
  -1.70499999E-02   7.48663798E-09
  -1.70000009E-02   7.70032926E-09
  -1.69500001E-02   7.92090304E-09
  -1.68999992E-02   8.14942513E-09
  -1.68500002E-02   8.38613712E-09
  -1.67999994E-02   8.63043770E-09
  -1.67500004E-02   8.88123974E-09
  -1.66999996E-02   9.13754583E-09
  -1.66500006E-02   9.39899181E-09
  -1.65999997E-02   9.66611413E-09
  -1.65500008E-02   9.94022464E-09
  -1.64999999E-02   1.02229398E-08
  -1.64500009E-02   1.05155760E-08
  -1.64000001E-02   1.08186811E-08
  -1.63499992E-02   1.11318936E-08
  -1.63000003E-02   1.14542180E-08
  -1.62499994E-02   1.17845769E-08
  -1.62000004E-02   1.21224071E-08
  -1.61499996E-02   1.24680248E-08
  -1.61000006E-02   1.28226239E-08
  -1.60499997E-02   1.31878659E-08
  -1.60000008E-02   1.35652831E-08
  -1.59499999E-02   1.39557210E-08
  -1.59000009E-02   1.43590979E-08
  -1.58500001E-02   1.47745673E-08
  -1.57999992E-02   1.52010227E-08
  -1.57500003E-02   1.56377187E-08
  -1.56999994E-02   1.60847424E-08
  -1.56500004E-02   1.65431100E-08
  -1.55999996E-02   1.70144698E-08
  -1.55499997E-02   1.75005130E-08
  -1.54999997E-02   1.80023747E-08
  -1.54499998E-02   1.85202769E-08
  -1.53999999E-02   1.90535712E-08
  -1.53500000E-02   1.96011811E-08
  -1.53000001E-02   2.01622221E-08
  -1.52500002E-02   2.07365396E-08
  -1.52000003E-02   2.13249507E-08
  -1.51500003E-02   2.19290222E-08
  -1.51000004E-02   2.25505588E-08
  -1.50499996E-02   2.31909603E-08
  -1.49999997E-02   2.38507756E-08
  -1.49499997E-02   2.45296246E-08
  -1.48999998E-02   2.52265338E-08
  -1.48499999E-02   2.59405404E-08
  -1.48000000E-02   2.66712945E-08
  -1.47500001E-02   2.74193859E-08
  -1.47000002E-02   2.81862764E-08
  -1.46500003E-02   2.89738278E-08
  -1.46000003E-02   2.97836902E-08
  -1.45500004E-02   3.06167429E-08
  -1.44999996E-02   3.14729256E-08
  -1.44499997E-02   3.23514442E-08
  -1.43999998E-02   3.32513466E-08
  -1.43499998E-02   3.41721247E-08
  -1.42999999E-02   3.51141765E-08
  -1.42500000E-02   3.60788128E-08
  -1.42000001E-02   3.70679274E-08
  -1.41500002E-02   3.80833782E-08
  -1.41000003E-02   3.91264052E-08
  -1.40500003E-02   4.01973104E-08
  -1.40000004E-02   4.12955963E-08
  -1.39499996E-02   4.24203925E-08
  -1.38999997E-02   4.35711378E-08
  -1.38499998E-02   4.47480417E-08
  -1.37999998E-02   4.59522838E-08
  -1.37499999E-02   4.71857469E-08
  -1.37000000E-02   4.84504703E-08
  -1.36500001E-02   4.97480386E-08
  -1.36000002E-02   5.10791764E-08
  -1.35500003E-02   5.24437311E-08
  -1.35000004E-02   5.38410596E-08
  -1.34500004E-02   5.52705792E-08
  -1.33999996E-02   5.67323966E-08
  -1.33499997E-02   5.82275383E-08
  -1.32999998E-02   5.97578449E-08
  -1.32499998E-02   6.13255153E-08
  -1.31999999E-02   6.29324575E-08
  -1.31500000E-02   6.45798437E-08
  -1.31000001E-02   6.62679369E-08
  -1.30500002E-02   6.79963819E-08
  -1.30000003E-02   6.97647096E-08
  -1.29500004E-02   7.15729769E-08
  -1.29000004E-02   7.34220933E-08
  -1.28499996E-02   7.53138494E-08
  -1.27999997E-02   7.72505260E-08
  -1.27499998E-02   7.92343329E-08
  -1.26999998E-02   8.12668617E-08
  -1.26499999E-02   8.33488514E-08
  -1.26000000E-02   8.54803162E-08
  -1.25500001E-02   8.76609931E-08
  -1.25000002E-02   8.98909605E-08
  -1.24500003E-02   9.21710424E-08
  -1.24000004E-02   9.45029583E-08
  -1.23500004E-02   9.68890461E-08
  -1.22999996E-02   9.93317713E-08
  -1.22499997E-02   1.01833152E-07
  -1.21999998E-02   1.04394417E-07
  -1.21499998E-02   1.07016021E-07
  -1.20999999E-02   1.09697993E-07
  -1.20500000E-02   1.12440489E-07
  -1.20000001E-02   1.15244283E-07
  -1.19500002E-02   1.18111025E-07
  -1.19000003E-02   1.21043087E-07
  -1.18500004E-02   1.24043083E-07
  -1.18000004E-02   1.27113452E-07
  -1.17499996E-02   1.30255899E-07
  -1.16999997E-02   1.33471374E-07
  -1.16499998E-02   1.36760292E-07
  -1.15999999E-02   1.40123007E-07
  -1.15499999E-02   1.43560314E-07
  -1.15000000E-02   1.47073806E-07
  -1.14500001E-02   1.50665841E-07
  -1.14000002E-02   1.54339176E-07
  -1.13500003E-02   1.58096555E-07
  -1.13000004E-02   1.61940179E-07
  -1.12500004E-02   1.65871512E-07
  -1.11999996E-02   1.69891351E-07
  -1.11499997E-02   1.74000292E-07
  -1.10999998E-02   1.78199201E-07
  -1.10499999E-02   1.82489629E-07
  -1.09999999E-02   1.86873876E-07
  -1.09500000E-02   1.91354843E-07
  -1.09000001E-02   1.95935513E-07
  -1.08500002E-02   2.00618530E-07
  -1.08000003E-02   2.05405911E-07
  -1.07500004E-02   2.10298964E-07
  -1.07000005E-02   2.15298684E-07
  -1.06499996E-02   2.20406093E-07
  -1.05999997E-02   2.25622742E-07
  -1.05499998E-02   2.30950945E-07
  -1.04999999E-02   2.36393632E-07
  -1.04499999E-02   2.41953984E-07
  -1.04000000E-02   2.47635029E-07
  -1.03500001E-02   2.53439282E-07
  -1.03000002E-02   2.59368562E-07
  -1.02500003E-02   2.65424234E-07
  -1.02000004E-02   2.71607547E-07
  -1.01500005E-02   2.77920066E-07
  -1.00999996E-02   2.84364091E-07
  -1.00499997E-02   2.90942523E-07
  -9.99999978E-03   2.97658715E-07
  -9.94999986E-03   3.04516107E-07
  -9.89999995E-03   3.11517624E-07
  -9.85000003E-03   3.18665656E-07
  -9.80000012E-03   3.25962048E-07
  -9.75000020E-03   3.33408366E-07
  -9.70000029E-03   3.41006398E-07
  -9.65000037E-03   3.48758448E-07
  -9.60000046E-03   3.56667471E-07
  -9.54999961E-03   3.64736991E-07
  -9.49999969E-03   3.72970703E-07
  -9.44999978E-03   3.81372018E-07
  -9.39999986E-03   3.89943864E-07
  -9.34999995E-03   3.98688655E-07
  -9.30000003E-03   4.07608326E-07
  -9.25000012E-03   4.16704751E-07
  -9.20000020E-03   4.25980346E-07
  -9.15000029E-03   4.35438011E-07
  -9.10000037E-03   4.45081184E-07
  -9.05000046E-03   4.54913732E-07
  -8.99999961E-03   4.64939461E-07
  -8.94999970E-03   4.75161926E-07
  -8.89999978E-03   4.85583882E-07
  -8.84999987E-03   4.96207747E-07
  -8.79999995E-03   5.07035736E-07
  -8.75000004E-03   5.18070351E-07
  -8.70000012E-03   5.29314434E-07
  -8.65000021E-03   5.40771566E-07
  -8.60000029E-03   5.52445783E-07
  -8.55000038E-03   5.64341292E-07
  -8.50000046E-03   5.76462014E-07
  -8.44999962E-03   5.88811361E-07
  -8.39999970E-03   6.01392287E-07
  -8.34999979E-03   6.14207408E-07
  -8.29999987E-03   6.27259112E-07
  -8.24999996E-03   6.40550525E-07
  -8.20000004E-03   6.54085113E-07
  -8.15000013E-03   6.67867027E-07
  -8.10000021E-03   6.81900531E-07
  -8.05000030E-03   6.96190000E-07
  -8.00000038E-03   7.10739187E-07
  -7.95000046E-03   7.25551558E-07
  -7.89999962E-03   7.40629957E-07
  -7.84999970E-03   7.55977055E-07
  -7.79999979E-03   7.71595751E-07
  -7.74999987E-03   7.87489569E-07
  -7.69999996E-03   8.03662488E-07
  -7.65000004E-03   8.20118998E-07
  -7.60000013E-03   8.36863762E-07
  -7.55000021E-03   8.53901213E-07
  -7.49999983E-03   8.71235045E-07
  -7.44999992E-03   8.88868669E-07
  -7.40000000E-03   9.06804928E-07
  -7.35000009E-03   9.25046834E-07
  -7.30000017E-03   9.43597740E-07
  -7.24999979E-03   9.62461627E-07
  -7.19999988E-03   9.81642984E-07
  -7.14999996E-03   1.00114676E-06
  -7.10000005E-03   1.02097772E-06
  -7.05000013E-03   1.04114008E-06
  -7.00000022E-03   1.06163770E-06
  -6.94999984E-03   1.08247355E-06
  -6.89999992E-03   1.10365033E-06
  -6.85000001E-03   1.12517148E-06
  -6.80000009E-03   1.14704062E-06
  -6.75000018E-03   1.16926230E-06
  -6.69999979E-03   1.19184131E-06
  -6.64999988E-03   1.21478286E-06
  -6.59999996E-03   1.23809127E-06
  -6.55000005E-03   1.26177076E-06
  -6.50000013E-03   1.28582451E-06
  -6.45000022E-03   1.31025536E-06
  -6.39999984E-03   1.33506614E-06
  -6.34999992E-03   1.36026074E-06
  -6.30000001E-03   1.38584335E-06
  -6.25000009E-03   1.41181897E-06
  -6.20000018E-03   1.43819284E-06
  -6.14999980E-03   1.46496973E-06
  -6.09999988E-03   1.49215396E-06
  -6.04999997E-03   1.51974893E-06
  -6.00000005E-03   1.54775751E-06
  -5.95000014E-03   1.57618251E-06
  -5.90000022E-03   1.60502725E-06
  -5.84999984E-03   1.63429570E-06
  -5.79999993E-03   1.66399252E-06
  -5.75000001E-03   1.69412317E-06
  -5.70000010E-03   1.72469231E-06
  -5.65000018E-03   1.75570472E-06
  -5.59999980E-03   1.78716346E-06
  -5.54999989E-03   1.81907114E-06
  -5.49999997E-03   1.85143040E-06
  -5.45000006E-03   1.88424406E-06
  -5.40000014E-03   1.91751565E-06
  -5.35000023E-03   1.95124971E-06
  -5.29999984E-03   1.98545126E-06
  -5.24999993E-03   2.02012575E-06
  -5.20000001E-03   2.05527704E-06
  -5.15000010E-03   2.09090854E-06
  -5.10000018E-03   2.12702298E-06
  -5.04999980E-03   2.16362218E-06
  -4.99999989E-03   2.20070865E-06
  -4.94999997E-03   2.23828556E-06
  -4.90000006E-03   2.27635678E-06
  -4.85000014E-03   2.31492731E-06
  -4.80000023E-03   2.35400194E-06
  -4.74999985E-03   2.39358496E-06
  -4.69999993E-03   2.43367936E-06
  -4.65000002E-03   2.47428738E-06
  -4.60000010E-03   2.51541042E-06
  -4.55000019E-03   2.55705004E-06
  -4.49999981E-03   2.59920807E-06
  -4.44999989E-03   2.64188839E-06
  -4.39999998E-03   2.68509484E-06
  -4.35000006E-03   2.72883199E-06
  -4.30000015E-03   2.77310346E-06
  -4.25000023E-03   2.81791245E-06
  -4.19999985E-03   2.86326031E-06
  -4.14999994E-03   2.90914795E-06
  -4.10000002E-03   2.95557538E-06
  -4.05000011E-03   3.00254442E-06
  -4.00000019E-03   3.05005688E-06
  -3.94999981E-03   3.09811639E-06
  -3.89999989E-03   3.14672661E-06
  -3.84999998E-03   3.19589117E-06
  -3.80000006E-03   3.24561256E-06
  -3.74999992E-03   3.29589147E-06
  -3.70000000E-03   3.34672768E-06
  -3.65000009E-03   3.39812004E-06
  -3.59999994E-03   3.45006833E-06
  -3.55000002E-03   3.50257369E-06
  -3.50000011E-03   3.55563816E-06
  -3.44999996E-03   3.60926492E-06
  -3.40000005E-03   3.66345648E-06
  -3.34999990E-03   3.71821397E-06
  -3.29999998E-03   3.77353763E-06
  -3.25000007E-03   3.82942562E-06
  -3.19999992E-03   3.88587523E-06
  -3.15000000E-03   3.94288463E-06
  -3.10000009E-03   4.00045383E-06
  -3.04999994E-03   4.05858191E-06
  -3.00000003E-03   4.11727206E-06
  -2.95000011E-03   4.17652473E-06
  -2.89999996E-03   4.23633992E-06
  -2.85000005E-03   4.29671672E-06
  -2.79999990E-03   4.35765196E-06
  -2.74999999E-03   4.41914199E-06
  -2.70000007E-03   4.48118180E-06
  -2.64999992E-03   4.54376959E-06
  -2.60000001E-03   4.60690262E-06
  -2.55000009E-03   4.67058180E-06
  -2.49999994E-03   4.73480577E-06
  -2.45000003E-03   4.79957544E-06
  -2.40000011E-03   4.86488625E-06
  -2.34999997E-03   4.93073458E-06
  -2.30000005E-03   4.99711314E-06
  -2.24999990E-03   5.06401557E-06
  -2.19999999E-03   5.13143550E-06
  -2.15000007E-03   5.19936975E-06
  -2.09999993E-03   5.26781605E-06
  -2.05000001E-03   5.33677257E-06
  -2.00000009E-03   5.40623569E-06
  -1.94999995E-03   5.47620175E-06
  -1.90000003E-03   5.54666303E-06
  -1.85000000E-03   5.61761044E-06
  -1.79999997E-03   5.68903442E-06
  -1.75000005E-03   5.76092634E-06
  -1.70000002E-03   5.83328028E-06
  -1.64999999E-03   5.90608988E-06
  -1.59999996E-03   5.97935195E-06
  -1.55000004E-03   6.05306150E-06
  -1.50000001E-03   6.12721215E-06
  -1.44999998E-03   6.20179389E-06
  -1.39999995E-03   6.27679583E-06
  -1.35000004E-03   6.35220431E-06
  -1.30000000E-03   6.42800751E-06
  -1.24999997E-03   6.50419406E-06
  -1.20000006E-03   6.58075578E-06
  -1.15000003E-03   6.65768721E-06
  -1.09999999E-03   6.73498016E-06
  -1.04999996E-03   6.81262554E-06
  -1.00000005E-03   6.89061289E-06
  -9.50000016E-04   6.96892630E-06
  -8.99999985E-04   7.04754939E-06
  -8.50000011E-04   7.12646397E-06
  -7.99999980E-04   7.20565686E-06
  -7.50000007E-04   7.28511623E-06
  -6.99999975E-04   7.36483207E-06
  -6.50000002E-04   7.44479439E-06
  -6.00000028E-04   7.52499272E-06
  -5.49999997E-04   7.60541116E-06
  -5.00000024E-04   7.68603240E-06
  -4.49999992E-04   7.76683464E-06
  -3.99999990E-04   7.84779877E-06
  -3.49999988E-04   7.92890296E-06
  -3.00000014E-04   8.01013266E-06
  -2.50000012E-04   8.09147423E-06
  -1.99999995E-04   8.17291493E-06
  -1.50000007E-04   8.25444022E-06
  -9.99999975E-05   8.33603372E-06
  -4.99999987E-05   8.41767269E-06
   0.00000000       8.49933167E-06
   4.99999987E-05   8.58098610E-06
   9.99999975E-05   8.66261144E-06
   1.50000007E-04   8.74418492E-06
   1.99999995E-04   8.82569111E-06
   2.50000012E-04   8.90711181E-06
   3.00000014E-04   8.98843064E-06
   3.49999988E-04   9.06962487E-06
   3.99999990E-04   9.15067176E-06
   4.49999992E-04   9.23154221E-06
   5.00000024E-04   9.31220438E-06
   5.49999997E-04   9.39262827E-06
   6.00000028E-04   9.47278750E-06
   6.50000002E-04   9.55265841E-06
   6.99999975E-04   9.63222192E-06
   7.50000007E-04   9.71145710E-06
   7.99999980E-04   9.79034030E-06
   8.50000011E-04   9.86884243E-06
   8.99999985E-04   9.94693164E-06
   9.50000016E-04   1.00245707E-05
   1.00000005E-03   1.01017231E-05
   1.04999996E-03   1.01783571E-05
   1.09999999E-03   1.02544464E-05
   1.15000003E-03   1.03299626E-05
   1.20000006E-03   1.04048831E-05
   1.24999997E-03   1.04791834E-05
   1.30000000E-03   1.05528279E-05
   1.35000004E-03   1.06257812E-05
   1.39999995E-03   1.06980015E-05
   1.44999998E-03   1.07694459E-05
   1.50000001E-03   1.08400764E-05
   1.55000004E-03   1.09098592E-05
   1.59999996E-03   1.09787634E-05
   1.64999999E-03   1.10467608E-05
   1.70000002E-03   1.11138224E-05
   1.75000005E-03   1.11799118E-05
   1.79999997E-03   1.12449898E-05
   1.85000000E-03   1.13090091E-05
   1.90000003E-03   1.13719216E-05
   1.94999995E-03   1.14336817E-05
   2.00000009E-03   1.14942477E-05
   2.05000001E-03   1.15535850E-05
   2.09999993E-03   1.16116626E-05
   2.15000007E-03   1.16684478E-05
   2.19999999E-03   1.17239024E-05
   2.24999990E-03   1.17779809E-05
   2.30000005E-03   1.18306325E-05
   2.34999997E-03   1.18818043E-05
   2.40000011E-03   1.19314427E-05
   2.45000003E-03   1.19795004E-05
   2.49999994E-03   1.20259383E-05
   2.55000009E-03   1.20707182E-05
   2.60000001E-03   1.21138064E-05
   2.64999992E-03   1.21551611E-05
   2.70000007E-03   1.21947351E-05
   2.74999999E-03   1.22324709E-05
   2.79999990E-03   1.22683095E-05