  -3.99999991E-02   0.00000000    
  -3.99499983E-02   0.00000000    
  -3.99000011E-02   0.00000000    
  -3.98500003E-02   0.00000000    
  -3.97999994E-02  -2.88929192E-17
  -3.97499986E-02  -2.22161363E-16
  -3.97000015E-02  -8.60077625E-16
  -3.96500006E-02  -2.26480093E-15
  -3.95999998E-02  -4.66854025E-15
  -3.95499989E-02  -8.29425758E-15
  -3.95000018E-02  -1.35605113E-14
  -3.94500010E-02  -2.08659435E-14
  -3.94000001E-02  -2.96858045E-14
  -3.93499993E-02  -3.77998549E-14
  -3.92999984E-02  -4.20338948E-14
  -3.92500013E-02  -4.06735023E-14
  -3.92000005E-02  -3.55718737E-14
  -3.91499996E-02  -3.15216061E-14
  -3.90999988E-02  -3.28615038E-14
  -3.90500017E-02  -4.02095552E-14
  -3.90000008E-02  -5.01372998E-14
  -3.89500000E-02  -5.73378760E-14
  -3.88999991E-02  -5.63387160E-14
  -3.88499983E-02  -4.13933922E-14
  -3.88000011E-02  -6.83089170E-15
  -3.87500003E-02   4.95558422E-14
  -3.86999995E-02   1.22112972E-13
  -3.86499986E-02   1.97989330E-13
  -3.86000015E-02   2.65909826E-13
  -3.85500006E-02   3.27489907E-13
  -3.84999998E-02   4.00738009E-13
  -3.84499989E-02   5.11183760E-13
  -3.84000018E-02   6.77419221E-13
  -3.83500010E-02   9.02551742E-13
  -3.83000001E-02   1.17595278E-12
  -3.82499993E-02   1.47936090E-12
  -3.81999984E-02   1.79016925E-12
  -3.81500013E-02   2.08319863E-12
  -3.81000005E-02   2.33800262E-12
  -3.80499996E-02   2.55217917E-12
  -3.79999988E-02   2.74918152E-12
  -3.79500017E-02   2.96827255E-12
  -3.79000008E-02   3.23969866E-12
  -3.78500000E-02   3.56449809E-12
  -3.77999991E-02   3.91617684E-12
  -3.77499983E-02   4.26085599E-12
  -3.77000012E-02   4.57543768E-12
  -3.76500003E-02   4.84867918E-12
  -3.75999995E-02   5.07100915E-12
  -3.75499986E-02   5.23038080E-12
  -3.75000015E-02   5.31996322E-12
  -3.74500006E-02   5.34448050E-12
  -3.73999998E-02   5.31053240E-12
  -3.73499990E-02   5.20587653E-12
  -3.73000018E-02   4.98911936E-12
  -3.72500010E-02   4.60225694E-12
  -3.72000001E-02   3.99320767E-12
  -3.71499993E-02   3.12468627E-12
  -3.70999984E-02   1.96505984E-12
  -3.70500013E-02   4.84020593E-13
  -3.70000005E-02  -1.32458140E-12
  -3.69499996E-02  -3.40319439E-12
  -3.68999988E-02  -5.61509346E-12
  -3.68500017E-02  -7.78404164E-12
  -3.68000008E-02  -9.77517633E-12
  -3.67500000E-02  -1.15675169E-11
  -3.66999991E-02  -1.32754606E-11
  -3.66499983E-02  -1.51141530E-11
  -3.66000012E-02  -1.73311556E-11
  -3.65500003E-02  -2.01252851E-11
  -3.64999995E-02  -2.35647162E-11
  -3.64499986E-02  -2.75276434E-11
  -3.64000015E-02  -3.17103670E-11
  -3.63500006E-02  -3.57368024E-11
  -3.62999998E-02  -3.93402602E-11
  -3.62499990E-02  -4.25154911E-11
  -3.62000018E-02  -4.55284491E-11
  -3.61500010E-02  -4.87498930E-11
  -3.61000001E-02  -5.23935825E-11
  -3.60499993E-02  -5.63053770E-11
  -3.59999985E-02  -5.99226987E-11
  -3.59500013E-02  -6.24380478E-11
  -3.59000005E-02  -6.31131189E-11
  -3.58499996E-02  -6.16317483E-11
  -3.57999988E-02  -5.83474727E-11
  -3.57500017E-02  -5.42787759E-11
  -3.57000008E-02  -5.07715675E-11
  -3.56500000E-02  -4.88997523E-11
  -3.55999991E-02  -4.88554544E-11
  -3.55499983E-02  -4.96626074E-11
  -3.55000012E-02  -4.94346127E-11
  -3.54500003E-02  -4.61270813E-11
  -3.53999995E-02  -3.84621571E-11
  -3.53499986E-02  -2.65852566E-11
  -3.53000015E-02  -1.21219137E-11
  -3.52500007E-02   2.44235079E-12
  -3.51999998E-02   1.48465771E-11
  -3.51499990E-02   2.41695240E-11
  -3.51000018E-02   3.14631723E-11
  -3.50500010E-02   3.95191831E-11
  -3.50000001E-02   5.17274557E-11
  -3.49499993E-02   7.04441991E-11
  -3.48999985E-02   9.56296570E-11
  -3.48500013E-02   1.24501048E-10
  -3.48000005E-02   1.52511365E-10
  -3.47499996E-02   1.75307532E-10
  -3.46999988E-02   1.90789801E-10
  -3.46500017E-02   2.00275754E-10
  -3.46000008E-02   2.08131568E-10
  -3.45500000E-02   2.19902568E-10
  -3.44999991E-02   2.39668979E-10
  -3.44499983E-02   2.67789596E-10
  -3.44000012E-02   3.00166919E-10
  -3.43500003E-02   3.29601901E-10
  -3.42999995E-02   3.48863660E-10
  -3.42499986E-02   3.54177354E-10
  -3.42000015E-02   3.47426088E-10
  -3.41500007E-02   3.35796363E-10
  -3.40999998E-02   3.28747418E-10
  -3.40499990E-02   3.33523376E-10
  -3.40000018E-02   3.51262297E-10
  -3.39500010E-02   3.75637799E-10
  -3.39000002E-02   3.94917238E-10
  -3.38499993E-02   3.96789546E-10
  -3.37999985E-02   3.73975406E-10
  -3.37500013E-02   3.28064798E-10
  -3.37000005E-02   2.69573669E-10
  -3.36499996E-02   2.13770252E-10
  -3.35999988E-02   1.73810341E-10
  -3.35500017E-02   1.54230559E-10
  -3.35000008E-02   1.48006787E-10
  -3.34500000E-02   1.38947173E-10
  -3.33999991E-02   1.08724731E-10
  -3.33499983E-02   4.55338753E-11
  -3.33000012E-02  -4.96523031E-11
  -3.32500003E-02  -1.62384370E-10
  -3.31999995E-02  -2.70350492E-10
  -3.31499986E-02  -3.53163970E-10
  -3.31000015E-02  -4.02068351E-10
  -3.30500007E-02  -4.24970087E-10
  -3.29999998E-02  -4.43991510E-10
  -3.29499990E-02  -4.86021723E-10
  -3.29000019E-02  -5.70170910E-10
  -3.28500010E-02  -6.97901958E-10
  -3.28000002E-02  -8.50811976E-10
  -3.27499993E-02  -9.97732008E-10
  -3.26999985E-02  -1.10839593E-09
  -3.26500013E-02  -1.16757448E-09
  -3.26000005E-02  -1.18297494E-09
  -3.25499997E-02  -1.18273857E-09
  -3.24999988E-02  -1.20300470E-09
  -3.24500017E-02  -1.27071298E-09
  -3.24000008E-02  -1.38941936E-09
  -3.23500000E-02  -1.53510571E-09
  -3.22999991E-02  -1.66480818E-09
  -3.22499983E-02  -1.73502357E-09
  -3.22000012E-02  -1.72190395E-09
  -3.21500003E-02  -1.63370684E-09
  -3.20999995E-02  -1.50897594E-09
  -3.20499986E-02  -1.40030532E-09
  -3.20000015E-02  -1.35044786E-09
  -3.19500007E-02  -1.37153899E-09
  -3.18999998E-02  -1.43736822E-09
  -3.18499990E-02  -1.49308643E-09
  -3.18000019E-02  -1.47885482E-09
  -3.17500010E-02  -1.35729694E-09
  -3.17000002E-02  -1.13218379E-09
  -3.16499993E-02  -8.49053217E-10
  -3.15999985E-02  -5.76294623E-10
  -3.15500014E-02  -3.74382858E-10
  -3.15000005E-02  -2.67072947E-10
  -3.14499997E-02  -2.28312341E-10
  -3.13999988E-02  -1.91961738E-10
  -3.13500017E-02  -8.09828662E-11
  -3.13000008E-02   1.56649582E-10
  -3.12500000E-02   5.21844790E-10
  -3.11999992E-02   9.60775237E-10
  -3.11500002E-02   1.38657441E-09
  -3.10999993E-02   1.71753856E-09
  -3.10500003E-02   1.91490557E-09
  -3.09999995E-02   2.00257300E-09
  -3.09500005E-02   2.05852202E-09
  -3.08999997E-02   2.18037410E-09
  -3.08500007E-02   2.43986120E-09
  -3.07999998E-02   2.84709989E-09
  -3.07500008E-02   3.34200601E-09
  -3.07000000E-02   3.81821463E-09
  -3.06499992E-02   4.16979695E-09
  -3.06000002E-02   4.33989777E-09
  -3.05499993E-02   4.34869607E-09
  -3.05000003E-02   4.28675184E-09
  -3.04499995E-02   4.27524283E-09
  -3.04000005E-02   4.41002612E-09
  -3.03499997E-02   4.71467843E-09
  -3.03000007E-02   5.12476994E-09
  -3.02499998E-02   5.51223867E-09
  -3.02000009E-02   5.74049519E-09
  -3.01500000E-02   5.72605030E-09
  -3.00999992E-02   5.47823342E-09
  -3.00500002E-02   5.09761744E-09
  -2.99999993E-02   4.73228390E-09
  -2.99500003E-02   4.51070292E-09
  -2.98999995E-02   4.48142989E-09
  -2.98500005E-02   4.58763605E-09
  -2.97999997E-02   4.68940975E-09
  -2.97500007E-02   4.62521932E-09
  -2.96999998E-02   4.28567182E-09
  -2.96500009E-02   3.66609254E-09
  -2.96000000E-02   2.87282953E-09
  -2.95499992E-02   2.07863438E-09
  -2.95000002E-02   1.44583912E-09
  -2.94499993E-02   1.05182874E-09
  -2.94000003E-02   8.51380577E-10
  -2.93499995E-02   6.94386548E-10
  -2.93000005E-02   3.92455707E-10
  -2.92499997E-02  -1.94997310E-10
  -2.92000007E-02  -1.09427811E-09
  -2.91499998E-02  -2.20147345E-09
  -2.91000009E-02  -3.32566863E-09
  -2.90500000E-02  -4.27317381E-09
  -2.89999992E-02  -4.93533747E-09
  -2.89500002E-02  -5.33973044E-09
  -2.88999993E-02  -5.63995917E-09
  -2.88500004E-02  -6.04683548E-09
  -2.87999995E-02  -6.73088341E-09
  -2.87500005E-02  -7.74037545E-09
  -2.86999997E-02  -8.97313601E-09
  -2.86500007E-02  -1.02164437E-08
  -2.85999998E-02  -1.12384075E-08
  -2.85500009E-02  -1.18903545E-08
  -2.85000000E-02  -1.21739205E-08
  -2.84499992E-02  -1.22417134E-08
  -2.84000002E-02  -1.23297044E-08
  -2.83499993E-02  -1.26503394E-08
  -2.83000004E-02  -1.32938212E-08
  -2.82499995E-02  -1.41825405E-08
  -2.82000005E-02  -1.51004684E-08
  -2.81499997E-02  -1.57858473E-08
  -2.81000007E-02  -1.60463483E-08
  -2.80499998E-02  -1.58447051E-08
  -2.80000009E-02  -1.53156670E-08
  -2.79500000E-02  -1.47055577E-08
  -2.78999992E-02  -1.42608307E-08
  -2.78500002E-02  -1.41153365E-08
  -2.77999993E-02  -1.42267496E-08
  -2.77500004E-02  -1.43913832E-08
  -2.76999995E-02  -1.43318077E-08
  -2.76500005E-02  -1.38192640E-08
  -2.75999997E-02  -1.27764785E-08
  -2.75500007E-02  -1.13141443E-08
  -2.74999999E-02  -9.68377467E-09
  -2.74500009E-02  -8.16705992E-09
  -2.74000000E-02  -6.95082703E-09
  -2.73499992E-02  -6.04361228E-09
  -2.73000002E-02  -5.27165067E-09
  -2.72499993E-02  -4.35655823E-09
  -2.72000004E-02  -3.04056846E-09
  -2.71499995E-02  -1.20409926E-09
  -2.71000005E-02   1.07671383E-09
  -2.70499997E-02   3.55864094E-09
  -2.70000007E-02   5.93448712E-09
  -2.69499999E-02   7.96589816E-09
  -2.69000009E-02   9.58703339E-09
  -2.68500000E-02   1.09327472E-08
  -2.67999992E-02   1.22776154E-08
  -2.67500002E-02   1.39118272E-08
  -2.66999993E-02   1.60085278E-08
  -2.66500004E-02   1.85411828E-08
  -2.65999995E-02   2.12876312E-08
  -2.65500005E-02   2.39196307E-08
  -2.64999997E-02   2.61395243E-08
  -2.64500007E-02   2.78049725E-08
  -2.63999999E-02   2.89872304E-08
  -2.63500009E-02   2.99369631E-08
  -2.63000000E-02   3.09716128E-08
  -2.62499992E-02   3.23322240E-08
  -2.62000002E-02   3.40717321E-08
  -2.61499994E-02   3.60240122E-08
  -2.61000004E-02   3.78681122E-08
  -2.60499995E-02   3.92605699E-08
  -2.60000005E-02   3.99789748E-08
  -2.59499997E-02   4.00147186E-08
  -2.59000007E-02   3.95745978E-08
  -2.58499999E-02   3.89896435E-08
  -2.58000009E-02   3.85695955E-08
  -2.57500000E-02   3.84650356E-08
  -2.56999992E-02   3.85966388E-08
  -2.56500002E-02   3.86828027E-08
  -2.55999994E-02   3.83559140E-08
  -2.55500004E-02   3.73184896E-08
  -2.54999995E-02   3.54718708E-08
  -2.54500005E-02   3.29618892E-08
  -2.53999997E-02   3.01193310E-08
  -2.53500007E-02   2.73189347E-08
  -2.52999999E-02   2.48172505E-08
  -2.52500009E-02   2.26391936E-08
  -2.52000000E-02   2.05641086E-08
  -2.51499992E-02   1.82190085E-08
  -2.51000002E-02   1.52415147E-08
  -2.50499994E-02   1.14445591E-08
  -2.50000004E-02   6.91071600E-09
  -2.49499995E-02   1.97278771E-09
  -2.49000005E-02  -2.91591573E-09
  -2.48499997E-02  -7.36879535E-09
  -2.48000007E-02  -1.12304051E-08
  -2.47499999E-02  -1.46451473E-08
  -2.47000009E-02  -1.79963031E-08
  -2.46500000E-02  -2.17378275E-08
  -2.45999992E-02  -2.61889568E-08
  -2.45500002E-02  -3.13801465E-08
  -2.44999994E-02  -3.70198947E-08
  -2.44500004E-02  -4.26014637E-08
  -2.43999995E-02  -4.76085198E-08
  -2.43500005E-02  -5.17330534E-08
  -2.42999997E-02  -5.50100232E-08
  -2.42500007E-02  -5.78050567E-08
  -2.41999999E-02  -6.06539388E-08
  -2.41500009E-02  -6.40192539E-08
  -2.41000000E-02  -6.80691699E-08
  -2.40499992E-02  -7.25787004E-08
  -2.40000002E-02  -7.70030795E-08
  -2.39499994E-02  -8.06968075E-08
  -2.39000004E-02  -8.31862366E-08
  -2.38499995E-02  -8.43764667E-08
  -2.38000005E-02  -8.45979358E-08
  -2.37499997E-02  -8.44649506E-08
  -2.37000007E-02  -8.46020640E-08
  -2.36499999E-02  -8.53551470E-08
  -2.36000009E-02  -8.66171135E-08
  -2.35500000E-02  -8.78532873E-08
  -2.34999992E-02  -8.83228566E-08
  -2.34500002E-02  -8.74035493E-08
  -2.33999994E-02  -8.48758788E-08
  -2.33500004E-02  -8.10355232E-08
  -2.32999995E-02  -7.65761499E-08
  -2.32500006E-02  -7.22874489E-08
  -2.31999997E-02  -6.86988955E-08
  -2.31500007E-02  -6.58285089E-08
  -2.30999999E-02  -6.31554542E-08
  -2.30500009E-02  -5.98396710E-08
  -2.30000000E-02  -5.50980488E-08
  -2.29499992E-02  -4.85714935E-08
  -2.29000002E-02  -4.05146494E-08
  -2.28499994E-02  -3.17123074E-08
  -2.28000004E-02  -2.31501218E-08
  -2.27499995E-02  -1.55819055E-08
  -2.27000006E-02  -9.18757248E-09
  -2.26499997E-02  -3.48338203E-09
  -2.26000007E-02   2.46618503E-09
  -2.25499999E-02   9.62132685E-09
  -2.25000009E-02   1.85106810E-08
  -2.24500000E-02   2.89552595E-08
  -2.23999992E-02   4.01061051E-08
  -2.23500002E-02   5.07892608E-08
  -2.22999994E-02   6.00122902E-08
  -2.22500004E-02   6.74049616E-08
  -2.21999995E-02   7.33886623E-08
  -2.21500006E-02   7.89876182E-08
  -2.20999997E-02   8.53563833E-08
  -2.20500007E-02   9.32330337E-08
  -2.19999999E-02   1.02568443E-07
  -2.19500009E-02   1.12507031E-07
  -2.19000001E-02   1.21737870E-07
  -2.18499992E-02   1.29065825E-07
  -2.18000002E-02   1.33945846E-07
  -2.17499994E-02   1.36733675E-07
  -2.17000004E-02   1.38528179E-07
  -2.16499995E-02   1.40665534E-07
  -2.16000006E-02   1.44089213E-07
  -2.15499997E-02   1.48883899E-07
  -2.15000007E-02   1.54196130E-07
  -2.14499999E-02   1.58589273E-07
  -2.14000009E-02   1.60680727E-07
  -2.13500001E-02   1.59773876E-07
  -2.12999992E-02   1.56190779E-07
  -2.12500002E-02   1.51144704E-07
  -2.11999994E-02   1.46198403E-07
  -2.11500004E-02   1.42547421E-07
  -2.10999995E-02   1.40455683E-07
  -2.10500006E-02   1.39109190E-07
  -2.09999997E-02   1.36967955E-07
  -2.09500007E-02   1.32465090E-07
  -2.08999999E-02   1.24739827E-07
  -2.08500009E-02   1.14065379E-07
  -2.08000001E-02   1.01762673E-07
  -2.07499992E-02   8.96268446E-08
  -2.07000002E-02   7.91226356E-08
  -2.06499994E-02   7.07144139E-08
  -2.06000004E-02   6.36458282E-08
  -2.05499995E-02   5.62820404E-08
  -2.05000006E-02   4.68679353E-08
  -2.04499997E-02   3.43620208E-08
  -2.04000007E-02   1.89625613E-08
  -2.03499999E-02   2.07393147E-09
  -2.03000009E-02  -1.42842707E-08
  -2.02500001E-02  -2.83644059E-08
  -2.01999992E-02  -3.94712245E-08
  -2.01500002E-02  -4.82694595E-08
  -2.00999994E-02  -5.64664866E-08
  -2.00500004E-02  -6.60063932E-08
  -1.99999996E-02  -7.81399621E-08
  -1.99500006E-02  -9.27999935E-08
  -1.98999997E-02  -1.08577943E-07
  -1.98500007E-02  -1.23322337E-07
  -1.97999999E-02  -1.35094297E-07
  -1.97500009E-02  -1.43044119E-07
  -1.97000001E-02  -1.47799312E-07
  -1.96499992E-02  -1.51173595E-07
  -1.96000002E-02  -1.55317665E-07
  -1.95499994E-02  -1.61697884E-07
  -1.95000004E-02  -1.70373312E-07
  -1.94499996E-02  -1.79914466E-07
  -1.94000006E-02  -1.88016116E-07
  -1.93499997E-02  -1.92530862E-07
  -1.93000007E-02  -1.92450329E-07
  -1.92499999E-02  -1.88378678E-07
  -1.92000009E-02  -1.82270725E-07
  -1.91500001E-02  -1.76540524E-07
  -1.90999992E-02  -1.72941881E-07
  -1.90500002E-02  -1.71737156E-07
  -1.89999994E-02  -1.71545921E-07
  -1.89500004E-02  -1.69956394E-07
  -1.88999996E-02  -1.64630109E-07
  -1.88500006E-02  -1.54397199E-07
  -1.87999997E-02  -1.39833958E-07
  -1.87500007E-02  -1.23044913E-07
  -1.86999999E-02  -1.06738028E-07
  -1.86500009E-02  -9.30085093E-08
  -1.86000001E-02  -8.23899882E-08
  -1.85499992E-02  -7.36167962E-08
  -1.85000002E-02  -6.42173674E-08
  -1.84499994E-02  -5.16765084E-08
  -1.84000004E-02  -3.46372211E-08
  -1.83499996E-02  -1.35890978E-08
  -1.83000006E-02   9.28565136E-09
  -1.82499997E-02   3.10493888E-08
  -1.82000007E-02   4.93082837E-08
  -1.81499999E-02   6.32745909E-08
  -1.81000009E-02   7.40973789E-08
  -1.80500001E-02   8.42989962E-08
  -1.79999992E-02   9.65659837E-08
  -1.79500002E-02   1.12441192E-07
  -1.78999994E-02   1.31521091E-07
  -1.78500004E-02   1.51545990E-07
  -1.77999996E-02   1.69350471E-07
  -1.77500006E-02   1.82242275E-07
  -1.76999997E-02   1.89180199E-07
  -1.76500008E-02   1.91210916E-07
  -1.75999999E-02   1.90947816E-07
  -1.75500009E-02   1.91318676E-07
  -1.75000001E-02   1.94148214E-07
  -1.74499992E-02   1.99230300E-07
  -1.74000002E-02   2.04327378E-07
  -1.73499994E-02   2.06113953E-07
  -1.73000004E-02   2.01640447E-07
  -1.72499996E-02   1.89644254E-07
  -1.72000006E-02   1.71108397E-07
  -1.71499997E-02   1.48794157E-07
  -1.71000008E-02   1.25952667E-07
  -1.70499999E-02   1.04794566E-07
  -1.70000009E-02   8.54131983E-08
  -1.69500001E-02   6.56632864E-08
  -1.68999992E-02   4.20702868E-08
  -1.68500002E-02   1.13747936E-08
  -1.67999994E-02  -2.80002652E-08
  -1.67500004E-02  -7.52367697E-08
  -1.66999996E-02  -1.27493934E-07
  -1.66500006E-02  -1.81195290E-07
  -1.65999997E-02  -2.33659719E-07
  -1.65500008E-02  -2.84344850E-07
  -1.64999999E-02  -3.35122763E-07
  -1.64500009E-02  -3.89442675E-07
  -1.64000001E-02  -4.50755664E-07
  -1.63499992E-02  -5.20909452E-07
  -1.63000003E-02  -5.99259749E-07
  -1.62499994E-02  -6.82918767E-07
  -1.62000004E-02  -7.68021096E-07
  -1.61499996E-02  -8.51461721E-07
  -1.61000006E-02  -9.32289709E-07
  -1.60499997E-02  -1.01212424E-06
  -1.60000008E-02  -1.09441930E-06
  -1.59499999E-02  -1.18287994E-06
  -1.59000009E-02  -1.27971987E-06
  -1.58500001E-02  -1.38455505E-06
  -1.57999992E-02  -1.49448420E-06
  -1.57500003E-02  -1.60532977E-06
  -1.56999994E-02  -1.71348620E-06
  -1.56500004E-02  -1.81752216E-06
  -1.55999996E-02  -1.91877598E-06
  -1.55499997E-02  -2.02069873E-06
  -1.54999997E-02  -2.12727991E-06
  -1.54499998E-02  -2.24121368E-06
  -1.53999999E-02  -2.36256051E-06
  -1.53500000E-02  -2.48860874E-06
  -1.53000001E-02  -2.61501100E-06
  -1.52500002E-02  -2.73769228E-06
  -1.52000003E-02  -2.85468241E-06
  -1.51500003E-02  -2.96698727E-06
  -1.51000004E-02  -3.07811138E-06
  -1.50499996E-02  -3.19245828E-06
  -1.49999997E-02  -3.31332467E-06
  -1.49499997E-02  -3.44136924E-06
  -1.48999998E-02  -3.57427166E-06
  -1.48499999E-02  -3.70769931E-06
  -1.48000000E-02  -3.83719544E-06
  -1.47500001E-02  -3.96017685E-06
  -1.47000002E-02  -4.07712878E-06
  -1.46500003E-02  -4.19142270E-06
  -1.46000003E-02  -4.30784803E-06
  -1.45500004E-02  -4.43042973E-06
  -1.44999996E-02  -4.56056296E-06
  -1.44499997E-02  -4.69638144E-06
  -1.43999998E-02  -4.83361009E-06
  -1.43499998E-02  -4.96751090E-06
  -1.42999999E-02  -5.09502161E-06
  -1.42500000E-02  -5.21617858E-06
  -1.42000001E-02  -5.33416141E-06
  -1.41500002E-02  -5.45402281E-06
  -1.41000003E-02  -5.58046167E-06
  -1.40500003E-02  -5.71571627E-06
  -1.40000004E-02  -5.85860835E-06
  -1.39499996E-02  -6.00506701E-06
  -1.38999997E-02  -6.15004137E-06
  -1.38499998E-02  -6.28984890E-06
  -1.37999998E-02  -6.42394434E-06
  -1.37499999E-02  -6.55528629E-06
  -1.37000000E-02  -6.68919711E-06
  -1.36500001E-02  -6.83112603E-06
  -1.36000002E-02  -6.98418762E-06
  -1.35500003E-02  -7.14776115E-06
  -1.35000004E-02  -7.31792807E-06
  -1.34500004E-02  -7.48940374E-06
  -1.33999996E-02  -7.65775167E-06
  -1.33499997E-02  -7.82155166E-06
  -1.32999998E-02  -7.98330257E-06
  -1.32499998E-02  -8.14843315E-06
  -1.31999999E-02  -8.32316709E-06
  -1.31500000E-02  -8.51173718E-06
  -1.31000001E-02  -8.71447446E-06
  -1.30500002E-02  -8.92786738E-06
  -1.30000003E-02  -9.14619432E-06
  -1.29500004E-02  -9.36417564E-06
  -1.29000004E-02  -9.57954489E-06
  -1.28499996E-02  -9.79412562E-06
  -1.27999997E-02  -1.00130565E-05
  -1.27499998E-02  -1.02426757E-05
  -1.26999998E-02  -1.04880810E-05
  -1.26499999E-02  -1.07508040E-05
  -1.26000000E-02  -1.10279761E-05
  -1.25500001E-02  -1.13137903E-05
  -1.25000002E-02  -1.16022138E-05
  -1.24500003E-02  -1.18899434E-05
  -1.24000004E-02  -1.21779831E-05
  -1.23500004E-02  -1.24712460E-05
  -1.22999996E-02  -1.27765315E-05
  -1.22499997E-02  -1.30994358E-05
  -1.21999998E-02  -1.34418033E-05
  -1.21499998E-02  -1.38010246E-05
  -1.20999999E-02  -1.41712171E-05
  -1.20500000E-02  -1.45458207E-05
  -1.20000001E-02  -1.49205016E-05
  -1.19500002E-02  -1.52953817E-05
  -1.19000003E-02  -1.56754304E-05
  -1.18500004E-02  -1.60684722E-05
  -1.18000004E-02  -1.64817775E-05
  -1.17499996E-02  -1.69188988E-05
  -1.16999997E-02  -1.73781737E-05
  -1.16499998E-02  -1.78535865E-05
  -1.15999999E-02  -1.83373122E-05
  -1.15499999E-02  -1.88232971E-05
  -1.15000000E-02  -1.93098858E-05
  -1.14500001E-02  -1.98002926E-05
  -1.14000002E-02  -2.03013387E-05
  -1.13500003E-02  -2.08202600E-05
  -1.13000004E-02  -2.13615331E-05
  -1.12500004E-02  -2.19249650E-05
  -1.11999996E-02  -2.25055974E-05
  -1.11499997E-02  -2.30963415E-05
  -1.10999998E-02  -2.36916967E-05
  -1.10499999E-02  -2.42907518E-05
  -1.09999999E-02  -2.48977412E-05
  -1.09500000E-02  -2.55206414E-05
  -1.09000001E-02  -2.61681198E-05
  -1.08500002E-02  -2.68456624E-05
  -1.08000003E-02  -2.75533803E-05
  -1.07500004E-02  -2.82856981E-05
  -1.07000005E-02  -2.90333846E-05
  -1.06499996E-02  -2.97875322E-05
  -1.05999997E-02  -3.05439353E-05
  -1.05499998E-02  -3.13050696E-05
  -1.04999999E-02  -3.20785257E-05
  -1.04499999E-02  -3.28737733E-05
  -1.04000000E-02  -3.36982412E-05
  -1.03500001E-02  -3.45545777E-05
  -1.03000002E-02  -3.54401855E-05
  -1.02500003E-02  -3.63483196E-05
  -1.02000004E-02  -3.72712093E-05
  -1.01500005E-02  -3.82047801E-05
  -1.00999996E-02  -3.91513313E-05
  -1.00499997E-02  -4.01184516E-05
  -9.99999978E-03  -4.11163237E-05
  -9.94999986E-03  -4.21533805E-05
  -9.89999995E-03  -4.32319393E-05
  -9.85000003E-03  -4.43482131E-05
  -9.80000012E-03  -4.54950859E-05
  -9.75000020E-03  -4.66643432E-05
  -9.70000029E-03  -4.78506117E-05
  -9.65000037E-03  -4.90549355E-05
  -9.60000046E-03  -5.02842558E-05
  -9.54999961E-03  -5.15488500E-05
  -9.49999969E-03  -5.28587698E-05
  -9.44999978E-03  -5.42188864E-05
  -9.39999986E-03  -5.56263876E-05
  -9.34999995E-03  -5.70732482E-05
  -9.30000003E-03  -5.85496200E-05
  -9.25000012E-03  -6.00488565E-05
  -9.20000020E-03  -6.15712124E-05
  -9.15000029E-03  -6.31235962E-05
  -9.10000037E-03  -6.47173656E-05
  -9.05000046E-03  -6.63631363E-05
  -8.99999961E-03  -6.80670710E-05
  -8.94999970E-03  -6.98295989E-05
  -8.89999978E-03  -7.16453214E-05
  -8.84999987E-03  -7.35054564E-05
  -8.79999995E-03  -7.54023495E-05
  -8.75000004E-03  -7.73339489E-05
  -8.70000012E-03  -7.93057407E-05
  -8.65000021E-03  -8.13290753E-05
  -8.60000029E-03  -8.34160310E-05
  -8.55000038E-03  -8.55739636E-05
  -8.50000046E-03  -8.78018036E-05
  -8.44999962E-03  -9.00920641E-05
  -8.39999970E-03  -9.24355481E-05
  -8.34999979E-03  -9.48252418E-05
  -8.29999987E-03  -9.72586058E-05
  -8.24999996E-03  -9.97390162E-05
  -8.20000004E-03  -1.02275946E-04
  -8.15000013E-03  -1.04881270E-04
  -8.10000021E-03  -1.07563013E-04
  -8.05000030E-03  -1.10322973E-04
  -8.00000038E-03  -1.13155780E-04
  -7.95000046E-03  -1.16050178E-04
  -7.89999962E-03  -1.18996919E-04
  -7.84999970E-03  -1.21994664E-04
  -7.79999979E-03  -1.25047547E-04
  -7.74999987E-03  -1.28164116E-04
  -7.69999996E-03  -1.31356908E-04
  -7.65000004E-03  -1.34635993E-04
  -7.60000013E-03  -1.38005518E-04
  -7.55000021E-03  -1.41460609E-04
  -7.49999983E-03  -1.44990307E-04
  -7.44999992E-03  -1.48584368E-04
  -7.40000000E-03  -1.52238310E-04
  -7.35000009E-03  -1.55955990E-04
  -7.30000017E-03  -1.59747549E-04
  -7.24999979E-03  -1.63623670E-04
  -7.19999988E-03  -1.67591963E-04
  -7.14999996E-03  -1.71656124E-04
  -7.10000005E-03  -1.75813417E-04
  -7.05000013E-03  -1.80055431E-04
  -7.00000022E-03  -1.84372126E-04
  -6.94999984E-03  -1.88756341E-04
  -6.89999992E-03  -1.93207059E-04
  -6.85000001E-03  -1.97733913E-04
  -6.80000009E-03  -2.02351643E-04
  -6.75000018E-03  -2.07070887E-04
  -6.69999979E-03  -2.11894177E-04
  -6.64999988E-03  -2.16815897E-04
  -6.59999996E-03  -2.21827970E-04
  -6.55000005E-03  -2.26924079E-04
  -6.50000013E-03  -2.32099279E-04
  -6.45000022E-03  -2.37351545E-04
  -6.39999984E-03  -2.42689130E-04
  -6.34999992E-03  -2.48126482E-04
  -6.30000001E-03  -2.53675127E-04
  -6.25000009E-03  -2.59339635E-04
  -6.20000018E-03  -2.65117851E-04
  -6.14999980E-03  -2.71002296E-04
  -6.09999988E-03  -2.76981242E-04
  -6.04999997E-03  -2.83050089E-04
  -6.00000005E-03  -2.89211166E-04
  -5.95000014E-03  -2.95469014E-04
  -5.90000022E-03  -3.01834079E-04
  -5.84999984E-03  -3.08318675E-04
  -5.79999993E-03  -3.14930832E-04
  -5.75000001E-03  -3.21668427E-04
  -5.70000010E-03  -3.28520138E-04
  -5.65000018E-03  -3.35474906E-04
  -5.59999980E-03  -3.42526735E-04
  -5.54999989E-03  -3.49680107E-04
  -5.49999997E-03  -3.56943725E-04
  -5.45000006E-03  -3.64324165E-04
  -5.40000014E-03  -3.71831411E-04
  -5.35000023E-03  -3.79476900E-04
  -5.29999984E-03  -3.87264503E-04
  -5.24999993E-03  -3.95187904E-04
  -5.20000001E-03  -4.03236947E-04
  -5.15000010E-03  -4.11403948E-04
  -5.10000018E-03  -4.19688353E-04
  -5.04999980E-03  -4.28099651E-04
  -4.99999989E-03  -4.36650822E-04
  -4.94999997E-03  -4.45354963E-04
  -4.90000006E-03  -4.54218010E-04
  -4.85000014E-03  -4.63235367E-04
  -4.80000023E-03  -4.72397835E-04
  -4.74999985E-03  -4.81699128E-04
  -4.69999993E-03  -4.91140352E-04
  -4.65000002E-03  -5.00717724E-04
  -4.60000010E-03  -5.10432525E-04
  -4.55000019E-03  -5.20297268E-04
  -4.49999981E-03  -5.30328485E-04
  -4.44999989E-03  -5.40537061E-04
  -4.39999998E-03  -5.50920086E-04
  -4.35000006E-03  -5.61469235E-04
  -4.30000015E-03  -5.72173041E-04
  -4.25000023E-03  -5.83030574E-04
  -4.19999985E-03  -5.94048237E-04
  -4.14999994E-03  -6.05231093E-04
  -4.10000002E-03  -6.16587873E-04
  -4.05000011E-03  -6.28128473E-04
  -4.00000019E-03  -6.39862439E-04
  -3.94999981E-03  -6.51794020E-04
  -3.89999989E-03  -6.63922459E-04
  -3.84999998E-03  -6.76240132E-04
  -3.80000006E-03  -6.88734872E-04
  -3.74999992E-03  -7.01403478E-04
  -3.70000000E-03  -7.14258873E-04
  -3.65000009E-03  -7.27321545E-04
  -3.59999994E-03  -7.40603078E-04
  -3.55000002E-03  -7.54103938E-04
  -3.50000011E-03  -7.67820224E-04
  -3.44999996E-03  -7.81750598E-04
  -3.40000005E-03  -7.95887783E-04
  -3.34999990E-03  -8.10224388E-04
  -3.29999998E-03  -8.24761228E-04
  -3.25000007E-03  -8.39503016E-04
  -3.19999992E-03  -8.54461396E-04
  -3.15000000E-03  -8.69651965E-04
  -3.10000009E-03  -8.85084446E-04
  -3.04999994E-03  -9.00757732E-04
  -3.00000003E-03  -9.16675082E-04
  -2.95000011E-03  -9.32827708E-04
  -2.89999996E-03  -9.49194946E-04
  -2.85000005E-03  -9.65789601E-04
  -2.79999990E-03  -9.82630765E-04
  -2.74999999E-03  -9.99725657E-04
  -2.70000007E-03  -1.01708842E-03
  -2.64999992E-03  -1.03473314E-03
  -2.60000001E-03  -1.05266005E-03
  -2.55000009E-03  -1.07085274E-03
  -2.49999994E-03  -1.08929793E-03
  -2.45000003E-03  -1.10799854E-03
  -2.40000011E-03  -1.12696015E-03
  -2.34999997E-03  -1.14619010E-03
  -2.30000005E-03  -1.16568618E-03
  -2.24999990E-03  -1.18545850E-03
  -2.19999999E-03  -1.20552722E-03
  -2.15000007E-03  -1.22589478E-03
  -2.09999993E-03  -1.24656351E-03
  -2.05000001E-03  -1.26751489E-03
  -2.00000009E-03  -1.28872378E-03
  -1.94999995E-03  -1.31019251E-03
  -1.90000003E-03  -1.33194926E-03
  -1.85000000E-03  -1.35401904E-03
  -1.79999997E-03  -1.37641304E-03
  -1.75000005E-03  -1.39913836E-03
  -1.70000002E-03  -1.42218464E-03
  -1.64999999E-03  -1.44554535E-03
  -1.59999996E-03  -1.46921619E-03
  -1.55000004E-03  -1.49317645E-03
  -1.50000001E-03  -1.51742599E-03
  -1.44999998E-03  -1.54198916E-03
  -1.39999995E-03  -1.56688411E-03
  -1.35000004E-03  -1.59210630E-03
  -1.30000000E-03  -1.61767716E-03
  -1.24999997E-03  -1.64361740E-03
  -1.20000006E-03  -1.66988734E-03
  -1.15000003E-03  -1.69644901E-03
  -1.09999999E-03  -1.72330672E-03
  -1.04999996E-03  -1.75048877E-03
  -1.00000005E-03  -1.77800516E-03
  -9.50000016E-04  -1.80585904E-03
  -8.99999985E-04  -1.83404400E-03
  -8.50000011E-04  -1.86256075E-03
  -7.99999980E-04  -1.89145340E-03
  -7.50000007E-04  -1.92071870E-03
  -6.99999975E-04  -1.95030530E-03
  -6.50000002E-04  -1.98019133E-03
  -6.00000028E-04  -2.01037456E-03
  -5.49999997E-04  -2.04087049E-03
  -5.00000024E-04  -2.07172707E-03
  -4.49999992E-04  -2.10296200E-03
  -3.99999990E-04  -2.13454780E-03
  -3.49999988E-04  -2.16648541E-03
  -3.00000014E-04  -2.19877320E-03
  -2.50000012E-04  -2.23139883E-03
  -1.99999995E-04  -2.26437650E-03
  -1.50000007E-04  -2.29768199E-03
  -9.99999975E-05  -2.33126828E-03
  -4.99999987E-05  -2.36513256E-03
   0.00000000      -2.39933934E-03
   4.99999987E-05  -2.43397360E-03
   9.99999975E-05  -2.46901507E-03
   1.50000007E-04  -2.50436412E-03
   1.99999995E-04  -2.53993785E-03
   2.50000012E-04  -2.57576769E-03
   3.00000014E-04  -2.61194841E-03
   3.49999988E-04  -2.64848326E-03
   3.99999990E-04  -2.68530240E-03
   4.49999992E-04  -2.72238138E-03
   5.00000024E-04  -2.75976630E-03
   5.49999997E-04  -2.79752095E-03
   6.00000028E-04  -2.83565465E-03
   6.50000002E-04  -2.87410896E-03
   6.99999975E-04  -2.91281054E-03
   7.50000007E-04  -2.95172888E-03
   7.99999980E-04  -2.99092592E-03
   8.50000011E-04  -3.03046359E-03
   8.99999985E-04  -3.07032000E-03
   9.50000016E-04  -3.11044045E-03
   1.00000005E-03  -3.15082632E-03
   1.04999996E-03  -3.19154421E-03
   1.09999999E-03  -3.23258713E-03
   1.15000003E-03  -3.27385776E-03
   1.20000006E-03  -3.31529276E-03
   1.24999997E-03  -3.35694500E-03
   1.30000000E-03  -3.39887035E-03
   1.35000004E-03  -3.44105833E-03
   1.39999995E-03  -3.48350941E-03
   1.44999998E-03  -3.52622545E-03
   1.50000001E-03  -3.56918038E-03
   1.55000004E-03  -3.61233507E-03
   1.59999996E-03  -3.65568488E-03
   1.64999999E-03  -3.69922747E-03
   1.70000002E-03  -3.74298170E-03
   1.75000005E-03  -3.78694595E-03
   1.79999997E-03  -3.83110298E-03
   1.85000000E-03  -3.87549307E-03
   1.90000003E-03  -3.92013369E-03
   1.94999995E-03  -3.96498013E-03
   2.00000009E-03  -4.00999188E-03
   2.05000001E-03  -4.05515265E-03
   2.09999993E-03  -4.10044566E-03
   2.15000007E-03  -4.14586812E-03
   2.19999999E-03  -4.19143820E-03
   2.24999990E-03  -4.23717871E-03
   2.30000005E-03  -4.28307615E-03
   2.34999997E-03  -4.32916451E-03
   2.40000011E-03  -4.37545637E-03
   2.45000003E-03  -4.42183297E-03
   2.49999994E-03  -4.46822541E-03
   2.55000009E-03  -4.51470027E-03
   2.60000001E-03  -4.56135534E-03
   2.64999992E-03  -4.60817432E-03
   2.70000007E-03  -4.65501007E-03
   2.74999999E-03  -4.70182020E-03
   2.79999990E-03  -4.74877516E-03