  -3.99999991E-02   0.00000000    
  -3.99499983E-02   0.00000000    
  -3.99000011E-02   0.00000000    
  -3.98500003E-02   0.00000000    
  -3.97999994E-02   0.00000000    
  -3.97499986E-02   2.66280738E-25
  -3.97000015E-02   2.37299675E-24
  -3.96500006E-02   1.10431936E-23
  -3.95999998E-02   3.53348028E-23
  -3.95499989E-02   8.61751653E-23
  -3.95000018E-02   1.67495188E-22
  -3.94500010E-02   2.61551718E-22
  -3.94000001E-02   3.14489081E-22
  -3.93499993E-02   2.32171811E-22
  -3.92999984E-02  -1.05485515E-22
  -3.92500013E-02  -8.12526127E-22
  -3.92000005E-02  -1.96040230E-21
  -3.91499996E-02  -3.55699538E-21
  -3.90999988E-02  -5.55562974E-21
  -3.90500017E-02  -7.89050090E-21
  -3.90000008E-02  -1.05152783E-20
  -3.89500000E-02  -1.34156821E-20
  -3.88999991E-02  -1.65828258E-20
  -3.88499983E-02  -1.99642529E-20
  -3.88000011E-02  -2.34322755E-20
  -3.87500003E-02  -2.68033063E-20
  -3.86999995E-02  -2.99043660E-20
  -3.86499986E-02  -3.26355677E-20
  -3.86000015E-02  -3.49559160E-20
  -3.85500006E-02  -3.67509431E-20
  -3.84999998E-02  -3.76201387E-20
  -3.84499989E-02  -3.67082852E-20
  -3.84000018E-02  -3.27364321E-20
  -3.83500010E-02  -2.43186253E-20
  -3.83000001E-02  -1.04844294E-20
  -3.82499993E-02   8.85757521E-21
  -3.81999984E-02   3.28639116E-20
  -3.81500013E-02   6.03392003E-20
  -3.81000005E-02   9.08703979E-20
  -3.80499996E-02   1.26044334E-19
  -3.79999988E-02   1.70055034E-19
  -3.79500017E-02   2.29129753E-19
  -3.79000008E-02   3.09691407E-19
  -3.78500000E-02   4.15841478E-19
  -3.77999991E-02   5.47256851E-19
  -3.77499983E-02   6.98627388E-19
  -3.77000012E-02   8.61200845E-19
  -3.76500003E-02   1.02602087E-18
  -3.75999995E-02   1.18748756E-18
  -3.75499986E-02   1.34545342E-18
  -3.75000015E-02   1.50451984E-18
  -3.74500006E-02   1.67044720E-18
  -3.73999998E-02   1.84509088E-18
  -3.73499990E-02   2.02226511E-18
  -3.73000018E-02   2.18680353E-18
  -3.72500010E-02   2.31774560E-18
  -3.72000001E-02   2.39460081E-18
  -3.71499993E-02   2.40396863E-18
  -3.70999984E-02   2.34330672E-18
  -3.70500013E-02   2.21968996E-18
  -3.70000005E-02   2.04360161E-18
  -3.69499996E-02   1.82013298E-18
  -3.68999988E-02   1.54136835E-18
  -3.68500017E-02   1.18341266E-18
  -3.68000008E-02   7.09582723E-19
  -3.67500000E-02   7.86196010E-20
  -3.66999991E-02  -7.45356630E-19
  -3.66499983E-02  -1.78497635E-18
  -3.66000012E-02  -3.04643857E-18
  -3.65500003E-02  -4.52138577E-18
  -3.64999995E-02  -6.19210532E-18
  -3.64499986E-02  -8.03739307E-18
  -3.64000015E-02  -1.00368416E-17
  -3.63500006E-02  -1.21725335E-17
  -3.62999998E-02  -1.44282385E-17
  -3.62499990E-02  -1.67867603E-17
  -3.62000018E-02  -1.92258678E-17
  -3.61500010E-02  -2.17132032E-17
  -3.61000001E-02  -2.42010118E-17
  -3.60499993E-02  -2.66227617E-17
  -3.59999985E-02  -2.88948614E-17
  -3.59500013E-02  -3.09261589E-17
  -3.59000005E-02  -3.26349784E-17
  -3.58499996E-02  -3.39683207E-17
  -3.57999988E-02  -3.49131364E-17
  -3.57500017E-02  -3.54889202E-17
  -3.57000008E-02  -3.57164048E-17
  -3.56500000E-02  -3.55687796E-17
  -3.55999991E-02  -3.49243298E-17
  -3.55499983E-02  -3.35463561E-17
  -3.55000012E-02  -3.11108055E-17
  -3.54500003E-02  -2.72839023E-17
  -3.53999995E-02  -2.18267156E-17
  -3.53499986E-02  -1.46830630E-17
  -3.53000015E-02  -6.00370584E-18
  -3.52500007E-02   3.91965365E-18
  -3.51999998E-02   1.47974439E-17
  -3.51499990E-02   2.65064551E-17
  -3.51000018E-02   3.91956225E-17
  -3.50500010E-02   5.32660507E-17
  -3.50000001E-02   6.92080975E-17
  -3.49499993E-02   8.73482544E-17
  -3.48999985E-02   1.07615847E-16
  -3.48500013E-02   1.29451913E-16
  -3.48000005E-02   1.51933994E-16
  -3.47499996E-02   1.74094784E-16
  -3.46999988E-02   1.95309611E-16
  -3.46500017E-02   2.15568747E-16
  -3.46000008E-02   2.35475530E-16
  -3.45500000E-02   2.55921635E-16
  -3.44999991E-02   2.77546227E-16
  -3.44499983E-02   3.00214073E-16
  -3.44000012E-02   3.22780036E-16
  -3.43500003E-02   3.43307800E-16
  -3.42999995E-02   3.59709693E-16
  -3.42499986E-02   3.70557883E-16
  -3.42000015E-02   3.75689049E-16
  -3.41500007E-02   3.76269638E-16
  -3.40999998E-02   3.74204809E-16
  -3.40499990E-02   3.71087252E-16
  -3.40000018E-02   3.67141428E-16
  -3.39500010E-02   3.60692543E-16
  -3.39000002E-02   3.48508239E-16
  -3.38499993E-02   3.26978461E-16
  -3.37999985E-02   2.93677864E-16
  -3.37500013E-02   2.48598982E-16
  -3.37000005E-02   1.94405165E-16
  -3.36499996E-02   1.35445267E-16
  -3.35999988E-02   7.58465726E-17
  -3.35500017E-02   1.74996329E-17
  -3.35000008E-02  -4.10906601E-17
  -3.34500000E-02  -1.04411363E-16
  -3.33999991E-02  -1.77999805E-16
  -3.33499983E-02  -2.65708677E-16
  -3.33000012E-02  -3.67417376E-16
  -3.32500003E-02  -4.78366410E-16
  -3.31999995E-02  -5.90641315E-16
  -3.31499986E-02  -6.96342133E-16
  -3.31000015E-02  -7.91094838E-16
  -3.30500007E-02  -8.76228320E-16
  -3.29999998E-02  -9.58396392E-16
  -3.29499990E-02  -1.04652699E-15
  -3.29000019E-02  -1.14727172E-15
  -3.28500010E-02  -1.26099997E-15
  -3.28000002E-02  -1.38034353E-15
  -3.27499993E-02  -1.49228962E-15
  -3.26999985E-02  -1.58320294E-15
  -3.26500013E-02  -1.64466842E-15
  -3.26000005E-02  -1.67741820E-15
  -3.25499997E-02  -1.69124697E-15
  -3.24999988E-02  -1.70054157E-15
  -3.24500017E-02  -1.71714225E-15
  -3.24000008E-02  -1.74372648E-15
  -3.23500000E-02  -1.77098940E-15
  -3.22999991E-02  -1.78038406E-15
  -3.22499983E-02  -1.75167928E-15
  -3.22000012E-02  -1.67218036E-15
  -3.21500003E-02  -1.54333532E-15
  -3.20999995E-02  -1.38128564E-15
  -3.20499986E-02  -1.21049838E-15
  -3.20000015E-02  -1.05287053E-15
  -3.19500007E-02  -9.17104701E-16
  -3.18999998E-02  -7.93484213E-16
  -3.18499990E-02  -6.57062727E-16
  -3.18000019E-02  -4.78516705E-16
  -3.17500010E-02  -2.38163245E-16
  -3.17000002E-02   6.32915260E-17
  -3.16499993E-02   4.02715674E-16
  -3.15999985E-02   7.42978603E-16
  -3.15500014E-02   1.04873023E-15
  -3.15000005E-02   1.30262486E-15
  -3.14499997E-02   1.51426759E-15
  -3.13999988E-02   1.71698639E-15
  -3.13500017E-02   1.95294521E-15
  -3.13000008E-02   2.25273643E-15
  -3.12500000E-02   2.61875715E-15
  -3.11999992E-02   3.02063003E-15
  -3.11500002E-02   3.40586760E-15
  -3.10999993E-02   3.72194197E-15
  -3.10500003E-02   3.94017704E-15
  -3.09999995E-02   4.07021862E-15
  -3.09500005E-02   4.15745836E-15
  -3.08999997E-02   4.26328411E-15
  -3.08500007E-02   4.43623469E-15
  -3.07999998E-02   4.68706190E-15
  -3.07500008E-02   4.97987187E-15
  -3.07000000E-02   5.24476152E-15
  -3.06499992E-02   5.40756125E-15
  -3.06000002E-02   5.42381496E-15
  -3.05499993E-02   5.30117645E-15
  -3.05000003E-02   5.09872033E-15
  -3.04499995E-02   4.90183642E-15
  -3.04000005E-02   4.78284438E-15
  -3.03499997E-02   4.76501942E-15
  -3.03000007E-02   4.80733761E-15
  -3.02499998E-02   4.81866625E-15
  -3.02000009E-02   4.69676593E-15
  -3.01500000E-02   4.37540248E-15
  -3.00999992E-02   3.85786111E-15
  -3.00500002E-02   3.22012598E-15
  -2.99999993E-02   2.58021101E-15
  -2.99500003E-02   2.04589183E-15
  -2.98999995E-02   1.66411989E-15
  -2.98500005E-02   1.39610469E-15
  -2.97999997E-02   1.13147286E-15
  -2.97500007E-02   7.37295382E-16
  -2.96999998E-02   1.21025259E-16
  -2.96500009E-02  -7.21510976E-16
  -2.96000000E-02  -1.69668365E-15
  -2.95499992E-02  -2.64906971E-15
  -2.95000002E-02  -3.42876248E-15
  -2.94499993E-02  -3.96020937E-15
  -2.94000003E-02  -4.28025781E-15
  -2.93499995E-02  -4.52568560E-15
  -2.93000005E-02  -4.87306610E-15
  -2.92499997E-02  -5.45647571E-15
  -2.92000007E-02  -6.30045044E-15
  -2.91499998E-02  -7.30058883E-15
  -2.91000009E-02  -8.26363903E-15
  -2.90500000E-02  -8.99159270E-15
  -2.89999992E-02  -9.37274906E-15
  -2.89500002E-02  -9.43731838E-15
  -2.88999993E-02  -9.34953104E-15
  -2.88500004E-02  -9.33644268E-15
  -2.87999995E-02  -9.58341632E-15
  -2.87500005E-02  -1.01435863E-14
  -2.86999997E-02  -1.09045209E-14
  -2.86500007E-02  -1.16308144E-14
  -2.85999998E-02  -1.20666747E-14
  -2.85500009E-02  -1.20535761E-14
  -2.85000000E-02  -1.16086628E-14
  -2.84499992E-02  -1.09251495E-14
  -2.84000002E-02  -1.02905652E-14
  -2.83499993E-02  -9.95692905E-15
  -2.83000004E-02  -1.00212044E-14
  -2.82499995E-02  -1.03724148E-14
  -2.82000005E-02  -1.07334516E-14
  -2.81499997E-02  -1.07825744E-14
  -2.81000007E-02  -1.03016850E-14
  -2.80499998E-02  -9.28335405E-15
  -2.80000009E-02  -7.94466421E-15
  -2.79500000E-02  -6.63705922E-15
  -2.78999992E-02  -5.68949320E-15
  -2.78500002E-02  -5.25508050E-15
  -2.77999993E-02  -5.23302122E-15
  -2.77500004E-02  -5.30569156E-15
  -2.76999995E-02  -5.07879854E-15
  -2.76500005E-02  -4.26381774E-15
  -2.75999997E-02  -2.81947855E-15
  -2.75500007E-02  -9.84487548E-16
  -2.74999999E-02   8.18581216E-16
  -2.74500009E-02   2.16908621E-15
  -2.74000000E-02   2.84118991E-15
  -2.73499992E-02   2.91438626E-15
  -2.73000002E-02   2.74683785E-15
  -2.72499993E-02   2.81830329E-15
  -2.72000004E-02   3.51048443E-15
  -2.71499995E-02   4.92446956E-15
  -2.71000005E-02   6.82180769E-15
  -2.70499997E-02   8.72163144E-15
  -2.70000007E-02   1.01149151E-14
  -2.69499999E-02   1.07008764E-14
  -2.69000009E-02   1.05364097E-14
  -2.68500000E-02   1.00256243E-14
  -2.67999992E-02   9.74797449E-15
  -2.67500002E-02   1.01985003E-14
  -2.66999993E-02   1.15572902E-14
  -2.66500004E-02   1.35962561E-14
  -2.65999995E-02   1.57715417E-14
  -2.65500005E-02   1.74656279E-14
  -2.64999997E-02   1.82722947E-14
  -2.64500007E-02   1.81938391E-14
  -2.63999999E-02   1.76558512E-14
  -2.63500009E-02   1.73261131E-14
  -2.63000000E-02   1.78144378E-14
  -2.62499992E-02   1.93883301E-14
  -2.62000002E-02   2.18367008E-14
  -2.61499994E-02   2.45499235E-14
  -2.61000004E-02   2.67866597E-14
  -2.60499995E-02   2.80102835E-14
  -2.60000005E-02   2.81414737E-14
  -2.59499997E-02   2.76070975E-14
  -2.59000007E-02   2.71557662E-14
  -2.58499999E-02   2.75174204E-14
  -2.58000009E-02   2.90591492E-14
  -2.57500000E-02   3.15962940E-14
  -2.56999992E-02   3.44513338E-14
  -2.56500002E-02   3.67415787E-14
  -2.55999994E-02   3.77702799E-14
  -2.55500004E-02   3.73440123E-14
  -2.54999995E-02   3.58673865E-14
  -2.54500005E-02   3.41644471E-14
  -2.53999997E-02   3.31006178E-14
  -2.53500007E-02   3.31736591E-14
  -2.52999999E-02   3.42615645E-14
  -2.52500009E-02   3.56489537E-14
  -2.52000000E-02   3.63285892E-14
  -2.51499992E-02   3.54476682E-14
  -2.51000002E-02   3.26975521E-14
  -2.50499994E-02   2.84655146E-14
  -2.50000004E-02   2.36712098E-14
  -2.49499995E-02   1.93534611E-14
  -2.49000005E-02   1.61901996E-14
  -2.48499997E-02   1.41706215E-14
  -2.48000007E-02   1.25752688E-14
  -2.47499999E-02   1.02825734E-14
  -2.47000009E-02   6.27074881E-15
  -2.46500000E-02   9.00262152E-17
  -2.45999992E-02  -7.91270312E-15
  -2.45500002E-02  -1.67273472E-14
  -2.44999994E-02  -2.51211320E-14
  -2.44500004E-02  -3.21924291E-14
  -2.43999995E-02  -3.77863227E-14
  -2.43500005E-02  -4.25765211E-14
  -2.42999997E-02  -4.77660954E-14
  -2.42500007E-02  -5.45331263E-14
  -2.41999999E-02  -6.34685108E-14
  -2.41500009E-02  -7.42640677E-14
  -2.41000000E-02  -8.58014696E-14
  -2.40499992E-02  -9.66133030E-14
  -2.40000002E-02  -1.05515599E-13
  -2.39499994E-02  -1.12126806E-13
  -2.39000004E-02  -1.17032022E-13
  -2.38499995E-02  -1.21507202E-13
  -2.38000005E-02  -1.26917126E-13
  -2.37499997E-02  -1.34054267E-13
  -2.37000007E-02  -1.42720078E-13
  -2.36499999E-02  -1.51748080E-13
  -2.36000009E-02  -1.59471557E-13
  -2.35500000E-02  -1.64434479E-13
  -2.34999992E-02  -1.66027511E-13
  -2.34500002E-02  -1.64755647E-13
  -2.33999994E-02  -1.62004457E-13
  -2.33500004E-02  -1.59397194E-13
  -2.32999995E-02  -1.58025801E-13
  -2.32500006E-02  -1.57904180E-13
  -2.31999997E-02  -1.57901199E-13
  -2.31500007E-02  -1.56198811E-13
  -2.30999999E-02  -1.51081784E-13
  -2.30500009E-02  -1.41708205E-13
  -2.30000000E-02  -1.28508288E-13
  -2.29499992E-02  -1.13018156E-13
  -2.29000002E-02  -9.72080828E-14
  -2.28499994E-02  -8.25969813E-14
  -2.28000004E-02  -6.95517388E-14
  -2.27499995E-02  -5.70971289E-14
  -2.27000006E-02  -4.33386406E-14
  -2.26499997E-02  -2.63238460E-14
  -2.26000007E-02  -4.96203844E-15
  -2.25499999E-02   2.04163570E-14
  -2.25000009E-02   4.81272398E-14
  -2.24500000E-02   7.58161302E-14
  -2.23999992E-02   1.01464776E-13
  -2.23500002E-02   1.24271660E-13
  -2.22999994E-02   1.45000833E-13
  -2.22500004E-02   1.65622886E-13
  -2.21999995E-02   1.88389831E-13
  -2.21500006E-02   2.14747572E-13
  -2.20999997E-02   2.44577362E-13
  -2.20500007E-02   2.76122631E-13
  -2.19999999E-02   3.06656474E-13
  -2.19500009E-02   3.33609930E-13
  -2.19000001E-02   3.55661491E-13
  -2.18499992E-02   3.73289561E-13
  -2.18000002E-02   3.88519783E-13
  -2.17499994E-02   4.03955569E-13
  -2.17000004E-02   4.21511350E-13
  -2.16499995E-02   4.41416679E-13
  -2.16000006E-02   4.61955452E-13
  -2.15499997E-02   4.80083963E-13
  -2.15000007E-02   4.92677351E-13
  -2.14499999E-02   4.97857615E-13
  -2.14000009E-02   4.95802401E-13
  -2.13500001E-02   4.88648781E-13
  -2.12999992E-02   4.79505433E-13
  -2.12500002E-02   4.70994066E-13
  -2.11999994E-02   4.63968707E-13
  -2.11500004E-02   4.57003250E-13
  -2.10999995E-02   4.46907810E-13
  -2.10500006E-02   4.30075463E-13
  -2.09999997E-02   4.04074994E-13
  -2.09500007E-02   3.68773696E-13
  -2.08999999E-02   3.26463303E-13
  -2.08500009E-02   2.80896888E-13
  -2.08000001E-02   2.35638413E-13
  -2.07499992E-02   1.92452906E-13
  -2.07000002E-02   1.50472733E-13
  -2.06499994E-02   1.06548085E-13
  -2.06000004E-02   5.66648575E-14
  -2.05499995E-02  -2.17738628E-15
  -2.05000006E-02  -7.04656941E-14
  -2.04499997E-02  -1.45748797E-13
  -2.04000007E-02  -2.23519011E-13
  -2.03499999E-02  -2.99046974E-13
  -2.03000009E-02  -3.69367975E-13
  -2.02500001E-02  -4.34521939E-13
  -2.01999992E-02  -4.97455755E-13
  -2.01500002E-02  -5.62585081E-13
  -2.00999994E-02  -6.33623525E-13
  -2.00500004E-02  -7.11640599E-13
  -1.99999996E-02  -7.94244282E-13
  -1.99500006E-02  -8.76301039E-13
  -1.98999997E-02  -9.51922677E-13
  -1.98500007E-02  -1.01686281E-12
  -1.97999999E-02  -1.07024686E-12
  -1.97500009E-02  -1.11482492E-12
  -1.97000001E-02  -1.15558041E-12
  -1.96499992E-02  -1.19726668E-12
  -1.96000002E-02  -1.24195879E-12
  -1.95499994E-02  -1.28773500E-12
  -1.95000004E-02  -1.32913168E-12
  -1.94499996E-02  -1.35923195E-12
  -1.94000006E-02  -1.37249912E-12
  -1.93499997E-02  -1.36709242E-12
  -1.93000007E-02  -1.34559757E-12
  -1.92499999E-02  -1.31378274E-12
  -1.92000009E-02  -1.27787776E-12
  -1.91500001E-02  -1.24156523E-12
  -1.90999992E-02  -1.20404457E-12
  -1.90500002E-02  -1.16009155E-12
  -1.89999994E-02  -1.10216242E-12
  -1.89500004E-02  -1.02365881E-12
  -1.88999996E-02  -9.21912286E-13
  -1.88500006E-02  -7.99523208E-13
  -1.87999997E-02  -6.63384658E-13
  -1.87500007E-02  -5.21756954E-13
  -1.86999999E-02  -3.80653083E-13
  -1.86500009E-02  -2.41157680E-13
  -1.86000001E-02  -9.89327638E-14
  -1.85499992E-02   5.37869039E-14
  -1.85000002E-02   2.24527577E-13
  -1.84499994E-02   4.16848115E-13
  -1.84000004E-02   6.28242684E-13
  -1.83499996E-02   8.50686166E-13
  -1.83000006E-02   1.07366492E-12
  -1.82499997E-02   1.28840450E-12
  -1.82000007E-02   1.49141116E-12
  -1.81499999E-02   1.68569596E-12
  -1.81000009E-02   1.87904640E-12
  -1.80500001E-02   2.08002886E-12
  -1.79999992E-02   2.29346772E-12
  -1.79500002E-02   2.51743808E-12
  -1.78999994E-02   2.74319456E-12
  -1.78500004E-02   2.95817147E-12
  -1.77999996E-02   3.15079907E-12
  -1.77500006E-02   3.31501124E-12
  -1.76999997E-02   3.45239549E-12
  -1.76500008E-02   3.57092372E-12
  -1.75999999E-02   3.68074494E-12
  -1.75500009E-02   3.78884294E-12
  -1.75000001E-02   3.89496465E-12
  -1.74499992E-02   3.99070317E-12
  -1.74000002E-02   4.06226788E-12
  -1.73499994E-02   4.09580312E-12
  -1.73000004E-02   4.08293017E-12
  -1.72499996E-02   4.02400899E-12
  -1.72000006E-02   3.92756747E-12
  -1.71499997E-02   3.80604923E-12
  -1.71000008E-02   3.66968348E-12
  -1.70499999E-02   3.52121500E-12
  -1.70000009E-02   3.35390981E-12
  -1.69500001E-02   3.15385261E-12
  -1.68999992E-02   2.90563710E-12
  -1.68500002E-02   2.59897225E-12
  -1.67999994E-02   2.23325416E-12
  -1.67500004E-02   1.81796548E-12
  -1.66999996E-02   1.36860748E-12
  -1.66500006E-02   8.99874955E-13
  -1.65999997E-02   4.19083578E-13
  -1.65500008E-02  -7.71542593E-14
  -1.64999999E-02  -6.01402934E-13
  -1.64500009E-02  -1.16956412E-12
  -1.64000001E-02  -1.79324600E-12
  -1.63499992E-02  -2.47373107E-12
  -1.63000003E-02  -3.20032304E-12
  -1.62499994E-02  -3.95394308E-12
  -1.62000004E-02  -4.71450223E-12
  -1.61499996E-02  -5.46881594E-12
  -1.61000006E-02  -6.21549687E-12
  -1.60499997E-02  -6.96453312E-12
  -1.60000008E-02  -7.73157319E-12
  -1.59499999E-02  -8.52937339E-12
  -1.59000009E-02  -9.36017409E-12
  -1.58500001E-02  -1.02125001E-11
  -1.57999992E-02  -1.10639223E-11
  -1.57500003E-02  -1.18887357E-11
  -1.56999994E-02  -1.26671902E-11
  -1.56500004E-02  -1.33921641E-11
  -1.55999996E-02  -1.40702059E-11
  -1.55499997E-02  -1.47163098E-11
  -1.54999997E-02  -1.53446388E-11
  -1.54499998E-02  -1.59592704E-11
  -1.53999999E-02  -1.65491457E-11
  -1.53500000E-02  -1.70896214E-11
  -1.53000001E-02  -1.75501159E-11
  -1.52500002E-02  -1.79045338E-11
  -1.52000003E-02  -1.81398750E-11
  -1.51500003E-02  -1.82590956E-11
  -1.51000004E-02  -1.82767898E-11
  -1.50499996E-02  -1.82094652E-11
  -1.49999997E-02  -1.80646591E-11
  -1.49499997E-02  -1.78337987E-11
  -1.48999998E-02  -1.74920963E-11
  -1.48499999E-02  -1.70057215E-11
  -1.48000000E-02  -1.63432028E-11
  -1.47500001E-02  -1.54860465E-11
  -1.47000002E-02  -1.44337589E-11
  -1.46500003E-02  -1.32009039E-11
  -1.46000003E-02  -1.18073216E-11
  -1.45500004E-02  -1.02657978E-11
  -1.44999996E-02  -8.57261571E-12
  -1.44499997E-02  -6.70536977E-12
  -1.43999998E-02  -4.62917812E-12
  -1.43499998E-02  -2.30872201E-12
  -1.42999999E-02   2.79184119E-13
  -1.42500000E-02   3.13810371E-12
  -1.42000001E-02   6.25305233E-12
  -1.41500002E-02   9.59982701E-12
  -1.41000003E-02   1.31586157E-11
  -1.40500003E-02   1.69258045E-11
  -1.40000004E-02   2.09187338E-11
  -1.39499996E-02   2.51709677E-11
  -1.38999997E-02   2.97201534E-11
  -1.38499998E-02   3.45936162E-11
  -1.37999998E-02   3.97981925E-11
  -1.37499999E-02   4.53189430E-11
  -1.37000000E-02   5.11274564E-11
  -1.36500001E-02   5.71963032E-11
  -1.36000002E-02   6.35132433E-11
  -1.35500003E-02   7.00888167E-11
  -1.35000004E-02   7.69537836E-11
  -1.34500004E-02   8.41473349E-11
  -1.33999996E-02   9.17012438E-11
  -1.33499997E-02   9.96268484E-11
  -1.32999998E-02   1.07910916E-10
  -1.32499998E-02   1.16522347E-10
  -1.31999999E-02   1.25426919E-10
  -1.31500000E-02   1.34603648E-10
  -1.31000001E-02   1.44055629E-10
  -1.30500002E-02   1.53810090E-10
  -1.30000003E-02   1.63907832E-10
  -1.29500004E-02   1.74386200E-10
  -1.29000004E-02   1.85263388E-10
  -1.28499996E-02   1.96530944E-10
  -1.27999997E-02   2.08158213E-10
  -1.27499998E-02   2.20106600E-10
  -1.26999998E-02   2.32347946E-10
  -1.26499999E-02   2.44878423E-10
  -1.26000000E-02   2.57722177E-10
  -1.25500001E-02   2.70922229E-10
  -1.25000002E-02   2.84523266E-10
  -1.24500003E-02   2.98553127E-10
  -1.24000004E-02   3.13012033E-10
  -1.23500004E-02   3.27873617E-10
  -1.22999996E-02   3.43098244E-10
  -1.22499997E-02   3.58652802E-10
  -1.21999998E-02   3.74527798E-10
  -1.21499998E-02   3.90744714E-10
  -1.20999999E-02   4.07349626E-10
  -1.20500000E-02   4.24396102E-10
  -1.20000001E-02   4.41924636E-10
  -1.19500002E-02   4.59947941E-10
  -1.19000003E-02   4.78448392E-10
  -1.18500004E-02   4.97389574E-10
  -1.18000004E-02   5.16736598E-10
  -1.17499996E-02   5.36476030E-10
  -1.16999997E-02   5.56627633E-10
  -1.16499998E-02   5.77241199E-10
  -1.15999999E-02   5.98380456E-10
  -1.15499999E-02   6.20101248E-10
  -1.15000000E-02   6.42432496E-10
  -1.14500001E-02   6.65369759E-10
  -1.14000002E-02   6.88883950E-10
  -1.13500003E-02   7.12941151E-10
  -1.13000004E-02   7.37525763E-10
  -1.12500004E-02   7.62655938E-10
  -1.11999996E-02   7.88384469E-10
  -1.11499997E-02   8.14785073E-10
  -1.10999998E-02   8.41929026E-10
  -1.10499999E-02   8.69863681E-10
  -1.09999999E-02   8.98600638E-10
  -1.09500000E-02   9.28121191E-10
  -1.09000001E-02   9.58395252E-10
  -1.08500002E-02   9.89405557E-10
  -1.08000003E-02   1.02116815E-09
  -1.07500004E-02   1.05373754E-09
  -1.07000005E-02   1.08719600E-09
  -1.06499996E-02   1.12163079E-09
  -1.05999997E-02   1.15710841E-09
  -1.05499998E-02   1.19365917E-09
  -1.04999999E-02   1.23127730E-09
  -1.04499999E-02   1.26993771E-09
  -1.04000000E-02   1.30962197E-09
  -1.03500001E-02   1.35034184E-09
  -1.03000002E-02   1.39215051E-09
  -1.02500003E-02   1.43513512E-09
  -1.02000004E-02   1.47939538E-09
  -1.01500005E-02   1.52501556E-09
  -1.00999996E-02   1.57204416E-09
  -1.00499997E-02   1.62048963E-09
  -9.99999978E-03   1.67033354E-09
  -9.94999986E-03   1.72155623E-09
  -9.89999995E-03   1.77416493E-09
  -9.85000003E-03   1.82820903E-09
  -9.80000012E-03   1.88377758E-09
  -9.75000020E-03   1.94098093E-09
  -9.70000029E-03   1.99992090E-09
  -9.65000037E-03   2.06066564E-09
  -9.60000046E-03   2.12323958E-09
  -9.54999961E-03   2.18763296E-09
  -9.49999969E-03   2.25382690E-09
  -9.44999978E-03   2.32182207E-09
  -9.39999986E-03   2.39166109E-09
  -9.34999995E-03   2.46343190E-09
  -9.30000003E-03   2.53725019E-09
  -9.25000012E-03   2.61323163E-09
  -9.20000020E-03   2.69146305E-09
  -9.15000029E-03   2.77198620E-09
  -9.10000037E-03   2.85480151E-09
  -9.05000046E-03   2.93989255E-09
  -8.99999961E-03   3.02725511E-09
  -8.94999970E-03   3.11692494E-09
  -8.89999978E-03   3.20898641E-09
  -8.84999987E-03   3.30356031E-09
  -8.79999995E-03   3.40077766E-09
  -8.75000004E-03   3.50074614E-09
  -8.70000012E-03   3.60352992E-09
  -8.65000021E-03   3.70914655E-09
  -8.60000029E-03   3.81758802E-09
  -8.55000038E-03   3.92885058E-09
  -8.50000046E-03   4.04296596E-09
  -8.44999962E-03   4.16001589E-09
  -8.39999970E-03   4.28012514E-09
  -8.34999979E-03   4.40343895E-09
  -8.29999987E-03   4.53008875E-09
  -8.24999996E-03   4.66016425E-09
  -8.20000004E-03   4.79370543E-09
  -8.15000013E-03   4.93071894E-09
  -8.10000021E-03   5.07120612E-09
  -8.05000030E-03   5.21519539E-09
  -8.00000038E-03   5.36276845E-09
  -7.95000046E-03   5.51405721E-09
  -7.89999962E-03   5.66922198E-09
  -7.84999970E-03   5.82842086E-09
  -7.79999979E-03   5.99177596E-09
  -7.74999987E-03   6.15935880E-09
  -7.69999996E-03   6.33120045E-09
  -7.65000004E-03   6.50731602E-09
  -7.60000013E-03   6.68774192E-09
  -7.55000021E-03   6.87256341E-09
  -7.49999983E-03   7.06192171E-09
  -7.44999992E-03   7.25599758E-09
  -7.40000000E-03   7.45497974E-09
  -7.35000009E-03   7.65902808E-09
  -7.30000017E-03   7.86825272E-09
  -7.24999979E-03   8.08271761E-09
  -7.19999988E-03   8.30246094E-09
  -7.14999996E-03   8.52753512E-09
  -7.10000005E-03   8.75803252E-09
  -7.05000013E-03   8.99410590E-09
  -7.00000022E-03   9.23595778E-09
  -6.94999984E-03   9.48380663E-09
  -6.89999992E-03   9.73785408E-09
  -6.85000001E-03   9.99825733E-09
  -6.80000009E-03   1.02651212E-08
  -6.75000018E-03   1.05385158E-08
  -6.69999979E-03   1.08185150E-08
  -6.64999988E-03   1.11052287E-08
  -6.59999996E-03   1.13988241E-08
  -6.55000005E-03   1.16995267E-08
  -6.50000013E-03   1.20075923E-08
  -6.45000022E-03   1.23232669E-08
  -6.39999984E-03   1.26467574E-08
  -6.34999992E-03   1.29782194E-08
  -6.30000001E-03   1.33177638E-08
  -6.25000009E-03   1.36654972E-08
  -6.20000018E-03   1.40215484E-08
  -6.14999980E-03   1.43861056E-08
  -6.09999988E-03   1.47594159E-08
  -6.04999997E-03   1.51417705E-08
  -6.00000005E-03   1.55334625E-08
  -5.95000014E-03   1.59347504E-08
  -5.90000022E-03   1.63458438E-08
  -5.84999984E-03   1.67669008E-08
  -5.79999993E-03   1.71980616E-08
  -5.75000001E-03   1.76394810E-08
  -5.70000010E-03   1.80913702E-08
  -5.65000018E-03   1.85539957E-08
  -5.59999980E-03   1.90276825E-08
  -5.54999989E-03   1.95127647E-08
  -5.49999997E-03   2.00095567E-08
  -5.45000006E-03   2.05183266E-08
  -5.40000014E-03   2.10392859E-08
  -5.35000023E-03   2.15726192E-08
  -5.29999984E-03   2.21185132E-08
  -5.24999993E-03   2.26772006E-08
  -5.20000001E-03   2.32489761E-08
  -5.15000010E-03   2.38341862E-08
  -5.10000018E-03   2.44332146E-08
  -5.04999980E-03   2.50464254E-08
  -4.99999989E-03   2.56741473E-08
  -4.94999997E-03   2.63166502E-08
  -4.90000006E-03   2.69741687E-08
  -4.85000014E-03   2.76469247E-08
  -4.80000023E-03   2.83351795E-08
  -4.74999985E-03   2.90392421E-08
  -4.69999993E-03   2.97594962E-08
  -4.65000002E-03   3.04963521E-08
  -4.60000010E-03   3.12502344E-08
  -4.55000019E-03   3.20215392E-08
  -4.49999981E-03   3.28105934E-08
  -4.44999989E-03   3.36176775E-08
  -4.39999998E-03   3.44430653E-08
  -4.35000006E-03   3.52870480E-08
  -4.30000015E-03   3.61499630E-08
  -4.25000023E-03   3.70322226E-08
  -4.19999985E-03   3.79342850E-08
  -4.14999994E-03   3.88566264E-08
  -4.10000002E-03   3.97996907E-08
  -4.05000011E-03   4.07638829E-08
  -4.00000019E-03   4.17495620E-08
  -3.94999981E-03   4.27570370E-08
  -3.89999989E-03   4.37866525E-08
  -3.84999998E-03   4.48387816E-08
  -3.80000006E-03   4.59138612E-08
  -3.74999992E-03   4.70123886E-08
  -3.70000000E-03   4.81348934E-08
  -3.65000009E-03   4.92818941E-08
  -3.59999994E-03   5.04538527E-08
  -3.55000002E-03   5.16511989E-08
  -3.50000011E-03   5.28743200E-08
  -3.44999996E-03   5.41235927E-08
  -3.40000005E-03   5.53994361E-08
  -3.34999990E-03   5.67023299E-08
  -3.29999998E-03   5.80328248E-08
  -3.25000007E-03   5.93914962E-08
  -3.19999992E-03   6.07789303E-08
  -3.15000000E-03   6.21956673E-08
  -3.10000009E-03   6.36422257E-08
  -3.04999994E-03   6.51190604E-08
  -3.00000003E-03   6.66266118E-08
  -2.95000011E-03   6.81653560E-08
  -2.89999996E-03   6.97358118E-08
  -2.85000005E-03   7.13385759E-08
  -2.79999990E-03   7.29742808E-08
  -2.74999999E-03   7.46435802E-08
  -2.70000007E-03   7.63471135E-08
  -2.64999992E-03   7.80854563E-08
  -2.60000001E-03   7.98591699E-08
  -2.55000009E-03   8.16687589E-08
  -2.49999994E-03   8.35147560E-08
  -2.45000003E-03   8.53977298E-08
  -2.40000011E-03   8.73183410E-08
  -2.34999997E-03   8.92772647E-08
  -2.30000005E-03   9.12752398E-08
  -2.24999990E-03   9.33129698E-08
  -2.19999999E-03   9.53911581E-08
  -2.15000007E-03   9.75104086E-08
  -2.09999993E-03   9.96713467E-08
  -2.05000001E-03   1.01874562E-07
  -2.00000009E-03   1.04120680E-07
  -1.94999995E-03   1.06410397E-07
  -1.90000003E-03   1.08744466E-07
  -1.85000000E-03   1.11123683E-07
  -1.79999997E-03   1.13548850E-07
  -1.75000005E-03   1.16020743E-07
  -1.70000002E-03   1.18540072E-07
  -1.64999999E-03   1.21107519E-07
  -1.59999996E-03   1.23723765E-07
  -1.55000004E-03   1.26389509E-07
  -1.50000001E-03   1.29105501E-07
  -1.44999998E-03   1.31872525E-07
  -1.39999995E-03   1.34691447E-07
  -1.35000004E-03   1.37563148E-07
  -1.30000000E-03   1.40488481E-07
  -1.24999997E-03   1.43468228E-07
  -1.20000006E-03   1.46503169E-07
  -1.15000003E-03   1.49594072E-07
  -1.09999999E-03   1.52741706E-07
  -1.04999996E-03   1.55946850E-07
  -1.00000005E-03   1.59210401E-07
  -9.50000016E-04   1.62533226E-07
  -8.99999985E-04   1.65916276E-07
  -8.50000011E-04   1.69360447E-07
  -7.99999980E-04   1.72866635E-07
  -7.50000007E-04   1.76435705E-07
  -6.99999975E-04   1.80068483E-07
  -6.50000002E-04   1.83765778E-07
  -6.00000028E-04   1.87528499E-07
  -5.49999997E-04   1.91357529E-07
  -5.00000024E-04   1.95253818E-07
  -4.49999992E-04   1.99218348E-07
  -3.99999990E-04   2.03252128E-07
  -3.49999988E-04   2.07356067E-07
  -3.00000014E-04   2.11531102E-07
  -2.50000012E-04   2.15778087E-07
  -1.99999995E-04   2.20097931E-07
  -1.50000007E-04   2.24491544E-07
  -9.99999975E-05   2.28959877E-07
  -4.99999987E-05   2.33503926E-07
   0.00000000       2.38124741E-07
   4.99999987E-05   2.42823319E-07
   9.99999975E-05   2.47600667E-07
   1.50000007E-04   2.52457738E-07
   1.99999995E-04   2.57395470E-07
   2.50000012E-04   2.62414744E-07
   3.00000014E-04   2.67516612E-07
   3.49999988E-04   2.72702039E-07
   3.99999990E-04   2.77972077E-07
   4.49999992E-04   2.83327751E-07
   5.00000024E-04   2.88770082E-07
   5.49999997E-04   2.94300122E-07
   6.00000028E-04   2.99918838E-07
   6.50000002E-04   3.05627282E-07
   6.99999975E-04   3.11426390E-07
   7.50000007E-04   3.17317244E-07
   7.99999980E-04   3.23300810E-07
   8.50000011E-04   3.29378082E-07
   8.99999985E-04   3.35550084E-07
   9.50000016E-04   3.41817952E-07
   1.00000005E-03   3.48182681E-07
   1.04999996E-03   3.54645323E-07
   1.09999999E-03   3.61206844E-07
   1.15000003E-03   3.67868296E-07
   1.20000006E-03   3.74630645E-07
   1.24999997E-03   3.81494914E-07
   1.30000000E-03   3.88462126E-07
   1.35000004E-03   3.95533306E-07
   1.39999995E-03   4.02709475E-07
   1.44999998E-03   4.09991685E-07
   1.50000001E-03   4.17381017E-07
   1.55000004E-03   4.24878408E-07
   1.59999996E-03   4.32484910E-07
   1.64999999E-03   4.40201433E-07
   1.70000002E-03   4.48029027E-07
   1.75000005E-03   4.55968660E-07
   1.79999997E-03   4.64021326E-07
   1.85000000E-03   4.72188020E-07
   1.90000003E-03   4.80469794E-07
   1.94999995E-03   4.88867613E-07
   2.00000009E-03   4.97382416E-07
   2.05000001E-03   5.06015169E-07
   2.09999993E-03   5.14766782E-07
   2.15000007E-03   5.23638164E-07
   2.19999999E-03   5.32630224E-07
   2.24999990E-03   5.41743930E-07
   2.30000005E-03   5.50980303E-07
   2.34999997E-03   5.60340141E-07
   2.40000011E-03   5.69824408E-07
   2.45000003E-03   5.79433959E-07
   2.49999994E-03   5.89169701E-07
   2.55000009E-03   5.99032319E-07
   2.60000001E-03   6.09022834E-07
   2.64999992E-03   6.19142099E-07
   2.70000007E-03   6.29390854E-07
   2.74999999E-03   6.39769837E-07
   2.79999990E-03   6.50279958E-07