  -3.99999991E-02   0.00000000    
  -3.99499983E-02   0.00000000    
  -3.99000011E-02   0.00000000    
  -3.98500003E-02   0.00000000    
  -3.97999994E-02  -2.83168367E-18
  -3.97499986E-02  -3.42670421E-17
  -3.97000015E-02  -2.14095174E-16
  -3.96500006E-02  -9.16585893E-16
  -3.95999998E-02  -3.01168282E-15
  -3.95499989E-02  -8.06600507E-15
  -3.95000018E-02  -1.82611172E-14
  -3.94500010E-02  -3.57820022E-14
  -3.94000001E-02  -6.16622909E-14
  -3.93499993E-02  -9.45326716E-14
  -3.92999984E-02  -1.30168649E-13
  -3.92500013E-02  -1.62773359E-13
  -3.92000005E-02  -1.88245090E-13
  -3.91499996E-02  -2.08364006E-13
  -3.90999988E-02  -2.33554170E-13
  -3.90500017E-02  -2.81622463E-13
  -3.90000008E-02  -3.71323415E-13
  -3.89500000E-02  -5.12467672E-13
  -3.88999991E-02  -6.97192358E-13
  -3.88499983E-02  -8.98037883E-13
  -3.88000011E-02  -1.07635743E-12
  -3.87500003E-02  -1.19963967E-12
  -3.86999995E-02  -1.26065955E-12
  -3.86499986E-02  -1.28807642E-12
  -3.86000015E-02  -1.33974320E-12
  -3.85500006E-02  -1.47711379E-12
  -3.84999998E-02  -1.72929813E-12
  -3.84499989E-02  -2.06365003E-12
  -3.84000018E-02  -2.38091881E-12
  -3.83500010E-02  -2.54425647E-12
  -3.83000001E-02  -2.43512892E-12
  -3.82499993E-02  -2.01295252E-12
  -3.81999984E-02  -1.34826351E-12
  -3.81500013E-02  -6.07165902E-13
  -3.81000005E-02   1.40343424E-14
  -3.80499996E-02   3.80023703E-13
  -3.79999988E-02   4.92960056E-13
  -3.79500017E-02   5.15215041E-13
  -3.79000008E-02   7.20378672E-13
  -3.78500000E-02   1.38711622E-12
  -3.77999991E-02   2.68004846E-12
  -3.77499983E-02   4.57318038E-12
  -3.77000012E-02   6.85638135E-12
  -3.76500003E-02   9.22835332E-12
  -3.75999995E-02   1.14370232E-11
  -3.75499986E-02   1.34021474E-11
  -3.75000015E-02   1.52600918E-11
  -3.74500006E-02   1.73060750E-11
  -3.73999998E-02   1.98574473E-11
  -3.73499990E-02   2.30984138E-11
  -3.73000018E-02   2.69743203E-11
  -3.72500010E-02   3.11796908E-11
  -3.72000001E-02   3.52420419E-11
  -3.71499993E-02   3.86636417E-11
  -3.70999984E-02   4.10644192E-11
  -3.70500013E-02   4.22776363E-11
  -3.70000005E-02   4.23784653E-11
  -3.69499996E-02   4.16552973E-11
  -3.68999988E-02   4.05469304E-11
  -3.68500017E-02   3.95591858E-11
  -3.68000008E-02   3.91554358E-11
  -3.67500000E-02   3.96109846E-11
  -3.66999991E-02   4.08464686E-11
  -3.66499983E-02   4.23016622E-11
  -3.66000012E-02   4.29437146E-11
  -3.65500003E-02   4.14843264E-11
  -3.64999995E-02   3.67950323E-11
  -3.64499986E-02   2.83880749E-11
  -3.64000015E-02   1.67371342E-11
  -3.63500006E-02   3.21626753E-12
  -3.62999998E-02  -1.04300856E-11
  -3.62499990E-02  -2.29433243E-11
  -3.62000018E-02  -3.43638659E-11
  -3.61500010E-02  -4.63406223E-11
  -3.61000001E-02  -6.16160040E-11
  -3.60499993E-02  -8.27290250E-11
  -3.59999985E-02  -1.10426182E-10
  -3.59500013E-02  -1.42571316E-10
  -3.59000005E-02  -1.74291095E-10
  -3.58499996E-02  -1.99619044E-10
  -3.57999988E-02  -2.14165297E-10
  -3.57500017E-02  -2.17676058E-10
  -3.57000008E-02  -2.15129775E-10
  -3.56500000E-02  -2.15459831E-10
  -3.55999991E-02  -2.28009181E-10
  -3.55499983E-02  -2.58006394E-10
  -3.55000012E-02  -3.03127801E-10
  -3.54500003E-02  -3.53088309E-10
  -3.53999995E-02  -3.93061528E-10
  -3.53499986E-02  -4.09947687E-10
  -3.53000015E-02  -3.98879624E-10
  -3.52500007E-02  -3.66752934E-10
  -3.51999998E-02  -3.30484667E-10
  -3.51499990E-02  -3.09957449E-10
  -3.51000018E-02  -3.18270021E-10
  -3.50500010E-02  -3.53718527E-10
  -3.50000001E-02  -3.97815336E-10
  -3.49499993E-02  -4.21356616E-10
  -3.48999985E-02  -3.96871119E-10
  -3.48500013E-02  -3.12332993E-10
  -3.48000005E-02  -1.79568124E-10
  -3.47499996E-02  -3.23644167E-11
  -3.46999988E-02   8.63867797E-11
  -3.46500017E-02   1.43876647E-10
  -3.46000008E-02   1.34439002E-10
  -3.45500000E-02   8.58347074E-11
  -3.44999991E-02   5.01700695E-11
  -3.44499983E-02   8.17547349E-11
  -3.44000012E-02   2.10928525E-10
  -3.43500003E-02   4.26093522E-10
  -3.42999995E-02   6.73819944E-10
  -3.42499986E-02   8.79363748E-10
  -3.42000015E-02   9.80252435E-10
  -3.41500007E-02   9.58227719E-10
  -3.40999998E-02   8.53709825E-10
  -3.40499990E-02   7.53432039E-10
  -3.40000018E-02   7.53805240E-10
  -3.39500010E-02   9.14746612E-10
  -3.39000002E-02   1.22522559E-09
  -3.38499993E-02   1.59873470E-09
  -3.37999985E-02   1.90459959E-09
  -3.37500013E-02   2.02437822E-09
  -3.37000005E-02   1.90916949E-09
  -3.36499996E-02   1.61033842E-09
  -3.35999988E-02   1.26579169E-09
  -3.35500017E-02   1.04331899E-09
  -3.35000008E-02   1.06338571E-09
  -3.34500000E-02   1.33618838E-09
  -3.33999991E-02   1.74480219E-09
  -3.33499983E-02   2.08757034E-09
  -3.33000012E-02   2.16579576E-09
  -3.32500003E-02   1.87948346E-09
  -3.31999995E-02   1.28602096E-09
  -3.31499986E-02   5.89689353E-10
  -3.31000015E-02   5.97205688E-11
  -3.30500007E-02  -9.13526477E-11
  -3.29999998E-02   1.84990426E-10
  -3.29499990E-02   7.33003491E-10
  -3.29000019E-02   1.24548571E-09
  -3.28500010E-02   1.39382939E-09
  -3.28000002E-02   9.81044468E-10
  -3.27499993E-02   4.72329363E-11
  -3.26999985E-02  -1.12715692E-09
  -3.26500013E-02  -2.13149431E-09
  -3.26000005E-02  -2.60677746E-09
  -3.25499997E-02  -2.41930542E-09
  -3.24999988E-02  -1.74293879E-09
  -3.24500017E-02  -1.00253617E-09
  -3.24000008E-02  -6.92917279E-10
  -3.23500000E-02  -1.14819065E-09
  -3.22999991E-02  -2.36662401E-09
  -3.22499983E-02  -3.97924493E-09
  -3.22000012E-02  -5.38993117E-09
  -3.21500003E-02  -6.03578831E-09
  -3.20999995E-02  -5.65505820E-09
  -3.20499986E-02  -4.43640724E-09
  -3.20000015E-02  -2.96873526E-09
  -3.19500007E-02  -1.99815653E-09
  -3.18999998E-02  -2.09054152E-09
  -3.18499990E-02  -3.35086225E-09
  -3.18000019E-02  -5.33624256E-09
  -3.17500010E-02  -7.21939841E-09
  -3.17000002E-02  -8.14563972E-09
  -3.16499993E-02  -7.63079999E-09
  -3.15999985E-02  -5.81607118E-09
  -3.15500014E-02  -3.44865492E-09
  -3.15000005E-02  -1.57606017E-09
  -3.14499997E-02  -1.07575704E-09
  -3.13999988E-02  -2.22878538E-09
  -3.13500017E-02  -4.54118965E-09
  -3.13000008E-02  -6.91603885E-09
  -3.12500000E-02  -8.12170331E-09
  -3.11999992E-02  -7.35880112E-09
  -3.11500002E-02  -4.66722039E-09
  -3.10999993E-02  -9.70674874E-10
  -3.10500003E-02   2.28851826E-09
  -3.09999995E-02   3.78311293E-09
  -3.09500005E-02   2.92590041E-09
  -3.08999997E-02   1.93293048E-10
  -3.08500007E-02  -3.02463832E-09
  -3.07999998E-02  -5.01026287E-09
  -3.07500008E-02  -4.49667059E-09
  -3.07000000E-02  -1.28776112E-09
  -3.06499992E-02   3.57995789E-09
  -3.06000002E-02   8.23989854E-09
  -3.05499993E-02   1.08116298E-08
  -3.05000003E-02   1.02770290E-08
  -3.04499995E-02   7.01131730E-09
  -3.04000005E-02   2.69865996E-09
  -3.03499997E-02  -3.68353736E-10
  -3.03000007E-02  -3.18708726E-10
  -3.02499998E-02   3.39618222E-09
  -3.02000009E-02   9.65837987E-09
  -3.01500000E-02   1.60914251E-08
  -3.00999992E-02   2.00779517E-08
  -3.00500002E-02   1.99519992E-08
  -2.99999993E-02   1.58232147E-08
  -2.99500003E-02   9.62809743E-09
  -2.98999995E-02   4.33827996E-09
  -2.98500005E-02   2.64302025E-09
  -2.97999997E-02   5.68601433E-09
  -2.97500007E-02   1.24453940E-08
  -2.96999998E-02   2.00816714E-08
  -2.96500009E-02   2.51481183E-08
  -2.96000000E-02   2.51521310E-08
  -2.95499992E-02   1.97642489E-08
  -2.95000002E-02   1.10948717E-08
  -2.94499993E-02   2.85802360E-09
  -2.94000003E-02  -1.25330857E-09
  -2.93499995E-02   7.27193861E-10
  -2.93000005E-02   8.03640532E-09
  -2.92499997E-02   1.73834156E-08
  -2.92000007E-02   2.43275906E-08
  -2.91499998E-02   2.52599790E-08
  -2.91000009E-02   1.91060128E-08
  -2.90500000E-02   7.94976796E-09
  -2.89999992E-02  -3.76387455E-09
  -2.89500002E-02  -1.11544454E-08
  -2.88999993E-02  -1.11286393E-08
  -2.88500004E-02  -3.89137345E-09
  -2.87999995E-02   6.98679647E-09
  -2.87500005E-02   1.60492544E-08
  -2.86999997E-02   1.83753048E-08
  -2.86500007E-02   1.18758381E-08
  -2.85999998E-02  -1.60041314E-09
  -2.85500009E-02  -1.69175234E-08
  -2.85000000E-02  -2.78463208E-08
  -2.84499992E-02  -2.98675573E-08
  -2.84000002E-02  -2.23254322E-08
  -2.83499993E-02  -8.91127261E-09
  -2.83000004E-02   3.82351395E-09
  -2.82499995E-02   9.33509092E-09
  -2.82000005E-02   4.08399181E-09
  -2.81499997E-02  -1.07071276E-08
  -2.81000007E-02  -2.93968263E-08
  -2.80499998E-02  -4.43065531E-08
  -2.80000009E-02  -4.91403291E-08
  -2.79500000E-02  -4.19217265E-08
  -2.78999992E-02  -2.60815867E-08
  -2.78500002E-02  -9.11741171E-09
  -2.77999993E-02   6.67269462E-10
  -2.77500004E-02  -2.06607664E-09
  -2.76999995E-02  -1.71135213E-08
  -2.76500005E-02  -3.85752337E-08
  -2.75999997E-02  -5.72995802E-08
  -2.75500007E-02  -6.49175789E-08
  -2.74999999E-02  -5.76911674E-08
  -2.74500009E-02  -3.84098975E-08
  -2.74000000E-02  -1.53898601E-08
  -2.73499992E-02   1.08692344E-09
  -2.73000002E-02   3.37181194E-09
  -2.72499993E-02  -9.96819249E-09
  -2.72000004E-02  -3.32587362E-08
  -2.71499995E-02  -5.60290019E-08
  -2.71000005E-02  -6.75965381E-08
  -2.70499997E-02  -6.19244958E-08
  -2.70000007E-02  -4.05484428E-08
  -2.69499999E-02  -1.21652111E-08
  -2.69000009E-02   1.10558807E-08
  -2.68500000E-02   1.88836449E-08
  -2.67999992E-02   7.75870657E-09
  -2.67500002E-02  -1.73303185E-08
  -2.66999993E-02  -4.47888979E-08
  -2.66500004E-02  -6.14352871E-08
  -2.65999995E-02  -5.84271298E-08
  -2.65500005E-02  -3.54349616E-08
  -2.64999997E-02  -1.10218201E-09
  -2.64500007E-02   3.05511385E-08
  -2.63999999E-02   4.62925165E-08
  -2.63500009E-02   3.97015931E-08
  -2.63000000E-02   1.43153800E-08
  -2.62499992E-02  -1.76334058E-08
  -2.62000002E-02  -4.04652560E-08
  -2.61499994E-02  -4.20457624E-08
  -2.61000004E-02  -1.94087590E-08
  -2.60499995E-02   1.95861602E-08
  -2.60000005E-02   5.94472702E-08
  -2.59499997E-02   8.38108107E-08
  -2.59000007E-02   8.28228934E-08
  -2.58499999E-02   5.78186565E-08
  -2.58000009E-02   2.10893187E-08
  -2.57500000E-02  -9.31915789E-09
  -2.56999992E-02  -1.75835719E-08
  -2.56500002E-02   2.66317901E-09
  -2.55999994E-02   4.51396751E-08
  -2.55500004E-02   9.33374338E-08
  -2.54999995E-02   1.27639183E-07
  -2.54500005E-02   1.34063143E-07
  -2.53999997E-02   1.10731307E-07
  -2.53500007E-02   6.90680650E-08
  -2.52999999E-02   2.90259958E-08
  -2.52500009E-02   1.03146753E-08
  -2.52000000E-02   2.34748772E-08
  -2.51499992E-02   6.48267431E-08
  -2.51000002E-02   1.17690767E-07
  -2.50499994E-02   1.59517924E-07
  -2.50000004E-02   1.71885290E-07
  -2.49499995E-02   1.48928336E-07
  -2.49000005E-02   1.00357155E-07
  -2.48499997E-02   4.75353268E-08
  -2.48000007E-02   1.41883572E-08
  -2.47499999E-02   1.57767488E-08
  -2.47000009E-02   5.22881649E-08
  -2.46500000E-02   1.07796524E-07
  -2.45999992E-02   1.57178448E-07
  -2.45500002E-02   1.77160913E-07
  -2.44999994E-02   1.56841693E-07
  -2.44500004E-02   1.02926705E-07
  -2.43999995E-02   3.71781361E-08
  -2.43500005E-02  -1.29895916E-08
  -2.42999997E-02  -2.67160019E-08
  -2.42500007E-02   7.20984605E-10
  -2.41999999E-02   5.53321939E-08
  -2.41500009E-02   1.10204603E-07
  -2.41000000E-02   1.37267762E-07
  -2.40499992E-02   1.19901188E-07
  -2.40000002E-02   6.07286808E-08
  -2.39499994E-02  -1.90364151E-08
  -2.39000004E-02  -8.86228406E-08
  -2.38499995E-02  -1.21265515E-07
  -2.38000005E-02  -1.06317707E-07
  -2.37499997E-02  -5.44266427E-08
  -2.37000007E-02   6.73131151E-09
  -2.36499999E-02   4.44766997E-08
  -2.36000009E-02   3.57009213E-08
  -2.35500000E-02  -2.25014549E-08
  -2.34999992E-02  -1.11019695E-07
  -2.34500002E-02  -1.96764802E-07
  -2.33999994E-02  -2.47184857E-07
  -2.33500004E-02  -2.44888582E-07
  -2.32999995E-02  -1.95804631E-07
  -2.32500006E-02  -1.27052132E-07
  -2.31999997E-02  -7.52321085E-08
  -2.31500007E-02  -7.01742806E-08
  -2.30999999E-02  -1.21335702E-07
  -2.30500009E-02  -2.13027334E-07
  -2.30000000E-02  -3.10821207E-07
  -2.29499992E-02  -3.76521342E-07
  -2.29000002E-02  -3.85172001E-07
  -2.28499994E-02  -3.36511022E-07
  -2.28000004E-02  -2.55598223E-07
  -2.27499995E-02  -1.82092279E-07
  -2.27000006E-02  -1.52738323E-07
  -2.26499997E-02  -1.84779381E-07
  -2.26000007E-02  -2.67763170E-07
  -2.25499999E-02  -3.67607726E-07
  -2.25000009E-02  -4.41367519E-07
  -2.24500000E-02  -4.56301080E-07
  -2.23999992E-02  -4.04768713E-07
  -2.23500002E-02  -3.08179807E-07
  -2.22999994E-02  -2.07982197E-07
  -2.22500004E-02  -1.47461179E-07
  -2.21999995E-02  -1.52326422E-07
  -2.21500006E-02  -2.18775938E-07
  -2.20999997E-02  -3.14548970E-07
  -2.20500007E-02  -3.92764775E-07
  -2.19999999E-02  -4.12600031E-07
  -2.19500009E-02  -3.57665158E-07
  -2.19000001E-02  -2.43788520E-07
  -2.18499992E-02  -1.12508530E-07
  -2.18000002E-02  -1.29146960E-08
  -2.17499994E-02   2.02407318E-08
  -2.17000004E-02  -1.75911854E-08
  -2.16499995E-02  -9.81467991E-08
  -2.16000006E-02  -1.72420556E-07
  -2.15499997E-02  -1.92275166E-07
  -2.15000007E-02  -1.32072856E-07
  -2.14499999E-02  -6.20419160E-10
  -2.14000009E-02   1.62111363E-07
  -2.13500001E-02   3.02300293E-07
  -2.12999992E-02   3.76106698E-07
  -2.12500002E-02   3.69453289E-07
  -2.11999994E-02   3.04805468E-07
  -2.11500004E-02   2.31682748E-07
  -2.10999995E-02   2.04874539E-07
  -2.10500006E-02   2.59918608E-07
  -2.09999997E-02   3.96793610E-07
  -2.09500007E-02   5.79275309E-07
  -2.08999999E-02   7.50503375E-07
  -2.08500009E-02   8.58040721E-07
  -2.08000001E-02   8.77336902E-07
  -2.07499992E-02   8.23044218E-07
  -2.07000002E-02   7.42917962E-07
  -2.06499994E-02   6.96761674E-07
  -2.06000004E-02   7.29631381E-07
  -2.05499995E-02   8.51232983E-07
  -2.05000006E-02   1.03085119E-06
  -2.04499997E-02   1.21032474E-06
  -2.04000007E-02   1.32952312E-06
  -2.03499999E-02   1.35308653E-06
  -2.03000009E-02   1.28645729E-06
  -2.02500001E-02   1.17386219E-06
  -2.01999992E-02   1.07889446E-06
  -2.01500002E-02   1.05615698E-06
  -2.00999994E-02   1.12655482E-06
  -2.00500004E-02   1.26736029E-06
  -1.99999996E-02   1.42169745E-06
  -1.99500006E-02   1.52344228E-06
  -1.98999997E-02   1.52657242E-06
  -1.98500007E-02   1.42585907E-06
  -1.97999999E-02   1.25951794E-06
  -1.97500009E-02   1.09241239E-06
  -1.97000001E-02   9.87102112E-07
  -1.96499992E-02   9.75579951E-07
  -1.96000002E-02   1.04438107E-06
  -1.95499994E-02   1.13989677E-06
  -1.95000004E-02   1.19174899E-06
  -1.94499996E-02   1.14394561E-06
  -1.94000006E-02   9.79943707E-07
  -1.93499997E-02   7.30324132E-07
  -1.93000007E-02   4.59457027E-07
  -1.92499999E-02   2.36915866E-07
  -1.92000009E-02   1.06300405E-07
  -1.91500001E-02   6.54211476E-08
  -1.90999992E-02   6.68241853E-08
  -1.90500002E-02   3.86046395E-08
  -1.89999994E-02  -8.36336440E-08
  -1.89500004E-02  -3.27908651E-07
  -1.88999996E-02  -6.73048135E-07
  -1.88500006E-02  -1.05781794E-06
  -1.87999997E-02  -1.40808083E-06
  -1.87500007E-02  -1.66995289E-06
  -1.86999999E-02  -1.83414045E-06
  -1.86500009E-02  -1.94047675E-06
  -1.86000001E-02  -2.06047002E-06
  -1.85499992E-02  -2.26551924E-06
  -1.85000002E-02  -2.59493618E-06
  -1.84499994E-02  -3.03810384E-06
  -1.84000004E-02  -3.53885298E-06
  -1.83499996E-02  -4.02024489E-06
  -1.83000006E-02  -4.41876955E-06
  -1.82499997E-02  -4.71270550E-06
  -1.82000007E-02  -4.93189737E-06
  -1.81499999E-02  -5.14448129E-06
  -1.81000009E-02  -5.42639009E-06
  -1.80500001E-02  -5.82723760E-06
  -1.79999992E-02  -6.34784055E-06
  -1.79500002E-02  -6.93951779E-06
  -1.78999994E-02  -7.52557435E-06
  -1.78500004E-02  -8.03542116E-06
  -1.77999996E-02  -8.43608723E-06
  -1.77500006E-02  -8.74699344E-06
  -1.76999997E-02  -9.03129421E-06
  -1.76500008E-02  -9.36762808E-06
  -1.75999999E-02  -9.81484936E-06
  -1.75500009E-02  -1.03854945E-05
  -1.75000001E-02  -1.10399515E-05
  -1.74499992E-02  -1.17039353E-05
  -1.74000002E-02  -1.23015043E-05
  -1.73499994E-02  -1.27888079E-05
  -1.73000004E-02  -1.31734805E-05
  -1.72499996E-02  -1.35109713E-05
  -1.72000006E-02  -1.38794358E-05
  -1.71499997E-02  -1.43444850E-05
  -1.71000008E-02  -1.49295711E-05
  -1.70499999E-02  -1.56053029E-05
  -1.70000009E-02  -1.63024906E-05
  -1.69500001E-02  -1.69430423E-05
  -1.68999992E-02  -1.74748693E-05
  -1.68500002E-02  -1.78951177E-05
  -1.67999994E-02  -1.82513522E-05
  -1.67500004E-02  -1.86201378E-05
  -1.66999996E-02  -1.90727333E-05
  -1.66500006E-02  -1.96432447E-05
  -1.65999997E-02  -2.03134859E-05
  -1.65500008E-02  -2.10213675E-05
  -1.64999999E-02  -2.16888839E-05
  -1.64500009E-02  -2.22571398E-05
  -1.64000001E-02  -2.27127421E-05
  -1.63499992E-02  -2.30935457E-05
  -1.63000003E-02  -2.34714989E-05
  -1.62499994E-02  -2.39203382E-05
  -1.62000004E-02  -2.44825933E-05
  -1.61499996E-02  -2.51508518E-05
  -1.61000006E-02  -2.58715609E-05
  -1.60499997E-02  -2.65695708E-05
  -1.60000008E-02  -2.71823319E-05
  -1.59499999E-02  -2.76882402E-05
  -1.59000009E-02  -2.81163302E-05
  -1.58500001E-02  -2.85333626E-05
  -1.57999992E-02  -2.90140924E-05
  -1.57500003E-02  -2.96080707E-05
  -1.56999994E-02  -3.03181532E-05
  -1.56500004E-02  -3.11001568E-05
  -1.55999996E-02  -3.18836101E-05
  -1.55499997E-02  -3.26040499E-05
  -1.54999997E-02  -3.32323070E-05
  -1.54499998E-02  -3.37877136E-05
  -1.53999999E-02  -3.43293177E-05
  -1.53500000E-02  -3.49292823E-05
  -1.53000001E-02  -3.56407218E-05
  -1.52500002E-02  -3.64745283E-05
  -1.52000003E-02  -3.73955081E-05
  -1.51500003E-02  -3.83393963E-05
  -1.51000004E-02  -3.92426955E-05
  -1.50499996E-02  -4.00720237E-05
  -1.49999997E-02  -4.08394735E-05
  -1.49499997E-02  -4.15973082E-05
  -1.48999998E-02  -4.24147038E-05
  -1.48499999E-02  -4.33470232E-05
  -1.48000000E-02  -4.44119069E-05
  -1.47500001E-02  -4.55826412E-05
  -1.47000002E-02  -4.68015496E-05
  -1.46500003E-02  -4.80074341E-05
  -1.46000003E-02  -4.91638893E-05
  -1.45500004E-02  -5.02759940E-05
  -1.44999996E-02  -5.13879822E-05
  -1.44499997E-02  -5.25630821E-05
  -1.43999998E-02  -5.38552449E-05
  -1.43499998E-02  -5.52853598E-05
  -1.42999999E-02  -5.68328942E-05
  -1.42500000E-02  -5.84467416E-05
  -1.42000001E-02  -6.00697349E-05
  -1.41500002E-02  -6.16652032E-05
  -1.41000003E-02  -6.32341907E-05
  -1.40500003E-02  -6.48150090E-05
  -1.40000004E-02  -6.64656400E-05
  -1.39499996E-02  -6.82378668E-05
  -1.38999997E-02  -7.01544413E-05
  -1.38499998E-02  -7.22002660E-05
  -1.37999998E-02  -7.43305864E-05
  -1.37499999E-02  -7.64928991E-05
  -1.37000000E-02  -7.86520177E-05
  -1.36500001E-02  -8.08064287E-05
  -1.36000002E-02  -8.29888304E-05
  -1.35500003E-02  -8.52508383E-05
  -1.35000004E-02  -8.76392514E-05
  -1.34500004E-02  -9.01748936E-05
  -1.33999996E-02  -9.28441732E-05
  -1.33499997E-02  -9.56066433E-05
  -1.32999998E-02  -9.84149810E-05
  -1.32499998E-02  -1.01237572E-04
  -1.31999999E-02  -1.04073573E-04
  -1.31500000E-02  -1.06953645E-04
  -1.31000001E-02  -1.09925510E-04
  -1.30500002E-02  -1.13031907E-04
  -1.30000003E-02  -1.16291623E-04
  -1.29500004E-02  -1.19691678E-04
  -1.29000004E-02  -1.23194710E-04
  -1.28499996E-02  -1.26757950E-04
  -1.27999997E-02  -1.30354165E-04
  -1.27499998E-02  -1.33985173E-04
  -1.26999998E-02  -1.37681040E-04
  -1.26499999E-02  -1.41485812E-04
  -1.26000000E-02  -1.45437094E-04
  -1.25500001E-02  -1.49548272E-04
  -1.25000002E-02  -1.53803237E-04
  -1.24500003E-02  -1.58165058E-04
  -1.24000004E-02  -1.62593977E-04
  -1.23500004E-02  -1.67067497E-04
  -1.22999996E-02  -1.71591892E-04
  -1.22499997E-02  -1.76199304E-04
  -1.21999998E-02  -1.80933232E-04
  -1.21499998E-02  -1.85828467E-04
  -1.20999999E-02  -1.90894745E-04
  -1.20500000E-02  -1.96112960E-04
  -1.20000001E-02  -2.01445553E-04
  -1.19500002E-02  -2.06856290E-04
  -1.19000003E-02  -2.12329163E-04
  -1.18500004E-02  -2.17877678E-04
  -1.18000004E-02  -2.23539901E-04
  -1.17499996E-02  -2.29361787E-04
  -1.16999997E-02  -2.35376356E-04
  -1.16499998E-02  -2.41587579E-04
  -1.15999999E-02  -2.47969409E-04
  -1.15499999E-02  -2.54478917E-04
  -1.15000000E-02  -2.61076988E-04
  -1.14500001E-02  -2.67750031E-04
  -1.14000002E-02  -2.74517428E-04
  -1.13500003E-02  -2.81423738E-04
  -1.13000004E-02  -2.88520008E-04
  -1.12500004E-02  -2.95840378E-04
  -1.11999996E-02  -3.03386914E-04
  -1.11499997E-02  -3.11129406E-04
  -1.10999998E-02  -3.19021143E-04
  -1.10499999E-02  -3.27024027E-04
  -1.09999999E-02  -3.35129123E-04
  -1.09500000E-02  -3.43364663E-04
  -1.09000001E-02  -3.51785828E-04
  -1.08500002E-02  -3.60451057E-04
  -1.08000003E-02  -3.69396119E-04
  -1.07500004E-02  -3.78618104E-04
  -1.07000005E-02  -3.88076587E-04
  -1.06499996E-02  -3.97712516E-04
  -1.05999997E-02  -4.07478045E-04
  -1.05499998E-02  -4.17361502E-04
  -1.04999999E-02  -4.27394640E-04
  -1.04499999E-02  -4.37641225E-04
  -1.04000000E-02  -4.48170002E-04
  -1.03500001E-02  -4.59023868E-04
  -1.03000002E-02  -4.70202242E-04
  -1.02500003E-02  -4.81661904E-04
  -1.02000004E-02  -4.93338623E-04
  -1.01500005E-02  -5.05180040E-04
  -1.00999996E-02  -5.17173263E-04
  -1.00499997E-02  -5.29355428E-04
  -9.99999978E-03  -5.41801332E-04
  -9.94999986E-03  -5.54592931E-04
  -9.89999995E-03  -5.67782787E-04
  -9.85000003E-03  -5.81371540E-04
  -9.80000012E-03  -5.95308433E-04
  -9.75000020E-03  -6.09515759E-04
  -9.70000029E-03  -6.23928034E-04
  -9.65000037E-03  -6.38523314E-04
  -9.60000046E-03  -6.53338036E-04
  -9.54999961E-03  -6.68454042E-04
  -9.49999969E-03  -6.83962484E-04
  -9.44999978E-03  -6.99924072E-04
  -9.39999986E-03  -7.16341310E-04
  -9.34999995E-03  -7.33157562E-04
  -9.30000003E-03  -7.50285923E-04
  -9.25000012E-03  -7.67650898E-04
  -9.20000020E-03  -7.85226759E-04
  -9.15000029E-03  -8.03053903E-04
  -9.10000037E-03  -8.21225462E-04
  -9.05000046E-03  -8.39848944E-04
  -8.99999961E-03  -8.59000080E-04
  -8.94999970E-03  -8.78693012E-04
  -8.89999978E-03  -8.98873841E-04
  -8.84999987E-03  -9.19447106E-04
  -8.79999995E-03  -9.40325670E-04
  -8.75000004E-03  -9.61471465E-04
  -8.70000012E-03  -9.82917729E-04
  -8.65000021E-03  -1.00475736E-03
  -8.60000029E-03  -1.02710479E-03
  -8.55000038E-03  -1.05004769E-03
  -8.50000046E-03  -1.07360596E-03
  -8.44999962E-03  -1.09772175E-03
  -8.39999970E-03  -1.12228864E-03
  -8.34999979E-03  -1.14720303E-03
  -8.29999987E-03  -1.17241603E-03
  -8.24999996E-03  -1.19795476E-03
  -8.20000004E-03  -1.22391735E-03
  -8.15000013E-03  -1.25043490E-03
  -8.10000021E-03  -1.27761171E-03
  -8.05000030E-03  -1.30548060E-03
  -8.00000038E-03  -1.33399258E-03
  -7.95000046E-03  -1.36303937E-03
  -7.89999962E-03  -1.39250746E-03
  -7.84999970E-03  -1.42233644E-03
  -7.79999979E-03  -1.45255111E-03
  -7.74999987E-03  -1.48325379E-03
  -7.69999996E-03  -1.51458452E-03
  -7.65000004E-03  -1.54666230E-03
  -7.60000013E-03  -1.57953030E-03
  -7.55000021E-03  -1.61313952E-03
  -7.49999983E-03  -1.64737250E-03
  -7.44999992E-03  -1.68210117E-03
  -7.40000000E-03  -1.71724590E-03
  -7.35000009E-03  -1.75282010E-03
  -7.30000017E-03  -1.78893132E-03
  -7.24999979E-03  -1.82573101E-03
  -7.19999988E-03  -1.86335132E-03
  -7.14999996E-03  -1.90184836E-03
  -7.10000005E-03  -1.94117520E-03
  -7.05000013E-03  -1.98121136E-03
  -7.00000022E-03  -2.02181633E-03
  -6.94999984E-03  -2.06289743E-03
  -6.89999992E-03  -2.10446306E-03
  -6.85000001E-03  -2.14662333E-03
  -6.80000009E-03  -2.18954473E-03
  -6.75000018E-03  -2.23337300E-03
  -6.69999979E-03  -2.27817777E-03
  -6.64999988E-03  -2.32392689E-03
  -6.59999996E-03  -2.37049535E-03
  -6.55000005E-03  -2.41773156E-03
  -6.50000013E-03  -2.46553333E-03
  -6.45000022E-03  -2.51389621E-03
  -6.39999984E-03  -2.56292988E-03
  -6.34999992E-03  -2.61280593E-03
  -6.30000001E-03  -2.66368245E-03
  -6.25000009E-03  -2.71564699E-03
  -6.20000018E-03  -2.76866532E-03
  -6.14999980E-03  -2.82260706E-03
  -6.09999988E-03  -2.87730596E-03
  -6.04999997E-03  -2.93264142E-03
  -6.00000005E-03  -2.98859994E-03
  -5.95000014E-03  -3.04527674E-03
  -5.90000022E-03  -3.10284668E-03
  -5.84999984E-03  -3.16149206E-03
  -5.79999993E-03  -3.22131068E-03
  -5.75000001E-03  -3.28228297E-03
  -5.70000010E-03  -3.34428623E-03
  -5.65000018E-03  -3.40714445E-03
  -5.59999980E-03  -3.47070792E-03
  -5.54999989E-03  -3.53494450E-03
  -5.49999997E-03  -3.59996082E-03
  -5.45000006E-03  -3.66594526E-03
  -5.40000014E-03  -3.73309036E-03
  -5.35000023E-03  -3.80151626E-03
  -5.29999984E-03  -3.87121108E-03
  -5.24999993E-03  -3.94204259E-03
  -5.20000001E-03  -4.01382195E-03
  -5.15000010E-03  -4.08639386E-03
  -5.10000018E-03  -4.15970711E-03
  -5.04999980E-03  -4.23384411E-03
  -4.99999989E-03  -4.30899626E-03
  -4.94999997E-03  -4.38536983E-03
  -4.90000006E-03  -4.46309289E-03
  -4.85000014E-03  -4.54216404E-03
  -4.80000023E-03  -4.62244824E-03
  -4.74999985E-03  -4.70372941E-03
  -4.69999993E-03  -4.78583248E-03
  -4.65000002E-03  -4.86870669E-03
  -4.60000010E-03  -4.95243073E-03
  -4.55000019E-03  -5.03719226E-03
  -4.49999981E-03  -5.12321340E-03
  -4.44999989E-03  -5.21065248E-03
  -4.39999998E-03  -5.29952487E-03
  -4.35000006E-03  -5.38970158E-03
  -4.30000015E-03  -5.48096932E-03
  -4.25000023E-03  -5.57312276E-03
  -4.19999985E-03  -5.66607015E-03
  -4.14999994E-03  -5.75988647E-03
  -4.10000002E-03  -5.85476775E-03
  -4.05000011E-03  -5.95095474E-03
  -4.00000019E-03  -6.04862301E-03
  -3.94999981E-03  -6.14780094E-03
  -3.89999989E-03  -6.24835212E-03
  -3.84999998E-03  -6.35001436E-03
  -3.80000006E-03  -6.45255530E-03
  -3.74999992E-03  -6.55586412E-03
  -3.70000000E-03  -6.65998878E-03
  -3.65000009E-03  -6.76513743E-03
  -3.59999994E-03  -6.87158201E-03
  -3.55000002E-03  -6.97952695E-03
  -3.50000011E-03  -7.08901370E-03
  -3.44999996E-03  -7.19992071E-03
  -3.40000005E-03  -7.31199747E-03
  -3.34999990E-03  -7.42496969E-03
  -3.29999998E-03  -7.53866974E-03
  -3.25000007E-03  -7.65312370E-03
  -3.19999992E-03  -7.76855042E-03
  -3.15000000E-03  -7.88524561E-03
  -3.10000009E-03  -8.00347608E-03
  -3.04999994E-03  -8.12332518E-03
  -3.00000003E-03  -8.24465696E-03
  -2.95000011E-03  -8.36717896E-03
  -2.89999996E-03  -8.49055033E-03
  -2.85000005E-03  -8.61456897E-03
  -2.79999990E-03  -8.73923581E-03
  -2.74999999E-03  -8.86476226E-03
  -2.70000007E-03  -8.99148080E-03
  -2.64999992E-03  -9.11969598E-03
  -2.60000001E-03  -9.24951956E-03
  -2.55000009E-03  -9.38083045E-03
  -2.49999994E-03  -9.51335020E-03
  -2.45000003E-03  -9.64671932E-03
  -2.40000011E-03  -9.78064444E-03
  -2.34999997E-03  -9.91504360E-03
  -2.30000005E-03  -1.00501180E-02
  -2.24999990E-03  -1.01862559E-02
  -2.19999999E-03  -1.03238178E-02
  -2.15000007E-03  -1.04629835E-02
  -2.09999993E-03  -1.06036915E-02
  -2.05000001E-03  -1.07456129E-02
  -2.00000009E-03  -1.08883139E-02
  -1.94999995E-03  -1.10314386E-02
  -1.90000003E-03  -1.11748502E-02
  -1.85000000E-03  -1.13187125E-02
  -1.79999997E-03  -1.14634465E-02
  -1.75000005E-03  -1.16095021E-02
  -1.70000002E-03  -1.17571251E-02
  -1.64999999E-03  -1.19062625E-02
  -1.59999996E-03  -1.20565500E-02
  -1.55000004E-03  -1.22074820E-02
  -1.50000001E-03  -1.23586403E-02
  -1.44999998E-03  -1.25098443E-02
  -1.39999995E-03  -1.26612475E-02
  -1.35000004E-03  -1.28132980E-02
  -1.30000000E-03  -1.29664801E-02
  -1.24999997E-03  -1.31210890E-02
  -1.20000006E-03  -1.32771060E-02
  -1.15000003E-03  -1.34341773E-02
  -1.09999999E-03  -1.35917254E-02
  -1.04999996E-03  -1.37492325E-02
  -1.00000005E-03  -1.39064305E-02
  -9.50000016E-04  -1.40634859E-02
  -8.99999985E-04  -1.42208999E-02
  -8.50000011E-04  -1.43791754E-02
  -7.99999980E-04  -1.45387109E-02
  -7.50000007E-04  -1.46995550E-02
  -6.99999975E-04  -1.48613304E-02
  -6.50000002E-04  -1.50234224E-02
  -6.00000028E-04  -1.51851987E-02
  -5.49999997E-04  -1.53462831E-02
  -5.00000024E-04  -1.55067900E-02
  -4.49999992E-04  -1.56672169E-02
  -3.99999990E-04  -1.58281233E-02
  -3.49999988E-04  -1.59899760E-02
  -3.00000014E-04  -1.61529109E-02
  -2.50000012E-04  -1.63166076E-02
  -1.99999995E-04  -1.64803956E-02
  -1.50000007E-04  -1.66435782E-02
  -9.99999975E-05  -1.68056712E-02
  -4.99999987E-05  -1.69665776E-02
   0.00000000      -1.71267148E-02
   4.99999987E-05  -1.72868054E-02
   9.99999975E-05  -1.74474344E-02
   1.50000007E-04  -1.76088233E-02
   1.99999995E-04  -1.77707262E-02
   2.50000012E-04  -1.79324467E-02
   3.00000014E-04  -1.80932023E-02
   3.49999988E-04  -1.82524081E-02
   3.99999990E-04  -1.84099562E-02
   4.49999992E-04  -1.85662489E-02
   5.00000024E-04  -1.87218748E-02
   5.49999997E-04  -1.88774541E-02
   6.00000028E-04  -1.90333240E-02
   6.50000002E-04  -1.91892944E-02
   6.99999975E-04  -1.93447564E-02
   7.50000007E-04  -1.94988940E-02
   7.99999980E-04  -1.96509380E-02
   8.50000011E-04  -1.98005922E-02
   8.99999985E-04  -1.99481472E-02
   9.50000016E-04  -2.00942438E-02
   1.00000005E-03  -2.02396233E-02
   1.04999996E-03  -2.03847475E-02
   1.09999999E-03  -2.05295421E-02
   1.15000003E-03  -2.06734221E-02
   1.20000006E-03  -2.08155122E-02
   1.24999997E-03  -2.09549554E-02
   1.30000000E-03  -2.10913364E-02
   1.35000004E-03  -2.12247483E-02
   1.39999995E-03  -2.13558562E-02
   1.44999998E-03  -2.14854926E-02
   1.50000001E-03  -2.16141790E-02
   1.55000004E-03  -2.17420235E-02
   1.59999996E-03  -2.18685139E-02
   1.64999999E-03  -2.19926331E-02
   1.70000002E-03  -2.21133772E-02
   1.75000005E-03  -2.22302154E-02
   1.79999997E-03  -2.23432202E-02
   1.85000000E-03  -2.24529523E-02
   1.90000003E-03  -2.25602370E-02
   1.94999995E-03  -2.26658434E-02
   2.00000009E-03  -2.27699969E-02
   2.05000001E-03  -2.28721760E-02
   2.09999993E-03  -2.29714420E-02
   2.15000007E-03  -2.30667312E-02
   2.19999999E-03  -2.31571663E-02
   2.24999990E-03  -2.32425667E-02
   2.30000005E-03  -2.33234949E-02
   2.34999997E-03  -2.34010108E-02
   2.40000011E-03  -2.34759860E-02
   2.45000003E-03  -2.35487446E-02
   2.49999994E-03  -2.36189775E-02
   2.55000009E-03  -2.36856174E-02
   2.60000001E-03  -2.37474050E-02
   2.64999992E-03  -2.38034185E-02
   2.70000007E-03  -2.38534287E-02
   2.74999999E-03  -2.38978900E-02
   2.79999990E-03  -2.39376947E-02