  -3.99999991E-02   0.00000000    
  -3.99499983E-02   0.00000000    
  -3.99000011E-02   0.00000000    
  -3.98500003E-02   0.00000000    
  -3.97999994E-02   4.93593266E-24
  -3.97499986E-02   9.96173078E-24
  -3.97000015E-02  -9.52251354E-23
  -3.96500006E-02  -7.24465874E-22
  -3.95999998E-02  -2.75094947E-21
  -3.95499989E-02  -7.27471664E-21
  -3.95000018E-02  -1.46542396E-20
  -3.94500010E-02  -2.28658458E-20
  -3.94000001E-02  -2.60200615E-20
  -3.93499993E-02  -1.45238375E-20
  -3.92999984E-02   2.17508095E-20
  -3.92500013E-02   8.72879886E-20
  -3.92000005E-02   1.74007006E-19
  -3.91499996E-02   2.57827544E-19
  -3.90999988E-02   3.02931480E-19
  -3.90500017E-02   2.74907376E-19
  -3.90000008E-02   1.58629486E-19
  -3.89500000E-02  -2.82004870E-20
  -3.88999991E-02  -2.35892317E-19
  -3.88499983E-02  -4.02882867E-19
  -3.88000011E-02  -4.90007009E-19
  -3.87500003E-02  -5.13706457E-19
  -3.86999995E-02  -5.58966006E-19
  -3.86499986E-02  -7.58927769E-19
  -3.86000015E-02  -1.24352171E-18
  -3.85500006E-02  -2.07765663E-18
  -3.84999998E-02  -3.22095424E-18
  -3.84499989E-02  -4.53748395E-18
  -3.84000018E-02  -5.86340029E-18
  -3.83500010E-02  -7.10991598E-18
  -3.83000001E-02  -8.35342486E-18
  -3.82499993E-02  -9.85973069E-18
  -3.81999984E-02  -1.20129786E-17
  -3.81500013E-02  -1.51650959E-17
  -3.81000005E-02  -1.94673235E-17
  -3.80499996E-02  -2.47668496E-17
  -3.79999988E-02  -3.06328307E-17
  -3.79500017E-02  -3.65206130E-17
  -3.79000008E-02  -4.20141610E-17
  -3.78500000E-02  -4.70374369E-17
  -3.77999991E-02  -5.19245060E-17
  -3.77499983E-02  -5.72926137E-17
  -3.77000012E-02  -6.37538141E-17
  -3.76500003E-02  -7.15871417E-17
  -3.75999995E-02  -8.05290502E-17
  -3.75499986E-02  -8.97994420E-17
  -3.75000015E-02  -9.83753528E-17
  -3.74500006E-02  -1.05402159E-16
  -3.73999998E-02  -1.10554178E-16
  -3.73499990E-02  -1.14166502E-16
  -3.73000018E-02  -1.17058484E-16
  -3.72500010E-02  -1.20111998E-16
  -3.72000001E-02  -1.23787936E-16
  -3.71499993E-02  -1.27801575E-16
  -3.70999984E-02  -1.31109861E-16
  -3.70500013E-02  -1.32222597E-16
  -3.70000005E-02  -1.29697923E-16
  -3.69499996E-02  -1.22601177E-16
  -3.68999988E-02  -1.10733252E-16
  -3.68500017E-02  -9.45574709E-17
  -3.68000008E-02  -7.49025346E-17
  -3.67500000E-02  -5.26125813E-17
  -3.66999991E-02  -2.83043603E-17
  -3.66499983E-02  -2.29340333E-18
  -3.66000012E-02   2.53642957E-17
  -3.65500003E-02   5.48232480E-17
  -3.64999995E-02   8.64580624E-17
  -3.64499986E-02   1.20890011E-16
  -3.64000015E-02   1.58898338E-16
  -3.63500006E-02   2.01094833E-16
  -3.62999998E-02   2.47380578E-16
  -3.62499990E-02   2.96413330E-16
  -3.62000018E-02   3.45455982E-16
  -3.61500010E-02   3.90916425E-16
  -3.61000001E-02   4.29579880E-16
  -3.60499993E-02   4.60090986E-16
  -3.59999985E-02   4.83905741E-16
  -3.59500013E-02   5.04963562E-16
  -3.59000005E-02   5.27828740E-16
  -3.58499996E-02   5.54863014E-16
  -3.57999988E-02   5.83732332E-16
  -3.57500017E-02   6.06753152E-16
  -3.57000008E-02   6.12996526E-16
  -3.56500000E-02   5.92793308E-16
  -3.55999991E-02   5.42860716E-16
  -3.55499983E-02   4.69448953E-16
  -3.55000012E-02   3.87291098E-16
  -3.54500003E-02   3.13833489E-16
  -3.53999995E-02   2.60618327E-16
  -3.53499986E-02   2.25664453E-16
  -3.53000015E-02   1.91080879E-16
  -3.52500007E-02   1.28379424E-16
  -3.51999998E-02   1.04963562E-17
  -3.51499990E-02  -1.74151245E-16
  -3.51000018E-02  -4.12281852E-16
  -3.50500010E-02  -6.66731820E-16
  -3.50000001E-02  -8.89367019E-16
  -3.49499993E-02  -1.04175121E-15
  -3.48999985E-02  -1.11470372E-15
  -3.48500013E-02  -1.13680334E-15
  -3.48000005E-02  -1.16566144E-15
  -3.47499996E-02  -1.26334064E-15
  -3.46999988E-02  -1.46547648E-15
  -3.46500017E-02  -1.75842589E-15
  -3.46000008E-02  -2.07713210E-15
  -3.45500000E-02  -2.32811855E-15
  -3.44999991E-02  -2.43020889E-15
  -3.44499983E-02  -2.35557576E-15
  -3.44000012E-02  -2.15083815E-15
  -3.43500003E-02  -1.92472165E-15
  -3.42999995E-02  -1.80330562E-15
  -3.42499986E-02  -1.87009459E-15
  -3.42000015E-02  -2.11819795E-15
  -3.41500007E-02  -2.43992923E-15
  -3.40999998E-02  -2.66433494E-15
  -3.40499990E-02  -2.63104972E-15
  -3.40000018E-02  -2.26936326E-15
  -3.39500010E-02  -1.64450219E-15
  -3.39000002E-02  -9.44014620E-16
  -3.38499993E-02  -4.02856043E-16
  -3.37999985E-02  -1.95615734E-16
  -3.37500013E-02  -3.44181647E-16
  -3.37000005E-02  -6.87921090E-16
  -3.36499996E-02  -9.39033643E-16
  -3.35999988E-02  -8.07089997E-16
  -3.35500017E-02  -1.40996668E-16
  -3.35000008E-02   9.78401405E-16
  -3.34500000E-02   2.24622211E-15
  -3.33999991E-02   3.25063378E-15
  -3.33499983E-02   3.65590093E-15
  -3.33000012E-02   3.37099758E-15
  -3.32500003E-02   2.62078008E-15
  -3.31999995E-02   1.87398861E-15
  -3.31499986E-02   1.64610160E-15
  -3.31000015E-02   2.25744741E-15
  -3.30500007E-02   3.65762040E-15
  -3.29999998E-02   5.40779630E-15
  -3.29499990E-02   6.84679474E-15
  -3.29000019E-02   7.38131869E-15
  -3.28500010E-02   6.77477619E-15
  -3.28000002E-02   5.29631321E-15
  -3.27499993E-02   3.64404755E-15
  -3.26999985E-02   2.65568652E-15
  -3.26500013E-02   2.92288221E-15
  -3.26000005E-02   4.48373926E-15
  -3.25499997E-02   6.74830810E-15
  -3.24999988E-02   8.71614436E-15
  -3.24500017E-02   9.41143305E-15
  -3.24000008E-02   8.34987969E-15
  -3.23500000E-02   5.81814861E-15
  -3.22999991E-02   2.81455305E-15
  -3.22499983E-02   6.46493609E-16
  -3.22000012E-02   3.43058561E-16
  -3.21500003E-02   2.14418979E-15
  -3.20999995E-02   5.31594701E-15
  -3.20499986E-02   8.40967937E-15
  -3.20000015E-02   9.88290768E-15
  -3.19500007E-02   8.82046833E-15
  -3.18999998E-02   5.42317969E-15
  -3.18499990E-02   1.01154824E-15
  -3.18000019E-02  -2.50059288E-15
  -3.17500010E-02  -3.46050546E-15
  -3.17000002E-02  -1.28382804E-15
  -3.16499993E-02   3.17100887E-15
  -3.15999985E-02   7.87586650E-15
  -3.15500014E-02   1.04806834E-14
  -3.15000005E-02   9.38570358E-15
  -3.14499997E-02   4.55238323E-15
  -3.13999988E-02  -2.35032669E-15
  -3.13500017E-02  -8.58805265E-15
  -3.13000008E-02  -1.15542316E-14
  -3.12500000E-02  -9.99887327E-15
  -3.11999992E-02  -4.71896539E-15
  -3.11500002E-02   1.65606588E-15
  -3.10999993E-02   5.75434840E-15
  -3.10500003E-02   4.98425230E-15
  -3.09999995E-02  -1.19047654E-15
  -3.09500005E-02  -1.08395484E-14
  -3.08999997E-02  -2.02774063E-14
  -3.08500007E-02  -2.56489606E-14
  -3.07999998E-02  -2.47133755E-14
  -3.07500008E-02  -1.80063602E-14
  -3.07000000E-02  -8.79136343E-15
  -3.06499992E-02  -1.73338898E-15
  -3.06000002E-02  -8.21446676E-16
  -3.05499993E-02  -7.45503174E-15
  -3.05000003E-02  -1.95991108E-14
  -3.04499995E-02  -3.24778317E-14
  -3.04000005E-02  -4.05923870E-14
  -3.03499997E-02  -4.02158165E-14
  -3.03000007E-02  -3.12363457E-14
  -3.02499998E-02  -1.74464494E-14
  -3.02000009E-02  -5.03701441E-15
  -3.01500000E-02   1.24524881E-16
  -3.00999992E-02  -4.75179342E-15
  -3.00500002E-02  -1.78707181E-14
  -2.99999993E-02  -3.33743416E-14
  -2.99500003E-02  -4.37870091E-14
  -2.98999995E-02  -4.33742872E-14
  -2.98500005E-02  -3.09171363E-14
  -2.97999997E-02  -1.05766565E-14
  -2.97500007E-02   9.67482642E-15
  -2.96999998E-02   2.14855345E-14
  -2.96500009E-02   1.99484662E-14
  -2.96000000E-02   6.07318092E-15
  -2.95499992E-02  -1.33227051E-14
  -2.95000002E-02  -2.84122955E-14
  -2.94499993E-02  -3.07208042E-14
  -2.94000003E-02  -1.71306230E-14
  -2.93499995E-02   8.34050304E-15
  -2.93000005E-02   3.59424608E-14
  -2.92499997E-02   5.43192268E-14
  -2.92000007E-02   5.56168779E-14
  -2.91499998E-02   3.92759793E-14
  -2.91000009E-02   1.26840677E-14
  -2.90500000E-02  -1.17940419E-14
  -2.89999992E-02  -2.22485113E-14
  -2.89500002E-02  -1.27586057E-14
  -2.88999993E-02   1.35131655E-14
  -2.88500004E-02   4.52292351E-14
  -2.87999995E-02   6.75955738E-14
  -2.87500005E-02   6.89351733E-14
  -2.86999997E-02   4.61997926E-14
  -2.86500007E-02   6.83053171E-15
  -2.85999998E-02  -3.40854969E-14
  -2.85500009E-02  -6.03123373E-14
  -2.85000000E-02  -6.18313926E-14
  -2.84499992E-02  -3.97442157E-14
  -2.84000002E-02  -6.33243017E-15
  -2.83499993E-02   2.00090222E-14
  -2.83000004E-02   2.29127477E-14
  -2.82499995E-02  -4.31519241E-15
  -2.82000005E-02  -5.50727134E-14
  -2.81499997E-02  -1.11730463E-13
  -2.81000007E-02  -1.53058162E-13
  -2.80499998E-02  -1.63676066E-13
  -2.80000009E-02  -1.41312567E-13
  -2.79500000E-02  -9.84386794E-14
  -2.78999992E-02  -5.72483955E-14
  -2.78500002E-02  -3.99437597E-14
  -2.77999993E-02  -5.85265817E-14
  -2.77500004E-02  -1.08731810E-13
  -2.76999995E-02  -1.71075448E-13
  -2.76500005E-02  -2.18887964E-13
  -2.75999997E-02  -2.30011865E-13
  -2.75500007E-02  -1.97010065E-13
  -2.74999999E-02  -1.31163648E-13
  -2.74500009E-02  -5.81438652E-14
  -2.74000000E-02  -6.93496198E-15
  -2.73499992E-02   3.26415814E-15
  -2.73000002E-02  -2.77090701E-14
  -2.72499993E-02  -7.99697968E-14
  -2.72000004E-02  -1.21660088E-13
  -2.71499995E-02  -1.22858876E-13
  -2.71000005E-02  -6.92733157E-14
  -2.70499997E-02   3.05216058E-14
  -2.70000007E-02   1.47879552E-13
  -2.69499999E-02   2.46101859E-13
  -2.69000009E-02   2.96637985E-13
  -2.68500000E-02   2.92300472E-13
  -2.67999992E-02   2.51362950E-13
  -2.67500002E-02   2.10275834E-13
  -2.66999993E-02   2.07800845E-13
  -2.66500004E-02   2.67383690E-13
  -2.65999995E-02   3.85682778E-13
  -2.65500005E-02   5.32725556E-13
  -2.64999997E-02   6.64129125E-13
  -2.64500007E-02   7.40369734E-13
  -2.63999999E-02   7.44673474E-13
  -2.63500009E-02   6.91361898E-13
  -2.63000000E-02   6.20461798E-13
  -2.62499992E-02   5.80432132E-13
  -2.62000002E-02   6.06324236E-13
  -2.61499994E-02   7.03070143E-13
  -2.61000004E-02   8.41684470E-13
  -2.60499995E-02   9.70647824E-13
  -2.60000005E-02   1.03796626E-12
  -2.59499997E-02   1.01438009E-12
  -2.59000007E-02   9.07280761E-13
  -2.58499999E-02   7.58659574E-13
  -2.58000009E-02   6.27359059E-13
  -2.57500000E-02   5.63003095E-13
  -2.56999992E-02   5.83046415E-13
  -2.56500002E-02   6.63442933E-13
  -2.55999994E-02   7.47705392E-13
  -2.55500004E-02   7.71012757E-13
  -2.54999995E-02   6.89089736E-13
  -2.54500005E-02   4.99011910E-13
  -2.53999997E-02   2.42218870E-13
  -2.53500007E-02  -1.23368418E-14
  -2.52999999E-02  -1.98093657E-13
  -2.52500009E-02  -2.80861516E-13
  -2.52000000E-02  -2.75353714E-13
  -2.51499992E-02  -2.40279910E-13
  -2.51000002E-02  -2.53367558E-13
  -2.50499994E-02  -3.76789881E-13
  -2.50000004E-02  -6.28216066E-13
  -2.49499995E-02  -9.70756787E-13
  -2.49000005E-02  -1.32707322E-12
  -2.48499997E-02  -1.61222142E-12
  -2.48000007E-02  -1.77115039E-12
  -2.47499999E-02  -1.80412759E-12
  -2.47000009E-02  -1.76816960E-12
  -2.46500000E-02  -1.75291801E-12
  -2.45999992E-02  -1.84086340E-12
  -2.45500002E-02  -2.06925427E-12
  -2.44999994E-02  -2.41092432E-12
  -2.44500004E-02  -2.78340415E-12
  -2.43999995E-02  -3.08328233E-12
  -2.43500005E-02  -3.23128872E-12
  -2.42999997E-02  -3.20819933E-12
  -2.42500007E-02  -3.06504344E-12
  -2.41999999E-02  -2.90206596E-12
  -2.41500009E-02  -2.82475779E-12
  -2.41000000E-02  -2.89591246E-12
  -2.40499992E-02  -3.10515958E-12
  -2.40000002E-02  -3.37033808E-12
  -2.39499994E-02  -3.57126633E-12
  -2.39000004E-02  -3.60189135E-12
  -2.38499995E-02  -3.41801110E-12
  -2.38000005E-02  -3.05892920E-12
  -2.37499997E-02  -2.63235787E-12
  -2.37000007E-02  -2.26804166E-12
  -2.36499999E-02  -2.05986703E-12
  -2.36000009E-02  -2.02210818E-12
  -2.35500000E-02  -2.08001541E-12
  -2.34999992E-02  -2.10021171E-12
  -2.34500002E-02  -1.94863613E-12
  -2.33999994E-02  -1.55092963E-12
  -2.33500004E-02  -9.28186239E-13
  -2.32999995E-02  -1.91114079E-13
  -2.32500006E-02   5.06207760E-13
  -2.31999997E-02   1.03357568E-12
  -2.31500007E-02   1.34337799E-12
  -2.30999999E-02   1.49406854E-12
  -2.30500009E-02   1.62662971E-12
  -2.30000000E-02   1.90300792E-12
  -2.29499992E-02   2.43293320E-12
  -2.29000002E-02   3.22165710E-12
  -2.28499994E-02   4.16283197E-12
  -2.28000004E-02   5.08126397E-12
  -2.27499995E-02   5.80797389E-12
  -2.27000006E-02   6.25487986E-12
  -2.26499997E-02   6.45548892E-12
  -2.26000007E-02   6.55216333E-12
  -2.25499999E-02   6.73392548E-12
  -2.25000009E-02   7.15116031E-12
  -2.24500000E-02   7.84482722E-12
  -2.23999992E-02   8.72252704E-12
  -2.23500002E-02   9.59369997E-12
  -2.22999994E-02   1.02500751E-11
  -2.22500004E-02   1.05566519E-11
  -2.21999995E-02   1.05126324E-11
  -2.21500006E-02   1.02539748E-11
  -2.20999997E-02   9.99456334E-12
  -2.20500007E-02   9.93052082E-12
  -2.19999999E-02   1.01495643E-11
  -2.19500009E-02   1.05863313E-11
  -2.19000001E-02   1.10452212E-11
  -2.18499992E-02   1.12826059E-11
  -2.18000002E-02   1.11132839E-11
  -2.17499994E-02   1.04940882E-11
  -2.17000004E-02   9.54635069E-12
  -2.16499995E-02   8.50528328E-12
  -2.16000006E-02   7.61680215E-12
  -2.15499997E-02   7.02662147E-12
  -2.15000007E-02   6.71124007E-12
  -2.14499999E-02   6.48310832E-12
  -2.14000009E-02   6.06987811E-12
  -2.13500001E-02   5.23432079E-12
  -2.12999992E-02   3.88221703E-12
  -2.12500002E-02   2.10940011E-12
  -2.11999994E-02   1.65041564E-13
  -2.11500004E-02  -1.65472920E-12
  -2.10999995E-02  -3.13705919E-12
  -2.10500006E-02  -4.24861275E-12
  -2.09999997E-02  -5.15359023E-12
  -2.09500007E-02  -6.14319663E-12
  -2.08999999E-02  -7.50576511E-12
  -2.08500009E-02  -9.39422064E-12
  -2.08000001E-02  -1.17503680E-11
  -2.07499992E-02  -1.43216185E-11
  -2.07000002E-02  -1.67652055E-11
  -2.06499994E-02  -1.87954756E-11
  -2.06000004E-02  -2.03093185E-11
  -2.05499995E-02  -2.14327479E-11
  -2.05000006E-02  -2.24656578E-11
  -2.04499997E-02  -2.37467788E-11
  -2.04000007E-02  -2.54974011E-11
  -2.03499999E-02  -2.77134895E-11
  -2.03000009E-02  -3.01559333E-11
  -2.02500001E-02  -3.24459348E-11
  -2.01999992E-02  -3.42254280E-11
  -2.01500002E-02  -3.53122462E-11
  -2.00999994E-02  -3.57802295E-11
  -2.00500004E-02  -3.59263869E-11
  -1.99999996E-02  -3.61370066E-11
  -1.99500006E-02  -3.67102043E-11
  -1.98999997E-02  -3.77135337E-11
  -1.98500007E-02  -3.89414542E-11
  -1.97999999E-02  -3.99942440E-11
  -1.97500009E-02  -4.04460528E-11
  -1.97000001E-02  -4.00288552E-11
  -1.96499992E-02  -3.87501940E-11
  -1.96000002E-02  -3.68903449E-11
  -1.95499994E-02  -3.48771914E-11
  -1.95000004E-02  -3.30920950E-11
  -1.94499996E-02  -3.16921524E-11
  -1.94000006E-02  -3.05289856E-11
  -1.93499997E-02  -2.92028415E-11
  -1.93000007E-02  -2.72308183E-11
  -1.92499999E-02  -2.42565603E-11
  -1.92000009E-02  -2.02083090E-11
  -1.91500001E-02  -1.53332191E-11
  -1.90999992E-02  -1.00897988E-11
  -1.90500002E-02  -4.94341373E-12
  -1.89999994E-02  -1.54334865E-13
  -1.89500004E-02   4.34674345E-12
  -1.88999996E-02   8.93799357E-12
  -1.88500006E-02   1.41466049E-11
  -1.87999997E-02   2.04182990E-11
  -1.87500007E-02   2.79180012E-11
  -1.86999999E-02   3.64516507E-11
  -1.86500009E-02   4.55468267E-11
  -1.86000001E-02   5.46595304E-11
  -1.85499992E-02   6.34170980E-11
  -1.85000002E-02   7.17893245E-11
  -1.84499994E-02   8.01095024E-11
  -1.84000004E-02   8.89328194E-11
  -1.83499996E-02   9.87922244E-11
  -1.83000006E-02   1.09958924E-10
  -1.82499997E-02   1.22314950E-10
  -1.82000007E-02   1.35397027E-10
  -1.81499999E-02   1.48596052E-10
  -1.81000009E-02   1.61425526E-10
  -1.80500001E-02   1.73740577E-10
  -1.79999992E-02   1.85808424E-10
  -1.79500002E-02   1.98195682E-10
  -1.78999994E-02   2.11519469E-10
  -1.78500004E-02   2.26171012E-10
  -1.77999996E-02   2.42135006E-10
  -1.77500006E-02   2.58987165E-10
  -1.76999997E-02   2.76075107E-10
  -1.76500008E-02   2.92804447E-10
  -1.75999999E-02   3.08904791E-10
  -1.75500009E-02   3.24555882E-10
  -1.75000001E-02   3.40314915E-10
  -1.74499992E-02   3.56874030E-10
  -1.74000002E-02   3.74753173E-10
  -1.73499994E-02   3.94064309E-10
  -1.73000004E-02   4.14454582E-10
  -1.72499996E-02   4.35256081E-10
  -1.72000006E-02   4.55779969E-10
  -1.71499997E-02   4.75625372E-10
  -1.71000008E-02   4.94865704E-10
  -1.70499999E-02   5.14026544E-10
  -1.70000009E-02   5.33861455E-10
  -1.69500001E-02   5.55022750E-10
  -1.68999992E-02   5.77772052E-10
  -1.68500002E-02   6.01860728E-10
  -1.67999994E-02   6.26637187E-10
  -1.67500004E-02   6.51336485E-10
  -1.66999996E-02   6.75426104E-10
  -1.66500006E-02   6.98854086E-10
  -1.65999997E-02   7.22087390E-10
  -1.65500008E-02   7.45919215E-10
  -1.64999999E-02   7.71128439E-10
  -1.64500009E-02   7.98140110E-10
  -1.64000001E-02   8.26838598E-10
  -1.63499992E-02   8.56620663E-10
  -1.63000003E-02   8.86667406E-10
  -1.62499994E-02   9.16316967E-10
  -1.62000004E-02   9.45374556E-10
  -1.61499996E-02   9.74219372E-10
  -1.61000006E-02   1.00365627E-09
  -1.60499997E-02   1.03457753E-09
  -1.60000008E-02   1.06757903E-09
  -1.59499999E-02   1.10270426E-09
  -1.59000009E-02   1.13943144E-09
  -1.58500001E-02   1.17691312E-09
  -1.57999992E-02   1.21436505E-09
  -1.57500003E-02   1.25143362E-09
  -1.56999994E-02   1.28837641E-09
  -1.56500004E-02   1.32597344E-09
  -1.55999996E-02   1.36520428E-09
  -1.55499997E-02   1.40683121E-09
  -1.54999997E-02   1.45107359E-09
  -1.54499998E-02   1.49752133E-09
  -1.53999999E-02   1.54532676E-09
  -1.53500000E-02   1.59359570E-09
  -1.53000001E-02   1.64180536E-09
  -1.52500002E-02   1.69006209E-09
  -1.52000003E-02   1.73908243E-09
  -1.51500003E-02   1.78990278E-09
  -1.51000004E-02   1.84344162E-09
  -1.50499996E-02   1.90010918E-09
  -1.49999997E-02   1.95963779E-09
  -1.49499997E-02   2.02121542E-09
  -1.48999998E-02   2.08385997E-09
  -1.48499999E-02   2.14687867E-09
  -1.48000000E-02   2.21020158E-09
  -1.47500001E-02   2.27444530E-09
  -1.47000002E-02   2.34066788E-09
  -1.46500003E-02   2.40992648E-09
  -1.46000003E-02   2.48282839E-09
  -1.45500004E-02   2.55927834E-09
  -1.44999996E-02   2.63853583E-09
  -1.44499997E-02   2.71956080E-09
  -1.43999998E-02   2.80149814E-09
  -1.43499998E-02   2.88408697E-09
  -1.42999999E-02   2.96781000E-09
  -1.42500000E-02   3.05371173E-09
  -1.42000001E-02   3.14296744E-09
  -1.41500002E-02   3.23638694E-09
  -1.41000003E-02   3.33407635E-09
  -1.40500003E-02   3.43541018E-09
  -1.40000004E-02   3.53932950E-09
  -1.39499996E-02   3.64483843E-09
  -1.38999997E-02   3.75147780E-09
  -1.38499998E-02   3.85956689E-09
  -1.37999998E-02   3.97009892E-09
  -1.37499999E-02   4.08433909E-09
  -1.37000000E-02   4.20329460E-09
  -1.36500001E-02   4.32729541E-09
  -1.36000002E-02   4.45587256E-09
  -1.35500003E-02   4.58799310E-09
  -1.35000004E-02   4.72254902E-09
  -1.34500004E-02   4.85888441E-09
  -1.33999996E-02   4.99713160E-09
  -1.33499997E-02   5.13819609E-09
  -1.32999998E-02   5.28340083E-09
  -1.32499998E-02   5.43393774E-09
  -1.31999999E-02   5.59037883E-09
  -1.31500000E-02   5.75245362E-09
  -1.31000001E-02   5.91920513E-09
  -1.30500002E-02   6.08945117E-09
  -1.30000003E-02   6.26235686E-09
  -1.29500004E-02   6.43785336E-09
  -1.29000004E-02   6.61672361E-09
  -1.28499996E-02   6.80031054E-09
  -1.27999997E-02   6.98997171E-09
  -1.27499998E-02   7.18652515E-09
  -1.26999998E-02   7.38993089E-09
  -1.26499999E-02   7.59935492E-09
  -1.26000000E-02   7.81358267E-09
  -1.25500001E-02   8.03161981E-09
  -1.25000002E-02   8.25318835E-09
  -1.24500003E-02   8.47891535E-09
  -1.24000004E-02   8.71012507E-09
  -1.23500004E-02   8.94831320E-09
  -1.22999996E-02   9.19454646E-09
  -1.22499997E-02   9.44904155E-09
  -1.21999998E-02   9.71113590E-09
  -1.21499998E-02   9.97963134E-09
  -1.20999999E-02   1.02533981E-08
  -1.20500000E-02   1.05319442E-08
  -1.20000001E-02   1.08157137E-08
  -1.19500002E-02   1.11059624E-08
  -1.19000003E-02   1.14042837E-08
  -1.18500004E-02   1.17119754E-08
  -1.18000004E-02   1.20295338E-08
  -1.17499996E-02   1.23565105E-08
  -1.16999997E-02   1.26917774E-08
  -1.16499998E-02   1.30341142E-08
  -1.15999999E-02   1.33828344E-08
  -1.15499999E-02   1.37381750E-08
  -1.15000000E-02   1.41012908E-08
  -1.14500001E-02   1.44738301E-08
  -1.14000002E-02   1.48572958E-08
  -1.13500003E-02   1.52524660E-08
  -1.13000004E-02   1.56591327E-08
  -1.12500004E-02   1.60762763E-08
  -1.11999996E-02   1.65026197E-08
  -1.11499997E-02   1.69372854E-08
  -1.10999998E-02   1.73802874E-08
  -1.10499999E-02   1.78326385E-08
  -1.09999999E-02   1.82960047E-08
  -1.09500000E-02   1.87720772E-08
  -1.09000001E-02   1.92619289E-08
  -1.08500002E-02   1.97656416E-08
  -1.08000003E-02   2.02823838E-08
  -1.07500004E-02   2.08108801E-08
  -1.07000005E-02   2.13501039E-08
  -1.06499996E-02   2.18998490E-08
  -1.05999997E-02   2.24609433E-08
  -1.05499998E-02   2.30350157E-08
  -1.04999999E-02   2.36238886E-08
  -1.04499999E-02   2.42288962E-08
  -1.04000000E-02   2.48504168E-08
  -1.03500001E-02   2.54878181E-08
  -1.03000002E-02   2.61398778E-08
  -1.02500003E-02   2.68054503E-08
  -1.02000004E-02   2.74841128E-08
  -1.01500005E-02   2.81765011E-08
  -1.00999996E-02   2.88841733E-08
  -1.00499997E-02   2.96090708E-08
  -9.99999978E-03   3.03527941E-08
  -9.94999986E-03   3.11160484E-08
  -9.89999995E-03   3.18984839E-08
  -9.85000003E-03   3.26989991E-08
  -9.80000012E-03   3.35163932E-08
  -9.75000020E-03   3.43500659E-08
  -9.70000029E-03   3.52004506E-08
  -9.65000037E-03   3.60689967E-08
  -9.60000046E-03   3.69576902E-08
  -9.54999961E-03   3.78683822E-08
  -9.49999969E-03   3.88020922E-08
  -9.44999978E-03   3.97587705E-08
  -9.39999986E-03   4.07374863E-08
  -9.34999995E-03   4.17370103E-08
  -9.30000003E-03   4.27565645E-08
  -9.25000012E-03   4.37963443E-08
  -9.20000020E-03   4.48576358E-08
  -9.15000029E-03   4.59424463E-08
  -9.10000037E-03   4.70528150E-08
  -9.05000046E-03   4.81900955E-08
  -8.99999961E-03   4.93545826E-08
  -8.94999970E-03   5.05455802E-08
  -8.89999978E-03   5.17619299E-08
  -8.84999987E-03   5.30027471E-08
  -8.79999995E-03   5.42680532E-08
  -8.75000004E-03   5.55589743E-08
  -8.70000012E-03   5.68775143E-08
  -8.65000021E-03   5.82258863E-08
  -8.60000029E-03   5.96057603E-08
  -8.55000038E-03   6.10177935E-08
  -8.50000046E-03   6.24615453E-08
  -8.44999962E-03   6.39359641E-08
  -8.39999970E-03   6.54400765E-08
  -8.34999979E-03   6.69736693E-08
  -8.29999987E-03   6.85376804E-08
  -8.24999996E-03   7.01340070E-08
  -8.20000004E-03   7.17649797E-08
  -8.15000013E-03   7.34325027E-08
  -8.10000021E-03   7.51375993E-08
  -8.05000030E-03   7.68801129E-08
  -8.00000038E-03   7.86591485E-08
  -7.95000046E-03   8.04737041E-08
  -7.89999962E-03   8.23233961E-08
  -7.84999970E-03   8.42089918E-08
  -7.79999979E-03   8.61322889E-08
  -7.74999987E-03   8.80956890E-08
  -7.69999996E-03   9.01014090E-08
  -7.65000004E-03   9.21508416E-08
  -7.60000013E-03   9.42442213E-08
  -7.55000021E-03   9.63808802E-08
  -7.49999983E-03   9.85598376E-08
  -7.44999992E-03   1.00780618E-07
  -7.40000000E-03   1.03043718E-07
  -7.35000009E-03   1.05350829E-07
  -7.30000017E-03   1.07704324E-07
  -7.24999979E-03   1.10106612E-07
  -7.19999988E-03   1.12559370E-07
  -7.14999996E-03   1.15063195E-07
  -7.10000005E-03   1.17617624E-07
  -7.05000013E-03   1.20221756E-07
  -7.00000022E-03   1.22874951E-07
  -6.94999984E-03   1.25577571E-07
  -6.89999992E-03   1.28331067E-07
  -6.85000001E-03   1.31137782E-07
  -6.80000009E-03   1.34000302E-07
  -6.75000018E-03   1.36920619E-07
  -6.69999979E-03   1.39899740E-07
  -6.64999988E-03   1.42937509E-07
  -6.59999996E-03   1.46033159E-07
  -6.55000005E-03   1.49186022E-07
  -6.50000013E-03   1.52396240E-07
  -6.45000022E-03   1.55665134E-07
  -6.39999984E-03   1.58994965E-07
  -6.34999992E-03   1.62388403E-07
  -6.30000001E-03   1.65847737E-07
  -6.25000009E-03   1.69374317E-07
  -6.20000018E-03   1.72968313E-07
  -6.14999980E-03   1.76629143E-07
  -6.09999988E-03   1.80356110E-07
  -6.04999997E-03   1.84149116E-07
  -6.00000005E-03   1.88009196E-07
  -5.95000014E-03   1.91938526E-07
  -5.90000022E-03   1.95939762E-07
  -5.84999984E-03   2.00015435E-07
  -5.79999993E-03   2.04167208E-07
  -5.75000001E-03   2.08395619E-07
  -5.70000010E-03   2.12700300E-07
  -5.65000018E-03   2.17080540E-07
  -5.59999980E-03   2.21536141E-07
  -5.54999989E-03   2.26067939E-07
  -5.49999997E-03   2.30677912E-07
  -5.45000006E-03   2.35368731E-07
  -5.40000014E-03   2.40143123E-07
  -5.35000023E-03   2.45003093E-07
  -5.29999984E-03   2.49949579E-07
  -5.24999993E-03   2.54982353E-07
  -5.20000001E-03   2.60100933E-07
  -5.15000010E-03   2.65304863E-07
  -5.10000018E-03   2.70594740E-07
  -5.04999980E-03   2.75972354E-07
  -4.99999989E-03   2.81440293E-07
  -4.94999997E-03   2.87001399E-07
  -4.90000006E-03   2.92657887E-07
  -4.85000014E-03   2.98411038E-07
  -4.80000023E-03   3.04260965E-07
  -4.74999985E-03   3.10207128E-07
  -4.69999993E-03   3.16249015E-07
  -4.65000002E-03   3.22386967E-07
  -4.60000010E-03   3.28622463E-07
  -4.55000019E-03   3.34958031E-07
  -4.49999981E-03   3.41396600E-07
  -4.44999989E-03   3.47940670E-07
  -4.39999998E-03   3.54591805E-07
  -4.35000006E-03   3.61350402E-07
  -4.30000015E-03   3.68216035E-07
  -4.25000023E-03   3.75188165E-07
  -4.19999985E-03   3.82266961E-07
  -4.14999994E-03   3.89453533E-07
  -4.10000002E-03   3.96750266E-07
  -4.05000011E-03   4.04160033E-07
  -4.00000019E-03   4.11685534E-07
  -3.94999981E-03   4.19328614E-07
  -3.89999989E-03   4.27089958E-07
  -3.84999998E-03   4.34969309E-07
  -3.80000006E-03   4.42966012E-07
  -3.74999992E-03   4.51079984E-07
  -3.70000000E-03   4.59312105E-07
  -3.65000009E-03   4.67664279E-07
  -3.59999994E-03   4.76139292E-07
  -3.55000002E-03   4.84739928E-07
  -3.50000011E-03   4.93468349E-07
  -3.44999996E-03   5.02325520E-07
  -3.40000005E-03   5.11311384E-07
  -3.34999990E-03   5.20425203E-07
  -3.29999998E-03   5.29666693E-07
  -3.25000007E-03   5.39036307E-07
  -3.19999992E-03   5.48535638E-07
  -3.15000000E-03   5.58167301E-07
  -3.10000009E-03   5.67934080E-07
  -3.04999994E-03   5.77838364E-07
  -3.00000003E-03   5.87881345E-07
  -2.95000011E-03   5.98063195E-07
  -2.89999996E-03   6.08383345E-07
  -2.85000005E-03   6.18841170E-07
  -2.79999990E-03   6.29436784E-07
  -2.74999999E-03   6.40171265E-07
  -2.70000007E-03   6.51046889E-07
  -2.64999992E-03   6.62066213E-07
  -2.60000001E-03   6.73231682E-07
  -2.55000009E-03   6.84544887E-07
  -2.49999994E-03   6.96005998E-07
  -2.45000003E-03   7.07614618E-07
  -2.40000011E-03   7.19369837E-07
  -2.34999997E-03   7.31271314E-07
  -2.30000005E-03   7.43319561E-07
  -2.24999990E-03   7.55516339E-07
  -2.19999999E-03   7.67864037E-07
  -2.15000007E-03   7.80365099E-07
  -2.09999993E-03   7.93021115E-07
  -2.05000001E-03   8.05832713E-07
  -2.00000009E-03   8.18799322E-07
  -1.94999995E-03   8.31919976E-07
  -1.90000003E-03   8.45193995E-07
  -1.85000000E-03   8.58621263E-07
  -1.79999997E-03   8.72203032E-07
  -1.75000005E-03   8.85941233E-07
  -1.70000002E-03   8.99838142E-07
  -1.64999999E-03   9.13895462E-07
  -1.59999996E-03   9.28113877E-07
  -1.55000004E-03   9.42492875E-07
  -1.50000001E-03   9.57031261E-07
  -1.44999998E-03   9.71727786E-07
  -1.39999995E-03   9.86581767E-07
  -1.35000004E-03   1.00159377E-06
  -1.30000000E-03   1.01676505E-06
  -1.24999997E-03   1.03209754E-06
  -1.20000006E-03   1.04759272E-06
  -1.15000003E-03   1.06325149E-06
  -1.09999999E-03   1.07907340E-06
  -1.04999996E-03   1.09505686E-06
  -1.00000005E-03   1.11120050E-06
  -9.50000016E-04   1.12750297E-06
  -8.99999985E-04   1.14396391E-06
  -8.50000011E-04   1.16058436E-06
  -7.99999980E-04   1.17736545E-06
  -7.50000007E-04   1.19430854E-06
  -6.99999975E-04   1.21141409E-06
  -6.50000002E-04   1.22868187E-06
  -6.00000028E-04   1.24611040E-06
  -5.49999997E-04   1.26369764E-06
  -5.00000024E-04   1.28144154E-06
  -4.49999992E-04   1.29934085E-06
  -3.99999990E-04   1.31739534E-06
  -3.49999988E-04   1.33560570E-06
  -3.00000014E-04   1.35397306E-06
  -2.50000012E-04   1.37249765E-06
  -1.99999995E-04   1.39117913E-06
  -1.50000007E-04   1.41001590E-06
  -9.99999975E-05   1.42900535E-06
  -4.99999987E-05   1.44814510E-06
   0.00000000       1.46743264E-06
   4.99999987E-05   1.48686672E-06
   9.99999975E-05   1.50644701E-06
   1.50000007E-04   1.52617417E-06
   1.99999995E-04   1.54604822E-06
   2.50000012E-04   1.56606848E-06
   3.00000014E-04   1.58623345E-06
   3.49999988E-04   1.60653997E-06
   3.99999990E-04   1.62698495E-06
   4.49999992E-04   1.64756500E-06
   5.00000024E-04   1.66827783E-06
   5.49999997E-04   1.68912197E-06
   6.00000028E-04   1.71009697E-06
   6.50000002E-04   1.73120247E-06
   6.99999975E-04   1.75243747E-06
   7.50000007E-04   1.77380014E-06
   7.99999980E-04   1.79528729E-06
   8.50000011E-04   1.81689506E-06
   8.99999985E-04   1.83861891E-06
   9.50000016E-04   1.86045520E-06
   1.00000005E-03   1.88240108E-06
   1.04999996E-03   1.90445485E-06
   1.09999999E-03   1.92661560E-06
   1.15000003E-03   1.94888230E-06
   1.20000006E-03   1.97125291E-06
   1.24999997E-03   1.99372380E-06
   1.30000000E-03   2.01629064E-06
   1.35000004E-03   2.03894774E-06
   1.39999995E-03   2.06168988E-06
   1.44999998E-03   2.08451297E-06
   1.50000001E-03   2.10741405E-06
   1.55000004E-03   2.13039084E-06
   1.59999996E-03   2.15344153E-06
   1.64999999E-03   2.17656429E-06
   1.70000002E-03   2.19975527E-06
   1.75000005E-03   2.22300923E-06
   1.79999997E-03   2.24631981E-06
   1.85000000E-03   2.26968018E-06
   1.90000003E-03   2.29308398E-06
   1.94999995E-03   2.31652643E-06
   2.00000009E-03   2.34000458E-06
   2.05000001E-03   2.36351616E-06
   2.09999993E-03   2.38705820E-06
   2.15000007E-03   2.41062708E-06
   2.19999999E-03   2.43421732E-06
   2.24999990E-03   2.45782144E-06
   2.30000005E-03   2.48143124E-06
   2.34999997E-03   2.50503808E-06
   2.40000011E-03   2.52863538E-06
   2.45000003E-03   2.55221880E-06
   2.49999994E-03   2.57578472E-06
   2.55000009E-03   2.59933017E-06
   2.60000001E-03   2.62285153E-06
   2.64999992E-03   2.64634309E-06
   2.70000007E-03   2.66979623E-06
   2.74999999E-03   2.69320140E-06
   2.79999990E-03   2.71654790E-06