  -3.99999991E-02   0.00000000    
  -3.99499983E-02   0.00000000    
  -3.99000011E-02   0.00000000    
  -3.98500003E-02  -4.25189745E-15
  -3.97999994E-02  -3.13138695E-14
  -3.97499986E-02  -1.19909074E-13
  -3.97000015E-02  -3.22288068E-13
  -3.96500006E-02  -6.94814106E-13
  -3.95999998E-02  -1.30626618E-12
  -3.95499989E-02  -2.26192784E-12
  -3.95000018E-02  -3.70100825E-12
  -3.94500010E-02  -5.72481515E-12
  -3.94000001E-02  -8.28649042E-12
  -3.93499993E-02  -1.11580415E-11
  -3.92999984E-02  -1.40698495E-11
  -3.92500013E-02  -1.69638071E-11
  -3.92000005E-02  -2.01539948E-11
  -3.91499996E-02  -2.42303989E-11
  -3.90999988E-02  -2.97684620E-11
  -3.90500017E-02  -3.70877912E-11
  -3.90000008E-02  -4.62242189E-11
  -3.89500000E-02  -5.70271642E-11
  -3.88999991E-02  -6.91845470E-11
  -3.88499983E-02  -8.21674950E-11
  -3.88000011E-02  -9.53324503E-11
  -3.87500003E-02  -1.08332204E-10
  -3.86999995E-02  -1.21572488E-10
  -3.86499986E-02  -1.36194764E-10
  -3.86000015E-02  -1.53390370E-10
  -3.85500006E-02  -1.73525500E-10
  -3.84999998E-02  -1.95834404E-10
  -3.84499989E-02  -2.18925461E-10
  -3.84000018E-02  -2.41538733E-10
  -3.83500010E-02  -2.62812272E-10
  -3.83000001E-02  -2.81991791E-10
  -3.82499993E-02  -2.98242153E-10
  -3.81999984E-02  -3.11074499E-10
  -3.81500013E-02  -3.21017407E-10
  -3.81000005E-02  -3.29630934E-10
  -3.80499996E-02  -3.38554490E-10
  -3.79999988E-02  -3.48396173E-10
  -3.79500017E-02  -3.58525043E-10
  -3.79000008E-02  -3.67798125E-10
  -3.78500000E-02  -3.75154630E-10
  -3.77999991E-02  -3.79231063E-10
  -3.77499983E-02  -3.77579384E-10
  -3.77000012E-02  -3.66941866E-10
  -3.76500003E-02  -3.45029616E-10
  -3.75999995E-02  -3.12335324E-10
  -3.75499986E-02  -2.71940054E-10
  -3.75000015E-02  -2.26970318E-10
  -3.74500006E-02  -1.77697482E-10
  -3.73999998E-02  -1.20698909E-10
  -3.73499990E-02  -5.05641501E-11
  -3.73000018E-02   3.74441762E-11
  -3.72500010E-02   1.45413820E-10
  -3.72000001E-02   2.71588169E-10
  -3.71499993E-02   4.09328987E-10
  -3.70999984E-02   5.46910961E-10
  -3.70500013E-02   6.70240363E-10
  -3.70000005E-02   7.69339870E-10
  -3.69499996E-02   8.45702230E-10
  -3.68999988E-02   9.15075238E-10
  -3.68500017E-02   1.00225539E-09
  -3.68000008E-02   1.12997034E-09
  -3.67500000E-02   1.30815303E-09
  -3.66999991E-02   1.52922663E-09
  -3.66499983E-02   1.77073967E-09
  -3.66000012E-02   2.00312456E-09
  -3.65500003E-02   2.19979879E-09
  -3.64999995E-02   2.34737918E-09
  -3.64499986E-02   2.45278886E-09
  -3.64000015E-02   2.54244514E-09
  -3.63500006E-02   2.65047051E-09
  -3.62999998E-02   2.79947110E-09
  -3.62499990E-02   2.98444003E-09
  -3.62000018E-02   3.17081073E-09
  -3.61500010E-02   3.30955530E-09
  -3.61000001E-02   3.36126726E-09
  -3.60499993E-02   3.31606986E-09
  -3.59999985E-02   3.19981575E-09
  -3.59500013E-02   3.06478043E-09
  -3.59000005E-02   2.96896263E-09
  -3.58499996E-02   2.95067348E-09
  -3.57999988E-02   3.00700287E-09
  -3.57500017E-02   3.08664316E-09
  -3.57000008E-02   3.10535064E-09
  -3.56500000E-02   2.98226022E-09
  -3.55999991E-02   2.68115707E-09
  -3.55499983E-02   2.23364593E-09
  -3.55000012E-02   1.72871562E-09
  -3.54500003E-02   1.27204580E-09
  -3.53999995E-02   9.35489575E-10
  -3.53499986E-02   7.21060878E-10
  -3.53000015E-02   5.55143209E-10
  -3.52500007E-02   3.14970994E-10
  -3.51999998E-02  -1.21917629E-10
  -3.51499990E-02  -8.22210411E-10
  -3.51000018E-02  -1.75787795E-09
  -3.50500010E-02  -2.80532442E-09
  -3.50000001E-02  -3.79099685E-09
  -3.49499993E-02  -4.56806637E-09
  -3.48999985E-02  -5.08769515E-09
  -3.48500013E-02  -5.42639045E-09
  -3.48000005E-02  -5.75287418E-09
  -3.47499996E-02  -6.25002006E-09
  -3.46999988E-02  -7.02948544E-09
  -3.46500017E-02  -8.07752532E-09
  -3.46000008E-02  -9.25437327E-09
  -3.45500000E-02  -1.03480282E-08
  -3.44999991E-02  -1.11634089E-08
  -3.44499983E-02  -1.16124799E-08
  -3.44000012E-02  -1.17643761E-08
  -3.43500003E-02  -1.18246781E-08
  -3.42999995E-02  -1.20438486E-08
  -3.42499986E-02  -1.25939490E-08
  -3.42000015E-02  -1.34753870E-08
  -3.41500007E-02  -1.45035797E-08
  -3.40999998E-02  -1.53844795E-08
  -3.40499990E-02  -1.58429998E-08
  -3.40000018E-02  -1.57445861E-08
  -3.39500010E-02  -1.51570223E-08
  -3.39000002E-02  -1.43258214E-08
  -3.38499993E-02  -1.35701583E-08
  -3.37999985E-02  -1.31381199E-08
  -3.37500013E-02  -1.30816220E-08
  -3.37000005E-02  -1.32123681E-08
  -3.36499996E-02  -1.31710820E-08
  -3.35999988E-02  -1.25882034E-08
  -3.35500017E-02  -1.12624754E-08
  -3.35000008E-02  -9.26826438E-09
  -3.34500000E-02  -6.93551039E-09
  -3.33999991E-02  -4.70996842E-09
  -3.33499983E-02  -2.95837421E-09
  -3.33000012E-02  -1.80430870E-09
  -3.32500003E-02  -1.06447640E-09
  -3.31999995E-02  -3.14461984E-10
  -3.31499986E-02   9.37319888E-10
  -3.31000015E-02   3.03396352E-09
  -3.30500007E-02   6.00520211E-09
  -3.29999998E-02   9.53529167E-09
  -3.29499990E-02   1.30905669E-08
  -3.29000019E-02   1.61545586E-08
  -3.28500010E-02   1.84603124E-08
  -3.28000002E-02   2.01071266E-08
  -3.27499993E-02   2.15066063E-08
  -3.26999985E-02   2.31863559E-08
  -3.26500013E-02   2.55421515E-08
  -3.26000005E-02   2.86468929E-08
  -3.25499997E-02   3.21974838E-08
  -3.24999988E-02   3.56257566E-08
  -3.24500017E-02   3.83343668E-08
  -3.24000008E-02   3.99619680E-08
  -3.23500000E-02   4.05569054E-08
  -3.22999991E-02   4.05687963E-08
  -3.22499983E-02   4.06489278E-08
  -3.22000012E-02   4.13472705E-08
  -3.21500003E-02   4.28506794E-08
  -3.20999995E-02   4.48876882E-08
  -3.20499986E-02   4.68416559E-08
  -3.20000015E-02   4.80175011E-08
  -3.19500007E-02   4.79429261E-08
  -3.18999998E-02   4.65765098E-08
  -3.18499990E-02   4.43351738E-08
  -3.18000019E-02   4.19224939E-08
  -3.17500010E-02   4.00198061E-08
  -3.17000002E-02   3.89686825E-08
  -3.16499993E-02   3.85924146E-08
  -3.15999985E-02   3.82518941E-08
  -3.15500014E-02   3.71219393E-08
  -3.15000005E-02   3.45626567E-08
  -3.14499997E-02   3.04116377E-08
  -3.13999988E-02   2.50633594E-08
  -3.13500017E-02   1.93072651E-08
  -3.13000008E-02   1.40011496E-08
  -3.12500000E-02   9.71787451E-09
  -3.11999992E-02   6.50840404E-09
  -3.11500002E-02   3.87925381E-09
  -3.10999993E-02   1.00329511E-09
  -3.10500003E-02  -2.91328384E-09
  -3.09999995E-02  -8.26343882E-09
  -3.09500005E-02  -1.48432644E-08
  -3.08999997E-02  -2.19280309E-08
  -3.08500007E-02  -2.85886905E-08
  -3.07999998E-02  -3.40985302E-08
  -3.07500008E-02  -3.82414100E-08
  -3.07000000E-02  -4.13898569E-08
  -3.06499992E-02  -4.43316992E-08
  -3.06000002E-02  -4.79258269E-08
  -3.05499993E-02  -5.27270245E-08
  -3.05000003E-02  -5.87296931E-08
  -3.04499995E-02  -6.53420855E-08
  -3.04000005E-02  -7.16168671E-08
  -3.03499997E-02  -7.66520358E-08
  -3.03000007E-02  -7.99859663E-08
  -3.02499998E-02  -8.17976158E-08
  -3.02000009E-02  -8.28123916E-08
  -3.01500000E-02  -8.39586960E-08
  -3.00999992E-02  -8.59410108E-08
  -3.00500002E-02  -8.89215599E-08
  -2.99999993E-02  -9.24386896E-08
  -2.99500003E-02  -9.55884047E-08
  -2.98999995E-02  -9.73924159E-08
  -2.98500005E-02  -9.72127268E-08
  -2.97999997E-02  -9.50487475E-08
  -2.97500007E-02  -9.15765739E-08
  -2.96999998E-02  -8.78884094E-08
  -2.96500009E-02  -8.50296189E-08
  -2.96000000E-02  -8.35374649E-08
  -2.95499992E-02  -8.31975058E-08
  -2.95000002E-02  -8.31307361E-08
  -2.94499993E-02  -8.21650872E-08
  -2.94000003E-02  -7.93185464E-08
  -2.93499995E-02  -7.41955901E-08
  -2.93000005E-02  -6.71474680E-08
  -2.92499997E-02  -5.91381699E-08
  -2.92000007E-02  -5.13613223E-08
  -2.91499998E-02  -4.47435973E-08
  -2.91000009E-02  -3.95378201E-08
  -2.90500000E-02  -3.51960630E-08
  -2.89999992E-02  -3.06044008E-08
  -2.89500002E-02  -2.45853631E-08
  -2.88999993E-02  -1.64336296E-08
  -2.88500004E-02  -6.23837737E-09
  -2.87999995E-02   5.14421883E-09
  -2.87500005E-02   1.64391540E-08
  -2.86999997E-02   2.64663882E-08
  -2.86500007E-02   3.46173650E-08
  -2.85999998E-02   4.11130614E-08
  -2.85500009E-02   4.69313903E-08
  -2.85000000E-02   5.34065165E-08
  -2.84499992E-02   6.16437816E-08
  -2.84000002E-02   7.20026421E-08
  -2.83499993E-02   8.39019165E-08
  -2.83000004E-02   9.60553095E-08
  -2.82499995E-02   1.07030687E-07
  -2.82000005E-02   1.15871295E-07
  -2.81499997E-02   1.22497170E-07
  -2.81000007E-02   1.27723581E-07
  -2.80499998E-02   1.32904873E-07
  -2.80000009E-02   1.39346653E-07
  -2.79500000E-02   1.47712782E-07
  -2.78999992E-02   1.57670570E-07
  -2.78500002E-02   1.67949850E-07
  -2.77999993E-02   1.76833225E-07
  -2.77500004E-02   1.82892492E-07
  -2.76999995E-02   1.85640928E-07
  -2.76500005E-02   1.85780365E-07
  -2.75999997E-02   1.84910050E-07
  -2.75500007E-02   1.84835997E-07
  -2.74999999E-02   1.86795972E-07
  -2.74500009E-02   1.90927850E-07
  -2.74000000E-02   1.96191579E-07
  -2.73499992E-02   2.00773911E-07
  -2.73000002E-02   2.02827977E-07
  -2.72499993E-02   2.01267767E-07
  -2.72000004E-02   1.96281817E-07
  -2.71499995E-02   1.89307784E-07
  -2.71000005E-02   1.82436807E-07
  -2.70499997E-02   1.77496219E-07
  -2.70000007E-02   1.75231506E-07
  -2.69499999E-02   1.74975142E-07
  -2.69000009E-02   1.74944603E-07
  -2.68500000E-02   1.73016360E-07
  -2.67999992E-02   1.67637126E-07
  -2.67500002E-02   1.58487708E-07
  -2.66999993E-02   1.46636921E-07
  -2.66500004E-02   1.34119858E-07
  -2.65999995E-02   1.23087432E-07
  -2.65500005E-02   1.14872343E-07
  -2.64999997E-02   1.09384729E-07
  -2.64500007E-02   1.05144991E-07
  -2.63999999E-02   9.99671386E-08
  -2.63500009E-02   9.19821588E-08
  -2.63000000E-02   8.05188023E-08
  -2.62499992E-02   6.64289814E-08
  -2.62000002E-02   5.17226511E-08
  -2.61499994E-02   3.86978023E-08
  -2.61000004E-02   2.89446440E-08
  -2.60499995E-02   2.26349428E-08
  -2.60000005E-02   1.83975057E-08
  -2.59499997E-02   1.38516745E-08
  -2.59000007E-02   6.60971011E-09
  -2.58499999E-02  -4.66121319E-09
  -2.58000009E-02  -1.96053378E-08
  -2.57500000E-02  -3.63007970E-08
  -2.56999992E-02  -5.21034877E-08
  -2.56500002E-02  -6.48259970E-08
  -2.55999994E-02  -7.37065236E-08
  -2.55500004E-02  -7.97327786E-08
  -2.54999995E-02  -8.52095781E-08
  -2.54500005E-02  -9.27784143E-08
  -2.53999997E-02  -1.04303695E-07
  -2.53500007E-02  -1.20070581E-07
  -2.52999999E-02  -1.38628394E-07
  -2.52500009E-02  -1.57388257E-07
  -2.52000000E-02  -1.73757272E-07
  -2.51499992E-02  -1.86317919E-07
  -2.51000002E-02  -1.95514829E-07
  -2.50499994E-02  -2.03517246E-07
  -2.50000004E-02  -2.13309704E-07
  -2.49499995E-02  -2.27439614E-07
  -2.49000005E-02  -2.46990453E-07
  -2.48499997E-02  -2.71203902E-07
  -2.48000007E-02  -2.97866762E-07
  -2.47499999E-02  -3.24281302E-07
  -2.47000009E-02  -3.48419292E-07
  -2.46500000E-02  -3.69798784E-07
  -2.45999992E-02  -3.89713705E-07
  -2.45500002E-02  -4.10690660E-07
  -2.44999994E-02  -4.35381992E-07
  -2.44500004E-02  -4.65384630E-07
  -2.43999995E-02  -5.00547856E-07
  -2.43500005E-02  -5.39088092E-07
  -2.42999997E-02  -5.78436982E-07
  -2.42500007E-02  -6.16410375E-07
  -2.41999999E-02  -6.52168808E-07
  -2.41500009E-02  -6.86583462E-07
  -2.41000000E-02  -7.21886465E-07
  -2.40499992E-02  -7.60755029E-07
  -2.40000002E-02  -8.05186062E-07
  -2.39499994E-02  -8.55621977E-07
  -2.39000004E-02  -9.10714164E-07
  -2.38499995E-02  -9.67870960E-07
  -2.38000005E-02  -1.02438219E-06
  -2.37499997E-02  -1.07862343E-06
  -2.37000007E-02  -1.13078443E-06
  -2.36499999E-02  -1.18277865E-06
  -2.36000009E-02  -1.23741074E-06
  -2.35500000E-02  -1.29719103E-06
  -2.34999992E-02  -1.36330107E-06
  -2.34500002E-02  -1.43510067E-06
  -2.33999994E-02  -1.51034772E-06
  -2.33500004E-02  -1.58605951E-06
  -2.32999995E-02  -1.65970641E-06
  -2.32500006E-02  -1.73028661E-06
  -2.31999997E-02  -1.79878987E-06
  -2.31500007E-02  -1.86779710E-06
  -2.30999999E-02  -1.94036784E-06
  -2.30500009E-02  -2.01872626E-06
  -2.30000000E-02  -2.10333155E-06
  -2.29499992E-02  -2.19272124E-06
  -2.29000002E-02  -2.28413774E-06
  -2.28499994E-02  -2.37464383E-06
  -2.28000004E-02  -2.46228728E-06
  -2.27499995E-02  -2.54687666E-06
  -2.27000006E-02  -2.63008451E-06
  -2.26499997E-02  -2.71477984E-06
  -2.26000007E-02  -2.80380118E-06
  -2.25499999E-02  -2.89869126E-06
  -2.25000009E-02  -2.99895964E-06
  -2.24500000E-02  -3.10225414E-06
  -2.23999992E-02  -3.20537106E-06
  -2.23500002E-02  -3.30562943E-06
  -2.22999994E-02  -3.40199404E-06
  -2.22500004E-02  -3.49548986E-06
  -2.21999995E-02  -3.58878447E-06
  -2.21500006E-02  -3.68510837E-06
  -2.20999997E-02  -3.78694858E-06
  -2.20500007E-02  -3.89497927E-06
  -2.19999999E-02  -4.00770296E-06
  -2.19500009E-02  -4.12206782E-06
  -2.19000001E-02  -4.23482243E-06
  -2.18499992E-02  -4.34403137E-06
  -2.18000002E-02  -4.45006162E-06
  -2.17499994E-02  -4.55551253E-06
  -2.17000004E-02  -4.66410756E-06
  -2.16499995E-02  -4.77913591E-06
  -2.16000006E-02  -4.90208186E-06
  -2.15499997E-02  -5.03195224E-06
  -2.15000007E-02  -5.16561386E-06
  -2.14499999E-02  -5.29910767E-06
  -2.14000009E-02  -5.42939461E-06
  -2.13500001E-02  -5.55585029E-06
  -2.12999992E-02  -5.68084170E-06
  -2.12500002E-02  -5.80895767E-06
  -2.11999994E-02  -5.94522089E-06
  -2.11500004E-02  -6.09305744E-06
  -2.10999995E-02  -6.25290704E-06
  -2.10500006E-02  -6.42216673E-06
  -2.09999997E-02  -6.59646321E-06
  -2.09500007E-02  -6.77158187E-06
  -2.08999999E-02  -6.94533355E-06
  -2.08500009E-02  -7.11870643E-06
  -2.08000001E-02  -7.29569956E-06
  -2.07499992E-02  -7.48178491E-06
  -2.07000002E-02  -7.68167229E-06
  -2.06499994E-02  -7.89736805E-06
  -2.06000004E-02  -8.12729559E-06
  -2.05499995E-02  -8.36713207E-06
  -2.05000006E-02  -8.61197623E-06
  -2.04499997E-02  -8.85872578E-06
  -2.04000007E-02  -9.10765084E-06
  -2.03499999E-02  -9.36243214E-06
  -2.03000009E-02  -9.62879312E-06
  -2.02500001E-02  -9.91230172E-06
  -2.01999992E-02  -1.02161157E-05
  -2.01500002E-02  -1.05396339E-05
  -2.00999994E-02  -1.08788036E-05
  -2.00500004E-02  -1.12280659E-05
  -1.99999996E-02  -1.15831026E-05
  -1.99500006E-02  -1.19429624E-05
  -1.98999997E-02  -1.23107066E-05
  -1.98500007E-02  -1.26923005E-05
  -1.97999999E-02  -1.30940080E-05
  -1.97500009E-02  -1.35196869E-05
  -1.97000001E-02  -1.39691283E-05
  -1.96499992E-02  -1.44381256E-05
  -1.96000002E-02  -1.49203543E-05
  -1.95499994E-02  -1.54102127E-05
  -1.95000004E-02  -1.59054362E-05
  -1.94499996E-02  -1.64082958E-05
  -1.94000006E-02  -1.69248306E-05
  -1.93499997E-02  -1.74624311E-05
  -1.93000007E-02  -1.80265961E-05
  -1.92499999E-02  -1.86183534E-05
  -1.92000009E-02  -1.92337629E-05
  -1.91500001E-02  -1.98657581E-05
  -1.90999992E-02  -2.05074775E-05
  -1.90500002E-02  -2.11551232E-05
  -1.89999994E-02  -2.18096247E-05
  -1.89500004E-02  -2.24764444E-05
  -1.88999996E-02  -2.31633276E-05
  -1.88500006E-02  -2.38770954E-05
  -1.87999997E-02  -2.46205072E-05
  -1.87500007E-02  -2.53908147E-05
  -1.86999999E-02  -2.61810346E-05
  -1.86500009E-02  -2.69831344E-05
  -1.86000001E-02  -2.77914914E-05
  -1.85499992E-02  -2.86054601E-05
  -1.85000002E-02  -2.94295369E-05
  -1.84499994E-02  -3.02713088E-05
  -1.84000004E-02  -3.11379881E-05
  -1.83499996E-02  -3.20332147E-05
  -1.83000006E-02  -3.29556242E-05
  -1.82499997E-02  -3.38993377E-05
  -1.82000007E-02  -3.48567883E-05
  -1.81499999E-02  -3.58222678E-05
  -1.81000009E-02  -3.67944413E-05
  -1.80500001E-02  -3.77772194E-05
  -1.79999992E-02  -3.87783948E-05
  -1.79500002E-02  -3.98059783E-05
  -1.78999994E-02  -4.08645938E-05
  -1.78500004E-02  -4.19532153E-05
  -1.77999996E-02  -4.30654400E-05
  -1.77500006E-02  -4.41928314E-05
  -1.76999997E-02  -4.53286957E-05
  -1.76500008E-02  -4.64709083E-05
  -1.75999999E-02  -4.76227979E-05
  -1.75500009E-02  -4.87923171E-05
  -1.75000001E-02  -4.99889611E-05
  -1.74499992E-02  -5.12194711E-05
  -1.74000002E-02  -5.24847601E-05
  -1.73499994E-02  -5.37796695E-05
  -1.73000004E-02  -5.50960394E-05
  -1.72499996E-02  -5.64265101E-05
  -1.72000006E-02  -5.77679421E-05
  -1.71499997E-02  -5.91231073E-05
  -1.71000008E-02  -6.04998386E-05
  -1.70499999E-02  -6.19081402E-05
  -1.70000009E-02  -6.33560703E-05
  -1.69500001E-02  -6.48464702E-05
  -1.68999992E-02  -6.63760147E-05
  -1.68500002E-02  -6.79369477E-05
  -1.67999994E-02  -6.95210547E-05
  -1.67500004E-02  -7.11241300E-05
  -1.66999996E-02  -7.27482184E-05
  -1.66500006E-02  -7.44009158E-05
  -1.65999997E-02  -7.60924449E-05
  -1.65500008E-02  -7.78319445E-05
  -1.64999999E-02  -7.96243039E-05
  -1.64500009E-02  -8.14682789E-05
  -1.64000001E-02  -8.33580925E-05
  -1.63499992E-02  -8.52864832E-05
  -1.63000003E-02  -8.72486999E-05
  -1.62499994E-02  -8.92460375E-05
  -1.62000004E-02  -9.12859468E-05
  -1.61499996E-02  -9.33788688E-05
  -1.61000006E-02  -9.55340583E-05
  -1.60499997E-02  -9.77565651E-05
  -1.60000008E-02  -1.00045923E-04
  -1.59499999E-02  -1.02397164E-04
  -1.59000009E-02  -1.04803061E-04
  -1.58500001E-02  -1.07258500E-04
  -1.57999992E-02  -1.09764704E-04
  -1.57500003E-02  -1.12329792E-04
  -1.56999994E-02  -1.14965165E-04
  -1.56500004E-02  -1.17681586E-04
  -1.55999996E-02  -1.20486162E-04
  -1.55499997E-02  -1.23379505E-04
  -1.54999997E-02  -1.26356288E-04
  -1.54499998E-02  -1.29409163E-04
  -1.53999999E-02  -1.32532718E-04
  -1.53500000E-02  -1.35726237E-04
  -1.53000001E-02  -1.38995849E-04
  -1.52500002E-02  -1.42353645E-04
  -1.52000003E-02  -1.45811631E-04
  -1.51500003E-02  -1.49378378E-04
  -1.51000004E-02  -1.53057132E-04
  -1.50499996E-02  -1.56843482E-04
  -1.49999997E-02  -1.60729091E-04
  -1.49499997E-02  -1.64708050E-04
  -1.48999998E-02  -1.68779661E-04
  -1.48499999E-02  -1.72948494E-04
  -1.48000000E-02  -1.77224414E-04
  -1.47500001E-02  -1.81620097E-04
  -1.47000002E-02  -1.86144694E-04
  -1.46500003E-02  -1.90801089E-04
  -1.46000003E-02  -1.95586690E-04
  -1.45500004E-02  -2.00494906E-04
  -1.44999996E-02  -2.05519653E-04
  -1.44499997E-02  -2.10659535E-04
  -1.43999998E-02  -2.15919034E-04
  -1.43499998E-02  -2.21308248E-04
  -1.42999999E-02  -2.26840362E-04
  -1.42500000E-02  -2.32525737E-04
  -1.42000001E-02  -2.38367807E-04
  -1.41500002E-02  -2.44362542E-04
  -1.41000003E-02  -2.50502577E-04
  -1.40500003E-02  -2.56782339E-04
  -1.40000004E-02  -2.63200491E-04
  -1.39499996E-02  -2.69760640E-04
  -1.38999997E-02  -2.76472187E-04
  -1.38499998E-02  -2.83346191E-04
  -1.37999998E-02  -2.90394586E-04
  -1.37499999E-02  -2.97624676E-04
  -1.37000000E-02  -3.05033638E-04
  -1.36500001E-02  -3.12612508E-04
  -1.36000002E-02  -3.20351857E-04
  -1.35500003E-02  -3.28248425E-04
  -1.35000004E-02  -3.36308178E-04
  -1.34500004E-02  -3.44544067E-04
  -1.33999996E-02  -3.52968549E-04
  -1.33499997E-02  -3.61592160E-04
  -1.32999998E-02  -3.70422378E-04
  -1.32499998E-02  -3.79459263E-04
  -1.31999999E-02  -3.88694636E-04
  -1.31500000E-02  -3.98119184E-04
  -1.31000001E-02  -4.07727581E-04
  -1.30500002E-02  -4.17519303E-04
  -1.30000003E-02  -4.27503779E-04
  -1.29500004E-02  -4.37695329E-04
  -1.29000004E-02  -4.48105216E-04
  -1.28499996E-02  -4.58741706E-04
  -1.27999997E-02  -4.69606952E-04
  -1.27499998E-02  -4.80695191E-04
  -1.26999998E-02  -4.91999497E-04
  -1.26499999E-02  -5.03517280E-04
  -1.26000000E-02  -5.15250722E-04
  -1.25500001E-02  -5.27207332E-04
  -1.25000002E-02  -5.39398228E-04
  -1.24500003E-02  -5.51836332E-04
  -1.24000004E-02  -5.64526417E-04
  -1.23500004E-02  -5.77463768E-04
  -1.22999996E-02  -5.90639014E-04
  -1.22499997E-02  -6.04042318E-04
  -1.21999998E-02  -6.17673853E-04
  -1.21499998E-02  -6.31538918E-04
  -1.20999999E-02  -6.45651075E-04
  -1.20500000E-02  -6.60028483E-04
  -1.20000001E-02  -6.74689130E-04
  -1.19500002E-02  -6.89649896E-04
  -1.19000003E-02  -7.04911770E-04
  -1.18500004E-02  -7.20462704E-04
  -1.18000004E-02  -7.36288843E-04
  -1.17499996E-02  -7.52376334E-04
  -1.16999997E-02  -7.68715283E-04
  -1.16499998E-02  -7.85305572E-04
  -1.15999999E-02  -8.02153314E-04
  -1.15499999E-02  -8.19268986E-04
  -1.15000000E-02  -8.36669642E-04
  -1.14500001E-02  -8.54368671E-04
  -1.14000002E-02  -8.72365083E-04
  -1.13500003E-02  -8.90655967E-04
  -1.13000004E-02  -9.09252616E-04
  -1.12500004E-02  -9.28171619E-04
  -1.11999996E-02  -9.47429391E-04
  -1.11499997E-02  -9.67044500E-04
  -1.10999998E-02  -9.87031613E-04
  -1.10499999E-02  -1.00739184E-03
  -1.09999999E-02  -1.02811435E-03
  -1.09500000E-02  -1.04917819E-03
  -1.09000001E-02  -1.07054750E-03
  -1.08500002E-02  -1.09219144E-03
  -1.08000003E-02  -1.11410208E-03
  -1.07500004E-02  -1.13628199E-03
  -1.07000005E-02  -1.15874771E-03
  -1.06499996E-02  -1.18153193E-03
  -1.05999997E-02  -1.20466575E-03
  -1.05499998E-02  -1.22817745E-03
  -1.04999999E-02  -1.25209359E-03
  -1.04499999E-02  -1.27642357E-03
  -1.04000000E-02  -1.30116381E-03
  -1.03500001E-02  -1.32632034E-03
  -1.03000002E-02  -1.35190773E-03
  -1.02500003E-02  -1.37793086E-03
  -1.02000004E-02  -1.40438240E-03
  -1.01500005E-02  -1.43125339E-03
  -1.00999996E-02  -1.45853660E-03
  -1.00499997E-02  -1.48622063E-03
  -9.99999978E-03  -1.51428895E-03
  -9.94999986E-03  -1.54271966E-03
  -9.89999995E-03  -1.57148787E-03
  -9.85000003E-03  -1.60060008E-03
  -9.80000012E-03  -1.63010205E-03
  -9.75000020E-03  -1.66005036E-03
  -9.70000029E-03  -1.69046375E-03
  -9.65000037E-03  -1.72132428E-03
  -9.60000046E-03  -1.75263698E-03
  -9.54999961E-03  -1.78442802E-03
  -9.49999969E-03  -1.81671535E-03
  -9.44999978E-03  -1.84948836E-03
  -9.39999986E-03  -1.88271853E-03
  -9.34999995E-03  -1.91640831E-03
  -9.30000003E-03  -1.95061357E-03
  -9.25000012E-03  -1.98538462E-03
  -9.20000020E-03  -2.02073297E-03
  -9.15000029E-03  -2.05664174E-03
  -9.10000037E-03  -2.09307810E-03
  -9.05000046E-03  -2.13004043E-03
  -8.99999961E-03  -2.16754829E-03
  -8.94999970E-03  -2.20560445E-03
  -8.89999978E-03  -2.24418216E-03
  -8.84999987E-03  -2.28327303E-03
  -8.79999995E-03  -2.32289522E-03
  -8.75000004E-03  -2.36308062E-03
  -8.70000012E-03  -2.40386720E-03
  -8.65000021E-03  -2.44525028E-03
  -8.60000029E-03  -2.48718937E-03
  -8.55000038E-03  -2.52965256E-03
  -8.50000046E-03  -2.57267826E-03
  -8.44999962E-03  -2.61634798E-03
  -8.39999970E-03  -2.66071130E-03
  -8.34999979E-03  -2.70576007E-03
  -8.29999987E-03  -2.75147706E-03
  -8.24999996E-03  -2.79787532E-03
  -8.20000004E-03  -2.84499023E-03
  -8.15000013E-03  -2.89284508E-03
  -8.10000021E-03  -2.94141867E-03
  -8.05000030E-03  -2.99065909E-03
  -8.00000038E-03  -3.04056448E-03
  -7.95000046E-03  -3.09120421E-03
  -7.89999962E-03  -3.14265140E-03
  -7.84999970E-03  -3.19491606E-03
  -7.79999979E-03  -3.24794231E-03
  -7.74999987E-03  -3.30170942E-03
  -7.69999996E-03  -3.35625466E-03
  -7.65000004E-03  -3.41159222E-03
  -7.60000013E-03  -3.46770231E-03
  -7.55000021E-03  -3.52455350E-03
  -7.49999983E-03  -3.58213787E-03
  -7.44999992E-03  -3.64050432E-03
  -7.40000000E-03  -3.69971967E-03
  -7.35000009E-03  -3.75983492E-03
  -7.30000017E-03  -3.82082490E-03
  -7.24999979E-03  -3.88263515E-03
  -7.19999988E-03  -3.94529244E-03
  -7.14999996E-03  -4.00885195E-03
  -7.10000005E-03  -4.07334883E-03
  -7.05000013E-03  -4.13878448E-03
  -7.00000022E-03  -4.20513656E-03
  -6.94999984E-03  -4.27242182E-03
  -6.89999992E-03  -4.34071058E-03
  -6.85000001E-03  -4.41006338E-03
  -6.80000009E-03  -4.48045973E-03
  -6.75000018E-03  -4.55182698E-03
  -6.69999979E-03  -4.62410506E-03
  -6.64999988E-03  -4.69729537E-03
  -6.59999996E-03  -4.77150409E-03
  -6.55000005E-03  -4.84680990E-03
  -6.50000013E-03  -4.92318580E-03
  -6.45000022E-03  -5.00057172E-03
  -6.39999984E-03  -5.07893274E-03
  -6.34999992E-03  -5.15832147E-03
  -6.30000001E-03  -5.23882592E-03
  -6.25000009E-03  -5.32042421E-03
  -6.20000018E-03  -5.40299714E-03
  -6.14999980E-03  -5.48651861E-03
  -6.09999988E-03  -5.57109108E-03
  -6.04999997E-03  -5.65684214E-03
  -6.00000005E-03  -5.74383093E-03
  -5.95000014E-03  -5.83203556E-03
  -5.90000022E-03  -5.92137920E-03
  -5.84999984E-03  -6.01185020E-03
  -5.79999993E-03  -6.10353332E-03
  -5.75000001E-03  -6.19644998E-03
  -5.70000010E-03  -6.29052659E-03
  -5.65000018E-03  -6.38574269E-03
  -5.59999980E-03  -6.48218300E-03
  -5.54999989E-03  -6.57990994E-03
  -5.49999997E-03  -6.67895144E-03
  -5.45000006E-03  -6.77925069E-03
  -5.40000014E-03  -6.88071037E-03
  -5.35000023E-03  -6.98336167E-03
  -5.29999984E-03  -7.08725117E-03
  -5.24999993E-03  -7.19236908E-03
  -5.20000001E-03  -7.29870331E-03
  -5.15000010E-03  -7.40623893E-03
  -5.10000018E-03  -7.51498807E-03
  -5.04999980E-03  -7.62499683E-03
  -4.99999989E-03  -7.73632899E-03
  -4.94999997E-03  -7.84900691E-03
  -4.90000006E-03  -7.96298776E-03
  -4.85000014E-03  -8.07823241E-03
  -4.80000023E-03  -8.19476228E-03
  -4.74999985E-03  -8.31265748E-03
  -4.69999993E-03  -8.43201112E-03
  -4.65000002E-03  -8.55284464E-03
  -4.60000010E-03  -8.67506210E-03
  -4.55000019E-03  -8.79864488E-03
  -4.49999981E-03  -8.92368052E-03
  -4.44999989E-03  -9.05020535E-03
  -4.39999998E-03  -9.17810202E-03
  -4.35000006E-03  -9.30722710E-03
  -4.30000015E-03  -9.43762902E-03
  -4.25000023E-03  -9.56936833E-03
  -4.19999985E-03  -9.70256608E-03
  -4.14999994E-03  -9.83726978E-03
  -4.10000002E-03  -9.97335277E-03
  -4.05000011E-03  -1.01108057E-02
  -4.00000019E-03  -1.02496399E-02
  -3.94999981E-03  -1.03898915E-02
  -3.89999989E-03  -1.05315987E-02
  -3.84999998E-03  -1.06747262E-02
  -3.80000006E-03  -1.08192749E-02
  -3.74999992E-03  -1.09652486E-02
  -3.70000000E-03  -1.11127170E-02
  -3.65000009E-03  -1.12618292E-02
  -3.59999994E-03  -1.14125488E-02
  -3.55000002E-03  -1.15647046E-02
  -3.50000011E-03  -1.17182396E-02
  -3.44999996E-03  -1.18732443E-02
  -3.40000005E-03  -1.20298294E-02
  -3.34999990E-03  -1.21879792E-02
  -3.29999998E-03  -1.23476274E-02
  -3.25000007E-03  -1.25086950E-02
  -3.19999992E-03  -1.26712536E-02
  -3.15000000E-03  -1.28354896E-02
  -3.10000009E-03  -1.30012706E-02
  -3.04999994E-03  -1.31683992E-02
  -3.00000003E-03  -1.33370021E-02
  -2.95000011E-03  -1.35071594E-02
  -2.89999996E-03  -1.36788255E-02
  -2.85000005E-03  -1.38519965E-02
  -2.79999990E-03  -1.40266987E-02
  -2.74999999E-03  -1.42029962E-02
  -2.70000007E-03  -1.43808499E-02
  -2.64999992E-03  -1.45602450E-02
  -2.60000001E-03  -1.47410966E-02
  -2.55000009E-03  -1.49233611E-02
  -2.49999994E-03  -1.51071828E-02
  -2.45000003E-03  -1.52925774E-02
  -2.40000011E-03  -1.54795004E-02
  -2.34999997E-03  -1.56680569E-02
  -2.30000005E-03  -1.58583112E-02
  -2.24999990E-03  -1.60501618E-02
  -2.19999999E-03  -1.62435975E-02
  -2.15000007E-03  -1.64386351E-02
  -2.09999993E-03  -1.66352298E-02
  -2.05000001E-03  -1.68333668E-02
  -2.00000009E-03  -1.70329846E-02
  -1.94999995E-03  -1.72340609E-02
  -1.90000003E-03  -1.74366347E-02
  -1.85000000E-03  -1.76407620E-02
  -1.79999997E-03  -1.78464167E-02
  -1.75000005E-03  -1.80535056E-02
  -1.70000002E-03  -1.82620697E-02
  -1.64999999E-03  -1.84721369E-02
  -1.59999996E-03  -1.86836533E-02
  -1.55000004E-03  -1.88966859E-02
  -1.50000001E-03  -1.91112217E-02
  -1.44999998E-03  -1.93272382E-02
  -1.39999995E-03  -1.95448883E-02
  -1.35000004E-03  -1.97641626E-02
  -1.30000000E-03  -1.99849922E-02
  -1.24999997E-03  -2.02072188E-02
  -1.20000006E-03  -2.04307213E-02
  -1.15000003E-03  -2.06556357E-02
  -1.09999999E-03  -2.08822861E-02
  -1.04999996E-03  -2.11106688E-02
  -1.00000005E-03  -2.13402901E-02
  -9.50000016E-04  -2.15710551E-02
  -8.99999985E-04  -2.18032859E-02
  -8.50000011E-04  -2.20371727E-02
  -7.99999980E-04  -2.22725477E-02
  -7.50000007E-04  -2.25089993E-02
  -6.99999975E-04  -2.27465518E-02
  -6.50000002E-04  -2.29854640E-02
  -6.00000028E-04  -2.32257340E-02
  -5.49999997E-04  -2.34673992E-02
  -5.00000024E-04  -2.37102471E-02
  -4.49999992E-04  -2.39543058E-02
  -3.99999990E-04  -2.41998956E-02
  -3.49999988E-04  -2.44468004E-02
  -3.00000014E-04  -2.46946029E-02
  -2.50000012E-04  -2.49433890E-02
  -1.99999995E-04  -2.51935553E-02
  -1.50000007E-04  -2.54451875E-02
  -9.99999975E-05  -2.56979223E-02
  -4.99999987E-05  -2.59515084E-02
   0.00000000      -2.62060314E-02
   4.99999987E-05  -2.64618751E-02
   9.99999975E-05  -2.67189667E-02
   1.50000007E-04  -2.69768834E-02
   1.99999995E-04  -2.72354204E-02
   2.50000012E-04  -2.74947956E-02
   3.00000014E-04  -2.77555734E-02
   3.49999988E-04  -2.80176513E-02
   3.99999990E-04  -2.82803159E-02
   4.49999992E-04  -2.85430569E-02
   5.00000024E-04  -2.88062785E-02
   5.49999997E-04  -2.90706120E-02
   6.00000028E-04  -2.93363445E-02
   6.50000002E-04  -2.96026915E-02
   6.99999975E-04  -2.98686810E-02
   7.50000007E-04  -3.01346779E-02
   7.99999980E-04  -3.04016341E-02
   8.50000011E-04  -3.06700002E-02
   8.99999985E-04  -3.09389103E-02
   9.50000016E-04  -3.12074143E-02
   1.00000005E-03  -3.14755253E-02
   1.04999996E-03  -3.17440145E-02
   1.09999999E-03  -3.20134126E-02
   1.15000003E-03  -3.22833955E-02
   1.20000006E-03  -3.25532295E-02
   1.24999997E-03  -3.28225344E-02
   1.30000000E-03  -3.30916606E-02
   1.35000004E-03  -3.33611816E-02
   1.39999995E-03  -3.36309858E-02
   1.44999998E-03  -3.39001343E-02
   1.50000001E-03  -3.41682024E-02
   1.55000004E-03  -3.44355479E-02
   1.59999996E-03  -3.47029418E-02
   1.64999999E-03  -3.49706337E-02
   1.70000002E-03  -3.52374911E-02
   1.75000005E-03  -3.55028249E-02
   1.79999997E-03  -3.57670337E-02
   1.85000000E-03  -3.60307246E-02
   1.90000003E-03  -3.62939388E-02
   1.94999995E-03  -3.65558788E-02
   2.00000009E-03  -3.68159562E-02
   2.05000001E-03  -3.70743163E-02
   2.09999993E-03  -3.73318121E-02
   2.15000007E-03  -3.75888422E-02
   2.19999999E-03  -3.78449224E-02
   2.24999990E-03  -3.80989127E-02
   2.30000005E-03  -3.83499898E-02
   2.34999997E-03  -3.85988951E-02
   2.40000011E-03  -3.88467759E-02
   2.45000003E-03  -3.90935540E-02
   2.49999994E-03  -3.93375754E-02
   2.55000009E-03  -3.95778343E-02
   2.60000001E-03  -3.98154594E-02
   2.64999992E-03  -4.00514416E-02
   2.70000007E-03  -4.02857400E-02
   2.74999999E-03  -4.05172147E-02
   2.79999990E-03  -4.07444201E-02