  -3.99999991E-02   0.00000000    
  -3.99499983E-02   0.00000000    
  -3.99000011E-02   0.00000000    
  -3.98500003E-02   0.00000000    
  -3.97999994E-02  -2.18350620E-21
  -3.97499986E-02  -1.83165495E-20
  -3.97000015E-02  -8.08256400E-20
  -3.96500006E-02  -2.43738849E-19
  -3.95999998E-02  -5.46378696E-19
  -3.95499989E-02  -9.13278224E-19
  -3.95000018E-02  -9.90307350E-19
  -3.94500010E-02   3.32053724E-20
  -3.94000001E-02   3.51446626E-18
  -3.93499993E-02   1.12375588E-17
  -3.92999984E-02   2.50112153E-17
  -3.92500013E-02   4.60451014E-17
  -3.92000005E-02   7.43499316E-17
  -3.91499996E-02   1.08539437E-16
  -3.90999988E-02   1.46362145E-16
  -3.90500017E-02   1.85992342E-16
  -3.90000008E-02   2.27653445E-16
  -3.89500000E-02   2.74780982E-16
  -3.88999991E-02   3.33929372E-16
  -3.88499983E-02   4.13096963E-16
  -3.88000011E-02   5.18929335E-16
  -3.87500003E-02   6.53977198E-16
  -3.86999995E-02   8.15426019E-16
  -3.86499986E-02   9.96253471E-16
  -3.86000015E-02   1.18871026E-15
  -3.85500006E-02   1.38878654E-15
  -3.84999998E-02   1.59953363E-15
  -3.84499989E-02   1.83127337E-15
  -3.84000018E-02   2.09796996E-15
  -3.83500010E-02   2.41088976E-15
  -3.83000001E-02   2.77224270E-15
  -3.82499993E-02   3.17187115E-15
  -3.81999984E-02   3.58889257E-15
  -3.81500013E-02   3.99797052E-15
  -3.81000005E-02   4.37766067E-15
  -3.80499996E-02   4.71718705E-15
  -3.79999988E-02   5.01860711E-15
  -3.79500017E-02   5.29335326E-15
  -3.79000008E-02   5.55466970E-15
  -3.78500000E-02   5.80927171E-15
  -3.77999991E-02   6.05182891E-15
  -3.77499983E-02   6.26446382E-15
  -3.77000012E-02   6.42109885E-15
  -3.76500003E-02   6.49442141E-15
  -3.75999995E-02   6.46249166E-15
  -3.75499986E-02   6.31282771E-15
  -3.75000015E-02   6.04344286E-15
  -3.74500006E-02   5.66150596E-15
  -3.73999998E-02   5.18042132E-15
  -3.73499990E-02   4.61538089E-15
  -3.73000018E-02   3.97699206E-15
  -3.72500010E-02   3.26343350E-15
  -3.72000001E-02   2.45368144E-15
  -3.71499993E-02   1.50640447E-15
  -3.70999984E-02   3.69143258E-16
  -3.70500013E-02  -1.00094116E-15
  -3.70000005E-02  -2.60973011E-15
  -3.69499996E-02  -4.40371752E-15
  -3.68999988E-02  -6.26670126E-15
  -3.68500017E-02  -8.04535695E-15
  -3.68000008E-02  -9.60139290E-15
  -3.67500000E-02  -1.08725488E-14
  -3.66999991E-02  -1.19136505E-14
  -3.66499983E-02  -1.28902016E-14
  -3.66000012E-02  -1.40138374E-14
  -3.65500003E-02  -1.54364589E-14
  -3.64999995E-02  -1.71461254E-14
  -3.64499986E-02  -1.89179337E-14
  -3.64000015E-02  -2.03581946E-14
  -3.63500006E-02  -2.10417621E-14
  -3.62999998E-02  -2.06952782E-14
  -3.62499990E-02  -1.93456548E-14
  -3.62000018E-02  -1.73534791E-14
  -3.61500010E-02  -1.52923413E-14
  -3.61000001E-02  -1.37045501E-14
  -3.60499993E-02  -1.28314734E-14
  -3.59999985E-02  -1.24476540E-14
  -3.59500013E-02  -1.18991129E-14
  -3.59000005E-02  -1.03616854E-14
  -3.58499996E-02  -7.22795914E-15
  -3.57999988E-02  -2.45208203E-15
  -3.57500017E-02   3.32513308E-15
  -3.57000008E-02   8.96753104E-15
  -3.56500000E-02   1.33061464E-14
  -3.55999991E-02   1.56859457E-14
  -3.55499983E-02   1.63389860E-14
  -3.55000012E-02   1.63725048E-14
  -3.54500003E-02   1.73190997E-14
  -3.53999995E-02   2.04049729E-14
  -3.53499986E-02   2.58548811E-14
  -3.53000015E-02   3.25811325E-14
  -3.52500007E-02   3.84651451E-14
  -3.51999998E-02   4.11790387E-14
  -3.51499990E-02   3.92235445E-14
  -3.51000018E-02   3.27093224E-14
  -3.50500010E-02   2.34708205E-14
  -3.50000001E-02   1.43719909E-14
  -3.49499993E-02   8.03628692E-15
  -3.48999985E-02   5.54116587E-15
  -3.48500013E-02   5.70150243E-15
  -3.48000005E-02   5.35874378E-15
  -3.47499996E-02   6.57890384E-16
  -3.46999988E-02  -1.11836479E-14
  -3.46500017E-02  -3.04062365E-14
  -3.46000008E-02  -5.42754589E-14
  -3.45500000E-02  -7.80109348E-14
  -3.44999991E-02  -9.67843834E-14
  -3.44499983E-02  -1.07951727E-13
  -3.44000012E-02  -1.12482309E-13
  -3.43500003E-02  -1.14821821E-13
  -3.42999995E-02  -1.21091329E-13
  -3.42499986E-02  -1.36306453E-13
  -3.42000015E-02  -1.61835701E-13
  -3.41500007E-02  -1.94325174E-13
  -3.40999998E-02  -2.26741342E-13
  -3.40499990E-02  -2.51241492E-13
  -3.40000018E-02  -2.62687008E-13
  -3.39500010E-02  -2.61197964E-13
  -3.39000002E-02  -2.52454958E-13
  -3.38499993E-02  -2.45402413E-13
  -3.37999985E-02  -2.48208003E-13
  -3.37500013E-02  -2.64234516E-13
  -3.37000005E-02  -2.89930758E-13
  -3.36499996E-02  -3.15810204E-13
  -3.35999988E-02  -3.30328999E-13
  -3.35500017E-02  -3.25091083E-13
  -3.35000008E-02  -2.99044670E-13
  -3.34500000E-02  -2.59609906E-13
  -3.33999991E-02  -2.19947934E-13
  -3.33499983E-02  -1.93329998E-13
  -3.33000012E-02  -1.87007948E-13
  -3.32500003E-02  -1.98417170E-13
  -3.31999995E-02  -2.15675988E-13
  -3.31499986E-02  -2.22487705E-13
  -3.31000015E-02  -2.05499151E-13
  -3.30500007E-02  -1.60868565E-13
  -3.29999998E-02  -9.69160190E-14
  -3.29499990E-02  -3.13207542E-14
  -3.29000019E-02   1.62416010E-14
  -3.28500010E-02   3.29355954E-14
  -3.28000002E-02   1.90757122E-14
  -3.27499993E-02  -1.12063382E-14
  -3.26999985E-02  -3.56506613E-14
  -3.26500013E-02  -3.37231159E-14
  -3.26000005E-02   3.64646625E-15
  -3.25499997E-02   6.89642570E-14
  -3.24999988E-02   1.40391090E-13
  -3.24500017E-02   1.90748513E-13
  -3.24000008E-02   1.99603368E-13
  -3.23500000E-02   1.63053354E-13
  -3.22999991E-02   9.65507988E-14
  -3.22499983E-02   2.90201382E-14
  -3.22000012E-02  -9.56179749E-15
  -3.21500003E-02  -1.79756930E-15
  -3.20999995E-02   4.85036172E-14
  -3.20499986E-02   1.16990171E-13
  -3.20000015E-02   1.68981338E-13
  -3.19500007E-02   1.75093731E-13
  -3.18999998E-02   1.25399108E-13
  -3.18499990E-02   3.54981683E-14
  -3.18000019E-02  -5.87712387E-14
  -3.17500010E-02  -1.16231623E-13
  -3.17000002E-02  -1.08586398E-13
  -3.16499993E-02  -3.37898485E-14
  -3.15999985E-02   8.18453039E-14
  -3.15500014E-02   1.94405283E-13
  -3.15000005E-02   2.61781401E-13
  -3.14499997E-02   2.63305409E-13
  -3.13999988E-02   2.10623646E-13
  -3.13500017E-02   1.44346191E-13
  -3.13000008E-02   1.17230525E-13
  -3.12500000E-02   1.70866820E-13
  -3.11999992E-02   3.16176474E-13
  -3.11500002E-02   5.26833080E-13
  -3.10999993E-02   7.49281659E-13
  -3.10500003E-02   9.25639339E-13
  -3.09999995E-02   1.01968618E-12
  -3.09500005E-02   1.03424571E-12
  -3.08999997E-02   1.01159229E-12
  -3.08500007E-02   1.01583976E-12
  -3.07999998E-02   1.10442807E-12
  -3.07500008E-02   1.30113747E-12
  -3.07000000E-02   1.58297171E-12
  -3.06499992E-02   1.88753440E-12
  -3.06000002E-02   2.13852482E-12
  -3.05499993E-02   2.27863496E-12
  -3.05000003E-02   2.29527833E-12
  -3.04499995E-02   2.22716507E-12
  -3.04000005E-02   2.14789384E-12
  -3.03499997E-02   2.13298216E-12
  -3.03000007E-02   2.22455561E-12
  -3.02499998E-02   2.40961287E-12
  -3.02000009E-02   2.62232857E-12
  -3.01500000E-02   2.77041150E-12
  -3.00999992E-02   2.77464683E-12
  -3.00500002E-02   2.60429395E-12
  -2.99999993E-02   2.29215627E-12
  -2.99500003E-02   1.92164492E-12
  -2.98999995E-02   1.59050767E-12
  -2.98500005E-02   1.36664746E-12
  -2.97999997E-02   1.25567037E-12
  -2.97500007E-02   1.19532205E-12
  -2.96999998E-02   1.08044303E-12
  -2.96500009E-02   8.08445867E-13
  -2.96000000E-02   3.25642454E-13
  -2.95499992E-02  -3.46425525E-13
  -2.95000002E-02  -1.11732065E-12
  -2.94499993E-02  -1.86513934E-12
  -2.94000003E-02  -2.48939324E-12
  -2.93499995E-02  -2.95611192E-12
  -2.93000005E-02  -3.31454005E-12
  -2.92499997E-02  -3.67679585E-12
  -2.92000007E-02  -4.16820528E-12
  -2.91499998E-02  -4.86952666E-12
  -2.91000009E-02  -5.77674584E-12
  -2.90500000E-02  -6.79719172E-12
  -2.89999992E-02  -7.78511890E-12
  -2.89500002E-02  -8.60228208E-12
  -2.88999993E-02  -9.17726572E-12
  -2.88500004E-02  -9.53693634E-12
  -2.87999995E-02  -9.79491835E-12
  -2.87500005E-02  -1.01007258E-11
  -2.86999997E-02  -1.05709885E-11
  -2.86500007E-02  -1.12329790E-11
  -2.85999998E-02  -1.20062007E-11
  -2.85500009E-02  -1.27316361E-11
  -2.85000000E-02  -1.32372099E-11
  -2.84499992E-02  -1.34114195E-11
  -2.84000002E-02  -1.32524339E-11
  -2.83499993E-02  -1.28698571E-11
  -2.83000004E-02  -1.24367842E-11
  -2.82499995E-02  -1.21119642E-11
  -2.82000005E-02  -1.19659317E-11
  -2.81499997E-02  -1.19443422E-11
  -2.81000007E-02  -1.18861960E-11
  -2.80499998E-02  -1.15906312E-11
  -2.80000009E-02  -1.09040424E-11
  -2.79500000E-02  -9.78925274E-12
  -2.78999992E-02  -8.34524550E-12
  -2.78500002E-02  -6.76706738E-12
  -2.77999993E-02  -5.26193498E-12
  -2.77500004E-02  -3.95767013E-12
  -2.76999995E-02  -2.84415547E-12
  -2.76500005E-02  -1.77503606E-12
  -2.75999997E-02  -5.30798116E-13
  -2.75500007E-02   1.08303893E-12
  -2.74999999E-02   3.14540603E-12
  -2.74500009E-02   5.57753583E-12
  -2.74000000E-02   8.16952495E-12
  -2.73499992E-02   1.06658744E-11
  -2.73000002E-02   1.28736353E-11
  -2.72499993E-02   1.47455919E-11
  -2.72000004E-02   1.64006031E-11
  -2.71499995E-02   1.80701218E-11
  -2.71000005E-02   1.99925753E-11
  -2.70499997E-02   2.23011123E-11
  -2.70000007E-02   2.49545974E-11
  -2.69499999E-02   2.77438454E-11
  -2.69000009E-02   3.03725170E-11
  -2.68500000E-02   3.25788008E-11
  -2.67999992E-02   3.42447980E-11
  -2.67500002E-02   3.54446576E-11
  -2.66999993E-02   3.64082653E-11
  -2.66500004E-02   3.74144986E-11
  -2.65999995E-02   3.86595894E-11
  -2.65500005E-02   4.01587479E-11
  -2.64999997E-02   4.17256681E-11
  -2.64500007E-02   4.30412789E-11
  -2.63999999E-02   4.37835324E-11
  -2.63500009E-02   4.37620599E-11
  -2.63000000E-02   4.29980287E-11
  -2.62499992E-02   4.17122170E-11
  -2.62000002E-02   4.02243204E-11
  -2.61499994E-02   3.88061319E-11
  -2.61000004E-02   3.75527665E-11
  -2.60499995E-02   3.63297829E-11
  -2.60000005E-02   3.48216941E-11
  -2.59499997E-02   3.26627475E-11
  -2.59000007E-02   2.95939523E-11
  -2.58499999E-02   2.55771272E-11
  -2.58000009E-02   2.08142791E-11
  -2.57500000E-02   1.56614773E-11
  -2.56999992E-02   1.04731094E-11
  -2.56500002E-02   5.44420758E-12
  -2.55999994E-02   5.21038453E-13
  -2.55500004E-02  -4.57862828E-12
  -2.54999995E-02  -1.02419271E-11
  -2.54500005E-02  -1.67864819E-11
  -2.53999997E-02  -2.43114556E-11
  -2.53500007E-02  -3.26407894E-11
  -2.52999999E-02  -4.13858565E-11
  -2.52500009E-02  -5.01023251E-11
  -2.52000000E-02  -5.84736426E-11
  -2.51499992E-02  -6.64402144E-11
  -2.51000002E-02  -7.42158349E-11
  -2.50499994E-02  -8.21816643E-11
  -2.50000004E-02  -9.07022582E-11
  -2.49499995E-02  -9.99437477E-11
  -2.49000005E-02  -1.09774724E-10
  -2.48499997E-02  -1.19795618E-10
  -2.48000007E-02  -1.29486019E-10
  -2.47499999E-02  -1.38406869E-10
  -2.47000009E-02  -1.46369125E-10
  -2.46500000E-02  -1.53493329E-10
  -2.45999992E-02  -1.60131783E-10
  -2.45500002E-02  -1.66685221E-10
  -2.44999994E-02  -1.73393411E-10
  -2.44500004E-02  -1.80191834E-10
  -2.43999995E-02  -1.86699281E-10
  -2.43500005E-02  -1.92344196E-10
  -2.42999997E-02  -1.96576214E-10
  -2.42500007E-02  -1.99070982E-10
  -2.41999999E-02  -1.99837355E-10
  -2.41500009E-02  -1.99178299E-10
  -2.41000000E-02  -1.97520458E-10
  -2.40499992E-02  -1.95185812E-10
  -2.40000002E-02  -1.92205765E-10
  -2.39499994E-02  -1.88260713E-10
  -2.39000004E-02  -1.82773699E-10
  -2.38499995E-02  -1.75119391E-10
  -2.38000005E-02  -1.64857669E-10
  -2.37499997E-02  -1.51888987E-10
  -2.37000007E-02  -1.36461745E-10
  -2.36499999E-02  -1.19026414E-10
  -2.36000009E-02  -9.99985511E-11
  -2.35500000E-02  -7.95342681E-11
  -2.34999992E-02  -5.74175742E-11
  -2.34500002E-02  -3.31108058E-11
  -2.33999994E-02  -5.94828917E-12
  -2.33500004E-02   2.46102722E-11
  -2.32999995E-02   5.87775592E-11
  -2.32500006E-02   9.63772950E-11
  -2.31999997E-02   1.36952505E-10
  -2.31500007E-02   1.79997628E-10
  -2.30999999E-02   2.25213653E-10
  -2.30500009E-02   2.72674244E-10
  -2.30000000E-02   3.22828347E-10
  -2.29499992E-02   3.76336712E-10
  -2.29000002E-02   4.33811903E-10
  -2.28499994E-02   4.95575470E-10
  -2.28000004E-02   5.61539260E-10
  -2.27499995E-02   6.31264097E-10
  -2.27000006E-02   7.04172221E-10
  -2.26499997E-02   7.79821485E-10
  -2.26000007E-02   8.58121407E-10
  -2.25499999E-02   9.39396227E-10
  -2.25000009E-02   1.02426512E-09
  -2.24500000E-02   1.11339205E-09
  -2.23999992E-02   1.20721166E-09
  -2.23500002E-02   1.30575395E-09
  -2.22999994E-02   1.40864298E-09
  -2.22500004E-02   1.51527357E-09
  -2.21999995E-02   1.62508873E-09
  -2.21500006E-02   1.73783743E-09
  -2.20999997E-02   1.85369908E-09
  -2.20500007E-02   1.97322070E-09
  -2.19999999E-02   2.09709161E-09
  -2.19500009E-02   2.22585306E-09
  -2.19000001E-02   2.35967224E-09
  -2.18499992E-02   2.49827603E-09
  -2.18000002E-02   2.64107758E-09
  -2.17499994E-02   2.78744205E-09
  -2.17000004E-02   2.93697378E-09
  -2.16499995E-02   3.08970116E-09
  -2.16000006E-02   3.24607985E-09
  -2.15499997E-02   3.40680795E-09
  -2.15000007E-02   3.57253560E-09
  -2.14499999E-02   3.74359566E-09
  -2.14000009E-02   3.91987154E-09
  -2.13500001E-02   4.10086054E-09
  -2.12999992E-02   4.28591029E-09
  -2.12500002E-02   4.47451898E-09
  -2.11999994E-02   4.66657646E-09
  -2.11500004E-02   4.86243668E-09
  -2.10999995E-02   5.06278930E-09
  -2.10500006E-02   5.26838750E-09
  -2.09999997E-02   5.47975043E-09
  -2.09500007E-02   5.69696201E-09
  -2.08999999E-02   5.91966920E-09
  -2.08500009E-02   6.14726403E-09
  -2.08000001E-02   6.37918429E-09
  -2.07499992E-02   6.61519817E-09
  -2.07000002E-02   6.85554724E-09
  -2.06499994E-02   7.10089054E-09
  -2.06000004E-02   7.35206873E-09
  -2.05499995E-02   7.60979191E-09
  -2.05000006E-02   7.87439003E-09
  -2.04499997E-02   8.14572410E-09
  -2.04000007E-02   8.42331094E-09
  -2.03499999E-02   8.70659633E-09
  -2.03000009E-02   8.99526675E-09
  -2.02500001E-02   9.28945898E-09
  -2.01999992E-02   9.58978230E-09
  -2.01500002E-02   9.89713644E-09
  -2.00999994E-02   1.02124087E-08
  -2.00500004E-02   1.05361808E-08
  -1.99999996E-02   1.08685692E-08
  -1.99500006E-02   1.12092673E-08
  -1.98999997E-02   1.15577850E-08
  -1.98500007E-02   1.19137580E-08
  -1.97999999E-02   1.22772219E-08
  -1.97500009E-02   1.26487096E-08
  -1.97000001E-02   1.30291422E-08
  -1.96499992E-02   1.34195561E-08
  -1.96000002E-02   1.38207819E-08
  -1.95499994E-02   1.42332173E-08
  -1.95000004E-02   1.46567887E-08
  -1.94499996E-02   1.50911230E-08
  -1.94000006E-02   1.55358535E-08
  -1.93499997E-02   1.59909277E-08
  -1.93000007E-02   1.64567791E-08
  -1.92499999E-02   1.69343135E-08
  -1.92000009E-02   1.74246697E-08
  -1.91500001E-02   1.79289028E-08
  -1.90999992E-02   1.84476967E-08
  -1.90500002E-02   1.89812361E-08
  -1.89999994E-02   1.95293133E-08
  -1.89500004E-02   2.00915871E-08
  -1.88999996E-02   2.06679189E-08
  -1.88500006E-02   2.12586304E-08
  -1.87999997E-02   2.18645493E-08
  -1.87500007E-02   2.24868657E-08
  -1.86999999E-02   2.31268213E-08
  -1.86500009E-02   2.37853790E-08
  -1.86000001E-02   2.44630236E-08
  -1.85499992E-02   2.51597712E-08
  -1.85000002E-02   2.58753712E-08
  -1.84499994E-02   2.66096531E-08
  -1.84000004E-02   2.73628178E-08
  -1.83499996E-02   2.81355987E-08
  -1.83000006E-02   2.89291844E-08
  -1.82499997E-02   2.97449532E-08
  -1.82000007E-02   3.05841255E-08
  -1.81499999E-02   3.14475059E-08
  -1.81000009E-02   3.23353646E-08
  -1.80500001E-02   3.32476091E-08
  -1.79999992E-02   3.41840760E-08
  -1.79500002E-02   3.51448755E-08
  -1.78999994E-02   3.61306292E-08
  -1.78500004E-02   3.71424846E-08
  -1.77999996E-02   3.81819198E-08
  -1.77500006E-02   3.92503914E-08
  -1.76999997E-02   4.03490112E-08
  -1.76500008E-02   4.14783763E-08
  -1.75999999E-02   4.26386073E-08
  -1.75500009E-02   4.38296226E-08
  -1.75000001E-02   4.50514968E-08
  -1.74499992E-02   4.63047556E-08
  -1.74000002E-02   4.75905040E-08
  -1.73499994E-02   4.89102803E-08
  -1.73000004E-02   5.02657542E-08
  -1.72499996E-02   5.16583647E-08
  -1.72000006E-02   5.30890567E-08
  -1.71499997E-02   5.45582353E-08
  -1.71000008E-02   5.60659679E-08
  -1.70499999E-02   5.76123398E-08
  -1.70000009E-02   5.91978058E-08
  -1.69500001E-02   6.08233890E-08
  -1.68999992E-02   6.24906633E-08
  -1.68500002E-02   6.42014797E-08
  -1.67999994E-02   6.59576074E-08
  -1.67500004E-02   6.77603751E-08
  -1.66999996E-02   6.96105431E-08
  -1.66500006E-02   7.15084241E-08
  -1.65999997E-02   7.34542169E-08
  -1.65500008E-02   7.54483551E-08
  -1.64999999E-02   7.74918263E-08
  -1.64500009E-02   7.95862363E-08
  -1.64000001E-02   8.17336101E-08
  -1.63499992E-02   8.39360297E-08
  -1.63000003E-02   8.61952429E-08
  -1.62499994E-02   8.85124507E-08
  -1.62000004E-02   9.08883138E-08
  -1.61499996E-02   9.33232229E-08
  -1.61000006E-02   9.58176756E-08
  -1.60499997E-02   9.83726736E-08
  -1.60000008E-02   1.00989844E-07
  -1.59499999E-02   1.03671368E-07
  -1.59000009E-02   1.06419641E-07
  -1.58500001E-02   1.09236858E-07
  -1.57999992E-02   1.12124688E-07
  -1.57500003E-02   1.15084241E-07
  -1.56999994E-02   1.18116198E-07
  -1.56500004E-02   1.21221248E-07
  -1.55999996E-02   1.24400472E-07
  -1.55499997E-02   1.27655596E-07
  -1.54999997E-02   1.30988994E-07
  -1.54499998E-02   1.34403351E-07
  -1.53999999E-02   1.37901324E-07
  -1.53500000E-02   1.41485131E-07
  -1.53000001E-02   1.45156392E-07
  -1.52500002E-02   1.48916200E-07
  -1.52000003E-02   1.52765494E-07
  -1.51500003E-02   1.56705525E-07
  -1.51000004E-02   1.60738139E-07
  -1.50499996E-02   1.64865881E-07
  -1.49999997E-02   1.69091734E-07
  -1.49499997E-02   1.73418826E-07
  -1.48999998E-02   1.77849941E-07
  -1.48499999E-02   1.82387282E-07
  -1.48000000E-02   1.87032455E-07
  -1.47500001E-02   1.91786782E-07
  -1.47000002E-02   1.96651698E-07
  -1.46500003E-02   2.01629220E-07
  -1.46000003E-02   2.06722092E-07
  -1.45500004E-02   2.11933610E-07
  -1.44999996E-02   2.17267399E-07
  -1.44499997E-02   2.22726840E-07
  -1.43999998E-02   2.28314704E-07
  -1.43499998E-02   2.34033180E-07
  -1.42999999E-02   2.39884059E-07
  -1.42500000E-02   2.45869046E-07
  -1.42000001E-02   2.51990457E-07
  -1.41500002E-02   2.58251163E-07
  -1.41000003E-02   2.64654830E-07
  -1.40500003E-02   2.71205465E-07
  -1.40000004E-02   2.77906963E-07
  -1.39499996E-02   2.84762820E-07
  -1.38999997E-02   2.91775820E-07
  -1.38499998E-02   2.98948237E-07
  -1.37999998E-02   3.06282260E-07
  -1.37499999E-02   3.13780362E-07
  -1.37000000E-02   3.21445754E-07
  -1.36500001E-02   3.29282386E-07
  -1.36000002E-02   3.37294694E-07
  -1.35500003E-02   3.45487109E-07
  -1.35000004E-02   3.53863754E-07
  -1.34500004E-02   3.62428068E-07
  -1.33999996E-02   3.71182921E-07
  -1.33499997E-02   3.80130871E-07
  -1.32999998E-02   3.89274788E-07
  -1.32499998E-02   3.98618141E-07
  -1.31999999E-02   4.08165164E-07
  -1.31500000E-02   4.17920688E-07
  -1.31000001E-02   4.27889717E-07
  -1.30500002E-02   4.38076967E-07
  -1.30000003E-02   4.48486475E-07
  -1.29500004E-02   4.59121765E-07
  -1.29000004E-02   4.69985849E-07
  -1.28499996E-02   4.81081997E-07
  -1.27999997E-02   4.92413903E-07
  -1.27499998E-02   5.03986257E-07
  -1.26999998E-02   5.15804118E-07
  -1.26499999E-02   5.27873112E-07
  -1.26000000E-02   5.40198528E-07
  -1.25500001E-02   5.52785025E-07
  -1.25000002E-02   5.65636753E-07
  -1.24500003E-02   5.78757181E-07
  -1.24000004E-02   5.92150059E-07
  -1.23500004E-02   6.05819537E-07
  -1.22999996E-02   6.19770333E-07
  -1.22499997E-02   6.34008131E-07
  -1.21999998E-02   6.48538787E-07
  -1.21499998E-02   6.63368098E-07
  -1.20999999E-02   6.78501408E-07
  -1.20500000E-02   6.93943321E-07
  -1.20000001E-02   7.09697929E-07
  -1.19500002E-02   7.25769439E-07
  -1.19000003E-02   7.42162229E-07
  -1.18500004E-02   7.58881697E-07
  -1.18000004E-02   7.75933700E-07
  -1.17499996E-02   7.93324773E-07
  -1.16999997E-02   8.11061170E-07
  -1.16499998E-02   8.29148860E-07
  -1.15999999E-02   8.47593014E-07
  -1.15499999E-02   8.66398295E-07
  -1.15000000E-02   8.85569136E-07
  -1.14500001E-02   9.05110426E-07
  -1.14000002E-02   9.25027621E-07
  -1.13500003E-02   9.45327145E-07
  -1.13000004E-02   9.66015591E-07
  -1.12500004E-02   9.87099952E-07
  -1.11999996E-02   1.00858665E-06
  -1.11499997E-02   1.03048149E-06
  -1.10999998E-02   1.05278968E-06
  -1.10499999E-02   1.07551637E-06
  -1.09999999E-02   1.09866687E-06
  -1.09500000E-02   1.12224734E-06
  -1.09000001E-02   1.14626448E-06
  -1.08500002E-02   1.17072557E-06
  -1.08000003E-02   1.19563811E-06
  -1.07500004E-02   1.22100869E-06
  -1.07000005E-02   1.24684391E-06
  -1.06499996E-02   1.27314922E-06
  -1.05999997E-02   1.29992998E-06
  -1.05499998E-02   1.32719174E-06
  -1.04999999E-02   1.35494076E-06
  -1.04499999E-02   1.38318444E-06
  -1.04000000E-02   1.41193016E-06
  -1.03500001E-02   1.44118610E-06
  -1.03000002E-02   1.47095943E-06
  -1.02500003E-02   1.50125732E-06
  -1.02000004E-02   1.53208589E-06
  -1.01500005E-02   1.56345106E-06
  -1.00999996E-02   1.59535887E-06
  -1.00499997E-02   1.62781589E-06
  -9.99999978E-03   1.66082975E-06
  -9.94999986E-03   1.69440875E-06
  -9.89999995E-03   1.72856107E-06
  -9.85000003E-03   1.76329490E-06
  -9.80000012E-03   1.79861752E-06
  -9.75000020E-03   1.83453551E-06
  -9.70000029E-03   1.87105502E-06
  -9.65000037E-03   1.90818196E-06
  -9.60000046E-03   1.94592349E-06
  -9.54999961E-03   1.98428711E-06
  -9.49999969E-03   2.02328147E-06
  -9.44999978E-03   2.06291497E-06
  -9.39999986E-03   2.10319649E-06
  -9.34999995E-03   2.14413308E-06
  -9.30000003E-03   2.18573155E-06
  -9.25000012E-03   2.22799827E-06
  -9.20000020E-03   2.27093938E-06
  -9.15000029E-03   2.31456215E-06
  -9.10000037E-03   2.35887455E-06
  -9.05000046E-03   2.40388567E-06
  -8.99999961E-03   2.44960484E-06
  -8.94999970E-03   2.49604068E-06
  -8.89999978E-03   2.54320139E-06
  -8.84999987E-03   2.59109379E-06
  -8.79999995E-03   2.63972402E-06
  -8.75000004E-03   2.68909844E-06
  -8.70000012E-03   2.73922478E-06
  -8.65000021E-03   2.79011033E-06
  -8.60000029E-03   2.84176417E-06
  -8.55000038E-03   2.89419540E-06
  -8.50000046E-03   2.94741267E-06
  -8.44999962E-03   3.00142369E-06
  -8.39999970E-03   3.05623530E-06
  -8.34999979E-03   3.11185408E-06
  -8.29999987E-03   3.16828550E-06
  -8.24999996E-03   3.22553637E-06
  -8.20000004E-03   3.28361375E-06
  -8.15000013E-03   3.34252627E-06
  -8.10000021E-03   3.40228326E-06
  -8.05000030E-03   3.46289289E-06
  -8.00000038E-03   3.52436405E-06
  -7.95000046E-03   3.58670309E-06
  -7.89999962E-03   3.64991615E-06
  -7.84999970E-03   3.71400870E-06
  -7.79999979E-03   3.77898641E-06
  -7.74999987E-03   3.84485611E-06
  -7.69999996E-03   3.91162666E-06
  -7.65000004E-03   3.97930580E-06
  -7.60000013E-03   4.04790308E-06
  -7.55000021E-03   4.11742576E-06
  -7.49999983E-03   4.18787931E-06
  -7.44999992E-03   4.25926874E-06
  -7.40000000E-03   4.33159857E-06
  -7.35000009E-03   4.40487293E-06
  -7.30000017E-03   4.47909679E-06
  -7.24999979E-03   4.55427835E-06
  -7.19999988E-03   4.63042443E-06
  -7.14999996E-03   4.70754321E-06
  -7.10000005E-03   4.78564152E-06
  -7.05000013E-03   4.86472481E-06
  -7.00000022E-03   4.94479673E-06
  -6.94999984E-03   5.02585908E-06
  -6.89999992E-03   5.10791551E-06
  -6.85000001E-03   5.19097011E-06
  -6.80000009E-03   5.27502743E-06
  -6.75000018E-03   5.36009429E-06
  -6.69999979E-03   5.44617797E-06
  -6.64999988E-03   5.53328437E-06
  -6.59999996E-03   5.62141759E-06
  -6.55000005E-03   5.71057944E-06
  -6.50000013E-03   5.80077085E-06
  -6.45000022E-03   5.89199226E-06
  -6.39999984E-03   5.98424549E-06
  -6.34999992E-03   6.07753327E-06
  -6.30000001E-03   6.17186015E-06
  -6.25000009E-03   6.26723067E-06
  -6.20000018E-03   6.36364985E-06
  -6.14999980E-03   6.46111948E-06
  -6.09999988E-03   6.55963913E-06
  -6.04999997E-03   6.65920743E-06
  -6.00000005E-03   6.75982164E-06
  -5.95000014E-03   6.86147951E-06
  -5.90000022E-03   6.96418010E-06
  -5.84999984E-03   7.06792662E-06
  -5.79999993E-03   7.17272133E-06
  -5.75000001E-03   7.27856650E-06
  -5.70000010E-03   7.38546260E-06
  -5.65000018E-03   7.49340688E-06
  -5.59999980E-03   7.60239436E-06
  -5.54999989E-03   7.71241866E-06
  -5.49999997E-03   7.82347524E-06
  -5.45000006E-03   7.93555955E-06
  -5.40000014E-03   8.04866977E-06
  -5.35000023E-03   8.16280408E-06
  -5.29999984E-03   8.27796430E-06
  -5.24999993E-03   8.39414679E-06
  -5.20000001E-03   8.51134610E-06
  -5.15000010E-03   8.62955221E-06
  -5.10000018E-03   8.74875514E-06
  -5.04999980E-03   8.86894486E-06
  -4.99999989E-03   8.99011138E-06
  -4.94999997E-03   9.11224924E-06
  -4.90000006E-03   9.23535299E-06
  -4.85000014E-03   9.35941898E-06
  -4.80000023E-03   9.48443994E-06
  -4.74999985E-03   9.61040587E-06
  -4.69999993E-03   9.73730494E-06
  -4.65000002E-03   9.86512077E-06
  -4.60000010E-03   9.99383792E-06
  -4.55000019E-03   1.01234418E-05
  -4.49999981E-03   1.02539216E-05
  -4.44999989E-03   1.03852653E-05
  -4.39999998E-03   1.05174659E-05
  -4.35000006E-03   1.06505122E-05
  -4.30000015E-03   1.07843880E-05
  -4.25000023E-03   1.09190787E-05
  -4.19999985E-03   1.10545616E-05
  -4.14999994E-03   1.11908148E-05
  -4.10000002E-03   1.13278174E-05
  -4.05000011E-03   1.14655504E-05
  -4.00000019E-03   1.16039982E-05
  -3.94999981E-03   1.17431446E-05
  -3.89999989E-03   1.18829730E-05
  -3.84999998E-03   1.20234654E-05
  -3.80000006E-03   1.21645971E-05
  -3.74999992E-03   1.23063428E-05
  -3.70000000E-03   1.24486705E-05
  -3.65000009E-03   1.25915531E-05
  -3.59999994E-03   1.27349631E-05
  -3.55000002E-03   1.28788779E-05
  -3.50000011E-03   1.30232747E-05
  -3.44999996E-03   1.31681336E-05
  -3.40000005E-03   1.33134263E-05
  -3.34999990E-03   1.34591255E-05
  -3.29999998E-03   1.36051958E-05
  -3.25000007E-03   1.37516008E-05
  -3.19999992E-03   1.38983032E-05
  -3.15000000E-03   1.40452676E-05
  -3.10000009E-03   1.41924620E-05
  -3.04999994E-03   1.43398574E-05
  -3.00000003E-03   1.44874239E-05
  -2.95000011E-03   1.46351294E-05
  -2.89999996E-03   1.47829378E-05
  -2.85000005E-03   1.49308080E-05
  -2.79999990E-03   1.50786937E-05
  -2.74999999E-03   1.52265493E-05
  -2.70000007E-03   1.53743276E-05
  -2.64999992E-03   1.55219877E-05
  -2.60000001E-03   1.56694914E-05
  -2.55000009E-03   1.58168004E-05
  -2.49999994E-03   1.59638785E-05
  -2.45000003E-03   1.61106782E-05
  -2.40000011E-03   1.62571505E-05
  -2.34999997E-03   1.64032408E-05
  -2.30000005E-03   1.65488909E-05
  -2.24999990E-03   1.66940499E-05
  -2.19999999E-03   1.68386632E-05
  -2.15000007E-03   1.69826817E-05
  -2.09999993E-03   1.71260599E-05
  -2.05000001E-03   1.72687505E-05
  -2.00000009E-03   1.74107026E-05
  -1.94999995E-03   1.75518544E-05
  -1.90000003E-03   1.76921458E-05
  -1.85000000E-03   1.78315076E-05
  -1.79999997E-03   1.79698764E-05
  -1.75000005E-03   1.81071864E-05
  -1.70000002E-03   1.82433778E-05
  -1.64999999E-03   1.83783941E-05
  -1.59999996E-03   1.85121808E-05
  -1.55000004E-03   1.86446759E-05
  -1.50000001E-03   1.87758087E-05
  -1.44999998E-03   1.89055118E-05
  -1.39999995E-03   1.90337032E-05
  -1.35000004E-03   1.91603067E-05
  -1.30000000E-03   1.92852458E-05
  -1.24999997E-03   1.94084496E-05
  -1.20000006E-03   1.95298508E-05
  -1.15000003E-03   1.96493802E-05
  -1.09999999E-03   1.97669724E-05
  -1.04999996E-03   1.98825492E-05
  -1.00000005E-03   1.99960250E-05
  -9.50000016E-04   2.01073162E-05
  -8.99999985E-04   2.02163319E-05
  -8.50000011E-04   2.03229847E-05
  -7.99999980E-04   2.04271873E-05
  -7.50000007E-04   2.05288652E-05
  -6.99999975E-04   2.06279383E-05
  -6.50000002E-04   2.07243284E-05
  -6.00000028E-04   2.08179517E-05
  -5.49999997E-04   2.09087102E-05
  -5.00000024E-04   2.09965092E-05
  -4.49999992E-04   2.10812414E-05
  -3.99999990E-04   2.11628139E-05
  -3.49999988E-04   2.12411232E-05
  -3.00000014E-04   2.13160802E-05
  -2.50000012E-04   2.13875974E-05
  -1.99999995E-04   2.14555876E-05
  -1.50000007E-04   2.15199489E-05
  -9.99999975E-05   2.15805831E-05
  -4.99999987E-05   2.16373792E-05
   0.00000000       2.16902245E-05
   4.99999987E-05   2.17390043E-05
   9.99999975E-05   2.17836132E-05
   1.50000007E-04   2.18239456E-05
   1.99999995E-04   2.18598998E-05
   2.50000012E-04   2.18913774E-05
   3.00000014E-04   2.19182748E-05
   3.49999988E-04   2.19404810E-05
   3.99999990E-04   2.19578706E-05
   4.49999992E-04   2.19703252E-05
   5.00000024E-04   2.19777139E-05
   5.49999997E-04   2.19799185E-05
   6.00000028E-04   2.19768244E-05
   6.50000002E-04   2.19683152E-05
   6.99999975E-04   2.19542853E-05
   7.50000007E-04   2.19346184E-05
   7.99999980E-04   2.19091926E-05
   8.50000011E-04   2.18778823E-05
   8.99999985E-04   2.18405494E-05
   9.50000016E-04   2.17970610E-05
   1.00000005E-03   2.17472789E-05
   1.04999996E-03   2.16910757E-05
   1.09999999E-03   2.16283297E-05
   1.15000003E-03   2.15589207E-05
   1.20000006E-03   2.14827232E-05
   1.24999997E-03   2.13996173E-05
   1.30000000E-03   2.13094609E-05
   1.35000004E-03   2.12121085E-05
   1.39999995E-03   2.11074148E-05
   1.44999998E-03   2.09952341E-05
   1.50000001E-03   2.08754282E-05
   1.55000004E-03   2.07478643E-05
   1.59999996E-03   2.06124150E-05
   1.64999999E-03   2.04689495E-05
   1.70000002E-03   2.03173349E-05
   1.75000005E-03   2.01574221E-05
   1.79999997E-03   1.99890601E-05
   1.85000000E-03   1.98120943E-05
   1.90000003E-03   1.96263718E-05
   1.94999995E-03   1.94317417E-05
   2.00000009E-03   1.92280640E-05
   2.05000001E-03   1.90151968E-05
   2.09999993E-03   1.87930036E-05
   2.15000007E-03   1.85613462E-05
   2.19999999E-03   1.83200791E-05
   2.24999990E-03   1.80690440E-05
   2.30000005E-03   1.78080772E-05
   2.34999997E-03   1.75370224E-05
   2.40000011E-03   1.72557156E-05
   2.45000003E-03   1.69640116E-05
   2.49999994E-03   1.66617610E-05
   2.55000009E-03   1.63488257E-05
   2.60000001E-03   1.60250602E-05
   2.64999992E-03   1.56903134E-05
   2.70000007E-03   1.53444271E-05
   2.74999999E-03   1.49872385E-05
   2.79999990E-03   1.46185812E-05