  -3.99999991E-02   0.00000000    
  -3.99499983E-02   0.00000000    
  -3.99000011E-02  -4.00957615E-14
  -3.98500003E-02  -3.04358020E-13
  -3.97999994E-02  -1.22963608E-12
  -3.97499986E-02  -3.49968253E-12
  -3.97000015E-02  -7.83002222E-12
  -3.96500006E-02  -1.46091490E-11
  -3.95999998E-02  -2.36018600E-11
  -3.95499989E-02  -3.39150340E-11
  -3.95000018E-02  -4.43114920E-11
  -3.94500010E-02  -5.38358594E-11
  -3.94000001E-02  -6.25960464E-11
  -3.93499993E-02  -7.23798035E-11
  -3.92999984E-02  -8.66605468E-11
  -3.92500013E-02  -1.09687044E-10
  -3.92000005E-02  -1.44849327E-10
  -3.91499996E-02  -1.93085978E-10
  -3.90999988E-02  -2.52252524E-10
  -3.90500017E-02  -3.17889048E-10
  -3.90000008E-02  -3.85038529E-10
  -3.89500000E-02  -4.50261800E-10
  -3.88999991E-02  -5.13045439E-10
  -3.88499983E-02  -5.76191983E-10
  -3.88000011E-02  -6.45138498E-10
  -3.87500003E-02  -7.26365801E-10
  -3.86999995E-02  -8.25279289E-10
  -3.86499986E-02  -9.44194167E-10
  -3.86000015E-02  -1.08111387E-09
  -3.85500006E-02  -1.22967803E-09
  -3.84999998E-02  -1.38017775E-09
  -3.84499989E-02  -1.52135438E-09
  -3.84000018E-02  -1.64290115E-09
  -3.83500010E-02  -1.73870074E-09
  -3.83000001E-02  -1.81028392E-09
  -3.82499993E-02  -1.86895255E-09
  -3.81999984E-02  -1.93445215E-09
  -3.81500013E-02  -2.02895745E-09
  -3.81000005E-02  -2.16744067E-09
  -3.80499996E-02  -2.34799669E-09
  -3.79999988E-02  -2.54687516E-09
  -3.79500017E-02  -2.72194001E-09
  -3.79000008E-02  -2.82518875E-09
  -3.78500000E-02  -2.82084245E-09
  -3.77999991E-02  -2.70194778E-09
  -3.77499983E-02  -2.49718690E-09
  -3.77000012E-02  -2.26220709E-09
  -3.76500003E-02  -2.05620720E-09
  -3.75999995E-02  -1.91241978E-09
  -3.75499986E-02  -1.81642756E-09
  -3.75000015E-02  -1.70511871E-09
  -3.74500006E-02  -1.49079726E-09
  -3.73999998E-02  -1.10269416E-09
  -3.73499990E-02  -5.27736799E-10
  -3.73000018E-02   1.70371009E-10
  -3.72500010E-02   8.67392935E-10
  -3.72000001E-02   1.42852719E-09
  -3.71499993E-02   1.77338966E-09
  -3.70999984E-02   1.92643657E-09
  -3.70500013E-02   2.02516803E-09
  -3.70000005E-02   2.27447527E-09
  -3.69499996E-02   2.86026713E-09
  -3.68999988E-02   3.85785626E-09
  -3.68500017E-02   5.17879561E-09
  -3.68000008E-02   6.58745192E-09
  -3.67500000E-02   7.78891085E-09
  -3.66999991E-02   8.55531823E-09
  -3.66499983E-02   8.83496121E-09
  -3.66000012E-02   8.78997142E-09
  -3.65500003E-02   8.73646933E-09
  -3.64999995E-02   9.00473651E-09
  -3.64499986E-02   9.77741088E-09
  -3.64000015E-02   1.09808722E-08
  -3.63500006E-02   1.22879618E-08
  -3.62999998E-02   1.32432891E-08
  -3.62499990E-02   1.34646791E-08
  -3.62000018E-02   1.28325617E-08
  -3.61500010E-02   1.15752554E-08
  -3.61000001E-02   1.01984332E-08
  -3.60499993E-02   9.27653865E-09
  -3.59999985E-02   9.19164922E-09
  -3.59500013E-02   9.93834615E-09
  -3.59000005E-02   1.10923404E-08
  -3.58499996E-02   1.19715855E-08
  -3.57999988E-02   1.19302470E-08
  -3.57500017E-02   1.06585309E-08
  -3.57000008E-02   8.34851033E-09
  -3.56500000E-02   5.63779690E-09
  -3.55999991E-02   3.34045835E-09
  -3.55499983E-02   2.07585593E-09
  -3.55000012E-02   1.96332706E-09
  -3.54500003E-02   2.53252375E-09
  -3.53999995E-02   2.90810287E-09
  -3.53499986E-02   2.20120011E-09
  -3.53000015E-02  -6.30137748E-11
  -3.52500007E-02  -3.68123643E-09
  -3.51999998E-02  -7.80719311E-09
  -3.51499990E-02  -1.12902141E-08
  -3.51000018E-02  -1.31797728E-08
  -3.50500010E-02  -1.31722748E-08
  -3.50000001E-02  -1.17885204E-08
  -3.49499993E-02  -1.01817461E-08
  -3.48999985E-02  -9.64174340E-09
  -3.48500013E-02  -1.10070157E-08
  -3.48000005E-02  -1.42535557E-08
  -3.47499996E-02  -1.84623179E-08
  -3.46999988E-02  -2.22015117E-08
  -3.46500017E-02  -2.41673277E-08
  -3.46000008E-02  -2.37981190E-08
  -3.45500000E-02  -2.15756124E-08
  -3.44999991E-02  -1.88583744E-08
  -3.44499983E-02  -1.73012911E-08
  -3.44000012E-02  -1.81079542E-08
  -3.43500003E-02  -2.14516884E-08
  -3.42999995E-02  -2.63401247E-08
  -3.42499986E-02  -3.10077120E-08
  -3.42000015E-02  -3.36806458E-08
  -3.41500007E-02  -3.33788783E-08
  -3.40999998E-02  -3.03875822E-08
  -3.40499990E-02  -2.61688164E-08
  -3.40000018E-02  -2.27346995E-08
  -3.39500010E-02  -2.17527063E-08
  -3.39000002E-02  -2.37844251E-08
  -3.38499993E-02  -2.80093477E-08
  -3.37999985E-02  -3.25734000E-08
  -3.37500013E-02  -3.54207259E-08
  -3.37000005E-02  -3.52421310E-08
  -3.36499996E-02  -3.21076890E-08
  -3.35999988E-02  -2.74809757E-08
  -3.35500017E-02  -2.35870647E-08
  -3.35000008E-02  -2.24044481E-08
  -3.34500000E-02  -2.47345326E-08
  -3.33999991E-02  -2.97798994E-08
  -3.33499983E-02  -3.54389726E-08
  -3.33000012E-02  -3.92005184E-08
  -3.32500003E-02  -3.92449664E-08
  -3.31999995E-02  -3.52585339E-08
  -3.31499986E-02  -2.85874542E-08
  -3.31000015E-02  -2.16501999E-08
  -3.30500007E-02  -1.68591860E-08
  -3.29999998E-02  -1.55306061E-08
  -3.29499990E-02  -1.72765837E-08
  -3.29000019E-02  -2.01647357E-08
  -3.28500010E-02  -2.15840643E-08
  -3.28000002E-02  -1.94311056E-08
  -3.27499993E-02  -1.30783606E-08
  -3.26999985E-02  -3.68104724E-09
  -3.26500013E-02   6.32342934E-09
  -3.26000005E-02   1.43030121E-08
  -3.25499997E-02   1.86203319E-08
  -3.24999988E-02   1.93903755E-08
  -3.24500017E-02   1.84627886E-08
  -3.24000008E-02   1.86294855E-08
  -3.23500000E-02   2.24052030E-08
  -3.22999991E-02   3.09227168E-08
  -3.22499983E-02   4.34363550E-08
  -3.22000012E-02   5.76546171E-08
  -3.21500003E-02   7.07481362E-08
  -3.20999995E-02   8.05752975E-08
  -3.20499986E-02   8.65754899E-08
  -3.20000015E-02   8.99385952E-08
  -3.19500007E-02   9.29899926E-08
  -3.18999998E-02   9.80813510E-08
  -3.18499990E-02   1.06491441E-07
  -3.18000019E-02   1.17826936E-07
  -3.17500010E-02   1.30182926E-07
  -3.17000002E-02   1.40980546E-07
  -3.16499993E-02   1.48096447E-07
  -3.15999985E-02   1.50772891E-07
  -3.15500014E-02   1.49904920E-07
  -3.15000005E-02   1.47591095E-07
  -3.14499997E-02   1.46168475E-07
  -3.13999988E-02   1.47175726E-07
  -3.13500017E-02   1.50702874E-07
  -3.13000008E-02   1.55395952E-07
  -3.12500000E-02   1.59084223E-07
  -3.11999992E-02   1.59726895E-07
  -3.11500002E-02   1.56251801E-07
  -3.10999993E-02   1.48927057E-07
  -3.10500003E-02   1.39129554E-07
  -3.09999995E-02   1.28647827E-07
  -3.09500005E-02   1.18854871E-07
  -3.08999997E-02   1.10125399E-07
  -3.08500007E-02   1.01736546E-07
  -3.07999998E-02   9.22572312E-08
  -3.07500008E-02   8.02150026E-08
  -3.07000000E-02   6.47263860E-08
  -3.06499992E-02   4.58265745E-08
  -3.06000002E-02   2.43941702E-08
  -3.05499993E-02   1.75350046E-09
  -3.05000003E-02  -2.08359570E-08
  -3.04499995E-02  -4.25783995E-08
  -3.04000005E-02  -6.32884039E-08
  -3.03499997E-02  -8.32799358E-08
  -3.03000007E-02  -1.03107674E-07
  -3.02499998E-02  -1.23311040E-07
  -3.02000009E-02  -1.44265769E-07
  -3.01500000E-02  -1.66156781E-07
  -3.00999992E-02  -1.89010180E-07
  -3.00500002E-02  -2.12704563E-07
  -2.99999993E-02  -2.36933900E-07
  -2.99500003E-02  -2.61166946E-07
  -2.98999995E-02  -2.84687843E-07
  -2.98500005E-02  -3.06776684E-07
  -2.97999997E-02  -3.26996883E-07
  -2.97500007E-02  -3.45461245E-07
  -2.96999998E-02  -3.62902824E-07
  -2.96500009E-02  -3.80434187E-07
  -2.96000000E-02  -3.99024998E-07
  -2.95499992E-02  -4.18894899E-07
  -2.95000002E-02  -4.39119106E-07
  -2.94499993E-02  -4.57707472E-07
  -2.94000003E-02  -4.72227640E-07
  -2.93499995E-02  -4.80777487E-07
  -2.93000005E-02  -4.82896723E-07
  -2.92499997E-02  -4.79959795E-07
  -2.92000007E-02  -4.74774112E-07
  -2.91499998E-02  -4.70454097E-07
  -2.91000009E-02  -4.69007517E-07
  -2.90500000E-02  -4.70267707E-07
  -2.89999992E-02  -4.71723325E-07
  -2.89500002E-02  -4.69428926E-07
  -2.88999993E-02  -4.59687499E-07
  -2.88500004E-02  -4.40790103E-07
  -2.87999995E-02  -4.13992126E-07
  -2.87500005E-02  -3.83180947E-07
  -2.86999997E-02  -3.53253512E-07
  -2.86500007E-02  -3.27841150E-07
  -2.85999998E-02  -3.07393634E-07
  -2.85500009E-02  -2.88567776E-07
  -2.85000000E-02  -2.65345051E-07
  -2.84499992E-02  -2.31524012E-07
  -2.84000002E-02  -1.83553269E-07
  -2.83499993E-02  -1.22415258E-07
  -2.83000004E-02  -5.36033973E-08
  -2.82499995E-02   1.49600439E-08
  -2.82000005E-02   7.62707515E-08
  -2.81499997E-02   1.27416243E-07
  -2.81000007E-02   1.71105583E-07
  -2.80499998E-02   2.14727379E-07
  -2.80000009E-02   2.67192320E-07
  -2.79500000E-02   3.34851904E-07
  -2.78999992E-02   4.18309241E-07
  -2.78500002E-02   5.11657618E-07
  -2.77999993E-02   6.04664024E-07
  -2.77500004E-02   6.87087834E-07
  -2.76999995E-02   7.53285974E-07
  -2.76500005E-02   8.04997455E-07
  -2.75999997E-02   8.50913864E-07
  -2.75500007E-02   9.03025864E-07
  -2.74999999E-02   9.71210511E-07
  -2.74500009E-02   1.05842685E-06
  -2.74000000E-02   1.15874582E-06
  -2.73499992E-02   1.25928534E-06
  -2.73000002E-02   1.34540335E-06
  -2.72499993E-02   1.40696545E-06
  -2.72000004E-02   1.44289163E-06
  -2.71499995E-02   1.46181208E-06
  -2.71000005E-02   1.47832804E-06
  -2.70499997E-02   1.50635833E-06
  -2.70000007E-02   1.55246300E-06
  -2.69499999E-02   1.61220055E-06
  -2.69000009E-02   1.67132339E-06
  -2.68500000E-02   1.71151544E-06
  -2.67999992E-02   1.71829129E-06
  -2.67500002E-02   1.68756446E-06
  -2.66999993E-02   1.62782544E-06
  -2.66500004E-02   1.55670079E-06
  -2.65999995E-02   1.49318032E-06
  -2.65500005E-02   1.44884882E-06
  -2.64999997E-02   1.42205818E-06
  -2.64500007E-02   1.39783924E-06
  -2.63999999E-02   1.35387006E-06
  -2.63500009E-02   1.27005308E-06
  -2.63000000E-02   1.13751742E-06
  -2.62499992E-02   9.62928425E-07
  -2.62000002E-02   7.65958418E-07
  -2.61499994E-02   5.70752661E-07
  -2.61000004E-02   3.95001564E-07
  -2.60499995E-02   2.41494405E-07
  -2.60000005E-02   9.60900266E-08
  -2.59499997E-02  -6.66807765E-08
  -2.59000007E-02  -2.72588295E-07
  -2.58499999E-02  -5.36042421E-07
  -2.58000009E-02  -8.53072493E-07
  -2.57500000E-02  -1.20229629E-06
  -2.56999992E-02  -1.55379109E-06
  -2.56500002E-02  -1.88216336E-06
  -2.55999994E-02  -2.17805268E-06
  -2.55500004E-02  -2.45284150E-06
  -2.54999995E-02  -2.73415981E-06
  -2.54500005E-02  -3.05389358E-06
  -2.53999997E-02  -3.43384386E-06
  -2.53500007E-02  -3.87543378E-06
  -2.52999999E-02  -4.35829497E-06
  -2.52500009E-02  -4.84868042E-06
  -2.52000000E-02  -5.31421529E-06
  -2.51499992E-02  -5.73853777E-06
  -2.51000002E-02  -6.12915437E-06
  -2.50499994E-02  -6.51472965E-06
  -2.50000004E-02  -6.93265929E-06
  -2.49499995E-02  -7.41221174E-06
  -2.49000005E-02  -7.96075074E-06
  -2.48499997E-02  -8.55933922E-06
  -2.48000007E-02  -9.17013131E-06
  -2.47499999E-02  -9.75251169E-06
  -2.47000009E-02  -1.02810291E-05
  -2.46500000E-02  -1.07570886E-05
  -2.45999992E-02  -1.12088719E-05
  -2.45500002E-02  -1.16791689E-05
  -2.44999994E-02  -1.22062293E-05
  -2.44500004E-02  -1.28061411E-05
  -2.43999995E-02  -1.34646998E-05
  -2.43500005E-02  -1.41427663E-05
  -2.42999997E-02  -1.47930914E-05
  -2.42500007E-02  -1.53813253E-05
  -2.41999999E-02  -1.59018127E-05
  -2.41500009E-02  -1.63808454E-05
  -2.41000000E-02  -1.68655570E-05
  -2.40499992E-02  -1.74030156E-05
  -2.40000002E-02  -1.80187271E-05
  -2.39499994E-02  -1.87042460E-05
  -2.39000004E-02  -1.94197783E-05
  -2.38499995E-02  -2.01109997E-05
  -2.38000005E-02  -2.07329376E-05
  -2.37499997E-02  -2.12703471E-05
  -2.37000007E-02  -2.17451361E-05
  -2.36499999E-02  -2.22072758E-05
  -2.36000009E-02  -2.27129258E-05
  -2.35500000E-02  -2.32992097E-05
  -2.34999992E-02  -2.39669462E-05
  -2.34500002E-02  -2.46795298E-05
  -2.33999994E-02  -2.53786420E-05
  -2.33500004E-02  -2.60101879E-05
  -2.32999995E-02  -2.65490762E-05
  -2.32500006E-02  -2.70113560E-05
  -2.31999997E-02  -2.74481190E-05
  -2.31500007E-02  -2.79234373E-05
  -2.30999999E-02  -2.84859052E-05
  -2.30500009E-02  -2.91465403E-05
  -2.30000000E-02  -2.98731829E-05
  -2.29499992E-02  -3.06043003E-05
  -2.29000002E-02  -3.12764860E-05
  -2.28499994E-02  -3.18533275E-05
  -2.28000004E-02  -3.23427121E-05
  -2.27499995E-02  -3.27946655E-05
  -2.27000006E-02  -3.32799173E-05
  -2.26499997E-02  -3.38588507E-05
  -2.26000007E-02  -3.45544649E-05
  -2.25499999E-02  -3.53417017E-05
  -2.25000009E-02  -3.61583843E-05
  -2.24500000E-02  -3.69331938E-05
  -2.23999992E-02  -3.76184871E-05
  -2.23500002E-02  -3.82129911E-05
  -2.22999994E-02  -3.87640248E-05
  -2.22500004E-02  -3.93478622E-05
  -2.21999995E-02  -4.00366880E-05
  -2.21500006E-02  -4.08667074E-05
  -2.20999997E-02  -4.18218297E-05
  -2.20500007E-02  -4.28407111E-05
  -2.19999999E-02  -4.38444404E-05
  -2.19500009E-02  -4.47725797E-05
  -2.19000001E-02  -4.56113594E-05
  -2.18499992E-02  -4.64013174E-05
  -2.18000002E-02  -4.72205429E-05
  -2.17499994E-02  -4.81505995E-05
  -2.17000004E-02  -4.92402869E-05
  -2.16499995E-02  -5.04838754E-05
  -2.16000006E-02  -5.18236156E-05
  -2.15499997E-02  -5.31756523E-05
  -2.15000007E-02  -5.44682625E-05
  -2.14499999E-02  -5.56753694E-05
  -2.14000009E-02  -5.68297983E-05
  -2.13500001E-02  -5.80102496E-05
  -2.12999992E-02  -5.93070836E-05
  -2.12500002E-02  -6.07824768E-05
  -2.11999994E-02  -6.24429304E-05
  -2.11500004E-02  -6.42360319E-05
  -2.10999995E-02  -6.60741862E-05
  -2.10500006E-02  -6.78745928E-05
  -2.09999997E-02  -6.95969720E-05
  -2.09500007E-02  -7.12628826E-05
  -2.08999999E-02  -7.29473031E-05
  -2.08500009E-02  -7.47459198E-05
  -2.08000001E-02  -7.67324964E-05
  -2.07499992E-02  -7.89257756E-05
  -2.07000002E-02  -8.12809158E-05
  -2.06499994E-02  -8.37095504E-05
  -2.06000004E-02  -8.61200024E-05
  -2.05499995E-02  -8.84595647E-05
  -2.05000006E-02  -9.07399444E-05
  -2.04499997E-02  -9.30332681E-05
  -2.04000007E-02  -9.54409697E-05
  -2.03499999E-02  -9.80493205E-05
  -2.03000009E-02  -1.00890771E-04
  -2.02500001E-02  -1.03929968E-04
  -2.01999992E-02  -1.07079475E-04
  -2.01500002E-02  -1.10239307E-04
  -2.00999994E-02  -1.13342838E-04
  -2.00500004E-02  -1.16387571E-04
  -1.99999996E-02  -1.19437755E-04
  -1.99500006E-02  -1.22596190E-04
  -1.98999997E-02  -1.25958744E-04
  -1.98500007E-02  -1.29571548E-04
  -1.97999999E-02  -1.33410242E-04
  -1.97500009E-02  -1.37391500E-04
  -1.97000001E-02  -1.41410885E-04
  -1.96499992E-02  -1.45390790E-04
  -1.96000002E-02  -1.49316897E-04
  -1.95499994E-02  -1.53245710E-04
  -1.95000004E-02  -1.57280956E-04
  -1.94499996E-02  -1.61527976E-04
  -1.94000006E-02  -1.66046637E-04
  -1.93499997E-02  -1.70825078E-04
  -1.93000007E-02  -1.75785710E-04
  -1.92499999E-02  -1.80820716E-04
  -1.92000009E-02  -1.85841476E-04
  -1.91500001E-02  -1.90820065E-04
  -1.90999992E-02  -1.95803615E-04
  -1.90500002E-02  -2.00893686E-04
  -1.89999994E-02  -2.06201381E-04
  -1.89500004E-02  -2.11798062E-04
  -1.88999996E-02  -2.17683832E-04
  -1.88500006E-02  -2.23787647E-04
  -1.87999997E-02  -2.30000529E-04
  -1.87500007E-02  -2.36226071E-04
  -1.86999999E-02  -2.42425027E-04
  -1.86500009E-02  -2.48635275E-04
  -1.86000001E-02  -2.54956278E-04
  -1.85499992E-02  -2.61505396E-04
  -1.85000002E-02  -2.68366246E-04
  -1.84499994E-02  -2.75552506E-04
  -1.84000004E-02  -2.83002708E-04
  -1.83499996E-02  -2.90609314E-04
  -1.83000006E-02  -2.98268744E-04
  -1.82499997E-02  -3.05929891E-04
  -1.82000007E-02  -3.13619035E-04
  -1.81499999E-02  -3.21430358E-04
  -1.81000009E-02  -3.29484814E-04
  -1.80500001E-02  -3.37876059E-04
  -1.79999992E-02  -3.46630026E-04
  -1.79500002E-02  -3.55693977E-04
  -1.78999994E-02  -3.64961423E-04
  -1.78500004E-02  -3.74322059E-04
  -1.77999996E-02  -3.83713777E-04
  -1.77500006E-02  -3.93152965E-04
  -1.76999997E-02  -4.02728852E-04
  -1.76500008E-02  -4.12565394E-04
  -1.75999999E-02  -4.22766927E-04
  -1.75500009E-02  -4.33372450E-04
  -1.75000001E-02  -4.44339355E-04
  -1.74499992E-02  -4.55565547E-04
  -1.74000002E-02  -4.66937723E-04
  -1.73499994E-02  -4.78385133E-04
  -1.73000004E-02  -4.89914732E-04
  -1.72499996E-02  -5.01608651E-04
  -1.72000006E-02  -5.13590174E-04
  -1.71499997E-02  -5.25968499E-04
  -1.71000008E-02  -5.38790482E-04
  -1.70499999E-02  -5.52020676E-04
  -1.70000009E-02  -5.65557799E-04
  -1.69500001E-02  -5.79284213E-04
  -1.68999992E-02  -5.93120698E-04
  -1.68500002E-02  -6.07063761E-04
  -1.67999994E-02  -6.21190586E-04
  -1.67500004E-02  -6.35625736E-04
  -1.66999996E-02  -6.50485803E-04
  -1.66500006E-02  -6.65828411E-04
  -1.65999997E-02  -6.81629579E-04
  -1.65500008E-02  -6.97794603E-04
  -1.64999999E-02  -7.14203750E-04
  -1.64500009E-02  -7.30771339E-04
  -1.64000001E-02  -7.47484853E-04
  -1.63499992E-02  -7.64412573E-04
  -1.63000003E-02  -7.81676499E-04
  -1.62499994E-02  -7.99397530E-04
  -1.62000004E-02  -8.17640394E-04
  -1.61499996E-02  -8.36388033E-04
  -1.61000006E-02  -8.55549821E-04
  -1.60499997E-02  -8.75004160E-04
  -1.60000008E-02  -8.94656929E-04
  -1.59499999E-02  -9.14486707E-04
  -1.59000009E-02  -9.34557465E-04
  -1.58500001E-02  -9.54990974E-04
  -1.57999992E-02  -9.75914707E-04
  -1.57500003E-02  -9.97405848E-04
  -1.56999994E-02  -1.01945770E-03
  -1.56500004E-02  -1.04198488E-03
  -1.55999996E-02  -1.06486678E-03
  -1.55499997E-02  -1.08800305E-03
  -1.54999997E-02  -1.11136422E-03
  -1.54499998E-02  -1.13500957E-03
  -1.53999999E-02  -1.15905935E-03
  -1.53500000E-02  -1.18364545E-03
  -1.53000001E-02  -1.20885216E-03
  -1.52500002E-02  -1.23468006E-03
  -1.52000003E-02  -1.26104755E-03
  -1.51500003E-02  -1.28782797E-03
  -1.51000004E-02  -1.31491409E-03
  -1.50499996E-02  -1.34227029E-03
  -1.49999997E-02  -1.36994978E-03
  -1.49499997E-02  -1.39807456E-03
  -1.48999998E-02  -1.42678665E-03
  -1.48499999E-02  -1.45618094E-03
  -1.48000000E-02  -1.48626522E-03
  -1.47500001E-02  -1.51696231E-03
  -1.47000002E-02  -1.54814427E-03
  -1.46500003E-02  -1.57969689E-03
  -1.46000003E-02  -1.61157642E-03
  -1.45500004E-02  -1.64383347E-03
  -1.44999996E-02  -1.67659542E-03
  -1.44499997E-02  -1.71000627E-03
  -1.43999998E-02  -1.74416439E-03
  -1.43499998E-02  -1.77908572E-03
  -1.42999999E-02  -1.81469787E-03
  -1.42500000E-02  -1.85087183E-03
  -1.42000001E-02  -1.88748934E-03
  -1.41500002E-02  -1.92450045E-03
  -1.41000003E-02  -1.96194882E-03
  -1.40500003E-02  -1.99995586E-03
  -1.40000004E-02  -2.03866907E-03
  -1.39499996E-02  -2.07819720E-03
  -1.38999997E-02  -2.11856281E-03
  -1.38499998E-02  -2.15969421E-03
  -1.37999998E-02  -2.20146566E-03
  -1.37499999E-02  -2.24375771E-03
  -1.37000000E-02  -2.28651334E-03
  -1.36500001E-02  -2.32977350E-03
  -1.36000002E-02  -2.37366417E-03
  -1.35500003E-02  -2.41833390E-03
  -1.35000004E-02  -2.46389606E-03
  -1.34500004E-02  -2.51038070E-03
  -1.33999996E-02  -2.55772262E-03
  -1.33499997E-02  -2.60579493E-03
  -1.32999998E-02  -2.65446538E-03
  -1.32499998E-02  -2.70366622E-03
  -1.31999999E-02  -2.75343098E-03
  -1.31500000E-02  -2.80388002E-03
  -1.31000001E-02  -2.85517075E-03
  -1.30500002E-02  -2.90742540E-03
  -1.30000003E-02  -2.96067377E-03
  -1.29500004E-02  -3.01485253E-03
  -1.29000004E-02  -3.06984014E-03
  -1.28499996E-02  -3.12549947E-03
  -1.27999997E-02  -3.18175461E-03
  -1.27499998E-02  -3.23864329E-03
  -1.26999998E-02  -3.29628517E-03
  -1.26499999E-02  -3.35483369E-03
  -1.26000000E-02  -3.41441459E-03
  -1.25500001E-02  -3.47506255E-03
  -1.25000002E-02  -3.53672006E-03
  -1.24500003E-02  -3.59925698E-03
  -1.24000004E-02  -3.66253033E-03
  -1.23500004E-02  -3.72646214E-03
  -1.22999996E-02  -3.79106472E-03
  -1.22499997E-02  -3.85644496E-03
  -1.21999998E-02  -3.92276328E-03
  -1.21499998E-02  -3.99015378E-03
  -1.20999999E-02  -4.05866327E-03
  -1.20500000E-02  -4.12822980E-03
  -1.20000001E-02  -4.19871230E-03
  -1.19500002E-02  -4.26996406E-03
  -1.19000003E-02  -4.34190268E-03
  -1.18500004E-02  -4.41453746E-03
  -1.18000004E-02  -4.48797410E-03
  -1.17499996E-02  -4.56237281E-03
  -1.16999997E-02  -4.63787187E-03
  -1.16499998E-02  -4.71453695E-03
  -1.15999999E-02  -4.79232334E-03
  -1.15499999E-02  -4.87108622E-03
  -1.15000000E-02  -4.95065702E-03
  -1.14500001E-02  -5.03092073E-03
  -1.14000002E-02  -5.11186477E-03
  -1.13500003E-02  -5.19357855E-03
  -1.13000004E-02  -5.27621247E-03
  -1.12500004E-02  -5.35992486E-03
  -1.11999996E-02  -5.44479676E-03
  -1.11499997E-02  -5.53077273E-03
  -1.10999998E-02  -5.61770797E-03
  -1.10499999E-02  -5.70545020E-03
  -1.09999999E-02  -5.79386763E-03
  -1.09500000E-02  -5.88293327E-03
  -1.09000001E-02  -5.97275142E-03
  -1.08500002E-02  -6.06349204E-03
  -1.08000003E-02  -6.15531206E-03
  -1.07500004E-02  -6.24828786E-03
  -1.07000005E-02  -6.34238683E-03
  -1.06499996E-02  -6.43746089E-03
  -1.05999997E-02  -6.53330190E-03
  -1.05499998E-02  -6.62975153E-03
  -1.04999999E-02  -6.72676740E-03
  -1.04499999E-02  -6.82443334E-03
  -1.04000000E-02  -6.92290440E-03
  -1.03500001E-02  -7.02233054E-03
  -1.03000002E-02  -7.12282117E-03
  -1.02500003E-02  -7.22435769E-03
  -1.02000004E-02  -7.32679432E-03
  -1.01500005E-02  -7.42994994E-03
  -1.00999996E-02  -7.53364852E-03
  -1.00499997E-02  -7.63780298E-03
  -9.99999978E-03  -7.74246082E-03
  -9.94999986E-03  -7.84777850E-03
  -9.89999995E-03  -7.95394927E-03
  -9.85000003E-03  -8.06109980E-03
  -9.80000012E-03  -8.16921704E-03
  -9.75000020E-03  -8.27816501E-03
  -9.70000029E-03  -8.38774070E-03
  -9.65000037E-03  -8.49774480E-03
  -9.60000046E-03  -8.60806275E-03
  -9.54999961E-03  -8.71870946E-03
  -9.49999969E-03  -8.82982183E-03
  -9.44999978E-03  -8.94157588E-03
  -9.39999986E-03  -9.05409176E-03
  -9.34999995E-03  -9.16738715E-03
  -9.30000003E-03  -9.28132702E-03
  -9.25000012E-03  -9.39567108E-03
  -9.20000020E-03  -9.51019581E-03
  -9.15000029E-03  -9.62478854E-03
  -9.10000037E-03  -9.73946322E-03
  -9.05000046E-03  -9.85432882E-03
  -8.99999961E-03  -9.96956602E-03
  -8.94999970E-03  -1.00853220E-02
  -8.89999978E-03  -1.02016339E-02
  -8.84999987E-03  -1.03183892E-02
  -8.79999995E-03  -1.04353577E-02
  -8.75000004E-03  -1.05523132E-02
  -8.70000012E-03  -1.06691066E-02
  -8.65000021E-03  -1.07856989E-02
  -8.60000029E-03  -1.09021626E-02
  -8.55000038E-03  -1.10186674E-02
  -8.50000046E-03  -1.11353537E-02
  -8.44999962E-03  -1.12522412E-02
  -8.39999970E-03  -1.13692209E-02
  -8.34999979E-03  -1.14860870E-02
  -8.29999987E-03  -1.16025899E-02
  -8.24999996E-03  -1.17185526E-02
  -8.20000004E-03  -1.18339118E-02
  -8.15000013E-03  -1.19487010E-02
  -8.10000021E-03  -1.20630655E-02
  -8.05000030E-03  -1.21771377E-02
  -8.00000038E-03  -1.22909537E-02
  -7.95000046E-03  -1.24044167E-02
  -7.89999962E-03  -1.25173423E-02
  -7.84999970E-03  -1.26295136E-02
  -7.79999979E-03  -1.27407322E-02
  -7.74999987E-03  -1.28508694E-02
  -7.69999996E-03  -1.29599404E-02
  -7.65000004E-03  -1.30680995E-02
  -7.60000013E-03  -1.31754745E-02
  -7.55000021E-03  -1.32820969E-02
  -7.49999983E-03  -1.33878822E-02
  -7.44999992E-03  -1.34926448E-02
  -7.40000000E-03  -1.35961268E-02
  -7.35000009E-03  -1.36980498E-02
  -7.30000017E-03  -1.37982583E-02
  -7.24999979E-03  -1.38967605E-02
  -7.19999988E-03  -1.39936674E-02
  -7.14999996E-03  -1.40891261E-02
  -7.10000005E-03  -1.41832028E-02
  -7.05000013E-03  -1.42758070E-02
  -7.00000022E-03  -1.43667227E-02
  -6.94999984E-03  -1.44556686E-02
  -6.89999992E-03  -1.45424064E-02
  -6.85000001E-03  -1.46267740E-02
  -6.80000009E-03  -1.47087183E-02
  -6.75000018E-03  -1.47883249E-02
  -6.69999979E-03  -1.48656992E-02
  -6.64999988E-03  -1.49408784E-02
  -6.59999996E-03  -1.50137609E-02
  -6.55000005E-03  -1.50841456E-02
  -6.50000013E-03  -1.51517959E-02
  -6.45000022E-03  -1.52164437E-02
  -6.39999984E-03  -1.52779669E-02
  -6.34999992E-03  -1.53363608E-02
  -6.30000001E-03  -1.53916506E-02
  -6.25000009E-03  -1.54438643E-02
  -6.20000018E-03  -1.54929478E-02
  -6.14999980E-03  -1.55388210E-02
  -6.09999988E-03  -1.55812940E-02
  -6.04999997E-03  -1.56200863E-02
  -6.00000005E-03  -1.56549867E-02
  -5.95000014E-03  -1.56858526E-02
  -5.90000022E-03  -1.57126132E-02
  -5.84999984E-03  -1.57352481E-02
  -5.79999993E-03  -1.57537423E-02
  -5.75000001E-03  -1.57680735E-02
  -5.70000010E-03  -1.57781485E-02
  -5.65000018E-03  -1.57837570E-02
  -5.59999980E-03  -1.57846585E-02
  -5.54999989E-03  -1.57806352E-02
  -5.49999997E-03  -1.57714672E-02
  -5.45000006E-03  -1.57570243E-02
  -5.40000014E-03  -1.57372914E-02
  -5.35000023E-03  -1.57122742E-02
  -5.29999984E-03  -1.56819634E-02
  -5.24999993E-03  -1.56462975E-02
  -5.20000001E-03  -1.56050678E-02
  -5.15000010E-03  -1.55579979E-02
  -5.10000018E-03  -1.55048603E-02
  -5.04999980E-03  -1.54454401E-02
  -4.99999989E-03  -1.53795863E-02
  -4.94999997E-03  -1.53071936E-02
  -4.90000006E-03  -1.52282016E-02
  -4.85000014E-03  -1.51425814E-02
  -4.80000023E-03  -1.50502687E-02
  -4.74999985E-03  -1.49510428E-02
  -4.69999993E-03  -1.48446467E-02
  -4.65000002E-03  -1.47308065E-02
  -4.60000010E-03  -1.46092419E-02
  -4.55000019E-03  -1.44797312E-02
  -4.49999981E-03  -1.43421767E-02
  -4.44999989E-03  -1.41967246E-02
  -4.39999998E-03  -1.40433721E-02
  -4.35000006E-03  -1.38819274E-02
  -4.30000015E-03  -1.37121277E-02
  -4.25000023E-03  -1.35336043E-02
  -4.19999985E-03  -1.33460574E-02
  -4.14999994E-03  -1.31492289E-02
  -4.10000002E-03  -1.29430406E-02
  -4.05000011E-03  -1.27275074E-02
  -4.00000019E-03  -1.25026042E-02
  -3.94999981E-03  -1.22683132E-02
  -3.89999989E-03  -1.20244436E-02
  -3.84999998E-03  -1.17706778E-02
  -3.80000006E-03  -1.15066627E-02
  -3.74999992E-03  -1.12320380E-02
  -3.70000000E-03  -1.09465085E-02
  -3.65000009E-03  -1.06499121E-02
  -3.59999994E-03  -1.03422198E-02
  -3.55000002E-03  -1.00234207E-02
  -3.50000011E-03  -9.69357044E-03
  -3.44999996E-03  -9.35249683E-03
  -3.40000005E-03  -8.99983384E-03
  -3.34999990E-03  -8.63520335E-03
  -3.29999998E-03  -8.25815555E-03
  -3.25000007E-03  -7.86843244E-03
  -3.19999992E-03  -7.46595161E-03
  -3.15000000E-03  -7.05068652E-03
  -3.10000009E-03  -6.62271911E-03
  -3.04999994E-03  -6.18206616E-03
  -3.00000003E-03  -5.72845852E-03
  -2.95000011E-03  -5.26154973E-03
  -2.89999996E-03  -4.78099706E-03
  -2.85000005E-03  -4.28638514E-03
  -2.79999990E-03  -3.77733167E-03
  -2.74999999E-03  -3.25365644E-03
  -2.70000007E-03  -2.71533011E-03
  -2.64999992E-03  -2.16235290E-03
  -2.60000001E-03  -1.59479212E-03
  -2.55000009E-03  -1.01260305E-03
  -2.49999994E-03  -4.15476912E-04
  -2.45000003E-03   1.97093977E-04
  -2.40000011E-03   8.25653318E-04
  -2.34999997E-03   1.47057592E-03
  -2.30000005E-03   2.13211053E-03
  -2.24999990E-03   2.81028403E-03
  -2.19999999E-03   3.50489328E-03
  -2.15000007E-03   4.21573455E-03
  -2.09999993E-03   4.94289212E-03
  -2.05000001E-03   5.68683818E-03
  -2.00000009E-03   6.44808961E-03
  -1.94999995E-03   7.22714141E-03
  -1.90000003E-03   8.02436285E-03
  -1.85000000E-03   8.83998070E-03
  -1.79999997E-03   9.67394002E-03
  -1.75000005E-03   1.05259670E-02
  -1.70000002E-03   1.13959797E-02
  -1.64999999E-03   1.22840516E-02
  -1.59999996E-03   1.31905628E-02
  -1.55000004E-03   1.41161317E-02
  -1.50000001E-03   1.50613748E-02
  -1.44999998E-03   1.60266813E-02
  -1.39999995E-03   1.70121640E-02
  -1.35000004E-03   1.80177931E-02
  -1.30000000E-03   1.90433580E-02
  -1.24999997E-03   2.00886428E-02
  -1.20000006E-03   2.11536214E-02
  -1.15000003E-03   2.22385786E-02
  -1.09999999E-03   2.33441535E-02
  -1.04999996E-03   2.44711060E-02
  -1.00000005E-03   2.56198924E-02
  -9.50000016E-04   2.67907307E-02
  -8.99999985E-04   2.79834028E-02
  -8.50000011E-04   2.91974787E-02
  -7.99999980E-04   3.04326452E-02
  -7.50000007E-04   3.16888355E-02
  -6.99999975E-04   3.29664871E-02
  -6.50000002E-04   3.42662223E-02
  -6.00000028E-04   3.55887711E-02
  -5.49999997E-04   3.69347148E-02
  -5.00000024E-04   3.83041762E-02
  -4.49999992E-04   3.96969058E-02
  -3.99999990E-04   4.11125049E-02
  -3.49999988E-04   4.25505191E-02
  -3.00000014E-04   4.40109149E-02
  -2.50000012E-04   4.54940833E-02
  -1.99999995E-04   4.70006913E-02
  -1.50000007E-04   4.85315546E-02
  -9.99999975E-05   5.00871502E-02
  -4.99999987E-05   5.16675711E-02
   0.00000000       5.32724671E-02
   4.99999987E-05   5.49012572E-02
   9.99999975E-05   5.65534867E-02
   1.50000007E-04   5.82290590E-02
   1.99999995E-04   5.99283427E-02
   2.50000012E-04   6.16519935E-02
   3.00000014E-04   6.34007379E-02
   3.49999988E-04   6.51751831E-02
   3.99999990E-04   6.69753999E-02
   4.49999992E-04   6.88009858E-02
   5.00000024E-04   7.06512779E-02
   5.49999997E-04   7.25257471E-02
   6.00000028E-04   7.44242668E-02
   6.50000002E-04   7.63468966E-02
   6.99999975E-04   7.82941952E-02
   7.50000007E-04   8.02670568E-02
   7.99999980E-04   8.22661519E-02
   8.50000011E-04   8.42917562E-02
   8.99999985E-04   8.63435268E-02
   9.50000016E-04   8.84207338E-02
   1.00000005E-03   9.05225128E-02
   1.04999996E-03   9.26483646E-02
   1.09999999E-03   9.47982892E-02
   1.15000003E-03   9.69728678E-02
   1.20000006E-03   9.91730168E-02
   1.24999997E-03  0.101399437    
   1.30000000E-03  0.103652507    
   1.35000004E-03  0.105931886    
   1.39999995E-03  0.108236633    
   1.44999998E-03  0.110565722    
   1.50000001E-03  0.112918444    
   1.55000004E-03  0.115294673    
   1.59999996E-03  0.117694952    
   1.64999999E-03  0.120120175    
   1.70000002E-03  0.122571185    
   1.75000005E-03  0.125048429    
   1.79999997E-03  0.127551600    
   1.85000000E-03  0.130079553    
   1.90000003E-03  0.132631063    
   1.94999995E-03  0.135205314    
   2.00000009E-03  0.137802050    
   2.05000001E-03  0.140421569    
   2.09999993E-03  0.143064544    
   2.15000007E-03  0.145731911    
   2.19999999E-03  0.148424283    
   2.24999990E-03  0.151141480    
   2.30000005E-03  0.153882474    
   2.34999997E-03  0.156645790    
   2.40000011E-03  0.159430444    
   2.45000003E-03  0.162235931    
   2.49999994E-03  0.165062219    
   2.55000009E-03  0.167909890    
   2.60000001E-03  0.170779899    
   2.64999992E-03  0.173672974    
   2.70000007E-03  0.176589012    
   2.74999999E-03  0.179526895    
   2.79999990E-03  0.182485104    