  -3.99999991E-02   0.00000000    
  -3.99499983E-02   0.00000000    
  -3.99000011E-02   0.00000000    
  -3.98500003E-02   0.00000000    
  -3.97999994E-02   0.00000000    
  -3.97499986E-02  -2.45680619E-22
  -3.97000015E-02  -2.97474101E-21
  -3.96500006E-02  -1.88398317E-20
  -3.95999998E-02  -8.26090802E-20
  -3.95499989E-02  -2.80576252E-19
  -3.95000018E-02  -7.83770381E-19
  -3.94500010E-02  -1.86829288E-18
  -3.94000001E-02  -3.89535191E-18
  -3.93499993E-02  -7.23112110E-18
  -3.92999984E-02  -1.21177998E-17
  -3.92500013E-02  -1.85539854E-17
  -3.92000005E-02  -2.62772318E-17
  -3.91499996E-02  -3.49286973E-17
  -3.90999988E-02  -4.44001304E-17
  -3.90500017E-02  -5.52391709E-17
  -3.90000008E-02  -6.88869661E-17
  -3.89500000E-02  -8.75236894E-17
  -3.88999991E-02  -1.13445227E-16
  -3.88499983E-02  -1.48148471E-16
  -3.88000011E-02  -1.91539785E-16
  -3.87500003E-02  -2.41751435E-16
  -3.86999995E-02  -2.95857703E-16
  -3.86499986E-02  -3.51358902E-16
  -3.86000015E-02  -4.07821059E-16
  -3.85500006E-02  -4.67779133E-16
  -3.84999998E-02  -5.36149621E-16
  -3.84499989E-02  -6.18004397E-16
  -3.84000018E-02  -7.15420439E-16
  -3.83500010E-02  -8.24828667E-16
  -3.83000001E-02  -9.36387300E-16
  -3.82499993E-02  -1.03619817E-15
  -3.81999984E-02  -1.11087556E-15
  -3.81500013E-02  -1.15265567E-15
  -3.81000005E-02  -1.16261572E-15
  -3.80499996E-02  -1.15009350E-15
  -3.79999988E-02  -1.12796222E-15
  -3.79500017E-02  -1.10538191E-15
  -3.79000008E-02  -1.08108551E-15
  -3.78500000E-02  -1.04039162E-15
  -3.77999991E-02  -9.57736554E-16
  -3.77499983E-02  -8.04071066E-16
  -3.77000012E-02  -5.56076071E-16
  -3.76500003E-02  -2.03006944E-16
  -3.75999995E-02   2.52186219E-16
  -3.75499986E-02   7.98252373E-16
  -3.75000015E-02   1.42521997E-15
  -3.74500006E-02   2.13370945E-15
  -3.73999998E-02   2.93949084E-15
  -3.73499990E-02   3.87087916E-15
  -3.73000018E-02   4.95973747E-15
  -3.72500010E-02   6.22963510E-15
  -3.72000001E-02   7.68578977E-15
  -3.71499993E-02   9.31053195E-15
  -3.70999984E-02   1.10656300E-14
  -3.70500013E-02   1.29002381E-14
  -3.70000005E-02   1.47615921E-14
  -3.69499996E-02   1.66054406E-14
  -3.68999988E-02   1.84042031E-14
  -3.68500017E-02   2.01518879E-14
  -3.68000008E-02   2.18649290E-14
  -3.67500000E-02   2.35775771E-14
  -3.66999991E-02   2.53300968E-14
  -3.66499983E-02   2.71497014E-14
  -3.66000012E-02   2.90278327E-14
  -3.65500003E-02   3.09018151E-14
  -3.64999995E-02   3.26509890E-14
  -3.64499986E-02   3.41144451E-14
  -3.64000015E-02   3.51289534E-14
  -3.63500006E-02   3.55746045E-14
  -3.62999998E-02   3.54074883E-14
  -3.62499990E-02   3.46593414E-14
  -3.62000018E-02   3.33957715E-14
  -3.61500010E-02   3.16451136E-14
  -3.61000001E-02   2.93296440E-14
  -3.60499993E-02   2.62390953E-14
  -3.59999985E-02   2.20746256E-14
  -3.59500013E-02   1.65606749E-14
  -3.59000005E-02   9.58400500E-15
  -3.58499996E-02   1.29315800E-15
  -3.57999988E-02  -7.90535426E-15
  -3.57500017E-02  -1.74799970E-14
  -3.57000008E-02  -2.70011115E-14
  -3.56500000E-02  -3.63698092E-14
  -3.55999991E-02  -4.59342105E-14
  -3.55499983E-02  -5.64098498E-14
  -3.55000012E-02  -6.86018354E-14
  -3.54500003E-02  -8.30251327E-14
  -3.53999995E-02  -9.95900614E-14
  -3.53499986E-02  -1.17519641E-13
  -3.53000015E-02  -1.35580783E-13
  -3.52500007E-02  -1.52569119E-13
  -3.51999998E-02  -1.67849092E-13
  -3.51499990E-02  -1.81688649E-13
  -3.51000018E-02  -1.95185678E-13
  -3.50500010E-02  -2.09753046E-13
  -3.50000001E-02  -2.26344740E-13
  -3.49499993E-02  -2.44765742E-13
  -3.48999985E-02  -2.63424780E-13
  -3.48500013E-02  -2.79728172E-13
  -3.48000005E-02  -2.91028811E-13
  -3.47499996E-02  -2.95755906E-13
  -3.46999988E-02  -2.94203111E-13
  -3.46500017E-02  -2.88540107E-13
  -3.46000008E-02  -2.81928398E-13
  -3.45500000E-02  -2.77042576E-13
  -3.44999991E-02  -2.74633154E-13
  -3.44499983E-02  -2.72834381E-13
  -3.44000012E-02  -2.67654741E-13
  -3.43500003E-02  -2.54568881E-13
  -3.42999995E-02  -2.30580610E-13
  -3.42499986E-02  -1.95813404E-13
  -3.42000015E-02  -1.53790609E-13
  -3.41500007E-02  -1.10098095E-13
  -3.40999998E-02  -6.98734487E-14
  -3.40499990E-02  -3.51972479E-14
  -3.40000018E-02  -3.64998271E-15
  -3.39500010E-02   3.11071461E-14
  -3.39000002E-02   7.67458064E-14
  -3.38499993E-02   1.38673483E-13
  -3.37999985E-02   2.17037109E-13
  -3.37500013E-02   3.05844434E-13
  -3.37000005E-02   3.94884077E-13
  -3.36499996E-02   4.73854951E-13
  -3.35999988E-02   5.36985333E-13
  -3.35500017E-02   5.85985037E-13
  -3.35000008E-02   6.29733787E-13
  -3.34500000E-02   6.80495428E-13
  -3.33999991E-02   7.48095921E-13
  -3.33499983E-02   8.34639974E-13
  -3.33000012E-02   9.32363561E-13
  -3.32500003E-02   1.02599353E-12
  -3.31999995E-02   1.09896771E-12
  -3.31499986E-02   1.14094595E-12
  -3.31000015E-02   1.15315060E-12
  -3.30500007E-02   1.14875178E-12
  -3.29999998E-02   1.14759103E-12
  -3.29499990E-02   1.16717150E-12
  -3.29000019E-02   1.21382353E-12
  -3.28500010E-02   1.27826070E-12
  -3.28000002E-02   1.33807624E-12
  -3.27499993E-02   1.36667273E-12
  -3.26999985E-02   1.34501340E-12
  -3.26500013E-02   1.27089767E-12
  -3.26000005E-02   1.16114139E-12
  -3.25499997E-02   1.04498658E-12
  -3.24999988E-02   9.51080143E-13
  -3.24500017E-02   8.93630113E-13
  -3.24000008E-02   8.64248451E-13
  -3.23500000E-02   8.33874582E-13
  -3.22999991E-02   7.64776426E-13
  -3.22499983E-02   6.27837463E-13
  -3.22000012E-02   4.17397887E-13
  -3.21500003E-02   1.56387598E-13
  -3.20999995E-02  -1.11549150E-13
  -3.20499986E-02  -3.40370012E-13
  -3.20000015E-02  -5.02657865E-13
  -3.19500007E-02  -6.03673741E-13
  -3.18999998E-02  -6.81229433E-13
  -3.18499990E-02  -7.90253822E-13
  -3.18000019E-02  -9.78051299E-13
  -3.17500010E-02  -1.26112283E-12
  -3.17000002E-02  -1.61456742E-12
  -3.16499993E-02  -1.98003810E-12
  -3.15999985E-02  -2.28996835E-12
  -3.15500014E-02  -2.49794976E-12
  -3.15000005E-02  -2.60145312E-12
  -3.14499997E-02  -2.64562786E-12
  -3.13999988E-02  -2.70493502E-12
  -3.13500017E-02  -2.84955826E-12
  -3.13000008E-02  -3.11121701E-12
  -3.12500000E-02  -3.46439435E-12
  -3.11999992E-02  -3.83296910E-12
  -3.11500002E-02  -4.12105332E-12
  -3.10999993E-02  -4.25540679E-12
  -3.10500003E-02  -4.22044864E-12
  -3.09999995E-02  -4.06896912E-12
  -3.09500005E-02  -3.90180032E-12
  -3.08999997E-02  -3.82374471E-12
  -3.08500007E-02  -3.89465500E-12
  -3.07999998E-02  -4.09814934E-12
  -3.07500008E-02  -4.34373934E-12
  -3.07000000E-02  -4.50362534E-12
  -3.06499992E-02  -4.46931164E-12
  -3.06000002E-02  -4.20294225E-12
  -3.05499993E-02  -3.75906337E-12
  -3.05000003E-02  -3.26470860E-12
  -3.04499995E-02  -2.86437931E-12
  -3.04000005E-02  -2.65328905E-12
  -3.03499997E-02  -2.62925250E-12
  -3.03000007E-02  -2.68687611E-12
  -3.02499998E-02  -2.65952234E-12
  -3.02000009E-02  -2.39261996E-12
  -3.01500000E-02  -1.81626654E-12
  -3.00999992E-02  -9.83363131E-13
  -3.00500002E-02  -5.34482228E-14
  -2.99999993E-02   7.73624925E-13
  -2.99500003E-02   1.34647133E-12
  -2.98999995E-02   1.63363984E-12
  -2.98500005E-02   1.74363421E-12
  -2.97999997E-02   1.88121502E-12
  -2.97500007E-02   2.25652851E-12
  -2.96999998E-02   2.98644941E-12
  -2.96500009E-02   4.03341987E-12
  -2.96000000E-02   5.21227896E-12
  -2.95499992E-02   6.26583854E-12
  -2.95000002E-02   6.97814506E-12
  -2.94499993E-02   7.27515487E-12
  -2.94000003E-02   7.26556445E-12
  -2.93499995E-02   7.19955952E-12
  -2.93000005E-02   7.35997548E-12
  -2.92499997E-02   7.93238045E-12
  -2.92000007E-02   8.91286784E-12
  -2.91499998E-02   1.00980804E-11
  -2.91000009E-02   1.11664436E-11
  -2.90500000E-02   1.18179633E-11
  -2.89999992E-02   1.19112532E-11
  -2.89500002E-02   1.15345736E-11
  -2.88999993E-02   1.09747992E-11
  -2.88500004E-02   1.05935156E-11
  -2.87999995E-02   1.06626036E-11
  -2.87500005E-02   1.12330657E-11
  -2.86999997E-02   1.20991489E-11
  -2.86500007E-02   1.28790459E-11
  -2.85999998E-02   1.31808167E-11
  -2.85500009E-02   1.27814122E-11
  -2.85000000E-02   1.17370913E-11
  -2.84499992E-02   1.03711527E-11
  -2.84000002E-02   9.13862302E-12
  -2.83499993E-02   8.42412511E-12
  -2.83000004E-02   8.36244615E-12
  -2.82499995E-02   8.76517608E-12
  -2.82000005E-02   9.19195189E-12
  -2.81499997E-02   9.14036034E-12
  -2.81000007E-02   8.27289626E-12
  -2.80499998E-02   6.57875273E-12
  -2.80000009E-02   4.39345522E-12
  -2.79500000E-02   2.26106655E-12
  -2.78999992E-02   6.95146577E-13
  -2.78500002E-02  -5.65171689E-14
  -2.77999993E-02  -1.35539678E-13
  -2.77500004E-02  -2.34589993E-14
  -2.76999995E-02  -3.34314987E-13
  -2.76500005E-02  -1.53730847E-12
  -2.75999997E-02  -3.73340161E-12
  -2.75500007E-02  -6.59023877E-12
  -2.74999999E-02  -9.47190503E-12
  -2.74500009E-02  -1.17124886E-11
  -2.74000000E-02  -1.29146841E-11
  -2.73499992E-02  -1.31383402E-11
  -2.73000002E-02  -1.28885609E-11
  -2.72499993E-02  -1.29007811E-11
  -2.72000004E-02  -1.38126646E-11
  -2.71499995E-02  -1.58678851E-11
  -2.71000005E-02  -1.87879174E-11
  -2.70499997E-02  -2.18767435E-11
  -2.70000007E-02  -2.43197025E-11
  -2.69499999E-02  -2.55478052E-11
  -2.69000009E-02  -2.55040312E-11
  -2.68500000E-02  -2.46865896E-11
  -2.67999992E-02  -2.39409846E-11
  -2.67500002E-02  -2.40859502E-11
  -2.66999993E-02  -2.55372459E-11
  -2.66500004E-02  -2.81003033E-11
  -2.65999995E-02  -3.10323052E-11
  -2.65500005E-02  -3.33554850E-11
  -2.64999997E-02  -3.42885303E-11
  -2.64500007E-02  -3.36045393E-11
  -2.63999999E-02  -3.17504426E-11
  -2.63500009E-02  -2.96651904E-11
  -2.63000000E-02  -2.83686494E-11
  -2.62499992E-02  -2.84995916E-11
  -2.62000002E-02  -3.00105912E-11
  -2.61499994E-02  -3.21636016E-11
  -2.61000004E-02  -3.38384876E-11
  -2.60499995E-02  -3.40253520E-11
  -2.60000005E-02  -3.22836445E-11
  -2.59499997E-02  -2.89589394E-11
  -2.59000007E-02  -2.50508954E-11
  -2.58499999E-02  -2.17806242E-11
  -2.58000009E-02  -2.00433350E-11
  -2.57500000E-02  -1.99903566E-11
  -2.56999992E-02  -2.09339716E-11
  -2.56500002E-02  -2.16288168E-11
  -2.55999994E-02  -2.08148047E-11
  -2.55500004E-02  -1.77846488E-11
  -2.54999995E-02  -1.27203248E-11
  -2.54500005E-02  -6.63920611E-12
  -2.53999997E-02  -9.62127405E-13
  -2.53500007E-02   3.11321672E-12
  -2.52999999E-02   5.15634410E-12
  -2.52500009E-02   5.71734804E-12
  -2.52000000E-02   6.10306120E-12
  -2.51499992E-02   7.80402999E-12
  -2.51000002E-02   1.18205922E-11
  -2.50499994E-02   1.81894864E-11
  -2.50000004E-02   2.59307940E-11
  -2.49499995E-02   3.34518975E-11
  -2.49000005E-02   3.92396740E-11
  -2.48499997E-02   4.25373244E-11
  -2.48000007E-02   4.36999742E-11
  -2.47499999E-02   4.40593846E-11
  -2.47000009E-02   4.53445267E-11
  -2.46500000E-02   4.89062957E-11
  -2.45999992E-02   5.50902240E-11
  -2.45500002E-02   6.30438687E-11
  -2.44999994E-02   7.10577916E-11
  -2.44500004E-02   7.73012973E-11
  -2.43999995E-02   8.06324382E-11
  -2.43500005E-02   8.11193127E-11
  -2.42999997E-02   8.00300451E-11
  -2.42500007E-02   7.92815050E-11
  -2.41999999E-02   8.05803826E-11
  -2.41500009E-02   8.46351669E-11
  -2.41000000E-02   9.07960443E-11
  -2.40499992E-02   9.72963862E-11
  -2.40000002E-02   1.02003579E-10
  -2.39499994E-02   1.03354915E-10
  -2.39000004E-02   1.01062735E-10
  -2.38499995E-02   9.62655441E-11
  -2.38000005E-02   9.10429718E-11
  -2.37499997E-02   8.74961492E-11
  -2.37000007E-02   8.67958552E-11
  -2.36499999E-02   8.86253362E-11
  -2.36000009E-02   9.12782350E-11
  -2.35500000E-02   9.23837951E-11
  -2.34999992E-02   8.99489302E-11
  -2.34500002E-02   8.32567071E-11
  -2.33999994E-02   7.32138516E-11
  -2.33500004E-02   6.19778673E-11
  -2.32999995E-02   5.20139348E-11
  -2.32500006E-02   4.49917846E-11
  -2.31999997E-02   4.10147090E-11
  -2.31500007E-02   3.85352236E-11
  -2.30999999E-02   3.50119100E-11
  -2.30500009E-02   2.80301251E-11
  -2.30000000E-02   1.63943043E-11
  -2.29499992E-02   7.00751848E-13
  -2.29000002E-02  -1.68783407E-11
  -2.28499994E-02  -3.35208181E-11
  -2.28000004E-02  -4.69910499E-11
  -2.27499995E-02  -5.66390268E-11
  -2.27000006E-02  -6.37083789E-11
  -2.26499997E-02  -7.07998035E-11
  -2.26000007E-02  -8.07123049E-11
  -2.25499999E-02  -9.51687479E-11
  -2.25000009E-02  -1.13995653E-10
  -2.24500000E-02  -1.35135153E-10
  -2.23999992E-02  -1.55502194E-10
  -2.23500002E-02  -1.72319894E-10
  -2.22999994E-02  -1.84344540E-10
  -2.22500004E-02  -1.92427324E-10
  -2.21999995E-02  -1.99146713E-10
  -2.21500006E-02  -2.07656753E-10
  -2.20999997E-02  -2.20251276E-10
  -2.20500007E-02  -2.37281916E-10
  -2.19999999E-02  -2.56922733E-10
  -2.19500009E-02  -2.75903828E-10
  -2.19000001E-02  -2.90904495E-10
  -2.18499992E-02  -2.99994668E-10
  -2.18000002E-02  -3.03478936E-10
  -2.17499994E-02  -3.03753855E-10
  -2.17000004E-02  -3.04223591E-10
  -2.16499995E-02  -3.07742665E-10
  -2.16000006E-02  -3.15275778E-10
  -2.15499997E-02  -3.25380306E-10
  -2.15000007E-02  -3.34759165E-10
  -2.14499999E-02  -3.39656886E-10
  -2.14000009E-02  -3.37487788E-10
  -2.13500001E-02  -3.27971650E-10
  -2.12999992E-02  -3.13257975E-10
  -2.12500002E-02  -2.96965619E-10
  -2.11999994E-02  -2.82548818E-10
  -2.11500004E-02  -2.71710598E-10
  -2.10999995E-02  -2.63575606E-10
  -2.10500006E-02  -2.55006655E-10
  -2.09999997E-02  -2.41942327E-10
  -2.09500007E-02  -2.21173829E-10
  -2.08999999E-02  -1.91772306E-10
  -2.08500009E-02  -1.55521457E-10
  -2.08000001E-02  -1.16146058E-10
  -2.07499992E-02  -7.76637296E-11
  -2.07000002E-02  -4.25855601E-11
  -2.06499994E-02  -1.07704731E-11
  -2.06000004E-02   2.05416812E-11
  -2.05499995E-02   5.55150405E-11
  -2.05000006E-02   9.78461756E-11
  -2.04499997E-02   1.49065205E-10
  -2.04000007E-02   2.07773881E-10
  -2.03499999E-02   2.70175632E-10
  -2.03000009E-02   3.31679989E-10
  -2.02500001E-02   3.88878069E-10
  -2.01999992E-02   4.41008785E-10
  -2.01500002E-02   4.90253671E-10
  -2.00999994E-02   5.40710920E-10
  -2.00500004E-02   5.96491245E-10
  -1.99999996E-02   6.59776678E-10
  -1.99500006E-02   7.29711180E-10
  -1.98999997E-02   8.02630629E-10
  -1.98500007E-02   8.73545125E-10
  -1.97999999E-02   9.38224498E-10
  -1.97500009E-02   9.94959781E-10
  -1.97000001E-02   1.04520625E-09
  -1.96499992E-02   1.09280784E-09
  -1.96000002E-02   1.14213095E-09
  -1.95499994E-02   1.19593357E-09
  -1.95000004E-02   1.25392119E-09
  -1.94499996E-02   1.31264333E-09
  -1.94000006E-02   1.36679390E-09
  -1.93499997E-02   1.41134759E-09
  -1.93000007E-02   1.44358658E-09
  -1.92499999E-02   1.46410817E-09
  -1.92000009E-02   1.47635415E-09
  -1.91500001E-02   1.48485779E-09
  -1.90999992E-02   1.49298385E-09
  -1.90500002E-02   1.50116786E-09
  -1.89999994E-02   1.50644852E-09
  -1.89500004E-02   1.50351576E-09
  -1.88999996E-02   1.48681512E-09
  -1.88500006E-02   1.45277745E-09
  -1.87999997E-02   1.40117473E-09
  -1.87500007E-02   1.33498679E-09
  -1.86999999E-02   1.25882860E-09
  -1.86500009E-02   1.17663013E-09
  -1.86000001E-02   1.08960341E-09
  -1.85499992E-02   9.95409866E-10
  -1.85000002E-02   8.88910667E-10
  -1.84499994E-02   7.64175057E-10
  -1.84000004E-02   6.16858509E-10
  -1.83499996E-02   4.45888104E-10
  -1.83000006E-02   2.53698507E-10
  -1.82499997E-02   4.49053780E-11
  -1.82000007E-02  -1.75998174E-10
  -1.81499999E-02  -4.06894463E-10
  -1.81000009E-02  -6.49235166E-10
  -1.80500001E-02  -9.07634690E-10
  -1.79999992E-02  -1.18804244E-09
  -1.79500002E-02  -1.49529911E-09
  -1.78999994E-02  -1.83117799E-09
  -1.78500004E-02  -2.19378160E-09
  -1.77999996E-02  -2.57857780E-09
  -1.77500006E-02  -2.98060931E-09
  -1.76999997E-02  -3.39689810E-09
  -1.76500008E-02  -3.82796284E-09
  -1.75999999E-02  -4.27777280E-09
  -1.75500009E-02  -4.75215289E-09
  -1.75000001E-02  -5.25634336E-09
  -1.74499992E-02  -5.79281556E-09
  -1.74000002E-02  -6.36030828E-09
  -1.73499994E-02  -6.95452851E-09
  -1.73000004E-02  -7.57019158E-09
  -1.72499996E-02  -8.20350188E-09
  -1.72000006E-02  -8.85394069E-09
  -1.71499997E-02  -9.52458823E-09
  -1.71000008E-02  -1.02208171E-08
  -1.70499999E-02  -1.09479457E-08
  -1.70000009E-02  -1.17089183E-08
  -1.69500001E-02  -1.25030297E-08
  -1.68999992E-02  -1.33262876E-08
  -1.68500002E-02  -1.41732404E-08
  -1.67999994E-02  -1.50394488E-08
  -1.67500004E-02  -1.59235025E-08
  -1.66999996E-02  -1.68276717E-08
  -1.66500006E-02  -1.77569159E-08
  -1.65999997E-02  -1.87166922E-08
  -1.65500008E-02  -1.97105390E-08
  -1.64999999E-02  -2.07385504E-08
  -1.64500009E-02  -2.17973675E-08
  -1.64000001E-02  -2.28817427E-08
  -1.63499992E-02  -2.39869404E-08
  -1.63000003E-02  -2.51108734E-08
  -1.62499994E-02  -2.62550710E-08
  -1.62000004E-02  -2.74240222E-08
  -1.61499996E-02  -2.86231803E-08
  -1.61000006E-02  -2.98565901E-08
  -1.60499997E-02  -3.11251256E-08
  -1.60000008E-02  -3.24262253E-08
  -1.59499999E-02  -3.37551214E-08
  -1.59000009E-02  -3.51071350E-08
  -1.58500001E-02  -3.64798716E-08
  -1.57999992E-02  -3.78744325E-08
  -1.57500003E-02  -3.92950597E-08
  -1.56999994E-02  -4.07473948E-08
  -1.56500004E-02  -4.22361595E-08
  -1.55999996E-02  -4.37632757E-08
  -1.55499997E-02  -4.53273223E-08
  -1.54999997E-02  -4.69244448E-08
  -1.54499998E-02  -4.85504330E-08
  -1.53999999E-02  -5.02029387E-08
  -1.53500000E-02  -5.18828180E-08
  -1.53000001E-02  -5.35940998E-08
  -1.52500002E-02  -5.53425039E-08
  -1.52000003E-02  -5.71332386E-08
  -1.51500003E-02  -5.89691354E-08
  -1.51000004E-02  -6.08498567E-08
  -1.50499996E-02  -6.27725711E-08
  -1.49999997E-02  -6.47337899E-08
  -1.49499997E-02  -6.67315305E-08
  -1.48999998E-02  -6.87667665E-08
  -1.48499999E-02  -7.08435834E-08
  -1.48000000E-02  -7.29679854E-08
  -1.47500001E-02  -7.51458629E-08
  -1.47000002E-02  -7.73810953E-08
  -1.46500003E-02  -7.96746420E-08
  -1.46000003E-02  -8.20249682E-08
  -1.45500004E-02  -8.44296579E-08
  -1.44999996E-02  -8.68873968E-08
  -1.44499997E-02  -8.93994709E-08
  -1.43999998E-02  -9.19700867E-08
  -1.43499998E-02  -9.46054115E-08
  -1.42999999E-02  -9.73117338E-08
  -1.42500000E-02  -1.00093658E-07
  -1.42000001E-02  -1.02953145E-07
  -1.41500002E-02  -1.05889818E-07
  -1.41000003E-02  -1.08902256E-07
  -1.40500003E-02  -1.11989934E-07
  -1.40000004E-02  -1.15154592E-07
  -1.39499996E-02  -1.18400727E-07
  -1.38999997E-02  -1.21734715E-07
  -1.38499998E-02  -1.25163268E-07
  -1.37999998E-02  -1.28691738E-07
  -1.37499999E-02  -1.32323080E-07
  -1.37000000E-02  -1.36058105E-07
  -1.36500001E-02  -1.39896571E-07
  -1.36000002E-02  -1.43838918E-07
  -1.35500003E-02  -1.47887562E-07
  -1.35000004E-02  -1.52047349E-07
  -1.34500004E-02  -1.56324859E-07
  -1.33999996E-02  -1.60726955E-07
  -1.33499997E-02  -1.65259280E-07
  -1.32999998E-02  -1.69925400E-07
  -1.32499998E-02  -1.74726893E-07
  -1.31999999E-02  -1.79664497E-07
  -1.31500000E-02  -1.84739520E-07
  -1.31000001E-02  -1.89955102E-07
  -1.30500002E-02  -1.95316630E-07
  -1.30000003E-02  -2.00830968E-07
  -1.29500004E-02  -2.06505234E-07
  -1.29000004E-02  -2.12345498E-07
  -1.28499996E-02  -2.18355851E-07
  -1.27999997E-02  -2.24538780E-07
  -1.27499998E-02  -2.30895978E-07
  -1.26999998E-02  -2.37429859E-07
  -1.26499999E-02  -2.44144502E-07
  -1.26000000E-02  -2.51046032E-07
  -1.25500001E-02  -2.58141768E-07
  -1.25000002E-02  -2.65439070E-07
  -1.24500003E-02  -2.72944050E-07
  -1.24000004E-02  -2.80661169E-07
  -1.23500004E-02  -2.88593299E-07
  -1.22999996E-02  -2.96742968E-07
  -1.22499997E-02  -3.05113417E-07
  -1.21999998E-02  -3.13709677E-07
  -1.21499998E-02  -3.22538625E-07
  -1.20999999E-02  -3.31608248E-07
  -1.20500000E-02  -3.40926363E-07
  -1.20000001E-02  -3.50499391E-07
  -1.19500002E-02  -3.60332194E-07
  -1.19000003E-02  -3.70428296E-07
  -1.18500004E-02  -3.80791221E-07
  -1.18000004E-02  -3.91425573E-07
  -1.17499996E-02  -4.02338031E-07
  -1.16999997E-02  -4.13537009E-07
  -1.16499998E-02  -4.25031857E-07
  -1.15999999E-02  -4.36831300E-07
  -1.15499999E-02  -4.48942615E-07
  -1.15000000E-02  -4.61371144E-07
  -1.14500001E-02  -4.74120981E-07
  -1.14000002E-02  -4.87196417E-07
  -1.13500003E-02  -5.00603221E-07
  -1.13000004E-02  -5.14349324E-07
  -1.12500004E-02  -5.28444843E-07
  -1.11999996E-02  -5.42900409E-07
  -1.11499997E-02  -5.57726253E-07
  -1.10999998E-02  -5.72930730E-07
  -1.10499999E-02  -5.88519981E-07
  -1.09999999E-02  -6.04499292E-07
  -1.09500000E-02  -6.20874459E-07
  -1.09000001E-02  -6.37653159E-07
  -1.08500002E-02  -6.54845962E-07
  -1.08000003E-02  -6.72465433E-07
  -1.07500004E-02  -6.90525042E-07
  -1.07000005E-02  -7.09036954E-07
  -1.06499996E-02  -7.28011230E-07
  -1.05999997E-02  -7.47455147E-07
  -1.05499998E-02  -7.67374729E-07
  -1.04999999E-02  -7.87776742E-07
  -1.04499999E-02  -8.08669881E-07
  -1.04000000E-02  -8.30066483E-07
  -1.03500001E-02  -8.51981383E-07
  -1.03000002E-02  -8.74430100E-07
  -1.02500003E-02  -8.97427242E-07
  -1.02000004E-02  -9.20984576E-07
  -1.01500005E-02  -9.45111367E-07
  -1.00999996E-02  -9.69815233E-07
  -1.00499997E-02  -9.95104301E-07
  -9.99999978E-03  -1.02099000E-06
  -9.94999986E-03  -1.04748699E-06
  -9.89999995E-03  -1.07461335E-06
  -9.85000003E-03  -1.10238830E-06
  -9.80000012E-03  -1.13083001E-06
  -9.75000020E-03  -1.15995306E-06
  -9.70000029E-03  -1.18976902E-06
  -9.65000037E-03  -1.22028723E-06
  -9.60000046E-03  -1.25151723E-06
  -9.54999961E-03  -1.28347199E-06
  -9.49999969E-03  -1.31616832E-06
  -9.44999978E-03  -1.34962715E-06
  -9.39999986E-03  -1.38387031E-06
  -9.34999995E-03  -1.41891860E-06
  -9.30000003E-03  -1.45478919E-06
  -9.25000012E-03  -1.49149525E-06
  -9.20000020E-03  -1.52904738E-06
  -9.15000029E-03  -1.56745682E-06
  -9.10000037E-03  -1.60673824E-06
  -9.05000046E-03  -1.64691096E-06
  -8.99999961E-03  -1.68799920E-06
  -8.94999970E-03  -1.73002877E-06
  -8.89999978E-03  -1.77302479E-06
  -8.84999987E-03  -1.81700830E-06
  -8.79999995E-03  -1.86199588E-06
  -8.75000004E-03  -1.90800142E-06
  -8.70000012E-03  -1.95503844E-06
  -8.65000021E-03  -2.00312434E-06
  -8.60000029E-03  -2.05228093E-06
  -8.55000038E-03  -2.10253529E-06
  -8.50000046E-03  -2.15391697E-06
  -8.44999962E-03  -2.20645438E-06
  -8.39999970E-03  -2.26017210E-06
  -8.34999979E-03  -2.31508943E-06
  -8.29999987E-03  -2.37122163E-06
  -8.24999996E-03  -2.42858414E-06
  -8.20000004E-03  -2.48719516E-06
  -8.15000013E-03  -2.54707879E-06
  -8.10000021E-03  -2.60826505E-06
  -8.05000030E-03  -2.67078667E-06
  -8.00000038E-03  -2.73467640E-06
  -7.95000046E-03  -2.79996289E-06
  -7.89999962E-03  -2.86666886E-06
  -7.84999970E-03  -2.93481344E-06
  -7.79999979E-03  -3.00441388E-06
  -7.74999987E-03  -3.07549249E-06
  -7.69999996E-03  -3.14807585E-06
  -7.65000004E-03  -3.22219785E-06
  -7.60000013E-03  -3.29789668E-06
  -7.55000021E-03  -3.37520964E-06
  -7.49999983E-03  -3.45416970E-06
  -7.44999992E-03  -3.53480459E-06
  -7.40000000E-03  -3.61713523E-06
  -7.35000009E-03  -3.70118187E-06
  -7.30000017E-03  -3.78696859E-06
  -7.24999979E-03  -3.87452519E-06
  -7.19999988E-03  -3.96388941E-06
  -7.14999996E-03  -4.05510264E-06
  -7.10000005E-03  -4.14820715E-06
  -7.05000013E-03  -4.24323935E-06
  -7.00000022E-03  -4.34023150E-06
  -6.94999984E-03  -4.43920862E-06
  -6.89999992E-03  -4.54019255E-06
  -6.85000001E-03  -4.64321010E-06
  -6.80000009E-03  -4.74829449E-06
  -6.75000018E-03  -4.85548708E-06
  -6.69999979E-03  -4.96483426E-06
  -6.64999988E-03  -5.07638333E-06
  -6.59999996E-03  -5.19017658E-06
  -6.55000005E-03  -5.30625130E-06
  -6.50000013E-03  -5.42463658E-06
  -6.45000022E-03  -5.54536018E-06
  -6.39999984E-03  -5.66845029E-06
  -6.34999992E-03  -5.79394418E-06
  -6.30000001E-03  -5.92188735E-06
  -6.25000009E-03  -6.05233254E-06
  -6.20000018E-03  -6.18533204E-06
  -6.14999980E-03  -6.32093361E-06
  -6.09999988E-03  -6.45917862E-06
  -6.04999997E-03  -6.60010028E-06
  -6.00000005E-03  -6.74372814E-06
  -5.95000014E-03  -6.89009585E-06
  -5.90000022E-03  -7.03924206E-06
  -5.84999984E-03  -7.19121590E-06
  -5.79999993E-03  -7.34607238E-06
  -5.75000001E-03  -7.50387017E-06
  -5.70000010E-03  -7.66466201E-06
  -5.65000018E-03  -7.82849565E-06
  -5.59999980E-03  -7.99540703E-06
  -5.54999989E-03  -8.16542888E-06
  -5.49999997E-03  -8.33859576E-06
  -5.45000006E-03  -8.51495224E-06
  -5.40000014E-03  -8.69455016E-06
  -5.35000023E-03  -8.87744864E-06
  -5.29999984E-03  -9.06371315E-06
  -5.24999993E-03  -9.25340191E-06
  -5.20000001E-03  -9.44656585E-06
  -5.15000010E-03  -9.64324772E-06
  -5.10000018E-03  -9.84348299E-06
  -5.04999980E-03  -1.00473098E-05
  -4.99999989E-03  -1.02547747E-05
  -4.94999997E-03  -1.04659302E-05
  -4.90000006E-03  -1.06808411E-05
  -4.85000014E-03  -1.08995755E-05
  -4.80000023E-03  -1.11221952E-05
  -4.74999985E-03  -1.13487567E-05
  -4.69999993E-03  -1.15793036E-05
  -4.65000002E-03  -1.18138732E-05
  -4.60000010E-03  -1.20525056E-05
  -4.55000019E-03  -1.22952461E-05
  -4.49999981E-03  -1.25421520E-05
  -4.44999989E-03  -1.27932890E-05
  -4.39999998E-03  -1.30487297E-05
  -4.35000006E-03  -1.33085423E-05
  -4.30000015E-03  -1.35727851E-05
  -4.25000023E-03  -1.38415071E-05
  -4.19999985E-03  -1.41147475E-05
  -4.14999994E-03  -1.43925454E-05
  -4.10000002E-03  -1.46749499E-05
  -4.05000011E-03  -1.49620164E-05
  -4.00000019E-03  -1.52538150E-05
  -3.94999981E-03  -1.55504240E-05
  -3.89999989E-03  -1.58519142E-05
  -3.84999998E-03  -1.61583503E-05
  -3.80000006E-03  -1.64697758E-05
  -3.74999992E-03  -1.67862327E-05
  -3.70000000E-03  -1.71077572E-05
  -3.65000009E-03  -1.74343968E-05
  -3.59999994E-03  -1.77662077E-05
  -3.55000002E-03  -1.81032592E-05
  -3.50000011E-03  -1.84456276E-05
  -3.44999996E-03  -1.87933874E-05
  -3.40000005E-03  -1.91466042E-05
  -3.34999990E-03  -1.95053290E-05
  -3.29999998E-03  -1.98696016E-05
  -3.25000007E-03  -2.02394585E-05
  -3.19999992E-03  -2.06149380E-05
  -3.15000000E-03  -2.09960981E-05
  -3.10000009E-03  -2.13830062E-05
  -3.04999994E-03  -2.17757461E-05
  -3.00000003E-03  -2.21743903E-05
  -2.95000011E-03  -2.25790100E-05
  -2.89999996E-03  -2.29896577E-05
  -2.85000005E-03  -2.34063664E-05
  -2.79999990E-03  -2.38291686E-05
  -2.74999999E-03  -2.42580991E-05
  -2.70000007E-03  -2.46932104E-05
  -2.64999992E-03  -2.51345700E-05
  -2.60000001E-03  -2.55822579E-05
  -2.55000009E-03  -2.60363486E-05
  -2.49999994E-03  -2.64969094E-05
  -2.45000003E-03  -2.69639950E-05
  -2.40000011E-03  -2.74376380E-05
  -2.34999997E-03  -2.79178676E-05
  -2.30000005E-03  -2.84047092E-05
  -2.24999990E-03  -2.88982064E-05
  -2.19999999E-03  -2.93984194E-05
  -2.15000007E-03  -2.99054263E-05
  -2.09999993E-03  -3.04193072E-05
  -2.05000001E-03  -3.09401330E-05
  -2.00000009E-03  -3.14679528E-05
  -1.94999995E-03  -3.20027975E-05
  -1.90000003E-03  -3.25446817E-05
  -1.85000000E-03  -3.30936273E-05
  -1.79999997E-03  -3.36496632E-05
  -1.75000005E-03  -3.42128442E-05
  -1.70000002E-03  -3.47832502E-05
  -1.64999999E-03  -3.53609503E-05
  -1.59999996E-03  -3.59460209E-05
  -1.55000004E-03  -3.65385058E-05
  -1.50000001E-03  -3.71384267E-05
  -1.44999998E-03  -3.77457909E-05
  -1.39999995E-03  -3.83606093E-05
  -1.35000004E-03  -3.89828892E-05
  -1.30000000E-03  -3.96126889E-05
  -1.24999997E-03  -4.02500737E-05
  -1.20000006E-03  -4.08951055E-05
  -1.15000003E-03  -4.15478644E-05
  -1.09999999E-03  -4.22083795E-05
  -1.04999996E-03  -4.28766689E-05
  -1.00000005E-03  -4.35527218E-05
  -9.50000016E-04  -4.42365272E-05
  -8.99999985E-04  -4.49280888E-05
  -8.50000011E-04  -4.56274356E-05
  -7.99999980E-04  -4.63346259E-05
  -7.50000007E-04  -4.70497289E-05
  -6.99999975E-04  -4.77728026E-05
  -6.50000002E-04  -4.85038872E-05
  -6.00000028E-04  -4.92429754E-05
  -5.49999997E-04  -4.99900489E-05
  -5.00000024E-04  -5.07450713E-05
  -4.49999992E-04  -5.15080283E-05
  -3.99999990E-04  -5.22789342E-05
  -3.49999988E-04  -5.30578254E-05
  -3.00000014E-04  -5.38447566E-05
  -2.50000012E-04  -5.46397823E-05
  -1.99999995E-04  -5.54429243E-05
  -1.50000007E-04  -5.62541754E-05
  -9.99999975E-05  -5.70734956E-05
  -4.99999987E-05  -5.79008338E-05
   0.00000000      -5.87361283E-05
   4.99999987E-05  -5.95793645E-05
   9.99999975E-05  -6.04305569E-05
   1.50000007E-04  -6.12897420E-05
   1.99999995E-04  -6.21569707E-05
   2.50000012E-04  -6.30322538E-05
   3.00000014E-04  -6.39155624E-05
   3.49999988E-04  -6.48068453E-05
   3.99999990E-04  -6.57060154E-05
   4.49999992E-04  -6.66129927E-05
   5.00000024E-04  -6.75277406E-05
   5.49999997E-04  -6.84502374E-05
   6.00000028E-04  -6.93804832E-05
   6.50000002E-04  -7.03185287E-05
   6.99999975E-04  -7.12643523E-05
   7.50000007E-04  -7.22179175E-05
   7.99999980E-04  -7.31791588E-05
   8.50000011E-04  -7.41479453E-05
   8.99999985E-04  -7.51241605E-05
   9.50000016E-04  -7.61077317E-05
   1.00000005E-03  -7.70985862E-05
   1.04999996E-03  -7.80967239E-05
   1.09999999E-03  -7.91021521E-05
   1.15000003E-03  -8.01148417E-05
   1.20000006E-03  -8.11347345E-05
   1.24999997E-03  -8.21617359E-05
   1.30000000E-03  -8.31956786E-05
   1.35000004E-03  -8.42364316E-05
   1.39999995E-03  -8.52838348E-05
   1.44999998E-03  -8.63378227E-05
   1.50000001E-03  -8.73983299E-05
   1.55000004E-03  -8.84653346E-05
   1.59999996E-03  -8.95388075E-05
   1.64999999E-03  -9.06186542E-05
   1.70000002E-03  -9.17047364E-05
   1.75000005E-03  -9.27968795E-05
   1.79999997E-03  -9.38948724E-05
   1.85000000E-03  -9.49985479E-05
   1.90000003E-03  -9.61077603E-05
   1.94999995E-03  -9.72224225E-05
   2.00000009E-03  -9.83424834E-05
   2.05000001E-03  -9.94678703E-05
   2.09999993E-03  -1.00598467E-04
   2.15000007E-03  -1.01734113E-04
   2.19999999E-03  -1.02874576E-04
   2.24999990E-03  -1.04019622E-04
   2.30000005E-03  -1.05168998E-04
   2.34999997E-03  -1.06322514E-04
   2.40000011E-03  -1.07480068E-04
   2.45000003E-03  -1.08641529E-04
   2.49999994E-03  -1.09806795E-04
   2.55000009E-03  -1.10975743E-04
   2.60000001E-03  -1.12148162E-04
   2.64999992E-03  -1.13323775E-04
   2.70000007E-03  -1.14502283E-04
   2.74999999E-03  -1.15683426E-04
   2.79999990E-03  -1.16866933E-04