  -3.99999991E-02   0.00000000    
  -3.99499983E-02   0.00000000    
  -3.99000011E-02   0.00000000    
  -3.98500003E-02  -7.22999541E-20
  -3.97999994E-02  -3.92705443E-19
  -3.97499986E-02  -1.06847623E-18
  -3.97000015E-02  -1.71893953E-18
  -3.96500006E-02  -1.06147880E-18
  -3.95999998E-02   2.97744820E-18
  -3.95499989E-02   1.21943578E-17
  -3.95000018E-02   2.62102500E-17
  -3.94500010E-02   4.06003472E-17
  -3.94000001E-02   4.62910586E-17
  -3.93499993E-02   3.11445941E-17
  -3.92999984E-02  -1.62984326E-17
  -3.92500013E-02  -1.02142148E-16
  -3.92000005E-02  -2.23681946E-16
  -3.91499996E-02  -3.69486333E-16
  -3.90999988E-02  -5.24287719E-16
  -3.90500017E-02  -6.77751666E-16
  -3.90000008E-02  -8.33671850E-16
  -3.89500000E-02  -1.01480413E-15
  -3.88999991E-02  -1.25967511E-15
  -3.88499983E-02  -1.61123253E-15
  -3.88000011E-02  -2.10151839E-15
  -3.87500003E-02  -2.73931535E-15
  -3.86999995E-02  -3.50729069E-15
  -3.86499986E-02  -4.37146462E-15
  -3.86000015E-02  -5.30024429E-15
  -3.85500006E-02  -6.28514244E-15
  -3.84999998E-02  -7.35311758E-15
  -3.84499989E-02  -8.56288476E-15
  -3.84000018E-02  -9.98434581E-15
  -3.83500010E-02  -1.16687140E-14
  -3.83000001E-02  -1.36225514E-14
  -3.82499993E-02  -1.57982707E-14
  -3.81999984E-02  -1.81064490E-14
  -3.81500013E-02  -2.04451290E-14
  -3.81000005E-02  -2.27332869E-14
  -3.80499996E-02  -2.49340682E-14
  -3.79999988E-02  -2.70582286E-14
  -3.79500017E-02  -2.91472914E-14
  -3.79000008E-02  -3.12447076E-14
  -3.78500000E-02  -3.33679922E-14
  -3.77999991E-02  -3.54931267E-14
  -3.77499983E-02  -3.75557434E-14
  -3.77000012E-02  -3.94650099E-14
  -3.76500003E-02  -4.11213828E-14
  -3.75999995E-02  -4.24308958E-14
  -3.75499986E-02  -4.33147137E-14
  -3.75000015E-02  -4.37179725E-14
  -3.74500006E-02  -4.36208686E-14
  -3.73999998E-02  -4.30479796E-14
  -3.73499990E-02  -4.20643473E-14
  -3.73000018E-02  -4.07467978E-14
  -3.72500010E-02  -3.91303370E-14
  -3.72000001E-02  -3.71482528E-14
  -3.71499993E-02  -3.46003675E-14
  -3.70999984E-02  -3.11845784E-14
  -3.70500013E-02  -2.66052541E-14
  -3.70000005E-02  -2.07324375E-14
  -3.69499996E-02  -1.37447570E-14
  -3.68999988E-02  -6.17092344E-15
  -3.68500017E-02   1.23059795E-15
  -3.68000008E-02   7.74543021E-15
  -3.67500000E-02   1.30350552E-14
  -3.66999991E-02   1.73696811E-14
  -3.66499983E-02   2.16124742E-14
  -3.66000012E-02   2.68959134E-14
  -3.65500003E-02   3.40765217E-14
  -3.64999995E-02   4.31906166E-14
  -3.64499986E-02   5.31865405E-14
  -3.64000015E-02   6.21317708E-14
  -3.63500006E-02   6.78974834E-14
  -3.62999998E-02   6.90831940E-14
  -3.62499990E-02   6.57736398E-14
  -3.62000018E-02   5.97222060E-14
  -3.61500010E-02   5.37629565E-14
  -3.61000001E-02   5.06024937E-14
  -3.60499993E-02   5.14800333E-14
  -3.59999985E-02   5.53358188E-14
  -3.59500013E-02   5.89837491E-14
  -3.59000005E-02   5.83665806E-14
  -3.58499996E-02   5.04465413E-14
  -3.57999988E-02   3.48973136E-14
  -3.57500017E-02   1.47301300E-14
  -3.57000008E-02  -4.61948180E-15
  -3.56500000E-02  -1.75281390E-14
  -3.55999991E-02  -2.08384793E-14
  -3.55499983E-02  -1.56804484E-14
  -3.55000012E-02  -7.43422268E-15
  -3.54500003E-02  -3.57613202E-15
  -3.53999995E-02  -1.01566882E-14
  -3.53499986E-02  -2.84433223E-14
  -3.53000015E-02  -5.33981835E-14
  -3.52500007E-02  -7.49968393E-14
  -3.51999998E-02  -8.21440287E-14
  -3.51499990E-02  -6.76446475E-14
  -3.51000018E-02  -3.19700863E-14
  -3.50500010E-02   1.61504331E-14
  -3.50000001E-02   6.30004607E-14
  -3.49499993E-02   9.59150294E-14
  -3.48999985E-02   1.09521150E-13
  -3.48500013E-02   1.09201893E-13
  -3.48000005E-02   1.09785180E-13
  -3.47499996E-02   1.29520309E-13
  -3.46999988E-02   1.81680273E-13
  -3.46500017E-02   2.67538135E-13
  -3.46000008E-02   3.74232519E-13
  -3.45500000E-02   4.79087798E-13
  -3.44999991E-02   5.59039089E-13
  -3.44499983E-02   6.01228811E-13
  -3.44000012E-02   6.09861012E-13
  -3.43500003E-02   6.05667589E-13
  -3.42999995E-02   6.17478128E-13
  -3.42499986E-02   6.69086694E-13
  -3.42000015E-02   7.67168176E-13
  -3.41500007E-02   8.96066695E-13
  -3.40999998E-02   1.02258870E-12
  -3.40499990E-02   1.10948772E-12
  -3.40000018E-02   1.13208412E-12
  -3.39500010E-02   1.09045325E-12
  -3.39000002E-02   1.01102275E-12
  -3.38499993E-02   9.35866076E-13
  -3.37999985E-02   9.03657249E-13
  -3.37500013E-02   9.30553377E-13
  -3.37000005E-02   1.00004434E-12
  -3.36499996E-02   1.06737384E-12
  -3.35999988E-02   1.07774835E-12
  -3.35500017E-02   9.90968809E-13
  -3.35000008E-02   8.01452221E-13
  -3.34500000E-02   5.43831581E-13
  -3.33999991E-02   2.80278323E-13
  -3.33499983E-02   7.39632016E-14
  -3.33000012E-02  -4.00459458E-14
  -3.32500003E-02  -7.30224664E-14
  -3.31999995E-02  -8.05376273E-14
  -3.31499986E-02  -1.39470995E-13
  -3.31000015E-02  -3.13168165E-13
  -3.30500007E-02  -6.20099241E-13
  -3.29999998E-02  -1.02092477E-12
  -3.29499990E-02  -1.43142301E-12
  -3.29000019E-02  -1.75722490E-12
  -3.28500010E-02  -1.93582021E-12
  -3.28000002E-02  -1.96682883E-12
  -3.27499993E-02  -1.91559529E-12
  -3.26999985E-02  -1.88650636E-12
  -3.26500013E-02  -1.97625943E-12
  -3.26000005E-02  -2.22736304E-12
  -3.25499997E-02  -2.60347082E-12
  -3.24999988E-02  -2.99950017E-12
  -3.24500017E-02  -3.28425199E-12
  -3.24000008E-02  -3.35801157E-12
  -3.23500000E-02  -3.19950793E-12
  -3.22999991E-02  -2.87983916E-12
  -3.22499983E-02  -2.53480071E-12
  -3.22000012E-02  -2.30575324E-12
  -3.21500003E-02  -2.27437058E-12
  -3.20999995E-02  -2.42105576E-12
  -3.20499986E-02  -2.62773050E-12
  -3.20000015E-02  -2.72647985E-12
  -3.19500007E-02  -2.57442093E-12
  -3.18999998E-02  -2.12183006E-12
  -3.18499990E-02  -1.44166742E-12
  -3.18000019E-02  -7.04517120E-13
  -3.17500010E-02  -1.07177911E-13
  -3.17000002E-02   2.14995665E-13
  -3.16499993E-02   2.52631900E-13
  -3.15999985E-02   1.32717201E-13
  -3.15500014E-02   6.68806238E-14
  -3.15000005E-02   2.57766437E-13
  -3.14499997E-02   8.04104992E-13
  -3.13999988E-02   1.64800075E-12
  -3.13500017E-02   2.59101096E-12
  -3.13000008E-02   3.37548891E-12
  -3.12500000E-02   3.79752133E-12
  -3.11999992E-02   3.80146262E-12
  -3.11500002E-02   3.51179394E-12
  -3.10999993E-02   3.18436618E-12
  -3.10500003E-02   3.09505525E-12
  -3.09999995E-02   3.41345160E-12
  -3.09500005E-02   4.11856833E-12
  -3.08999997E-02   4.99730769E-12
  -3.08500007E-02   5.73072362E-12
  -3.07999998E-02   6.03325636E-12
  -3.07500008E-02   5.78416525E-12
  -3.07000000E-02   5.09089559E-12
  -3.06499992E-02   4.25214334E-12
  -3.06000002E-02   3.63253047E-12
  -3.05499993E-02   3.50162976E-12
  -3.05000003E-02   3.90886368E-12
  -3.04499995E-02   4.65284712E-12
  -3.04000005E-02   5.36353991E-12
  -3.03499997E-02   5.66508385E-12
  -3.03000007E-02   5.34900336E-12
  -3.02499998E-02   4.47948493E-12
  -3.02000009E-02   3.37972423E-12
  -3.01500000E-02   2.50010646E-12
  -3.00999992E-02   2.22270358E-12
  -3.00500002E-02   2.68799674E-12
  -2.99999993E-02   3.72347465E-12
  -2.99500003E-02   4.91104596E-12
  -2.98999995E-02   5.76881902E-12
  -2.98500005E-02   5.96985005E-12
  -2.97999997E-02   5.50028426E-12
  -2.97500007E-02   4.68258592E-12
  -2.96999998E-02   4.04746289E-12
  -2.96500009E-02   4.10595646E-12
  -2.96000000E-02   5.12055459E-12
  -2.95499992E-02   6.97881900E-12
  -2.95000002E-02   9.23094240E-12
  -2.94499993E-02   1.12810542E-11
  -2.94000003E-02   1.26520877E-11
  -2.93499995E-02   1.32074716E-11
  -2.93000005E-02   1.32276559E-11
  -2.92499997E-02   1.33009272E-11
  -2.92000007E-02   1.40702502E-11
  -2.91499998E-02   1.59445703E-11
  -2.91000009E-02   1.89033858E-11
  -2.90500000E-02   2.24864537E-11
  -2.89999992E-02   2.59805632E-11
  -2.89500002E-02   2.87270242E-11
  -2.88999993E-02   3.04160377E-11
  -2.88500004E-02   3.12349660E-11
  -2.87999995E-02   3.17982203E-11
  -2.87500005E-02   3.28820998E-11
  -2.86999997E-02   3.50766152E-11
  -2.86500007E-02   3.85078740E-11
  -2.85999998E-02   4.27584530E-11
  -2.85500009E-02   4.70288530E-11
  -2.85000000E-02   5.04761268E-11
  -2.84499992E-02   5.25838262E-11
  -2.84000002E-02   5.33980637E-11
  -2.83499993E-02   5.35187172E-11
  -2.83000004E-02   5.38410462E-11
  -2.82499995E-02   5.51549639E-11
  -2.82000005E-02   5.77770158E-11
  -2.81499997E-02   6.13816428E-11
  -2.81000007E-02   6.51145179E-11
  -2.80499998E-02   6.79470577E-11
  -2.80000009E-02   6.91211741E-11
  -2.79500000E-02   6.84880555E-11
  -2.78999992E-02   6.65851402E-11
  -2.78500002E-02   6.44080830E-11
  -2.77999993E-02   6.29696434E-11
  -2.77500004E-02   6.28362917E-11
  -2.76999995E-02   6.38497172E-11
  -2.76500005E-02   6.51642490E-11
  -2.75999997E-02   6.55939955E-11
  -2.75500007E-02   6.41243170E-11
  -2.74999999E-02   6.03636863E-11
  -2.74500009E-02   5.47315873E-11
  -2.74000000E-02   4.82894558E-11
  -2.73499992E-02   4.22790102E-11
  -2.73000002E-02   3.75652495E-11
  -2.72499993E-02   3.42305975E-11
  -2.72000004E-02   3.15068666E-11
  -2.71499995E-02   2.80862712E-11
  -2.71000005E-02   2.26845244E-11
  -2.70499997E-02   1.46120199E-11
  -2.70000007E-02   4.09815888E-12
  -2.69499999E-02  -7.78375194E-12
  -2.69000009E-02  -1.95694398E-11
  -2.68500000E-02  -3.00432977E-11
  -2.67999992E-02  -3.87842744E-11
  -2.67500002E-02  -4.63711118E-11
  -2.66999993E-02  -5.41451259E-11
  -2.66500004E-02  -6.36234260E-11
  -2.65999995E-02  -7.58146879E-11
  -2.65500005E-02  -9.07402903E-11
  -2.64999997E-02  -1.07380854E-10
  -2.64500007E-02  -1.24084076E-10
  -2.63999999E-02  -1.39264822E-10
  -2.63500009E-02  -1.52092935E-10
  -2.63000000E-02  -1.62861086E-10
  -2.62499992E-02  -1.72859005E-10
  -2.62000002E-02  -1.83796922E-10
  -2.61499994E-02  -1.97022704E-10
  -2.61000004E-02  -2.12876661E-10
  -2.60499995E-02  -2.30476124E-10
  -2.60000005E-02  -2.48037202E-10
  -2.59499997E-02  -2.63604999E-10
  -2.59000007E-02  -2.75876655E-10
  -2.58499999E-02  -2.84752860E-10
  -2.58000009E-02  -2.91363933E-10
  -2.57500000E-02  -2.97545183E-10
  -2.56999992E-02  -3.04981373E-10
  -2.56500002E-02  -3.14393567E-10
  -2.55999994E-02  -3.25132310E-10
  -2.55500004E-02  -3.35369899E-10
  -2.54999995E-02  -3.42820800E-10
  -2.54500005E-02  -3.45683315E-10
  -2.53999997E-02  -3.43387846E-10
  -2.53500007E-02  -3.36813438E-10
  -2.52999999E-02  -3.27863015E-10
  -2.52500009E-02  -3.18570698E-10
  -2.52000000E-02  -3.10127535E-10
  -2.51499992E-02  -3.02258191E-10
  -2.51000002E-02  -2.93234437E-10
  -2.50499994E-02  -2.80534873E-10
  -2.50000004E-02  -2.61872191E-10
  -2.49499995E-02  -2.36139108E-10
  -2.49000005E-02  -2.03850395E-10
  -2.48499997E-02  -1.66871794E-10
  -2.48000007E-02  -1.27541297E-10
  -2.47499999E-02  -8.75601328E-11
  -2.47000009E-02  -4.71422484E-11
  -2.46500000E-02  -4.80699681E-12
  -2.45999992E-02   4.20785733E-11
  -2.45500002E-02   9.62324040E-11
  -2.44999994E-02   1.59328759E-10
  -2.44500004E-02   2.31308930E-10
  -2.43999995E-02   3.10447168E-10
  -2.43500005E-02   3.94158206E-10
  -2.42999997E-02   4.80202544E-10
  -2.42500007E-02   5.67761393E-10
  -2.41999999E-02   6.57900845E-10
  -2.41500009E-02   7.53205720E-10
  -2.41000000E-02   8.56730464E-10
  -2.40499992E-02   9.70719394E-10
  -2.40000002E-02   1.09566167E-09
  -2.39499994E-02   1.23010691E-09
  -2.39000004E-02   1.37133904E-09
  -2.38499995E-02   1.51662527E-09
  -2.38000005E-02   1.66449421E-09
  -2.37499997E-02   1.81547866E-09
  -2.37000007E-02   1.97197880E-09
  -2.36499999E-02   2.13729368E-09
  -2.36000009E-02   2.31423281E-09
  -2.35500000E-02   2.50391929E-09
  -2.34999992E-02   2.70531664E-09
  -2.34500002E-02   2.91570545E-09
  -2.33999994E-02   3.13191317E-09
  -2.33500004E-02   3.35176287E-09
  -2.32999995E-02   3.57510666E-09
  -2.32500006E-02   3.80397358E-09
  -2.31999997E-02   4.04175449E-09
  -2.31500007E-02   4.29176916E-09
  -2.30999999E-02   4.55583926E-09
  -2.30500009E-02   4.83350471E-09
  -2.30000000E-02   5.12223464E-09
  -2.29499992E-02   5.41856160E-09
  -2.29000002E-02   5.71964742E-09
  -2.28499994E-02   6.02459194E-09
  -2.28000004E-02   6.33490460E-09
  -2.27499995E-02   6.65391919E-09
  -2.27000006E-02   6.98538649E-09
  -2.26499997E-02   7.33186845E-09
  -2.26000007E-02   7.69362973E-09
  -2.25499999E-02   8.06853517E-09
  -2.25000009E-02   8.45300807E-09
  -2.24500000E-02   8.84363427E-09
  -2.23999992E-02   9.23872800E-09
  -2.23500002E-02   9.63913749E-09
  -2.22999994E-02   1.00479598E-08
  -2.22500004E-02   1.04692504E-08
  -2.21999995E-02   1.09062954E-08
  -2.21500006E-02   1.13602061E-08
  -2.20999997E-02   1.18294636E-08
  -2.20500007E-02   1.23106174E-08
  -2.19999999E-02   1.27998625E-08
  -2.19500009E-02   1.32947768E-08
  -2.19000001E-02   1.37954990E-08
  -2.18499992E-02   1.43047654E-08
  -2.18000002E-02   1.48268278E-08
  -2.17499994E-02   1.53656856E-08
  -2.17000004E-02   1.59234155E-08
  -2.16499995E-02   1.64993370E-08
  -2.16000006E-02   1.70903913E-08
  -2.15499997E-02   1.76925852E-08
  -2.15000007E-02   1.83028526E-08
  -2.14499999E-02   1.89205576E-08
  -2.14000009E-02   1.95479171E-08
  -2.13500001E-02   2.01892210E-08
  -2.12999992E-02   2.08490984E-08
  -2.12500002E-02   2.15306457E-08
  -2.11999994E-02   2.22342162E-08
  -2.11500004E-02   2.29574191E-08
  -2.10999995E-02   2.36963320E-08
  -2.10500006E-02   2.44474005E-08
  -2.09999997E-02   2.52092178E-08
  -2.09500007E-02   2.59833719E-08
  -2.08999999E-02   2.67739999E-08
  -2.08500009E-02   2.75862231E-08
  -2.08000001E-02   2.84241555E-08
  -2.07499992E-02   2.92893336E-08
  -2.07000002E-02   3.01803027E-08
  -2.06499994E-02   3.10934851E-08
  -2.06000004E-02   3.20250351E-08
  -2.05499995E-02   3.29728174E-08
  -2.05000006E-02   3.39376491E-08
  -2.04499997E-02   3.49232820E-08
  -2.04000007E-02   3.59351020E-08
  -2.03499999E-02   3.69780899E-08
  -2.03000009E-02   3.80550027E-08
  -2.02500001E-02   3.91654851E-08
  -2.01999992E-02   4.03065705E-08
  -2.01500002E-02   4.14743546E-08
  -2.00999994E-02   4.26660733E-08
  -2.00500004E-02   4.38817160E-08
  -1.99999996E-02   4.51244766E-08
  -1.99500006E-02   4.63997765E-08
  -1.98999997E-02   4.77133355E-08
  -1.98500007E-02   4.90691043E-08
  -1.97999999E-02   5.04679889E-08
  -1.97500009E-02   5.19078895E-08
  -1.97000001E-02   5.33850688E-08
  -1.96499992E-02   5.48962689E-08
  -1.96000002E-02   5.64406335E-08
  -1.95499994E-02   5.80205786E-08
  -1.95000004E-02   5.96412875E-08
  -1.94499996E-02   6.13089597E-08
  -1.94000006E-02   6.30286650E-08
  -1.93499997E-02   6.48026557E-08
  -1.93000007E-02   6.66299016E-08
  -1.92499999E-02   6.85071342E-08
  -1.92000009E-02   7.04307936E-08
  -1.91500001E-02   7.23992102E-08
  -1.90999992E-02   7.44139115E-08
  -1.90500002E-02   7.64796084E-08
  -1.89999994E-02   7.86027528E-08
  -1.89500004E-02   8.07894054E-08
  -1.88999996E-02   8.30431901E-08
  -1.88500006E-02   8.53644266E-08
  -1.87999997E-02   8.77506068E-08
  -1.87500007E-02   9.01981707E-08
  -1.86999999E-02   9.27047594E-08
  -1.86500009E-02   9.52709343E-08
  -1.86000001E-02   9.79006813E-08
  -1.85499992E-02   1.00600388E-07
  -1.85000002E-02   1.03376834E-07
  -1.84499994E-02   1.06234992E-07
  -1.84000004E-02   1.09176632E-07
  -1.83499996E-02   1.12200311E-07
  -1.83000006E-02   1.15302811E-07
  -1.82499997E-02   1.18481296E-07
  -1.82000007E-02   1.21735440E-07
  -1.81499999E-02   1.25068382E-07
  -1.81000009E-02   1.28486221E-07
  -1.80500001E-02   1.31996259E-07
  -1.79999992E-02   1.35604751E-07
  -1.79500002E-02   1.39315048E-07
  -1.78999994E-02   1.43127082E-07
  -1.78500004E-02   1.47038307E-07
  -1.77999996E-02   1.51045825E-07
  -1.77500006E-02   1.55148527E-07
  -1.76999997E-02   1.59348659E-07
  -1.76500008E-02   1.63651848E-07
  -1.75999999E-02   1.68065711E-07
  -1.75500009E-02   1.72597638E-07
  -1.75000001E-02   1.77252630E-07
  -1.74499992E-02   1.82032238E-07
  -1.74000002E-02   1.86935083E-07
  -1.73499994E-02   1.91958463E-07
  -1.73000004E-02   1.97100803E-07
  -1.72499996E-02   2.02363537E-07
  -1.72000006E-02   2.07751654E-07
  -1.71499997E-02   2.13272898E-07
  -1.71000008E-02   2.18935682E-07
  -1.70499999E-02   2.24746799E-07
  -1.70000009E-02   2.30709745E-07
  -1.69500001E-02   2.36824647E-07
  -1.68999992E-02   2.43089602E-07
  -1.68500002E-02   2.49502847E-07
  -1.67999994E-02   2.56065192E-07
  -1.67500004E-02   2.62780958E-07
  -1.66999996E-02   2.69657846E-07
  -1.66500006E-02   2.76705038E-07
  -1.65999997E-02   2.83930916E-07
  -1.65500008E-02   2.91341081E-07
  -1.64999999E-02   2.98937607E-07
  -1.64500009E-02   3.06719727E-07
  -1.64000001E-02   3.14686048E-07
  -1.63499992E-02   3.22836883E-07
  -1.63000003E-02   3.31175926E-07
  -1.62499994E-02   3.39710539E-07
  -1.62000004E-02   3.48450499E-07
  -1.61499996E-02   3.57405753E-07
  -1.61000006E-02   3.66583976E-07
  -1.60499997E-02   3.75989430E-07
  -1.60000008E-02   3.85622997E-07
  -1.59499999E-02   3.95484051E-07
  -1.59000009E-02   4.05572649E-07
  -1.58500001E-02   4.15891947E-07
  -1.57999992E-02   4.26448850E-07
  -1.57500003E-02   4.37253391E-07
  -1.56999994E-02   4.48316683E-07
  -1.56500004E-02   4.59648561E-07
  -1.55999996E-02   4.71255532E-07
  -1.55499997E-02   4.83140411E-07
  -1.54999997E-02   4.95303539E-07
  -1.54499998E-02   5.07745256E-07
  -1.53999999E-02   5.20468120E-07
  -1.53500000E-02   5.33478271E-07
  -1.53000001E-02   5.46785941E-07
  -1.52500002E-02   5.60403123E-07
  -1.52000003E-02   5.74341584E-07
  -1.51500003E-02   5.88610192E-07
  -1.51000004E-02   6.03213891E-07
  -1.50499996E-02   6.18154615E-07
  -1.49999997E-02   6.33432933E-07
  -1.49499997E-02   6.49051003E-07
  -1.48999998E-02   6.65014397E-07
  -1.48499999E-02   6.81332892E-07
  -1.48000000E-02   6.98019221E-07
  -1.47500001E-02   7.15086685E-07
  -1.47000002E-02   7.32546425E-07
  -1.46500003E-02   7.50405889E-07
  -1.46000003E-02   7.68668599E-07
  -1.45500004E-02   7.87336035E-07
  -1.44999996E-02   8.06410071E-07
  -1.44499997E-02   8.25895768E-07
  -1.43999998E-02   8.45802219E-07
  -1.43499998E-02   8.66142614E-07
  -1.42999999E-02   8.86931389E-07
  -1.42500000E-02   9.08181789E-07
  -1.42000001E-02   9.29903422E-07
  -1.41500002E-02   9.52102198E-07
  -1.41000003E-02   9.74780846E-07
  -1.40500003E-02   9.97941356E-07
  -1.40000004E-02   1.02158810E-06
  -1.39499996E-02   1.04572996E-06
  -1.38999997E-02   1.07037943E-06
  -1.38499998E-02   1.09555208E-06
  -1.37999998E-02   1.12126315E-06
  -1.37499999E-02   1.14752493E-06
  -1.37000000E-02   1.17434524E-06
  -1.36500001E-02   1.20172854E-06
  -1.36000002E-02   1.22967731E-06
  -1.35500003E-02   1.25819531E-06
  -1.35000004E-02   1.28729084E-06
  -1.34500004E-02   1.31697630E-06
  -1.33999996E-02   1.34726758E-06
  -1.33499997E-02   1.37818199E-06
  -1.32999998E-02   1.40973407E-06
  -1.32499998E-02   1.44193427E-06
  -1.31999999E-02   1.47478875E-06
  -1.31500000E-02   1.50830090E-06
  -1.31000001E-02   1.54247471E-06
  -1.30500002E-02   1.57731756E-06
  -1.30000003E-02   1.61284174E-06
  -1.29500004E-02   1.64906362E-06
  -1.29000004E-02   1.68600161E-06
  -1.28499996E-02   1.72367299E-06
  -1.27999997E-02   1.76209051E-06
  -1.27499998E-02   1.80126290E-06
  -1.26999998E-02   1.84119494E-06
  -1.26499999E-02   1.88189085E-06
  -1.26000000E-02   1.92335756E-06
  -1.25500001E-02   1.96560677E-06
  -1.25000002E-02   2.00865566E-06
  -1.24500003E-02   2.05252309E-06
  -1.24000004E-02   2.09722862E-06
  -1.23500004E-02   2.14278771E-06
  -1.22999996E-02   2.18921150E-06
  -1.22499997E-02   2.23650659E-06
  -1.21999998E-02   2.28467843E-06
  -1.21499998E-02   2.33373362E-06
  -1.20999999E-02   2.38368420E-06
  -1.20500000E-02   2.43454656E-06
  -1.20000001E-02   2.48634183E-06
  -1.19500002E-02   2.53909093E-06
  -1.19000003E-02   2.59281182E-06
  -1.18500004E-02   2.64751839E-06
  -1.18000004E-02   2.70321948E-06
  -1.17499996E-02   2.75992056E-06
  -1.16999997E-02   2.81762891E-06
  -1.16499998E-02   2.87635544E-06
  -1.15999999E-02   2.93611652E-06
  -1.15499999E-02   2.99693329E-06
  -1.15000000E-02   3.05882918E-06
  -1.14500001E-02   3.12182533E-06
  -1.14000002E-02   3.18593743E-06
  -1.13500003E-02   3.25117730E-06
  -1.13000004E-02   3.31755200E-06
  -1.12500004E-02   3.38506970E-06
  -1.11999996E-02   3.45374065E-06
  -1.11499997E-02   3.52358097E-06
  -1.10999998E-02   3.59461205E-06
  -1.10499999E-02   3.66685754E-06
  -1.09999999E-02   3.74034084E-06
  -1.09500000E-02   3.81508016E-06
  -1.09000001E-02   3.89108891E-06
  -1.08500002E-02   3.96837595E-06
  -1.08000003E-02   4.04694720E-06
  -1.07500004E-02   4.12681447E-06
  -1.07000005E-02   4.20799188E-06
  -1.06499996E-02   4.29050124E-06
  -1.05999997E-02   4.37436802E-06
  -1.05499998E-02   4.45961632E-06
  -1.04999999E-02   4.54626752E-06
  -1.04499999E-02   4.63433798E-06
  -1.04000000E-02   4.72383635E-06
  -1.03500001E-02   4.81477127E-06
  -1.03000002E-02   4.90715183E-06
  -1.02500003E-02   5.00099304E-06
  -1.02000004E-02   5.09631445E-06
  -1.01500005E-02   5.19314062E-06
  -1.00999996E-02   5.29149702E-06
  -1.00499997E-02   5.39140683E-06
  -9.99999978E-03   5.49288643E-06
  -9.94999986E-03   5.59594719E-06
  -9.89999995E-03   5.70059728E-06
  -9.85000003E-03   5.80684491E-06
  -9.80000012E-03   5.91470189E-06
  -9.75000020E-03   6.02418686E-06
  -9.70000029E-03   6.13532393E-06
  -9.65000037E-03   6.24813856E-06
  -9.60000046E-03   6.36265486E-06
  -9.54999961E-03   6.47889010E-06
  -9.49999969E-03   6.59685702E-06
  -9.44999978E-03   6.71656426E-06
  -9.39999986E-03   6.83801773E-06
  -9.34999995E-03   6.96122879E-06
  -9.30000003E-03   7.08621428E-06
  -9.25000012E-03   7.21299511E-06
  -9.20000020E-03   7.34159812E-06
  -9.15000029E-03   7.47204786E-06
  -9.10000037E-03   7.60436251E-06
  -9.05000046E-03   7.73855390E-06
  -8.99999961E-03   7.87462886E-06
  -8.94999970E-03   8.01259102E-06
  -8.89999978E-03   8.15244857E-06
  -8.84999987E-03   8.29421424E-06
  -8.79999995E-03   8.43790713E-06
  -8.75000004E-03   8.58354997E-06
  -8.70000012E-03   8.73116642E-06
  -8.65000021E-03   8.88077648E-06
  -8.60000029E-03   9.03239015E-06
  -8.55000038E-03   9.18601290E-06
  -8.50000046E-03   9.34164655E-06
  -8.44999962E-03   9.49929563E-06
  -8.39999970E-03   9.65897016E-06
  -8.34999979E-03   9.82068468E-06
  -8.29999987E-03   9.98446285E-06
  -8.24999996E-03   1.01503229E-05
  -8.20000004E-03   1.03182847E-05
  -8.15000013E-03   1.04883557E-05
  -8.10000021E-03   1.06605430E-05
  -8.05000030E-03   1.08348431E-05
  -8.00000038E-03   1.10112560E-05
  -7.95000046E-03   1.11897880E-05
  -7.89999962E-03   1.13704455E-05
  -7.84999970E-03   1.15532484E-05
  -7.79999979E-03   1.17382124E-05
  -7.74999987E-03   1.19253518E-05
  -7.69999996E-03   1.21146750E-05
  -7.65000004E-03   1.23061818E-05
  -7.60000013E-03   1.24998669E-05
  -7.55000021E-03   1.26957248E-05
  -7.49999983E-03   1.28937518E-05
  -7.44999992E-03   1.30939516E-05
  -7.40000000E-03   1.32963360E-05
  -7.35000009E-03   1.35009177E-05
  -7.30000017E-03   1.37077077E-05
  -7.24999979E-03   1.39167114E-05
  -7.19999988E-03   1.41279261E-05
  -7.14999996E-03   1.43413408E-05
  -7.10000005E-03   1.45569411E-05
  -7.05000013E-03   1.47747169E-05
  -7.00000022E-03   1.49946663E-05
  -6.94999984E-03   1.52167886E-05
  -6.89999992E-03   1.54410918E-05
  -6.85000001E-03   1.56675851E-05
  -6.80000009E-03   1.58962666E-05
  -6.75000018E-03   1.61271255E-05
  -6.69999979E-03   1.63601471E-05
  -6.64999988E-03   1.65953079E-05
  -6.59999996E-03   1.68325878E-05
  -6.55000005E-03   1.70719741E-05
  -6.50000013E-03   1.73134576E-05
  -6.45000022E-03   1.75570367E-05
  -6.39999984E-03   1.78027112E-05
  -6.34999992E-03   1.80504740E-05
  -6.30000001E-03   1.83003103E-05
  -6.25000009E-03   1.85521949E-05
  -6.20000018E-03   1.88060931E-05
  -6.14999980E-03   1.90619758E-05
  -6.09999988E-03   1.93198157E-05
  -6.04999997E-03   1.95795965E-05
  -6.00000005E-03   1.98413072E-05
  -5.95000014E-03   2.01049352E-05
  -5.90000022E-03   2.03704712E-05
  -5.84999984E-03   2.06378845E-05
  -5.79999993E-03   2.09071441E-05
  -5.75000001E-03   2.11782062E-05
  -5.70000010E-03   2.14510292E-05
  -5.65000018E-03   2.17255674E-05
  -5.59999980E-03   2.20017901E-05
  -5.54999989E-03   2.22796752E-05
  -5.49999997E-03   2.25592012E-05
  -5.45000006E-03   2.28403424E-05
  -5.40000014E-03   2.31230624E-05
  -5.35000023E-03   2.34073177E-05
  -5.29999984E-03   2.36930482E-05
  -5.24999993E-03   2.39801993E-05
  -5.20000001E-03   2.42687092E-05
  -5.15000010E-03   2.45585343E-05
  -5.10000018E-03   2.48496326E-05
  -5.04999980E-03   2.51419751E-05
  -4.99999989E-03   2.54355200E-05
  -4.94999997E-03   2.57302236E-05
  -4.90000006E-03   2.60260222E-05
  -4.85000014E-03   2.63228503E-05
  -4.80000023E-03   2.66206316E-05
  -4.74999985E-03   2.69192897E-05
  -4.69999993E-03   2.72187626E-05
  -4.65000002E-03   2.75189923E-05
  -4.60000010E-03   2.78199295E-05
  -4.55000019E-03   2.81215216E-05
  -4.49999981E-03   2.84237085E-05
  -4.44999989E-03   2.87264156E-05
  -4.39999998E-03   2.90295520E-05
  -4.35000006E-03   2.93330286E-05
  -4.30000015E-03   2.96367489E-05
  -4.25000023E-03   2.99406329E-05
  -4.19999985E-03   3.02446024E-05
  -4.14999994E-03   3.05485883E-05
  -4.10000002E-03   3.08525196E-05
  -4.05000011E-03   3.11563272E-05
  -4.00000019E-03   3.14599092E-05
  -3.94999981E-03   3.17631675E-05
  -3.89999989E-03   3.20659856E-05
  -3.84999998E-03   3.23682470E-05
  -3.80000006E-03   3.26698464E-05
  -3.74999992E-03   3.29706891E-05
  -3.70000000E-03   3.32706841E-05
  -3.65000009E-03   3.35697514E-05
  -3.59999994E-03   3.38677819E-05
  -3.55000002E-03   3.41646810E-05
  -3.50000011E-03   3.44603141E-05
  -3.44999996E-03   3.47545538E-05
  -3.40000005E-03   3.50472546E-05
  -3.34999990E-03   3.53382929E-05
  -3.29999998E-03   3.56275450E-05
  -3.25000007E-03   3.59148944E-05
  -3.19999992E-03   3.62002393E-05
  -3.15000000E-03   3.64834596E-05
  -3.10000009E-03   3.67644316E-05
  -3.04999994E-03   3.70430062E-05
  -3.00000003E-03   3.73190232E-05
  -2.95000011E-03   3.75923264E-05
  -2.89999996E-03   3.78627483E-05
  -2.85000005E-03   3.81301434E-05
  -2.79999990E-03   3.83943843E-05
  -2.74999999E-03   3.86553329E-05
  -2.70000007E-03   3.89128581E-05
  -2.64999992E-03   3.91668109E-05
  -2.60000001E-03   3.94170202E-05
  -2.55000009E-03   3.96633041E-05
  -2.49999994E-03   3.99054734E-05
  -2.45000003E-03   4.01433390E-05
  -2.40000011E-03   4.03767262E-05
  -2.34999997E-03   4.06054714E-05
  -2.30000005E-03   4.08294218E-05
  -2.24999990E-03   4.10484208E-05
  -2.19999999E-03   4.12623049E-05
  -2.15000007E-03   4.14708738E-05
  -2.09999993E-03   4.16739240E-05
  -2.05000001E-03   4.18712334E-05
  -2.00000009E-03   4.20625838E-05
  -1.94999995E-03   4.22477679E-05
  -1.90000003E-03   4.24265963E-05
  -1.85000000E-03   4.25988837E-05
  -1.79999997E-03   4.27644554E-05
  -1.75000005E-03   4.29231113E-05
  -1.70000002E-03   4.30746513E-05
  -1.64999999E-03   4.32188317E-05
  -1.59999996E-03   4.33554087E-05
  -1.55000004E-03   4.34841277E-05
  -1.50000001E-03   4.36047558E-05
  -1.44999998E-03   4.37170675E-05
  -1.39999995E-03   4.38208554E-05
  -1.35000004E-03   4.39159157E-05
  -1.30000000E-03   4.40020340E-05
  -1.24999997E-03   4.40789772E-05
  -1.20000006E-03   4.41464872E-05
  -1.15000003E-03   4.42042874E-05
  -1.09999999E-03   4.42521014E-05
  -1.04999996E-03   4.42896562E-05
  -1.00000005E-03   4.43166937E-05
  -9.50000016E-04   4.43329773E-05
  -8.99999985E-04   4.43382742E-05
  -8.50000011E-04   4.43323552E-05
  -7.99999980E-04   4.43149584E-05
  -7.50000007E-04   4.42858036E-05
  -6.99999975E-04   4.42445926E-05
  -6.50000002E-04   4.41910088E-05
  -6.00000028E-04   4.41247503E-05
  -5.49999997E-04   4.40455260E-05
  -5.00000024E-04   4.39530704E-05
  -4.49999992E-04   4.38471288E-05
  -3.99999990E-04   4.37274430E-05
  -3.49999988E-04   4.35937363E-05
  -3.00000014E-04   4.34457106E-05
  -2.50000012E-04   4.32830420E-05
  -1.99999995E-04   4.31053959E-05
  -1.50000007E-04   4.29124302E-05
  -9.99999975E-05   4.27038249E-05
  -4.99999987E-05   4.24792852E-05
   0.00000000       4.22385310E-05
   4.99999987E-05   4.19812859E-05
   9.99999975E-05   4.17072551E-05
   1.50000007E-04   4.14161223E-05
   1.99999995E-04   4.11075416E-05
   2.50000012E-04   4.07811531E-05
   3.00000014E-04   4.04365856E-05
   3.49999988E-04   4.00734934E-05
   3.99999990E-04   3.96915530E-05
   4.49999992E-04   3.92904476E-05
   5.00000024E-04   3.88698827E-05
   5.49999997E-04   3.84295563E-05
   6.00000028E-04   3.79691373E-05
   6.50000002E-04   3.74882657E-05
   6.99999975E-04   3.69865556E-05
   7.50000007E-04   3.64636180E-05
   7.99999980E-04   3.59190781E-05
   8.50000011E-04   3.53525829E-05
   8.99999985E-04   3.47638052E-05
   9.50000016E-04   3.41524355E-05
   1.00000005E-03   3.35181576E-05
   1.04999996E-03   3.28606257E-05
   1.09999999E-03   3.21794651E-05
   1.15000003E-03   3.14742865E-05
   1.20000006E-03   3.07446753E-05
   1.24999997E-03   2.99902404E-05
   1.30000000E-03   2.92106070E-05
   1.35000004E-03   2.84054258E-05
   1.39999995E-03   2.75743678E-05
   1.44999998E-03   2.67171072E-05
   1.50000001E-03   2.58332984E-05
   1.55000004E-03   2.49225723E-05
   1.59999996E-03   2.39845212E-05
   1.64999999E-03   2.30187325E-05
   1.70000002E-03   2.20247894E-05
   1.75000005E-03   2.10022918E-05
   1.79999997E-03   1.99508831E-05
   1.85000000E-03   1.88702234E-05
   1.90000003E-03   1.77599813E-05
   1.94999995E-03   1.66198170E-05
   2.00000009E-03   1.54493682E-05
   2.05000001E-03   1.42482286E-05
   2.09999993E-03   1.30159788E-05
   2.15000007E-03   1.17521950E-05
   2.19999999E-03   1.04564742E-05
   2.24999990E-03   9.12844189E-06
   2.30000005E-03   7.76775778E-06
   2.34999997E-03   6.37409266E-06
   2.40000011E-03   4.94711321E-06
   2.45000003E-03   3.48646631E-06
   2.49999994E-03   1.99176429E-06
   2.55000009E-03   4.62591970E-07
   2.60000001E-03  -1.10147539E-06
   2.64999992E-03  -2.70084456E-06
   2.70000007E-03  -4.33589366E-06
   2.74999999E-03  -6.00696649E-06
   2.79999990E-03  -7.71438044E-06