  -3.99999991E-02   0.00000000    
  -3.99499983E-02   0.00000000    
  -3.99000011E-02   0.00000000    
  -3.98500003E-02   0.00000000    
  -3.97999994E-02   1.03598375E-19
  -3.97499986E-02   9.14868685E-19
  -3.97000015E-02   4.08899530E-18
  -3.96500006E-02   1.21610414E-17
  -3.95999998E-02   2.63460400E-17
  -3.95499989E-02   4.18660394E-17
  -3.95000018E-02   4.27900663E-17
  -3.94500010E-02   1.13525173E-18
  -3.94000001E-02  -1.14432616E-16
  -3.93499993E-02  -3.18781114E-16
  -3.92999984E-02  -5.85918630E-16
  -3.92500013E-02  -8.34978239E-16
  -3.92000005E-02  -9.43666701E-16
  -3.91499996E-02  -7.96639781E-16
  -3.90999988E-02  -3.55577046E-16
  -3.90500017E-02   2.84269816E-16
  -3.90000008E-02   8.94059158E-16
  -3.89500000E-02   1.19252435E-15
  -3.88999991E-02   9.90718640E-16
  -3.88499983E-02   3.36342119E-16
  -3.88000011E-02  -4.28026130E-16
  -3.87500003E-02  -7.54396765E-16
  -3.86999995E-02  -1.20241343E-16
  -3.86499986E-02   1.68887030E-15
  -3.86000015E-02   4.38948652E-15
  -3.85500006E-02   7.23614572E-15
  -3.84999998E-02   9.32578362E-15
  -3.84499989E-02   1.00743473E-14
  -3.84000018E-02   9.64580368E-15
  -3.83500010E-02   9.08105717E-15
  -3.83000001E-02   9.97641080E-15
  -3.82499993E-02   1.37743608E-14
  -3.81999984E-02   2.09580735E-14
  -3.81500013E-02   3.05582619E-14
  -3.81000005E-02   4.02989172E-14
  -3.80499996E-02   4.74345803E-14
  -3.79999988E-02   4.99807071E-14
  -3.79500017E-02   4.77821687E-14
  -3.79000008E-02   4.28508445E-14
  -3.78500000E-02   3.86774522E-14
  -3.77999991E-02   3.86937627E-14
  -3.77499983E-02   4.45209563E-14
  -3.77000012E-02   5.48496016E-14
  -3.76500003E-02   6.56044297E-14
  -3.75999995E-02   7.14887540E-14
  -3.75499986E-02   6.83179845E-14
  -3.75000015E-02   5.50825763E-14
  -3.74500006E-02   3.46981863E-14
  -3.73999998E-02   1.29451537E-14
  -3.73499990E-02  -4.06011987E-15
  -3.73000018E-02  -1.27805464E-14
  -3.72500010E-02  -1.42128402E-14
  -3.72000001E-02  -1.38971501E-14
  -3.71499993E-02  -1.98555416E-14
  -3.70999984E-02  -3.92991439E-14
  -3.70500013E-02  -7.55536177E-14
  -3.70000005E-02  -1.26588274E-13
  -3.69499996E-02  -1.85798195E-13
  -3.68999988E-02  -2.44635665E-13
  -3.68500017E-02  -2.95853646E-13
  -3.68000008E-02  -3.35934703E-13
  -3.67500000E-02  -3.65799865E-13
  -3.66999991E-02  -3.89798789E-13
  -3.66499983E-02  -4.13743340E-13
  -3.66000012E-02  -4.42969663E-13
  -3.65500003E-02  -4.81053782E-13
  -3.64999995E-02  -5.29181787E-13
  -3.64499986E-02  -5.85760173E-13
  -3.64000015E-02  -6.45963534E-13
  -3.63500006E-02  -7.01489106E-13
  -3.62999998E-02  -7.41372296E-13
  -3.62499990E-02  -7.54711723E-13
  -3.62000018E-02  -7.35227092E-13
  -3.61500010E-02  -6.86024100E-13
  -3.61000001E-02  -6.21684128E-13
  -3.60499993E-02  -5.64955201E-13
  -3.59999985E-02  -5.37449100E-13
  -3.59500013E-02  -5.47236139E-13
  -3.59000005E-02  -5.79317247E-13
  -3.58499996E-02  -5.95538972E-13
  -3.57999988E-02  -5.47366243E-13
  -3.57500017E-02  -3.98696917E-13
  -3.57000008E-02  -1.49287470E-13
  -3.56500000E-02   1.53955489E-13
  -3.55999991E-02   4.27706617E-13
  -3.55499983E-02   5.85654355E-13
  -3.55000012E-02   5.83102577E-13
  -3.54500003E-02   4.51923248E-13
  -3.53999995E-02   3.04600068E-13
  -3.53499986E-02   2.97065432E-13
  -3.53000015E-02   5.59315344E-13
  -3.52500007E-02   1.12202326E-12
  -3.51999998E-02   1.87621750E-12
  -3.51499990E-02   2.59446653E-12
  -3.51000018E-02   3.01656703E-12
  -3.50500010E-02   2.97018226E-12
  -3.50000001E-02   2.47269241E-12
  -3.49499993E-02   1.75896353E-12
  -3.48999985E-02   1.20627662E-12
  -3.48500013E-02   1.17417046E-12
  -3.48000005E-02   1.82349665E-12
  -3.47499996E-02   3.00166836E-12
  -3.46999988E-02   4.26375341E-12
  -3.46500017E-02   5.04316424E-12
  -3.46000008E-02   4.91272821E-12
  -3.45500000E-02   3.82101989E-12
  -3.44999991E-02   2.18138051E-12
  -3.44499983E-02   7.44137011E-13
  -3.44000012E-02   2.79569255E-13
  -3.43500003E-02   1.19852587E-12
  -3.42999995E-02   3.28957001E-12
  -3.42499986E-02   5.72235011E-12
  -3.42000015E-02   7.35813147E-12
  -3.41500007E-02   7.26188554E-12
  -3.40999998E-02   5.19353137E-12
  -3.40499990E-02   1.83189184E-12
  -3.40000018E-02  -1.42006816E-12
  -3.39500010E-02  -3.01545269E-12
  -3.39000002E-02  -2.00004748E-12
  -3.38499993E-02   1.43478404E-12
  -3.37999985E-02   5.88175342E-12
  -3.37500013E-02   9.23371535E-12
  -3.37000005E-02   9.61590703E-12
  -3.36499996E-02   6.33529861E-12
  -3.35999988E-02   3.83899347E-13
  -3.35500017E-02  -5.81220619E-12
  -3.35000008E-02  -9.37859079E-12
  -3.34500000E-02  -8.33095398E-12
  -3.33999991E-02  -2.66044803E-12
  -3.33499983E-02   5.39667573E-12
  -3.33000012E-02   1.21432794E-11
  -3.32500003E-02   1.40147486E-11
  -3.31999995E-02   9.31154806E-12
  -3.31499986E-02  -7.51645545E-13
  -3.31000015E-02  -1.22736925E-11
  -3.30500007E-02  -2.02187433E-11
  -3.29999998E-02  -2.07027763E-11
  -3.29499990E-02  -1.29983429E-11
  -3.29000019E-02  -2.55609742E-13
  -3.28500010E-02   1.15600030E-11
  -3.28000002E-02   1.62094869E-11
  -3.27499993E-02   1.01465850E-11
  -3.26999985E-02  -5.47260761E-12
  -3.26500013E-02  -2.48143277E-11
  -3.26000005E-02  -3.96443572E-11
  -3.25499997E-02  -4.30141339E-11
  -3.24999988E-02  -3.27391864E-11
  -3.24500017E-02  -1.29742510E-11
  -3.24000008E-02   7.08064293E-12
  -3.23500000E-02   1.70343253E-11
  -3.22999991E-02   1.01464306E-11
  -3.22499983E-02  -1.30580928E-11
  -3.22000012E-02  -4.42632805E-11
  -3.21500003E-02  -7.05014658E-11
  -3.20999995E-02  -7.98374492E-11
  -3.20499986E-02  -6.71425276E-11
  -3.20000015E-02  -3.72082261E-11
  -3.19500007E-02  -3.44233084E-12
  -3.18999998E-02   1.76755919E-11
  -3.18499990E-02   1.41575302E-11
  -3.18000019E-02  -1.53176898E-11
  -3.17500010E-02  -5.96985794E-11
  -3.17000002E-02  -9.95763264E-11
  -3.16499993E-02  -1.15567583E-10
  -3.15999985E-02  -9.74998762E-11
  -3.15500014E-02  -5.01106309E-11
  -3.15000005E-02   7.77898839E-12
  -3.14499997E-02   5.08391558E-11
  -3.13999988E-02   5.85938867E-11
  -3.13500017E-02   2.55369163E-11
  -3.13000008E-02  -3.49050060E-11
  -3.12500000E-02  -9.49970588E-11
  -3.11999992E-02  -1.24495553E-10
  -3.11500002E-02  -1.04682242E-10
  -3.10999993E-02  -3.81973342E-11
  -3.10500003E-02   5.03452141E-11
  -3.09999995E-02   1.24055252E-10
  -3.09500005E-02   1.50091314E-10
  -3.08999997E-02   1.15477232E-10
  -3.08500007E-02   3.49028237E-11
  -3.07999998E-02  -5.38526099E-11
  -3.07500008E-02  -1.05762468E-10
  -3.07000000E-02  -8.91409377E-11
  -3.06499992E-02  -1.67491227E-12
  -3.06000002E-02   1.26025301E-10
  -3.05499993E-02   2.42054266E-10
  -3.05000003E-02   2.95789976E-10
  -3.04499995E-02   2.61697386E-10
  -3.04000005E-02   1.53272381E-10
  -3.03499997E-02   1.97904974E-11
  -3.03000007E-02  -7.39776226E-11
  -3.02499998E-02  -7.69087363E-11
  -3.02000009E-02   2.34473881E-11
  -3.01500000E-02   1.92010546E-10
  -3.00999992E-02   3.58879509E-10
  -3.00500002E-02   4.49309090E-10
  -2.99999993E-02   4.18234669E-10
  -2.99500003E-02   2.73530948E-10
  -2.98999995E-02   7.62758884E-11
  -2.98500005E-02  -8.38218314E-11
  -2.97999997E-02  -1.28192346E-10
  -2.97500007E-02  -2.69132546E-11
  -2.96999998E-02   1.83722634E-10
  -2.96500009E-02   4.13232587E-10
  -2.96000000E-02   5.55093971E-10
  -2.95499992E-02   5.35109290E-10
  -2.95000002E-02   3.48177348E-10
  -2.94499993E-02   6.55230176E-11
  -2.94000003E-02  -1.93054753E-10
  -2.93499995E-02  -3.11439985E-10
  -2.93000005E-02  -2.31347927E-10
  -2.92499997E-02   1.66869279E-11
  -2.92000007E-02   3.21469323E-10
  -2.91499998E-02   5.37311917E-10
  -2.91000009E-02   5.49326751E-10
  -2.90500000E-02   3.28796518E-10
  -2.89999992E-02  -4.77432677E-11
  -2.89500002E-02  -4.26971930E-10
  -2.88999993E-02  -6.44727938E-10
  -2.88500004E-02  -6.01301842E-10
  -2.87999995E-02  -3.11783765E-10
  -2.87500005E-02   9.34808342E-11
  -2.86999997E-02   4.21747970E-10
  -2.86500007E-02   5.02981712E-10
  -2.85999998E-02   2.69872208E-10
  -2.85500009E-02  -2.04573039E-10
  -2.85000000E-02  -7.31908534E-10
  -2.84499992E-02  -1.08799048E-09
  -2.84000002E-02  -1.11412313E-09
  -2.83499993E-02  -7.94203758E-10
  -2.83000004E-02  -2.70767103E-10
  -2.82499995E-02   2.11196227E-10
  -2.82000005E-02   4.11092493E-10
  -2.81499997E-02   2.04002981E-10
  -2.81000007E-02  -3.54669488E-10
  -2.80499998E-02  -1.04376974E-09
  -2.80000009E-02  -1.56815871E-09
  -2.79500000E-02  -1.68995973E-09
  -2.78999992E-02  -1.34116385E-09
  -2.78500002E-02  -6.64678590E-10
  -2.77999993E-02   3.92095384E-11
  -2.77500004E-02   4.41779002E-10
  -2.76999995E-02   3.35256517E-10
  -2.76500005E-02  -2.64850641E-10
  -2.75999997E-02  -1.11414244E-09
  -2.75500007E-02  -1.83844229E-09
  -2.74999999E-02  -2.09798290E-09
  -2.74500009E-02  -1.74491599E-09
  -2.74000000E-02  -9.01507868E-10
  -2.73499992E-02   8.12038770E-11
  -2.73000002E-02   7.71855080E-10
  -2.72499993E-02   8.52070969E-10
  -2.72000004E-02   2.68475464E-10
  -2.71499995E-02  -7.28478222E-10
  -2.71000005E-02  -1.68270597E-09
  -2.70499997E-02  -2.13006546E-09
  -2.70000007E-02  -1.81014115E-09
  -2.69499999E-02  -7.96085198E-10
  -2.69000009E-02   5.21178822E-10
  -2.68500000E-02   1.59477642E-09
  -2.67999992E-02   1.96333905E-09
  -2.67500002E-02   1.46587253E-09
  -2.66999993E-02   3.30503819E-10
  -2.66500004E-02  -9.09879505E-10
  -2.65999995E-02  -1.64539216E-09
  -2.65500005E-02  -1.46361379E-09
  -2.64999997E-02  -3.47852441E-10
  -2.64500007E-02   1.29507838E-09
  -2.63999999E-02   2.79876522E-09
  -2.63500009E-02   3.52759000E-09
  -2.63000000E-02   3.16750381E-09
  -2.62499992E-02   1.88467308E-09
  -2.62000002E-02   2.73219058E-10
  -2.61499994E-02  -8.94485708E-10
  -2.61000004E-02  -1.01088815E-09
  -2.60499995E-02   8.19420642E-11
  -2.60000005E-02   1.99820849E-09
  -2.59499997E-02   3.95697386E-09
  -2.59000007E-02   5.11748999E-09
  -2.58499999E-02   4.95770847E-09
  -2.58000009E-02   3.52596419E-09
  -2.57500000E-02   1.44546597E-09
  -2.56999992E-02  -3.42065404E-10
  -2.56500002E-02  -9.89369031E-10
  -2.55999994E-02  -1.32971578E-10
  -2.55500004E-02   1.91901073E-09
  -2.54999995E-02   4.29517888E-09
  -2.54500005E-02   5.92976557E-09
  -2.53999997E-02   6.03672801E-09
  -2.53500007E-02   4.47875115E-09
  -2.52999999E-02   1.85899851E-09
  -2.52500009E-02  -7.18593907E-10
  -2.52000000E-02  -2.12681273E-09
  -2.51499992E-02  -1.72473169E-09
  -2.51000002E-02   3.30136501E-10
  -2.50499994E-02   3.11737902E-09
  -2.50000004E-02   5.33632027E-09
  -2.49499995E-02   5.87789595E-09
  -2.49000005E-02   4.33518288E-09
  -2.48499997E-02   1.21874710E-09
  -2.48000007E-02  -2.23364571E-09
  -2.47499999E-02  -4.58461225E-09
  -2.47000009E-02  -4.83802243E-09
  -2.46500000E-02  -2.90813973E-09
  -2.45999992E-02   3.02650877E-10
  -2.45500002E-02   3.26961147E-09
  -2.44999994E-02   4.50864679E-09
  -2.44500004E-02   3.24952976E-09
  -2.43999995E-02  -1.84556218E-10
  -2.43500005E-02  -4.47527970E-09
  -2.42999997E-02  -7.86120680E-09
  -2.42500007E-02  -8.91349394E-09
  -2.41999999E-02  -7.19427273E-09
  -2.41500009E-02  -3.49541729E-09
  -2.41000000E-02   4.67821504E-10
  -2.40499992E-02   2.79282042E-09
  -2.40000002E-02   2.24091035E-09
  -2.39499994E-02  -1.17546783E-09
  -2.39000004E-02  -6.14576567E-09
  -2.38499995E-02  -1.05980451E-08
  -2.38000005E-02  -1.26012987E-08
  -2.37499997E-02  -1.12412906E-08
  -2.37000007E-02  -7.07368875E-09
  -2.36499999E-02  -1.93280236E-09
  -2.36000009E-02   1.84406679E-09
  -2.35500000E-02   2.45059817E-09
  -2.34999992E-02  -5.52065949E-10
  -2.34500002E-02  -5.98149974E-09
  -2.33999994E-02  -1.15007746E-08
  -2.33500004E-02  -1.46243835E-08
  -2.32999995E-02  -1.38314933E-08
  -2.32500006E-02  -9.28906996E-09
  -2.31999997E-02  -2.84347901E-09
  -2.31500007E-02   2.74469425E-09
  -2.30999999E-02   5.00773778E-09
  -2.30500009E-02   2.89340818E-09
  -2.30000000E-02  -2.70602496E-09
  -2.29499992E-02  -9.27987820E-09
  -2.29000002E-02  -1.37667993E-08
  -2.28499994E-02  -1.39121221E-08
  -2.28000004E-02  -9.31473298E-09
  -2.27499995E-02  -1.67994840E-09
  -2.27000006E-02   5.86615645E-09
  -2.26499997E-02   1.01283906E-08
  -2.26000007E-02   9.27704757E-09
  -2.25499999E-02   3.72274744E-09
  -2.25000009E-02  -3.98370625E-09
  -2.24500000E-02  -1.02185158E-08
  -2.23999992E-02  -1.18754784E-08
  -2.23500002E-02  -7.78389087E-09
  -2.22999994E-02   6.90846713E-10
  -2.22500004E-02   1.01649222E-08
  -2.21999995E-02   1.66810388E-08
  -2.21500006E-02   1.74650499E-08
  -2.20999997E-02   1.22155699E-08
  -2.20500007E-02   3.32906214E-09
  -2.19999999E-02  -5.08012432E-09
  -2.19500009E-02  -8.96830876E-09
  -2.19000001E-02  -6.18471230E-09
  -2.18499992E-02   2.49104715E-09
  -2.18000002E-02   1.35914560E-08
  -2.17499994E-02   2.24210623E-08
  -2.17000004E-02   2.51213681E-08
  -2.16499995E-02   2.04339461E-08
  -2.16000006E-02   1.03580762E-08
  -2.15499997E-02  -6.32385921E-10
  -2.15000007E-02  -7.51222462E-09
  -2.14499999E-02  -6.94404756E-09
  -2.14000009E-02   1.16202625E-09
  -2.13500001E-02   1.34932892E-08
  -2.12999992E-02   2.47030751E-08
  -2.12500002E-02   2.97412388E-08
  -2.11999994E-02   2.61325823E-08
  -2.11500004E-02   1.51773207E-08
  -2.10999995E-02   1.49680668E-09
  -2.10500006E-02  -8.92842422E-09
  -2.09999997E-02  -1.13983525E-08
  -2.09500007E-02  -4.64787275E-09
  -2.08999999E-02   8.46878212E-09
  -2.08500009E-02   2.21211209E-08
  -2.08000001E-02   3.00212584E-08
  -2.07499992E-02   2.82332593E-08
  -2.07000002E-02   1.70206125E-08
  -2.06499994E-02   8.69670946E-10
  -2.06000004E-02  -1.33823024E-08
  -2.05499995E-02  -1.95365377E-08
  -2.05000006E-02  -1.48339483E-08
  -2.04499997E-02  -1.30380529E-09
  -2.04000007E-02   1.49932937E-08
  -2.03499999E-02   2.65569131E-08
  -2.03000009E-02   2.77685839E-08
  -2.02500001E-02   1.74759833E-08
  -2.01999992E-02  -3.44555634E-10
  -2.01500002E-02  -1.82062809E-08
  -2.00999994E-02  -2.83573254E-08
  -2.00500004E-02  -2.62479585E-08
  -1.99999996E-02  -1.26703803E-08
  -1.99500006E-02   6.43123688E-09
  -1.98999997E-02   2.24682406E-08
  -1.98500007E-02   2.79795280E-08
  -1.97999999E-02   2.00145980E-08
  -1.97500009E-02   1.59745306E-09
  -1.97000001E-02  -1.94446628E-08
  -1.96499992E-02  -3.38429871E-08
  -1.96000002E-02  -3.49980489E-08
  -1.95499994E-02  -2.20181668E-08
  -1.95000004E-02  -2.90253488E-10
  -1.94499996E-02   2.07473363E-08
  -1.94000006E-02   3.17145279E-08
  -1.93499997E-02   2.74947531E-08
  -1.93000007E-02   9.65249658E-09
  -1.92499999E-02  -1.40737253E-08
  -1.92000009E-02  -3.30613439E-08
  -1.91500001E-02  -3.84828489E-08
  -1.90999992E-02  -2.73162399E-08
  -1.90500002E-02  -3.86957044E-09
  -1.89999994E-02   2.19356160E-08
  -1.89500004E-02   3.88454140E-08
  -1.88999996E-02   3.92733845E-08
  -1.88500006E-02   2.27986536E-08
  -1.87999997E-02  -3.44793261E-09
  -1.87500007E-02  -2.77700494E-08
  -1.86999999E-02  -3.90208008E-08
  -1.86500009E-02  -3.16137161E-08
  -1.86000001E-02  -8.18188983E-09
  -1.85499992E-02   2.13706350E-08
  -1.85000002E-02   4.40992558E-08
  -1.84499994E-02   4.97254433E-08
  -1.84000004E-02   3.53036640E-08
  -1.83499996E-02   6.73080480E-09
  -1.83000006E-02  -2.36627056E-08
  -1.82499997E-02  -4.24658992E-08
  -1.82000007E-02  -4.11656274E-08
  -1.81499999E-02  -2.00903560E-08
  -1.81000009E-02   1.14998207E-08
  -1.80500001E-02   3.93179604E-08
  -1.79999992E-02   5.03060704E-08
  -1.79500002E-02   3.85030567E-08
  -1.78999994E-02   7.88897392E-09
  -1.78500004E-02  -2.91445907E-08
  -1.77999996E-02  -5.71246623E-08
  -1.77500006E-02  -6.43390123E-08
  -1.76999997E-02  -4.81676672E-08
  -1.76500008E-02  -1.64810317E-08
  -1.75999999E-02   1.56187561E-08
  -1.75500009E-02   3.23708242E-08
  -1.75000001E-02   2.43849545E-08
  -1.74499992E-02  -7.00439573E-09
  -1.74000002E-02  -5.00716695E-08
  -1.73499994E-02  -8.76854145E-08
  -1.73000004E-02  -1.04828445E-07
  -1.72499996E-02  -9.53518793E-08
  -1.72000006E-02  -6.49260059E-08
  -1.71499997E-02  -2.87786008E-08
  -1.71000008E-02  -5.10879516E-09
  -1.70499999E-02  -7.01822023E-09
  -1.70000009E-02  -3.65296344E-08
  -1.69500001E-02  -8.34148395E-08
  -1.68999992E-02  -1.29465462E-07
  -1.68500002E-02  -1.56423454E-07
  -1.67999994E-02  -1.54113479E-07
  -1.67500004E-02  -1.25149000E-07
  -1.66999996E-02  -8.40332035E-08
  -1.66500006E-02  -5.09316749E-08
  -1.65999997E-02  -4.27776961E-08
  -1.65500008E-02  -6.56228138E-08
  -1.64999999E-02  -1.11675163E-07
  -1.64500009E-02  -1.62449766E-07
  -1.64000001E-02  -1.96758236E-07
  -1.63499992E-02  -2.00078048E-07
  -1.63000003E-02  -1.71146823E-07
  -1.62499994E-02  -1.22782666E-07
  -1.62000004E-02  -7.64411254E-08
  -1.61499996E-02  -5.28026334E-08
  -1.61000006E-02  -6.25083061E-08
  -1.60499997E-02  -1.01177854E-07
  -1.60000008E-02  -1.51021496E-07
  -1.59499999E-02  -1.88463986E-07
  -1.59000009E-02  -1.94502803E-07
  -1.58500001E-02  -1.63239164E-07
  -1.57999992E-02  -1.04742270E-07
  -1.57500003E-02  -4.08542782E-08
  -1.56999994E-02   4.33654357E-09
  -1.56500004E-02   1.52114357E-08
  -1.55999996E-02  -8.22677748E-09
  -1.55499997E-02  -5.00206454E-08
  -1.54999997E-02  -8.50277928E-08
  -1.54499998E-02  -8.99151615E-08
  -1.53999999E-02  -5.35622640E-08
  -1.53500000E-02   1.77755926E-08
  -1.53000001E-02   1.02941620E-07
  -1.52500002E-02   1.75033975E-07
  -1.52000003E-02   2.13291727E-07
  -1.51500003E-02   2.12468251E-07
  -1.51000004E-02   1.85472800E-07
  -1.50499996E-02   1.57975848E-07
  -1.49999997E-02   1.57232620E-07
  -1.49499997E-02   1.99995412E-07
  -1.48999998E-02   2.84877586E-07
  -1.48499999E-02   3.92650094E-07
  -1.48000000E-02   4.94481810E-07
  -1.47500001E-02   5.64598395E-07
  -1.47000002E-02   5.91801268E-07
  -1.46500003E-02   5.84706925E-07
  -1.46000003E-02   5.68259679E-07
  -1.45500004E-02   5.72916235E-07
  -1.44999996E-02   6.21192441E-07
  -1.44499997E-02   7.17504633E-07
  -1.43999998E-02   8.45886234E-07
  -1.43499998E-02   9.76726483E-07
  -1.42999999E-02   1.07968765E-06
  -1.42500000E-02   1.13716237E-06
  -1.42000001E-02   1.15229489E-06
  -1.41500002E-02   1.14791192E-06
  -1.41000003E-02   1.15668206E-06
  -1.40500003E-02   1.20674270E-06
  -1.40000004E-02   1.30910666E-06
  -1.39499996E-02   1.45247304E-06
  -1.38999997E-02   1.60786783E-06
  -1.38499998E-02   1.74121158E-06
  -1.37999998E-02   1.82835379E-06
  -1.37499999E-02   1.86593309E-06
  -1.37000000E-02   1.87317210E-06
  -1.36500001E-02   1.88366789E-06
  -1.36000002E-02   1.93067035E-06
  -1.35500003E-02   2.03228865E-06
  -1.35000004E-02   2.18320451E-06
  -1.34500004E-02   2.35665334E-06
  -1.33999996E-02   2.51596612E-06
  -1.33499997E-02   2.63068364E-06
  -1.32999998E-02   2.69013844E-06
  -1.32499998E-02   2.70847272E-06
  -1.31999999E-02   2.71871045E-06
  -1.31500000E-02   2.75835419E-06
  -1.31000001E-02   2.85281226E-06
  -1.30500002E-02   3.00394163E-06
  -1.30000003E-02   3.18887896E-06
  -1.29500004E-02   3.36984249E-06
  -1.29000004E-02   3.51068843E-06
  -1.28499996E-02   3.59296541E-06
  -1.27999997E-02   3.62434980E-06
  -1.27499998E-02   3.63560184E-06
  -1.26999998E-02   3.66725931E-06
  -1.26499999E-02   3.75181344E-06
  -1.26000000E-02   3.89920206E-06
  -1.25500001E-02   4.09212271E-06
  -1.25000002E-02   4.29337342E-06
  -1.24500003E-02   4.46211516E-06
  -1.24000004E-02   4.57195256E-06
  -1.23500004E-02   4.62285379E-06
  -1.22999996E-02   4.64153845E-06
  -1.22499997E-02   4.67002019E-06
  -1.21999998E-02   4.74723811E-06
  -1.21499998E-02   4.89181639E-06
  -1.20999999E-02   5.09362599E-06
  -1.20500000E-02   5.31798423E-06
  -1.20000001E-02   5.52079382E-06
  -1.19500002E-02   5.66804192E-06
  -1.19000003E-02   5.75104514E-06
  -1.18500004E-02   5.79068319E-06
  -1.18000004E-02   5.82856364E-06
  -1.17499996E-02   5.90890977E-06
  -1.16999997E-02   6.05910145E-06
  -1.16499998E-02   6.27741974E-06
  -1.15999999E-02   6.53357029E-06
  -1.15499999E-02   6.78185688E-06
  -1.15000000E-02   6.98132908E-06
  -1.14500001E-02   7.11407756E-06
  -1.14000002E-02   7.19349828E-06
  -1.13500003E-02   7.25880045E-06
  -1.13000004E-02   7.35805770E-06
  -1.12500004E-02   7.52715596E-06
  -1.11999996E-02   7.77388868E-06
  -1.11499997E-02   8.07432752E-06
  -1.10999998E-02   8.38322558E-06
  -1.10499999E-02   8.65390575E-06
  -1.09999999E-02   8.85899408E-06
  -1.09500000E-02   9.00284522E-06
  -1.09000001E-02   9.12002542E-06
  -1.08500002E-02   9.26039411E-06
  -1.08000003E-02   9.46732598E-06
  -1.07500004E-02   9.75856619E-06
  -1.07000005E-02   1.01182268E-05
  -1.06499996E-02   1.05036015E-05
  -1.05999997E-02   1.08639051E-05
  -1.05499998E-02   1.11627633E-05
  -1.04999999E-02   1.13945134E-05
  -1.04499999E-02   1.15870853E-05
  -1.04000000E-02   1.17901163E-05
  -1.03500001E-02   1.20532904E-05
  -1.03000002E-02   1.24044873E-05
  -1.02500003E-02   1.28374413E-05
  -1.02000004E-02   1.33143085E-05
  -1.01500005E-02   1.37822199E-05
  -1.00999996E-02   1.41966329E-05
  -1.00499997E-02   1.45411532E-05
  -9.99999978E-03   1.48351428E-05
  -9.94999986E-03   1.51255244E-05
  -9.89999995E-03   1.54663448E-05
  -9.85000003E-03   1.58950843E-05
  -9.80000012E-03   1.64160247E-05
  -9.75000020E-03   1.69981977E-05
  -9.70000029E-03   1.75888908E-05
  -9.65000037E-03   1.81367886E-05
  -9.60000046E-03   1.86146699E-05
  -9.54999961E-03   1.90317260E-05
  -9.49999969E-03   1.94298009E-05
  -9.44999978E-03   1.98652579E-05
  -9.39999986E-03   2.03843429E-05
  -9.34999995E-03   2.10027883E-05
  -9.30000003E-03   2.16988428E-05
  -9.25000012E-03   2.24227060E-05
  -9.20000020E-03   2.31184240E-05
  -9.15000029E-03   2.37486929E-05
  -9.10000037E-03   2.43115592E-05
  -9.05000046E-03   2.48416090E-05
  -8.99999961E-03   2.53951275E-05
  -8.94999970E-03   2.60254837E-05
  -8.89999978E-03   2.67597115E-05
  -8.84999987E-03   2.75866660E-05
  -8.79999995E-03   2.84617454E-05
  -8.75000004E-03   2.93264347E-05
  -8.70000012E-03   3.01341788E-05
  -8.65000021E-03   3.08710914E-05
  -8.60000029E-03   3.15623583E-05
  -8.55000038E-03   3.22614142E-05
  -8.50000046E-03   3.30267649E-05
  -8.44999962E-03   3.38963946E-05
  -8.39999970E-03   3.48711183E-05
  -8.34999979E-03   3.59141086E-05
  -8.29999987E-03   3.69671689E-05
  -8.24999996E-03   3.79764970E-05
  -8.20000004E-03   3.89166526E-05
  -8.15000013E-03   3.98020711E-05
  -8.10000021E-03   4.06810505E-05
  -8.05000030E-03   4.16150033E-05
  -8.00000038E-03   4.26518709E-05
  -7.95000046E-03   4.38051429E-05
  -7.89999962E-03   4.50480875E-05
  -7.84999970E-03   4.63256983E-05
  -7.79999979E-03   4.75788838E-05
  -7.74999987E-03   4.87707948E-05
  -7.69999996E-03   4.99034904E-05
  -7.65000004E-03   5.10172322E-05
  -7.60000013E-03   5.21733127E-05
  -7.55000021E-03   5.34276296E-05
  -7.49999983E-03   5.48062126E-05
  -7.44999992E-03   5.62940186E-05
  -7.40000000E-03   5.78415893E-05
  -7.35000009E-03   5.93872537E-05
  -7.30000017E-03   6.08843875E-05
  -7.24999979E-03   6.23221349E-05
  -7.19999988E-03   6.37307821E-05
  -7.14999996E-03   6.51690425E-05
  -7.10000005E-03   6.66988344E-05
  -7.05000013E-03   6.83582039E-05
  -7.00000022E-03   7.01451718E-05
  -6.94999984E-03   7.20187818E-05
  -6.89999992E-03   7.39175448E-05
  -6.85000001E-03   7.57868183E-05
  -6.80000009E-03   7.76029774E-05
  -6.75000018E-03   7.93846921E-05
  -6.69999979E-03   8.11851860E-05
  -6.64999988E-03   8.30691279E-05
  -6.59999996E-03   8.50848519E-05
  -6.55000005E-03   8.72437522E-05
  -6.50000013E-03   8.95156481E-05
  -6.45000022E-03   9.18422884E-05
  -6.39999984E-03   9.41631806E-05
  -6.34999992E-03   9.64423889E-05
  -6.30000001E-03   9.86849991E-05
  -6.25000009E-03   1.00935380E-04
  -6.20000018E-03   1.03258208E-04
  -6.14999980E-03   1.05710707E-04
  -6.09999988E-03   1.08318163E-04
  -6.04999997E-03   1.11062858E-04
  -6.00000005E-03   1.13892391E-04
  -5.95000014E-03   1.16743162E-04
  -5.90000022E-03   1.19568380E-04
  -5.84999984E-03   1.22359241E-04
  -5.79999993E-03   1.25149643E-04
  -5.75000001E-03   1.28001397E-04
  -5.70000010E-03   1.30978035E-04
  -5.65000018E-03   1.34117436E-04
  -5.59999980E-03   1.37415962E-04
  -5.54999989E-03   1.40830409E-04
  -5.49999997E-03   1.44296850E-04
  -5.45000006E-03   1.47759565E-04
  -5.40000014E-03   1.51195767E-04
  -5.35000023E-03   1.54626046E-04
  -5.29999984E-03   1.58106152E-04
  -5.24999993E-03   1.61702963E-04
  -5.20000001E-03   1.65465928E-04
  -5.15000010E-03   1.69405568E-04
  -5.10000018E-03   1.73489054E-04
  -5.04999980E-03   1.77655747E-04
  -4.99999989E-03   1.81843730E-04
  -4.94999997E-03   1.86016870E-04
  -4.90000006E-03   1.90181876E-04
  -4.85000014E-03   1.94385721E-04
  -4.80000023E-03   1.98695765E-04
  -4.74999985E-03   2.03171148E-04
  -4.69999993E-03   2.07836638E-04
  -4.65000002E-03   2.12672865E-04
  -4.60000010E-03   2.17626046E-04
  -4.55000019E-03   2.22631003E-04
  -4.49999981E-03   2.27639743E-04
  -4.44999989E-03   2.32644234E-04
  -4.39999998E-03   2.37679968E-04
  -4.35000006E-03   2.42810740E-04
  -4.30000015E-03   2.48103053E-04
  -4.25000023E-03   2.53596139E-04
  -4.19999985E-03   2.59285414E-04
  -4.14999994E-03   2.65125796E-04
  -4.10000002E-03   2.71050871E-04
  -4.05000011E-03   2.77002808E-04
  -4.00000019E-03   2.82958674E-04
  -3.94999981E-03   2.88940704E-04
  -3.89999989E-03   2.95007252E-04
  -3.84999998E-03   3.01228341E-04
  -3.80000006E-03   3.07655748E-04
  -3.74999992E-03   3.14301375E-04
  -3.70000000E-03   3.21131287E-04
  -3.65000009E-03   3.28081544E-04
  -3.59999994E-03   3.35087709E-04
  -3.55000002E-03   3.42113228E-04
  -3.50000011E-03   3.49166192E-04
  -3.44999996E-03   3.56295699E-04
  -3.40000005E-03   3.63572966E-04
  -3.34999990E-03   3.71060130E-04
  -3.29999998E-03   3.78783850E-04
  -3.25000007E-03   3.86725093E-04
  -3.19999992E-03   3.94826493E-04
  -3.15000000E-03   4.03019687E-04
  -3.10000009E-03   4.11255372E-04
  -3.04999994E-03   4.19525080E-04
  -3.00000003E-03   4.27866442E-04
  -2.95000011E-03   4.36346803E-04
  -2.89999996E-03   4.45036654E-04
  -2.85000005E-03   4.53978922E-04
  -2.79999990E-03   4.63169359E-04
  -2.74999999E-03   4.72560234E-04
  -2.70000007E-03   4.82081872E-04
  -2.64999992E-03   4.91673418E-04
  -2.60000001E-03   5.01310511E-04
  -2.55000009E-03   5.11016289E-04
  -2.49999994E-03   5.20854199E-04
  -2.45000003E-03   5.30899444E-04
  -2.40000011E-03   5.41206740E-04
  -2.34999997E-03   5.51789417E-04
  -2.30000005E-03   5.62612724E-04
  -2.24999990E-03   5.73610188E-04
  -2.19999999E-03   5.84711786E-04
  -2.15000007E-03   5.95876947E-04
  -2.09999993E-03   6.07113005E-04
  -2.05000001E-03   6.18474383E-04
  -2.00000009E-03   6.30039605E-04
  -1.94999995E-03   6.41877181E-04
  -1.90000003E-03   6.54014759E-04
  -1.85000000E-03   6.66429522E-04
  -1.79999997E-03   6.79060875E-04
  -1.75000005E-03   6.91834313E-04
  -1.70000002E-03   7.04695121E-04
  -1.64999999E-03   7.17633695E-04
  -1.59999996E-03   7.30691245E-04
  -1.55000004E-03   7.43943034E-04
  -1.50000001E-03   7.57465838E-04
  -1.44999998E-03   7.71304942E-04
  -1.39999995E-03   7.85455806E-04
  -1.35000004E-03   7.99867092E-04
  -1.30000000E-03   8.14461673E-04
  -1.24999997E-03   8.29170516E-04
  -1.20000006E-03   8.43966613E-04
  -1.15000003E-03   8.58875981E-04
  -1.09999999E-03   8.73968704E-04
  -1.04999996E-03   8.89330462E-04
  -1.00000005E-03   9.05023713E-04
  -9.50000016E-04   9.21062368E-04
  -8.99999985E-04   9.37402132E-04
  -8.50000011E-04   9.53964365E-04
  -7.99999980E-04   9.70671594E-04
  -7.50000007E-04   9.87478299E-04
  -6.99999975E-04   1.00439403E-03
  -6.50000002E-04   1.02147949E-03
  -6.00000028E-04   1.03882351E-03
  -5.49999997E-04   1.05650409E-03
  -5.00000024E-04   1.07455335E-03
  -4.49999992E-04   1.09294476E-03
  -3.99999990E-04   1.11160125E-03
  -3.49999988E-04   1.13042980E-03
  -3.00000014E-04   1.14936789E-03
  -2.50000012E-04   1.16840668E-03
  -1.99999995E-04   1.18759775E-03
  -1.50000007E-04   1.20703701E-03
  -9.99999975E-05   1.22681947E-03
  -4.99999987E-05   1.24699157E-03
   0.00000000       1.26753596E-03
   4.99999987E-05   1.28838082E-03
   9.99999975E-05   1.30942871E-03
   1.50000007E-04   1.33059954E-03
   1.99999995E-04   1.35186652E-03
   2.50000012E-04   1.37327099E-03
   3.00000014E-04   1.39490422E-03
   3.49999988E-04   1.41686783E-03
   3.99999990E-04   1.43922970E-03
   4.49999992E-04   1.46199251E-03
   5.00000024E-04   1.48509408E-03
   5.49999997E-04   1.50843256E-03
   6.00000028E-04   1.53191027E-03
   6.50000002E-04   1.55548006E-03
   6.99999975E-04   1.57916686E-03
   7.50000007E-04   1.60305225E-03
   7.99999980E-04   1.62724499E-03
   8.50000011E-04   1.65183307E-03
   8.99999985E-04   1.67684117E-03
   9.50000016E-04   1.70221634E-03
   1.00000005E-03   1.72785402E-03
   1.04999996E-03   1.75365037E-03
   1.09999999E-03   1.77953416E-03
   1.15000003E-03   1.80550839E-03
   1.20000006E-03   1.83164643E-03
   1.24999997E-03   1.85805792E-03
   1.30000000E-03   1.88484753E-03
   1.35000004E-03   1.91206380E-03
   1.39999995E-03   1.93967519E-03
   1.44999998E-03   1.96758192E-03
   1.50000001E-03   1.99565920E-03
   1.55000004E-03   2.02381308E-03
   1.59999996E-03   2.05203076E-03
   1.64999999E-03   2.08037416E-03
   1.70000002E-03   2.10895250E-03
   1.75000005E-03   2.13787891E-03
   1.79999997E-03   2.16721697E-03
   1.85000000E-03   2.19695666E-03
   1.90000003E-03   2.22700788E-03
   1.94999995E-03   2.25723744E-03
   2.00000009E-03   2.28753919E-03
   2.05000001E-03   2.31786887E-03
   2.09999993E-03   2.34826934E-03
   2.15000007E-03   2.37884605E-03
   2.19999999E-03   2.40971777E-03
   2.24999990E-03   2.44097458E-03
   2.30000005E-03   2.47263256E-03
   2.34999997E-03   2.50461814E-03
   2.40000011E-03   2.53679068E-03
   2.45000003E-03   2.56901700E-03
   2.49999994E-03   2.60123028E-03
   2.55000009E-03   2.63344985E-03
   2.60000001E-03   2.66576512E-03
   2.64999992E-03   2.69831065E-03
   2.70000007E-03   2.73121241E-03
   2.74999999E-03   2.76450906E-03
   2.79999990E-03   2.79812957E-03