  -3.99999991E-02   0.00000000    
  -3.99499983E-02   0.00000000    
  -3.99000011E-02   0.00000000    
  -3.98500003E-02   0.00000000    
  -3.97999994E-02   0.00000000    
  -3.97499986E-02  -4.72758306E-24
  -3.97000015E-02  -4.17187701E-23
  -3.96500006E-02  -1.91013921E-22
  -3.95999998E-02  -5.95062393E-22
  -3.95499989E-02  -1.38771089E-21
  -3.95000018E-02  -2.49142640E-21
  -3.94500010E-02  -3.31346056E-21
  -3.94000001E-02  -2.50733973E-21
  -3.93499993E-02   1.92756388E-21
  -3.92999984E-02   1.19771649E-20
  -3.92500013E-02   2.84064259E-20
  -3.92000005E-02   4.94705027E-20
  -3.91499996E-02   7.03509292E-20
  -3.90999988E-02   8.40969584E-20
  -3.90500017E-02   8.42541098E-20
  -3.90000008E-02   6.83371063E-20
  -3.89500000E-02   4.03753546E-20
  -3.88999991E-02   1.06051550E-20
  -3.88499983E-02  -8.59772660E-21
  -3.88000011E-02  -9.50621729E-21
  -3.87500003E-02   4.43642933E-21
  -3.86999995E-02   1.61160536E-20
  -3.86499986E-02  -1.17452256E-21
  -3.86000015E-02  -7.35218679E-20
  -3.85500006E-02  -2.14066148E-19
  -3.84999998E-02  -4.14882750E-19
  -3.84499989E-02  -6.48760288E-19
  -3.84000018E-02  -8.82556529E-19
  -3.83500010E-02  -1.09777259E-18
  -3.83000001E-02  -1.30881997E-18
  -3.82499993E-02  -1.56831997E-18
  -3.81999984E-02  -1.95330740E-18
  -3.81500013E-02  -2.53512784E-18
  -3.81000005E-02  -3.34508510E-18
  -3.80499996E-02  -4.35251478E-18
  -3.79999988E-02  -5.46864943E-18
  -3.79500017E-02  -6.57879034E-18
  -3.79000008E-02  -7.59137480E-18
  -3.78500000E-02  -8.48211845E-18
  -3.77999991E-02  -9.31044802E-18
  -3.77499983E-02  -1.01958547E-17
  -3.77000012E-02  -1.12601491E-17
  -3.76500003E-02  -1.25595398E-17
  -3.75999995E-02  -1.40387704E-17
  -3.75499986E-02  -1.55324385E-17
  -3.75000015E-02  -1.68179897E-17
  -3.74500006E-02  -1.76996799E-17
  -3.73999998E-02  -1.80857449E-17
  -3.73499990E-02  -1.80211438E-17
  -3.73000018E-02  -1.76568319E-17
  -3.72500010E-02  -1.71655958E-17
  -3.72000001E-02  -1.66401194E-17
  -3.71499993E-02  -1.60190623E-17
  -3.70999984E-02  -1.50756099E-17
  -3.70500013E-02  -1.34749839E-17
  -3.70000005E-02  -1.08763406E-17
  -3.69499996E-02  -7.03492296E-18
  -3.68999988E-02  -1.86269163E-18
  -3.68500017E-02   4.57233472E-18
  -3.68000008E-02   1.20985380E-17
  -3.67500000E-02   2.05145887E-17
  -3.66999991E-02   2.96527276E-17
  -3.66499983E-02   3.94144944E-17
  -3.66000012E-02   4.97819693E-17
  -3.65500003E-02   6.08179450E-17
  -3.64999995E-02   7.26624832E-17
  -3.64499986E-02   8.55169956E-17
  -3.64000015E-02   9.95945641E-17
  -3.63500006E-02   1.15023077E-16
  -3.62999998E-02   1.31718176E-16
  -3.62499990E-02   1.49282251E-16
  -3.62000018E-02   1.67006389E-16
  -3.61500010E-02   1.84029184E-16
  -3.61000001E-02   1.99633450E-16
  -3.60499993E-02   2.13568571E-16
  -3.59999985E-02   2.26223971E-16
  -3.59500013E-02   2.38500020E-16
  -3.59000005E-02   2.51344877E-16
  -3.58499996E-02   2.65107098E-16
  -3.57999988E-02   2.79007385E-16
  -3.57500017E-02   2.91061008E-16
  -3.57000008E-02   2.98629883E-16
  -3.56500000E-02   2.99488351E-16
  -3.55999991E-02   2.92972603E-16
  -3.55499983E-02   2.80618627E-16
  -3.55000012E-02   2.65811300E-16
  -3.54500003E-02   2.52371296E-16
  -3.53999995E-02   2.42555984E-16
  -3.53499986E-02   2.35378386E-16
  -3.53000015E-02   2.26200916E-16
  -3.52500007E-02   2.08117504E-16
  -3.51999998E-02   1.74826012E-16
  -3.51499990E-02   1.23857062E-16
  -3.51000018E-02   5.85981297E-17
  -3.50500010E-02  -1.21594491E-17
  -3.50000001E-02  -7.74223252E-17
  -3.49499993E-02  -1.28880523E-16
  -3.48999985E-02  -1.65355112E-16
  -3.48500013E-02  -1.94510078E-16
  -3.48000005E-02  -2.30483197E-16
  -3.47499996E-02  -2.87898875E-16
  -3.46999988E-02  -3.74622370E-16
  -3.46500017E-02  -4.86654098E-16
  -3.46000008E-02  -6.08067536E-16
  -3.45500000E-02  -7.16855365E-16
  -3.44999991E-02  -7.94739092E-16
  -3.44499983E-02  -8.36698192E-16
  -3.44000012E-02  -8.55439590E-16
  -3.43500003E-02  -8.77784902E-16
  -3.42999995E-02  -9.33505164E-16
  -3.42499986E-02  -1.04096368E-15
  -3.42000015E-02  -1.19617993E-15
  -3.41500007E-02  -1.37123453E-15
  -3.40999998E-02  -1.52418867E-15
  -3.40499990E-02  -1.61733074E-15
  -3.40000018E-02  -1.63597669E-15
  -3.39500010E-02  -1.59866479E-15
  -3.39000002E-02  -1.55252584E-15
  -3.38499993E-02  -1.55403060E-15
  -3.37999985E-02  -1.64253516E-15
  -3.37500013E-02  -1.81859753E-15
  -3.37000005E-02  -2.03832698E-15
  -3.36499996E-02  -2.22867646E-15
  -3.35999988E-02  -2.31899685E-15
  -3.35500017E-02  -2.27558811E-15
  -3.35000008E-02  -2.12279226E-15
  -3.34500000E-02  -1.93860028E-15
  -3.33999991E-02  -1.82363674E-15
  -3.33499983E-02  -1.85518660E-15
  -3.33000012E-02  -2.04668063E-15
  -3.32500003E-02  -2.33292207E-15
  -3.31999995E-02  -2.59134018E-15
  -3.31499986E-02  -2.69335619E-15
  -3.31000015E-02  -2.56466012E-15
  -3.30500007E-02  -2.22640916E-15
  -3.29999998E-02  -1.79529311E-15
  -3.29499990E-02  -1.43774218E-15
  -3.29000019E-02  -1.29511200E-15
  -3.28500010E-02  -1.41256964E-15
  -3.28000002E-02  -1.70627100E-15
  -3.27499993E-02  -1.98879948E-15
  -3.26999985E-02  -2.04698810E-15
  -3.26500013E-02  -1.74042041E-15
  -3.26000005E-02  -1.07554412E-15
  -3.25499997E-02  -2.17266201E-16
  -3.24999988E-02   5.74129943E-16
  -3.24500017E-02   1.05832288E-15
  -3.24000008E-02   1.13274351E-15
  -3.23500000E-02   8.96690995E-16
  -3.22999991E-02   6.25608953E-16
  -3.22499983E-02   6.58675796E-16
  -3.22000012E-02   1.24462450E-15
  -3.21500003E-02   2.41514462E-15
  -3.20999995E-02   3.94889216E-15
  -3.20499986E-02   5.45204318E-15
  -3.20000015E-02   6.52825360E-15
  -3.19500007E-02   6.96565040E-15
  -3.18999998E-02   6.85345369E-15
  -3.18499990E-02   6.56610242E-15
  -3.18000019E-02   6.60996179E-15
  -3.17500010E-02   7.39265708E-15
  -3.17000002E-02   9.01744669E-15
  -3.16499993E-02   1.12025503E-14
  -3.15999985E-02   1.33751881E-14
  -3.15500014E-02   1.49116508E-14
  -3.15000005E-02   1.54229182E-14
  -3.14499997E-02   1.49548580E-14
  -3.13999988E-02   1.40008058E-14
  -3.13500017E-02   1.33042872E-14
  -3.13000008E-02   1.35268307E-14
  -3.12500000E-02   1.49260792E-14
  -3.11999992E-02   1.71968322E-14
  -3.11500002E-02   1.95636303E-14
  -3.10999993E-02   2.11021860E-14
  -3.10500003E-02   2.11571364E-14
  -3.09999995E-02   1.96673580E-14
  -3.09500005E-02   1.72381556E-14
  -3.08999997E-02   1.49060536E-14
  -3.08500007E-02   1.36821046E-14
  -3.07999998E-02   1.40709376E-14
  -3.07500008E-02   1.57897055E-14
  -3.07000000E-02   1.78347666E-14
  -3.06499992E-02   1.88920145E-14
  -3.06000002E-02   1.79250230E-14
  -3.05499993E-02   1.46788641E-14
  -3.05000003E-02   9.85699949E-15
  -3.04499995E-02   4.86361871E-15
  -3.04000005E-02   1.19942237E-15
  -3.03499997E-02  -2.32156431E-16
  -3.03000007E-02   4.09742686E-16
  -3.02499998E-02   1.90100917E-15
  -3.02000009E-02   2.44799785E-15
  -3.01500000E-02   4.85329232E-16
  -3.00999992E-02  -4.57490160E-15
  -3.00500002E-02  -1.19959169E-14
  -2.99999993E-02  -1.99617104E-14
  -2.99500003E-02  -2.63424739E-14
  -2.98999995E-02  -2.96594888E-14
  -2.98500005E-02  -2.98134184E-14
  -2.97999997E-02  -2.82201918E-14
  -2.97500007E-02  -2.72503713E-14
  -2.96999998E-02  -2.91851572E-14
  -2.96500009E-02  -3.51421332E-14
  -2.96000000E-02  -4.44681692E-14
  -2.95499992E-02  -5.49130342E-14
  -2.95000002E-02  -6.35549217E-14
  -2.94499993E-02  -6.80977017E-14
  -2.94000003E-02  -6.79622442E-14
  -2.93499995E-02  -6.46521682E-14
  -2.93000005E-02  -6.11778355E-14
  -2.92499997E-02  -6.07456116E-14
  -2.92000007E-02  -6.52734499E-14
  -2.91499998E-02  -7.44094998E-14
  -2.91000009E-02  -8.55400684E-14
  -2.90500000E-02  -9.48446034E-14
  -2.89999992E-02  -9.89740516E-14
  -2.89500002E-02  -9.66142246E-14
  -2.88999993E-02  -8.92040009E-14
  -2.88500004E-02  -8.04245654E-14
  -2.87999995E-02  -7.46217731E-14
  -2.87500005E-02  -7.48261248E-14
  -2.86999997E-02  -8.12610341E-14
  -2.86500007E-02  -9.10567262E-14
  -2.85999998E-02  -9.93729567E-14
  -2.85500009E-02  -1.01495194E-13
  -2.85000000E-02  -9.49940810E-14
  -2.84499992E-02  -8.09569629E-14
  -2.84000002E-02  -6.36706670E-14
  -2.83499993E-02  -4.88139497E-14
  -2.83000004E-02  -4.09076696E-14
  -2.82499995E-02  -4.11552946E-14
  -2.82000005E-02  -4.66898113E-14
  -2.81499997E-02  -5.16524181E-14
  -2.81000007E-02  -4.97089179E-14
  -2.80499998E-02  -3.69265267E-14
  -2.80000009E-02  -1.37089004E-14
  -2.79500000E-02   1.51509563E-14
  -2.78999992E-02   4.24263015E-14
  -2.78500002E-02   6.16317368E-14
  -2.77999993E-02   7.00261856E-14
  -2.77500004E-02   7.00571938E-14
  -2.76999995E-02   6.85014315E-14
  -2.76500005E-02   7.35739391E-14
  -2.75999997E-02   9.12238289E-14
  -2.75500007E-02   1.22270195E-13
  -2.74999999E-02   1.61733216E-13
  -2.74500009E-02   2.00778603E-13
  -2.74000000E-02   2.30519054E-13
  -2.73499992E-02   2.46027889E-13
  -2.73000002E-02   2.48739153E-13
  -2.72499993E-02   2.46055780E-13
  -2.72000004E-02   2.48204804E-13
  -2.71499995E-02   2.63639100E-13
  -2.71000005E-02   2.95015260E-13
  -2.70499997E-02   3.37613103E-13
  -2.70000007E-02   3.81039086E-13
  -2.69499999E-02   4.13597569E-13
  -2.69000009E-02   4.27466141E-13
  -2.68500000E-02   4.22353450E-13
  -2.67999992E-02   4.05899435E-13
  -2.67500002E-02   3.90479559E-13
  -2.66999993E-02   3.87698906E-13
  -2.66500004E-02   4.02975992E-13
  -2.65999995E-02   4.32688580E-13
  -2.65500005E-02   4.65302384E-13
  -2.64999997E-02   4.86157122E-13
  -2.64500007E-02   4.83901439E-13
  -2.63999999E-02   4.55725084E-13
  -2.63500009E-02   4.08953091E-13
  -2.63000000E-02   3.58108373E-13
  -2.62499992E-02   3.18571829E-13
  -2.62000002E-02   2.99567093E-13
  -2.61499994E-02   2.99630085E-13
  -2.61000004E-02   3.06736272E-13
  -2.60499995E-02   3.03240668E-13
  -2.60000005E-02   2.73605113E-13
  -2.59499997E-02   2.11530880E-13
  -2.59000007E-02   1.23232384E-13
  -2.58499999E-02   2.51956794E-14
  -2.58000009E-02  -6.28052636E-14
  -2.57500000E-02  -1.26474772E-13
  -2.56999992E-02  -1.63646088E-13
  -2.56500002E-02  -1.85707041E-13
  -2.55999994E-02  -2.12926438E-13
  -2.55500004E-02  -2.65534312E-13
  -2.54999995E-02  -3.54416122E-13
  -2.54500005E-02  -4.75620845E-13
  -2.53999997E-02  -6.11337315E-13
  -2.53500007E-02  -7.37174156E-13
  -2.52999999E-02  -8.32715244E-13
  -2.52500009E-02  -8.90712309E-13
  -2.52000000E-02  -9.20693751E-13
  -2.51499992E-02  -9.45119634E-13
  -2.51000002E-02  -9.89511533E-13
  -2.50499994E-02  -1.07076902E-12
  -2.50000004E-02  -1.18888742E-12
  -2.49499995E-02  -1.32596560E-12
  -2.49000005E-02  -1.45325895E-12
  -2.48499997E-02  -1.54342121E-12
  -2.48000007E-02  -1.58261598E-12
  -2.47499999E-02  -1.57701868E-12
  -2.47000009E-02  -1.55053726E-12
  -2.46500000E-02  -1.53442688E-12
  -2.45999992E-02  -1.55316341E-12
  -2.45500002E-02  -1.61281318E-12
  -2.44999994E-02  -1.69725757E-12
  -2.44500004E-02  -1.77430173E-12
  -2.43999995E-02  -1.80931149E-12
  -2.43500005E-02  -1.78051963E-12
  -2.42999997E-02  -1.68916140E-12
  -2.42500007E-02  -1.55964889E-12
  -2.41999999E-02  -1.42931467E-12
  -2.41500009E-02  -1.33193662E-12
  -2.41000000E-02  -1.28224135E-12
  -2.40499992E-02  -1.26842059E-12
  -2.40000002E-02  -1.25636025E-12
  -2.39499994E-02  -1.20413369E-12
  -2.39000004E-02  -1.08062463E-12
  -2.38499995E-02  -8.80036007E-13
  -2.38000005E-02  -6.25578203E-13
  -2.37499997E-02  -3.60253006E-13
  -2.37000007E-02  -1.28392455E-13
  -2.36499999E-02   4.40732859E-14
  -2.36000009E-02   1.61763181E-13
  -2.35500000E-02   2.58634341E-13
  -2.34999992E-02   3.83445771E-13
  -2.34500002E-02   5.77943238E-13
  -2.33999994E-02   8.57329995E-13
  -2.33500004E-02   1.20191715E-12
  -2.32999995E-02   1.56414823E-12
  -2.32500006E-02   1.88840957E-12
  -2.31999997E-02   2.13517897E-12
  -2.31500007E-02   2.29878660E-12
  -2.30999999E-02   2.41054399E-12
  -2.30500009E-02   2.52528944E-12
  -2.30000000E-02   2.69680263E-12
  -2.29499992E-02   2.95276694E-12
  -2.29000002E-02   3.28055378E-12
  -2.28499994E-02   3.63064722E-12
  -2.28000004E-02   3.93680704E-12
  -2.27499995E-02   4.14450592E-12
  -2.27000006E-02   4.23512137E-12
  -2.26499997E-02   4.23482516E-12
  -2.26000007E-02   4.20361315E-12
  -2.25499999E-02   4.20870803E-12
  -2.25000009E-02   4.29376239E-12
  -2.24500000E-02   4.45760226E-12
  -2.23999992E-02   4.65243989E-12
  -2.23500002E-02   4.80305943E-12
  -2.22999994E-02   4.83908920E-12
  -2.22500004E-02   4.72627926E-12
  -2.21999995E-02   4.48266944E-12
  -2.21500006E-02   4.17182825E-12
  -2.20999997E-02   3.87542299E-12
  -2.20500007E-02   3.65675892E-12
  -2.19999999E-02   3.53141084E-12
  -2.19500009E-02   3.45843428E-12
  -2.19000001E-02   3.35682784E-12
  -2.18499992E-02   3.14070731E-12
  -2.18000002E-02   2.75798264E-12
  -2.17499994E-02   2.21524318E-12
  -2.17000004E-02   1.57716722E-12
  -2.16499995E-02   9.39862988E-13
  -2.16000006E-02   3.89272680E-13
  -2.15499997E-02  -3.71223404E-14
  -2.15000007E-02  -3.67937614E-13
  -2.14499999E-02  -6.86225762E-13
  -2.14000009E-02  -1.09280434E-12
  -2.13500001E-02  -1.66025928E-12
  -2.12999992E-02  -2.39803468E-12
  -2.12500002E-02  -3.24470117E-12
  -2.11999994E-02  -4.09176165E-12
  -2.11500004E-02  -4.82931403E-12
  -2.10999995E-02  -5.39370675E-12
  -2.10500006E-02  -5.79580004E-12
  -2.09999997E-02  -6.11648839E-12
  -2.09500007E-02  -6.47046999E-12
  -2.08999999E-02  -6.95356836E-12
  -2.08500009E-02  -7.59682421E-12
  -2.08000001E-02  -8.34824918E-12
  -2.07499992E-02  -9.09135354E-12
  -2.07000002E-02  -9.69323840E-12
  -2.06499994E-02  -1.00615748E-11
  -2.06000004E-02  -1.01850767E-11
  -2.05499995E-02  -1.01387761E-11
  -2.05000006E-02  -1.00506417E-11
  -2.04499997E-02  -1.00434218E-11
  -2.04000007E-02  -1.01771352E-11
  -2.03499999E-02  -1.04181446E-11
  -2.03000009E-02  -1.06495325E-11
  -2.02500001E-02  -1.07193785E-11
  -2.01999992E-02  -1.05063493E-11
  -2.01500002E-02  -9.97362002E-12
  -2.00999994E-02  -9.18653695E-12
  -2.00500004E-02  -8.28501417E-12
  -1.99999996E-02  -7.42179061E-12
  -1.99500006E-02  -6.69334206E-12
  -1.98999997E-02  -6.09433554E-12
  -1.98500007E-02  -5.51681444E-12
  -1.97999999E-02  -4.79578139E-12
  -1.97500009E-02  -3.78200552E-12
  -1.97000001E-02  -2.41011117E-12
  -1.96499992E-02  -7.31192450E-13
  -1.96000002E-02   1.10569279E-12
  -1.95499994E-02   2.91623453E-12
  -1.95000004E-02   4.56081440E-12
  -1.94499996E-02   6.00619944E-12
  -1.94000006E-02   7.34072698E-12
  -1.93499997E-02   8.73489475E-12
  -1.93000007E-02   1.03635642E-11
  -1.92499999E-02   1.23237340E-11
  -1.92000009E-02   1.45847032E-11
  -1.91500001E-02   1.69939202E-11
  -1.90999992E-02   1.93373460E-11
  -1.90500002E-02   2.14286575E-11
  -1.89999994E-02   2.31879637E-11
  -1.89500004E-02   2.46743719E-11
  -1.88999996E-02   2.60565788E-11
  -1.88500006E-02   2.75330921E-11
  -1.87999997E-02   2.92366617E-11
  -1.87500007E-02   3.11654105E-11
  -1.86999999E-02   3.31723642E-11
  -1.86500009E-02   3.50195185E-11
  -1.86000001E-02   3.64738448E-11
  -1.85499992E-02   3.74031570E-11
  -1.85000002E-02   3.78288130E-11
  -1.84499994E-02   3.79105046E-11
  -1.84000004E-02   3.78683439E-11
  -1.83499996E-02   3.78756922E-11
  -1.83000006E-02   3.79701930E-11
  -1.82499997E-02   3.80234039E-11
  -1.82000007E-02   3.77841161E-11
  -1.81499999E-02   3.69777160E-11
  -1.81000009E-02   3.54183245E-11
  -1.80500001E-02   3.30837580E-11
  -1.79999992E-02   3.01187651E-11
  -1.79500002E-02   2.67634578E-11
  -1.78999994E-02   2.32373357E-11
  -1.78500004E-02   1.96299140E-11
  -1.77999996E-02   1.58472697E-11
  -1.77500006E-02   1.16397161E-11
  -1.76999997E-02   6.70015519E-12
  -1.76500008E-02   7.90535280E-13
  -1.75999999E-02  -6.15958196E-12
  -1.75500009E-02  -1.40271857E-11
  -1.75000001E-02  -2.25559068E-11
  -1.74499992E-02  -3.14769426E-11
  -1.74000002E-02  -4.06378438E-11
  -1.73499994E-02  -5.00816749E-11
  -1.73000004E-02  -6.00398481E-11
  -1.72499996E-02  -7.08400144E-11
  -1.72000006E-02  -8.27683547E-11
  -1.71499997E-02  -9.59472571E-11
  -1.71000008E-02  -1.10283199E-10
  -1.70499999E-02  -1.25509922E-10
  -1.70000009E-02  -1.41309422E-10
  -1.69500001E-02  -1.57458380E-10
  -1.68999992E-02  -1.73934353E-10
  -1.68500002E-02  -1.90934074E-10
  -1.67999994E-02  -2.08793358E-10
  -1.67500004E-02  -2.27842509E-10
  -1.66999996E-02  -2.48260940E-10
  -1.66500006E-02  -2.69995970E-10
  -1.65999997E-02  -2.92783381E-10
  -1.65500008E-02  -3.16262960E-10
  -1.64999999E-02  -3.40138639E-10
  -1.64500009E-02  -3.64312663E-10
  -1.64000001E-02  -3.88933441E-10
  -1.63499992E-02  -4.14333706E-10
  -1.63000003E-02  -4.40884163E-10
  -1.62499994E-02  -4.68827643E-10
  -1.62000004E-02  -4.98166730E-10
  -1.61499996E-02  -5.28656285E-10
  -1.61000006E-02  -5.59906732E-10
  -1.60499997E-02  -5.91554195E-10
  -1.60000008E-02  -6.23421204E-10
  -1.59499999E-02  -6.55597632E-10
  -1.59000009E-02  -6.88402946E-10
  -1.58500001E-02  -7.22245652E-10
  -1.57999992E-02  -7.57439778E-10
  -1.57500003E-02  -7.94061039E-10
  -1.56999994E-02  -8.31906211E-10
  -1.56500004E-02  -8.70578110E-10
  -1.55999996E-02  -9.09657349E-10
  -1.55499997E-02  -9.48889189E-10
  -1.54999997E-02  -9.88298776E-10
  -1.54499998E-02  -1.02818498E-09
  -1.53999999E-02  -1.06899056E-09
  -1.53500000E-02  -1.11110798E-09
  -1.53000001E-02  -1.15470344E-09
  -1.52500002E-02  -1.19964039E-09
  -1.52000003E-02  -1.24553756E-09
  -1.51500003E-02  -1.29193800E-09
  -1.51000004E-02  -1.33851541E-09
  -1.50499996E-02  -1.38522649E-09
  -1.49999997E-02  -1.43233958E-09
  -1.49499997E-02  -1.48032586E-09
  -1.48999998E-02  -1.52965873E-09
  -1.48499999E-02  -1.58060987E-09
  -1.48000000E-02  -1.63313318E-09
  -1.47500001E-02  -1.68688952E-09
  -1.47000002E-02  -1.74140447E-09
  -1.46500003E-02  -1.79628912E-09
  -1.46000003E-02  -1.85142823E-09
  -1.45500004E-02  -1.90704963E-09
  -1.44999996E-02  -1.96364214E-09
  -1.44499997E-02  -2.02175743E-09
  -1.43999998E-02  -2.08178053E-09
  -1.43499998E-02  -2.14377471E-09
  -1.42999999E-02  -2.20746643E-09
  -1.42500000E-02  -2.27238384E-09
  -1.42000001E-02  -2.33808395E-09
  -1.41500002E-02  -2.40437603E-09
  -1.41000003E-02  -2.47143195E-09
  -1.40500003E-02  -2.53974131E-09
  -1.40000004E-02  -2.60992139E-09
  -1.39499996E-02  -2.68247291E-09
  -1.38999997E-02  -2.75758150E-09
  -1.38499998E-02  -2.83506085E-09
  -1.37999998E-02  -2.91446045E-09
  -1.37499999E-02  -2.99529490E-09
  -1.37000000E-02  -3.07729220E-09
  -1.36500001E-02  -3.16055337E-09
  -1.36000002E-02  -3.24554672E-09
  -1.35500003E-02  -3.33293837E-09
  -1.35000004E-02  -3.42333628E-09
  -1.34500004E-02  -3.51705487E-09
  -1.33999996E-02  -3.61400931E-09
  -1.33499997E-02  -3.71378928E-09
  -1.32999998E-02  -3.81587739E-09
  -1.32499998E-02  -3.91991950E-09
  -1.31999999E-02  -4.02592715E-09
  -1.31500000E-02  -4.13432133E-09
  -1.31000001E-02  -4.24579127E-09
  -1.30500002E-02  -4.36103731E-09
  -1.30000003E-02  -4.48050175E-09
  -1.29500004E-02  -4.60421701E-09
  -1.29000004E-02  -4.73183048E-09
  -1.28499996E-02  -4.86280705E-09
  -1.27999997E-02  -4.99671060E-09
  -1.27499998E-02  -5.13345233E-09
  -1.26999998E-02  -5.27338084E-09
  -1.26499999E-02  -5.41718403E-09
  -1.26000000E-02  -5.56563595E-09
  -1.25500001E-02  -5.71930592E-09
  -1.25000002E-02  -5.87835203E-09
  -1.24500003E-02  -6.04249983E-09
  -1.24000004E-02  -6.21121199E-09
  -1.23500004E-02  -6.38397957E-09
  -1.22999996E-02  -6.56060317E-09
  -1.22499997E-02  -6.74134171E-09
  -1.21999998E-02  -6.92685553E-09
  -1.21499998E-02  -7.11797199E-09
  -1.20999999E-02  -7.31538075E-09
  -1.20500000E-02  -7.51937801E-09
  -1.20000001E-02  -7.72979014E-09
  -1.19500002E-02  -7.94611044E-09
  -1.19000003E-02  -8.16777490E-09
  -1.18500004E-02  -8.39447623E-09
  -1.18000004E-02  -8.62636984E-09
  -1.17499996E-02  -8.86406859E-09
  -1.16999997E-02  -9.10843667E-09
  -1.16499998E-02  -9.36027700E-09
  -1.15999999E-02  -9.62003455E-09
  -1.15499999E-02  -9.88766047E-09
  -1.15000000E-02  -1.01627018E-08
  -1.14500001E-02  -1.04445705E-08
  -1.14000002E-02  -1.07328626E-08
  -1.13500003E-02  -1.10276259E-08
  -1.13000004E-02  -1.13294112E-08
  -1.12500004E-02  -1.16391039E-08
  -1.11999996E-02  -1.19576136E-08
  -1.11499997E-02  -1.22855424E-08
  -1.10999998E-02  -1.26230031E-08
  -1.10499999E-02  -1.29696387E-08
  -1.09999999E-02  -1.33248648E-08
  -1.09500000E-02  -1.36882070E-08
  -1.09000001E-02  -1.40596068E-08
  -1.08500002E-02  -1.44395385E-08
  -1.08000003E-02  -1.48288892E-08
  -1.07500004E-02  -1.52286646E-08
  -1.07000005E-02  -1.56396389E-08
  -1.06499996E-02  -1.60620957E-08
  -1.05999997E-02  -1.64958056E-08
  -1.05499998E-02  -1.69402288E-08
  -1.04999999E-02  -1.73948482E-08
  -1.04499999E-02  -1.78595148E-08
  -1.04000000E-02  -1.83346156E-08
  -1.03500001E-02  -1.88210336E-08
  -1.03000002E-02  -1.93198559E-08
  -1.02500003E-02  -1.98320205E-08
  -1.02000004E-02  -2.03580122E-08
  -1.01500005E-02  -2.08977742E-08
  -1.00999996E-02  -2.14508429E-08
  -1.00499997E-02  -2.20166854E-08
  -9.99999978E-03  -2.25950725E-08
  -9.94999986E-03  -2.31863062E-08
  -9.89999995E-03  -2.37912285E-08
  -9.85000003E-03  -2.44110083E-08
  -9.80000012E-03  -2.50467362E-08
  -9.75000020E-03  -2.56990980E-08
  -9.70000029E-03  -2.63682214E-08
  -9.65000037E-03  -2.70537672E-08
  -9.60000046E-03  -2.77552203E-08
  -9.54999961E-03  -2.84722805E-08
  -9.49999969E-03  -2.92051574E-08
  -9.44999978E-03  -2.99546556E-08
  -9.39999986E-03  -3.07219672E-08
  -9.34999995E-03  -3.15083213E-08
  -9.30000003E-03  -3.23146203E-08
  -9.25000012E-03  -3.31411982E-08
  -9.20000020E-03  -3.39878703E-08
  -9.15000029E-03  -3.48541640E-08
  -9.10000037E-03  -3.57397383E-08
  -9.05000046E-03  -3.66447281E-08
  -8.99999961E-03  -3.75698619E-08
  -8.94999970E-03  -3.85163439E-08
  -8.89999978E-03  -3.94855277E-08
  -8.84999987E-03  -4.04785148E-08
  -8.79999995E-03  -4.14958521E-08
  -8.75000004E-03  -4.25375291E-08
  -8.70000012E-03  -4.36031549E-08
  -8.65000021E-03  -4.46923814E-08
  -8.60000029E-03  -4.58052369E-08
  -8.55000038E-03  -4.69423789E-08
  -8.50000046E-03  -4.81049973E-08
  -8.44999962E-03  -4.92945240E-08
  -8.39999970E-03  -5.05122522E-08
  -8.34999979E-03  -5.17589775E-08
  -8.29999987E-03  -5.30348672E-08
  -8.24999996E-03  -5.43396439E-08
  -8.20000004E-03  -5.56729596E-08
  -8.15000013E-03  -5.70347893E-08
  -8.10000021E-03  -5.84256945E-08
  -8.05000030E-03  -5.98468262E-08
  -8.00000038E-03  -6.12996800E-08
  -7.95000046E-03  -6.27857091E-08
  -7.89999962E-03  -6.43059437E-08
  -7.84999970E-03  -6.58607817E-08
  -7.79999979E-03  -6.74501308E-08
  -7.74999987E-03  -6.90736499E-08
  -7.69999996E-03  -7.07312680E-08
  -7.65000004E-03  -7.24234468E-08
  -7.60000013E-03  -7.41512736E-08
  -7.55000021E-03  -7.59162830E-08
  -7.49999983E-03  -7.77200881E-08
  -7.44999992E-03  -7.95639394E-08
  -7.40000000E-03  -8.14484977E-08
  -7.35000009E-03  -8.33738412E-08
  -7.30000017E-03  -8.53397637E-08
  -7.24999979E-03  -8.73461232E-08
  -7.19999988E-03  -8.93933247E-08
  -7.14999996E-03  -9.14823630E-08
  -7.10000005E-03  -9.36148012E-08
  -7.05000013E-03  -9.57923874E-08
  -7.00000022E-03  -9.80165922E-08
  -6.94999984E-03  -1.00288375E-07
  -6.89999992E-03  -1.02608006E-07
  -6.85000001E-03  -1.04975413E-07
  -6.80000009E-03  -1.07390470E-07
  -6.75000018E-03  -1.09853495E-07
  -6.69999979E-03  -1.12365427E-07
  -6.64999988E-03  -1.14927815E-07
  -6.59999996E-03  -1.17542463E-07
  -6.55000005E-03  -1.20211112E-07
  -6.50000013E-03  -1.22934935E-07
  -6.45000022E-03  -1.25714550E-07
  -6.39999984E-03  -1.28550056E-07
  -6.34999992E-03  -1.31441368E-07
  -6.30000001E-03  -1.34388785E-07
  -6.25000009E-03  -1.37393158E-07
  -6.20000018E-03  -1.40455995E-07
  -6.14999980E-03  -1.43579200E-07
  -6.09999988E-03  -1.46764648E-07
  -6.04999997E-03  -1.50013889E-07
  -6.00000005E-03  -1.53327747E-07
  -5.95000014E-03  -1.56706534E-07
  -5.90000022E-03  -1.60150307E-07
  -5.84999984E-03  -1.63659308E-07
  -5.79999993E-03  -1.67234361E-07
  -5.75000001E-03  -1.70876902E-07
  -5.70000010E-03  -1.74588834E-07
  -5.65000018E-03  -1.78372275E-07
  -5.59999980E-03  -1.82228916E-07
  -5.54999989E-03  -1.86159980E-07
  -5.49999997E-03  -1.90166034E-07
  -5.45000006E-03  -1.94247249E-07
  -5.40000014E-03  -1.98403896E-07
  -5.35000023E-03  -2.02636670E-07
  -5.29999984E-03  -2.06946936E-07
  -5.24999993E-03  -2.11336712E-07
  -5.20000001E-03  -2.15808129E-07
  -5.15000010E-03  -2.20363162E-07
  -5.10000018E-03  -2.25003291E-07
  -5.04999980E-03  -2.29729366E-07
  -4.99999989E-03  -2.34541758E-07
  -4.94999997E-03  -2.39440737E-07
  -4.90000006E-03  -2.44426928E-07
  -4.85000014E-03  -2.49501682E-07
  -4.80000023E-03  -2.54666816E-07
  -4.74999985E-03  -2.59924661E-07
  -4.69999993E-03  -2.65277436E-07
  -4.65000002E-03  -2.70726787E-07
  -4.60000010E-03  -2.76273852E-07
  -4.55000019E-03  -2.81919199E-07
  -4.49999981E-03  -2.87663170E-07
  -4.44999989E-03  -2.93506332E-07
  -4.39999998E-03  -2.99449852E-07
  -4.35000006E-03  -3.05495490E-07
  -4.30000015E-03  -3.11645550E-07
  -4.25000023E-03  -3.17902362E-07
  -4.19999985E-03  -3.24267944E-07
  -4.14999994E-03  -3.30743688E-07
  -4.10000002E-03  -3.37330391E-07
  -4.05000011E-03  -3.44028393E-07
  -4.00000019E-03  -3.50838235E-07
  -3.94999981E-03  -3.57760968E-07
  -3.89999989E-03  -3.64798154E-07
  -3.84999998E-03  -3.71952069E-07
  -3.80000006E-03  -3.79225099E-07
  -3.74999992E-03  -3.86619547E-07
  -3.70000000E-03  -3.94136947E-07
  -3.65000009E-03  -4.01778351E-07
  -3.59999994E-03  -4.09544299E-07
  -3.55000002E-03  -4.17435132E-07
  -3.50000011E-03  -4.25451873E-07
  -3.44999996E-03  -4.33595858E-07
  -3.40000005E-03  -4.41869105E-07
  -3.34999990E-03  -4.50274143E-07
  -3.29999998E-03  -4.58813219E-07
  -3.25000007E-03  -4.67488292E-07
  -3.19999992E-03  -4.76300443E-07
  -3.15000000E-03  -4.85250553E-07
  -3.10000009E-03  -4.94338849E-07
  -3.04999994E-03  -5.03566014E-07
  -3.00000003E-03  -5.12933184E-07
  -2.95000011E-03  -5.22442406E-07
  -2.89999996E-03  -5.32095783E-07
  -2.85000005E-03  -5.41896043E-07
  -2.79999990E-03  -5.51845119E-07
  -2.74999999E-03  -5.61944489E-07
  -2.70000007E-03  -5.72194892E-07
  -2.64999992E-03  -5.82596897E-07
  -2.60000001E-03  -5.93150617E-07
  -2.55000009E-03  -6.03856961E-07
  -2.49999994E-03  -6.14717635E-07
  -2.45000003E-03  -6.25734799E-07
  -2.40000011E-03  -6.36911011E-07
  -2.34999997E-03  -6.48248545E-07
  -2.30000005E-03  -6.59749048E-07
  -2.24999990E-03  -6.71413204E-07
  -2.19999999E-03  -6.83241183E-07
  -2.15000007E-03  -6.95233211E-07
  -2.09999993E-03  -7.07389802E-07
  -2.05000001E-03  -7.19712375E-07
  -2.00000009E-03  -7.32202750E-07
  -1.94999995E-03  -7.44863655E-07
  -1.90000003E-03  -7.57697251E-07
  -1.85000000E-03  -7.70705242E-07
  -1.79999997E-03  -7.83888538E-07
  -1.75000005E-03  -7.97247139E-07
  -1.70000002E-03  -8.10781330E-07
  -1.64999999E-03  -8.24491281E-07
  -1.59999996E-03  -8.38377787E-07
  -1.55000004E-03  -8.52442440E-07
  -1.50000001E-03  -8.66687515E-07
  -1.44999998E-03  -8.81115170E-07
  -1.39999995E-03  -8.95727283E-07
  -1.35000004E-03  -9.10524932E-07
  -1.30000000E-03  -9.25508289E-07
  -1.24999997E-03  -9.40677012E-07
  -1.20000006E-03  -9.56030931E-07
  -1.15000003E-03  -9.71570103E-07
  -1.09999999E-03  -9.87295607E-07
  -1.04999996E-03  -1.00320960E-06
  -1.00000005E-03  -1.01931425E-06
  -9.50000016E-04  -1.03561138E-06
  -8.99999985E-04  -1.05210211E-06
  -8.50000011E-04  -1.06878690E-06
  -7.99999980E-04  -1.08566474E-06
  -7.50000007E-04  -1.10273481E-06
  -6.99999975E-04  -1.11999680E-06
  -6.50000002E-04  -1.13745125E-06
  -6.00000028E-04  -1.15509965E-06
  -5.49999997E-04  -1.17294417E-06
  -5.00000024E-04  -1.19098650E-06
  -4.49999992E-04  -1.20922778E-06
  -3.99999990E-04  -1.22766835E-06
  -3.49999988E-04  -1.24630708E-06
  -3.00000014E-04  -1.26514283E-06
  -2.50000012E-04  -1.28417412E-06
  -1.99999995E-04  -1.30340050E-06
  -1.50000007E-04  -1.32282287E-06
  -9.99999975E-05  -1.34244294E-06
  -4.99999987E-05  -1.36226299E-06
   0.00000000      -1.38228427E-06
   4.99999987E-05  -1.40250643E-06
   9.99999975E-05  -1.42292845E-06
   1.50000007E-04  -1.44354806E-06
   1.99999995E-04  -1.46436309E-06
   2.50000012E-04  -1.48537265E-06
   3.00000014E-04  -1.50657638E-06
   3.49999988E-04  -1.52797543E-06
   3.99999990E-04  -1.54957206E-06
   4.49999992E-04  -1.57136708E-06
   5.00000024E-04  -1.59336025E-06
   5.49999997E-04  -1.61555022E-06
   6.00000028E-04  -1.63793470E-06
   6.50000002E-04  -1.66051029E-06
   6.99999975E-04  -1.68327460E-06
   7.50000007E-04  -1.70622695E-06
   7.99999980E-04  -1.72936791E-06
   8.50000011E-04  -1.75269838E-06
   8.99999985E-04  -1.77621928E-06
   9.50000016E-04  -1.79993049E-06
   1.00000005E-03  -1.82383030E-06
   1.04999996E-03  -1.84791520E-06
   1.09999999E-03  -1.87218154E-06
   1.15000003E-03  -1.89662592E-06
   1.20000006E-03  -1.92124685E-06
   1.24999997E-03  -1.94604331E-06
   1.30000000E-03  -1.97101599E-06
   1.35000004E-03  -1.99616488E-06
   1.39999995E-03  -2.02148931E-06
   1.44999998E-03  -2.04698745E-06
   1.50000001E-03  -2.07265566E-06
   1.55000004E-03  -2.09848872E-06
   1.59999996E-03  -2.12448322E-06
   1.64999999E-03  -2.15063596E-06
   1.70000002E-03  -2.17694492E-06
   1.75000005E-03  -2.20340917E-06
   1.79999997E-03  -2.23002871E-06
   1.85000000E-03  -2.25680151E-06
   1.90000003E-03  -2.28372573E-06
   1.94999995E-03  -2.31079753E-06
   2.00000009E-03  -2.33801143E-06
   2.05000001E-03  -2.36536198E-06
   2.09999993E-03  -2.39284464E-06
   2.15000007E-03  -2.42045576E-06
   2.19999999E-03  -2.44819375E-06
   2.24999990E-03  -2.47605703E-06
   2.30000005E-03  -2.50404469E-06
   2.34999997E-03  -2.53215330E-06
   2.40000011E-03  -2.56037833E-06
   2.45000003E-03  -2.58871364E-06
   2.49999994E-03  -2.61715286E-06
   2.55000009E-03  -2.64568962E-06
   2.60000001E-03  -2.67431869E-06
   2.64999992E-03  -2.70303667E-06
   2.70000007E-03  -2.73184128E-06
   2.74999999E-03  -2.76073024E-06
   2.79999990E-03  -2.78970060E-06