  -3.99999991E-02   0.00000000    
  -3.99499983E-02   0.00000000    
  -3.99000011E-02   0.00000000    
  -3.98500003E-02   2.59949448E-18
  -3.97999994E-02   2.26018946E-17
  -3.97499986E-02   1.00708512E-16
  -3.97000015E-02   3.00412146E-16
  -3.96500006E-02   6.51340331E-16
  -3.95999998E-02   1.01408246E-15
  -3.95499989E-02   8.94531379E-16
  -3.95000018E-02  -6.88662985E-16
  -3.94500010E-02  -5.12955699E-15
  -3.94000001E-02  -1.38295366E-14
  -3.93499993E-02  -2.74823262E-14
  -3.92999984E-02  -4.53076772E-14
  -3.92500013E-02  -6.47095428E-14
  -3.92000005E-02  -8.18476146E-14
  -3.91499996E-02  -9.32702673E-14
  -3.90999988E-02  -9.81127750E-14
  -3.90500017E-02  -9.97468709E-14
  -3.90000008E-02  -1.05646205E-13
  -3.89500000E-02  -1.24888964E-13
  -3.88999991E-02  -1.63967269E-13
  -3.88499983E-02  -2.22769868E-13
  -3.88000011E-02  -2.92998319E-13
  -3.87500003E-02  -3.60468057E-13
  -3.86999995E-02  -4.10957347E-13
  -3.86499986E-02  -4.37287413E-13
  -3.86000015E-02  -4.44156837E-13
  -3.85500006E-02  -4.47696052E-13
  -3.84999998E-02  -4.68869897E-13
  -3.84499989E-02  -5.22963075E-13
  -3.84000018E-02  -6.09919287E-13
  -3.83500010E-02  -7.10716696E-13
  -3.83000001E-02  -7.92605293E-13
  -3.82499993E-02  -8.21764965E-13
  -3.81999984E-02  -7.77916197E-13
  -3.81500013E-02  -6.63875422E-13
  -3.81000005E-02  -5.05026685E-13
  -3.80499996E-02  -3.38339789E-13
  -3.79999988E-02  -1.95636056E-13
  -3.79500017E-02  -8.87566997E-14
  -3.79000008E-02  -3.62719329E-15
  -3.78500000E-02   9.38607915E-14
  -3.77999991E-02   2.42841337E-13
  -3.77499983E-02   4.70458199E-13
  -3.77000012E-02   7.80841537E-13
  -3.76500003E-02   1.15482992E-12
  -3.75999995E-02   1.55953267E-12
  -3.75499986E-02   1.96199654E-12
  -3.75000015E-02   2.34006846E-12
  -3.74500006E-02   2.68648558E-12
  -3.73999998E-02   3.00699634E-12
  -3.73499990E-02   3.31648836E-12
  -3.73000018E-02   3.63649432E-12
  -3.72500010E-02   3.99377016E-12
  -3.72000001E-02   4.41597843E-12
  -3.71499993E-02   4.92024867E-12
  -3.70999984E-02   5.49490098E-12
  -3.70500013E-02   6.08200903E-12
  -3.70000005E-02   6.57405987E-12
  -3.69499996E-02   6.83664713E-12
  -3.68999988E-02   6.75844580E-12
  -3.68500017E-02   6.31263661E-12
  -3.68000008E-02   5.59922161E-12
  -3.67500000E-02   4.83599315E-12
  -3.66999991E-02   4.28351755E-12
  -3.66499983E-02   4.12237909E-12
  -3.66000012E-02   4.33404831E-12
  -3.65500003E-02   4.65057550E-12
  -3.64999995E-02   4.61954693E-12
  -3.64499986E-02   3.78138493E-12
  -3.64000015E-02   1.89582551E-12
  -3.63500006E-02  -8.86898844E-13
  -3.62999998E-02  -4.01065292E-12
  -3.62499990E-02  -6.69681454E-12
  -3.62000018E-02  -8.27670831E-12
  -3.61500010E-02  -8.53587166E-12
  -3.61000001E-02  -7.89832956E-12
  -3.60499993E-02  -7.32640337E-12
  -3.59999985E-02  -7.93289219E-12
  -3.59500013E-02  -1.04487738E-11
  -3.59000005E-02  -1.47888785E-11
  -3.58499996E-02  -1.99506522E-11
  -3.57999988E-02  -2.43526067E-11
  -3.57500017E-02  -2.65152292E-11
  -3.57000008E-02  -2.57993002E-11
  -3.56500000E-02  -2.28421136E-11
  -3.55999991E-02  -1.94262210E-11
  -3.55499983E-02  -1.77574483E-11
  -3.55000012E-02  -1.94205537E-11
  -3.54500003E-02  -2.44834066E-11
  -3.53999995E-02  -3.12179484E-11
  -3.53499986E-02  -3.66686369E-11
  -3.53000015E-02  -3.79113373E-11
  -3.52500007E-02  -3.34805135E-11
  -3.51999998E-02  -2.42863334E-11
  -3.51499990E-02  -1.35018880E-11
  -3.51000018E-02  -5.33703810E-12
  -3.50500010E-02  -3.14965632E-12
  -3.50000001E-02  -7.72714358E-12
  -3.49499993E-02  -1.65946007E-11
  -3.48999985E-02  -2.48143277E-11
  -3.48500013E-02  -2.70739958E-11
  -3.48000005E-02  -2.02096326E-11
  -3.47499996E-02  -4.99496321E-12
  -3.46999988E-02   1.37544273E-11
  -3.46500017E-02   2.90081084E-11
  -3.46000008E-02   3.46187905E-11
  -3.45500000E-02   2.83434907E-11
  -3.44999991E-02   1.33290887E-11
  -3.44499983E-02  -2.81526517E-12
  -3.44000012E-02  -1.11711499E-11
  -3.43500003E-02  -5.61573357E-12
  -3.42999995E-02   1.39816821E-11
  -3.42499986E-02   4.10868492E-11
  -3.42000015E-02   6.49237053E-11
  -3.41500007E-02   7.51442311E-11
  -3.40999998E-02   6.67405506E-11
  -3.40499990E-02   4.28869266E-11
  -3.40000018E-02   1.41680435E-11
  -3.39500010E-02  -5.77066086E-12
  -3.39000002E-02  -6.40793928E-12
  -3.38499993E-02   1.44052851E-11
  -3.37999985E-02   4.87069655E-11
  -3.37500013E-02   8.13251549E-11
  -3.37000005E-02   9.64475652E-11
  -3.36499996E-02   8.50650106E-11
  -3.35999988E-02   4.98409924E-11
  -3.35500017E-02   4.88556938E-12
  -3.35000008E-02  -2.98898059E-11
  -3.34500000E-02  -3.76236542E-11
  -3.33999991E-02  -1.26514701E-11
  -3.33499983E-02   3.59474672E-11
  -3.33000012E-02   8.74412001E-11
  -3.32500003E-02   1.18243693E-10
  -3.31999995E-02   1.12731366E-10
  -3.31499986E-02   7.11566778E-11
  -3.31000015E-02   1.07288102E-11
  -3.30500007E-02  -4.11577855E-11
  -3.29999998E-02  -5.89613497E-11
  -3.29499990E-02  -3.10560674E-11
  -3.29000019E-02   3.38138198E-11
  -3.28500010E-02   1.09105738E-10
  -3.28000002E-02   1.61517397E-10
  -3.27499993E-02   1.65938874E-10
  -3.26999985E-02   1.17623036E-10
  -3.26500013E-02   3.57205550E-11
  -3.26000005E-02  -4.40424641E-11
  -3.25499997E-02  -8.48592654E-11
  -3.24999988E-02  -6.58487362E-11
  -3.24500017E-02   7.21560312E-12
  -3.24000008E-02   1.02821841E-10
  -3.23500000E-02   1.76583428E-10
  -3.22999991E-02   1.90833460E-10
  -3.22499983E-02   1.32295550E-10
  -3.22000012E-02   1.95442360E-11
  -3.21500003E-02  -1.03797471E-10
  -3.20999995E-02  -1.87812890E-10
  -3.20499986E-02  -1.99020786E-10
  -3.20000015E-02  -1.36802722E-10
  -3.19500007E-02  -3.55816834E-11
  -3.18999998E-02   4.90559503E-11
  -3.18499990E-02   6.47895904E-11
  -3.18000019E-02  -1.31325367E-11
  -3.17500010E-02  -1.68918421E-10
  -3.17000002E-02  -3.51171842E-10
  -3.16499993E-02  -4.94436825E-10
  -3.15999985E-02  -5.48324441E-10
  -3.15500014E-02  -5.01233721E-10
  -3.15000005E-02  -3.87488569E-10
  -3.14499997E-02  -2.73757683E-10
  -3.13999988E-02  -2.29935571E-10
  -3.13500017E-02  -2.97059266E-10
  -3.13000008E-02  -4.66822969E-10
  -3.12500000E-02  -6.82651435E-10
  -3.11999992E-02  -8.62895033E-10
  -3.11500002E-02  -9.36606015E-10
  -3.10999993E-02  -8.76141770E-10
  -3.10500003E-02  -7.11547876E-10
  -3.09999995E-02  -5.19293386E-10
  -3.09500005E-02  -3.89307198E-10
  -3.08999997E-02  -3.84349802E-10
  -3.08500007E-02  -5.09894793E-10
  -3.07999998E-02  -7.08721137E-10
  -3.07500008E-02  -8.83784268E-10
  -3.07000000E-02  -9.40207467E-10
  -3.06499992E-02  -8.28134339E-10
  -3.06000002E-02  -5.67015657E-10
  -3.05499993E-02  -2.39527648E-10
  -3.05000003E-02   4.33646348E-11
  -3.04499995E-02   1.91519828E-10
  -3.04000005E-02   1.77201087E-10
  -3.03499997E-02   4.99642029E-11
  -3.03000007E-02  -8.29560656E-11
  -3.02499998E-02  -1.03226004E-10
  -3.02000009E-02   6.51047410E-11
  -3.01500000E-02   4.19187407E-10
  -3.00999992E-02   8.75178319E-10
  -3.00500002E-02   1.30256561E-09
  -2.99999993E-02   1.58085545E-09
  -2.99500003E-02   1.65380643E-09
  -2.98999995E-02   1.55659319E-09
  -2.98500005E-02   1.40262857E-09
  -2.97999997E-02   1.33453404E-09
  -2.97500007E-02   1.46011536E-09
  -2.96999998E-02   1.80172299E-09
  -2.96500009E-02   2.28233454E-09
  -2.96000000E-02   2.75593992E-09
  -2.95499992E-02   3.07007131E-09
  -2.95000002E-02   3.13339021E-09
  -2.94499993E-02   2.95802849E-09
  -2.94000003E-02   2.65673550E-09
  -2.93499995E-02   2.39459585E-09
  -2.93000005E-02   2.31555219E-09
  -2.92499997E-02   2.47600296E-09
  -2.92000007E-02   2.81562951E-09
  -2.91499998E-02   3.17982241E-09
  -2.91000009E-02   3.38533512E-09
  -2.90500000E-02   3.30106253E-09
  -2.89999992E-02   2.90814217E-09
  -2.89500002E-02   2.31172903E-09
  -2.88999993E-02   1.69763070E-09
  -2.88500004E-02   1.25156308E-09
  -2.87999995E-02   1.07611142E-09
  -2.87500005E-02   1.14258381E-09
  -2.86999997E-02   1.30040845E-09
  -2.86500007E-02   1.34155420E-09
  -2.85999998E-02   1.09269171E-09
  -2.85500009E-02   4.94565833E-10
  -2.85000000E-02  -3.67379405E-10
  -2.84499992E-02  -1.29624134E-09
  -2.84000002E-02  -2.06767115E-09
  -2.83499993E-02  -2.52842369E-09
  -2.83000004E-02  -2.66566680E-09
  -2.82499995E-02  -2.61517230E-09
  -2.82000005E-02  -2.60303867E-09
  -2.81499997E-02  -2.84525625E-09
  -2.81000007E-02  -3.44899886E-09
  -2.80499998E-02  -4.35993774E-09
  -2.80000009E-02  -5.38042322E-09
  -2.79500000E-02  -6.25226093E-09
  -2.78999992E-02  -6.76867984E-09
  -2.78500002E-02  -6.86609924E-09
  -2.77999993E-02  -6.65406530E-09
  -2.77500004E-02  -6.36840891E-09
  -2.76999995E-02  -6.26668673E-09
  -2.76500005E-02  -6.51136389E-09
  -2.75999997E-02  -7.09280279E-09
  -2.75500007E-02  -7.82761500E-09
  -2.74999999E-02  -8.43498249E-09
  -2.74500009E-02  -8.65866934E-09
  -2.74000000E-02  -8.38114289E-09
  -2.73499992E-02  -7.67844544E-09
  -2.73000002E-02  -6.78982248E-09
  -2.72499993E-02  -6.01367756E-09
  -2.72000004E-02  -5.57476509E-09
  -2.71499995E-02  -5.52145263E-09
  -2.71000005E-02  -5.69978331E-09
  -2.70499997E-02  -5.81768944E-09
  -2.70000007E-02  -5.57261215E-09
  -2.69499999E-02  -4.78677631E-09
  -2.69000009E-02  -3.48968965E-09
  -2.68500000E-02  -1.90980298E-09
  -2.67999992E-02  -3.77183507E-10
  -2.67500002E-02   8.20984003E-10
  -2.66999993E-02   1.56823410E-09
  -2.66500004E-02   1.97236161E-09
  -2.65999995E-02   2.31921193E-09
  -2.65500005E-02   2.94553781E-09
  -2.64999997E-02   4.08642054E-09
  -2.64500007E-02   5.76521852E-09
  -2.63999999E-02   7.77621079E-09
  -2.63500009E-02   9.76938441E-09
  -2.63000000E-02   1.14011200E-08
  -2.62499992E-02   1.24842963E-08
  -2.62000002E-02   1.30704043E-08
  -2.61499994E-02   1.34257103E-08
  -2.61000004E-02   1.39104683E-08
  -2.60499995E-02   1.48139749E-08
  -2.60000005E-02   1.62189888E-08
  -2.59499997E-02   1.79569550E-08
  -2.59000007E-02   1.96755341E-08
  -2.58499999E-02   2.09897042E-08
  -2.58000009E-02   2.16496083E-08
  -2.57500000E-02   2.16497984E-08
  -2.56999992E-02   2.12298570E-08
  -2.56500002E-02   2.07646291E-08
  -2.55999994E-02   2.05921236E-08
  -2.55500004E-02   2.08559037E-08
  -2.54999995E-02   2.14333120E-08
  -2.54500005E-02   2.19830341E-08
  -2.53999997E-02   2.20920757E-08
  -2.53500007E-02   2.14569909E-08
  -2.52999999E-02   2.00179873E-08
  -2.52500009E-02   1.79849042E-08
  -2.52000000E-02   1.57422111E-08
  -2.51499992E-02   1.36748062E-08
  -2.51000002E-02   1.19926291E-08
  -2.50499994E-02   1.06334133E-08
  -2.50000004E-02   9.28831412E-09
  -2.49499995E-02   7.53985940E-09
  -2.49000005E-02   5.05064435E-09
  -2.48499997E-02   1.71768344E-09
  -2.48000007E-02  -2.27779196E-09
  -2.47499999E-02  -6.54842536E-09
  -2.47000009E-02  -1.06720588E-08
  -2.46500000E-02  -1.43789993E-08
  -2.45999992E-02  -1.76702351E-08
  -2.45500002E-02  -2.08124575E-08
  -2.44999994E-02  -2.42115945E-08
  -2.44500004E-02  -2.82218622E-08
  -2.43999995E-02  -3.29770771E-08
  -2.43500005E-02  -3.83212750E-08
  -2.42999997E-02  -4.38705108E-08
  -2.42500007E-02  -4.91779950E-08
  -2.41999999E-02  -5.39272911E-08
  -2.41500009E-02  -5.80650799E-08
  -2.41000000E-02  -6.18124645E-08
  -2.40499992E-02  -6.55495214E-08
  -2.40000002E-02  -6.96259121E-08
  -2.39499994E-02  -7.41848041E-08
  -2.39000004E-02  -7.90812535E-08
  -2.38499995E-02  -8.39331094E-08
  -2.38000005E-02  -8.82811477E-08
  -2.37499997E-02  -9.17846990E-08
  -2.37000007E-02  -9.43622922E-08
  -2.36499999E-02  -9.62120339E-08
  -2.36000009E-02  -9.77019781E-08
  -2.35500000E-02  -9.91812286E-08
  -2.34999992E-02  -1.00799483E-07
  -2.34500002E-02  -1.02419349E-07
  -2.33999994E-02  -1.03662600E-07
  -2.33500004E-02  -1.04069244E-07
  -2.32999995E-02  -1.03295413E-07
  -2.32500006E-02  -1.01257399E-07
  -2.31999997E-02  -9.81540325E-08
  -2.31500007E-02  -9.43564871E-08
  -2.30999999E-02  -9.02167585E-08
  -2.30500009E-02  -8.58848423E-08
  -2.30000000E-02  -8.12211525E-08
  -2.29499992E-02  -7.58465077E-08
  -2.29000002E-02  -6.93071485E-08
  -2.28499994E-02  -6.12774329E-08
  -2.28000004E-02  -5.17043901E-08
  -2.27499995E-02  -4.08243856E-08
  -2.27000006E-02  -2.90428677E-08
  -2.26499997E-02  -1.67327094E-08
  -2.26000007E-02  -4.04683576E-09
  -2.25499999E-02   9.16464327E-09
  -2.25000009E-02   2.32917063E-08
  -2.24500000E-02   3.87835222E-08
  -2.23999992E-02   5.59339739E-08
  -2.23500002E-02   7.47368176E-08
  -2.22999994E-02   9.48820116E-08
  -2.22500004E-02   1.15898040E-07
  -2.21999995E-02   1.37375366E-07
  -2.21500006E-02   1.59165168E-07
  -2.20999997E-02   1.81456173E-07
  -2.20500007E-02   2.04689002E-07
  -2.19999999E-02   2.29343925E-07
  -2.19500009E-02   2.55701082E-07
  -2.19000001E-02   2.83687683E-07
  -2.18499992E-02   3.12889512E-07
  -2.18000002E-02   3.42727901E-07
  -2.17499994E-02   3.72721843E-07
  -2.17000004E-02   4.02712743E-07
  -2.16499995E-02   4.32941903E-07
  -2.16000006E-02   4.63937454E-07
  -2.15499997E-02   4.96256860E-07
  -2.15000007E-02   5.30203238E-07
  -2.14499999E-02   5.65650055E-07
  -2.14000009E-02   6.02065086E-07
  -2.13500001E-02   6.38728466E-07
  -2.12999992E-02   6.75051012E-07
  -2.12500002E-02   7.10845541E-07
  -2.11999994E-02   7.46418323E-07
  -2.11500004E-02   7.82430106E-07
  -2.10999995E-02   8.19581885E-07
  -2.10500006E-02   8.58265992E-07
  -2.09999997E-02   8.98349072E-07
  -2.09500007E-02   9.39193455E-07
  -2.08999999E-02   9.79918923E-07
  -2.08500009E-02   1.01979333E-06
  -2.08000001E-02   1.05857180E-06
  -2.07499992E-02   1.09662324E-06
  -2.07000002E-02   1.13477415E-06
  -2.06499994E-02   1.17392904E-06
  -2.06000004E-02   1.21463802E-06
  -2.05499995E-02   1.25681129E-06
  -2.05000006E-02   1.29972079E-06
  -2.04499997E-02   1.34230186E-06
  -2.04000007E-02   1.38362986E-06
  -2.03499999E-02   1.42335512E-06
  -2.03000009E-02   1.46189245E-06
  -2.02500001E-02   1.50026335E-06
  -2.01999992E-02   1.53965357E-06
  -2.01500002E-02   1.58087175E-06
  -2.00999994E-02   1.62396134E-06
  -2.00500004E-02   1.66815369E-06
  -1.99999996E-02   1.71219313E-06
  -1.99500006E-02   1.75490686E-06
  -1.98999997E-02   1.79576409E-06
  -1.98500007E-02   1.83516329E-06
  -1.97999999E-02   1.87430783E-06
  -1.97500009E-02   1.91470485E-06
  -1.97000001E-02   1.95750727E-06
  -1.96499992E-02   2.00298723E-06
  -1.96000002E-02   2.05039646E-06
  -1.95499994E-02   2.09829432E-06
  -1.95000004E-02   2.14520196E-06
  -1.94499996E-02   2.19030539E-06
  -1.94000006E-02   2.23388906E-06
  -1.93499997E-02   2.27728265E-06
  -1.93000007E-02   2.32233174E-06
  -1.92499999E-02   2.37061317E-06
  -1.92000009E-02   2.42274405E-06
  -1.91500001E-02   2.47810181E-06
  -1.90999992E-02   2.53510257E-06
  -1.90500002E-02   2.59192552E-06
  -1.89999994E-02   2.64737878E-06
  -1.89500004E-02   2.70150690E-06
  -1.88999996E-02   2.75566163E-06
  -1.88500006E-02   2.81198845E-06
  -1.87999997E-02   2.87252919E-06
  -1.87500007E-02   2.93833546E-06
  -1.86999999E-02   3.00900479E-06
  -1.86500009E-02   3.08286144E-06
  -1.86000001E-02   3.15771422E-06
  -1.85499992E-02   3.23188192E-06
  -1.85000002E-02   3.30502485E-06
  -1.84499994E-02   3.37838901E-06
  -1.84000004E-02   3.45435819E-06
  -1.83499996E-02   3.53546875E-06
  -1.83000006E-02   3.62331434E-06
  -1.82499997E-02   3.71784881E-06
  -1.82000007E-02   3.81740210E-06
  -1.81499999E-02   3.91942876E-06
  -1.81000009E-02   4.02167279E-06
  -1.80500001E-02   4.12324425E-06
  -1.79999992E-02   4.22511539E-06
  -1.79500002E-02   4.32979368E-06
  -1.78999994E-02   4.44029411E-06
  -1.78500004E-02   4.55885038E-06
  -1.77999996E-02   4.68592680E-06
  -1.77500006E-02   4.82000087E-06
  -1.76999997E-02   4.95823770E-06
  -1.76500008E-02   5.09775646E-06
  -1.75999999E-02   5.23696463E-06
  -1.75500009E-02   5.37635424E-06
  -1.75000001E-02   5.51839184E-06
  -1.74499992E-02   5.66651397E-06
  -1.74000002E-02   5.82366010E-06
  -1.73499994E-02   5.99098439E-06
  -1.73000004E-02   6.16733314E-06
  -1.72499996E-02   6.34973048E-06
  -1.72000006E-02   6.53470534E-06
  -1.71499997E-02   6.71986390E-06
  -1.71000008E-02   6.90504112E-06
  -1.70499999E-02   7.09247206E-06
  -1.70000009E-02   7.28590067E-06
  -1.69500001E-02   7.48900084E-06
  -1.68999992E-02   7.70376573E-06
  -1.68500002E-02   7.92961782E-06
  -1.67999994E-02   8.16361808E-06
  -1.67500004E-02   8.40176745E-06
  -1.66999996E-02   8.64080175E-06
  -1.66500006E-02   8.87970873E-06
  -1.65999997E-02   9.12028827E-06
  -1.65500008E-02   9.36646029E-06
  -1.64999999E-02   9.62261674E-06
  -1.64500009E-02   9.89170348E-06
  -1.64000001E-02   1.01739233E-05
  -1.63499992E-02   1.04666342E-05
  -1.63000003E-02   1.07654860E-05
  -1.62499994E-02   1.10663732E-05
  -1.62000004E-02   1.13673050E-05
  -1.61499996E-02   1.16694082E-05
  -1.61000006E-02   1.19765564E-05
  -1.60499997E-02   1.22937818E-05
  -1.60000008E-02   1.26250980E-05
  -1.59499999E-02   1.29717564E-05
  -1.59000009E-02   1.33317008E-05
  -1.58500001E-02   1.37004299E-05
  -1.57999992E-02   1.40730135E-05
  -1.57500003E-02   1.44463384E-05
  -1.56999994E-02   1.48206072E-05
  -1.56500004E-02   1.51993963E-05
  -1.55999996E-02   1.55882026E-05
  -1.55499997E-02   1.59921237E-05
  -1.54999997E-02   1.64136709E-05
  -1.54499998E-02   1.68516690E-05
  -1.53999999E-02   1.73017888E-05
  -1.53500000E-02   1.77584734E-05
  -1.53000001E-02   1.82174681E-05
  -1.52500002E-02   1.86778361E-05
  -1.52000003E-02   1.91425370E-05
  -1.51500003E-02   1.96173205E-05
  -1.51000004E-02   2.01083167E-05
  -1.50499996E-02   2.06194018E-05
  -1.49999997E-02   2.11505921E-05
  -1.49499997E-02   2.16980588E-05
  -1.48999998E-02   2.22558228E-05
  -1.48499999E-02   2.28184908E-05
  -1.48000000E-02   2.33838091E-05
  -1.47500001E-02   2.39538131E-05
  -1.47000002E-02   2.45341598E-05
  -1.46500003E-02   2.51318324E-05
  -1.46000003E-02   2.57521588E-05
  -1.45500004E-02   2.63965976E-05
  -1.44999996E-02   2.70621349E-05
  -1.44499997E-02   2.77426625E-05
  -1.43999998E-02   2.84318030E-05
  -1.43499998E-02   2.91258639E-05
  -1.42999999E-02   2.98256546E-05
  -1.42500000E-02   3.05363865E-05
  -1.42000001E-02   3.12656193E-05
  -1.41500002E-02   3.20201143E-05
  -1.41000003E-02   3.28029746E-05
  -1.40500003E-02   3.36124249E-05
  -1.40000004E-02   3.44425862E-05
  -1.39499996E-02   3.52862698E-05
  -1.38999997E-02   3.61382445E-05
  -1.38499998E-02   3.69977388E-05
  -1.37999998E-02   3.78691038E-05
  -1.37499999E-02   3.87600703E-05
  -1.37000000E-02   3.96786600E-05
  -1.36500001E-02   4.06298059E-05
  -1.36000002E-02   4.16132498E-05
  -1.35500003E-02   4.26238839E-05
  -1.35000004E-02   4.36539958E-05
  -1.34500004E-02   4.46968334E-05
  -1.33999996E-02   4.57498572E-05
  -1.33499997E-02   4.68161052E-05
  -1.32999998E-02   4.79031442E-05
  -1.32499998E-02   4.90199382E-05
  -1.31999999E-02   5.01731738E-05
  -1.31500000E-02   5.13645246E-05
  -1.31000001E-02   5.25899632E-05
  -1.30500002E-02   5.38416607E-05
  -1.30000003E-02   5.51116682E-05
  -1.29500004E-02   5.63955764E-05
  -1.29000004E-02   5.76947059E-05
  -1.28499996E-02   5.90158816E-05
  -1.27999997E-02   6.03686385E-05
  -1.27499998E-02   6.17612677E-05
  -1.26999998E-02   6.31974617E-05
  -1.26499999E-02   6.46748013E-05
  -1.26000000E-02   6.61858867E-05
  -1.25500001E-02   6.77216958E-05
  -1.25000002E-02   6.92759422E-05
  -1.24500003E-02   7.08480657E-05
  -1.24000004E-02   7.24436832E-05
  -1.23500004E-02   7.40725300E-05
  -1.22999996E-02   7.57444141E-05
  -1.22499997E-02   7.74652581E-05
  -1.21999998E-02   7.92345090E-05
  -1.21499998E-02   8.10455022E-05
  -1.20999999E-02   8.28887642E-05
  -1.20500000E-02   8.47562260E-05
  -1.20000001E-02   8.66449627E-05
  -1.19500002E-02   8.85588379E-05
  -1.19000003E-02   9.05070410E-05
  -1.18500004E-02   9.25005588E-05
  -1.18000004E-02   9.45474385E-05
  -1.17499996E-02   9.66495136E-05
  -1.16999997E-02   9.88019674E-05
  -1.16499998E-02   1.00995341E-04
  -1.15999999E-02   1.03219936E-04
  -1.15499999E-02   1.05470550E-04
  -1.15000000E-02   1.07748980E-04
  -1.14500001E-02   1.10063549E-04
  -1.14000002E-02   1.12425718E-04
  -1.13500003E-02   1.14845352E-04
  -1.13000004E-02   1.17326686E-04
  -1.12500004E-02   1.19866541E-04
  -1.11999996E-02   1.22455749E-04
  -1.11499997E-02   1.25083694E-04
  -1.10999998E-02   1.27743013E-04
  -1.10499999E-02   1.30433051E-04
  -1.09999999E-02   1.33160487E-04
  -1.09500000E-02   1.35936934E-04
  -1.09000001E-02   1.38774165E-04
  -1.08500002E-02   1.41679149E-04
  -1.08000003E-02   1.44651538E-04
  -1.07500004E-02   1.47683881E-04
  -1.07000005E-02   1.50764783E-04
  -1.06499996E-02   1.53884510E-04
  -1.05999997E-02   1.57039627E-04
  -1.05499998E-02   1.60234486E-04
  -1.04999999E-02   1.63479708E-04
  -1.04499999E-02   1.66788086E-04
  -1.04000000E-02   1.70168889E-04
  -1.03500001E-02   1.73624416E-04
  -1.03000002E-02   1.77148904E-04
  -1.02500003E-02   1.80731004E-04
  -1.02000004E-02   1.84359567E-04
  -1.01500005E-02   1.88028440E-04
  -1.00999996E-02   1.91739397E-04
  -1.00499997E-02   1.95502260E-04
  -9.99999978E-03   1.99330490E-04
  -9.94999986E-03   2.03235482E-04
  -9.89999995E-03   2.07222343E-04
  -9.85000003E-03   2.11287741E-04
  -9.80000012E-03   2.15421343E-04
  -9.75000020E-03   2.19610840E-04
  -9.70000029E-03   2.23847601E-04
  -9.65000037E-03   2.28130957E-04
  -9.60000046E-03   2.32468446E-04
  -9.54999961E-03   2.36873122E-04
  -9.49999969E-03   2.41358270E-04
  -9.44999978E-03   2.45931413E-04
  -9.39999986E-03   2.50591460E-04
  -9.34999995E-03   2.55329389E-04
  -9.30000003E-03   2.60132423E-04
  -9.25000012E-03   2.64989765E-04
  -9.20000020E-03   2.69897282E-04
  -9.15000029E-03   2.74859747E-04
  -9.10000037E-03   2.79889151E-04
  -9.05000046E-03   2.84999522E-04
  -8.99999961E-03   2.90201453E-04
  -8.94999970E-03   2.95497040E-04
  -8.89999978E-03   3.00879794E-04
  -8.84999987E-03   3.06337752E-04
  -8.79999995E-03   3.11858428E-04
  -8.75000004E-03   3.17435042E-04
  -8.70000012E-03   3.23069777E-04
  -8.65000021E-03   3.28772643E-04
  -8.60000029E-03   3.34557786E-04
  -8.55000038E-03   3.40437924E-04
  -8.50000046E-03   3.46418237E-04
  -8.44999962E-03   3.52494768E-04
  -8.39999970E-03   3.58656369E-04
  -8.34999979E-03   3.64889187E-04
  -8.29999987E-03   3.71183211E-04
  -8.24999996E-03   3.77536780E-04
  -8.20000004E-03   3.83957580E-04
  -8.15000013E-03   3.90459056E-04
  -8.10000021E-03   3.97054886E-04
  -8.05000030E-03   4.03753511E-04
  -8.00000038E-03   4.10553970E-04
  -7.95000046E-03   4.17446776E-04
  -7.89999962E-03   4.24417754E-04
  -7.84999970E-03   4.31454886E-04
  -7.79999979E-03   4.38553310E-04
  -7.74999987E-03   4.45717247E-04
  -7.69999996E-03   4.52959473E-04
  -7.65000004E-03   4.60295181E-04
  -7.60000013E-03   4.67735837E-04
  -7.55000021E-03   4.75284061E-04
  -7.49999983E-03   4.82933247E-04
  -7.44999992E-03   4.90670151E-04
  -7.40000000E-03   4.98479581E-04
  -7.35000009E-03   5.06351935E-04
  -7.30000017E-03   5.14288258E-04
  -7.24999979E-03   5.22299146E-04
  -7.19999988E-03   5.30399673E-04
  -7.14999996E-03   5.38603577E-04
  -7.10000005E-03   5.46917378E-04
  -7.05000013E-03   5.55336534E-04
  -7.00000022E-03   5.63847076E-04
  -6.94999984E-03   5.72431833E-04
  -6.89999992E-03   5.81078813E-04
  -6.85000001E-03   5.89786097E-04
  -6.80000009E-03   5.98560902E-04
  -6.75000018E-03   6.07418537E-04
  -6.69999979E-03   6.16375240E-04
  -6.64999988E-03   6.25439570E-04
  -6.59999996E-03   6.34610071E-04
  -6.55000005E-03   6.43876148E-04
  -6.50000013E-03   6.53220341E-04
  -6.45000022E-03   6.62626699E-04
  -6.39999984E-03   6.72089518E-04
  -6.34999992E-03   6.81613805E-04
  -6.30000001E-03   6.91212888E-04
  -6.25000009E-03   7.00903533E-04
  -6.20000018E-03   7.10697321E-04
  -6.14999980E-03   7.20596116E-04
  -6.09999988E-03   7.30589963E-04
  -6.04999997E-03   7.40660413E-04
  -6.00000005E-03   7.50790001E-04
  -5.95000014E-03   7.60968775E-04
  -5.90000022E-03   7.71198538E-04
  -5.84999984E-03   7.81491050E-04
  -5.79999993E-03   7.91862956E-04
  -5.75000001E-03   8.02327064E-04
  -5.70000010E-03   8.12886166E-04
  -5.65000018E-03   8.23532464E-04
  -5.59999980E-03   8.34250532E-04
  -5.54999989E-03   8.45021626E-04
  -5.49999997E-03   8.55832710E-04
  -5.45000006E-03   8.66682967E-04
  -5.40000014E-03   8.77581013E-04
  -5.35000023E-03   8.88542912E-04
  -5.29999984E-03   8.99582519E-04
  -5.24999993E-03   9.10704373E-04
  -5.20000001E-03   9.21903295E-04
  -5.15000010E-03   9.33165255E-04
  -5.10000018E-03   9.44471860E-04
  -5.04999980E-03   9.55808151E-04
  -4.99999989E-03   9.67169588E-04
  -4.94999997E-03   9.78559372E-04
  -4.90000006E-03   9.89989378E-04
  -4.85000014E-03   1.00147468E-03
  -4.80000023E-03   1.01302273E-03
  -4.74999985E-03   1.02462957E-03
  -4.69999993E-03   1.03628158E-03
  -4.65000002E-03   1.04796106E-03
  -4.60000010E-03   1.05965021E-03
  -4.55000019E-03   1.07134157E-03
  -4.49999981E-03   1.08303851E-03
  -4.44999989E-03   1.09474978E-03
  -4.39999998E-03   1.10648863E-03
  -4.35000006E-03   1.11826393E-03
  -4.30000015E-03   1.13007519E-03
  -4.25000023E-03   1.14191102E-03
  -4.19999985E-03   1.15375256E-03
  -4.14999994E-03   1.16558152E-03
  -4.10000002E-03   1.17738661E-03
  -4.05000011E-03   1.18916633E-03
  -4.00000019E-03   1.20092719E-03
  -3.94999981E-03   1.21268129E-03
  -3.89999989E-03   1.22443947E-03
  -3.84999998E-03   1.23620348E-03
  -3.80000006E-03   1.24796375E-03
  -3.74999992E-03   1.25969923E-03
  -3.70000000E-03   1.27138908E-03
  -3.65000009E-03   1.28302234E-03
  -3.59999994E-03   1.29459437E-03
  -3.55000002E-03   1.30610901E-03
  -3.50000011E-03   1.31757429E-03
  -3.44999996E-03   1.32899871E-03
  -3.40000005E-03   1.34038494E-03
  -3.34999990E-03   1.35172519E-03
  -3.29999998E-03   1.36300398E-03
  -3.25000007E-03   1.37420301E-03
  -3.19999992E-03   1.38530729E-03
  -3.15000000E-03   1.39630656E-03
  -3.10000009E-03   1.40719977E-03
  -3.04999994E-03   1.41799380E-03
  -3.00000003E-03   1.42869737E-03
  -2.95000011E-03   1.43931352E-03
  -2.89999996E-03   1.44983723E-03
  -2.85000005E-03   1.46025745E-03
  -2.79999990E-03   1.47055520E-03
  -2.74999999E-03   1.48070825E-03
  -2.70000007E-03   1.49070518E-03
  -2.64999992E-03   1.50054251E-03
  -2.60000001E-03   1.51022081E-03
  -2.55000009E-03   1.51974848E-03
  -2.49999994E-03   1.52913225E-03
  -2.45000003E-03   1.53836689E-03
  -2.40000011E-03   1.54743972E-03
  -2.34999997E-03   1.55633385E-03
  -2.30000005E-03   1.56502984E-03
  -2.24999990E-03   1.57350872E-03
  -2.19999999E-03   1.58176129E-03
  -2.15000007E-03   1.58978952E-03
  -2.09999993E-03   1.59760099E-03
  -2.05000001E-03   1.60520186E-03
  -2.00000009E-03   1.61258748E-03
  -1.94999995E-03   1.61974540E-03
  -1.90000003E-03   1.62665697E-03
  -1.85000000E-03   1.63330673E-03
  -1.79999997E-03   1.63967407E-03
  -1.75000005E-03   1.64574711E-03
  -1.70000002E-03   1.65152492E-03
  -1.64999999E-03   1.65700691E-03
  -1.59999996E-03   1.66219834E-03
  -1.55000004E-03   1.66710233E-03
  -1.50000001E-03   1.67171308E-03
  -1.44999998E-03   1.67601078E-03
  -1.39999995E-03   1.67996972E-03
  -1.35000004E-03   1.68356858E-03
  -1.30000000E-03   1.68678875E-03
  -1.24999997E-03   1.68962148E-03
  -1.20000006E-03   1.69207423E-03
  -1.15000003E-03   1.69415248E-03
  -1.09999999E-03   1.69585925E-03
  -1.04999996E-03   1.69719534E-03
  -1.00000005E-03   1.69813843E-03
  -9.50000016E-04   1.69865880E-03
  -8.99999985E-04   1.69873075E-03
  -8.50000011E-04   1.69833633E-03
  -7.99999980E-04   1.69746962E-03
  -7.50000007E-04   1.69613014E-03
  -6.99999975E-04   1.69432536E-03
  -6.50000002E-04   1.69206259E-03
  -6.00000028E-04   1.68933766E-03
  -5.49999997E-04   1.68613472E-03
  -5.00000024E-04   1.68242841E-03
  -4.49999992E-04   1.67818682E-03
  -3.99999990E-04   1.67338096E-03
  -3.49999988E-04   1.66799722E-03
  -3.00000014E-04   1.66203920E-03
  -2.50000012E-04   1.65551493E-03
  -1.99999995E-04   1.64843071E-03
  -1.50000007E-04   1.64078479E-03
  -9.99999975E-05   1.63256517E-03
  -4.99999987E-05   1.62375066E-03
   0.00000000       1.61431113E-03
   4.99999987E-05   1.60421792E-03
   9.99999975E-05   1.59344415E-03
   1.50000007E-04   1.58198364E-03
   1.99999995E-04   1.56984781E-03
   2.50000012E-04   1.55703770E-03
   3.00000014E-04   1.54355750E-03
   3.49999988E-04   1.52940839E-03
   3.99999990E-04   1.51457603E-03
   4.49999992E-04   1.49902632E-03
   5.00000024E-04   1.48271886E-03
   5.49999997E-04   1.46562816E-03
   6.00000028E-04   1.44773989E-03
   6.50000002E-04   1.42905267E-03
   6.99999975E-04   1.40957953E-03
   7.50000007E-04   1.38933246E-03
   7.99999980E-04   1.36832055E-03
   8.50000011E-04   1.34652457E-03
   8.99999985E-04   1.32390379E-03
   9.50000016E-04   1.30042341E-03
   1.00000005E-03   1.27605104E-03
   1.04999996E-03   1.25077006E-03
   1.09999999E-03   1.22458092E-03
   1.15000003E-03   1.19749946E-03
   1.20000006E-03   1.16954197E-03
   1.24999997E-03   1.14070170E-03
   1.30000000E-03   1.11096073E-03
   1.35000004E-03   1.08028925E-03
   1.39999995E-03   1.04864710E-03
   1.44999998E-03   1.01600774E-03
   1.50000001E-03   9.82357189E-04
   1.55000004E-03   9.47690161E-04
   1.59999996E-03   9.12016432E-04
   1.64999999E-03   8.75354628E-04
   1.70000002E-03   8.37710744E-04
   1.75000005E-03   7.99077563E-04
   1.79999997E-03   7.59423652E-04
   1.85000000E-03   7.18694355E-04
   1.90000003E-03   6.76846306E-04
   1.94999995E-03   6.33860938E-04
   2.00000009E-03   5.89747622E-04
   2.05000001E-03   5.44532551E-04
   2.09999993E-03   4.98230453E-04
   2.15000007E-03   4.50845720E-04
   2.19999999E-03   4.02366481E-04
   2.24999990E-03   3.52758972E-04
   2.30000005E-03   3.01978784E-04
   2.34999997E-03   2.49988982E-04
   2.40000011E-03   1.96767898E-04
   2.45000003E-03   1.42316232E-04
   2.49999994E-03   8.66557311E-05
   2.55000009E-03   2.98103696E-05
   2.60000001E-03  -2.82123874E-05
   2.64999992E-03  -8.74290708E-05
   2.70000007E-03  -1.47874060E-04
   2.74999999E-03  -2.09583552E-04
   2.79999990E-03  -2.72597157E-04