  -3.99999991E-02   0.00000000    
  -3.99499983E-02   0.00000000    
  -3.99000011E-02   0.00000000    
  -3.98500003E-02  -7.27600888E-18
  -3.97999994E-02  -5.53179682E-17
  -3.97499986E-02  -2.31118948E-16
  -3.97000015E-02  -6.93353695E-16
  -3.96500006E-02  -1.66056066E-15
  -3.95999998E-02  -3.36338191E-15
  -3.95499989E-02  -5.97747932E-15
  -3.95000018E-02  -9.56846025E-15
  -3.94500010E-02  -1.40821633E-14
  -3.94000001E-02  -1.94055096E-14
  -3.93499993E-02  -2.55019530E-14
  -3.92999984E-02  -3.25865941E-14
  -3.92500013E-02  -4.12622817E-14
  -3.92000005E-02  -5.25258175E-14
  -3.91499996E-02  -6.76016792E-14
  -3.90999988E-02  -8.76538832E-14
  -3.90500017E-02  -1.13503458E-13
  -3.90000008E-02  -1.45483357E-13
  -3.89500000E-02  -1.83494496E-13
  -3.88999991E-02  -2.27236117E-13
  -3.88499983E-02  -2.76522728E-13
  -3.88000011E-02  -3.31582608E-13
  -3.87500003E-02  -3.93241022E-13
  -3.86999995E-02  -4.62916814E-13
  -3.86499986E-02  -5.42410951E-13
  -3.86000015E-02  -6.33536246E-13
  -3.85500006E-02  -7.37692784E-13
  -3.84999998E-02  -8.55503168E-13
  -3.84499989E-02  -9.86587656E-13
  -3.84000018E-02  -1.12953483E-12
  -3.83500010E-02  -1.28212903E-12
  -3.83000001E-02  -1.44189359E-12
  -3.82499993E-02  -1.60692661E-12
  -3.81999984E-02  -1.77681383E-12
  -3.81500013E-02  -1.95321797E-12
  -3.81000005E-02  -2.13970985E-12
  -3.80499996E-02  -2.34062509E-12
  -3.79999988E-02  -2.55915623E-12
  -3.79500017E-02  -2.79531931E-12
  -3.79000008E-02  -3.04467779E-12
  -3.78500000E-02  -3.29857756E-12
  -3.77999991E-02  -3.54614125E-12
  -3.77499983E-02  -3.77750435E-12
  -3.77000012E-02  -3.98703336E-12
  -3.76500003E-02  -4.17497937E-12
  -3.75999995E-02  -4.34645158E-12
  -3.75499986E-02  -4.50771712E-12
  -3.75000015E-02  -4.66124752E-12
  -3.74500006E-02  -4.80184772E-12
  -3.73999998E-02  -4.91609314E-12
  -3.73499990E-02  -4.98600510E-12
  -3.73000018E-02  -4.99588999E-12
  -3.72500010E-02  -4.93945163E-12
  -3.72000001E-02  -4.82363628E-12
  -3.71499993E-02  -4.66662689E-12
  -3.70999984E-02  -4.48987115E-12
  -3.70500013E-02  -4.30694152E-12
  -3.70000005E-02  -4.11412961E-12
  -3.69499996E-02  -3.88768618E-12
  -3.68999988E-02  -3.59017568E-12
  -3.68500017E-02  -3.18437659E-12
  -3.68000008E-02  -2.64924215E-12
  -3.67500000E-02  -1.99067737E-12
  -3.66999991E-02  -1.24138601E-12
  -3.66499983E-02  -4.48585532E-13
  -3.66000012E-02   3.45963817E-13
  -3.65500003E-02   1.12497815E-12
  -3.64999995E-02   1.90455095E-12
  -3.64499986E-02   2.72756861E-12
  -3.64000015E-02   3.64311359E-12
  -3.63500006E-02   4.68021542E-12
  -3.62999998E-02   5.82796311E-12
  -3.62499990E-02   7.03230443E-12
  -3.62000018E-02   8.21299452E-12
  -3.61500010E-02   9.29486089E-12
  -3.61000001E-02   1.02400597E-11
  -3.60499993E-02   1.10661558E-11
  -3.59999985E-02   1.18400819E-11
  -3.59500013E-02   1.26485229E-11
  -3.59000005E-02   1.35564797E-11
  -3.58499996E-02   1.45723433E-11
  -3.57999988E-02   1.56362649E-11
  -3.57500017E-02   1.66391172E-11
  -3.57000008E-02   1.74655308E-11
  -3.56500000E-02   1.80427270E-11
  -3.55999991E-02   1.83727322E-11
  -3.55499983E-02   1.85316137E-11
  -3.55000012E-02   1.86337525E-11
  -3.54500003E-02   1.87755853E-11
  -3.53999995E-02   1.89841164E-11
  -3.53499986E-02   1.91950778E-11
  -3.53000015E-02   1.92734093E-11
  -3.52500007E-02   1.90695081E-11
  -3.51999998E-02   1.84874043E-11
  -3.51499990E-02   1.75337314E-11
  -3.51000018E-02   1.63232379E-11
  -3.50500010E-02   1.50352144E-11
  -3.50000001E-02   1.38376454E-11
  -3.49499993E-02   1.28120578E-11
  -3.48999985E-02   1.19138718E-11
  -3.48500013E-02   1.09887230E-11
  -3.48000005E-02   9.84044356E-12
  -3.47499996E-02   8.32192214E-12
  -3.46999988E-02   6.40782826E-12
  -3.46500017E-02   4.21429081E-12
  -3.46000008E-02   1.95372494E-12
  -3.45500000E-02  -1.57629050E-13
  -3.44999991E-02  -1.99889324E-12
  -3.44499983E-02  -3.60498827E-12
  -3.44000012E-02  -5.15832125E-12
  -3.43500003E-02  -6.91197620E-12
  -3.42999995E-02  -9.07610445E-12
  -3.42499986E-02  -1.17179079E-11
  -3.42000015E-02  -1.47217134E-11
  -3.41500007E-02  -1.78302095E-11
  -3.40999998E-02  -2.07514370E-11
  -3.40499990E-02  -2.32851082E-11
  -3.40000018E-02  -2.54113432E-11
  -3.39500010E-02  -2.73002211E-11
  -3.39000002E-02  -2.92356382E-11
  -3.38499993E-02  -3.14859007E-11
  -3.37999985E-02  -3.41787813E-11
  -3.37500013E-02  -3.72384207E-11
  -3.37000005E-02  -4.04147757E-11
  -3.36499996E-02  -4.33949265E-11
  -3.35999988E-02  -4.59473605E-11
  -3.35500017E-02  -4.80334418E-11
  -3.35000008E-02  -4.98331272E-11
  -3.34500000E-02  -5.16698663E-11
  -3.33999991E-02  -5.38657313E-11
  -3.33499983E-02  -5.65909090E-11
  -3.33000012E-02  -5.97759203E-11
  -3.32500003E-02  -6.31280792E-11
  -3.31999995E-02  -6.62471744E-11
  -3.31499986E-02  -6.87904733E-11
  -3.31000015E-02  -7.06140285E-11
  -3.30500007E-02  -7.18261839E-11
  -3.29999998E-02  -7.27280250E-11
  -3.29499990E-02  -7.36659067E-11
  -3.29000019E-02  -7.48618598E-11
  -3.28500010E-02  -7.62989671E-11
  -3.28000002E-02  -7.77147444E-11
  -3.27499993E-02  -7.87070478E-11
  -3.26999985E-02  -7.89055557E-11
  -3.26500013E-02  -7.81314388E-11
  -3.26000005E-02  -7.64725228E-11
  -3.25499997E-02  -7.42389761E-11
  -3.24999988E-02  -7.18176144E-11
  -3.24500017E-02  -6.94889701E-11
  -3.24000008E-02  -6.72886052E-11
  -3.23500000E-02  -6.49750392E-11
  -3.22999991E-02  -6.21196081E-11
  -3.22499983E-02  -5.82792356E-11
  -3.22000012E-02  -5.31756930E-11
  -3.21500003E-02  -4.68022600E-11
  -3.20999995E-02  -3.94115886E-11
  -3.20499986E-02  -3.13922985E-11
  -3.20000015E-02  -2.30915599E-11
  -3.19500007E-02  -1.46636626E-11
  -3.18999998E-02  -6.01196176E-12
  -3.18499990E-02   3.15169267E-12
  -3.18000019E-02   1.31584006E-11
  -3.17500010E-02   2.42125903E-11
  -3.17000002E-02   3.62777829E-11
  -3.16499993E-02   4.90687421E-11
  -3.15999985E-02   6.21525539E-11
  -3.15500014E-02   7.51120485E-11
  -3.15000005E-02   8.76980294E-11
  -3.14499997E-02   9.99031483E-11
  -3.13999988E-02   1.11927176E-10
  -3.13500017E-02   1.24052324E-10
  -3.13000008E-02   1.36485878E-10
  -3.12500000E-02   1.49240217E-10
  -3.11999992E-02   1.62100305E-10
  -3.11500002E-02   1.74688805E-10
  -3.10999993E-02   1.86595905E-10
  -3.10500003E-02   1.97514005E-10
  -3.09999995E-02   2.07318260E-10
  -3.09500005E-02   2.16061016E-10
  -3.08999997E-02   2.23887783E-10
  -3.08500007E-02   2.30917077E-10
  -3.07999998E-02   2.37139419E-10
  -3.07500008E-02   2.42378839E-10
  -3.07000000E-02   2.46329346E-10
  -3.06499992E-02   2.48645493E-10
  -3.06000002E-02   2.49045007E-10
  -3.05499993E-02   2.47380616E-10
  -3.05000003E-02   2.43655374E-10
  -3.04499995E-02   2.37982939E-10
  -3.04000005E-02   2.30516578E-10
  -3.03499997E-02   2.21379415E-10
  -3.03000007E-02   2.10623449E-10
  -3.02499998E-02   1.98226033E-10
  -3.02000009E-02   1.84115417E-10
  -3.01500000E-02   1.68206754E-10
  -3.00999992E-02   1.50431501E-10
  -3.00500002E-02   1.30752256E-10
  -2.99999993E-02   1.09167453E-10
  -2.99500003E-02   8.57125204E-11
  -2.98999995E-02   6.04624198E-11
  -2.98500005E-02   3.35322603E-11
  -2.97999997E-02   5.06755965E-12
  -2.97500007E-02  -2.47814217E-11
  -2.96999998E-02  -5.58979252E-11
  -2.96500009E-02  -8.82331638E-11
  -2.96000000E-02  -1.21813865E-10
  -2.95499992E-02  -1.56708188E-10
  -2.95000002E-02  -1.92951183E-10
  -2.94499993E-02  -2.30455918E-10
  -2.94000003E-02  -2.68951916E-10
  -2.93499995E-02  -3.07988551E-10
  -2.93000005E-02  -3.47018914E-10
  -2.92499997E-02  -3.85540322E-10
  -2.92000007E-02  -4.23236668E-10
  -2.91499998E-02  -4.60055022E-10
  -2.91000009E-02  -4.96171659E-10
  -2.90500000E-02  -5.31847066E-10
  -2.89999992E-02  -5.67224823E-10
  -2.89500002E-02  -6.02161987E-10
  -2.88999993E-02  -6.36175168E-10
  -2.88500004E-02  -6.68540834E-10
  -2.87999995E-02  -6.98519853E-10
  -2.87500005E-02  -7.25611848E-10
  -2.86999997E-02  -7.49722118E-10
  -2.86500007E-02  -7.71149644E-10
  -2.85999998E-02  -7.90382537E-10
  -2.85500009E-02  -8.07776235E-10
  -2.85000000E-02  -8.23255020E-10
  -2.84499992E-02  -8.36180070E-10
  -2.84000002E-02  -8.45465586E-10
  -2.83499993E-02  -8.49913417E-10
  -2.83000004E-02  -8.48635606E-10
  -2.82499995E-02  -8.41376524E-10
  -2.82000005E-02  -8.28581592E-10
  -2.81499997E-02  -8.11159473E-10
  -2.81000007E-02  -7.90024046E-10
  -2.80499998E-02  -7.65609687E-10
  -2.80000009E-02  -7.37580830E-10
  -2.79500000E-02  -7.04883318E-10
  -2.78999992E-02  -6.66139366E-10
  -2.78500002E-02  -6.20227925E-10
  -2.77999993E-02  -5.66795777E-10
  -2.77500004E-02  -5.06459319E-10
  -2.76999995E-02  -4.40581127E-10
  -2.76500005E-02  -3.70696585E-10
  -2.75999997E-02  -2.97833230E-10
  -2.75500007E-02  -2.22024302E-10
  -2.74999999E-02  -1.42258358E-10
  -2.74500009E-02  -5.69150213E-11
  -2.74000000E-02   3.54796227E-11
  -2.73499992E-02   1.35500167E-10
  -2.73000002E-02   2.42410980E-10
  -2.72499993E-02   3.54308555E-10
  -2.72000004E-02   4.68776684E-10
  -2.71499995E-02   5.83788629E-10
  -2.71000005E-02   6.98454017E-10
  -2.70499997E-02   8.13264234E-10
  -2.70000007E-02   9.29696764E-10
  -2.69499999E-02   1.04932707E-09
  -2.69000009E-02   1.17283294E-09
  -2.68500000E-02   1.29933453E-09
  -2.67999992E-02   1.42639855E-09
  -2.67500002E-02   1.55073276E-09
  -2.66999993E-02   1.66929559E-09
  -2.66500004E-02   1.78033932E-09
  -2.65999995E-02   1.88390037E-09
  -2.65500005E-02   1.98149364E-09
  -2.64999997E-02   2.07510520E-09
  -2.64500007E-02   2.16591167E-09
  -2.63999999E-02   2.25329111E-09
  -2.63500009E-02   2.33459718E-09
  -2.63000000E-02   2.40582598E-09
  -2.62499992E-02   2.46291854E-09
  -2.62000002E-02   2.50313659E-09
  -2.61499994E-02   2.52589061E-09
  -2.61000004E-02   2.53261723E-09
  -2.60499995E-02   2.52572940E-09
  -2.60000005E-02   2.50706700E-09
  -2.59499997E-02   2.47654297E-09
  -2.59000007E-02   2.43159781E-09
  -2.58499999E-02   2.36776687E-09
  -2.58000009E-02   2.28013919E-09
  -2.57500000E-02   2.16508500E-09
  -2.56999992E-02   2.02149941E-09
  -2.56500002E-02   1.85095506E-09
  -2.55999994E-02   1.65667935E-09
  -2.55500004E-02   1.44175150E-09
  -2.54999995E-02   1.20731802E-09
  -2.54500005E-02   9.51630774E-10
  -2.53999997E-02   6.70363209E-10
  -2.53500007E-02   3.58122143E-10
  -2.52999999E-02   1.05014305E-11
  -2.52500009E-02  -3.74232423E-10
  -2.52000000E-02  -7.94600941E-10
  -2.51499992E-02  -1.24680155E-09
  -2.51000002E-02  -1.72667425E-09
  -2.50499994E-02  -2.23188446E-09
  -2.50000004E-02  -2.76334577E-09
  -2.49499995E-02  -3.32518857E-09
  -2.49000005E-02  -3.92327104E-09
  -2.48499997E-02  -4.56280791E-09
  -2.48000007E-02  -5.24619548E-09
  -2.47499999E-02  -5.97201577E-09
  -2.47000009E-02  -6.73569112E-09
  -2.46500000E-02  -7.53158336E-09
  -2.45999992E-02  -8.35559177E-09
  -2.45500002E-02  -9.20714882E-09
  -2.44999994E-02  -1.00896305E-08
  -2.44500004E-02  -1.10089928E-08
  -2.43999995E-02  -1.19712000E-08
  -2.43500005E-02  -1.29795259E-08
  -2.42999997E-02  -1.40330272E-08
  -2.42500007E-02  -1.51268349E-08
  -2.41999999E-02  -1.62542602E-08
  -2.41500009E-02  -1.74097554E-08
  -2.41000000E-02  -1.85914519E-08
  -2.40499992E-02  -1.98020995E-08
  -2.40000002E-02  -2.10479172E-08
  -2.39499994E-02  -2.23358310E-08
  -2.39000004E-02  -2.36703084E-08
  -2.38499995E-02  -2.50511878E-08
  -2.38000005E-02  -2.64735132E-08
  -2.37499997E-02  -2.79295307E-08
  -2.37000007E-02  -2.94119857E-08
  -2.36499999E-02  -3.09172812E-08
  -2.36000009E-02  -3.24470300E-08
  -2.35500000E-02  -3.40073321E-08
  -2.34999992E-02  -3.56060070E-08
  -2.34500002E-02  -3.72489453E-08
  -2.33999994E-02  -3.89373263E-08
  -2.33500004E-02  -4.06668583E-08
  -2.32999995E-02  -4.24295230E-08
  -2.32500006E-02  -4.42170602E-08
  -2.31999997E-02  -4.60246561E-08
  -2.31500007E-02  -4.78531774E-08
  -2.30999999E-02  -4.97089339E-08
  -2.30500009E-02  -5.16009635E-08
  -2.30000000E-02  -5.35370468E-08
  -2.29499992E-02  -5.55202320E-08
  -2.29000002E-02  -5.75474459E-08
  -2.28499994E-02  -5.96108691E-08
  -2.28000004E-02  -6.17014990E-08
  -2.27499995E-02  -6.38133670E-08
  -2.27000006E-02  -6.59465229E-08
  -2.26499997E-02  -6.81073260E-08
  -2.26000007E-02  -7.03060010E-08
  -2.25499999E-02  -7.25523819E-08
  -2.25000009E-02  -7.48518190E-08
  -2.24500000E-02  -7.72030475E-08
  -2.23999992E-02  -7.95990971E-08
  -2.23500002E-02  -8.20308159E-08
  -2.22999994E-02  -8.44915462E-08
  -2.22500004E-02  -8.69808048E-08
  -2.21999995E-02  -8.95052992E-08
  -2.21500006E-02  -9.20767746E-08
  -2.20999997E-02  -9.47076160E-08
  -2.20500007E-02  -9.74061223E-08
  -2.19999999E-02  -1.00173565E-07
  -2.19500009E-02  -1.03004453E-07
  -2.19000001E-02  -1.05889896E-07
  -2.18499992E-02  -1.08822626E-07
  -2.18000002E-02  -1.11801320E-07
  -2.17499994E-02  -1.14832446E-07
  -2.17000004E-02  -1.17928629E-07
  -2.16499995E-02  -1.21104151E-07
  -2.16000006E-02  -1.24369805E-07
  -2.15499997E-02  -1.27729251E-07
  -2.15000007E-02  -1.31178552E-07
  -2.14499999E-02  -1.34709182E-07
  -2.14000009E-02  -1.38313325E-07
  -2.13500001E-02  -1.41988835E-07
  -2.12999992E-02  -1.45741851E-07
  -2.12500002E-02  -1.49585759E-07
  -2.11999994E-02  -1.53536817E-07
  -2.11500004E-02  -1.57608611E-07
  -2.10999995E-02  -1.61807534E-07
  -2.10500006E-02  -1.66131585E-07
  -2.09999997E-02  -1.70573031E-07
  -2.09500007E-02  -1.75123560E-07
  -2.08999999E-02  -1.79779946E-07
  -2.08500009E-02  -1.84547346E-07
  -2.08000001E-02  -1.89439078E-07
  -2.07499992E-02  -1.94472477E-07
  -2.07000002E-02  -1.99663077E-07
  -2.06499994E-02  -2.05019532E-07
  -2.06000004E-02  -2.10541558E-07
  -2.05499995E-02  -2.16221991E-07
  -2.05000006E-02  -2.22052151E-07
  -2.04499997E-02  -2.28027830E-07
  -2.04000007E-02  -2.34153475E-07
  -2.03499999E-02  -2.40442574E-07
  -2.03000009E-02  -2.46913970E-07
  -2.02500001E-02  -2.53585625E-07
  -2.01999992E-02  -2.60469278E-07
  -2.01500002E-02  -2.67567003E-07
  -2.00999994E-02  -2.74873088E-07
  -2.00500004E-02  -2.82378835E-07
  -1.99999996E-02  -2.90079072E-07
  -1.99500006E-02  -2.97977124E-07
  -1.98999997E-02  -3.06085838E-07
  -1.98500007E-02  -3.14424710E-07
  -1.97999999E-02  -3.23013495E-07
  -1.97500009E-02  -3.31866175E-07
  -1.97000001E-02  -3.40987242E-07
  -1.96499992E-02  -3.50372403E-07
  -1.96000002E-02  -3.60013331E-07
  -1.95499994E-02  -3.69904370E-07
  -1.95000004E-02  -3.80047993E-07
  -1.94499996E-02  -3.90456933E-07
  -1.94000006E-02  -4.01151567E-07
  -1.93499997E-02  -4.12153923E-07
  -1.93000007E-02  -4.23480913E-07
  -1.92499999E-02  -4.35140066E-07
  -1.92000009E-02  -4.47129281E-07
  -1.91500001E-02  -4.59441225E-07
  -1.90999992E-02  -4.72070042E-07
  -1.90500002E-02  -4.85017722E-07
  -1.89999994E-02  -4.98296743E-07
  -1.89500004E-02  -5.11928079E-07
  -1.88999996E-02  -5.25935491E-07
  -1.88500006E-02  -5.40338476E-07
  -1.87999997E-02  -5.55147210E-07
  -1.87500007E-02  -5.70361692E-07
  -1.86999999E-02  -5.85975840E-07
  -1.86500009E-02  -6.01984027E-07
  -1.86000001E-02  -6.18387958E-07
  -1.85499992E-02  -6.35200138E-07
  -1.85000002E-02  -6.52442452E-07
  -1.84499994E-02  -6.70140878E-07
  -1.84000004E-02  -6.88318210E-07
  -1.83499996E-02  -7.06988260E-07
  -1.83000006E-02  -7.26154269E-07
  -1.82499997E-02  -7.45812315E-07
  -1.82000007E-02  -7.65957850E-07
  -1.81499999E-02  -7.86593034E-07
  -1.81000009E-02  -8.07730544E-07
  -1.80500001E-02  -8.29393571E-07
  -1.79999992E-02  -8.51610196E-07
  -1.79500002E-02  -8.74406282E-07
  -1.78999994E-02  -8.97799111E-07
  -1.78500004E-02  -9.21795106E-07
  -1.77999996E-02  -9.46392390E-07
  -1.77500006E-02  -9.71587497E-07
  -1.76999997E-02  -9.97382926E-07
  -1.76500008E-02  -1.02379170E-06
  -1.75999999E-02  -1.05083825E-06
  -1.75500009E-02  -1.07855317E-06
  -1.75000001E-02  -1.10696556E-06
  -1.74499992E-02  -1.13609667E-06
  -1.74000002E-02  -1.16595697E-06
  -1.73499994E-02  -1.19654749E-06
  -1.73000004E-02  -1.22786730E-06
  -1.72499996E-02  -1.25992017E-06
  -1.72000006E-02  -1.29272075E-06
  -1.71499997E-02  -1.32629464E-06
  -1.71000008E-02  -1.36067456E-06
  -1.70499999E-02  -1.39589270E-06
  -1.70000009E-02  -1.43197349E-06
  -1.69500001E-02  -1.46893024E-06
  -1.68999992E-02  -1.50676624E-06
  -1.68500002E-02  -1.54548161E-06
  -1.67999994E-02  -1.58508101E-06
  -1.67500004E-02  -1.62557899E-06
  -1.66999996E-02  -1.66700249E-06
  -1.66500006E-02  -1.70938608E-06
  -1.65999997E-02  -1.75276489E-06
  -1.65500008E-02  -1.79716733E-06
  -1.64999999E-02  -1.84261023E-06
  -1.64500009E-02  -1.88910030E-06
  -1.64000001E-02  -1.93664005E-06
  -1.63499992E-02  -1.98523571E-06
  -1.63000003E-02  -2.03490322E-06
  -1.62499994E-02  -2.08567053E-06
  -1.62000004E-02  -2.13757403E-06
  -1.61499996E-02  -2.19065191E-06
  -1.61000006E-02  -2.24493556E-06
  -1.60499997E-02  -2.30044520E-06
  -1.60000008E-02  -2.35718971E-06
  -1.59499999E-02  -2.41517341E-06
  -1.59000009E-02  -2.47440335E-06
  -1.58500001E-02  -2.53489611E-06
  -1.57999992E-02  -2.59668127E-06
  -1.57500003E-02  -2.65979725E-06
  -1.56999994E-02  -2.72428565E-06
  -1.56500004E-02  -2.79018218E-06
  -1.55999996E-02  -2.85751048E-06
  -1.55499997E-02  -2.92628465E-06
  -1.54999997E-02  -2.99651060E-06
  -1.54499998E-02  -3.06819879E-06
  -1.53999999E-02  -3.14136719E-06
  -1.53500000E-02  -3.21604807E-06
  -1.53000001E-02  -3.29228237E-06
  -1.52500002E-02  -3.37011579E-06
  -1.52000003E-02  -3.44958744E-06
  -1.51500003E-02  -3.53072642E-06
  -1.51000004E-02  -3.61354864E-06
  -1.50499996E-02  -3.69806367E-06
  -1.49999997E-02  -3.78428308E-06
  -1.49499997E-02  -3.87222690E-06
  -1.48999998E-02  -3.96192945E-06
  -1.48499999E-02  -4.05343553E-06
  -1.48000000E-02  -4.14679471E-06
  -1.47500001E-02  -4.24205109E-06
  -1.47000002E-02  -4.33923879E-06
  -1.46500003E-02  -4.43837826E-06
  -1.46000003E-02  -4.53948223E-06
  -1.45500004E-02  -4.64256573E-06
  -1.44999996E-02  -4.74765056E-06
  -1.44499997E-02  -4.85477585E-06
  -1.43999998E-02  -4.96398934E-06
  -1.43499998E-02  -5.07534469E-06
  -1.42999999E-02  -5.18889237E-06
  -1.42500000E-02  -5.30467059E-06
  -1.42000001E-02  -5.42270436E-06
  -1.41500002E-02  -5.54301187E-06
  -1.41000003E-02  -5.66560948E-06
  -1.40500003E-02  -5.79052312E-06
  -1.40000004E-02  -5.91779417E-06
  -1.39499996E-02  -6.04747356E-06
  -1.38999997E-02  -6.17962041E-06
  -1.38499998E-02  -6.31428884E-06
  -1.37999998E-02  -6.45152159E-06
  -1.37499999E-02  -6.59135048E-06
  -1.37000000E-02  -6.73379600E-06
  -1.36500001E-02  -6.87887950E-06
  -1.36000002E-02  -7.02663010E-06
  -1.35500003E-02  -7.17709236E-06
  -1.35000004E-02  -7.33032311E-06
  -1.34500004E-02  -7.48638558E-06
  -1.33999996E-02  -7.64533888E-06
  -1.33499997E-02  -7.80723440E-06
  -1.32999998E-02  -7.97210760E-06
  -1.32499998E-02  -8.13998122E-06
  -1.31999999E-02  -8.31088164E-06
  -1.31500000E-02  -8.48484069E-06
  -1.31000001E-02  -8.66190294E-06
  -1.30500002E-02  -8.84213023E-06
  -1.30000003E-02  -9.02559077E-06
  -1.29500004E-02  -9.21234732E-06
  -1.29000004E-02  -9.40245445E-06
  -1.28499996E-02  -9.59595218E-06
  -1.27999997E-02  -9.79286961E-06
  -1.27499998E-02  -9.99323311E-06
  -1.26999998E-02  -1.01970800E-05
  -1.26499999E-02  -1.04044575E-05
  -1.26000000E-02  -1.06154321E-05
  -1.25500001E-02  -1.08300737E-05
  -1.25000002E-02  -1.10484507E-05
  -1.24500003E-02  -1.12706211E-05
  -1.24000004E-02  -1.14966297E-05
  -1.23500004E-02  -1.17265081E-05
  -1.22999996E-02  -1.19602873E-05
  -1.22499997E-02  -1.21980011E-05
  -1.21999998E-02  -1.24396993E-05
  -1.21499998E-02  -1.26854466E-05
  -1.20999999E-02  -1.29353157E-05
  -1.20500000E-02  -1.31893757E-05
  -1.20000001E-02  -1.34476877E-05
  -1.19500002E-02  -1.37102979E-05
  -1.19000003E-02  -1.39772374E-05
  -1.18500004E-02  -1.42485378E-05
  -1.18000004E-02  -1.45242338E-05
  -1.17499996E-02  -1.48043755E-05
  -1.16999997E-02  -1.50890282E-05
  -1.16499998E-02  -1.53782621E-05
  -1.15999999E-02  -1.56721562E-05
  -1.15499999E-02  -1.59707724E-05
  -1.15000000E-02  -1.62741580E-05
  -1.14500001E-02  -1.65823458E-05
  -1.14000002E-02  -1.68953629E-05
  -1.13500003E-02  -1.72132441E-05
  -1.13000004E-02  -1.75360310E-05
  -1.12500004E-02  -1.78637838E-05
  -1.11999996E-02  -1.81965752E-05
  -1.11499997E-02  -1.85344761E-05
  -1.10999998E-02  -1.88775484E-05
  -1.10499999E-02  -1.92258340E-05
  -1.09999999E-02  -1.95793709E-05
  -1.09500000E-02  -1.99381775E-05
  -1.09000001E-02  -2.03022882E-05
  -1.08500002E-02  -2.06717414E-05
  -1.08000003E-02  -2.10466005E-05
  -1.07500004E-02  -2.14269348E-05
  -1.07000005E-02  -2.18128134E-05
  -1.06499996E-02  -2.22043000E-05
  -1.05999997E-02  -2.26014381E-05
  -1.05499998E-02  -2.30042551E-05
  -1.04999999E-02  -2.34127692E-05
  -1.04499999E-02  -2.38270004E-05
  -1.04000000E-02  -2.42469796E-05
  -1.03500001E-02  -2.46727595E-05
  -1.03000002E-02  -2.51043948E-05
  -1.02500003E-02  -2.55419545E-05
  -1.02000004E-02  -2.59854914E-05
  -1.01500005E-02  -2.64350456E-05
  -1.00999996E-02  -2.68906406E-05
  -1.00499997E-02  -2.73522874E-05
  -9.99999978E-03  -2.78199968E-05
  -9.94999986E-03  -2.82937908E-05
  -9.89999995E-03  -2.87737039E-05
  -9.85000003E-03  -2.92597942E-05
  -9.80000012E-03  -2.97521165E-05
  -9.75000020E-03  -3.02507215E-05
  -9.70000029E-03  -3.07556438E-05
  -9.65000037E-03  -3.12668999E-05
  -9.60000046E-03  -3.17844897E-05
  -9.54999961E-03  -3.23084132E-05
  -9.49999969E-03  -3.28386741E-05
  -9.44999978E-03  -3.33752978E-05
  -9.39999986E-03  -3.39183171E-05
  -9.34999995E-03  -3.44677792E-05
  -9.30000003E-03  -3.50237206E-05
  -9.25000012E-03  -3.55861557E-05
  -9.20000020E-03  -3.61550883E-05
  -9.15000029E-03  -3.67304965E-05
  -9.10000037E-03  -3.73123621E-05
  -9.05000046E-03  -3.79006742E-05
  -8.99999961E-03  -3.84954328E-05
  -8.94999970E-03  -3.90966597E-05
  -8.89999978E-03  -3.97043805E-05
  -8.84999987E-03  -4.03186168E-05
  -8.79999995E-03  -4.09393797E-05
  -8.75000004E-03  -4.15666473E-05
  -8.70000012E-03  -4.22003977E-05
  -8.65000021E-03  -4.28405874E-05
  -8.60000029E-03  -4.34871836E-05
  -8.55000038E-03  -4.41401680E-05
  -8.50000046E-03  -4.47995371E-05
  -8.44999962E-03  -4.54652909E-05
  -8.39999970E-03  -4.61374293E-05
  -8.34999979E-03  -4.68159378E-05
  -8.29999987E-03  -4.75007764E-05
  -8.24999996E-03  -4.81918833E-05
  -8.20000004E-03  -4.88891928E-05
  -8.15000013E-03  -4.95926470E-05
  -8.10000021E-03  -5.03021947E-05
  -8.05000030E-03  -5.10177924E-05
  -8.00000038E-03  -5.17394255E-05
  -7.95000046E-03  -5.24670504E-05
  -7.89999962E-03  -5.32006234E-05
  -7.84999970E-03  -5.39400862E-05
  -7.79999979E-03  -5.46853480E-05
  -7.74999987E-03  -5.54363214E-05
  -7.69999996E-03  -5.61929046E-05
  -7.65000004E-03  -5.69550175E-05
  -7.60000013E-03  -5.77225910E-05
  -7.55000021E-03  -5.84955669E-05
  -7.49999983E-03  -5.92738761E-05
  -7.44999992E-03  -6.00574422E-05
  -7.40000000E-03  -6.08461669E-05
  -7.35000009E-03  -6.16399411E-05
  -7.30000017E-03  -6.24386084E-05
  -7.24999979E-03  -6.32420488E-05
  -7.19999988E-03  -6.40501239E-05
  -7.14999996E-03  -6.48627247E-05
  -7.10000005E-03  -6.56797420E-05
  -7.05000013E-03  -6.65010812E-05
  -7.00000022E-03  -6.73266186E-05
  -6.94999984E-03  -6.81562087E-05
  -6.89999992E-03  -6.89896988E-05
  -6.85000001E-03  -6.98268996E-05
  -6.80000009E-03  -7.06676365E-05
  -6.75000018E-03  -7.15117203E-05
  -6.69999979E-03  -7.23590056E-05
  -6.64999988E-03  -7.32093322E-05
  -6.59999996E-03  -7.40625328E-05
  -6.55000005E-03  -7.49184546E-05
  -6.50000013E-03  -7.57768867E-05
  -6.45000022E-03  -7.66376324E-05
  -6.39999984E-03  -7.75004519E-05
  -6.34999992E-03  -7.83651267E-05
  -6.30000001E-03  -7.92314313E-05
  -6.25000009E-03  -8.00991547E-05
  -6.20000018E-03  -8.09680860E-05
  -6.14999980E-03  -8.18379995E-05
  -6.09999988E-03  -8.27086915E-05
  -6.04999997E-03  -8.35798928E-05
  -6.00000005E-03  -8.44513343E-05
  -5.95000014E-03  -8.53227393E-05
  -5.90000022E-03  -8.61938170E-05
  -5.84999984E-03  -8.70642762E-05
  -5.79999993E-03  -8.79338477E-05
  -5.75000001E-03  -8.88022478E-05
  -5.70000010E-03  -8.96692000E-05
  -5.65000018E-03  -9.05343986E-05
  -5.59999980E-03  -9.13975455E-05
  -5.54999989E-03  -9.22582913E-05
  -5.49999997E-03  -9.31162940E-05
  -5.45000006E-03  -9.39711972E-05
  -5.40000014E-03  -9.48226370E-05
  -5.35000023E-03  -9.56702715E-05
  -5.29999984E-03  -9.65137515E-05
  -5.24999993E-03  -9.73527203E-05
  -5.20000001E-03  -9.81868288E-05
  -5.15000010E-03  -9.90156841E-05
  -5.10000018E-03  -9.98388859E-05
  -5.04999980E-03  -1.00656020E-04
  -4.99999989E-03  -1.01466641E-04
  -4.94999997E-03  -1.02270336E-04
  -4.90000006E-03  -1.03066683E-04
  -4.85000014E-03  -1.03855229E-04
  -4.80000023E-03  -1.04635554E-04
  -4.74999985E-03  -1.05407220E-04
  -4.69999993E-03  -1.06169762E-04
  -4.65000002E-03  -1.06922678E-04
  -4.60000010E-03  -1.07665473E-04
  -4.55000019E-03  -1.08397624E-04
  -4.49999981E-03  -1.09118606E-04
  -4.44999989E-03  -1.09827903E-04
  -4.39999998E-03  -1.10525019E-04
  -4.35000006E-03  -1.11209440E-04
  -4.30000015E-03  -1.11880639E-04
  -4.25000023E-03  -1.12538051E-04
  -4.19999985E-03  -1.13181100E-04
  -4.14999994E-03  -1.13809183E-04
  -4.10000002E-03  -1.14421688E-04
  -4.05000011E-03  -1.15018032E-04
  -4.00000019E-03  -1.15597606E-04
  -3.94999981E-03  -1.16159841E-04
  -3.89999989E-03  -1.16704126E-04
  -3.84999998E-03  -1.17229829E-04
  -3.80000006E-03  -1.17736308E-04
  -3.74999992E-03  -1.18222881E-04
  -3.70000000E-03  -1.18688855E-04
  -3.65000009E-03  -1.19133547E-04
  -3.59999994E-03  -1.19556229E-04
  -3.55000002E-03  -1.19956203E-04
  -3.50000011E-03  -1.20332792E-04
  -3.44999996E-03  -1.20685298E-04
  -3.40000005E-03  -1.21012985E-04
  -3.34999990E-03  -1.21315119E-04
  -3.29999998E-03  -1.21590914E-04
  -3.25000007E-03  -1.21839563E-04
  -3.19999992E-03  -1.22060264E-04
  -3.15000000E-03  -1.22252226E-04
  -3.10000009E-03  -1.22414640E-04
  -3.04999994E-03  -1.22546742E-04
  -3.00000003E-03  -1.22647747E-04
  -2.95000011E-03  -1.22716840E-04
  -2.89999996E-03  -1.22753147E-04
  -2.85000005E-03  -1.22755810E-04
  -2.79999990E-03  -1.22723926E-04
  -2.74999999E-03  -1.22656595E-04
  -2.70000007E-03  -1.22552883E-04
  -2.64999992E-03  -1.22411933E-04
  -2.60000001E-03  -1.22232814E-04
  -2.55000009E-03  -1.22014666E-04
  -2.49999994E-03  -1.21756573E-04
  -2.45000003E-03  -1.21457597E-04
  -2.40000011E-03  -1.21116740E-04
  -2.34999997E-03  -1.20732991E-04
  -2.30000005E-03  -1.20305340E-04
  -2.24999990E-03  -1.19832730E-04
  -2.19999999E-03  -1.19314194E-04
  -2.15000007E-03  -1.18748736E-04
  -2.09999993E-03  -1.18135395E-04
  -2.05000001E-03  -1.17473166E-04
  -2.00000009E-03  -1.16760995E-04
  -1.94999995E-03  -1.15997798E-04
  -1.90000003E-03  -1.15182462E-04
  -1.85000000E-03  -1.14313872E-04
  -1.79999997E-03  -1.13390903E-04
  -1.75000005E-03  -1.12412468E-04
  -1.70000002E-03  -1.11377507E-04
  -1.64999999E-03  -1.10284949E-04
  -1.59999996E-03  -1.09133718E-04
  -1.55000004E-03  -1.07922671E-04
  -1.50000001E-03  -1.06650616E-04
  -1.44999998E-03  -1.05316336E-04
  -1.39999995E-03  -1.03918610E-04
  -1.35000004E-03  -1.02456237E-04
  -1.30000000E-03  -1.00928024E-04
  -1.24999997E-03  -9.93328067E-05
  -1.20000006E-03  -9.76694355E-05
  -1.15000003E-03  -9.59367608E-05
  -1.09999999E-03  -9.41335675E-05
  -1.04999996E-03  -9.22585750E-05
  -1.00000005E-03  -9.03104738E-05
  -9.50000016E-04  -8.82879540E-05
  -8.99999985E-04  -8.61896842E-05
  -8.50000011E-04  -8.40144421E-05
  -7.99999980E-04  -8.17609689E-05
  -7.50000007E-04  -7.94280932E-05
  -6.99999975E-04  -7.70145707E-05
  -6.50000002E-04  -7.45191355E-05
  -6.00000028E-04  -7.19404488E-05
  -5.49999997E-04  -6.92771355E-05
  -5.00000024E-04  -6.65277912E-05
  -4.49999992E-04  -6.36910263E-05
  -3.99999990E-04  -6.07655238E-05
  -3.49999988E-04  -5.77499704E-05
  -3.00000014E-04  -5.46431329E-05
  -2.50000012E-04  -5.14437234E-05
  -1.99999995E-04  -4.81504176E-05
  -1.50000007E-04  -4.47618222E-05
  -9.99999975E-05  -4.12765003E-05
  -4.99999987E-05  -3.76929856E-05
   0.00000000      -3.40098341E-05
   4.99999987E-05  -3.02256685E-05
   9.99999975E-05  -2.63391612E-05
   1.50000007E-04  -2.23489969E-05
   1.99999995E-04  -1.82538988E-05
   2.50000012E-04  -1.40525035E-05
   3.00000014E-04  -9.74342402E-06
   3.49999988E-04  -5.32517151E-06
   3.99999990E-04  -7.96247036E-07
   4.49999992E-04   3.84481473E-06
   5.00000024E-04   8.59944248E-06
   5.49999997E-04   1.34689653E-05
   6.00000028E-04   1.84547116E-05
   6.50000002E-04   2.35579591E-05
   6.99999975E-04   2.87800412E-05
   7.50000007E-04   3.41223640E-05
   7.99999980E-04   3.95863754E-05
   8.50000011E-04   4.51735905E-05
   8.99999985E-04   5.08855046E-05
   9.50000016E-04   5.67235729E-05
   1.00000005E-03   6.26891706E-05
   1.04999996E-03   6.87835636E-05
   1.09999999E-03   7.50080289E-05
   1.15000003E-03   8.13638471E-05
   1.20000006E-03   8.78523570E-05
   1.24999997E-03   9.44749772E-05
   1.30000000E-03   1.01233221E-04
   1.35000004E-03   1.08128581E-04
   1.39999995E-03   1.15162446E-04
   1.44999998E-03   1.22336147E-04
   1.50000001E-03   1.29650929E-04
   1.55000004E-03   1.37107971E-04
   1.59999996E-03   1.44708494E-04
   1.64999999E-03   1.52453751E-04
   1.70000002E-03   1.60345109E-04
   1.75000005E-03   1.68383980E-04
   1.79999997E-03   1.76571819E-04
   1.85000000E-03   1.84909950E-04
   1.90000003E-03   1.93399610E-04
   1.94999995E-03   2.02041949E-04
   2.00000009E-03   2.10838087E-04
   2.05000001E-03   2.19789144E-04
   2.09999993E-03   2.28896242E-04
   2.15000007E-03   2.38160617E-04
   2.19999999E-03   2.47583579E-04
   2.24999990E-03   2.57166423E-04
   2.30000005E-03   2.66910443E-04
   2.34999997E-03   2.76816747E-04
   2.40000011E-03   2.86886381E-04
   2.45000003E-03   2.97120278E-04
   2.49999994E-03   3.07519367E-04
   2.55000009E-03   3.18084785E-04
   2.60000001E-03   3.28817463E-04
   2.64999992E-03   3.39718506E-04
   2.70000007E-03   3.50789138E-04
   2.74999999E-03   3.62030463E-04
   2.79999990E-03   3.73443472E-04