  -3.99999991E-02   0.00000000    
  -3.99499983E-02   0.00000000    
  -3.99000011E-02   0.00000000    
  -3.98500003E-02   0.00000000    
  -3.97999994E-02   3.37969942E-23
  -3.97499986E-02  -1.33344870E-22
  -3.97000015E-02  -2.44005134E-21
  -3.96500006E-02  -1.32080492E-20
  -3.95999998E-02  -4.48040763E-20
  -3.95499989E-02  -1.11345503E-19
  -3.95000018E-02  -2.13759032E-19
  -3.94500010E-02  -3.15447291E-19
  -3.94000001E-02  -3.20463469E-19
  -3.93499993E-02  -7.50681851E-20
  -3.92999984E-02   5.88463784E-19
  -3.92500013E-02   1.76581409E-18
  -3.92000005E-02   3.38375518E-18
  -3.91499996E-02   5.15067045E-18
  -3.90999988E-02   6.61221340E-18
  -3.90500017E-02   7.32832309E-18
  -3.90000008E-02   7.11551434E-18
  -3.89500000E-02   6.23253046E-18
  -3.88999991E-02   5.37556308E-18
  -3.88499983E-02   5.41860418E-18
  -3.88000011E-02   6.96665574E-18
  -3.87500003E-02   9.92030926E-18
  -3.86999995E-02   1.32996523E-17
  -3.86499986E-02   1.54937645E-17
  -3.86000015E-02   1.49043355E-17
  -3.85500006E-02   1.07222683E-17
  -3.84999998E-02   3.43557887E-18
  -3.84499989E-02  -5.28380062E-18
  -3.84000018E-02  -1.34074637E-17
  -3.83500010E-02  -1.98095463E-17
  -3.83000001E-02  -2.53676624E-17
  -3.82499993E-02  -3.32693763E-17
  -3.81999984E-02  -4.81859739E-17
  -3.81500013E-02  -7.45195632E-17
  -3.81000005E-02  -1.14461336E-16
  -3.80499996E-02  -1.66823946E-16
  -3.79999988E-02  -2.27362225E-16
  -3.79500017E-02  -2.90640509E-16
  -3.79000008E-02  -3.52726489E-16
  -3.78500000E-02  -4.13475639E-16
  -3.77999991E-02  -4.77209310E-16
  -3.77499983E-02  -5.51244278E-16
  -3.77000012E-02  -6.42746441E-16
  -3.76500003E-02  -7.55287474E-16
  -3.75999995E-02  -8.86785686E-16
  -3.75499986E-02  -1.02998349E-15
  -3.75000015E-02  -1.17543673E-15
  -3.74500006E-02  -1.31572666E-15
  -3.73999998E-02  -1.44891201E-15
  -3.73499990E-02  -1.57950405E-15
  -3.73000018E-02  -1.71638098E-15
  -3.72500010E-02  -1.86851360E-15
  -3.72000001E-02  -2.04044392E-15
  -3.71499993E-02  -2.22959358E-15
  -3.70999984E-02  -2.42661450E-15
  -3.70500013E-02  -2.61852549E-15
  -3.70000005E-02  -2.79305705E-15
  -3.69499996E-02  -2.94213697E-15
  -3.68999988E-02  -3.06306384E-15
  -3.68500017E-02  -3.15727995E-15
  -3.68000008E-02  -3.22795299E-15
  -3.67500000E-02  -3.27802661E-15
  -3.66999991E-02  -3.30971560E-15
  -3.66499983E-02  -3.32510894E-15
  -3.66000012E-02  -3.32652264E-15
  -3.65500003E-02  -3.31528209E-15
  -3.64999995E-02  -3.28887626E-15
  -3.64499986E-02  -3.23811082E-15
  -3.64000015E-02  -3.14691078E-15
  -3.63500006E-02  -2.99673735E-15
  -3.62999998E-02  -2.77518995E-15
  -3.62499990E-02  -2.48524252E-15
  -3.62000018E-02  -2.14962414E-15
  -3.61500010E-02  -1.80573766E-15
  -3.61000001E-02  -1.49064606E-15
  -3.60499993E-02  -1.22150028E-15
  -3.59999985E-02  -9.81210378E-16
  -3.59500013E-02  -7.19090103E-16
  -3.59000005E-02  -3.70385961E-16
  -3.58499996E-02   1.11050757E-16
  -3.57999988E-02   7.21609179E-16
  -3.57500017E-02   1.39587885E-15
  -3.57000008E-02   2.02523735E-15
  -3.56500000E-02   2.50468384E-15
  -3.55999991E-02   2.78963694E-15
  -3.55499983E-02   2.93466317E-15
  -3.55000012E-02   3.08919734E-15
  -3.54500003E-02   3.44248992E-15
  -3.53999995E-02   4.13518986E-15
  -3.53499986E-02   5.17642459E-15
  -3.53000015E-02   6.41071380E-15
  -3.52500007E-02   7.56240502E-15
  -3.51999998E-02   8.35089274E-15
  -3.51499990E-02   8.63222203E-15
  -3.51000018E-02   8.50066426E-15
  -3.50500010E-02   8.29174528E-15
  -3.50000001E-02   8.46722764E-15
  -3.49499993E-02   9.41839227E-15
  -3.48999985E-02   1.12711972E-14
  -3.48500013E-02   1.37901470E-14
  -3.48000005E-02   1.64445263E-14
  -3.47499996E-02   1.86300712E-14
  -3.46999988E-02   1.99606109E-14
  -3.46500017E-02   2.04960272E-14
  -3.46000008E-02   2.07839219E-14
  -3.45500000E-02   2.16662676E-14
  -3.44999991E-02   2.39114741E-14
  -3.44499983E-02   2.78274396E-14
  -3.44000012E-02   3.30430704E-14
  -3.43500003E-02   3.85894590E-14
  -3.42999995E-02   4.32830143E-14
  -3.42499986E-02   4.62647634E-14
  -3.42000015E-02   4.74534115E-14
  -3.41500007E-02   4.76789899E-14
  -3.40999998E-02   4.83891559E-14
  -3.40499990E-02   5.10150427E-14
  -3.40000018E-02   5.62613683E-14
  -3.39500010E-02   6.36565860E-14
  -3.39000002E-02   7.16148264E-14
  -3.38499993E-02   7.80435761E-14
  -3.37999985E-02   8.12694570E-14
  -3.37500013E-02   8.08718733E-14
  -3.37000005E-02   7.80089426E-14
  -3.36499996E-02   7.50161923E-14
  -3.35999988E-02   7.43849088E-14
  -3.35500017E-02   7.75400929E-14
  -3.35000008E-02   8.39847872E-14
  -3.34500000E-02   9.12666007E-14
  -3.33999991E-02   9.58785392E-14
  -3.33499983E-02   9.47686957E-14
  -3.33000012E-02   8.68036518E-14
  -3.32500003E-02   7.34798778E-14
  -3.31999995E-02   5.84608452E-14
  -3.31499986E-02   4.60345466E-14
  -3.31000015E-02   3.91134675E-14
  -3.30500007E-02   3.76832253E-14
  -3.29999998E-02   3.84865005E-14
  -3.29499990E-02   3.62199318E-14
  -3.29000019E-02   2.58281081E-14
  -3.28500010E-02   4.91333912E-15
  -3.28000002E-02  -2.48732784E-14
  -3.27499993E-02  -5.82208842E-14
  -3.26999985E-02  -8.83163985E-14
  -3.26500013E-02  -1.09916220E-13
  -3.26000005E-02  -1.21960628E-13
  -3.25499997E-02  -1.28446719E-13
  -3.24999988E-02  -1.36981450E-13
  -3.24500017E-02  -1.55483509E-13
  -3.24000008E-02  -1.88424390E-13
  -3.23500000E-02  -2.34344120E-13
  -3.22999991E-02  -2.85932194E-13
  -3.22499983E-02  -3.32865463E-13
  -3.22000012E-02  -3.66308573E-13
  -3.21500003E-02  -3.83099775E-13
  -3.20999995E-02  -3.87621088E-13
  -3.20499986E-02  -3.90271853E-13
  -3.20000015E-02  -4.02976182E-13
  -3.19500007E-02  -4.33590555E-13
  -3.18999998E-02  -4.81755152E-13
  -3.18499990E-02  -5.38265233E-13
  -3.18000019E-02  -5.88553511E-13
  -3.17500010E-02  -6.18987663E-13
  -3.17000002E-02  -6.23255462E-13
  -3.16499993E-02  -6.05846428E-13
  -3.15999985E-02  -5.80759670E-13
  -3.15500014E-02  -5.65659227E-13
  -3.15000005E-02  -5.73850483E-13
  -3.14499997E-02  -6.07658455E-13
  -3.13999988E-02  -6.56414701E-13
  -3.13500017E-02  -7.00345869E-13
  -3.13000008E-02  -7.18999296E-13
  -3.12500000E-02  -7.00615130E-13
  -3.11999992E-02  -6.48143648E-13
  -3.11500002E-02  -5.78855974E-13
  -3.10999993E-02  -5.17261689E-13
  -3.10500003E-02  -4.84148041E-13
  -3.09999995E-02  -4.86570690E-13
  -3.09500005E-02  -5.13523252E-13
  -3.08999997E-02  -5.39708252E-13
  -3.08500007E-02  -5.36224927E-13
  -3.07999998E-02  -4.83689206E-13
  -3.07500008E-02  -3.81855571E-13
  -3.07000000E-02  -2.51029368E-13
  -3.06499992E-02  -1.24051336E-13
  -3.06000002E-02  -3.19339248E-14
  -3.05499993E-02   1.06155395E-14
  -3.05000003E-02   1.30817844E-14
  -3.04499995E-02   6.34889607E-15
  -3.04000005E-02   2.98222920E-14
  -3.03499997E-02   1.13772503E-13
  -3.03000007E-02   2.64763851E-13
  -3.02499998E-02   4.61105763E-13
  -3.02000009E-02   6.61065820E-13
  -3.01500000E-02   8.20849411E-13
  -3.00999992E-02   9.14646288E-13
  -3.00500002E-02   9.47604300E-13
  -2.99999993E-02   9.55299858E-13
  -2.99500003E-02   9.89110378E-13
  -2.98999995E-02   1.09337669E-12
  -2.98500005E-02   1.28438503E-12
  -2.97999997E-02   1.54096679E-12
  -2.97500007E-02   1.81174314E-12
  -2.96999998E-02   2.03667031E-12
  -2.96500009E-02   2.17381451E-12
  -2.96000000E-02   2.21935057E-12
  -2.95499992E-02   2.21119434E-12
  -2.95000002E-02   2.21366068E-12
  -2.94499993E-02   2.28910640E-12
  -2.94000003E-02   2.46883872E-12
  -2.93499995E-02   2.73659936E-12
  -2.93000005E-02   3.03289620E-12
  -2.92499997E-02   3.27935248E-12
  -2.92000007E-02   3.41300447E-12
  -2.91499998E-02   3.41537714E-12
  -2.91000009E-02   3.32272990E-12
  -2.90500000E-02   3.21177395E-12
  -2.89999992E-02   3.16608545E-12
  -2.89500002E-02   3.23756668E-12
  -2.88999993E-02   3.42032652E-12
  -2.88500004E-02   3.64958064E-12
  -2.87999995E-02   3.82738893E-12
  -2.87500005E-02   3.86486893E-12
  -2.86999997E-02   3.72245377E-12
  -2.86500007E-02   3.42973501E-12
  -2.85999998E-02   3.07480473E-12
  -2.85500009E-02   2.76643790E-12
  -2.85000000E-02   2.58502182E-12
  -2.84499992E-02   2.54405980E-12
  -2.84000002E-02   2.58033113E-12
  -2.83499993E-02   2.57860573E-12
  -2.83000004E-02   2.42134893E-12
  -2.82499995E-02   2.04198876E-12
  -2.82000005E-02   1.45767003E-12
  -2.81499997E-02   7.65588873E-13
  -2.81000007E-02   1.02838589E-13
  -2.80499998E-02  -4.13708781E-13
  -2.80000009E-02  -7.41086337E-13
  -2.79500000E-02  -9.32769161E-13
  -2.78999992E-02  -1.11835487E-12
  -2.78500002E-02  -1.44760972E-12
  -2.77999993E-02  -2.02262794E-12
  -2.77500004E-02  -2.84834027E-12
  -2.76999995E-02  -3.82465891E-12
  -2.76500005E-02  -4.78571262E-12
  -2.75999997E-02  -5.57050239E-12
  -2.75500007E-02  -6.09436243E-12
  -2.74999999E-02  -6.38888248E-12
  -2.74500009E-02  -6.59080472E-12
  -2.74000000E-02  -6.88269320E-12
  -2.73499992E-02  -7.41013067E-12
  -2.73000002E-02  -8.21193287E-12
  -2.72499993E-02  -9.19554450E-12
  -2.72000004E-02  -1.01707340E-11
  -2.71499995E-02  -1.09288594E-11
  -2.71000005E-02  -1.13338366E-11
  -2.70499997E-02  -1.13841879E-11
  -2.70000007E-02  -1.12169041E-11
  -2.69499999E-02  -1.10489378E-11
  -2.69000009E-02  -1.10801637E-11
  -2.68500000E-02  -1.14000250E-11
  -2.67999992E-02  -1.19402075E-11
  -2.67500002E-02  -1.24966114E-11
  -2.66999993E-02  -1.28135592E-11
  -2.66500004E-02  -1.26947992E-11
  -2.65999995E-02  -1.20923020E-11
  -2.65500005E-02  -1.11319018E-11
  -2.64999997E-02  -1.00616876E-11
  -2.64500007E-02  -9.14333106E-12
  -2.63999999E-02  -8.53312386E-12
  -2.63500009E-02  -8.20597323E-12
  -2.63000000E-02  -7.95837615E-12
  -2.62499992E-02  -7.49220911E-12
  -2.62000002E-02  -6.54478641E-12
  -2.61499994E-02  -5.00843030E-12
  -2.61000004E-02  -2.98529756E-12
  -2.60499995E-02  -7.50247791E-13
  -2.60000005E-02   1.36510345E-12
  -2.59499997E-02   3.11798222E-12
  -2.59000007E-02   4.46531310E-12
  -2.58499999E-02   5.58860206E-12
  -2.58000009E-02   6.81836488E-12
  -2.57500000E-02   8.48827432E-12
  -2.56999992E-02   1.07819864E-11
  -2.56500002E-02   1.36412531E-11
  -2.55999994E-02   1.67789567E-11
  -2.55500004E-02   1.97951204E-11
  -2.54999995E-02   2.23475786E-11
  -2.54500005E-02   2.43025860E-11
  -2.53999997E-02   2.57969323E-11
  -2.53500007E-02   2.71803916E-11
  -2.52999999E-02   2.88599596E-11
  -2.52500009E-02   3.11123176E-11
  -2.52000000E-02   3.39476086E-11
  -2.51499992E-02   3.70876004E-11
  -2.51000002E-02   4.00721505E-11
  -2.50499994E-02   4.24508241E-11
  -2.50000004E-02   4.39766279E-11
  -2.49499995E-02   4.47149991E-11
  -2.49000005E-02   4.50161644E-11
  -2.48499997E-02   4.53584947E-11
  -2.48000007E-02   4.61287293E-11
  -2.47499999E-02   4.74355902E-11
  -2.47000009E-02   4.90416666E-11
  -2.46500000E-02   5.04482914E-11
  -2.45999992E-02   5.11006515E-11
  -2.45500002E-02   5.06252471E-11
  -2.44999994E-02   4.89942913E-11
  -2.44500004E-02   4.65407955E-11
  -2.43999995E-02   4.38125647E-11
  -2.43500005E-02   4.13252141E-11
  -2.42999997E-02   3.93216189E-11
  -2.42500007E-02   3.76460738E-11
  -2.41999999E-02   3.57934550E-11
  -2.41500009E-02   3.31172520E-11
  -2.41000000E-02   2.91085454E-11
  -2.40499992E-02   2.36232076E-11
  -2.40000002E-02   1.69538463E-11
  -2.39499994E-02   9.70926031E-12
  -2.39000004E-02   2.54927308E-12
  -2.38499995E-02  -4.11075124E-12
  -2.38000005E-02  -1.02941215E-11
  -2.37499997E-02  -1.64653811E-11
  -2.37000007E-02  -2.33338765E-11
  -2.36499999E-02  -3.15399790E-11
  -2.36000009E-02  -4.13608522E-11
  -2.35500000E-02  -5.25681339E-11
  -2.34999992E-02  -6.45060741E-11
  -2.34500002E-02  -7.63618821E-11
  -2.33999994E-02  -8.75130524E-11
  -2.33500004E-02  -9.77984430E-11
  -2.32999995E-02  -1.07589285E-10
  -2.32500006E-02  -1.17622176E-10
  -2.31999997E-02  -1.28661706E-10
  -2.31500007E-02  -1.41138656E-10
  -2.30999999E-02  -1.54924990E-10
  -2.30500009E-02  -1.69350645E-10
  -2.30000000E-02  -1.83461385E-10
  -2.29499992E-02  -1.96409611E-10
  -2.29000002E-02  -2.07806730E-10
  -2.28499994E-02  -2.17878326E-10
  -2.28000004E-02  -2.27346947E-10
  -2.27499995E-02  -2.37086989E-10
  -2.27000006E-02  -2.47700194E-10
  -2.26499997E-02  -2.59199023E-10
  -2.26000007E-02  -2.70943323E-10
  -2.25499999E-02  -2.81865448E-10
  -2.25000009E-02  -2.90891478E-10
  -2.24500000E-02  -2.97375236E-10
  -2.23999992E-02  -3.01351472E-10
  -2.23500002E-02  -3.03490177E-10
  -2.22999994E-02  -3.04763964E-10
  -2.22500004E-02  -3.05970166E-10
  -2.21999995E-02  -3.07317310E-10
  -2.21500006E-02  -3.08262971E-10
  -2.20999997E-02  -3.07682158E-10
  -2.20500007E-02  -3.04299808E-10
  -2.19999999E-02  -2.97201097E-10
  -2.19500009E-02  -2.86192792E-10
  -2.19000001E-02  -2.71851236E-10
  -2.18499992E-02  -2.55226784E-10
  -2.18000002E-02  -2.37328601E-10
  -2.17499994E-02  -2.18614446E-10
  -2.17000004E-02  -1.98714240E-10
  -2.16499995E-02  -1.76516371E-10
  -2.16000006E-02  -1.50587764E-10
  -2.15499997E-02  -1.19748017E-10
  -2.15000007E-02  -8.35452124E-11
  -2.14499999E-02  -4.24182113E-11
  -2.14000009E-02   2.53407191E-12
  -2.13500001E-02   5.00829760E-11
  -2.12999992E-02   9.94695992E-11
  -2.12500002E-02   1.50807616E-10
  -2.11999994E-02   2.05104572E-10
  -2.11500004E-02   2.63883387E-10
  -2.10999995E-02   3.28564065E-10
  -2.10500006E-02   3.99875771E-10
  -2.09999997E-02   4.77563156E-10
  -2.09500007E-02   5.60523794E-10
  -2.08999999E-02   6.47325471E-10
  -2.08500009E-02   7.36880612E-10
  -2.08000001E-02   8.28979718E-10
  -2.07499992E-02   9.24443300E-10
  -2.07000002E-02   1.02481612E-09
  -2.06499994E-02   1.13172982E-09
  -2.06000004E-02   1.24621180E-09
  -2.05499995E-02   1.36824796E-09
  -2.05000006E-02   1.49679857E-09
  -2.04499997E-02   1.63027003E-09
  -2.04000007E-02   1.76724213E-09
  -2.03499999E-02   1.90713023E-09
  -2.03000009E-02   2.05048645E-09
  -2.02500001E-02   2.19879981E-09
  -2.01999992E-02   2.35387176E-09
  -2.01500002E-02   2.51704035E-09
  -2.00999994E-02   2.68859357E-09
  -2.00500004E-02   2.86763879E-09
  -1.99999996E-02   3.05249470E-09
  -1.99500006E-02   3.24144001E-09
  -1.98999997E-02   3.43349438E-09
  -1.98500007E-02   3.62888386E-09
  -1.97999999E-02   3.82897491E-09
  -1.97500009E-02   4.03570288E-09
  -1.97000001E-02   4.25073488E-09
  -1.96499992E-02   4.47473703E-09
  -1.96000002E-02   4.70707739E-09
  -1.95499994E-02   4.94609775E-09
  -1.95000004E-02   5.18985122E-09
  -1.94499996E-02   5.43697798E-09
  -1.94000006E-02   5.68733816E-09
  -1.93499997E-02   5.94211302E-09
  -1.93000007E-02   6.20332274E-09
  -1.92499999E-02   6.47296394E-09
  -1.92000009E-02   6.75214684E-09
  -1.91500001E-02   7.04061476E-09
  -1.90999992E-02   7.33686800E-09
  -1.90500002E-02   7.63884156E-09
  -1.89999994E-02   7.94485189E-09
  -1.89500004E-02   8.25438917E-09
  -1.88999996E-02   8.56840465E-09
  -1.88500006E-02   8.88895801E-09
  -1.87999997E-02   9.21837007E-09
  -1.87500007E-02   9.55825641E-09
  -1.86999999E-02   9.90885507E-09
  -1.86500009E-02   1.02689732E-08
  -1.86000001E-02   1.06365645E-08
  -1.85499992E-02   1.10097007E-08
  -1.85000002E-02   1.13875114E-08
  -1.84499994E-02   1.17706742E-08
  -1.84000004E-02   1.21612205E-08
  -1.83499996E-02   1.25617579E-08
  -1.83000006E-02   1.29744251E-08
  -1.82499997E-02   1.34000455E-08
  -1.82000007E-02   1.38378651E-08
  -1.81499999E-02   1.42859902E-08
  -1.81000009E-02   1.47423416E-08
  -1.80500001E-02   1.52057140E-08
  -1.79999992E-02   1.56764628E-08
  -1.79500002E-02   1.61565090E-08
  -1.78999994E-02   1.66486860E-08
  -1.78500004E-02   1.71556369E-08
  -1.77999996E-02   1.76788362E-08
  -1.77500006E-02   1.82180866E-08
  -1.76999997E-02   1.87717895E-08
  -1.76500008E-02   1.93378220E-08
  -1.75999999E-02   1.99146761E-08
  -1.75500009E-02   2.05023376E-08
  -1.75000001E-02   2.11025242E-08
  -1.74499992E-02   2.17181704E-08
  -1.74000002E-02   2.23523671E-08
  -1.73499994E-02   2.30072335E-08
  -1.73000004E-02   2.36832154E-08
  -1.72499996E-02   2.43791263E-08
  -1.72000006E-02   2.50929091E-08
  -1.71499997E-02   2.58228088E-08
  -1.71000008E-02   2.65684132E-08
  -1.70499999E-02   2.73311382E-08
  -1.70000009E-02   2.81138952E-08
  -1.69500001E-02   2.89201196E-08
  -1.68999992E-02   2.97525524E-08
  -1.68500002E-02   3.06123340E-08
  -1.67999994E-02   3.14988071E-08
  -1.67500004E-02   3.24100959E-08
  -1.66999996E-02   3.33442678E-08
  -1.66500006E-02   3.43005127E-08
  -1.65999997E-02   3.52798395E-08
  -1.65500008E-02   3.62850088E-08
  -1.64999999E-02   3.73196656E-08
  -1.64500009E-02   3.83870962E-08
  -1.64000001E-02   3.94891551E-08
  -1.63499992E-02   4.06257783E-08
  -1.63000003E-02   4.17954062E-08
  -1.62499994E-02   4.29960174E-08
  -1.62000004E-02   4.42264216E-08
  -1.61499996E-02   4.54871696E-08
  -1.61000006E-02   4.67807375E-08
  -1.60499997E-02   4.81108344E-08
  -1.60000008E-02   4.94812298E-08
  -1.59499999E-02   5.08944566E-08
  -1.59000009E-02   5.23511723E-08
  -1.58500001E-02   5.38502540E-08
  -1.57999992E-02   5.53897443E-08
  -1.57500003E-02   5.69681475E-08
  -1.56999994E-02   5.85855346E-08
  -1.56500004E-02   6.02439911E-08
  -1.55999996E-02   6.19471763E-08
  -1.55499997E-02   6.36991899E-08
  -1.54999997E-02   6.55032508E-08
  -1.54499998E-02   6.73607801E-08
  -1.53999999E-02   6.92712376E-08
  -1.53500000E-02   7.12328898E-08
  -1.53000001E-02   7.32440526E-08
  -1.52500002E-02   7.53043636E-08
  -1.52000003E-02   7.74154714E-08
  -1.51500003E-02   7.95808646E-08
  -1.51000004E-02   8.18048917E-08
  -1.50499996E-02   8.40914041E-08
  -1.49999997E-02   8.64426539E-08
  -1.49499997E-02   8.88588616E-08
  -1.48999998E-02   9.13387126E-08
  -1.48499999E-02   9.38805371E-08
  -1.48000000E-02   9.64836389E-08
  -1.47500001E-02   9.91492399E-08
  -1.47000002E-02   1.01880609E-07
  -1.46500003E-02   1.04682236E-07
  -1.46000003E-02   1.07558577E-07
  -1.45500004E-02   1.10512744E-07
  -1.44999996E-02   1.13545823E-07
  -1.44499997E-02   1.16657148E-07
  -1.43999998E-02   1.19845268E-07
  -1.43499998E-02   1.23109331E-07
  -1.42999999E-02   1.26450203E-07
  -1.42500000E-02   1.29870898E-07
  -1.42000001E-02   1.33375977E-07
  -1.41500002E-02   1.36970414E-07
  -1.41000003E-02   1.40658230E-07
  -1.40500003E-02   1.44441557E-07
  -1.40000004E-02   1.48320581E-07
  -1.39499996E-02   1.52294348E-07
  -1.38999997E-02   1.56362063E-07
  -1.38499998E-02   1.60524365E-07
  -1.37999998E-02   1.64783984E-07
  -1.37499999E-02   1.69145537E-07
  -1.37000000E-02   1.73614424E-07
  -1.36500001E-02   1.78195549E-07
  -1.36000002E-02   1.82892151E-07
  -1.35500003E-02   1.87705496E-07
  -1.35000004E-02   1.92635383E-07
  -1.34500004E-02   1.97681288E-07
  -1.33999996E-02   2.02843765E-07
  -1.33499997E-02   2.08125300E-07
  -1.32999998E-02   2.13530427E-07
  -1.32499998E-02   2.19064987E-07
  -1.31999999E-02   2.24734706E-07
  -1.31500000E-02   2.30543989E-07
  -1.31000001E-02   2.36495325E-07
  -1.30500002E-02   2.42589408E-07
  -1.30000003E-02   2.48826296E-07
  -1.29500004E-02   2.55206601E-07
  -1.29000004E-02   2.61732765E-07
  -1.28499996E-02   2.68409252E-07
  -1.27999997E-02   2.75242115E-07
  -1.27499998E-02   2.82237806E-07
  -1.26999998E-02   2.89401839E-07
  -1.26499999E-02   2.96737994E-07
  -1.26000000E-02   3.04248175E-07
  -1.25500001E-02   3.11933121E-07
  -1.25000002E-02   3.19793884E-07
  -1.24500003E-02   3.27832737E-07
  -1.24000004E-02   3.36054143E-07
  -1.23500004E-02   3.44464326E-07
  -1.22999996E-02   3.53070334E-07
  -1.22499997E-02   3.61878818E-07
  -1.21999998E-02   3.70894867E-07
  -1.21499998E-02   3.80121719E-07
  -1.20999999E-02   3.89561109E-07
  -1.20500000E-02   3.99214514E-07
  -1.20000001E-02   4.09084407E-07
  -1.19500002E-02   4.19175109E-07
  -1.19000003E-02   4.29492928E-07
  -1.18500004E-02   4.40045341E-07
  -1.18000004E-02   4.50839991E-07
  -1.17499996E-02   4.61883303E-07
  -1.16999997E-02   4.73179909E-07
  -1.16499998E-02   4.84732823E-07
  -1.15999999E-02   4.96544260E-07
  -1.15499999E-02   5.08617006E-07
  -1.15000000E-02   5.20955382E-07
  -1.14500001E-02   5.33565753E-07
  -1.14000002E-02   5.46456022E-07
  -1.13500003E-02   5.59634543E-07
  -1.13000004E-02   5.73109105E-07
  -1.12500004E-02   5.86885733E-07
  -1.11999996E-02   6.00968690E-07
  -1.11499997E-02   6.15361046E-07
  -1.10999998E-02   6.30066097E-07
  -1.10499999E-02   6.45088107E-07
  -1.09999999E-02   6.60433557E-07
  -1.09500000E-02   6.76110517E-07
  -1.09000001E-02   6.92128026E-07
  -1.08500002E-02   7.08494952E-07
  -1.08000003E-02   7.25218854E-07
  -1.07500004E-02   7.42305531E-07
  -1.07000005E-02   7.59759530E-07
  -1.06499996E-02   7.77584773E-07
  -1.05999997E-02   7.95785809E-07
  -1.05499998E-02   8.14369287E-07
  -1.04999999E-02   8.33343393E-07
  -1.04499999E-02   8.52717619E-07
  -1.04000000E-02   8.72501857E-07
  -1.03500001E-02   8.92704861E-07
  -1.03000002E-02   9.13334190E-07
  -1.02500003E-02   9.34395359E-07
  -1.02000004E-02   9.55893029E-07
  -1.01500005E-02   9.77832428E-07
  -1.00999996E-02   1.00021998E-06
  -1.00499997E-02   1.02306387E-06
  -9.99999978E-03   1.04637434E-06
  -9.94999986E-03   1.07016194E-06
  -9.89999995E-03   1.09443681E-06
  -9.85000003E-03   1.11920781E-06
  -9.80000012E-03   1.14448233E-06
  -9.75000020E-03   1.17026616E-06
  -9.70000029E-03   1.19656499E-06
  -9.65000037E-03   1.22338577E-06
  -9.60000046E-03   1.25073700E-06
  -9.54999961E-03   1.27862893E-06
  -9.49999969E-03   1.30707315E-06
  -9.44999978E-03   1.33608114E-06
  -9.39999986E-03   1.36566302E-06
  -9.34999995E-03   1.39582767E-06
  -9.30000003E-03   1.42658234E-06
  -9.25000012E-03   1.45793331E-06
  -9.20000020E-03   1.48988795E-06
  -9.15000029E-03   1.52245434E-06
  -9.10000037E-03   1.55564317E-06
  -9.05000046E-03   1.58946591E-06
  -8.99999961E-03   1.62393496E-06
  -8.94999970E-03   1.65906215E-06
  -8.89999978E-03   1.69485759E-06
  -8.84999987E-03   1.73132980E-06
  -8.79999995E-03   1.76848641E-06
  -8.75000004E-03   1.80633492E-06
  -8.70000012E-03   1.84488408E-06
  -8.65000021E-03   1.88414424E-06
  -8.60000029E-03   1.92412767E-06
  -8.55000038E-03   1.96484780E-06
  -8.50000046E-03   2.00631735E-06
  -8.44999962E-03   2.04854837E-06
  -8.39999970E-03   2.09155087E-06
  -8.34999979E-03   2.13533349E-06
  -8.29999987E-03   2.17990419E-06
  -8.24999996E-03   2.22527206E-06
  -8.20000004E-03   2.27144710E-06
  -8.15000013E-03   2.31844206E-06
  -8.10000021E-03   2.36627056E-06
  -8.05000030E-03   2.41494604E-06
  -8.00000038E-03   2.46448144E-06
  -7.95000046E-03   2.51488837E-06
  -7.89999962E-03   2.56617636E-06
  -7.84999970E-03   2.61835362E-06
  -7.79999979E-03   2.67142968E-06
  -7.74999987E-03   2.72541433E-06
  -7.69999996E-03   2.78031985E-06
  -7.65000004E-03   2.83615987E-06
  -7.60000013E-03   2.89294894E-06
  -7.55000021E-03   2.95070163E-06
  -7.49999983E-03   3.00943020E-06
  -7.44999992E-03   3.06914603E-06
  -7.40000000E-03   3.12985821E-06
  -7.35000009E-03   3.19157630E-06
  -7.30000017E-03   3.25430983E-06
  -7.24999979E-03   3.31807087E-06
  -7.19999988E-03   3.38287282E-06
  -7.14999996E-03   3.44873092E-06
  -7.10000005E-03   3.51566064E-06
  -7.05000013E-03   3.58367583E-06
  -7.00000022E-03   3.65278834E-06
  -6.94999984E-03   3.72300769E-06
  -6.89999992E-03   3.79434255E-06
  -6.85000001E-03   3.86680267E-06
  -6.80000009E-03   3.94039944E-06
  -6.75000018E-03   4.01514581E-06
  -6.69999979E-03   4.09105633E-06
  -6.64999988E-03   4.16814737E-06
  -6.59999996E-03   4.24643304E-06
  -6.55000005E-03   4.32592560E-06
  -6.50000013E-03   4.40663644E-06
  -6.45000022E-03   4.48857418E-06
  -6.39999984E-03   4.57174701E-06
  -6.34999992E-03   4.65616631E-06
  -6.30000001E-03   4.74184480E-06
  -6.25000009E-03   4.82879614E-06
  -6.20000018E-03   4.91703713E-06
  -6.14999980E-03   5.00658234E-06
  -6.09999988E-03   5.09744496E-06
  -6.04999997E-03   5.18963589E-06
  -6.00000005E-03   5.28316423E-06
  -5.95000014E-03   5.37803817E-06
  -5.90000022E-03   5.47426680E-06
  -5.84999984E-03   5.57186149E-06
  -5.79999993E-03   5.67083634E-06
  -5.75000001E-03   5.77120636E-06
  -5.70000010E-03   5.87298609E-06
  -5.65000018E-03   5.97618964E-06
  -5.59999980E-03   6.08082655E-06
  -5.54999989E-03   6.18690547E-06
  -5.49999997E-03   6.29443321E-06
  -5.45000006E-03   6.40341887E-06
  -5.40000014E-03   6.51387018E-06
  -5.35000023E-03   6.62580123E-06
  -5.29999984E-03   6.73922568E-06
  -5.24999993E-03   6.85415853E-06
  -5.20000001E-03   6.97061250E-06
  -5.15000010E-03   7.08859761E-06
  -5.10000018E-03   7.20812068E-06
  -5.04999980E-03   7.32918852E-06
  -4.99999989E-03   7.45180660E-06
  -4.94999997E-03   7.57598355E-06
  -4.90000006E-03   7.70172937E-06
  -4.85000014E-03   7.82905772E-06
  -4.80000023E-03   7.95798132E-06
  -4.74999985E-03   8.08851109E-06
  -4.69999993E-03   8.22065704E-06
  -4.65000002E-03   8.35442461E-06
  -4.60000010E-03   8.48981745E-06
  -4.55000019E-03   8.62683828E-06
  -4.49999981E-03   8.76549348E-06
  -4.44999989E-03   8.90579122E-06
  -4.39999998E-03   9.04774060E-06
  -4.35000006E-03   9.19135255E-06
  -4.30000015E-03   9.33663796E-06
  -4.25000023E-03   9.48360321E-06
  -4.19999985E-03   9.63225375E-06
  -4.14999994E-03   9.78258777E-06
  -4.10000002E-03   9.93460799E-06
  -4.05000011E-03   1.00883153E-05
  -4.00000019E-03   1.02437143E-05
  -3.94999981E-03   1.04008113E-05
  -3.89999989E-03   1.05596155E-05
  -3.84999998E-03   1.07201331E-05
  -3.80000006E-03   1.08823715E-05
  -3.74999992E-03   1.10463307E-05
  -3.70000000E-03   1.12120078E-05
  -3.65000009E-03   1.13793976E-05
  -3.59999994E-03   1.15484991E-05
  -3.55000002E-03   1.17193104E-05
  -3.50000011E-03   1.18918360E-05
  -3.44999996E-03   1.20660798E-05
  -3.40000005E-03   1.22420452E-05
  -3.34999990E-03   1.24197331E-05
  -3.29999998E-03   1.25991410E-05
  -3.25000007E-03   1.27802614E-05
  -3.19999992E-03   1.29630844E-05
  -3.15000000E-03   1.31476027E-05
  -3.10000009E-03   1.33338117E-05
  -3.04999994E-03   1.35217069E-05
  -3.00000003E-03   1.37112884E-05
  -2.95000011E-03   1.39025560E-05
  -2.89999996E-03   1.40955053E-05
  -2.85000005E-03   1.42901272E-05
  -2.79999990E-03   1.44864098E-05
  -2.74999999E-03   1.46843413E-05
  -2.70000007E-03   1.48839035E-05
  -2.64999992E-03   1.50850856E-05
  -2.60000001E-03   1.52878765E-05
  -2.55000009E-03   1.54922709E-05
  -2.49999994E-03   1.56982605E-05
  -2.45000003E-03   1.59058382E-05
  -2.40000011E-03   1.61149892E-05
  -2.34999997E-03   1.63256973E-05
  -2.30000005E-03   1.65379370E-05
  -2.24999990E-03   1.67516864E-05
  -2.19999999E-03   1.69669220E-05
  -2.15000007E-03   1.71836291E-05
  -2.09999993E-03   1.74017932E-05
  -2.05000001E-03   1.76214016E-05
  -2.00000009E-03   1.78424361E-05
  -1.94999995E-03   1.80648785E-05
  -1.90000003E-03   1.82887015E-05
  -1.85000000E-03   1.85138724E-05
  -1.79999997E-03   1.87403584E-05
  -1.75000005E-03   1.89681323E-05
  -1.70000002E-03   1.91971667E-05
  -1.64999999E-03   1.94274362E-05
  -1.59999996E-03   1.96589226E-05
  -1.55000004E-03   1.98916005E-05
  -1.50000001E-03   2.01254425E-05
  -1.44999998E-03   2.03604141E-05
  -1.39999995E-03   2.05964752E-05
  -1.35000004E-03   2.08335823E-05
  -1.30000000E-03   2.10716935E-05
  -1.24999997E-03   2.13107687E-05
  -1.20000006E-03   2.15507753E-05
  -1.15000003E-03   2.17916840E-05
  -1.09999999E-03   2.20334623E-05
  -1.04999996E-03   2.22760718E-05
  -1.00000005E-03   2.25194744E-05
  -9.50000016E-04   2.27636174E-05
  -8.99999985E-04   2.30084406E-05
  -8.50000011E-04   2.32538896E-05
  -7.99999980E-04   2.34999170E-05
  -7.50000007E-04   2.37464756E-05
  -6.99999975E-04   2.39935271E-05
  -6.50000002E-04   2.42410279E-05
  -6.00000028E-04   2.44889325E-05
  -5.49999997E-04   2.47371900E-05
  -5.00000024E-04   2.49857385E-05
  -4.49999992E-04   2.52345053E-05
  -3.99999990E-04   2.54834285E-05
  -3.49999988E-04   2.57324318E-05
  -3.00000014E-04   2.59814660E-05
  -2.50000012E-04   2.62304729E-05
  -1.99999995E-04   2.64794053E-05
  -1.50000007E-04   2.67282048E-05
  -9.99999975E-05   2.69768097E-05
  -4.99999987E-05   2.72251436E-05
   0.00000000       2.74731246E-05
   4.99999987E-05   2.77206709E-05
   9.99999975E-05   2.79677042E-05
   1.50000007E-04   2.82141482E-05
   1.99999995E-04   2.84599409E-05
   2.50000012E-04   2.87050116E-05
   3.00000014E-04   2.89492946E-05
   3.49999988E-04   2.91927136E-05
   3.99999990E-04   2.94351867E-05
   4.49999992E-04   2.96766175E-05
   5.00000024E-04   2.99169114E-05
   5.49999997E-04   3.01559667E-05
   6.00000028E-04   3.03936977E-05
   6.50000002E-04   3.06300171E-05
   6.99999975E-04   3.08648487E-05
   7.50000007E-04   3.10981159E-05
   7.99999980E-04   3.13297278E-05
   8.50000011E-04   3.15595935E-05
   8.99999985E-04   3.17876074E-05
   9.50000016E-04   3.20136460E-05
   1.00000005E-03   3.22376036E-05
   1.04999996E-03   3.24593711E-05
   1.09999999E-03   3.26788468E-05
   1.15000003E-03   3.28959395E-05
   1.20000006E-03   3.31105621E-05
   1.24999997E-03   3.33226162E-05
   1.30000000E-03   3.35319928E-05
   1.35000004E-03   3.37385682E-05
   1.39999995E-03   3.39422113E-05
   1.44999998E-03   3.41427876E-05
   1.50000001E-03   3.43401771E-05
   1.55000004E-03   3.45342669E-05
   1.59999996E-03   3.47249406E-05
   1.64999999E-03   3.49121001E-05
   1.70000002E-03   3.50956398E-05
   1.75000005E-03   3.52754359E-05
   1.79999997E-03   3.54513541E-05
   1.85000000E-03   3.56232522E-05
   1.90000003E-03   3.57909776E-05
   1.94999995E-03   3.59543883E-05
   2.00000009E-03   3.61133425E-05
   2.05000001E-03   3.62677238E-05
   2.09999993E-03   3.64174193E-05
   2.15000007E-03   3.65623091E-05
   2.19999999E-03   3.67022622E-05
   2.24999990E-03   3.68371293E-05
   2.30000005E-03   3.69667505E-05
   2.34999997E-03   3.70909584E-05
   2.40000011E-03   3.72095892E-05
   2.45000003E-03   3.73224975E-05
   2.49999994E-03   3.74295414E-05
   2.55000009E-03   3.75305935E-05
   2.60000001E-03   3.76255302E-05
   2.64999992E-03   3.77142023E-05
   2.70000007E-03   3.77964570E-05
   2.74999999E-03   3.78721124E-05
   2.79999990E-03   3.79409867E-05