  -3.99999991E-02   0.00000000    
  -3.99499983E-02   0.00000000    
  -3.99000011E-02   0.00000000    
  -3.98500003E-02   1.33151263E-18
  -3.97999994E-02   1.31919881E-17
  -3.97499986E-02   6.58966354E-17
  -3.97000015E-02   2.18188223E-16
  -3.96500006E-02   5.26500486E-16
  -3.95999998E-02   9.43128941E-16
  -3.95499989E-02   1.14975363E-15
  -3.95000018E-02   4.07510939E-16
  -3.94500010E-02  -2.42781729E-15
  -3.94000001E-02  -8.58231739E-15
  -3.93499993E-02  -1.87175342E-14
  -3.92999984E-02  -3.21838639E-14
  -3.92500013E-02  -4.66284217E-14
  -3.92000005E-02  -5.84491900E-14
  -3.91499996E-02  -6.42772036E-14
  -3.90999988E-02  -6.30519739E-14
  -3.90500017E-02  -5.76416288E-14
  -3.90000008E-02  -5.48009209E-14
  -3.89500000E-02  -6.28547846E-14
  -3.88999991E-02  -8.76975426E-14
  -3.88499983E-02  -1.28902775E-13
  -3.88000011E-02  -1.78185483E-13
  -3.87500003E-02  -2.21694326E-13
  -3.86999995E-02  -2.45821972E-13
  -3.86499986E-02  -2.44197268E-13
  -3.86000015E-02  -2.22332257E-13
  -3.85500006E-02  -1.96862410E-13
  -3.84999998E-02  -1.88565851E-13
  -3.84499989E-02  -2.11562118E-13
  -3.84000018E-02  -2.63706076E-13
  -3.83500010E-02  -3.23583635E-13
  -3.83000001E-02  -3.56969418E-13
  -3.82499993E-02  -3.30988627E-13
  -3.81999984E-02  -2.29812019E-13
  -3.81500013E-02  -6.40240627E-14
  -3.81000005E-02   1.31887909E-13
  -3.80499996E-02   3.13989096E-13
  -3.79999988E-02   4.49316609E-13
  -3.79500017E-02   5.32732929E-13
  -3.79000008E-02   5.91612751E-13
  -3.78500000E-02   6.75070297E-13
  -3.77999991E-02   8.31842245E-13
  -3.77499983E-02   1.08693306E-12
  -3.77000012E-02   1.42847171E-12
  -3.76500003E-02   1.81174281E-12
  -3.75999995E-02   2.17893759E-12
  -3.75499986E-02   2.48511997E-12
  -3.75000015E-02   2.71765705E-12
  -3.74500006E-02   2.89987717E-12
  -3.73999998E-02   3.07799316E-12
  -3.73499990E-02   3.29873260E-12
  -3.73000018E-02   3.58900995E-12
  -3.72500010E-02   3.94657917E-12
  -3.72000001E-02   4.34370248E-12
  -3.71499993E-02   4.73869728E-12
  -3.70999984E-02   5.08697685E-12
  -3.70500013E-02   5.34570999E-12
  -3.70000005E-02   5.47297841E-12
  -3.69499996E-02   5.42857729E-12
  -3.68999988E-02   5.18439328E-12
  -3.68500017E-02   4.74524023E-12
  -3.68000008E-02   4.16955533E-12
  -3.67500000E-02   3.57131013E-12
  -3.66999991E-02   3.08795654E-12
  -3.66499983E-02   2.81620755E-12
  -3.66000012E-02   2.74056407E-12
  -3.65500003E-02   2.69507485E-12
  -3.64999995E-02   2.39408580E-12
  -3.64499986E-02   1.53951428E-12
  -3.64000015E-02  -2.94028209E-14
  -3.63500006E-02  -2.21241753E-12
  -3.62999998E-02  -4.62500177E-12
  -3.62499990E-02  -6.71610510E-12
  -3.62000018E-02  -8.00212153E-12
  -3.61500010E-02  -8.32306619E-12
  -3.61000001E-02  -7.99144605E-12
  -3.60499993E-02  -7.73049506E-12
  -3.59999985E-02  -8.38682856E-12
  -3.59500013E-02  -1.05189225E-11
  -3.59000005E-02  -1.40497752E-11
  -3.58499996E-02  -1.81768506E-11
  -3.57999988E-02  -2.16363680E-11
  -3.57500017E-02  -2.32539144E-11
  -3.57000008E-02  -2.25526195E-11
  -3.56500000E-02  -2.01178414E-11
  -3.55999991E-02  -1.74867881E-11
  -3.55499983E-02  -1.65325253E-11
  -3.55000012E-02  -1.85651772E-11
  -3.54500003E-02  -2.35576350E-11
  -3.53999995E-02  -2.99114206E-11
  -3.53499986E-02  -3.49752900E-11
  -3.53000015E-02  -3.61829143E-11
  -3.52500007E-02  -3.23407967E-11
  -3.51999998E-02  -2.44459886E-11
  -3.51499990E-02  -1.55511420E-11
  -3.51000018E-02  -9.59555525E-12
  -3.50500010E-02  -9.62288322E-12
  -3.50000001E-02  -1.61730941E-11
  -3.49499993E-02  -2.66657529E-11
  -3.48999985E-02  -3.62206966E-11
  -3.48500013E-02  -3.97170526E-11
  -3.48000005E-02  -3.42534334E-11
  -3.47499996E-02  -2.08586134E-11
  -3.46999988E-02  -4.51391745E-12
  -3.46500017E-02   7.74751357E-12
  -3.46000008E-02   9.98707627E-12
  -3.45500000E-02   3.78261685E-13
  -3.44999991E-02  -1.73897979E-11
  -3.44499983E-02  -3.52053837E-11
  -3.44000012E-02  -4.38995368E-11
  -3.43500003E-02  -3.75283485E-11
  -3.42999995E-02  -1.66097639E-11
  -3.42499986E-02   1.13733181E-11
  -3.42000015E-02   3.47649964E-11
  -3.41500007E-02   4.28544596E-11
  -3.40999998E-02   3.11148329E-11
  -3.40499990E-02   4.05022196E-12
  -3.40000018E-02  -2.59847959E-11
  -3.39500010E-02  -4.38621812E-11
  -3.39000002E-02  -3.86283228E-11
  -3.38499993E-02  -9.17933785E-12
  -3.37999985E-02   3.41984739E-11
  -3.37500013E-02   7.35945332E-11
  -3.37000005E-02   9.12883311E-11
  -3.36499996E-02   7.82804654E-11
  -3.35999988E-02   3.95237662E-11
  -3.35500017E-02  -6.98783913E-12
  -3.35000008E-02  -3.74576550E-11
  -3.34500000E-02  -3.30247739E-11
  -3.33999991E-02   1.07790053E-11
  -3.33499983E-02   8.04909125E-11
  -3.33000012E-02   1.49355375E-10
  -3.32500003E-02   1.88710325E-10
  -3.31999995E-02   1.81343343E-10
  -3.31499986E-02   1.30657360E-10
  -3.31000015E-02   6.09111442E-11
  -3.30500007E-02   7.60875998E-12
  -3.29999998E-02   1.70352046E-12
  -3.29499990E-02   5.45424053E-11
  -3.29000019E-02   1.50739990E-10
  -3.28500010E-02   2.53045473E-10
  -3.28000002E-02   3.17941173E-10
  -3.27499993E-02   3.15524884E-10
  -3.26999985E-02   2.44653658E-10
  -3.26500013E-02   1.35807088E-10
  -3.26000005E-02   3.93009687E-11
  -3.25499997E-02   3.20091609E-12
  -3.24999988E-02   5.04959755E-11
  -3.24500017E-02   1.66210851E-10
  -3.24000008E-02   3.01307590E-10
  -3.23500000E-02   3.92870708E-10
  -3.22999991E-02   3.92372523E-10
  -3.22499983E-02   2.89379659E-10
  -3.22000012E-02   1.19230958E-10
  -3.21500003E-02  -5.01320721E-11
  -3.20999995E-02  -1.47575008E-10
  -3.20499986E-02  -1.31845049E-10
  -3.20000015E-02  -1.30796910E-11
  -3.19500007E-02   1.48180093E-10
  -3.18999998E-02   2.65655581E-10
  -3.18499990E-02   2.65849953E-10
  -3.18000019E-02   1.23402469E-10
  -3.17500010E-02  -1.23479615E-10
  -3.17000002E-02  -3.86141064E-10
  -3.16499993E-02  -5.63047220E-10
  -3.15999985E-02  -5.85988258E-10
  -3.15500014E-02  -4.53975524E-10
  -3.15000005E-02  -2.38180892E-10
  -3.14499997E-02  -5.36381460E-11
  -3.13999988E-02  -8.62586131E-12
  -3.13500017E-02  -1.53783986E-10
  -3.13000008E-02  -4.54609350E-10
  -3.12500000E-02  -8.01654410E-10
  -3.11999992E-02  -1.05615483E-09
  -3.11500002E-02  -1.11219545E-09
  -3.10999993E-02  -9.47626977E-10
  -3.10500003E-02  -6.39399256E-10
  -3.09999995E-02  -3.33948036E-10
  -3.09500005E-02  -1.83542320E-10
  -3.08999997E-02  -2.75959339E-10
  -3.08500007E-02  -5.89646332E-10
  -3.07999998E-02  -9.96694505E-10
  -3.07500008E-02  -1.31516920E-09
  -3.07000000E-02  -1.38958245E-09
  -3.06499992E-02  -1.16400412E-09
  -3.06000002E-02  -7.13603177E-10
  -3.05499993E-02  -2.17611276E-10
  -3.05000003E-02   1.17220025E-10
  -3.04499995E-02   1.50211441E-10
  -3.04000005E-02  -1.24794522E-10
  -3.03499997E-02  -5.69121861E-10
  -3.03000007E-02  -9.55125978E-10
  -3.02499998E-02  -1.06620324E-09
  -3.02000009E-02  -7.97328259E-10
  -3.01500000E-02  -2.09831236E-10
  -3.00999992E-02   4.87341667E-10
  -3.00500002E-02   1.02529518E-09
  -2.99999993E-02   1.19519417E-09
  -2.99500003E-02   9.47165124E-10
  -2.98999995E-02   4.21472274E-10
  -2.98500005E-02  -1.05992298E-10
  -2.97999997E-02  -3.43417655E-10
  -2.97500007E-02  -1.16457052E-10
  -2.96999998E-02   5.45226864E-10
  -2.96500009E-02   1.41040946E-09
  -2.96000000E-02   2.14123919E-09
  -2.95499992E-02   2.44189957E-09
  -2.95000002E-02   2.19561569E-09
  -2.94499993E-02   1.52664381E-09
  -2.94000003E-02   7.55075169E-10
  -2.93499995E-02   2.59785776E-10
  -2.93000005E-02   3.07700088E-10
  -2.92499997E-02   9.25834964E-10
  -2.92000007E-02   1.87676252E-09
  -2.91499998E-02   2.75376877E-09
  -2.91000009E-02   3.15802917E-09
  -2.90500000E-02   2.88080959E-09
  -2.89999992E-02   2.00772154E-09
  -2.89500002E-02   8.93711882E-10
  -2.88999993E-02   1.40849606E-11
  -2.88500004E-02  -2.46305643E-10
  -2.87999995E-02   2.27573169E-10
  -2.87500005E-02   1.21625077E-09
  -2.86999997E-02   2.25051933E-09
  -2.86500007E-02   2.81385071E-09
  -2.85999998E-02   2.57557531E-09
  -2.85500009E-02   1.54998270E-09
  -2.85000000E-02   1.05563405E-10
  -2.84499992E-02  -1.18651289E-09
  -2.84000002E-02  -1.80284088E-09
  -2.83499993E-02  -1.50752721E-09
  -2.83000004E-02  -4.71657324E-10
  -2.82499995E-02   7.87157506E-10
  -2.82000005E-02   1.62551939E-09
  -2.81499997E-02   1.56185609E-09
  -2.81000007E-02   5.03027731E-10
  -2.80499998E-02  -1.19572241E-09
  -2.80000009E-02  -2.87188051E-09
  -2.79500000E-02  -3.84233578E-09
  -2.78999992E-02  -3.71160702E-09
  -2.78500002E-02  -2.56260280E-09
  -2.77999993E-02  -9.38388478E-10
  -2.77500004E-02   3.85488530E-10
  -2.76999995E-02   7.43533235E-10
  -2.76500005E-02  -1.12939019E-10
  -2.75999997E-02  -1.88541738E-09
  -2.75500007E-02  -3.84055010E-09
  -2.74999999E-02  -5.12421927E-09
  -2.74500009E-02  -5.14317833E-09
  -2.74000000E-02  -3.84402510E-09
  -2.73499992E-02  -1.75896153E-09
  -2.73000002E-02   2.11757639E-10
  -2.72499993E-02   1.19268717E-09
  -2.72000004E-02   7.30437655E-10
  -2.71499995E-02  -9.84342829E-10
  -2.71000005E-02  -3.17763971E-09
  -2.70499997E-02  -4.81903717E-09
  -2.70000007E-02  -5.07745934E-09
  -2.69499999E-02  -3.70456621E-09
  -2.69000009E-02  -1.16964416E-09
  -2.68500000E-02   1.52455604E-09
  -2.67999992E-02   3.27395022E-09
  -2.67500002E-02   3.36728445E-09
  -2.66999993E-02   1.82132387E-09
  -2.66500004E-02  -6.00426597E-10
  -2.65999995E-02  -2.70580403E-09
  -2.65500005E-02  -3.39768347E-09
  -2.64999997E-02  -2.17430984E-09
  -2.64500007E-02   6.20666130E-10
  -2.63999999E-02   3.92068156E-09
  -2.63500009E-02   6.38969722E-09
  -2.63000000E-02   7.01395564E-09
  -2.62499992E-02   5.56989166E-09
  -2.62000002E-02   2.75237055E-09
  -2.61499994E-02  -1.06983138E-10
  -2.61000004E-02  -1.61904734E-09
  -2.60499995E-02  -9.63319868E-10
  -2.60000005E-02   1.72004799E-09
  -2.59499997E-02   5.35758904E-09
  -2.59000007E-02   8.39183478E-09
  -2.58499999E-02   9.46484402E-09
  -2.58000009E-02   8.03585021E-09
  -2.57500000E-02   4.65209782E-09
  -2.56999992E-02   7.38541506E-10
  -2.56500002E-02  -2.01552486E-09
  -2.55999994E-02  -2.41028708E-09
  -2.55500004E-02  -2.94573616E-10
  -2.54999995E-02   3.32854477E-09
  -2.54500005E-02   6.71297729E-09
  -2.53999997E-02   8.13000689E-09
  -2.53500007E-02   6.64702693E-09
  -2.52999999E-02   2.57427701E-09
  -2.52500009E-02  -2.63296362E-09
  -2.52000000E-02  -6.99092428E-09
  -2.51499992E-02  -8.86218210E-09
  -2.51000002E-02  -7.70323094E-09
  -2.50499994E-02  -4.34376179E-09
  -2.50000004E-02  -6.56385557E-10
  -2.49499995E-02   1.25437605E-09
  -2.49000005E-02  -5.77679311E-12
  -2.48499997E-02  -4.46781190E-09
  -2.48000007E-02  -1.07388400E-08
  -2.47499999E-02  -1.65805307E-08
  -2.47000009E-02  -1.98864605E-08
  -2.46500000E-02  -1.96309458E-08
  -2.45999992E-02  -1.63610903E-08
  -2.45500002E-02  -1.19959704E-08
  -2.44999994E-02  -9.00153374E-09
  -2.44500004E-02  -9.29309962E-09
  -2.43999995E-02  -1.33511762E-08
  -2.43500005E-02  -1.99552872E-08
  -2.42999997E-02  -2.66748312E-08
  -2.42500007E-02  -3.09194483E-08
  -2.41999999E-02  -3.10931334E-08
  -2.41500009E-02  -2.73357550E-08
  -2.41000000E-02  -2.15056914E-08
  -2.40499992E-02  -1.63884248E-08
  -2.40000002E-02  -1.44641499E-08
  -2.39499994E-02  -1.67759566E-08
  -2.39000004E-02  -2.24109620E-08
  -2.38499995E-02  -2.88463209E-08
  -2.38000005E-02  -3.30299521E-08
  -2.37499997E-02  -3.27312186E-08
  -2.37000007E-02  -2.75618639E-08
  -2.36499999E-02  -1.91979872E-08
  -2.36000009E-02  -1.06801110E-08
  -2.35500000E-02  -5.07960651E-09
  -2.34999992E-02  -4.11316980E-09
  -2.34500002E-02  -7.32729033E-09
  -2.33999994E-02  -1.22356258E-08
  -2.33500004E-02  -1.53743969E-08
  -2.32999995E-02  -1.38269574E-08
  -2.32500006E-02  -6.54498722E-09
  -2.31999997E-02   5.13344878E-09
  -2.31500007E-02   1.80238864E-08
  -2.30999999E-02   2.84795725E-08
  -2.30500009E-02   3.40202995E-08
  -2.30000000E-02   3.44801165E-08
  -2.29499992E-02   3.21449605E-08
  -2.29000002E-02   3.07913091E-08
  -2.28499994E-02   3.40288793E-08
  -2.28000004E-02   4.36740564E-08
  -2.27499995E-02   5.88861582E-08
  -2.27000006E-02   7.64746204E-08
  -2.26499997E-02   9.22695946E-08
  -2.26000007E-02   1.02967206E-07
  -2.25499999E-02   1.07632324E-07
  -2.25000009E-02   1.08174895E-07
  -2.24500000E-02   1.08559711E-07
  -2.23999992E-02   1.13072964E-07
  -2.23500002E-02   1.24400898E-07
  -2.22999994E-02   1.42379349E-07
  -2.22500004E-02   1.63992411E-07
  -2.21999995E-02   1.84651554E-07
  -2.21500006E-02   2.00211787E-07
  -2.20999997E-02   2.08836894E-07
  -2.20500007E-02   2.11872219E-07
  -2.19999999E-02   2.13309320E-07
  -2.19500009E-02   2.18049536E-07
  -2.19000001E-02   2.29717656E-07
  -2.18499992E-02   2.48997196E-07
  -2.18000002E-02   2.73247650E-07
  -2.17499994E-02   2.97604942E-07
  -2.17000004E-02   3.17104366E-07
  -2.16499995E-02   3.28897869E-07
  -2.16000006E-02   3.33571791E-07
  -2.15499997E-02   3.34952915E-07
  -2.15000007E-02   3.38456829E-07
  -2.14499999E-02   3.48687593E-07
  -2.14000009E-02   3.67348861E-07
  -2.13500001E-02   3.92411209E-07
  -2.12999992E-02   4.18936168E-07
  -2.12500002E-02   4.41223364E-07
  -2.11999994E-02   4.55345202E-07
  -2.11500004E-02   4.60940640E-07
  -2.10999995E-02   4.61448053E-07
  -2.10500006E-02   4.62638383E-07
  -2.09999997E-02   4.70074013E-07
  -2.09500007E-02   4.86610531E-07
  -2.08999999E-02   5.11059170E-07
  -2.08500009E-02   5.38638176E-07
  -2.08000001E-02   5.63043670E-07
  -2.07499992E-02   5.79243533E-07
  -2.07000002E-02   5.85758983E-07
  -2.06499994E-02   5.85398197E-07
  -2.06000004E-02   5.84084034E-07
  -2.05499995E-02   5.88264527E-07
  -2.05000006E-02   6.02039677E-07
  -2.04499997E-02   6.25288862E-07
  -2.04000007E-02   6.53652648E-07
  -2.03499999E-02   6.80414985E-07
  -2.03000009E-02   6.99476630E-07
  -2.02500001E-02   7.08108132E-07
  -2.01999992E-02   7.08245864E-07
  -2.01500002E-02   7.05719970E-07
  -2.00999994E-02   7.07728987E-07
  -2.00500004E-02   7.19655191E-07
  -1.99999996E-02   7.42636246E-07
  -1.99500006E-02   7.72998135E-07
  -1.98999997E-02   8.03830972E-07
  -1.98500007E-02   8.28040470E-07
  -1.97999999E-02   8.41534074E-07
  -1.97500009E-02   8.45119018E-07
  -1.97000001E-02   8.44243004E-07
  -1.96499992E-02   8.46650948E-07
  -1.96000002E-02   8.58976307E-07
  -1.95499994E-02   8.83778625E-07
  -1.95000004E-02   9.18352725E-07
  -1.94499996E-02   9.55870746E-07
  -1.94000006E-02   9.88390411E-07
  -1.93499997E-02   1.01041155E-06
  -1.93000007E-02   1.02139131E-06
  -1.92499999E-02   1.02608305E-06
  -1.92000009E-02   1.03251534E-06
  -1.91500001E-02   1.04847197E-06
  -1.90999992E-02   1.07802703E-06
  -1.90500002E-02   1.11969439E-06
  -1.89999994E-02   1.16702722E-06
  -1.89500004E-02   1.21143842E-06
  -1.88999996E-02   1.24602650E-06
  -1.88500006E-02   1.26870168E-06
  -1.87999997E-02   1.28320391E-06
  -1.87500007E-02   1.29752880E-06
  -1.86999999E-02   1.32043203E-06
  -1.86500009E-02   1.35754613E-06
  -1.86000001E-02   1.40883878E-06
  -1.85499992E-02   1.46856519E-06
  -1.85000002E-02   1.52777250E-06
  -1.84499994E-02   1.57827139E-06
  -1.84000004E-02   1.61631476E-06
  -1.83499996E-02   1.64434084E-06
  -1.83000006E-02   1.66998143E-06
  -1.82499997E-02   1.70273199E-06
  -1.82000007E-02   1.74974673E-06
  -1.81499999E-02   1.81263124E-06
  -1.81000009E-02   1.88666706E-06
  -1.80500001E-02   1.96284668E-06
  -1.79999992E-02   2.03185027E-06
  -1.79500002E-02   2.08820438E-06
  -1.78999994E-02   2.13278031E-06
  -1.78500004E-02   2.17249408E-06
  -1.77999996E-02   2.21729942E-06
  -1.77500006E-02   2.27578289E-06
  -1.76999997E-02   2.35133211E-06
  -1.76500008E-02   2.44057946E-06
  -1.75999999E-02   2.53482608E-06
  -1.75500009E-02   2.62387334E-06
  -1.75000001E-02   2.70055989E-06
  -1.74499992E-02   2.76400033E-06
  -1.74000002E-02   2.82005271E-06
  -1.73499994E-02   2.87878197E-06
  -1.73000004E-02   2.95003065E-06
  -1.72499996E-02   3.03904085E-06
  -1.72000006E-02   3.14408339E-06
  -1.71499997E-02   3.25715973E-06
  -1.71000008E-02   3.36752441E-06
  -1.70499999E-02   3.46644924E-06
  -1.70000009E-02   3.55113229E-06
  -1.69500001E-02   3.62603441E-06
  -1.68999992E-02   3.70096518E-06
  -1.68500002E-02   3.78676805E-06
  -1.67999994E-02   3.89051547E-06
  -1.67500004E-02   4.01234593E-06
  -1.66999996E-02   4.14534907E-06
  -1.66500006E-02   4.27859914E-06
  -1.65999997E-02   4.40201029E-06
  -1.65500008E-02   4.51085180E-06
  -1.64999999E-02   4.60792626E-06
  -1.64500009E-02   4.70239002E-06
  -1.64000001E-02   4.80575181E-06
  -1.63499992E-02   4.92681102E-06
  -1.63000003E-02   5.06773767E-06
  -1.62499994E-02   5.22306937E-06
  -1.62000004E-02   5.38211816E-06
  -1.61499996E-02   5.53371501E-06
  -1.61000006E-02   5.67120469E-06
  -1.60499997E-02   5.79547941E-06
  -1.60000008E-02   5.91465914E-06
  -1.59499999E-02   6.04055867E-06
  -1.59000009E-02   6.18349986E-06
  -1.58500001E-02   6.34773687E-06
  -1.57999992E-02   6.52956032E-06
  -1.57500003E-02   6.71893577E-06
  -1.56999994E-02   6.90396337E-06
  -1.56500004E-02   7.07620620E-06
  -1.55999996E-02   7.23449739E-06
  -1.55499997E-02   7.38555036E-06
  -1.54999997E-02   7.54106941E-06
  -1.54499998E-02   7.71261784E-06
  -1.53999999E-02   7.90652484E-06
  -1.53500000E-02   8.12108738E-06
  -1.53000001E-02   8.34731873E-06
  -1.52500002E-02   8.57295618E-06
  -1.52000003E-02   8.78797800E-06
  -1.51500003E-02   8.98909821E-06
  -1.51000004E-02   9.18131263E-06
  -1.50499996E-02   9.37576988E-06
  -1.49999997E-02   9.58489818E-06
  -1.49499997E-02   9.81694575E-06
  -1.48999998E-02   1.00723437E-05
  -1.48499999E-02   1.03435259E-05
  -1.48000000E-02   1.06183261E-05
  -1.47500001E-02   1.08854110E-05
  -1.47000002E-02   1.11394020E-05
  -1.46500003E-02   1.13833567E-05
  -1.46000003E-02   1.16274641E-05
  -1.45500004E-02   1.18846010E-05
  -1.44999996E-02   1.21646972E-05
  -1.44499997E-02   1.24703593E-05
  -1.43999998E-02   1.27957446E-05
  -1.43499998E-02   1.31291945E-05
  -1.42999999E-02   1.34584570E-05
  -1.42500000E-02   1.37761881E-05
  -1.42000001E-02   1.40832981E-05
  -1.41500002E-02   1.43886091E-05
  -1.41000003E-02   1.47050177E-05
  -1.40500003E-02   1.50438500E-05
  -1.40000004E-02   1.54098307E-05
  -1.39499996E-02   1.57991035E-05
  -1.38999997E-02   1.62009746E-05
  -1.38499998E-02   1.66026457E-05
  -1.37999998E-02   1.69950126E-05
  -1.37499999E-02   1.73767585E-05
  -1.37000000E-02   1.77550064E-05
  -1.36500001E-02   1.81422056E-05
  -1.36000002E-02   1.85506960E-05
  -1.35500003E-02   1.89873554E-05
  -1.35000004E-02   1.94505283E-05
  -1.34500004E-02   1.99307851E-05
  -1.33999996E-02   2.04152384E-05
  -1.33499997E-02   2.08933543E-05
  -1.32999998E-02   2.13615713E-05
  -1.32499998E-02   2.18250170E-05
  -1.31999999E-02   2.22953076E-05
  -1.31500000E-02   2.27853998E-05
  -1.31000001E-02   2.33039464E-05
  -1.30500002E-02   2.38515277E-05
  -1.30000003E-02   2.44204348E-05
  -1.29500004E-02   2.49981767E-05
  -1.29000004E-02   2.55731156E-05
  -1.28499996E-02   2.61396708E-05
  -1.27999997E-02   2.67008527E-05
  -1.27499998E-02   2.72670259E-05
  -1.26999998E-02   2.78513198E-05
  -1.26499999E-02   2.84638481E-05
  -1.26000000E-02   2.91073502E-05
  -1.25500001E-02   2.97760307E-05
  -1.25000002E-02   3.04582427E-05
  -1.24500003E-02   3.11417243E-05
  -1.24000004E-02   3.18190869E-05
  -1.23500004E-02   3.24911780E-05
  -1.22999996E-02   3.31667507E-05
  -1.22499997E-02   3.38586833E-05
  -1.21999998E-02   3.45782901E-05
  -1.21499998E-02   3.53303549E-05
  -1.20999999E-02   3.61111997E-05
  -1.20500000E-02   3.69103473E-05
  -1.20000001E-02   3.77153010E-05
  -1.19500002E-02   3.85171625E-05
  -1.19000003E-02   3.93146147E-05
  -1.18500004E-02   4.01146062E-05
  -1.18000004E-02   4.09291606E-05
  -1.17499996E-02   4.17701704E-05
  -1.16999997E-02   4.26444130E-05
  -1.16499998E-02   4.35504808E-05
  -1.15999999E-02   4.44795514E-05
  -1.15499999E-02   4.54194051E-05
  -1.15000000E-02   4.63599499E-05
  -1.14500001E-02   4.72978354E-05
  -1.14000002E-02   4.82378673E-05
  -1.13500003E-02   4.91910396E-05
  -1.13000004E-02   5.01698232E-05
  -1.12500004E-02   5.11824073E-05
  -1.11999996E-02   5.22293885E-05
  -1.11499997E-02   5.33036800E-05
  -1.10999998E-02   5.43936367E-05
  -1.10499999E-02   5.54883263E-05
  -1.09999999E-02   5.65825248E-05
  -1.09500000E-02   5.76792190E-05
  -1.09000001E-02   5.87880349E-05
  -1.08500002E-02   5.99210653E-05
  -1.08000003E-02   6.10877978E-05
  -1.07500004E-02   6.22909283E-05
  -1.07000005E-02   6.35252945E-05
  -1.06499996E-02   6.47803099E-05
  -1.05999997E-02   6.60448713E-05
  -1.05499998E-02   6.73121540E-05
  -1.04999999E-02   6.85826744E-05
  -1.04499999E-02   6.98643707E-05
  -1.04000000E-02   7.11689499E-05
  -1.03500001E-02   7.25067657E-05
  -1.03000002E-02   7.38824092E-05
  -1.02500003E-02   7.52926644E-05
  -1.02000004E-02   7.67284509E-05
  -1.01500005E-02   7.81786002E-05
  -1.00999996E-02   7.96348686E-05
  -1.00499997E-02   8.10959828E-05
  -9.99999978E-03   8.25679599E-05
  -9.94999986E-03   8.40615758E-05
  -9.89999995E-03   8.55874459E-05
  -9.85000003E-03   8.71516895E-05
  -9.80000012E-03   8.87531351E-05
  -9.75000020E-03   9.03839173E-05
  -9.70000029E-03   9.20333550E-05
  -9.65000037E-03   9.36926881E-05
  -9.60000046E-03   9.53587660E-05
  -9.54999961E-03   9.70355468E-05
  -9.49999969E-03   9.87327221E-05
  -9.44999978E-03   1.00460929E-04
  -9.39999986E-03   1.02227088E-04
  -9.34999995E-03   1.04031955E-04
  -9.30000003E-03   1.05869643E-04
  -9.25000012E-03   1.07730484E-04
  -9.20000020E-03   1.09605346E-04
  -9.15000029E-03   1.11489608E-04
  -9.10000037E-03   1.13385307E-04
  -9.05000046E-03   1.15300150E-04
  -8.99999961E-03   1.17244206E-04
  -8.94999970E-03   1.19225348E-04
  -8.89999978E-03   1.21245772E-04
  -8.84999987E-03   1.23301594E-04
  -8.79999995E-03   1.25384438E-04
  -8.75000004E-03   1.27485066E-04
  -8.70000012E-03   1.29597494E-04
  -8.65000021E-03   1.31721652E-04
  -8.60000029E-03   1.33863767E-04
  -8.55000038E-03   1.36032992E-04
  -8.50000046E-03   1.38237592E-04
  -8.44999962E-03   1.40481454E-04
  -8.39999970E-03   1.42762408E-04
  -8.34999979E-03   1.45073383E-04
  -8.29999987E-03   1.47404993E-04
  -8.24999996E-03   1.49750471E-04
  -8.20000004E-03   1.52108827E-04
  -8.15000013E-03   1.54484354E-04
  -8.10000021E-03   1.56885013E-04
  -8.05000030E-03   1.59319112E-04
  -8.00000038E-03   1.61791482E-04
  -7.95000046E-03   1.64301397E-04
  -7.89999962E-03   1.66842932E-04
  -7.84999970E-03   1.69407867E-04
  -7.79999979E-03   1.71989348E-04
  -7.74999987E-03   1.74584304E-04
  -7.69999996E-03   1.77195005E-04
  -7.65000004E-03   1.79828363E-04
  -7.60000013E-03   1.82492629E-04
  -7.55000021E-03   1.85193523E-04
  -7.49999983E-03   1.87931684E-04
  -7.44999992E-03   1.90702165E-04
  -7.40000000E-03   1.93497777E-04
  -7.35000009E-03   1.96310881E-04
  -7.30000017E-03   1.99136615E-04
  -7.24999979E-03   2.01976451E-04
  -7.19999988E-03   2.04836149E-04
  -7.14999996E-03   2.07723104E-04
  -7.10000005E-03   2.10643484E-04
  -7.05000013E-03   2.13599080E-04
  -7.00000022E-03   2.16586341E-04
  -6.94999984E-03   2.19598049E-04
  -6.89999992E-03   2.22627263E-04
  -6.85000001E-03   2.25669515E-04
  -6.80000009E-03   2.28724035E-04
  -6.75000018E-03   2.31794795E-04
  -6.69999979E-03   2.34888328E-04
  -6.64999988E-03   2.38011373E-04
  -6.59999996E-03   2.41166737E-04
  -6.55000005E-03   2.44351948E-04
  -6.50000013E-03   2.47561315E-04
  -6.45000022E-03   2.50787358E-04
  -6.39999984E-03   2.54023587E-04
  -6.34999992E-03   2.57268053E-04
  -6.30000001E-03   2.60523811E-04
  -6.25000009E-03   2.63796857E-04
  -6.20000018E-03   2.67092866E-04
  -6.14999980E-03   2.70415563E-04
  -6.09999988E-03   2.73765007E-04
  -6.04999997E-03   2.77136045E-04
  -6.00000005E-03   2.80521024E-04
  -5.95000014E-03   2.83912785E-04
  -5.90000022E-03   2.87307979E-04
  -5.84999984E-03   2.90708500E-04
  -5.79999993E-03   2.94119556E-04
  -5.75000001E-03   2.97546503E-04
  -5.70000010E-03   3.00991960E-04
  -5.65000018E-03   3.04455985E-04
  -5.59999980E-03   3.07936047E-04
  -5.54999989E-03   3.11426236E-04
  -5.49999997E-03   3.14920035E-04
  -5.45000006E-03   3.18413426E-04
  -5.40000014E-03   3.21904372E-04
  -5.35000023E-03   3.25395464E-04
  -5.29999984E-03   3.28892085E-04
  -5.24999993E-03   3.32397816E-04
  -5.20000001E-03   3.35914316E-04
  -5.15000010E-03   3.39439604E-04
  -5.10000018E-03   3.42967862E-04
  -5.04999980E-03   3.46493383E-04
  -4.99999989E-03   3.50011338E-04
  -4.94999997E-03   3.53517797E-04
  -4.90000006E-03   3.57012235E-04
  -4.85000014E-03   3.60498496E-04
  -4.80000023E-03   3.63981555E-04
  -4.74999985E-03   3.67464323E-04
  -4.69999993E-03   3.70945403E-04
  -4.65000002E-03   3.74420080E-04
  -4.60000010E-03   3.77882505E-04
  -4.55000019E-03   3.81327205E-04
  -4.49999981E-03   3.84750805E-04
  -4.44999989E-03   3.88151879E-04
  -4.39999998E-03   3.91531794E-04
  -4.35000006E-03   3.94894305E-04
  -4.30000015E-03   3.98242788E-04
  -4.25000023E-03   4.01577010E-04
  -4.19999985E-03   4.04892373E-04
  -4.14999994E-03   4.08184016E-04
  -4.10000002E-03   4.11446264E-04
  -4.05000011E-03   4.14673559E-04
  -4.00000019E-03   4.17864387E-04
  -3.94999981E-03   4.21018165E-04
  -3.89999989E-03   4.24136466E-04
  -3.84999998E-03   4.27222752E-04
  -3.80000006E-03   4.30277752E-04
  -3.74999992E-03   4.33299632E-04
  -3.70000000E-03   4.36284608E-04
  -3.65000009E-03   4.39227442E-04
  -3.59999994E-03   4.42121469E-04
  -3.55000002E-03   4.44960577E-04
  -3.50000011E-03   4.47741419E-04
  -3.44999996E-03   4.50465421E-04
  -3.40000005E-03   4.53137822E-04
  -3.34999990E-03   4.55761823E-04
  -3.29999998E-03   4.58337861E-04
  -3.25000007E-03   4.60863521E-04
  -3.19999992E-03   4.63331409E-04
  -3.15000000E-03   4.65732592E-04
  -3.10000009E-03   4.68057813E-04
  -3.04999994E-03   4.70301573E-04
  -3.00000003E-03   4.72464046E-04
  -2.95000011E-03   4.74549568E-04
  -2.89999996E-03   4.76566202E-04
  -2.85000005E-03   4.78518545E-04
  -2.79999990E-03   4.80404211E-04
  -2.74999999E-03   4.82213072E-04
  -2.70000007E-03   4.83933196E-04
  -2.64999992E-03   4.85553814E-04
  -2.60000001E-03   4.87066369E-04
  -2.55000009E-03   4.88470658E-04
  -2.49999994E-03   4.89771948E-04
  -2.45000003E-03   4.90978069E-04
  -2.40000011E-03   4.92095540E-04
  -2.34999997E-03   4.93125117E-04
  -2.30000005E-03   4.94061795E-04
  -2.24999990E-03   4.94891719E-04
  -2.19999999E-03   4.95598419E-04
  -2.15000007E-03   4.96169901E-04
  -2.09999993E-03   4.96601686E-04
  -2.05000001E-03   4.96899243E-04
  -2.00000009E-03   4.97071538E-04
  -1.94999995E-03   4.97126312E-04
  -1.90000003E-03   4.97068395E-04
  -1.85000000E-03   4.96894296E-04
  -1.79999997E-03   4.96590801E-04
  -1.75000005E-03   4.96140390E-04
  -1.70000002E-03   4.95527056E-04
  -1.64999999E-03   4.94741194E-04
  -1.59999996E-03   4.93784086E-04
  -1.55000004E-03   4.92665684E-04
  -1.50000001E-03   4.91396757E-04
  -1.44999998E-03   4.89985629E-04
  -1.39999995E-03   4.88433172E-04
  -1.35000004E-03   4.86730103E-04
  -1.30000000E-03   4.84857766E-04
  -1.24999997E-03   4.82794305E-04
  -1.20000006E-03   4.80524555E-04
  -1.15000003E-03   4.78043774E-04
  -1.09999999E-03   4.75359353E-04
  -1.04999996E-03   4.72487300E-04
  -1.00000005E-03   4.69439517E-04
  -9.50000016E-04   4.66221158E-04
  -8.99999985E-04   4.62825847E-04
  -8.50000011E-04   4.59233706E-04
  -7.99999980E-04   4.55423171E-04
  -7.50000007E-04   4.51373606E-04
  -6.99999975E-04   4.47074824E-04
  -6.50000002E-04   4.42532590E-04
  -6.00000028E-04   4.37761861E-04
  -5.49999997E-04   4.32779692E-04
  -5.00000024E-04   4.27598512E-04
  -4.49999992E-04   4.22211888E-04
  -3.99999990E-04   4.16599971E-04
  -3.49999988E-04   4.10737412E-04
  -3.00000014E-04   4.04595834E-04
  -2.50000012E-04   3.98160104E-04
  -1.99999995E-04   3.91431880E-04
  -1.50000007E-04   3.84429150E-04
  -9.99999975E-05   3.77178134E-04
  -4.99999987E-05   3.69699381E-04
   0.00000000       3.61991697E-04
   4.99999987E-05   3.54036310E-04
   9.99999975E-05   3.45799897E-04
   1.50000007E-04   3.37247475E-04
   1.99999995E-04   3.28360649E-04
   2.50000012E-04   3.19134153E-04
   3.00000014E-04   3.09583236E-04
   3.49999988E-04   2.99739331E-04
   3.99999990E-04   2.89633230E-04
   4.49999992E-04   2.79273459E-04
   5.00000024E-04   2.68645759E-04
   5.49999997E-04   2.57713720E-04
   6.00000028E-04   2.46431300E-04
   6.50000002E-04   2.34764826E-04
   6.99999975E-04   2.22703180E-04
   7.50000007E-04   2.10266691E-04
   7.99999980E-04   1.97495290E-04
   8.50000011E-04   1.84422810E-04
   8.99999985E-04   1.71064530E-04
   9.50000016E-04   1.57413480E-04
   1.00000005E-03   1.43433062E-04
   1.04999996E-03   1.29072258E-04
   1.09999999E-03   1.14288443E-04
   1.15000003E-03   9.90658009E-05
   1.20000006E-03   8.34206076E-05
   1.24999997E-03   6.73920295E-05
   1.30000000E-03   5.10241225E-05
   1.35000004E-03   3.43440297E-05
   1.39999995E-03   1.73480639E-05
   1.44999998E-03  -2.05145085E-11
   1.50000001E-03  -1.77571947E-05
   1.55000004E-03  -3.59731675E-05
   1.59999996E-03  -5.46723059E-05
   1.64999999E-03  -7.38465242E-05
   1.70000002E-03  -9.34533382E-05
   1.75000005E-03  -1.13436654E-04
   1.79999997E-03  -1.33754947E-04
   1.85000000E-03  -1.54404843E-04
   1.90000003E-03  -1.75426321E-04
   1.94999995E-03  -1.96880748E-04
   2.00000009E-03  -2.18828529E-04
   2.05000001E-03  -2.41307353E-04
   2.09999993E-03  -2.64314294E-04
   2.15000007E-03  -2.87803239E-04
   2.19999999E-03  -3.11709242E-04
   2.24999990E-03  -3.35982622E-04
   2.30000005E-03  -3.60601698E-04
   2.34999997E-03  -3.85593157E-04
   2.40000011E-03  -4.11023211E-04
   2.45000003E-03  -4.36964998E-04
   2.49999994E-03  -4.63471311E-04
   2.55000009E-03  -4.90550301E-04
   2.60000001E-03  -5.18167566E-04
   2.64999992E-03  -5.46258525E-04
   2.70000007E-03  -5.74753969E-04
   2.74999999E-03  -6.03611232E-04
   2.79999990E-03  -6.32840616E-04