  -3.99999991E-02   0.00000000    
  -3.99499983E-02   0.00000000    
  -3.99000011E-02   0.00000000    
  -3.98500003E-02   7.13363786E-18
  -3.97999994E-02   6.49856449E-17
  -3.97499986E-02   3.14080982E-16
  -3.97000015E-02   1.06094445E-15
  -3.96500006E-02   2.79728099E-15
  -3.95999998E-02   6.10804267E-15
  -3.95499989E-02   1.14611410E-14
  -3.95000018E-02   1.89636616E-14
  -3.94500010E-02   2.82397600E-14
  -3.94000001E-02   3.85715358E-14
  -3.93499993E-02   4.93283528E-14
  -3.92999984E-02   6.05397216E-14
  -3.92500013E-02   7.33330361E-14
  -3.92000005E-02   8.99489088E-14
  -3.91499996E-02   1.13202118E-13
  -3.90999988E-02   1.45530018E-13
  -3.90500017E-02   1.88033061E-13
  -3.90000008E-02   2.40002733E-13
  -3.89500000E-02   2.99256496E-13
  -3.88999991E-02   3.63214450E-13
  -3.88499983E-02   4.30257040E-13
  -3.88000011E-02   5.00725275E-13
  -3.87500003E-02   5.77063896E-13
  -3.86999995E-02   6.62993369E-13
  -3.86499986E-02   7.62032635E-13
  -3.86000015E-02   8.75989439E-13
  -3.85500006E-02   1.00406727E-12
  -3.84999998E-02   1.14298805E-12
  -3.84499989E-02   1.28807566E-12
  -3.84000018E-02   1.43479683E-12
  -3.83500010E-02   1.58004838E-12
  -3.83000001E-02   1.72267224E-12
  -3.82499993E-02   1.86315026E-12
  -3.81999984E-02   2.00286098E-12
  -3.81500013E-02   2.14336600E-12
  -3.81000005E-02   2.28591213E-12
  -3.80499996E-02   2.43098423E-12
  -3.79999988E-02   2.57763472E-12
  -3.79500017E-02   2.72255200E-12
  -3.79000008E-02   2.85923477E-12
  -3.78500000E-02   2.97786600E-12
  -3.77999991E-02   3.06641344E-12
  -3.77499983E-02   3.11303045E-12
  -3.77000012E-02   3.10914055E-12
  -3.76500003E-02   3.05191332E-12
  -3.75999995E-02   2.94458251E-12
  -3.75499986E-02   2.79366439E-12
  -3.75000015E-02   2.60365926E-12
  -3.74500006E-02   2.37157689E-12
  -3.73999998E-02   2.08451637E-12
  -3.73499990E-02   1.72262476E-12
  -3.73000018E-02   1.26719490E-12
  -3.72500010E-02   7.10660209E-13
  -3.72000001E-02   6.34463863E-14
  -3.71499993E-02  -6.46784384E-13
  -3.70999984E-02  -1.38498132E-12
  -3.70500013E-02  -2.12482332E-12
  -3.70000005E-02  -2.86442918E-12
  -3.69499996E-02  -3.63358323E-12
  -3.68999988E-02  -4.48676166E-12
  -3.68500017E-02  -5.48217374E-12
  -3.68000008E-02  -6.65425050E-12
  -3.67500000E-02  -7.99191529E-12
  -3.66999991E-02  -9.43430230E-12
  -3.66499983E-02  -1.08887890E-11
  -3.66000012E-02  -1.22658550E-11
  -3.65500003E-02  -1.35163252E-11
  -3.64999995E-02  -1.46534746E-11
  -3.64499986E-02  -1.57474797E-11
  -3.64000015E-02  -1.68912852E-11
  -3.63500006E-02  -1.81505262E-11
  -3.62999998E-02  -1.95196446E-11
  -3.62499990E-02  -2.09065387E-11
  -3.62000018E-02  -2.21573732E-11
  -3.61500010E-02  -2.31150116E-11
  -3.61000001E-02  -2.36870471E-11
  -3.60499993E-02  -2.38915589E-11
  -3.59999985E-02  -2.38557733E-11
  -3.59500013E-02  -2.37628181E-11
  -3.59000005E-02  -2.37662060E-11
  -3.58499996E-02  -2.39091143E-11
  -3.57999988E-02  -2.40870501E-11
  -3.57500017E-02  -2.40760849E-11
  -3.57000008E-02  -2.36202204E-11
  -3.56500000E-02  -2.25427611E-11
  -3.55999991E-02  -2.08313661E-11
  -3.55499983E-02  -1.86535804E-11
  -3.55000012E-02  -1.62886250E-11
  -3.54500003E-02  -1.40001422E-11
  -3.53999995E-02  -1.19056223E-11
  -3.53499986E-02  -9.90501344E-12
  -3.53000015E-02  -7.70834872E-12
  -3.52500007E-02  -4.95847981E-12
  -3.51999998E-02  -1.39949901E-12
  -3.51499990E-02   2.98454078E-12
  -3.51000018E-02   7.92888324E-12
  -3.50500010E-02   1.29738676E-11
  -3.50000001E-02   1.76489743E-11
  -3.49499993E-02   2.16779043E-11
  -3.48999985E-02   2.51104554E-11
  -3.48500013E-02   2.83129631E-11
  -3.48000005E-02   3.18101656E-11
  -3.47499996E-02   3.60408127E-11
  -3.46999988E-02   4.11349288E-11
  -3.46500017E-02   4.68184519E-11
  -3.46000008E-02   5.24990641E-11
  -3.45500000E-02   5.75063816E-11
  -3.44999991E-02   6.13860004E-11
  -3.44499983E-02   6.41144846E-11
  -3.44000012E-02   6.61293728E-11
  -3.43500003E-02   6.81464191E-11
  -3.42999995E-02   7.08332351E-11
  -3.42499986E-02   7.44808590E-11
  -3.42000015E-02   7.88260707E-11
  -3.41500007E-02   8.31176100E-11
  -3.40999998E-02   8.64121483E-11
  -3.40499990E-02   8.79778958E-11
  -3.40000018E-02   8.76262812E-11
  -3.39500010E-02   8.58148552E-11
  -3.39000002E-02   8.34607591E-11
  -3.38499993E-02   8.15342585E-11
  -3.37999985E-02   8.06069031E-11
  -3.37500013E-02   8.05605235E-11
  -3.37000005E-02   8.06009565E-11
  -3.36499996E-02   7.95881000E-11
  -3.35999988E-02   7.65474351E-11
  -3.35500017E-02   7.11356946E-11
  -3.35000008E-02   6.38411615E-11
  -3.34500000E-02   5.58096486E-11
  -3.33999991E-02   4.83551116E-11
  -3.33499983E-02   4.23630089E-11
  -3.33000012E-02   3.78556318E-11
  -3.32500003E-02   3.39285995E-11
  -3.31999995E-02   2.91085663E-11
  -3.31499986E-02   2.19917105E-11
  -3.31000015E-02   1.18862481E-11
  -3.30500007E-02  -8.34554377E-13
  -3.29999998E-02  -1.48452448E-11
  -3.29499990E-02  -2.84187240E-11
  -3.29000019E-02  -4.01837313E-11
  -3.28500010E-02  -4.97519768E-11
  -3.28000002E-02  -5.79212546E-11
  -3.27499993E-02  -6.63422303E-11
  -3.26999985E-02  -7.67770292E-11
  -3.26500013E-02  -9.02710823E-11
  -3.26000005E-02  -1.06613343E-10
  -3.25499997E-02  -1.24345562E-10
  -3.24999988E-02  -1.41342243E-10
  -3.24500017E-02  -1.55723281E-10
  -3.24000008E-02  -1.66698280E-10
  -3.23500000E-02  -1.74954509E-10
  -3.22999991E-02  -1.82390533E-10
  -3.22499983E-02  -1.91287680E-10
  -3.22000012E-02  -2.03271872E-10
  -3.21500003E-02  -2.18528209E-10
  -3.20999995E-02  -2.35634512E-10
  -3.20499986E-02  -2.52112137E-10
  -3.20000015E-02  -2.65470895E-10
  -3.19500007E-02  -2.74291728E-10
  -3.18999998E-02  -2.78857604E-10
  -3.18499990E-02  -2.81030338E-10
  -3.18000019E-02  -2.83401969E-10
  -3.17500010E-02  -2.88081170E-10
  -3.17000002E-02  -2.95654251E-10
  -3.16499993E-02  -3.04801628E-10
  -3.15999985E-02  -3.12770004E-10
  -3.15500014E-02  -3.16518478E-10
  -3.15000005E-02  -3.14043125E-10
  -3.14499997E-02  -3.05285325E-10
  -3.13999988E-02  -2.92197350E-10
  -3.13500017E-02  -2.77905504E-10
  -3.13000008E-02  -2.65317990E-10
  -3.12500000E-02  -2.55787419E-10
  -3.11999992E-02  -2.48433329E-10
  -3.11500002E-02  -2.40452908E-10
  -3.10999993E-02  -2.28311328E-10
  -3.10500003E-02  -2.09303491E-10
  -3.09999995E-02  -1.82793641E-10
  -3.09500005E-02  -1.50563312E-10
  -3.08999997E-02  -1.16082990E-10
  -3.08500007E-02  -8.30041591E-11
  -3.07999998E-02  -5.35295037E-11
  -3.07500008E-02  -2.73945137E-11
  -3.07000000E-02  -1.93887159E-12
  -3.06499992E-02   2.67308675E-11
  -3.06000002E-02   6.19777424E-11
  -3.05499993E-02   1.05045389E-10
  -3.05000003E-02   1.54362453E-10
  -3.04499995E-02   2.06078599E-10
  -3.04000005E-02   2.55626825E-10
  -3.03499997E-02   2.99639535E-10
  -3.03000007E-02   3.37369244E-10
  -3.02499998E-02   3.70965120E-10
  -3.02000009E-02   4.04453804E-10
  -3.01500000E-02   4.41851611E-10
  -3.00999992E-02   4.85237184E-10
  -3.00500002E-02   5.33649347E-10
  -2.99999993E-02   5.83327053E-10
  -2.99500003E-02   6.29215013E-10
  -2.98999995E-02   6.67089772E-10
  -2.98500005E-02   6.95365765E-10
  -2.97999997E-02   7.15762838E-10
  -2.97500007E-02   7.32506611E-10
  -2.96999998E-02   7.50384255E-10
  -2.96500009E-02   7.72499176E-10
  -2.96000000E-02   7.98725308E-10
  -2.95499992E-02   8.25569724E-10
  -2.95000002E-02   8.47539483E-10
  -2.94499993E-02   8.59436189E-10
  -2.94000003E-02   8.58572602E-10
  -2.93499995E-02   8.45921833E-10
  -2.93000005E-02   8.25664204E-10
  -2.92499997E-02   8.03304867E-10
  -2.92000007E-02   7.83175136E-10
  -2.91499998E-02   7.66424813E-10
  -2.91000009E-02   7.50413787E-10
  -2.90500000E-02   7.29804828E-10
  -2.89999992E-02   6.98903990E-10
  -2.89500002E-02   6.54227950E-10
  -2.88999993E-02   5.96151795E-10
  -2.88500004E-02   5.28881605E-10
  -2.87999995E-02   4.58726779E-10
  -2.87500005E-02   3.91409100E-10
  -2.86999997E-02   3.29587274E-10
  -2.86500007E-02   2.71703382E-10
  -2.85999998E-02   2.12688117E-10
  -2.85500009E-02   1.46243989E-10
  -2.85000000E-02   6.77207249E-11
  -2.84499992E-02  -2.36851944E-11
  -2.84000002E-02  -1.24393440E-10
  -2.83499993E-02  -2.27829935E-10
  -2.83000004E-02  -3.27155081E-10
  -2.82499995E-02  -4.18134832E-10
  -2.82000005E-02  -5.00877062E-10
  -2.81499997E-02  -5.79642723E-10
  -2.81000007E-02  -6.60790145E-10
  -2.80499998E-02  -7.49739548E-10
  -2.80000009E-02  -8.48302484E-10
  -2.79500000E-02  -9.53570778E-10
  -2.78999992E-02  -1.05888753E-09
  -2.78500002E-02  -1.15650234E-09
  -2.77999993E-02  -1.24075761E-09
  -2.77500004E-02  -1.31039912E-09
  -2.76999995E-02  -1.36896883E-09
  -2.76500005E-02  -1.42307977E-09
  -2.75999997E-02  -1.47930612E-09
  -2.75500007E-02  -1.54105551E-09
  -2.74999999E-02  -1.60681057E-09
  -2.74500009E-02  -1.67054015E-09
  -2.74000000E-02  -1.72412529E-09
  -2.73499992E-02  -1.76074533E-09
  -2.73000002E-02  -1.77773196E-09
  -2.72499993E-02  -1.77762038E-09
  -2.72000004E-02  -1.76690385E-09
  -2.71499995E-02  -1.75302073E-09
  -2.71000005E-02  -1.74089010E-09
  -2.70499997E-02  -1.73053205E-09
  -2.70000007E-02  -1.71684511E-09
  -2.69499999E-02  -1.69167214E-09
  -2.69000009E-02  -1.64727132E-09
  -2.68500000E-02  -1.57966518E-09
  -2.67999992E-02  -1.49039070E-09
  -2.67500002E-02  -1.38585454E-09
  -2.66999993E-02  -1.27455801E-09
  -2.66500004E-02  -1.16340337E-09
  -2.65999995E-02  -1.05470066E-09
  -2.65500005E-02  -9.45212242E-10
  -2.64999997E-02  -8.27674540E-10
  -2.64500007E-02  -6.94143687E-10
  -2.63999999E-02  -5.39699230E-10
  -2.63500009E-02  -3.64869773E-10
  -2.63000000E-02  -1.75686118E-10
  -2.62499992E-02   1.86770426E-11
  -2.62000002E-02   2.09648021E-10
  -2.61499994E-02   3.92743671E-10
  -2.61000004E-02   5.69247371E-10
  -2.60499995E-02   7.45318751E-10
  -2.60000005E-02   9.28913557E-10
  -2.59499997E-02   1.12585397E-09
  -2.59000007E-02   1.33678857E-09
  -2.58499999E-02   1.55638324E-09
  -2.58000009E-02   1.77512061E-09
  -2.57500000E-02   1.98293337E-09
  -2.56999992E-02   2.17306484E-09
  -2.56500002E-02   2.34446529E-09
  -2.55999994E-02   2.50163712E-09
  -2.55500004E-02   2.65200639E-09
  -2.54999995E-02   2.80196066E-09
  -2.54500005E-02   2.95331537E-09
  -2.53999997E-02   3.10178350E-09
  -2.53500007E-02   3.23813665E-09
  -2.52999999E-02   3.35156813E-09
  -2.52500009E-02   3.43378992E-09
  -2.52000000E-02   3.48205242E-09
  -2.51499992E-02   3.49974605E-09
  -2.51000002E-02   3.49430773E-09
  -2.50499994E-02   3.47333717E-09
  -2.50000004E-02   3.44063378E-09
  -2.49499995E-02   3.39388939E-09
  -2.49000005E-02   3.32508709E-09
  -2.48499997E-02   3.22340665E-09
  -2.48000007E-02   3.07938497E-09
  -2.47499999E-02   2.88850233E-09
  -2.47000009E-02   2.65259392E-09
  -2.46500000E-02   2.37849229E-09
  -2.45999992E-02   2.07447148E-09
  -2.45500002E-02   1.74609849E-09
  -2.44999994E-02   1.39328693E-09
  -2.44500004E-02   1.00989028E-09
  -2.43999995E-02   5.86016291E-10
  -2.43500005E-02   1.12023606E-10
  -2.42999997E-02  -4.17523682E-10
  -2.42500007E-02  -1.00172359E-09
  -2.41999999E-02  -1.63394942E-09
  -2.41500009E-02  -2.30495756E-09
  -2.41000000E-02  -3.00711434E-09
  -2.40499992E-02  -3.73787623E-09
  -2.40000002E-02  -4.50102711E-09
  -2.39499994E-02  -5.30508215E-09
  -2.39000004E-02  -6.15960394E-09
  -2.38499995E-02  -7.07103753E-09
  -2.38000005E-02  -8.03991984E-09
  -2.37499997E-02  -9.06066866E-09
  -2.37000007E-02  -1.01240518E-08
  -2.36499999E-02  -1.12212533E-08
  -2.36000009E-02  -1.23477042E-08
  -2.35500000E-02  -1.35050424E-08
  -2.34999992E-02  -1.47002588E-08
  -2.34500002E-02  -1.59425149E-08
  -2.33999994E-02  -1.72389321E-08
  -2.33500004E-02  -1.85912938E-08
  -2.32999995E-02  -1.99950776E-08
  -2.32500006E-02  -2.14412417E-08
  -2.31999997E-02  -2.29199877E-08
  -2.31500007E-02  -2.44248497E-08
  -2.30999999E-02  -2.59552984E-08
  -2.30500009E-02  -2.75167444E-08
  -2.30000000E-02  -2.91179294E-08
  -2.29499992E-02  -3.07668806E-08
  -2.29000002E-02  -3.24671738E-08
  -2.28499994E-02  -3.42162316E-08
  -2.28000004E-02  -3.60062877E-08
  -2.27499995E-02  -3.78276859E-08
  -2.27000006E-02  -3.96729796E-08
  -2.26499997E-02  -4.15400834E-08
  -2.26000007E-02  -4.34330616E-08
  -2.25499999E-02  -4.53602347E-08
  -2.25000009E-02  -4.73304524E-08
  -2.24500000E-02  -4.93491754E-08
  -2.23999992E-02  -5.14160625E-08
  -2.23500002E-02  -5.35251452E-08
  -2.22999994E-02  -5.56674706E-08
  -2.22500004E-02  -5.78350630E-08
  -2.21999995E-02  -6.00244761E-08
  -2.21500006E-02  -6.22383070E-08
  -2.20999997E-02  -6.44841407E-08
  -2.20500007E-02  -6.67713209E-08
  -2.19999999E-02  -6.91070312E-08
  -2.19500009E-02  -7.14934174E-08
  -2.19000001E-02  -7.39269552E-08
  -2.18499992E-02  -7.64004398E-08
  -2.18000002E-02  -7.89065595E-08
  -2.17499994E-02  -8.14416410E-08
  -2.17000004E-02  -8.40077874E-08
  -2.16499995E-02  -8.66125092E-08
  -2.16000006E-02  -8.92660736E-08
  -2.15499997E-02  -9.19776824E-08
  -2.15000007E-02  -9.47521741E-08
  -2.14499999E-02  -9.75886749E-08
  -2.14000009E-02  -1.00481856E-07
  -2.13500001E-02  -1.03425045E-07
  -2.12999992E-02  -1.06414092E-07
  -2.12500002E-02  -1.09449971E-07
  -2.11999994E-02  -1.12539318E-07
  -2.11500004E-02  -1.15692451E-07
  -2.10999995E-02  -1.18919878E-07
  -2.10500006E-02  -1.22228784E-07
  -2.09999997E-02  -1.25621071E-07
  -2.09500007E-02  -1.29093763E-07
  -2.08999999E-02  -1.32641659E-07
  -2.08500009E-02  -1.36260951E-07
  -2.08000001E-02  -1.39952235E-07
  -2.07499992E-02  -1.43721692E-07
  -2.07000002E-02  -1.47579854E-07
  -2.06499994E-02  -1.51538430E-07
  -2.06000004E-02  -1.55606685E-07
  -2.05499995E-02  -1.59789053E-07
  -2.05000006E-02  -1.64084597E-07
  -2.04499997E-02  -1.68489095E-07
  -2.04000007E-02  -1.72998398E-07
  -2.03499999E-02  -1.77611838E-07
  -2.03000009E-02  -1.82333991E-07
  -2.02500001E-02  -1.87174308E-07
  -2.01999992E-02  -1.92144583E-07
  -2.01500002E-02  -1.97255389E-07
  -2.00999994E-02  -2.02513235E-07
  -2.00500004E-02  -2.07919541E-07
  -1.99999996E-02  -2.13471822E-07
  -1.99500006E-02  -2.19166765E-07
  -1.98999997E-02  -2.25003461E-07
  -1.98500007E-02  -2.30985933E-07
  -1.97999999E-02  -2.37123203E-07
  -1.97500009E-02  -2.43427422E-07
  -1.97000001E-02  -2.49910443E-07
  -1.96499992E-02  -2.56580819E-07
  -1.96000002E-02  -2.63442047E-07
  -1.95499994E-02  -2.70492990E-07
  -1.95000004E-02  -2.77730862E-07
  -1.94499996E-02  -2.85154329E-07
  -1.94000006E-02  -2.92766345E-07
  -1.93499997E-02  -3.00575238E-07
  -1.93000007E-02  -3.08593201E-07
  -1.92499999E-02  -3.16833308E-07
  -1.92000009E-02  -3.25306274E-07
  -1.91500001E-02  -3.34018239E-07
  -1.90999992E-02  -3.42970566E-07
  -1.90500002E-02  -3.52162004E-07
  -1.89999994E-02  -3.61591844E-07
  -1.89500004E-02  -3.71263098E-07
  -1.88999996E-02  -3.81184151E-07
  -1.88500006E-02  -3.91367877E-07
  -1.87999997E-02  -4.01829141E-07
  -1.87500007E-02  -4.12581528E-07
  -1.86999999E-02  -4.23634248E-07
  -1.86500009E-02  -4.34991648E-07
  -1.86000001E-02  -4.46654667E-07
  -1.85499992E-02  -4.58623731E-07
  -1.85000002E-02  -4.70902137E-07
  -1.84499994E-02  -4.83498127E-07
  -1.84000004E-02  -4.96425173E-07
  -1.83499996E-02  -5.09699589E-07
  -1.83000006E-02  -5.23337064E-07
  -1.82499997E-02  -5.37350047E-07
  -1.82000007E-02  -5.51745870E-07
  -1.81499999E-02  -5.66527888E-07
  -1.81000009E-02  -5.81698316E-07
  -1.80500001E-02  -5.97261362E-07
  -1.79999992E-02  -6.13226177E-07
  -1.79500002E-02  -6.29607200E-07
  -1.78999994E-02  -6.46422791E-07
  -1.78500004E-02  -6.63691708E-07
  -1.77999996E-02  -6.81429924E-07
  -1.77500006E-02  -6.99648524E-07
  -1.76999997E-02  -7.18354045E-07
  -1.76500008E-02  -7.37550636E-07
  -1.75999999E-02  -7.57243640E-07
  -1.75500009E-02  -7.77442665E-07
  -1.75000001E-02  -7.98162773E-07
  -1.74499992E-02  -8.19423462E-07
  -1.74000002E-02  -8.41245651E-07
  -1.73499994E-02  -8.63648211E-07
  -1.73000004E-02  -8.86645182E-07
  -1.72499996E-02  -9.10245433E-07
  -1.72000006E-02  -9.34455215E-07
  -1.71499997E-02  -9.59281010E-07
  -1.71000008E-02  -9.84733219E-07
  -1.70499999E-02  -1.01082867E-06
  -1.70000009E-02  -1.03758885E-06
  -1.69500001E-02  -1.06503819E-06
  -1.68999992E-02  -1.09319967E-06
  -1.68500002E-02  -1.12209125E-06
  -1.67999994E-02  -1.15172600E-06
  -1.67500004E-02  -1.18211199E-06
  -1.66999996E-02  -1.21325729E-06
  -1.66500006E-02  -1.24517283E-06
  -1.65999997E-02  -1.27787519E-06
  -1.65500008E-02  -1.31138688E-06
  -1.64999999E-02  -1.34573372E-06
  -1.64500009E-02  -1.38094106E-06
  -1.64000001E-02  -1.41703015E-06
  -1.63499992E-02  -1.45401657E-06
  -1.63000003E-02  -1.49191112E-06
  -1.62499994E-02  -1.53072313E-06
  -1.62000004E-02  -1.57046475E-06
  -1.61499996E-02  -1.61115383E-06
  -1.61000006E-02  -1.65281449E-06
  -1.60499997E-02  -1.69547513E-06
  -1.60000008E-02  -1.73916499E-06
  -1.59499999E-02  -1.78390906E-06
  -1.59000009E-02  -1.82972656E-06
  -1.58500001E-02  -1.87663056E-06
  -1.57999992E-02  -1.92463176E-06
  -1.57500003E-02  -1.97374243E-06
  -1.56999994E-02  -2.02398064E-06
  -1.56500004E-02  -2.07537050E-06
  -1.55999996E-02  -2.12794180E-06
  -1.55499997E-02  -2.18172636E-06
  -1.54999997E-02  -2.23675329E-06
  -1.54499998E-02  -2.29304464E-06
  -1.53999999E-02  -2.35061680E-06
  -1.53500000E-02  -2.40948157E-06
  -1.53000001E-02  -2.46965237E-06
  -1.52500002E-02  -2.53114763E-06
  -1.52000003E-02  -2.59399326E-06
  -1.51500003E-02  -2.65822268E-06
  -1.51000004E-02  -2.72387138E-06
  -1.50499996E-02  -2.79097321E-06
  -1.49999997E-02  -2.85955525E-06
  -1.49499997E-02  -2.92963705E-06
  -1.48999998E-02  -3.00123315E-06
  -1.48499999E-02  -3.07435766E-06
  -1.48000000E-02  -3.14903014E-06
  -1.47500001E-02  -3.22527740E-06
  -1.47000002E-02  -3.30313514E-06
  -1.46500003E-02  -3.38264408E-06
  -1.46000003E-02  -3.46384263E-06
  -1.45500004E-02  -3.54676308E-06
  -1.44999996E-02  -3.63143022E-06
  -1.44499997E-02  -3.71786086E-06
  -1.43999998E-02  -3.80607116E-06
  -1.43499998E-02  -3.89608158E-06
  -1.42999999E-02  -3.98792190E-06
  -1.42500000E-02  -4.08163032E-06
  -1.42000001E-02  -4.17725278E-06
  -1.41500002E-02  -4.27483383E-06
  -1.41000003E-02  -4.37441258E-06
  -1.40500003E-02  -4.47601860E-06
  -1.40000004E-02  -4.57967462E-06
  -1.39499996E-02  -4.68539884E-06
  -1.38999997E-02  -4.79321488E-06
  -1.38499998E-02  -4.90315369E-06
  -1.37999998E-02  -5.01525710E-06
  -1.37499999E-02  -5.12957467E-06
  -1.37000000E-02  -5.24615871E-06
  -1.36500001E-02  -5.36505422E-06
  -1.36000002E-02  -5.48629714E-06
  -1.35500003E-02  -5.60991384E-06
  -1.35000004E-02  -5.73592615E-06
  -1.34500004E-02  -5.86435681E-06
  -1.33999996E-02  -5.99523946E-06
  -1.33499997E-02  -6.12861913E-06
  -1.32999998E-02  -6.26455085E-06
  -1.32499998E-02  -6.40309190E-06
  -1.31999999E-02  -6.54429687E-06
  -1.31500000E-02  -6.68820712E-06
  -1.31000001E-02  -6.83485678E-06
  -1.30500002E-02  -6.98426948E-06
  -1.30000003E-02  -7.13647250E-06
  -1.29500004E-02  -7.29149860E-06
  -1.29000004E-02  -7.44939598E-06
  -1.28499996E-02  -7.61022284E-06
  -1.27999997E-02  -7.77404239E-06
  -1.27499998E-02  -7.94091738E-06
  -1.26999998E-02  -8.11089376E-06
  -1.26499999E-02  -8.28401062E-06
  -1.26000000E-02  -8.46029525E-06
  -1.25500001E-02  -8.63977493E-06
  -1.25000002E-02  -8.82248332E-06
  -1.24500003E-02  -9.00846771E-06
  -1.24000004E-02  -9.19779268E-06
  -1.23500004E-02  -9.39052734E-06
  -1.22999996E-02  -9.58674082E-06
  -1.22499997E-02  -9.78649041E-06
  -1.21999998E-02  -9.98981795E-06
  -1.21499998E-02  -1.01967580E-05
  -1.20999999E-02  -1.04073388E-05
  -1.20500000E-02  -1.06215957E-05
  -1.20000001E-02  -1.08395770E-05
  -1.19500002E-02  -1.10613473E-05
  -1.19000003E-02  -1.12869811E-05
  -1.18500004E-02  -1.15165540E-05
  -1.18000004E-02  -1.17501295E-05
  -1.17499996E-02  -1.19877559E-05
  -1.16999997E-02  -1.22294696E-05
  -1.16499998E-02  -1.24753005E-05
  -1.15999999E-02  -1.27252815E-05
  -1.15499999E-02  -1.29794607E-05
  -1.15000000E-02  -1.32379000E-05
  -1.14500001E-02  -1.35006794E-05
  -1.14000002E-02  -1.37678799E-05
  -1.13500003E-02  -1.40395741E-05
  -1.13000004E-02  -1.43158204E-05
  -1.12500004E-02  -1.45966542E-05
  -1.11999996E-02  -1.48821091E-05
  -1.11499997E-02  -1.51722188E-05
  -1.10999998E-02  -1.54670233E-05
  -1.10499999E-02  -1.57665891E-05
  -1.09999999E-02  -1.60709988E-05
  -1.09500000E-02  -1.63803288E-05
  -1.09000001E-02  -1.66946629E-05
  -1.08500002E-02  -1.70140574E-05
  -1.08000003E-02  -1.73385561E-05
  -1.07500004E-02  -1.76681879E-05
  -1.07000005E-02  -1.80029820E-05
  -1.06499996E-02  -1.83429802E-05
  -1.05999997E-02  -1.86882389E-05
  -1.05499998E-02  -1.90388455E-05
  -1.04999999E-02  -1.93948817E-05
  -1.04499999E-02  -1.97564277E-05
  -1.04000000E-02  -2.01235507E-05
  -1.03500001E-02  -2.04962998E-05
  -1.03000002E-02  -2.08747006E-05
  -1.02500003E-02  -2.12587784E-05
  -1.02000004E-02  -2.16485678E-05
  -1.01500005E-02  -2.20441234E-05
  -1.00999996E-02  -2.24455216E-05
  -1.00499997E-02  -2.28528461E-05
  -9.99999978E-03  -2.32661823E-05
  -9.94999986E-03  -2.36855922E-05
  -9.89999995E-03  -2.41111193E-05
  -9.85000003E-03  -2.45427909E-05
  -9.80000012E-03  -2.49806290E-05
  -9.75000020E-03  -2.54246661E-05
  -9.70000029E-03  -2.58749442E-05
  -9.65000037E-03  -2.63315378E-05
  -9.60000046E-03  -2.67945161E-05
  -9.54999961E-03  -2.72639663E-05
  -9.49999969E-03  -2.77399486E-05
  -9.44999978E-03  -2.82225083E-05
  -9.39999986E-03  -2.87116691E-05
  -9.34999995E-03  -2.92074528E-05
  -9.30000003E-03  -2.97098759E-05
  -9.25000012E-03  -3.02189710E-05
  -9.20000020E-03  -3.07347946E-05
  -9.15000029E-03  -3.12574120E-05
  -9.10000037E-03  -3.17868944E-05
  -9.05000046E-03  -3.23233107E-05
  -8.99999961E-03  -3.28666938E-05
  -8.94999970E-03  -3.34170691E-05
  -8.89999978E-03  -3.39744292E-05
  -8.84999987E-03  -3.45387889E-05
  -8.79999995E-03  -3.51101553E-05
  -8.75000004E-03  -3.56885575E-05
  -8.70000012E-03  -3.62740502E-05
  -8.65000021E-03  -3.68666952E-05
  -8.60000029E-03  -3.74665397E-05
  -8.55000038E-03  -3.80736274E-05
  -8.50000046E-03  -3.86879547E-05
  -8.44999962E-03  -3.93095252E-05
  -8.39999970E-03  -3.99383207E-05
  -8.34999979E-03  -4.05743376E-05
  -8.29999987E-03  -4.12175978E-05
  -8.24999996E-03  -4.18681266E-05
  -8.20000004E-03  -4.25259714E-05
  -8.15000013E-03  -4.31911685E-05
  -8.10000021E-03  -4.38637362E-05
  -8.05000030E-03  -4.45436708E-05
  -8.00000038E-03  -4.52309396E-05
  -7.95000046E-03  -4.59255134E-05
  -7.89999962E-03  -4.66273559E-05
  -7.84999970E-03  -4.73364562E-05
  -7.79999979E-03  -4.80528179E-05
  -7.74999987E-03  -4.87764592E-05
  -7.69999996E-03  -4.95073800E-05
  -7.65000004E-03  -5.02455841E-05
  -7.60000013E-03  -5.09910533E-05
  -7.55000021E-03  -5.17437256E-05
  -7.49999983E-03  -5.25035503E-05
  -7.44999992E-03  -5.32704689E-05
  -7.40000000E-03  -5.40444453E-05
  -7.35000009E-03  -5.48254502E-05
  -7.30000017E-03  -5.56134619E-05
  -7.24999979E-03  -5.64084803E-05
  -7.19999988E-03  -5.72104691E-05
  -7.14999996E-03  -5.80193846E-05
  -7.10000005E-03  -5.88351686E-05
  -7.05000013E-03  -5.96577229E-05
  -7.00000022E-03  -6.04869638E-05
  -6.94999984E-03  -6.13227967E-05
  -6.89999992E-03  -6.21651488E-05
  -6.85000001E-03  -6.30139693E-05
  -6.80000009E-03  -6.38692072E-05
  -6.75000018E-03  -6.47308043E-05
  -6.69999979E-03  -6.55986951E-05
  -6.64999988E-03  -6.64727777E-05
  -6.59999996E-03  -6.73529139E-05
  -6.55000005E-03  -6.82389873E-05
  -6.50000013E-03  -6.91308524E-05
  -6.45000022E-03  -7.00283999E-05
  -6.39999984E-03  -7.09315136E-05
  -6.34999992E-03  -7.18401279E-05
  -6.30000001E-03  -7.27541410E-05
  -6.25000009E-03  -7.36734437E-05
  -6.20000018E-03  -7.45978978E-05
  -6.14999980E-03  -7.55273504E-05
  -6.09999988E-03  -7.64616270E-05
  -6.04999997E-03  -7.74005384E-05
  -6.00000005E-03  -7.83439173E-05
  -5.95000014E-03  -7.92916253E-05
  -5.90000022E-03  -8.02434952E-05
  -5.84999984E-03  -8.11993887E-05
  -5.79999993E-03  -8.21591748E-05
  -5.75000001E-03  -8.31226644E-05
  -5.70000010E-03  -8.40896464E-05
  -5.65000018E-03  -8.50599099E-05
  -5.59999980E-03  -8.60332075E-05
  -5.54999989E-03  -8.70092917E-05
  -5.49999997E-03  -8.79879663E-05
  -5.45000006E-03  -8.89690127E-05
  -5.40000014E-03  -8.99522274E-05
  -5.35000023E-03  -9.09374212E-05
  -5.29999984E-03  -9.19243685E-05
  -5.24999993E-03  -9.29128073E-05
  -5.20000001E-03  -9.39024612E-05
  -5.15000010E-03  -9.48930392E-05
  -5.10000018E-03  -9.58842575E-05
  -5.04999980E-03  -9.68758177E-05
  -4.99999989E-03  -9.78674507E-05
  -4.94999997E-03  -9.88588654E-05
  -4.90000006E-03  -9.98498217E-05
  -4.85000014E-03  -1.00840014E-04
  -4.80000023E-03  -1.01829151E-04
  -4.74999985E-03  -1.02816906E-04
  -4.69999993E-03  -1.03802922E-04
  -4.65000002E-03  -1.04786828E-04
  -4.60000010E-03  -1.05768253E-04
  -4.55000019E-03  -1.06746826E-04
  -4.49999981E-03  -1.07722190E-04
  -4.44999989E-03  -1.08693996E-04
  -4.39999998E-03  -1.09661923E-04
  -4.35000006E-03  -1.10625595E-04
  -4.30000015E-03  -1.11584624E-04
  -4.25000023E-03  -1.12538582E-04
  -4.19999985E-03  -1.13487018E-04
  -4.14999994E-03  -1.14429473E-04
  -4.10000002E-03  -1.15365481E-04
  -4.05000011E-03  -1.16294621E-04
  -4.00000019E-03  -1.17216456E-04
  -3.94999981E-03  -1.18130592E-04
  -3.89999989E-03  -1.19036573E-04
  -3.84999998E-03  -1.19933939E-04
  -3.80000006E-03  -1.20822173E-04
  -3.74999992E-03  -1.21700774E-04
  -3.70000000E-03  -1.22569196E-04
  -3.65000009E-03  -1.23426915E-04
  -3.59999994E-03  -1.24273356E-04
  -3.55000002E-03  -1.25108025E-04
  -3.50000011E-03  -1.25930397E-04
  -3.44999996E-03  -1.26739978E-04
  -3.40000005E-03  -1.27536216E-04
  -3.34999990E-03  -1.28318556E-04
  -3.29999998E-03  -1.29086344E-04
  -3.25000007E-03  -1.29838969E-04
  -3.19999992E-03  -1.30575747E-04
  -3.15000000E-03  -1.31296067E-04
  -3.10000009E-03  -1.31999303E-04
  -3.04999994E-03  -1.32684829E-04
  -3.00000003E-03  -1.33352092E-04
  -2.95000011E-03  -1.34000424E-04
  -2.89999996E-03  -1.34629183E-04
  -2.85000005E-03  -1.35237671E-04
  -2.79999990E-03  -1.35825176E-04
  -2.74999999E-03  -1.36390940E-04
  -2.70000007E-03  -1.36934206E-04
  -2.64999992E-03  -1.37454263E-04
  -2.60000001E-03  -1.37950381E-04
  -2.55000009E-03  -1.38421892E-04
  -2.49999994E-03  -1.38868068E-04
  -2.45000003E-03  -1.39288211E-04
  -2.40000011E-03  -1.39681491E-04
  -2.34999997E-03  -1.40047123E-04
  -2.30000005E-03  -1.40384262E-04
  -2.24999990E-03  -1.40692020E-04
  -2.19999999E-03  -1.40969569E-04
  -2.15000007E-03  -1.41216107E-04
  -2.09999993E-03  -1.41430806E-04
  -2.05000001E-03  -1.41612894E-04
  -2.00000009E-03  -1.41761499E-04
  -1.94999995E-03  -1.41875760E-04
  -1.90000003E-03  -1.41954763E-04
  -1.85000000E-03  -1.41997574E-04
  -1.79999997E-03  -1.42003235E-04
  -1.75000005E-03  -1.41970799E-04
  -1.70000002E-03  -1.41899334E-04
  -1.64999999E-03  -1.41787910E-04
  -1.59999996E-03  -1.41635639E-04
  -1.55000004E-03  -1.41441604E-04
  -1.50000001E-03  -1.41204844E-04
  -1.44999998E-03  -1.40924370E-04
  -1.39999995E-03  -1.40599164E-04
  -1.35000004E-03  -1.40228192E-04
  -1.30000000E-03  -1.39810378E-04
  -1.24999997E-03  -1.39344673E-04
  -1.20000006E-03  -1.38830030E-04
  -1.15000003E-03  -1.38265459E-04
  -1.09999999E-03  -1.37649957E-04
  -1.04999996E-03  -1.36982475E-04
  -1.00000005E-03  -1.36261981E-04
  -9.50000016E-04  -1.35487295E-04
  -8.99999985E-04  -1.34657297E-04
  -8.50000011E-04  -1.33770765E-04
  -7.99999980E-04  -1.32826579E-04
  -7.50000007E-04  -1.31823588E-04
  -6.99999975E-04  -1.30760716E-04
  -6.50000002E-04  -1.29636872E-04
  -6.00000028E-04  -1.28450949E-04
  -5.49999997E-04  -1.27201813E-04
  -5.00000024E-04  -1.25888240E-04
  -4.49999992E-04  -1.24508995E-04
  -3.99999990E-04  -1.23062826E-04
  -3.49999988E-04  -1.21548474E-04
  -3.00000014E-04  -1.19964716E-04
  -2.50000012E-04  -1.18310403E-04
  -1.99999995E-04  -1.16584371E-04
  -1.50000007E-04  -1.14785442E-04
  -9.99999975E-05  -1.12912392E-04
  -4.99999987E-05  -1.10963942E-04
   0.00000000      -1.08938759E-04
   4.99999987E-05  -1.06835490E-04
   9.99999975E-05  -1.04652798E-04
   1.50000007E-04  -1.02389400E-04
   1.99999995E-04  -1.00044017E-04
   2.50000012E-04  -9.76154479E-05
   3.00000014E-04  -9.51024340E-05
   3.49999988E-04  -9.25037384E-05
   3.99999990E-04  -8.98180369E-05
   4.49999992E-04  -8.70439253E-05
   5.00000024E-04  -8.41799920E-05
   5.49999997E-04  -8.12248181E-05
   6.00000028E-04  -7.81770577E-05
   6.50000002E-04  -7.50353865E-05
   6.99999975E-04  -7.17985458E-05
   7.50000007E-04  -6.84652914E-05
   7.99999980E-04  -6.50343136E-05
   8.50000011E-04  -6.15042591E-05
   8.99999985E-04  -5.78737090E-05
   9.50000016E-04  -5.41412155E-05
   1.00000005E-03  -5.03053270E-05
   1.04999996E-03  -4.63645883E-05
   1.09999999E-03  -4.23176643E-05
   1.15000003E-03  -3.81632381E-05
   1.20000006E-03  -3.39000289E-05
   1.24999997E-03  -2.95267291E-05
   1.30000000E-03  -2.50420235E-05
   1.35000004E-03  -2.04444877E-05
   1.39999995E-03  -1.57326413E-05
   1.44999998E-03  -1.09049925E-05
   1.50000001E-03  -5.96007385E-06
   1.55000004E-03  -8.96498364E-07
   1.59999996E-03   4.28704743E-06
   1.64999999E-03   9.59182216E-06
   1.70000002E-03   1.50190772E-05
   1.75000005E-03   2.05701290E-05
   1.79999997E-03   2.62463527E-05
   1.85000000E-03   3.20491999E-05
   1.90000003E-03   3.79802223E-05
   1.94999995E-03   4.40408548E-05
   2.00000009E-03   5.02324729E-05
   2.05000001E-03   5.65563641E-05
   2.09999993E-03   6.30137729E-05
   2.15000007E-03   6.96058414E-05
   2.19999999E-03   7.63338394E-05
   2.24999990E-03   8.31990910E-05
   2.30000005E-03   9.02030006E-05
   2.34999997E-03   9.73470524E-05
   2.40000011E-03   1.04632709E-04
   2.45000003E-03   1.12061301E-04
   2.49999994E-03   1.19634089E-04
   2.55000009E-03   1.27352119E-04
   2.60000001E-03   1.35216513E-04
   2.64999992E-03   1.43228463E-04
   2.70000007E-03   1.51389148E-04
   2.74999999E-03   1.59699877E-04
   2.79999990E-03   1.68162005E-04