  -3.99999991E-02   0.00000000    
  -3.99499983E-02   0.00000000    
  -3.99000011E-02   0.00000000    
  -3.98500003E-02   0.00000000    
  -3.97999994E-02   0.00000000    
  -3.97499986E-02   7.37875184E-23
  -3.97000015E-02   6.03963168E-22
  -3.96500006E-02   2.43117651E-21
  -3.95999998E-02   5.96906535E-21
  -3.95499989E-02   7.97363983E-21
  -3.95000018E-02  -4.16711378E-21
  -3.94500010E-02  -5.75878296E-20
  -3.94000001E-02  -1.92030496E-19
  -3.93499993E-02  -4.44235539E-19
  -3.92999984E-02  -8.18378946E-19
  -3.92500013E-02  -1.25408212E-18
  -3.92000005E-02  -1.61385450E-18
  -3.91499996E-02  -1.71088765E-18
  -3.90999988E-02  -1.37976807E-18
  -3.90500017E-02  -5.61522460E-19
  -3.90000008E-02   6.52680865E-19
  -3.89500000E-02   2.07557834E-18
  -3.88999991E-02   3.59343678E-18
  -3.88499983E-02   5.40058116E-18
  -3.88000011E-02   8.18416386E-18
  -3.87500003E-02   1.31296708E-17
  -3.86999995E-02   2.16803890E-17
  -3.86499986E-02   3.51118285E-17
  -3.86000015E-02   5.41188044E-17
  -3.85500006E-02   7.86774891E-17
  -3.84999998E-02   1.08374616E-16
  -3.84499989E-02   1.43186618E-16
  -3.84000018E-02   1.84419918E-16
  -3.83500010E-02   2.35328358E-16
  -3.83000001E-02   3.00943712E-16
  -3.82499993E-02   3.86947811E-16
  -3.81999984E-02   4.97890943E-16
  -3.81500013E-02   6.35501980E-16
  -3.81000005E-02   7.97982752E-16
  -3.80499996E-02   9.80883846E-16
  -3.79999988E-02   1.17948078E-15
  -3.79500017E-02   1.39179456E-15
  -3.79000008E-02   1.62090300E-15
  -3.78500000E-02   1.87528161E-15
  -3.77999991E-02   2.16664569E-15
  -3.77499983E-02   2.50589488E-15
  -3.77000012E-02   2.89877777E-15
  -3.76500003E-02   3.34327059E-15
  -3.75999995E-02   3.83010469E-15
  -3.75499986E-02   4.34649451E-15
  -3.75000015E-02   4.88154532E-15
  -3.74500006E-02   5.43077292E-15
  -3.73999998E-02   5.99732149E-15
  -3.73499990E-02   6.58877876E-15
  -3.73000018E-02   7.21051535E-15
  -3.72500010E-02   7.85823043E-15
  -3.72000001E-02   8.51302332E-15
  -3.71499993E-02   9.14150822E-15
  -3.70999984E-02   9.70143003E-15
  -3.70500013E-02   1.01508657E-14
  -3.70000005E-02   1.04574239E-14
  -3.69499996E-02   1.06037387E-14
  -3.68999988E-02   1.05869877E-14
  -3.68500017E-02   1.04126887E-14
  -3.68000008E-02   1.00851775E-14
  -3.67500000E-02   9.59841473E-15
  -3.66999991E-02   8.93018620E-15
  -3.66499983E-02   8.04125053E-15
  -3.66000012E-02   6.87916114E-15
  -3.65500003E-02   5.38511699E-15
  -3.64999995E-02   3.50177079E-15
  -3.64499986E-02   1.18002256E-15
  -3.64000015E-02  -1.61669949E-15
  -3.63500006E-02  -4.91183141E-15
  -3.62999998E-02  -8.71938342E-15
  -3.62499990E-02  -1.30516842E-14
  -3.62000018E-02  -1.79291549E-14
  -3.61500010E-02  -2.33880044E-14
  -3.61000001E-02  -2.94802872E-14
  -3.60499993E-02  -3.62616871E-14
  -3.59999985E-02  -4.37665481E-14
  -3.59500013E-02  -5.19767030E-14
  -3.59000005E-02  -6.07972264E-14
  -3.58499996E-02  -7.00546188E-14
  -3.57999988E-02  -7.95276253E-14
  -3.57500017E-02  -8.90076316E-14
  -3.57000008E-02  -9.83695344E-14
  -3.56500000E-02  -1.07622021E-13
  -3.55999991E-02  -1.16906728E-13
  -3.55499983E-02  -1.26432339E-13
  -3.55000012E-02  -1.36357952E-13
  -3.54500003E-02  -1.46668580E-13
  -3.53999995E-02  -1.57100868E-13
  -3.53499986E-02  -1.67165394E-13
  -3.53000015E-02  -1.76275105E-13
  -3.52500007E-02  -1.83938463E-13
  -3.51999998E-02  -1.89934521E-13
  -3.51499990E-02  -1.94379262E-13
  -3.51000018E-02  -1.97628277E-13
  -3.50500010E-02  -2.00032699E-13
  -3.50000001E-02  -2.01642671E-13
  -3.49499993E-02  -2.01998696E-13
  -3.48999985E-02  -2.00135237E-13
  -3.48500013E-02  -1.94839384E-13
  -3.48000005E-02  -1.85088869E-13
  -3.47499996E-02  -1.70489762E-13
  -3.46999988E-02  -1.51500137E-13
  -3.46500017E-02  -1.29293833E-13
  -3.46000008E-02  -1.05267818E-13
  -3.45500000E-02  -8.03739941E-14
  -3.44999991E-02  -5.45712631E-14
  -3.44499983E-02  -2.66841840E-14
  -3.44000012E-02   5.19918903E-15
  -3.43500003E-02   4.29009313E-14
  -3.42999995E-02   8.72362892E-14
  -3.42499986E-02   1.37440460E-13
  -3.42000015E-02   1.91270895E-13
  -3.41500007E-02   2.45835335E-13
  -3.40999998E-02   2.98846614E-13
  -3.40499990E-02   3.49750665E-13
  -3.40000018E-02   4.00153597E-13
  -3.39500010E-02   4.53231555E-13
  -3.39000002E-02   5.12258421E-13
  -3.38499993E-02   5.78836892E-13
  -3.37999985E-02   6.51647247E-13
  -3.37500013E-02   7.26391766E-13
  -3.37000005E-02   7.97129452E-13
  -3.36499996E-02   8.58549668E-13
  -3.35999988E-02   9.08222662E-13
  -3.35500017E-02   9.47747957E-13
  -3.35000008E-02   9.82116406E-13
  -3.34500000E-02   1.01737466E-12
  -3.33999991E-02   1.05750575E-12
  -3.33499983E-02   1.10193506E-12
  -3.33000012E-02   1.14493679E-12
  -3.32500003E-02   1.17745776E-12
  -3.31999995E-02   1.19077209E-12
  -3.31499986E-02   1.18042848E-12
  -3.31000015E-02   1.14862796E-12
  -3.30500007E-02   1.10370621E-12
  -3.29999998E-02   1.05662777E-12
  -3.29499990E-02   1.01582252E-12
  -3.29000019E-02   9.82642028E-13
  -3.28500010E-02   9.49674475E-13
  -3.28000002E-02   9.03041368E-13
  -3.27499993E-02   8.28025040E-13
  -3.26999985E-02   7.15716820E-13
  -3.26500013E-02   5.67644727E-13
  -3.26000005E-02   3.95982428E-13
  -3.25499997E-02   2.18793421E-13
  -3.24999988E-02   5.20761717E-14
  -3.24500017E-02  -9.79239611E-14
  -3.24000008E-02  -2.38446578E-13
  -3.23500000E-02  -3.87817572E-13
  -3.22999991E-02  -5.67448757E-13
  -3.22499983E-02  -7.91486885E-13
  -3.22000012E-02  -1.05880604E-12
  -3.21500003E-02  -1.35138721E-12
  -3.20999995E-02  -1.64049145E-12
  -3.20499986E-02  -1.89847270E-12
  -3.20000015E-02  -2.11119165E-12
  -3.19500007E-02  -2.28523038E-12
  -3.18999998E-02  -2.44601409E-12
  -3.18499990E-02  -2.62688894E-12
  -3.18000019E-02  -2.85346876E-12
  -3.17500010E-02  -3.13019489E-12
  -3.17000002E-02  -3.43562635E-12
  -3.16499993E-02  -3.72943690E-12
  -3.15999985E-02  -3.96884088E-12
  -3.15500014E-02  -4.12753469E-12
  -3.15000005E-02  -4.20844609E-12
  -3.14499997E-02  -4.24379195E-12
  -3.13999988E-02  -4.28133787E-12
  -3.13500017E-02  -4.36219680E-12
  -3.13000008E-02  -4.49990566E-12
  -3.12500000E-02  -4.67074686E-12
  -3.11999992E-02  -4.82080348E-12
  -3.11500002E-02  -4.88782539E-12
  -3.10999993E-02  -4.82886951E-12
  -3.10500003E-02  -4.64122924E-12
  -3.09999995E-02  -4.36633845E-12
  -3.09500005E-02  -4.07347159E-12
  -3.08999997E-02  -3.82930450E-12
  -3.08500007E-02  -3.66645429E-12
  -3.07999998E-02  -3.56562371E-12
  -3.07500008E-02  -3.46068291E-12
  -3.07000000E-02  -3.26601571E-12
  -3.06499992E-02  -2.91498900E-12
  -3.06000002E-02  -2.39238685E-12
  -3.05499993E-02  -1.74523427E-12
  -3.05000003E-02  -1.06540070E-12
  -3.04499995E-02  -4.50102358E-13
  -3.04000005E-02   4.28228111E-14
  -3.03499997E-02   4.24345211E-13
  -3.03000007E-02   7.73542255E-13
  -3.02499998E-02   1.20494662E-12
  -3.02000009E-02   1.81689527E-12
  -3.01500000E-02   2.64358500E-12
  -3.00999992E-02   3.63337420E-12
  -3.00500002E-02   4.66520182E-12
  -2.99999993E-02   5.59806455E-12
  -2.99500003E-02   6.33280711E-12
  -2.98999995E-02   6.85839623E-12
  -2.98500005E-02   7.26024579E-12
  -2.97999997E-02   7.68434361E-12
  -2.97500007E-02   8.27102623E-12
  -2.96999998E-02   9.08723097E-12
  -2.96500009E-02   1.00885463E-11
  -2.96000000E-02   1.11305288E-11
  -2.95499992E-02   1.20271015E-11
  -2.95000002E-02   1.26318929E-11
  -2.94499993E-02   1.29062577E-11
  -2.94000003E-02   1.29416920E-11
  -2.93499995E-02   1.29235051E-11
  -2.93000005E-02   1.30490280E-11
  -2.92499997E-02   1.34354272E-11
  -2.92000007E-02   1.40590760E-11
  -2.91499998E-02   1.47563056E-11
  -2.91000009E-02   1.52887147E-11
  -2.90500000E-02   1.54466284E-11
  -2.89999992E-02   1.51451698E-11
  -2.89500002E-02   1.44683163E-11
  -2.88999993E-02   1.36377819E-11
  -2.88500004E-02   1.29170112E-11
  -2.87999995E-02   1.24909770E-11
  -2.87500005E-02   1.23759024E-11
  -2.86999997E-02   1.24020872E-11
  -2.86500007E-02   1.22816896E-11
  -2.85999998E-02   1.17347651E-11
  -2.85500009E-02   1.06186691E-11
  -2.85000000E-02   9.00144369E-12
  -2.84499992E-02   7.14252355E-12
  -2.84000002E-02   5.38476338E-12
  -2.83499993E-02   4.00279592E-12
  -2.83000004E-02   3.07505280E-12
  -2.82499995E-02   2.43934560E-12
  -2.82000005E-02   1.75654586E-12
  -2.81499997E-02   6.58532582E-13
  -2.81000007E-02  -1.08321316E-12
  -2.80499998E-02  -3.44456256E-12
  -2.80000009E-02  -6.14562611E-12
  -2.79500000E-02  -8.76420464E-12
  -2.78999992E-02  -1.09193488E-11
  -2.78500002E-02  -1.24442887E-11
  -2.77999993E-02  -1.34691182E-11
  -2.77500004E-02  -1.43712047E-11
  -2.76999995E-02  -1.56099578E-11
  -2.76500005E-02  -1.75161743E-11
  -2.75999997E-02  -2.01302620E-11
  -2.75500007E-02  -2.31654487E-11
  -2.74999999E-02  -2.61184963E-11
  -2.74500009E-02  -2.84840172E-11
  -2.74000000E-02  -2.99792864E-11
  -2.73499992E-02  -3.06775820E-11
  -2.73000002E-02  -3.09853462E-11
  -2.72499993E-02  -3.14669783E-11
  -2.72000004E-02  -3.25905587E-11
  -2.71499995E-02  -3.45070049E-11
  -2.71000005E-02  -3.69645564E-11
  -2.70499997E-02  -3.94030329E-11
  -2.70000007E-02  -4.11923620E-11
  -2.69499999E-02  -4.19126261E-11
  -2.69000009E-02  -4.15498712E-11
  -2.68500000E-02  -4.05152335E-11
  -2.67999992E-02  -3.94715510E-11
  -2.67500002E-02  -3.90386057E-11
  -2.66999993E-02  -3.95062108E-11
  -2.66500004E-02  -4.06857534E-11
  -2.65999995E-02  -4.19731715E-11
  -2.65500005E-02  -4.26029940E-11
  -2.64999997E-02  -4.19856684E-11
  -2.64500007E-02  -3.99784025E-11
  -2.63999999E-02  -3.69642615E-11
  -2.63500009E-02  -3.36964970E-11
  -2.63000000E-02  -3.09699211E-11
  -2.62499992E-02  -2.92617909E-11
  -2.62000002E-02  -2.85037081E-11
  -2.61499994E-02  -2.80925474E-11
  -2.61000004E-02  -2.71440769E-11
  -2.60499995E-02  -2.48831997E-11
  -2.60000005E-02  -2.09990688E-11
  -2.59499997E-02  -1.58032129E-11
  -2.59000007E-02  -1.01122036E-11
  -2.58499999E-02  -4.89827102E-12
  -2.58000009E-02  -8.57721500E-13
  -2.57500000E-02   1.91064178E-12
  -2.56999992E-02   3.96798349E-12
  -2.56500002E-02   6.30165581E-12
  -2.55999994E-02   9.89055452E-12
  -2.55500004E-02   1.52588758E-11
  -2.54999995E-02   2.22191016E-11
  -2.54500005E-02   2.99262871E-11
  -2.53999997E-02   3.72293377E-11
  -2.53500007E-02   4.31706233E-11
  -2.52999999E-02   4.74134898E-11
  -2.52500009E-02   5.04028867E-11
  -2.52000000E-02   5.31782118E-11
  -2.51499992E-02   5.69118606E-11
  -2.51000002E-02   6.23727320E-11
  -2.50499994E-02   6.95540778E-11
  -2.50000004E-02   7.76385484E-11
  -2.49499995E-02   8.53267804E-11
  -2.49000005E-02   9.13929904E-11
  -2.48499997E-02   9.52247656E-11
  -2.48000007E-02   9.71037140E-11
  -2.47499999E-02   9.80929088E-11
  -2.47000009E-02   9.95698801E-11
  -2.46500000E-02   1.02604161E-10
  -2.45999992E-02   1.07454538E-10
  -2.45500002E-02   1.13415249E-10
  -2.44999994E-02   1.19090404E-10
  -2.44500004E-02   1.22986066E-10
  -2.43999995E-02   1.24163319E-10
  -2.43500005E-02   1.22660909E-10
  -2.42999997E-02   1.19491347E-10
  -2.42500007E-02   1.16200077E-10
  -2.41999999E-02   1.14173199E-10
  -2.41500009E-02   1.13997353E-10
  -2.41000000E-02   1.15160721E-10
  -2.40499992E-02   1.16238928E-10
  -2.40000002E-02   1.15496356E-10
  -2.39499994E-02   1.11644985E-10
  -2.39000004E-02   1.04425329E-10
  -2.38499995E-02   9.47442055E-11
  -2.38000005E-02   8.42956538E-11
  -2.37499997E-02   7.48207260E-11
  -2.37000007E-02   6.73279210E-11
  -2.36499999E-02   6.16221310E-11
  -2.36000009E-02   5.63612559E-11
  -2.35500000E-02   4.96290543E-11
  -2.34999992E-02   3.97812928E-11
  -2.34500002E-02   2.61937434E-11
  -2.33999994E-02   9.57470561E-12
  -2.33500004E-02  -8.30890478E-12
  -2.32999995E-02  -2.53843856E-11
  -2.32500006E-02  -4.01801960E-11
  -2.31999997E-02  -5.24850684E-11
  -2.31500007E-02  -6.34578640E-11
  -2.30999999E-02  -7.51249618E-11
  -2.30500009E-02  -8.94743862E-11
  -2.30000000E-02  -1.07541559E-10
  -2.29499992E-02  -1.28895228E-10
  -2.29000002E-02  -1.51763407E-10
  -2.28499994E-02  -1.73758993E-10
  -2.28000004E-02  -1.92895547E-10
  -2.27499995E-02  -2.08446579E-10
  -2.27000006E-02  -2.21260815E-10
  -2.26499997E-02  -2.33379566E-10
  -2.26000007E-02  -2.47110915E-10
  -2.25499999E-02  -2.63961408E-10
  -2.25000009E-02  -2.83899487E-10
  -2.24500000E-02  -3.05287906E-10
  -2.23999992E-02  -3.25530963E-10
  -2.23500002E-02  -3.42164269E-10
  -2.22999994E-02  -3.53910706E-10
  -2.22500004E-02  -3.61230157E-10
  -2.21999995E-02  -3.66105340E-10
  -2.21500006E-02  -3.71142395E-10
  -2.20999997E-02  -3.78371778E-10
  -2.20500007E-02  -3.88277965E-10
  -2.19999999E-02  -3.99496547E-10
  -2.19500009E-02  -4.09329015E-10
  -2.19000001E-02  -4.14863477E-10
  -2.18499992E-02  -4.14215301E-10
  -2.18000002E-02  -4.07336581E-10
  -2.17499994E-02  -3.96024852E-10
  -2.17000004E-02  -3.83109933E-10
  -2.16499995E-02  -3.71165321E-10
  -2.16000006E-02  -3.61309371E-10
  -2.15499997E-02  -3.52633645E-10
  -2.15000007E-02  -3.42527229E-10
  -2.14499999E-02  -3.27771282E-10
  -2.14000009E-02  -3.05931697E-10
  -2.13500001E-02  -2.76434903E-10
  -2.12999992E-02  -2.40840681E-10
  -2.12500002E-02  -2.02174000E-10
  -2.11999994E-02  -1.63595304E-10
  -2.11500004E-02  -1.26989294E-10
  -2.10999995E-02  -9.21002996E-11
  -2.10500006E-02  -5.66107231E-11
  -2.09999997E-02  -1.71465255E-11
  -2.09500007E-02   2.92208133E-11
  -2.08999999E-02   8.36353833E-11
  -2.08500009E-02   1.44880843E-10
  -2.08000001E-02   2.09837800E-10
  -2.07499992E-02   2.74789302E-10
  -2.07000002E-02   3.37007311E-10
  -2.06499994E-02   3.95917327E-10
  -2.06000004E-02   4.53313664E-10
  -2.05499995E-02   5.12512033E-10
  -2.05000006E-02   5.76797943E-10
  -2.04499997E-02   6.47850329E-10
  -2.04000007E-02   7.24843296E-10
  -2.03499999E-02   8.04637690E-10
  -2.03000009E-02   8.82997342E-10
  -2.02500001E-02   9.56305368E-10
  -2.01999992E-02   1.02302433E-09
  -2.01500002E-02   1.08424636E-09
  -2.00999994E-02   1.14307297E-09
  -2.00500004E-02   1.20308230E-09
  -1.99999996E-02   1.26655197E-09
  -1.99500006E-02   1.33322509E-09
  -1.98999997E-02   1.40017820E-09
  -1.98500007E-02   1.46286605E-09
  -1.97999999E-02   1.51689517E-09
  -1.97500009E-02   1.55974800E-09
  -1.97000001E-02   1.59168856E-09
  -1.96499992E-02   1.61543312E-09
  -1.96000002E-02   1.63471647E-09
  -1.95499994E-02   1.65237601E-09
  -1.95000004E-02   1.66880110E-09
  -1.94499996E-02   1.68144387E-09
  -1.94000006E-02   1.68562408E-09
  -1.93499997E-02   1.67629055E-09
  -1.93000007E-02   1.64996572E-09
  -1.92499999E-02   1.60601499E-09
  -1.92000009E-02   1.54666480E-09
  -1.91500001E-02   1.47574875E-09
  -1.90999992E-02   1.39672374E-09
  -1.90500002E-02   1.31083155E-09
  -1.89999994E-02   1.21622379E-09
  -1.89500004E-02   1.10845499E-09
  -1.88999996E-02   9.82136594E-10
  -1.88500006E-02   8.33031866E-10
  -1.87999997E-02   6.59664934E-10
  -1.87500007E-02   4.63720895E-10
  -1.86999999E-02   2.49048282E-10
  -1.86500009E-02   1.96921455E-11
  -1.86000001E-02  -2.22177346E-10
  -1.85499992E-02  -4.77519635E-10
  -1.85000002E-02  -7.50294937E-10
  -1.84499994E-02  -1.04599451E-09
  -1.84000004E-02  -1.36946920E-09
  -1.83499996E-02  -1.72301307E-09
  -1.83000006E-02  -2.10555573E-09
  -1.82499997E-02  -2.51332977E-09
  -1.82000007E-02  -2.94173108E-09
  -1.81499999E-02  -3.38755402E-09
  -1.81000009E-02  -3.85061227E-09
  -1.80500001E-02  -4.33401848E-09
  -1.79999992E-02  -4.84299578E-09
  -1.79500002E-02  -5.38272760E-09
  -1.78999994E-02  -5.95620442E-09
  -1.78500004E-02  -6.56301546E-09
  -1.77999996E-02  -7.19963422E-09
  -1.77500006E-02  -7.86108068E-09
  -1.76999997E-02  -8.54322568E-09
  -1.76500008E-02  -9.24472854E-09
  -1.75999999E-02  -9.96774041E-09
  -1.75500009E-02  -1.07170601E-08
  -1.75000001E-02  -1.14980940E-08
  -1.74499992E-02  -1.23145369E-08
  -1.74000002E-02  -1.31667841E-08
  -1.73499994E-02  -1.40517962E-08
  -1.73000004E-02  -1.49644599E-08
  -1.72499996E-02  -1.58998805E-08
  -1.72000006E-02  -1.68555605E-08
  -1.71499997E-02  -1.78325195E-08
  -1.71000008E-02  -1.88348661E-08
  -1.70499999E-02  -1.98679739E-08
  -1.70000009E-02  -2.09361044E-08
  -1.69500001E-02  -2.20405063E-08
  -1.68999992E-02  -2.31788437E-08
  -1.68500002E-02  -2.43462122E-08
  -1.67999994E-02  -2.55372967E-08
  -1.67500004E-02  -2.67487170E-08
  -1.66999996E-02  -2.79805299E-08
  -1.66500006E-02  -2.92362294E-08
  -1.65999997E-02  -3.05212247E-08
  -1.65500008E-02  -3.18404894E-08
  -1.64999999E-02  -3.31964110E-08
  -1.64500009E-02  -3.45877815E-08
  -1.64000001E-02  -3.60104053E-08
  -1.63499992E-02  -3.74590172E-08
  -1.63000003E-02  -3.89296915E-08
  -1.62499994E-02  -4.04216749E-08
  -1.62000004E-02  -4.19378310E-08
  -1.61499996E-02  -4.34835030E-08
  -1.61000006E-02  -4.50643149E-08
  -1.60499997E-02  -4.66838515E-08
  -1.60000008E-02  -4.83423044E-08
  -1.59499999E-02  -5.00365935E-08
  -1.59000009E-02  -5.17620187E-08
  -1.58500001E-02  -5.35145901E-08
  -1.57999992E-02  -5.52931105E-08
  -1.57500003E-02  -5.71000349E-08
  -1.56999994E-02  -5.89407634E-08
  -1.56500004E-02  -6.08216624E-08
  -1.55999996E-02  -6.27477164E-08
  -1.55499997E-02  -6.47208367E-08
  -1.54999997E-02  -6.67395170E-08
  -1.54499998E-02  -6.88000910E-08
  -1.53999999E-02  -7.08989205E-08
  -1.53500000E-02  -7.30345562E-08
  -1.53000001E-02  -7.52090727E-08
  -1.52500002E-02  -7.74277495E-08
  -1.52000003E-02  -7.96974575E-08
  -1.51500003E-02  -8.20243784E-08
  -1.51000004E-02  -8.44120933E-08
  -1.50499996E-02  -8.68608225E-08
  -1.49999997E-02  -8.93682639E-08
  -1.49499997E-02  -9.19314616E-08
  -1.48999998E-02  -9.45491223E-08
  -1.48499999E-02  -9.72231291E-08
  -1.48000000E-02  -9.99586973E-08
  -1.47500001E-02  -1.02763188E-07
  -1.47000002E-02  -1.05643956E-07
  -1.46500003E-02  -1.08606294E-07
  -1.46000003E-02  -1.11652355E-07
  -1.45500004E-02  -1.14781450E-07
  -1.44999996E-02  -1.17991675E-07
  -1.44499997E-02  -1.21282014E-07
  -1.43999998E-02  -1.24654107E-07
  -1.43499998E-02  -1.28112944E-07
  -1.42999999E-02  -1.31665914E-07
  -1.42500000E-02  -1.35321059E-07
  -1.42000001E-02  -1.39085017E-07
  -1.41500002E-02  -1.42961667E-07
  -1.41000003E-02  -1.46951905E-07
  -1.40500003E-02  -1.51054977E-07
  -1.40000004E-02  -1.55270342E-07
  -1.39499996E-02  -1.59599580E-07
  -1.38999997E-02  -1.64047279E-07
  -1.38499998E-02  -1.68620744E-07
  -1.37999998E-02  -1.73328544E-07
  -1.37499999E-02  -1.78178425E-07
  -1.37000000E-02  -1.83175914E-07
  -1.36500001E-02  -1.88323654E-07
  -1.36000002E-02  -1.93622199E-07
  -1.35500003E-02  -1.99071735E-07
  -1.35000004E-02  -2.04673782E-07
  -1.34500004E-02  -2.10432532E-07
  -1.33999996E-02  -2.16354820E-07
  -1.33499997E-02  -2.22449174E-07
  -1.32999998E-02  -2.28723977E-07
  -1.32499998E-02  -2.35185993E-07
  -1.31999999E-02  -2.41839444E-07
  -1.31500000E-02  -2.48686234E-07
  -1.31000001E-02  -2.55727400E-07
  -1.30500002E-02  -2.62964818E-07
  -1.30000003E-02  -2.70402325E-07
  -1.29500004E-02  -2.78046372E-07
  -1.29000004E-02  -2.85905401E-07
  -1.28499996E-02  -2.93988393E-07
  -1.27999997E-02  -3.02303334E-07
  -1.27499998E-02  -3.10855995E-07
  -1.26999998E-02  -3.19650042E-07
  -1.26499999E-02  -3.28687776E-07
  -1.26000000E-02  -3.37971528E-07
  -1.25500001E-02  -3.47505164E-07
  -1.25000002E-02  -3.57294766E-07
  -1.24500003E-02  -3.67348406E-07
  -1.24000004E-02  -3.77675377E-07
  -1.23500004E-02  -3.88284519E-07
  -1.22999996E-02  -3.99183193E-07
  -1.22499997E-02  -4.10376799E-07
  -1.21999998E-02  -4.21869032E-07
  -1.21499998E-02  -4.33663189E-07
  -1.20999999E-02  -4.45763504E-07
  -1.20500000E-02  -4.58176032E-07
  -1.20000001E-02  -4.70908816E-07
  -1.19500002E-02  -4.83971462E-07
  -1.19000003E-02  -4.97373946E-07
  -1.18500004E-02  -5.11125563E-07
  -1.18000004E-02  -5.25233872E-07
  -1.17499996E-02  -5.39704956E-07
  -1.16999997E-02  -5.54543988E-07
  -1.16499998E-02  -5.69756423E-07
  -1.15999999E-02  -5.85348857E-07
  -1.15499999E-02  -6.01329816E-07
  -1.15000000E-02  -6.17709418E-07
  -1.14500001E-02  -6.34498633E-07
  -1.14000002E-02  -6.51708433E-07
  -1.13500003E-02  -6.69348708E-07
  -1.13000004E-02  -6.87427871E-07
  -1.12500004E-02  -7.05953312E-07
  -1.11999996E-02  -7.24932022E-07
  -1.11499997E-02  -7.44371789E-07
  -1.10999998E-02  -7.64281936E-07
  -1.10499999E-02  -7.84673489E-07
  -1.09999999E-02  -8.05559068E-07
  -1.09500000E-02  -8.26951918E-07
  -1.09000001E-02  -8.48865056E-07
  -1.08500002E-02  -8.71310419E-07
  -1.08000003E-02  -8.94298807E-07
  -1.07500004E-02  -9.17839941E-07
  -1.07000005E-02  -9.41943654E-07
  -1.06499996E-02  -9.66620632E-07
  -1.05999997E-02  -9.91882757E-07
  -1.05499998E-02  -1.01774378E-06
  -1.04999999E-02  -1.04421906E-06
  -1.04499999E-02  -1.07132360E-06
  -1.04000000E-02  -1.09907262E-06
  -1.03500001E-02  -1.12747978E-06
  -1.03000002E-02  -1.15655757E-06
  -1.02500003E-02  -1.18631817E-06
  -1.02000004E-02  -1.21677385E-06
  -1.01500005E-02  -1.24793848E-06
  -1.00999996E-02  -1.27982776E-06
  -1.00499997E-02  -1.31245895E-06
  -9.99999978E-03  -1.34585105E-06
  -9.94999986E-03  -1.38002270E-06
  -9.89999995E-03  -1.41499174E-06
  -9.85000003E-03  -1.45077479E-06
  -9.80000012E-03  -1.48738764E-06
  -9.75000020E-03  -1.52484483E-06
  -9.70000029E-03  -1.56316253E-06
  -9.65000037E-03  -1.60235788E-06
  -9.60000046E-03  -1.64245034E-06
  -9.54999961E-03  -1.68346139E-06
  -9.49999969E-03  -1.72541297E-06
  -9.44999978E-03  -1.76832668E-06
  -9.39999986E-03  -1.81222242E-06
  -9.34999995E-03  -1.85711860E-06
  -9.30000003E-03  -1.90303240E-06
  -9.25000012E-03  -1.94998097E-06
  -9.20000020E-03  -1.99798319E-06
  -9.15000029E-03  -2.04706066E-06
  -9.10000037E-03  -2.09723748E-06
  -9.05000046E-03  -2.14853935E-06
  -8.99999961E-03  -2.20099196E-06
  -8.94999970E-03  -2.25462009E-06
  -8.89999978E-03  -2.30944647E-06
  -8.84999987E-03  -2.36549158E-06
  -8.79999995E-03  -2.42277588E-06
  -8.75000004E-03  -2.48132164E-06
  -8.70000012E-03  -2.54115253E-06
  -8.65000021E-03  -2.60229604E-06
  -8.60000029E-03  -2.66478150E-06
  -8.55000038E-03  -2.72863826E-06
  -8.50000046E-03  -2.79389542E-06
  -8.44999962E-03  -2.86057889E-06
  -8.39999970E-03  -2.92871277E-06
  -8.34999979E-03  -2.99832004E-06
  -8.29999987E-03  -3.06942388E-06
  -8.24999996E-03  -3.14205022E-06
  -8.20000004E-03  -3.21622815E-06
  -8.15000013E-03  -3.29199020E-06
  -8.10000021E-03  -3.36936955E-06
  -8.05000030E-03  -3.44839918E-06
  -8.00000038E-03  -3.52911002E-06
  -7.95000046E-03  -3.61153047E-06
  -7.89999962E-03  -3.69568579E-06
  -7.84999970E-03  -3.78160325E-06
  -7.79999979E-03  -3.86931151E-06
  -7.74999987E-03  -3.95884399E-06
  -7.69999996E-03  -4.05023593E-06
  -7.65000004E-03  -4.14352644E-06
  -7.60000013E-03  -4.23875372E-06
  -7.55000021E-03  -4.33595415E-06
  -7.49999983E-03  -4.43516001E-06
  -7.44999992E-03  -4.53640178E-06
  -7.40000000E-03  -4.63970810E-06
  -7.35000009E-03  -4.74510989E-06
  -7.30000017E-03  -4.85264263E-06
  -7.24999979E-03  -4.96234725E-06
  -7.19999988E-03  -5.07426466E-06
  -7.14999996E-03  -5.18844035E-06
  -7.10000005E-03  -5.30491297E-06
  -7.05000013E-03  -5.42372027E-06
  -7.00000022E-03  -5.54489634E-06
  -6.94999984E-03  -5.66847257E-06
  -6.89999992E-03  -5.79448306E-06
  -6.85000001E-03  -5.92296601E-06
  -6.80000009E-03  -6.05396554E-06
  -6.75000018E-03  -6.18752892E-06
  -6.69999979E-03  -6.32370484E-06
  -6.64999988E-03  -6.46254057E-06
  -6.59999996E-03  -6.60407795E-06
  -6.55000005E-03  -6.74835610E-06
  -6.50000013E-03  -6.89541048E-06
  -6.45000022E-03  -7.04528020E-06
  -6.39999984E-03  -7.19800573E-06
  -6.34999992E-03  -7.35363483E-06
  -6.30000001E-03  -7.51222069E-06
  -6.25000009E-03  -7.67381789E-06
  -6.20000018E-03  -7.83847827E-06
  -6.14999980E-03  -8.00624912E-06
  -6.09999988E-03  -8.17717228E-06
  -6.04999997E-03  -8.35128776E-06
  -6.00000005E-03  -8.52863559E-06
  -5.95000014E-03  -8.70926124E-06
  -5.90000022E-03  -8.89321473E-06
  -5.84999984E-03  -9.08055154E-06
  -5.79999993E-03  -9.27133078E-06
  -5.75000001E-03  -9.46560885E-06
  -5.70000010E-03  -9.66343850E-06
  -5.65000018E-03  -9.86486793E-06
  -5.59999980E-03  -1.00699390E-05
  -5.54999989E-03  -1.02786953E-05
  -5.49999997E-03  -1.04911824E-05
  -5.45000006E-03  -1.07074557E-05
  -5.40000014E-03  -1.09275752E-05
  -5.35000023E-03  -1.11516019E-05
  -5.29999984E-03  -1.13796004E-05
  -5.24999993E-03  -1.16116271E-05
  -5.20000001E-03  -1.18477319E-05
  -5.15000010E-03  -1.20879622E-05
  -5.10000018E-03  -1.23323643E-05
  -5.04999980E-03  -1.25809865E-05
  -4.99999989E-03  -1.28338834E-05
  -4.94999997E-03  -1.30911167E-05
  -4.90000006E-03  -1.33527528E-05
  -4.85000014E-03  -1.36188564E-05
  -4.80000023E-03  -1.38894884E-05
  -4.74999985E-03  -1.41647024E-05
  -4.69999993E-03  -1.44445448E-05
  -4.65000002E-03  -1.47290630E-05
  -4.60000010E-03  -1.50183059E-05
  -4.55000019E-03  -1.53123292E-05
  -4.49999981E-03  -1.56111983E-05
  -4.44999989E-03  -1.59149768E-05
  -4.39999998E-03  -1.62237375E-05
  -4.35000006E-03  -1.65375423E-05
  -4.30000015E-03  -1.68564475E-05
  -4.25000023E-03  -1.71805041E-05
  -4.19999985E-03  -1.75097557E-05
  -4.14999994E-03  -1.78442533E-05
  -4.10000002E-03  -1.81840533E-05
  -4.05000011E-03  -1.85292156E-05
  -4.00000019E-03  -1.88798113E-05
  -3.94999981E-03  -1.92359148E-05
  -3.89999989E-03  -1.95975899E-05
  -3.84999998E-03  -1.99648948E-05
  -3.80000006E-03  -2.03378768E-05
  -3.74999992E-03  -2.07165795E-05
  -3.70000000E-03  -2.11010483E-05
  -3.65000009E-03  -2.14913362E-05
  -3.59999994E-03  -2.18875048E-05
  -3.55000002E-03  -2.22896215E-05
  -3.50000011E-03  -2.26977591E-05
  -3.44999996E-03  -2.31119848E-05
  -3.40000005E-03  -2.35323532E-05
  -3.34999990E-03  -2.39589153E-05
  -3.29999998E-03  -2.43917111E-05
  -3.25000007E-03  -2.48307861E-05
  -3.19999992E-03  -2.52761856E-05
  -3.15000000E-03  -2.57279698E-05
  -3.10000009E-03  -2.61862042E-05
  -3.04999994E-03  -2.66509633E-05
  -3.00000003E-03  -2.71223125E-05
  -2.95000011E-03  -2.76003102E-05
  -2.89999996E-03  -2.80850036E-05
  -2.85000005E-03  -2.85764272E-05
  -2.79999990E-03  -2.90746175E-05
  -2.74999999E-03  -2.95796144E-05
  -2.70000007E-03  -3.00914726E-05
  -2.64999992E-03  -3.06102520E-05
  -2.60000001E-03  -3.11360272E-05
  -2.55000009E-03  -3.16688529E-05
  -2.49999994E-03  -3.22087944E-05
  -2.45000003E-03  -3.27558882E-05
  -2.40000011E-03  -3.33101743E-05
  -2.34999997E-03  -3.38716745E-05
  -2.30000005E-03  -3.44404216E-05
  -2.24999990E-03  -3.50164555E-05
  -2.19999999E-03  -3.55998382E-05
  -2.15000007E-03  -3.61906314E-05
  -2.09999993E-03  -3.67888970E-05
  -2.05000001E-03  -3.73946932E-05
  -2.00000009E-03  -3.80080564E-05
  -1.94999995E-03  -3.86290121E-05
  -1.90000003E-03  -3.92575748E-05
  -1.85000000E-03  -3.98937700E-05
  -1.79999997E-03  -4.05376159E-05
  -1.75000005E-03  -4.11891633E-05
  -1.70000002E-03  -4.18484778E-05
  -1.64999999E-03  -4.25156031E-05
  -1.59999996E-03  -4.31906010E-05
  -1.55000004E-03  -4.38735005E-05
  -1.50000001E-03  -4.45643091E-05
  -1.44999998E-03  -4.52630338E-05
  -1.39999995E-03  -4.59696785E-05
  -1.35000004E-03  -4.66842539E-05
  -1.30000000E-03  -4.74067929E-05
  -1.24999997E-03  -4.81373536E-05
  -1.20000006E-03  -4.88759688E-05
  -1.15000003E-03  -4.96226894E-05
  -1.09999999E-03  -5.03775409E-05
  -1.04999996E-03  -5.11405087E-05
  -1.00000005E-03  -5.19115893E-05
  -9.50000016E-04  -5.26907497E-05
  -8.99999985E-04  -5.34779901E-05
  -8.50000011E-04  -5.42733324E-05
  -7.99999980E-04  -5.50768018E-05
  -7.50000007E-04  -5.58884458E-05
  -6.99999975E-04  -5.67082861E-05
  -6.50000002E-04  -5.75363410E-05
  -6.00000028E-04  -5.83725887E-05
  -5.49999997E-04  -5.92169890E-05
  -5.00000024E-04  -6.00694912E-05
  -4.49999992E-04  -6.09300769E-05
  -3.99999990E-04  -6.17987316E-05
  -3.49999988E-04  -6.26754700E-05
  -3.00000014E-04  -6.35603137E-05
  -2.50000012E-04  -6.44532774E-05
  -1.99999995E-04  -6.53543466E-05
  -1.50000007E-04  -6.62634920E-05
  -9.99999975E-05  -6.71806556E-05
  -4.99999987E-05  -6.81057645E-05
   0.00000000      -6.90387460E-05
   4.99999987E-05  -6.99795492E-05
   9.99999975E-05  -7.09281667E-05
   1.50000007E-04  -7.18845986E-05
   1.99999995E-04  -7.28488449E-05
   2.50000012E-04  -7.38208764E-05
   3.00000014E-04  -7.48006350E-05
   3.49999988E-04  -7.57880334E-05
   3.99999990E-04  -7.67829624E-05
   4.49999992E-04  -7.77853274E-05
   5.00000024E-04  -7.87950703E-05
   5.49999997E-04  -7.98121182E-05
   6.00000028E-04  -8.08364348E-05
   6.50000002E-04  -8.18679982E-05
   6.99999975E-04  -8.29067576E-05
   7.50000007E-04  -8.39526256E-05
   7.99999980E-04  -8.50054930E-05
   8.50000011E-04  -8.60652144E-05
   8.99999985E-04  -8.71316515E-05
   9.50000016E-04  -8.82046734E-05
   1.00000005E-03  -8.92841927E-05
   1.04999996E-03  -9.03701439E-05
   1.09999999E-03  -9.14624543E-05
   1.15000003E-03  -9.25610657E-05
   1.20000006E-03  -9.36658544E-05
   1.24999997E-03  -9.47766821E-05
   1.30000000E-03  -9.58933597E-05
   1.35000004E-03  -9.70157053E-05
   1.39999995E-03  -9.81435442E-05
   1.44999998E-03  -9.92767382E-05
   1.50000001E-03  -1.00415178E-04
   1.55000004E-03  -1.01558770E-04
   1.59999996E-03  -1.02707396E-04
   1.64999999E-03  -1.03860926E-04
   1.70000002E-03  -1.05019164E-04
   1.75000005E-03  -1.06181891E-04
   1.79999997E-03  -1.07348860E-04
   1.85000000E-03  -1.08519853E-04
   1.90000003E-03  -1.09694694E-04
   1.94999995E-03  -1.10873203E-04
   2.00000009E-03  -1.12055248E-04
   2.05000001E-03  -1.13240705E-04
   2.09999993E-03  -1.14429364E-04
   2.15000007E-03  -1.15621027E-04
   2.19999999E-03  -1.16815412E-04
   2.24999990E-03  -1.18012227E-04
   2.30000005E-03  -1.19211174E-04
   2.34999997E-03  -1.20412005E-04
   2.40000011E-03  -1.21614539E-04
   2.45000003E-03  -1.22818572E-04
   2.49999994E-03  -1.24023907E-04
   2.55000009E-03  -1.25230348E-04
   2.60000001E-03  -1.26437619E-04
   2.64999992E-03  -1.27645384E-04
   2.70000007E-03  -1.28853295E-04
   2.74999999E-03  -1.30061046E-04
   2.79999990E-03  -1.31268302E-04