  -3.99999991E-02   0.00000000    
  -3.99499983E-02   0.00000000    
  -3.99000011E-02   0.00000000    
  -3.98500003E-02   0.00000000    
  -3.97999994E-02   0.00000000    
  -3.97499986E-02   1.35877290E-22
  -3.97000015E-02   1.65641393E-21
  -3.96500006E-02   1.05462224E-20
  -3.95999998E-02   4.64378259E-20
  -3.95499989E-02   1.58254876E-19
  -3.95000018E-02   4.43269236E-19
  -3.94500010E-02   1.05888321E-18
  -3.94000001E-02   2.21126802E-18
  -3.93499993E-02   4.10912516E-18
  -3.92999984E-02   6.88868983E-18
  -3.92500013E-02   1.05431448E-17
  -3.92000005E-02   1.49102002E-17
  -3.91499996E-02   1.97649927E-17
  -3.90999988E-02   2.50202068E-17
  -3.90500017E-02   3.09634747E-17
  -3.90000008E-02   3.84016085E-17
  -3.89500000E-02   4.85794306E-17
  -3.88999991E-02   6.28239572E-17
  -3.88499983E-02   8.20111990E-17
  -3.88000011E-02   1.06093616E-16
  -3.87500003E-02   1.33972488E-16
  -3.86999995E-02   1.63894377E-16
  -3.86499986E-02   1.94307426E-16
  -3.86000015E-02   2.24830999E-16
  -3.85500006E-02   2.56818457E-16
  -3.84999998E-02   2.93060535E-16
  -3.84499989E-02   3.36519017E-16
  -3.84000018E-02   3.88484488E-16
  -3.83500010E-02   4.46979233E-16
  -3.83000001E-02   5.06310927E-16
  -3.82499993E-02   5.58293868E-16
  -3.81999984E-02   5.94897656E-16
  -3.81500013E-02   6.11295049E-16
  -3.81000005E-02   6.07877377E-16
  -3.80499996E-02   5.90066921E-16
  -3.79999988E-02   5.65645161E-16
  -3.79500017E-02   5.40480500E-16
  -3.79000008E-02   5.14431061E-16
  -3.78500000E-02   4.79354103E-16
  -3.77999991E-02   4.20384755E-16
  -3.77499983E-02   3.20223400E-16
  -3.77000012E-02   1.64707277E-16
  -3.76500003E-02  -5.28326643E-17
  -3.75999995E-02  -3.30541346E-16
  -3.75499986E-02  -6.60989943E-16
  -3.75000015E-02  -1.03688575E-15
  -3.74500006E-02  -1.45693669E-15
  -3.73999998E-02  -1.92908450E-15
  -3.73499990E-02  -2.46943371E-15
  -3.73000018E-02  -3.09708534E-15
  -3.72500010E-02  -3.82685377E-15
  -3.72000001E-02  -4.66270335E-15
  -3.71499993E-02  -5.59438919E-15
  -3.70999984E-02  -6.59843282E-15
  -3.70500013E-02  -7.64293329E-15
  -3.70000005E-02  -8.69449166E-15
  -3.69499996E-02  -9.72521387E-15
  -3.68999988E-02  -1.07181804E-14
  -3.68500017E-02  -1.16704784E-14
  -3.68000008E-02  -1.25932268E-14
  -3.67500000E-02  -1.35079631E-14
  -3.66999991E-02  -1.44388692E-14
  -3.66499983E-02  -1.54011766E-14
  -3.66000012E-02  -1.63880851E-14
  -3.65500003E-02  -1.73608008E-14
  -3.64999995E-02  -1.82471903E-14
  -3.64499986E-02  -1.89528298E-14
  -3.64000015E-02  -1.93833580E-14
  -3.63500006E-02  -1.94708785E-14
  -3.62999998E-02  -1.91926061E-14
  -3.62499990E-02  -1.85702639E-14
  -3.62000018E-02  -1.76455089E-14
  -3.61500010E-02  -1.64382447E-14
  -3.61000001E-02  -1.49061400E-14
  -3.60499993E-02  -1.29285324E-14
  -3.59999985E-02  -1.03314108E-14
  -3.59500013E-02  -6.95248751E-15
  -3.59000005E-02  -2.72317599E-15
  -3.58499996E-02   2.27141117E-15
  -3.57999988E-02   7.79221776E-15
  -3.57500017E-02   1.35221576E-14
  -3.57000008E-02   1.91990233E-14
  -3.56500000E-02   2.47522373E-14
  -3.55999991E-02   3.03756925E-14
  -3.55499983E-02   3.64858256E-14
  -3.55000012E-02   4.35606310E-14
  -3.54500003E-02   5.19141445E-14
  -3.53999995E-02   6.15044040E-14
  -3.53499986E-02   7.18755703E-14
  -3.53000015E-02   8.22871163E-14
  -3.52500007E-02   9.19994400E-14
  -3.51999998E-02   1.00601100E-13
  -3.51499990E-02   1.08221957E-13
  -3.51000018E-02   1.15505871E-13
  -3.50500010E-02   1.23314797E-13
  -3.50000001E-02   1.32265685E-13
  -3.49499993E-02   1.42302321E-13
  -3.48999985E-02   1.52521144E-13
  -3.48500013E-02   1.61381393E-13
  -3.48000005E-02   1.67261441E-13
  -3.47499996E-02   1.69145893E-13
  -3.46999988E-02   1.67129914E-13
  -3.46500017E-02   1.62467384E-13
  -3.46000008E-02   1.57071987E-13
  -3.45500000E-02   1.52633833E-13
  -3.44999991E-02   1.49726057E-13
  -3.44499983E-02   1.47333995E-13
  -3.44000012E-02   1.43093477E-13
  -3.43500003E-02   1.34218930E-13
  -3.42999995E-02   1.18762124E-13
  -3.42499986E-02   9.66329542E-14
  -3.42000015E-02   6.98533232E-14
  -3.41500007E-02   4.18194227E-14
  -3.40999998E-02   1.58020434E-14
  -3.40499990E-02  -6.68254997E-15
  -3.40000018E-02  -2.68522201E-14
  -3.39500010E-02  -4.84248329E-14
  -3.39000002E-02  -7.61237793E-14
  -3.38499993E-02  -1.13482926E-13
  -3.37999985E-02  -1.60921827E-13
  -3.37500013E-02  -2.15052477E-13
  -3.37000005E-02  -2.69703097E-13
  -3.36499996E-02  -3.18375724E-13
  -3.35999988E-02  -3.57130476E-13
  -3.35500017E-02  -3.86566349E-13
  -3.35000008E-02  -4.11847748E-13
  -3.34500000E-02  -4.40545251E-13
  -3.33999991E-02  -4.79083299E-13
  -3.33499983E-02  -5.29344472E-13
  -3.33000012E-02  -5.87078075E-13
  -3.32500003E-02  -6.43074407E-13
  -3.31999995E-02  -6.86845654E-13
  -3.31499986E-02  -7.11320217E-13
  -3.31000015E-02  -7.16415317E-13
  -3.30500007E-02  -7.09657430E-13
  -3.29999998E-02  -7.03241230E-13
  -3.29499990E-02  -7.08553333E-13
  -3.29000019E-02  -7.30503982E-13
  -3.28500010E-02  -7.64341661E-13
  -3.28000002E-02  -7.96713715E-13
  -3.27499993E-02  -8.10893887E-13
  -3.26999985E-02  -7.94107943E-13
  -3.26500013E-02  -7.43692326E-13
  -3.26000005E-02  -6.69061920E-13
  -3.25499997E-02  -5.88168674E-13
  -3.24999988E-02  -5.19624112E-13
  -3.24500017E-02  -4.73829960E-13
  -3.24000008E-02  -4.47237950E-13
  -3.23500000E-02  -4.22754361E-13
  -3.22999991E-02  -3.76660563E-13
  -3.22499983E-02  -2.89361200E-13
  -3.22000012E-02  -1.55210155E-13
  -3.21500003E-02   1.33277305E-14
  -3.20999995E-02   1.89664216E-13
  -3.20499986E-02   3.44072454E-13
  -3.20000015E-02   4.57106792E-13
  -3.19500007E-02   5.29344201E-13
  -3.18999998E-02   5.82543237E-13
  -3.18499990E-02   6.50943167E-13
  -3.18000019E-02   7.65967313E-13
  -3.17500010E-02   9.40969633E-13
  -3.17000002E-02   1.16319519E-12
  -3.16499993E-02   1.39731206E-12
  -3.15999985E-02   1.59978335E-12
  -3.15500014E-02   1.73819032E-12
  -3.15000005E-02   1.80682270E-12
  -3.14499997E-02   1.83092170E-12
  -3.13999988E-02   1.85669579E-12
  -3.13500017E-02   1.93069757E-12
  -3.13000008E-02   2.07741832E-12
  -3.12500000E-02   2.28548300E-12
  -3.11999992E-02   2.50958282E-12
  -3.11500002E-02   2.68844474E-12
  -3.10999993E-02   2.77164598E-12
  -3.10500003E-02   2.74340251E-12
  -3.09999995E-02   2.63199380E-12
  -3.09500005E-02   2.49938655E-12
  -3.08999997E-02   2.41446533E-12
  -3.08500007E-02   2.42118803E-12
  -3.07999998E-02   2.51615092E-12
  -3.07500008E-02   2.64667238E-12
  -3.07000000E-02   2.73169313E-12
  -3.06499992E-02   2.69731047E-12
  -3.06000002E-02   2.51137219E-12
  -3.05499993E-02   2.20094472E-12
  -3.05000003E-02   1.84336877E-12
  -3.04499995E-02   1.53331080E-12
  -3.04000005E-02   1.33957840E-12
  -3.03499997E-02   1.27114389E-12
  -3.03000007E-02   1.26882153E-12
  -3.02499998E-02   1.22817316E-12
  -3.02000009E-02   1.04504903E-12
  -3.01500000E-02   6.64086353E-13
  -3.00999992E-02   1.07848843E-13
  -3.00500002E-02  -5.28132930E-13
  -2.99999993E-02  -1.11426699E-12
  -2.99500003E-02  -1.54383461E-12
  -2.98999995E-02  -1.78269964E-12
  -2.98500005E-02  -1.88835145E-12
  -2.97999997E-02  -1.98763445E-12
  -2.97500007E-02  -2.22102696E-12
  -2.96999998E-02  -2.67729372E-12
  -2.96500009E-02  -3.34820019E-12
  -2.96000000E-02  -4.12543263E-12
  -2.95499992E-02  -4.84361336E-12
  -2.95000002E-02  -5.35220609E-12
  -2.94499993E-02  -5.58473970E-12
  -2.94000003E-02  -5.59321773E-12
  -2.93499995E-02  -5.52983874E-12
  -2.93000005E-02  -5.58148579E-12
  -2.92499997E-02  -5.88455239E-12
  -2.92000007E-02  -6.45826751E-12
  -2.91499998E-02  -7.18825043E-12
  -2.91000009E-02  -7.87058786E-12
  -2.90500000E-02  -8.29939676E-12
  -2.89999992E-02  -8.35988744E-12
  -2.89500002E-02  -8.08442289E-12
  -2.88999993E-02  -7.64386904E-12
  -2.88500004E-02  -7.27489076E-12
  -2.87999995E-02  -7.17336347E-12
  -2.87500005E-02  -7.40120552E-12
  -2.86999997E-02  -7.85017190E-12
  -2.86500007E-02  -8.28214927E-12
  -2.85999998E-02  -8.43129993E-12
  -2.85500009E-02  -8.12422612E-12
  -2.85000000E-02  -7.36385779E-12
  -2.84499992E-02  -6.33676965E-12
  -2.84000002E-02  -5.33676358E-12
  -2.83499993E-02  -4.63567683E-12
  -2.83000004E-02  -4.35804648E-12
  -2.82499995E-02  -4.41723394E-12
  -2.82000005E-02  -4.54517153E-12
  -2.81499997E-02  -4.40654414E-12
  -2.81000007E-02  -3.74909001E-12
  -2.80499998E-02  -2.52298074E-12
  -2.80000009E-02  -9.13273688E-13
  -2.79500000E-02   7.33319059E-13
  -2.78999992E-02   2.05861543E-12
  -2.78500002E-02   2.85487974E-12
  -2.77999993E-02   3.16500211E-12
  -2.77500004E-02   3.27240188E-12
  -2.76999995E-02   3.58042133E-12
  -2.76500005E-02   4.43140663E-12
  -2.75999997E-02   5.94545160E-12
  -2.75500007E-02   7.95324483E-12
  -2.74999999E-02   1.00577281E-11
  -2.74500009E-02   1.18020272E-11
  -2.74000000E-02   1.28716820E-11
  -2.73499992E-02   1.32405892E-11
  -2.73000002E-02   1.31918799E-11
  -2.72499993E-02   1.31991631E-11
  -2.72000004E-02   1.37164507E-11
  -2.71499995E-02   1.49686218E-11
  -2.71000005E-02   1.68377569E-11
  -2.70499997E-02   1.89007594E-11
  -2.70000007E-02   2.06071878E-11
  -2.69499999E-02   2.15218884E-11
  -2.69000009E-02   2.15247264E-11
  -2.68500000E-02   2.08749476E-11
  -2.67999992E-02   2.01056758E-11
  -2.67500002E-02   1.97899214E-11
  -2.66999993E-02   2.02794153E-11
  -2.66500004E-02   2.15337609E-11
  -2.65999995E-02   2.31209149E-11
  -2.65500005E-02   2.43952410E-11
  -2.64999997E-02   2.47791388E-11
  -2.64500007E-02   2.40244838E-11
  -2.63999999E-02   2.23347417E-11
  -2.63500009E-02   2.02873725E-11
  -2.63000000E-02   1.85844430E-11
  -2.62499992E-02   1.77381356E-11
  -2.62000002E-02   1.78311740E-11
  -2.61499994E-02   1.84632136E-11
  -2.61000004E-02   1.89140110E-11
  -2.60499995E-02   1.84571906E-11
  -2.60000005E-02   1.66879913E-11
  -2.59499997E-02   1.37172756E-11
  -2.59000007E-02   1.01395272E-11
  -2.58499999E-02   6.78148640E-12
  -2.58000009E-02   4.33749217E-12
  -2.57500000E-02   3.05238473E-12
  -2.56999992E-02   2.59676287E-12
  -2.56500002E-02   2.19743017E-12
  -2.55999994E-02   9.72759200E-13
  -2.55500004E-02  -1.67143209E-12
  -2.54999995E-02  -5.76192479E-12
  -2.54500005E-02  -1.07240241E-11
  -2.53999997E-02  -1.56166521E-11
  -2.53500007E-02  -1.95393111E-11
  -2.52999999E-02  -2.20330698E-11
  -2.52500009E-02  -2.32947828E-11
  -2.52000000E-02  -2.41021925E-11
  -2.51499992E-02  -2.54746016E-11
  -2.51000002E-02  -2.82137595E-11
  -2.50499994E-02  -3.25279942E-11
  -2.50000004E-02  -3.79114830E-11
  -2.49499995E-02  -4.33410356E-11
  -2.49000005E-02  -4.77116159E-11
  -2.48499997E-02  -5.03221839E-11
  -2.48000007E-02  -5.11948088E-11
  -2.47499999E-02  -5.10785858E-11
  -2.47000009E-02  -5.11270123E-11
  -2.46500000E-02  -5.23840693E-11
  -2.45999992E-02  -5.53041918E-11
  -2.45500002E-02  -5.95228034E-11
  -2.44999994E-02  -6.39878428E-11
  -2.44500004E-02  -6.74038048E-11
  -2.43999995E-02  -6.87979812E-11
  -2.43500005E-02  -6.79581322E-11
  -2.42999997E-02  -6.55415167E-11
  -2.42500007E-02  -6.27967608E-11
  -2.41999999E-02  -6.10126255E-11
  -2.41500009E-02  -6.09331335E-11
  -2.41000000E-02  -6.24009872E-11
  -2.40499992E-02  -6.43957318E-11
  -2.40000002E-02  -6.54608590E-11
  -2.39499994E-02  -6.43394574E-11
  -2.39000004E-02  -6.05391778E-11
  -2.38499995E-02  -5.45713405E-11
  -2.38000005E-02  -4.77480659E-11
  -2.37499997E-02  -4.16161862E-11
  -2.37000007E-02  -3.72716372E-11
  -2.36499999E-02  -3.48583384E-11
  -2.36000009E-02  -3.34809194E-11
  -2.35500000E-02  -3.15815187E-11
  -2.34999992E-02  -2.76241443E-11
  -2.34500002E-02  -2.07882218E-11
  -2.33999994E-02  -1.13609287E-11
  -2.33500004E-02  -6.44702174E-13
  -2.32999995E-02   9.59131993E-12
  -2.32500006E-02   1.78820327E-11
  -2.31999997E-02   2.37198421E-11
  -2.31500007E-02   2.77951603E-11
  -2.30999999E-02   3.17054855E-11
  -2.30500009E-02   3.72496547E-11
  -2.30000000E-02   4.56125276E-11
  -2.29499992E-02   5.68022573E-11
  -2.29000002E-02   6.95984936E-11
  -2.28499994E-02   8.20475909E-11
  -2.28000004E-02   9.22970103E-11
  -2.27499995E-02   9.94042904E-11
  -2.27000006E-02   1.03758120E-10
  -2.26499997E-02   1.06913749E-10
  -2.26000007E-02   1.10902509E-10
  -2.25499999E-02   1.17311383E-10
  -2.25000009E-02   1.26539307E-10
  -2.24500000E-02   1.37567138E-10
  -2.23999992E-02   1.48356716E-10
  -2.23500002E-02   1.56715640E-10
  -2.22999994E-02   1.61252039E-10
  -2.22500004E-02   1.61994654E-10
  -2.21999995E-02   1.60392755E-10
  -2.21500006E-02   1.58681485E-10
  -2.20999997E-02   1.58881658E-10
  -2.20500007E-02   1.61872418E-10
  -2.19999999E-02   1.66953201E-10
  -2.19500009E-02   1.72102041E-10
  -2.19000001E-02   1.74830525E-10
  -2.18499992E-02   1.73267053E-10
  -2.18000002E-02   1.66989658E-10
  -2.17499994E-02   1.57230604E-10
  -2.17000004E-02   1.46348197E-10
  -2.16499995E-02   1.36785638E-10
  -2.16000006E-02   1.29971756E-10
  -2.15499997E-02   1.25653474E-10
  -2.15000007E-02   1.21968047E-10
  -2.14499999E-02   1.16238782E-10
  -2.14000009E-02   1.06154051E-10
  -2.13500001E-02   9.08110739E-11
  -2.12999992E-02   7.11552484E-11
  -2.12500002E-02   4.96061872E-11
  -2.11999994E-02   2.90205932E-11
  -2.11500004E-02   1.14416662E-11
  -2.10999995E-02  -2.81067856E-12
  -2.10500006E-02  -1.52956658E-11
  -2.09999997E-02  -2.87688588E-11
  -2.09500007E-02  -4.59489669E-11
  -2.08999999E-02  -6.82742335E-11
  -2.08500009E-02  -9.52034007E-11
  -2.08000001E-02  -1.24384059E-10
  -2.07499992E-02  -1.52629354E-10
  -2.07000002E-02  -1.77282508E-10
  -2.06499994E-02  -1.97366443E-10
  -2.06000004E-02  -2.14001358E-10
  -2.05499995E-02  -2.29889913E-10
  -2.05000006E-02  -2.48082693E-10
  -2.04499997E-02  -2.70562545E-10
  -2.04000007E-02  -2.97276592E-10
  -2.03499999E-02  -3.26057015E-10
  -2.03000009E-02  -3.53482271E-10
  -2.02500001E-02  -3.76311621E-10
  -2.01999992E-02  -3.92863297E-10
  -2.01500002E-02  -4.03720918E-10
  -2.00999994E-02  -4.11441547E-10
  -2.00500004E-02  -4.19379420E-10
  -1.99999996E-02  -4.30135372E-10
  -1.99500006E-02  -4.44318554E-10
  -1.98999997E-02  -4.60177257E-10
  -1.98500007E-02  -4.74278727E-10
  -1.97999999E-02  -4.82950679E-10
  -1.97500009E-02  -4.83853901E-10
  -1.97000001E-02  -4.76986783E-10
  -1.96499992E-02  -4.64664002E-10
  -1.96000002E-02  -4.50464277E-10
  -1.95499994E-02  -4.37600817E-10
  -1.95000004E-02  -4.27433228E-10
  -1.94499996E-02  -4.18787560E-10
  -1.94000006E-02  -4.08399786E-10
  -1.93499997E-02  -3.92302524E-10
  -1.93000007E-02  -3.67550518E-10
  -1.92499999E-02  -3.33521460E-10
  -1.92000009E-02  -2.92206537E-10
  -1.91500001E-02  -2.47348420E-10
  -1.90999992E-02  -2.02795683E-10
  -1.90500002E-02  -1.60797584E-10
  -1.89999994E-02  -1.20998114E-10
  -1.89500004E-02  -8.05878558E-11
  -1.88999996E-02  -3.55596386E-11
  -1.88500006E-02   1.74768932E-11
  -1.87999997E-02   7.97245950E-11
  -1.87500007E-02   1.49574714E-10
  -1.86999999E-02   2.23218902E-10
  -1.86500009E-02   2.96239810E-10
  -1.86000001E-02   3.65482172E-10
  -1.85499992E-02   4.30374875E-10
  -1.85000002E-02   4.93107222E-10
  -1.84499994E-02   5.57568380E-10
  -1.84000004E-02   6.27508490E-10
  -1.83499996E-02   7.04731107E-10
  -1.83000006E-02   7.88121901E-10
  -1.82499997E-02   8.73954409E-10
  -1.82000007E-02   9.57350976E-10
  -1.81499999E-02   1.03425746E-09
  -1.81000009E-02   1.10306064E-09
  -1.80500001E-02   1.16512378E-09
  -1.79999992E-02   1.22399402E-09
  -1.79500002E-02   1.28362043E-09
  -1.78999994E-02   1.34637046E-09
  -1.78500004E-02   1.41172507E-09
  -1.77999996E-02   1.47623891E-09
  -1.77500006E-02   1.53479596E-09
  -1.76999997E-02   1.58261415E-09
  -1.76500008E-02   1.61711045E-09
  -1.75999999E-02   1.63880087E-09
  -1.75500009E-02   1.65082503E-09
  -1.75000001E-02   1.65729608E-09
  -1.74499992E-02   1.66120484E-09
  -1.74000002E-02   1.66280212E-09
  -1.73499994E-02   1.65918512E-09
  -1.73000004E-02   1.64527647E-09
  -1.72499996E-02   1.61577407E-09
  -1.72000006E-02   1.56720503E-09
  -1.71499997E-02   1.49917878E-09
  -1.71000008E-02   1.41427536E-09
  -1.70499999E-02   1.31661215E-09
  -1.70000009E-02   1.20972188E-09
  -1.69500001E-02   1.09467968E-09
  -1.68999992E-02   9.69315295E-10
  -1.68500002E-02   8.28868529E-10
  -1.67999994E-02   6.67800426E-10
  -1.67500004E-02   4.81966189E-10
  -1.66999996E-02   2.70186068E-10
  -1.66500006E-02   3.45147071E-11
  -1.65999997E-02  -2.20915522E-10
  -1.65500008E-02  -4.91968244E-10
  -1.64999999E-02  -7.76576414E-10
  -1.64500009E-02  -1.07590026E-09
  -1.64000001E-02  -1.39404399E-09
  -1.63499992E-02  -1.73646098E-09
  -1.63000003E-02  -2.10775242E-09
  -1.62499994E-02  -2.50982546E-09
  -1.62000004E-02  -2.94123415E-09
  -1.61499996E-02  -3.39799788E-09
  -1.61000006E-02  -3.87553456E-09
  -1.60499997E-02  -4.37085301E-09
  -1.60000008E-02  -4.88402874E-09
  -1.59499999E-02  -5.41831335E-09
  -1.59000009E-02  -5.97882321E-09
  -1.58500001E-02  -6.57039045E-09
  -1.57999992E-02  -7.19551885E-09
  -1.57500003E-02  -7.85336773E-09
  -1.56999994E-02  -8.54019166E-09
  -1.56500004E-02  -9.25106303E-09
  -1.55999996E-02  -9.98210492E-09
  -1.55499997E-02  -1.07322480E-08
  -1.54999997E-02  -1.15037331E-08
  -1.54499998E-02  -1.23011503E-08
  -1.53999999E-02  -1.31294264E-08
  -1.53500000E-02  -1.39916727E-08
  -1.53000001E-02  -1.48878252E-08
  -1.52500002E-02  -1.58147007E-08
  -1.52000003E-02  -1.67674248E-08
  -1.51500003E-02  -1.77416037E-08
  -1.51000004E-02  -1.87352747E-08
  -1.50499996E-02  -1.97497734E-08
  -1.49999997E-02  -2.07891517E-08
  -1.49499997E-02  -2.18583729E-08
  -1.48999998E-02  -2.29611175E-08
  -1.48499999E-02  -2.40981706E-08
  -1.48000000E-02  -2.52670915E-08
  -1.47500001E-02  -2.64633115E-08
  -1.47000002E-02  -2.76821623E-08
  -1.46500003E-02  -2.89209705E-08
  -1.46000003E-02  -3.01802459E-08
  -1.45500004E-02  -3.14634860E-08
  -1.44999996E-02  -3.27756595E-08
  -1.44499997E-02  -3.41210828E-08
  -1.43999998E-02  -3.55015821E-08
  -1.43499998E-02  -3.69158251E-08
  -1.42999999E-02  -3.83600245E-08
  -1.42500000E-02  -3.98297821E-08
  -1.42000001E-02  -4.13221741E-08
  -1.41500002E-02  -4.28372111E-08
  -1.41000003E-02  -4.43780337E-08
  -1.40500003E-02  -4.59496832E-08
  -1.40000004E-02  -4.75571404E-08
  -1.39499996E-02  -4.92033827E-08
  -1.38999997E-02  -5.08883602E-08
  -1.38499998E-02  -5.26093586E-08
  -1.37999998E-02  -5.43625340E-08
  -1.37499999E-02  -5.61450015E-08
  -1.37000000E-02  -5.79564485E-08
  -1.36500001E-02  -5.97996888E-08
  -1.36000002E-02  -6.16798133E-08
  -1.35500003E-02  -6.36024353E-08
  -1.35000004E-02  -6.55716832E-08
  -1.34500004E-02  -6.75889851E-08
  -1.33999996E-02  -6.96530122E-08
  -1.33499997E-02  -7.17609652E-08
  -1.32999998E-02  -7.39104280E-08
  -1.32499998E-02  -7.61011236E-08
  -1.31999999E-02  -7.83357734E-08
  -1.31500000E-02  -8.06195786E-08
  -1.31000001E-02  -8.29587208E-08
  -1.30500002E-02  -8.53583941E-08
  -1.30000003E-02  -8.78214621E-08
  -1.29500004E-02  -9.03480384E-08
  -1.29000004E-02  -9.29364319E-08
  -1.28499996E-02  -9.55848662E-08
  -1.27999997E-02  -9.82931923E-08
  -1.27499998E-02  -1.01064018E-07
  -1.26999998E-02  -1.03902515E-07
  -1.26499999E-02  -1.06815250E-07
  -1.26000000E-02  -1.09808340E-07
  -1.25500001E-02  -1.12885971E-07
  -1.25000002E-02  -1.16049790E-07
  -1.24500003E-02  -1.19299443E-07
  -1.24000004E-02  -1.22634020E-07
  -1.23500004E-02  -1.26053848E-07
  -1.22999996E-02  -1.29561599E-07
  -1.22499997E-02  -1.33162530E-07
  -1.21999998E-02  -1.36863477E-07
  -1.21499998E-02  -1.40671375E-07
  -1.20999999E-02  -1.44591610E-07
  -1.20500000E-02  -1.48627251E-07
  -1.20000001E-02  -1.52779279E-07
  -1.19500002E-02  -1.57047779E-07
  -1.19000003E-02  -1.61433462E-07
  -1.18500004E-02  -1.65939014E-07
  -1.18000004E-02  -1.70569493E-07
  -1.17499996E-02  -1.75331706E-07
  -1.16999997E-02  -1.80232931E-07
  -1.16499998E-02  -1.85279404E-07
  -1.15999999E-02  -1.90475333E-07
  -1.15499999E-02  -1.95822992E-07
  -1.15000000E-02  -2.01323445E-07
  -1.14500001E-02  -2.06978186E-07
  -1.14000002E-02  -2.12790155E-07
  -1.13500003E-02  -2.18764541E-07
  -1.13000004E-02  -2.24908320E-07
  -1.12500004E-02  -2.31229265E-07
  -1.11999996E-02  -2.37734440E-07
  -1.11499997E-02  -2.44429287E-07
  -1.10999998E-02  -2.51317289E-07
  -1.10499999E-02  -2.58400632E-07
  -1.09999999E-02  -2.65681336E-07
  -1.09500000E-02  -2.73162669E-07
  -1.09000001E-02  -2.80849576E-07
  -1.08500002E-02  -2.88748936E-07
  -1.08000003E-02  -2.96868507E-07
  -1.07500004E-02  -3.05215849E-07
  -1.07000005E-02  -3.13797443E-07
  -1.06499996E-02  -3.22618035E-07
  -1.05999997E-02  -3.31681235E-07
  -1.05499998E-02  -3.40990368E-07
  -1.04999999E-02  -3.50549556E-07
  -1.04499999E-02  -3.60364510E-07
  -1.04000000E-02  -3.70442507E-07
  -1.03500001E-02  -3.80792017E-07
  -1.03000002E-02  -3.91421651E-07
  -1.02500003E-02  -4.02338912E-07
  -1.02000004E-02  -4.13550254E-07
  -1.01500005E-02  -4.25060620E-07
  -1.00999996E-02  -4.36874700E-07
  -1.00499997E-02  -4.48997469E-07
  -9.99999978E-03  -4.61435121E-07
  -9.94999986E-03  -4.74195474E-07
  -9.89999995E-03  -4.87287309E-07
  -9.85000003E-03  -5.00719864E-07
  -9.80000012E-03  -5.14501835E-07
  -9.75000020E-03  -5.28641067E-07
  -9.70000029E-03  -5.43144324E-07
  -9.65000037E-03  -5.58017803E-07
  -9.60000046E-03  -5.73268096E-07
  -9.54999961E-03  -5.88902765E-07
  -9.49999969E-03  -6.04930904E-07
  -9.44999978E-03  -6.21362403E-07
  -9.39999986E-03  -6.38208007E-07
  -9.34999995E-03  -6.55478232E-07
  -9.30000003E-03  -6.73183081E-07
  -9.25000012E-03  -6.91331593E-07
  -9.20000020E-03  -7.09932465E-07
  -9.15000029E-03  -7.28994280E-07
  -9.10000037E-03  -7.48526361E-07
  -9.05000046E-03  -7.68538882E-07
  -8.99999961E-03  -7.89043270E-07
  -8.94999970E-03  -8.10051347E-07
  -8.89999978E-03  -8.31575051E-07
  -8.84999987E-03  -8.53625920E-07
  -8.79999995E-03  -8.76215040E-07
  -8.75000004E-03  -8.99352983E-07
  -8.70000012E-03  -9.23050550E-07
  -8.65000021E-03  -9.47318824E-07
  -8.60000029E-03  -9.72169801E-07
  -8.55000038E-03  -9.97616780E-07
  -8.50000046E-03  -1.02367369E-06
  -8.44999962E-03  -1.05035440E-06
  -8.39999970E-03  -1.07767312E-06
  -8.34999979E-03  -1.10564372E-06
  -8.29999987E-03  -1.13427984E-06
  -8.24999996E-03  -1.16359490E-06
  -8.20000004E-03  -1.19360277E-06
  -8.15000013E-03  -1.22431823E-06
  -8.10000021E-03  -1.25575650E-06
  -8.05000030E-03  -1.28793374E-06
  -8.00000038E-03  -1.32086609E-06
  -7.95000046E-03  -1.35457014E-06
  -7.89999962E-03  -1.38906228E-06
  -7.84999970E-03  -1.42435840E-06
  -7.79999979E-03  -1.46047500E-06
  -7.74999987E-03  -1.49742800E-06
  -7.69999996E-03  -1.53523422E-06
  -7.65000004E-03  -1.57391082E-06
  -7.60000013E-03  -1.61347612E-06
  -7.55000021E-03  -1.65394886E-06
  -7.49999983E-03  -1.69534781E-06
  -7.44999992E-03  -1.73769217E-06
  -7.40000000E-03  -1.78100106E-06
  -7.35000009E-03  -1.82529402E-06
  -7.30000017E-03  -1.87059061E-06
  -7.24999979E-03  -1.91691015E-06
  -7.19999988E-03  -1.96427322E-06
  -7.14999996E-03  -2.01270018E-06
  -7.10000005E-03  -2.06221284E-06
  -7.05000013E-03  -2.11283282E-06
  -7.00000022E-03  -2.16458261E-06
  -6.94999984E-03  -2.21748519E-06
  -6.89999992E-03  -2.27156261E-06
  -6.85000001E-03  -2.32683783E-06
  -6.80000009E-03  -2.38333337E-06
  -6.75000018E-03  -2.44107196E-06
  -6.69999979E-03  -2.50007656E-06
  -6.64999988E-03  -2.56037220E-06
  -6.59999996E-03  -2.62198341E-06
  -6.55000005E-03  -2.68493568E-06
  -6.50000013E-03  -2.74925515E-06
  -6.45000022E-03  -2.81496727E-06
  -6.39999984E-03  -2.88209776E-06
  -6.34999992E-03  -2.95067184E-06
  -6.30000001E-03  -3.02071521E-06
  -6.25000009E-03  -3.09225470E-06
  -6.20000018E-03  -3.16531714E-06
  -6.14999980E-03  -3.23993117E-06
  -6.09999988E-03  -3.31612659E-06
  -6.04999997E-03  -3.39393387E-06
  -6.00000005E-03  -3.47338209E-06
  -5.95000014E-03  -3.55449993E-06
  -5.90000022E-03  -3.63731669E-06
  -5.84999984E-03  -3.72186196E-06
  -5.79999993E-03  -3.80816596E-06
  -5.75000001E-03  -3.89626030E-06
  -5.70000010E-03  -3.98617703E-06
  -5.65000018E-03  -4.07795005E-06
  -5.59999980E-03  -4.17161300E-06
  -5.54999989E-03  -4.26719953E-06
  -5.49999997E-03  -4.36474284E-06
  -5.45000006E-03  -4.46427657E-06
  -5.40000014E-03  -4.56583211E-06
  -5.35000023E-03  -4.66944402E-06
  -5.29999984E-03  -4.77514595E-06
  -5.24999993E-03  -4.88297519E-06
  -5.20000001E-03  -4.99296948E-06
  -5.15000010E-03  -5.10516747E-06
  -5.10000018E-03  -5.21960783E-06
  -5.04999980E-03  -5.33632783E-06
  -4.99999989E-03  -5.45536386E-06
  -4.94999997E-03  -5.57675321E-06
  -4.90000006E-03  -5.70053271E-06
  -4.85000014E-03  -5.82674147E-06
  -4.80000023E-03  -5.95542087E-06
  -4.74999985E-03  -6.08661367E-06
  -4.69999993E-03  -6.22036396E-06
  -4.65000002E-03  -6.35671677E-06
  -4.60000010E-03  -6.49571302E-06
  -4.55000019E-03  -6.63739365E-06
  -4.49999981E-03  -6.78179958E-06
  -4.44999989E-03  -6.92897174E-06
  -4.39999998E-03  -7.07895333E-06
  -4.35000006E-03  -7.23178846E-06
  -4.30000015E-03  -7.38752487E-06
  -4.25000023E-03  -7.54621078E-06
  -4.19999985E-03  -7.70789484E-06
  -4.14999994E-03  -7.87262525E-06
  -4.10000002E-03  -8.04044794E-06
  -4.05000011E-03  -8.21140657E-06
  -4.00000019E-03  -8.38554570E-06
  -3.94999981E-03  -8.56290808E-06
  -3.89999989E-03  -8.74354464E-06
  -3.84999998E-03  -8.92750541E-06
  -3.80000006E-03  -9.11484585E-06
  -3.74999992E-03  -9.30562055E-06
  -3.70000000E-03  -9.49988498E-06
  -3.65000009E-03  -9.69768735E-06
  -3.59999994E-03  -9.89907494E-06
  -3.55000002E-03  -1.01040941E-05
  -3.50000011E-03  -1.03127941E-05
  -3.44999996E-03  -1.05252275E-05
  -3.40000005E-03  -1.07414508E-05
  -3.34999990E-03  -1.09615221E-05
  -3.29999998E-03  -1.11854979E-05
  -3.25000007E-03  -1.14134382E-05
  -3.19999992E-03  -1.16453957E-05
  -3.15000000E-03  -1.18814205E-05
  -3.10000009E-03  -1.21215644E-05
  -3.04999994E-03  -1.23658756E-05
  -3.00000003E-03  -1.26144087E-05
  -2.95000011E-03  -1.28672209E-05
  -2.89999996E-03  -1.31243742E-05
  -2.85000005E-03  -1.33859303E-05
  -2.79999990E-03  -1.36519511E-05
  -2.74999999E-03  -1.39224985E-05
  -2.70000007E-03  -1.41976234E-05
  -2.64999992E-03  -1.44773821E-05
  -2.60000001E-03  -1.47618211E-05
  -2.55000009E-03  -1.50509950E-05
  -2.49999994E-03  -1.53449619E-05
  -2.45000003E-03  -1.56437836E-05
  -2.40000011E-03  -1.59475330E-05
  -2.34999997E-03  -1.62562719E-05
  -2.30000005E-03  -1.65700658E-05
  -2.24999990E-03  -1.68889710E-05
  -2.19999999E-03  -1.72130349E-05
  -2.15000007E-03  -1.75423065E-05
  -2.09999993E-03  -1.78768423E-05
  -2.05000001E-03  -1.82166968E-05
  -2.00000009E-03  -1.85619356E-05
  -1.94999995E-03  -1.89126258E-05
  -1.90000003E-03  -1.92688403E-05
  -1.85000000E-03  -1.96306428E-05
  -1.79999997E-03  -1.99980914E-05
  -1.75000005E-03  -2.03712370E-05
  -1.70000002E-03  -2.07501289E-05
  -1.64999999E-03  -2.11348161E-05
  -1.59999996E-03  -2.15253513E-05
  -1.55000004E-03  -2.19217982E-05
  -1.50000001E-03  -2.23242259E-05
  -1.44999998E-03  -2.27327037E-05
  -1.39999995E-03  -2.31473041E-05
  -1.35000004E-03  -2.35680855E-05
  -1.30000000E-03  -2.39950987E-05
  -1.24999997E-03  -2.44283856E-05
  -1.20000006E-03  -2.48679935E-05
  -1.15000003E-03  -2.53139679E-05
  -1.09999999E-03  -2.57663669E-05
  -1.04999996E-03  -2.62252579E-05
  -1.00000005E-03  -2.66907209E-05
  -9.50000016E-04  -2.71628214E-05
  -8.99999985E-04  -2.76416249E-05
  -8.50000011E-04  -2.81271768E-05
  -7.99999980E-04  -2.86195191E-05
  -7.50000007E-04  -2.91186807E-05
  -6.99999975E-04  -2.96247035E-05
  -6.50000002E-04  -3.01376385E-05
  -6.00000028E-04  -3.06575530E-05
  -5.49999997E-04  -3.11845142E-05
  -5.00000024E-04  -3.17186023E-05
  -4.49999992E-04  -3.22598717E-05
  -3.99999990E-04  -3.28083661E-05
  -3.49999988E-04  -3.33641256E-05
  -3.00000014E-04  -3.39271683E-05
  -2.50000012E-04  -3.44975269E-05
  -1.99999995E-04  -3.50752489E-05
  -1.50000007E-04  -3.56603923E-05
  -9.99999975E-05  -3.62530263E-05
  -4.99999987E-05  -3.68532128E-05
   0.00000000      -3.74610172E-05
   4.99999987E-05  -3.80764795E-05
   9.99999975E-05  -3.86996107E-05
   1.50000007E-04  -3.93304435E-05
   1.99999995E-04  -3.99689816E-05
   2.50000012E-04  -4.06152649E-05
   3.00000014E-04  -4.12693444E-05
   3.49999988E-04  -4.19312782E-05
   3.99999990E-04  -4.26011284E-05
   4.49999992E-04  -4.32789457E-05
   5.00000024E-04  -4.39647556E-05
   5.49999997E-04  -4.46585800E-05
   6.00000028E-04  -4.53604262E-05
   6.50000002E-04  -4.60702904E-05
   6.99999975E-04  -4.67882019E-05
   7.50000007E-04  -4.75141860E-05
   7.99999980E-04  -4.82482901E-05
   8.50000011E-04  -4.89905651E-05
   8.99999985E-04  -4.97410656E-05
   9.50000016E-04  -5.04998134E-05
   1.00000005E-03  -5.12668048E-05
   1.04999996E-03  -5.20420363E-05
   1.09999999E-03  -5.28254895E-05
   1.15000003E-03  -5.36171538E-05
   1.20000006E-03  -5.44170507E-05
   1.24999997E-03  -5.52252095E-05
   1.30000000E-03  -5.60416665E-05
   1.35000004E-03  -5.68664618E-05
   1.39999995E-03  -5.76996172E-05
   1.44999998E-03  -5.85411108E-05
   1.50000001E-03  -5.93909099E-05
   1.55000004E-03  -6.02489781E-05
   1.59999996E-03  -6.11152936E-05
   1.64999999E-03  -6.19898419E-05
   1.70000002E-03  -6.28726411E-05
   1.75000005E-03  -6.37636986E-05
   1.79999997E-03  -6.46630579E-05
   1.85000000E-03  -6.55706899E-05
   1.90000003E-03  -6.64865729E-05
   1.94999995E-03  -6.74106632E-05
   2.00000009E-03  -6.83428952E-05
   2.05000001E-03  -6.92832182E-05
   2.09999993E-03  -7.02315810E-05
   2.15000007E-03  -7.11879766E-05
   2.19999999E-03  -7.21523975E-05
   2.24999990E-03  -7.31248438E-05
   2.30000005E-03  -7.41053009E-05
   2.34999997E-03  -7.50937252E-05
   2.40000011E-03  -7.60900439E-05
   2.45000003E-03  -7.70941479E-05
   2.49999994E-03  -7.81059571E-05
   2.55000009E-03  -7.91253988E-05
   2.60000001E-03  -8.01524147E-05
   2.64999992E-03  -8.11869759E-05
   2.70000007E-03  -8.22290604E-05
   2.74999999E-03  -8.32786318E-05
   2.79999990E-03  -8.43356247E-05