  -3.99999991E-02   0.00000000    
  -3.99499983E-02   0.00000000    
  -3.99000011E-02   0.00000000    
  -3.98500003E-02   2.83501843E-15
  -3.97999994E-02   2.38930105E-14
  -3.97499986E-02   1.03217497E-13
  -3.97000015E-02   3.05504726E-13
  -3.96500006E-02   7.04030638E-13
  -3.95999998E-02   1.37358408E-12
  -3.95499989E-02   2.41590363E-12
  -3.95000018E-02   3.98044141E-12
  -3.94500010E-02   6.19617118E-12
  -3.94000001E-02   9.00643362E-12
  -3.93499993E-02   1.20654528E-11
  -3.92999984E-02   1.48992780E-11
  -3.92500013E-02   1.73092322E-11
  -3.92000005E-02   1.96849499E-11
  -3.91499996E-02   2.28795264E-11
  -3.90999988E-02   2.76923814E-11
  -3.90500017E-02   3.44116263E-11
  -3.90000008E-02   4.27933765E-11
  -3.89500000E-02   5.23504191E-11
  -3.88999991E-02   6.25066734E-11
  -3.88499983E-02   7.24829363E-11
  -3.88000011E-02   8.13296930E-11
  -3.87500003E-02   8.85007345E-11
  -3.86999995E-02   9.46106735E-11
  -3.86499986E-02   1.01430038E-10
  -3.86000015E-02   1.10675240E-10
  -3.85500006E-02   1.22434868E-10
  -3.84999998E-02   1.34698974E-10
  -3.84499989E-02   1.44520187E-10
  -3.84000018E-02   1.49715518E-10
  -3.83500010E-02   1.49543350E-10
  -3.83000001E-02   1.44056614E-10
  -3.82499993E-02   1.33343406E-10
  -3.81999984E-02   1.17765839E-10
  -3.81500013E-02   9.87080209E-11
  -3.81000005E-02   7.83304949E-11
  -3.80499996E-02   5.79002297E-11
  -3.79999988E-02   3.62702056E-11
  -3.79500017E-02   1.04043527E-11
  -3.79000008E-02  -2.22876197E-11
  -3.78500000E-02  -6.22553883E-11
  -3.77999991E-02  -1.08690584E-10
  -3.77499983E-02  -1.61954283E-10
  -3.77000012E-02  -2.24513866E-10
  -3.76500003E-02  -2.98929687E-10
  -3.75999995E-02  -3.84970500E-10
  -3.75499986E-02  -4.79264517E-10
  -3.75000015E-02  -5.78236015E-10
  -3.74500006E-02  -6.81371903E-10
  -3.73999998E-02  -7.91460508E-10
  -3.73499990E-02  -9.11828502E-10
  -3.73000018E-02  -1.04367848E-09
  -3.72500010E-02  -1.18571952E-09
  -3.72000001E-02  -1.33477729E-09
  -3.71499993E-02  -1.48482115E-09
  -3.70999984E-02  -1.62490921E-09
  -3.70500013E-02  -1.74017034E-09
  -3.70000005E-02  -1.81865512E-09
  -3.69499996E-02  -1.86080407E-09
  -3.68999988E-02  -1.88367877E-09
  -3.68500017E-02  -1.91475347E-09
  -3.68000008E-02  -1.97820449E-09
  -3.67500000E-02  -2.08242001E-09
  -3.66999991E-02  -2.21561525E-09
  -3.66499983E-02  -2.34984321E-09
  -3.66000012E-02  -2.44957654E-09
  -3.65500003E-02  -2.48216314E-09
  -3.64999995E-02  -2.42946552E-09
  -3.64499986E-02  -2.29777508E-09
  -3.64000015E-02  -2.11887796E-09
  -3.63500006E-02  -1.93627492E-09
  -3.62999998E-02  -1.78014903E-09
  -3.62499990E-02  -1.64571312E-09
  -3.62000018E-02  -1.49068735E-09
  -3.61500010E-02  -1.25580712E-09
  -3.61000001E-02  -8.96593966E-10
  -3.60499993E-02  -4.08185458E-10
  -3.59999985E-02   1.68713182E-10
  -3.59500013E-02   7.61620322E-10
  -3.59000005E-02   1.29373123E-09
  -3.58499996E-02   1.71698533E-09
  -3.57999988E-02   2.04022421E-09
  -3.57500017E-02   2.33803821E-09
  -3.57000008E-02   2.72785972E-09
  -3.56500000E-02   3.31736283E-09
  -3.55999991E-02   4.14543644E-09
  -3.55499983E-02   5.15080423E-09
  -3.55000012E-02   6.19059515E-09
  -3.54500003E-02   7.10262427E-09
  -3.53999995E-02   7.78010190E-09
  -3.53499986E-02   8.22248136E-09
  -3.53000015E-02   8.54024051E-09
  -3.52500007E-02   8.91195029E-09
  -3.51999998E-02   9.50832213E-09
  -3.51499990E-02   1.04095745E-08
  -3.51000018E-02   1.15504353E-08
  -3.50500010E-02   1.27250290E-08
  -3.50000001E-02   1.36628246E-08
  -3.49499993E-02   1.41493830E-08
  -3.48999985E-02   1.41336010E-08
  -3.48500013E-02   1.37619374E-08
  -3.48000005E-02   1.33160460E-08
  -3.47499996E-02   1.30818316E-08
  -3.46999988E-02   1.32127402E-08
  -3.46500017E-02   1.36502161E-08
  -3.46000008E-02   1.41361998E-08
  -3.45500000E-02   1.43148151E-08
  -3.44999991E-02   1.38863836E-08
  -3.44499983E-02   1.27523849E-08
  -3.44000012E-02   1.10829781E-08
  -3.43500003E-02   9.26135524E-09
  -3.42999995E-02   7.71365727E-09
  -3.42499986E-02   6.69762601E-09
  -3.42000015E-02   6.15675999E-09
  -3.41500007E-02   5.72160541E-09
  -3.40999998E-02   4.86628293E-09
  -3.40499990E-02   3.14878457E-09
  -3.40000018E-02   4.23221069E-10
  -3.39500010E-02  -3.07270698E-09
  -3.39000002E-02  -6.79749901E-09
  -3.38499993E-02  -1.01273159E-08
  -3.37999985E-02  -1.26331026E-08
  -3.37500013E-02  -1.42942138E-08
  -3.37000005E-02  -1.55403619E-08
  -3.36499996E-02  -1.70789836E-08
  -3.35999988E-02  -1.95680130E-08
  -3.35500017E-02  -2.32833131E-08
  -3.35000008E-02  -2.79482855E-08
  -3.34500000E-02  -3.28209495E-08
  -3.33999991E-02  -3.70070730E-08
  -3.33499983E-02  -3.98575004E-08
  -3.33000012E-02  -4.12693737E-08
  -3.32500003E-02  -4.17545856E-08
  -3.31999995E-02  -4.22364863E-08
  -3.31499986E-02  -4.36486403E-08
  -3.31000015E-02  -4.64987444E-08
  -3.30500007E-02  -5.05927993E-08
  -3.29999998E-02  -5.50646000E-08
  -3.29499990E-02  -5.87260196E-08
  -3.29000019E-02  -6.05942745E-08
  -3.28500010E-02  -6.03489454E-08
  -3.28000002E-02  -5.84914375E-08
  -3.27499993E-02  -5.61197844E-08
  -3.26999985E-02  -5.44182583E-08
  -3.26500013E-02  -5.40961516E-08
  -3.26000005E-02  -5.50303696E-08
  -3.25499997E-02  -5.62761286E-08
  -3.24999988E-02  -5.64554874E-08
  -3.24500017E-02  -5.43709184E-08
  -3.24000008E-02  -4.95806631E-08
  -3.23500000E-02  -4.26637605E-08
  -3.22999991E-02  -3.50201219E-08
  -3.22499983E-02  -2.82633170E-08
  -3.22000012E-02  -2.34726159E-08
  -3.21500003E-02  -2.06617550E-08
  -3.20999995E-02  -1.87309990E-08
  -3.20499986E-02  -1.59394027E-08
  -3.20000015E-02  -1.06879323E-08
  -3.19500007E-02  -2.26102204E-09
  -3.18999998E-02   8.80508377E-09
  -3.18499990E-02   2.09007815E-08
  -3.18000019E-02   3.20126397E-08
  -3.17500010E-02   4.06121359E-08
  -3.17000002E-02   4.63736463E-08
  -3.16499993E-02   5.03742719E-08
  -3.15999985E-02   5.46442358E-08
  -3.15500014E-02   6.12403284E-08
  -3.15000005E-02   7.12626402E-08
  -3.14499997E-02   8.42832151E-08
  -3.13999988E-02   9.84675026E-08
  -3.13500017E-02   1.11342310E-07
  -3.13000008E-02   1.20866744E-07
  -3.12500000E-02   1.26330718E-07
  -3.11999992E-02   1.28682970E-07
  -3.11500002E-02   1.30130786E-07
  -3.10999993E-02   1.33158878E-07
  -3.10500003E-02   1.39378486E-07
  -3.09999995E-02   1.48724240E-07
  -3.09500005E-02   1.59395199E-07
  -3.08999997E-02   1.68608807E-07
  -3.08500007E-02   1.73844043E-07
  -3.07999998E-02   1.73997037E-07
  -3.07500008E-02   1.69901242E-07
  -3.07000000E-02   1.63962270E-07
  -3.06499992E-02   1.59070893E-07
  -3.06000002E-02   1.57282273E-07
  -3.05499993E-02   1.58845396E-07
  -3.05000003E-02   1.62017244E-07
  -3.04499995E-02   1.63766614E-07
  -3.04000005E-02   1.61094491E-07
  -3.03499997E-02   1.52406130E-07
  -3.03000007E-02   1.38300521E-07
  -3.02499998E-02   1.21375365E-07
  -3.02000009E-02   1.05091949E-07
  -3.01500000E-02   9.22074861E-08
  -3.00999992E-02   8.35041405E-08
  -3.00500002E-02   7.74054314E-08
  -2.99999993E-02   7.06614216E-08
  -2.99500003E-02   5.97960010E-08
  -2.98999995E-02   4.26796518E-08
  -2.98500005E-02   1.95451140E-08
  -2.97999997E-02  -7.01143454E-09
  -2.97500007E-02  -3.30814203E-08
  -2.96999998E-02  -5.51265664E-08
  -2.96500009E-02  -7.15654807E-08
  -2.96000000E-02  -8.35229770E-08
  -2.95499992E-02  -9.43582776E-08
  -2.95000002E-02  -1.08158304E-07
  -2.94499993E-02  -1.27873861E-07
  -2.94000003E-02  -1.53954616E-07
  -2.93499995E-02  -1.84096521E-07
  -2.93000005E-02  -2.14201890E-07
  -2.92499997E-02  -2.40124820E-07
  -2.92000007E-02  -2.59447404E-07
  -2.91499998E-02  -2.72522868E-07
  -2.91000009E-02  -2.82312413E-07
  -2.90500000E-02  -2.93047378E-07
  -2.89999992E-02  -3.08271495E-07
  -2.89500002E-02  -3.29137976E-07
  -2.88999993E-02  -3.53765245E-07
  -2.88500004E-02  -3.77982815E-07
  -2.87999995E-02  -3.97144021E-07
  -2.87500005E-02  -4.08173889E-07
  -2.86999997E-02  -4.10923491E-07
  -2.86500007E-02  -4.08232040E-07
  -2.85999998E-02  -4.04676825E-07
  -2.85500009E-02  -4.04549098E-07
  -2.85000000E-02  -4.09914236E-07
  -2.84499992E-02  -4.19599701E-07
  -2.84000002E-02  -4.29590671E-07
  -2.83499993E-02  -4.34713627E-07
  -2.83000004E-02  -4.30904720E-07
  -2.82499995E-02  -4.17044447E-07
  -2.82000005E-02  -3.95494112E-07
  -2.81499997E-02  -3.71061333E-07
  -2.81000007E-02  -3.48858322E-07
  -2.80499998E-02  -3.32018743E-07
  -2.80000009E-02  -3.20281544E-07
  -2.79500000E-02  -3.10056976E-07
  -2.78999992E-02  -2.95941788E-07
  -2.78500002E-02  -2.73057424E-07
  -2.77999993E-02  -2.39237835E-07
  -2.77500004E-02  -1.96104310E-07
  -2.76999995E-02  -1.48504341E-07
  -2.76500005E-02  -1.02494475E-07
  -2.75999997E-02  -6.27295762E-08
  -2.75500007E-02  -3.04270351E-08
  -2.74999999E-02  -2.84410362E-09
  -2.74500009E-02   2.54791903E-08
  -2.74000000E-02   6.02709989E-08
  -2.73499992E-02   1.04955177E-07
  -2.73000002E-02   1.59078169E-07
  -2.72499993E-02   2.18395272E-07
  -2.72000004E-02   2.76583989E-07
  -2.71499995E-02   3.27897340E-07
  -2.71000005E-02   3.69640162E-07
  -2.70499997E-02   4.03365902E-07
  -2.70000007E-02   4.34196920E-07
  -2.69499999E-02   4.68501810E-07
  -2.69000009E-02   5.10945597E-07
  -2.68500000E-02   5.62257469E-07
  -2.67999992E-02   6.18743968E-07
  -2.67500002E-02   6.73775730E-07
  -2.66999993E-02   7.20584808E-07
  -2.66500004E-02   7.55146687E-07
  -2.65999995E-02   7.77910259E-07
  -2.65500005E-02   7.93615754E-07
  -2.64999997E-02   8.09227743E-07
  -2.64500007E-02   8.30807949E-07
  -2.63999999E-02   8.60663249E-07
  -2.63500009E-02   8.96072663E-07
  -2.63000000E-02   9.30257954E-07
  -2.62499992E-02   9.55252062E-07
  -2.62000002E-02   9.65397589E-07
  -2.61499994E-02   9.59890485E-07
  -2.61000004E-02   9.43206146E-07
  -2.60499995E-02   9.23201810E-07
  -2.60000005E-02   9.07716014E-07
  -2.59499997E-02   9.01112344E-07
  -2.59000007E-02   9.02250747E-07
  -2.58499999E-02   9.04803755E-07
  -2.58000009E-02   8.99868780E-07
  -2.57500000E-02   8.79832044E-07
  -2.56999992E-02   8.41811527E-07
  -2.56500002E-02   7.89089256E-07
  -2.55999994E-02   7.29791793E-07
  -2.55500004E-02   6.73355601E-07
  -2.54999995E-02   6.26340693E-07
  -2.54500005E-02   5.89495926E-07
  -2.53999997E-02   5.57390365E-07
  -2.53500007E-02   5.20787637E-07
  -2.52999999E-02   4.70757016E-07
  -2.52500009E-02   4.02726528E-07
  -2.52000000E-02   3.18721703E-07
  -2.51499992E-02   2.26750714E-07
  -2.51000002E-02   1.37480114E-07
  -2.50499994E-02   5.95733418E-08
  -2.50000004E-02  -4.23012514E-09
  -2.49499995E-02  -5.84453019E-08
  -2.49000005E-02  -1.12874183E-07
  -2.48499997E-02  -1.78169117E-07
  -2.48000007E-02  -2.60935309E-07
  -2.47499999E-02  -3.60597227E-07
  -2.47000009E-02  -4.69449020E-07
  -2.46500000E-02  -5.75885224E-07
  -2.45999992E-02  -6.69434769E-07
  -2.45500002E-02  -7.45413729E-07
  -2.44999994E-02  -8.07112485E-07
  -2.44500004E-02  -8.64465221E-07
  -2.43999995E-02  -9.29633472E-07
  -2.43500005E-02  -1.01137459E-06
  -2.42999997E-02  -1.11077838E-06
  -2.42500007E-02  -1.22042070E-06
  -2.41999999E-02  -1.32743298E-06
  -2.41500009E-02  -1.41914734E-06
  -2.41000000E-02  -1.48876052E-06
  -2.40499992E-02  -1.53844826E-06
  -2.40000002E-02  -1.57852287E-06
  -2.39499994E-02  -1.62296499E-06
  -2.39000004E-02  -1.68323186E-06
  -2.38499995E-02  -1.76302615E-06
  -2.38000005E-02  -1.85637987E-06
  -2.37499997E-02  -1.95005418E-06
  -2.37000007E-02  -2.02933825E-06
  -2.36499999E-02  -2.08469828E-06
  -2.36000009E-02  -2.11621159E-06
  -2.35500000E-02  -2.13365661E-06
  -2.34999992E-02  -2.15215618E-06
  -2.34500002E-02  -2.18536638E-06
  -2.33999994E-02  -2.23929192E-06
  -2.33500004E-02  -2.30951377E-06
  -2.32999995E-02  -2.38308826E-06
  -2.32500006E-02  -2.44429611E-06
  -2.31999997E-02  -2.48176298E-06
  -2.31500007E-02  -2.49380628E-06
  -2.30999999E-02  -2.48949891E-06
  -2.30500009E-02  -2.48483548E-06
  -2.30000000E-02  -2.49558320E-06
  -2.29499992E-02  -2.53006419E-06
  -2.29000002E-02  -2.58527962E-06
  -2.28499994E-02  -2.64823780E-06
  -2.28000004E-02  -2.70190958E-06
  -2.27499995E-02  -2.73308206E-06
  -2.27000006E-02  -2.73856244E-06
  -2.26499997E-02  -2.72690727E-06
  -2.26000007E-02  -2.71487011E-06
  -2.25499999E-02  -2.72009015E-06
  -2.25000009E-02  -2.75320031E-06
  -2.24500000E-02  -2.81288158E-06
  -2.23999992E-02  -2.88624574E-06
  -2.23500002E-02  -2.95460018E-06
  -2.22999994E-02  -3.00202237E-06
  -2.22500004E-02  -3.02282274E-06
  -2.21999995E-02  -3.02438661E-06
  -2.21500006E-02  -3.02398189E-06
  -2.20999997E-02  -3.04109290E-06
  -2.20500007E-02  -3.08876110E-06
  -2.19999999E-02  -3.16772685E-06
  -2.19500009E-02  -3.26606187E-06
  -2.19000001E-02  -3.36451285E-06
  -2.18499992E-02  -3.44521732E-06
  -2.18000002E-02  -3.50001233E-06
  -2.17499994E-02  -3.53445625E-06
  -2.17000004E-02  -3.56556234E-06
  -2.16499995E-02  -3.61426737E-06
  -2.16000006E-02  -3.69593181E-06
  -2.15499997E-02  -3.81326163E-06
  -2.15000007E-02  -3.95503866E-06
  -2.14499999E-02  -4.10127132E-06
  -2.14000009E-02  -4.23228585E-06
  -2.13500001E-02  -4.33761170E-06
  -2.12999992E-02  -4.42071178E-06
  -2.12500002E-02  -4.49750223E-06
  -2.11999994E-02  -4.58926615E-06
  -2.11500004E-02  -4.71298199E-06
  -2.10999995E-02  -4.87346279E-06
  -2.10500006E-02  -5.06099650E-06
  -2.09999997E-02  -5.25576615E-06
  -2.09500007E-02  -5.43701390E-06
  -2.08999999E-02  -5.59272848E-06
  -2.08500009E-02  -5.72541148E-06
  -2.08000001E-02  -5.85107182E-06
  -2.07499992E-02  -5.99196210E-06
  -2.07000002E-02  -6.16655097E-06
  -2.06499994E-02  -6.38111760E-06
  -2.06000004E-02  -6.62670072E-06
  -2.05499995E-02  -6.88302043E-06
  -2.05000006E-02  -7.12755673E-06
  -2.04499997E-02  -7.34578907E-06
  -2.04000007E-02  -7.53805762E-06
  -2.03499999E-02  -7.71969371E-06
  -2.03000009E-02  -7.91420644E-06
  -2.02500001E-02  -8.14275427E-06
  -2.01999992E-02  -8.41463043E-06
  -2.01500002E-02  -8.72313103E-06
  -2.00999994E-02  -9.04877379E-06
  -2.00500004E-02  -9.36839933E-06
  -1.99999996E-02  -9.66584503E-06
  -1.99500006E-02  -9.93935373E-06
  -1.98999997E-02  -1.02025197E-05
  -1.98500007E-02  -1.04785131E-05
  -1.97999999E-02  -1.07897804E-05
  -1.97500009E-02  -1.11478103E-05
  -1.97000001E-02  -1.15480298E-05
  -1.96499992E-02  -1.19720098E-05
  -1.96000002E-02  -1.23960408E-05
  -1.95499994E-02  -1.28023339E-05
  -1.95000004E-02  -1.31874758E-05
  -1.94499996E-02  -1.35640621E-05
  -1.94000006E-02  -1.39551275E-05
  -1.93499997E-02  -1.43838488E-05
  -1.93000007E-02  -1.48633262E-05
  -1.92499999E-02  -1.53908932E-05
  -1.92000009E-02  -1.59492974E-05
  -1.91500001E-02  -1.65147358E-05
  -1.90999992E-02  -1.70682852E-05
  -1.90500002E-02  -1.76046688E-05
  -1.89999994E-02  -1.81350351E-05
  -1.89500004E-02  -1.86824127E-05
  -1.88999996E-02  -1.92712596E-05
  -1.88500006E-02  -1.99165333E-05
  -1.87999997E-02  -2.06168479E-05
  -1.87500007E-02  -2.13553849E-05
  -1.86999999E-02  -2.21077189E-05
  -1.86500009E-02  -2.28531935E-05
  -1.86000001E-02  -2.35845146E-05
  -1.85499992E-02  -2.43112027E-05
  -1.85000002E-02  -2.50555022E-05
  -1.84499994E-02  -2.58427026E-05
  -1.84000004E-02  -2.66897841E-05
  -1.83499996E-02  -2.75977436E-05
  -1.83000006E-02  -2.85510796E-05
  -1.82499997E-02  -2.95245718E-05
  -1.82000007E-02  -3.04953101E-05
  -1.81499999E-02  -3.14532335E-05
  -1.81000009E-02  -3.24057146E-05
  -1.80500001E-02  -3.33738426E-05
  -1.79999992E-02  -3.43832689E-05
  -1.79500002E-02  -3.54528020E-05
  -1.78999994E-02  -3.65858286E-05
  -1.78500004E-02  -3.77691358E-05
  -1.77999996E-02  -3.89785673E-05
  -1.77500006E-02  -4.01898469E-05
  -1.76999997E-02  -4.13898160E-05
  -1.76500008E-02  -4.25825820E-05
  -1.75999999E-02  -4.37874478E-05
  -1.75500009E-02  -4.50297885E-05
  -1.75000001E-02  -4.63287834E-05
  -1.74499992E-02  -4.76884852E-05
  -1.74000002E-02  -4.90959756E-05
  -1.73499994E-02  -5.05273310E-05
  -1.73000004E-02  -5.19588575E-05
  -1.72499996E-02  -5.33770108E-05
  -1.72000006E-02  -5.47844829E-05
  -1.71499997E-02  -5.61995621E-05
  -1.71000008E-02  -5.76484599E-05
  -1.70499999E-02  -5.91532880E-05
  -1.70000009E-02  -6.07211041E-05
  -1.69500001E-02  -6.23405649E-05
  -1.68999992E-02  -6.39871723E-05
  -1.68500002E-02  -6.56342454E-05
  -1.67999994E-02  -6.72651804E-05
  -1.67500004E-02  -6.88809014E-05
  -1.66999996E-02  -7.04989216E-05
  -1.66500006E-02  -7.21447941E-05
  -1.65999997E-02  -7.38410235E-05
  -1.65500008E-02  -7.55984729E-05
  -1.64999999E-02  -7.74101936E-05
  -1.64500009E-02  -7.92534556E-05
  -1.64000001E-02  -8.11009959E-05
  -1.63499992E-02  -8.29342389E-05
  -1.63000003E-02  -8.47527335E-05
  -1.62499994E-02  -8.65737966E-05
  -1.62000004E-02  -8.84248730E-05
  -1.61499996E-02  -9.03312975E-05
  -1.61000006E-02  -9.23054977E-05
  -1.60499997E-02  -9.43428167E-05
  -1.60000008E-02  -9.64243009E-05
  -1.59499999E-02  -9.85249935E-05
  -1.59000009E-02  -1.00624238E-04
  -1.58500001E-02  -1.02716513E-04
  -1.57999992E-02  -1.04816609E-04
  -1.57500003E-02  -1.06953557E-04
  -1.56999994E-02  -1.09156368E-04
  -1.56500004E-02  -1.11440684E-04
  -1.55999996E-02  -1.13803821E-04
  -1.55499997E-02  -1.16228817E-04
  -1.54999997E-02  -1.18691802E-04
  -1.54499998E-02  -1.21173653E-04
  -1.53999999E-02  -1.23670412E-04
  -1.53500000E-02  -1.26195155E-04
  -1.53000001E-02  -1.28775253E-04
  -1.52500002E-02  -1.31443172E-04
  -1.52000003E-02  -1.34219503E-04
  -1.51500003E-02  -1.37103911E-04
  -1.51000004E-02  -1.40079108E-04
  -1.50499996E-02  -1.43120415E-04
  -1.49999997E-02  -1.46207385E-04
  -1.49499997E-02  -1.49334854E-04
  -1.48999998E-02  -1.52516091E-04
  -1.48499999E-02  -1.55778354E-04
  -1.48000000E-02  -1.59153889E-04
  -1.47500001E-02  -1.62668031E-04
  -1.47000002E-02  -1.66327038E-04
  -1.46500003E-02  -1.70116080E-04
  -1.46000003E-02  -1.74009823E-04
  -1.45500004E-02  -1.77984344E-04
  -1.44999996E-02  -1.82030708E-04
  -1.44499997E-02  -1.86160527E-04
  -1.43999998E-02  -1.90400780E-04
  -1.43499998E-02  -1.94783308E-04
  -1.42999999E-02  -1.99333430E-04
  -1.42500000E-02  -2.04061173E-04
  -1.42000001E-02  -2.08959114E-04
  -1.41500002E-02  -2.14003987E-04
  -1.41000003E-02  -2.19168447E-04
  -1.40500003E-02  -2.24439573E-04
  -1.40000004E-02  -2.29826779E-04
  -1.39499996E-02  -2.35358180E-04
  -1.38999997E-02  -2.41067697E-04
  -1.38499998E-02  -2.46979675E-04
  -1.37999998E-02  -2.53101549E-04
  -1.37499999E-02  -2.59423396E-04
  -1.37000000E-02  -2.65925220E-04
  -1.36500001E-02  -2.72586214E-04
  -1.36000002E-02  -2.79390544E-04
  -1.35500003E-02  -2.86336232E-04
  -1.35000004E-02  -2.93444755E-04
  -1.34500004E-02  -3.00755783E-04
  -1.33999996E-02  -3.08303861E-04
  -1.33499997E-02  -3.16100661E-04
  -1.32999998E-02  -3.24132940E-04
  -1.32499998E-02  -3.32372787E-04
  -1.31999999E-02  -3.40794330E-04
  -1.31500000E-02  -3.49386159E-04
  -1.31000001E-02  -3.58154386E-04
  -1.30500002E-02  -3.67117173E-04
  -1.30000003E-02  -3.76300624E-04
  -1.29500004E-02  -3.85736581E-04
  -1.29000004E-02  -3.95447511E-04
  -1.28499996E-02  -4.05428582E-04
  -1.27999997E-02  -4.15649469E-04
  -1.27499998E-02  -4.26073035E-04
  -1.26999998E-02  -4.36678471E-04
  -1.26499999E-02  -4.47470607E-04
  -1.26000000E-02  -4.58468829E-04
  -1.25500001E-02  -4.69700724E-04
  -1.25000002E-02  -4.81195573E-04
  -1.24500003E-02  -4.92973719E-04
  -1.24000004E-02  -5.05041622E-04
  -1.23500004E-02  -5.17382170E-04
  -1.22999996E-02  -5.29963872E-04
  -1.22499997E-02  -5.42761351E-04
  -1.21999998E-02  -5.55771752E-04
  -1.21499998E-02  -5.69017488E-04
  -1.20999999E-02  -5.82531386E-04
  -1.20500000E-02  -5.96333935E-04
  -1.20000001E-02  -6.10426825E-04
  -1.19500002E-02  -6.24804758E-04
  -1.19000003E-02  -6.39452075E-04
  -1.18500004E-02  -6.54350151E-04
  -1.18000004E-02  -6.69472851E-04
  -1.17499996E-02  -6.84798288E-04
  -1.16999997E-02  -7.00342120E-04
  -1.16499998E-02  -7.16156152E-04
  -1.15999999E-02  -7.32296554E-04
  -1.15499999E-02  -7.48789462E-04
  -1.15000000E-02  -7.65628007E-04
  -1.14500001E-02  -7.82785413E-04
  -1.14000002E-02  -8.00237525E-04
  -1.13500003E-02  -8.17968976E-04
  -1.13000004E-02  -8.35968647E-04
  -1.12500004E-02  -8.54230195E-04
  -1.11999996E-02  -8.72760138E-04
  -1.11499997E-02  -8.91584088E-04
  -1.10999998E-02  -9.10734641E-04
  -1.10499999E-02  -9.30221111E-04
  -1.09999999E-02  -9.50022077E-04
  -1.09500000E-02  -9.70108493E-04
  -1.09000001E-02  -9.90457949E-04
  -1.08500002E-02  -1.01108162E-03
  -1.08000003E-02  -1.03201973E-03
  -1.07500004E-02  -1.05330918E-03
  -1.07000005E-02  -1.07497629E-03
  -1.06499996E-02  -1.09704118E-03
  -1.05999997E-02  -1.11950352E-03
  -1.05499998E-02  -1.14235457E-03
  -1.04999999E-02  -1.16557383E-03
  -1.04499999E-02  -1.18911813E-03
  -1.04000000E-02  -1.21296081E-03
  -1.03500001E-02  -1.23710465E-03
  -1.03000002E-02  -1.26158132E-03
  -1.02500003E-02  -1.28644076E-03
  -1.02000004E-02  -1.31171709E-03
  -1.01500005E-02  -1.33740902E-03
  -1.00999996E-02  -1.36349490E-03
  -1.00499997E-02  -1.38996949E-03
  -9.99999978E-03  -1.41683104E-03
  -9.94999986E-03  -1.44406501E-03
  -9.89999995E-03  -1.47166057E-03
  -9.85000003E-03  -1.49962539E-03
  -9.80000012E-03  -1.52799848E-03
  -9.75000020E-03  -1.55682990E-03
  -9.70000029E-03  -1.58612302E-03
  -9.65000037E-03  -1.61584280E-03
  -9.60000046E-03  -1.64595153E-03
  -9.54999961E-03  -1.67644862E-03
  -9.49999969E-03  -1.70735875E-03
  -9.44999978E-03  -1.73870393E-03
  -9.39999986E-03  -1.77049753E-03
  -9.34999995E-03  -1.80275959E-03
  -9.30000003E-03  -1.83554075E-03
  -9.25000012E-03  -1.86886790E-03
  -9.20000020E-03  -1.90272962E-03
  -9.15000029E-03  -1.93708565E-03
  -9.10000037E-03  -1.97187881E-03
  -9.05000046E-03  -2.00709375E-03
  -8.99999961E-03  -2.04275921E-03
  -8.94999970E-03  -2.07891106E-03
  -8.89999978E-03  -2.11556512E-03
  -8.84999987E-03  -2.15274282E-03
  -8.79999995E-03  -2.19045114E-03
  -8.75000004E-03  -2.22867844E-03
  -8.70000012E-03  -2.26744497E-03
  -8.65000021E-03  -2.30675307E-03
  -8.60000029E-03  -2.34655757E-03
  -8.55000038E-03  -2.38682935E-03
  -8.50000046E-03  -2.42760498E-03
  -8.44999962E-03  -2.46896152E-03
  -8.39999970E-03  -2.51096883E-03
  -8.34999979E-03  -2.55363598E-03
  -8.29999987E-03  -2.59691710E-03
  -8.24999996E-03  -2.64075212E-03
  -8.20000004E-03  -2.68514105E-03
  -8.15000013E-03  -2.73015001E-03
  -8.10000021E-03  -2.77582090E-03
  -8.05000030E-03  -2.82209134E-03
  -8.00000038E-03  -2.86893710E-03
  -7.95000046E-03  -2.91643315E-03
  -7.89999962E-03  -2.96466937E-03
  -7.84999970E-03  -3.01366160E-03
  -7.79999979E-03  -3.06331227E-03
  -7.74999987E-03  -3.11353127E-03
  -7.69999996E-03  -3.16434610E-03
  -7.65000004E-03  -3.21584963E-03
  -7.60000013E-03  -3.26810218E-03
  -7.55000021E-03  -3.32112401E-03
  -7.49999983E-03  -3.37488647E-03
  -7.44999992E-03  -3.42936069E-03
  -7.40000000E-03  -3.48459091E-03
  -7.35000009E-03  -3.54065909E-03
  -7.30000017E-03  -3.59754218E-03
  -7.24999979E-03  -3.65509745E-03
  -7.19999988E-03  -3.71327321E-03
  -7.14999996E-03  -3.77217284E-03
  -7.10000005E-03  -3.83196282E-03
  -7.05000013E-03  -3.89272440E-03
  -7.00000022E-03  -3.95437935E-03
  -6.94999984E-03  -4.01680777E-03
  -6.89999992E-03  -4.08002967E-03
  -6.85000001E-03  -4.14418802E-03
  -6.80000009E-03  -4.20933450E-03
  -6.75000018E-03  -4.27537458E-03
  -6.69999979E-03  -4.34220815E-03
  -6.64999988E-03  -4.40985337E-03
  -6.59999996E-03  -4.47851140E-03
  -6.55000005E-03  -4.54832613E-03
  -6.50000013E-03  -4.61920584E-03
  -6.45000022E-03  -4.69097821E-03
  -6.39999984E-03  -4.76352079E-03
  -6.34999992E-03  -4.83689457E-03
  -6.30000001E-03  -4.91131842E-03
  -6.25000009E-03  -4.98690456E-03
  -6.20000018E-03  -5.06352773E-03
  -6.14999980E-03  -5.14105707E-03
  -6.09999988E-03  -5.21957222E-03
  -6.04999997E-03  -5.29926782E-03
  -6.00000005E-03  -5.38016809E-03
  -5.95000014E-03  -5.46211144E-03
  -5.90000022E-03  -5.54494234E-03
  -5.84999984E-03  -5.62870177E-03
  -5.79999993E-03  -5.71360160E-03
  -5.75000001E-03  -5.79981413E-03
  -5.70000010E-03  -5.88729838E-03
  -5.65000018E-03  -5.97595237E-03
  -5.59999980E-03  -6.06575562E-03
  -5.54999989E-03  -6.15676446E-03
  -5.49999997E-03  -6.24904456E-03
  -5.45000006E-03  -6.34247204E-03
  -5.40000014E-03  -6.43689185E-03
  -5.35000023E-03  -6.53237849E-03
  -5.29999984E-03  -6.62908517E-03
  -5.24999993E-03  -6.72711479E-03
  -5.20000001E-03  -6.82652276E-03
  -5.15000010E-03  -6.92721363E-03
  -5.10000018E-03  -7.02904956E-03
  -5.04999980E-03  -7.13197049E-03
  -4.99999989E-03  -7.23600434E-03
  -4.94999997E-03  -7.34124007E-03
  -4.90000006E-03  -7.44775962E-03
  -4.85000014E-03  -7.55562074E-03
  -4.80000023E-03  -7.66480528E-03
  -4.74999985E-03  -7.77529925E-03
  -4.69999993E-03  -7.88720697E-03
  -4.65000002E-03  -8.00059736E-03
  -4.60000010E-03  -8.11534375E-03
  -4.55000019E-03  -8.23124032E-03
  -4.49999981E-03  -8.34827684E-03
  -4.44999989E-03  -8.46660137E-03
  -4.39999998E-03  -8.58636573E-03
  -4.35000006E-03  -8.70760437E-03
  -4.30000015E-03  -8.83029867E-03
  -4.25000023E-03  -8.95437039E-03
  -4.19999985E-03  -9.07978974E-03
  -4.14999994E-03  -9.20650084E-03
  -4.10000002E-03  -9.33442265E-03
  -4.05000011E-03  -9.46359895E-03
  -4.00000019E-03  -9.59395058E-03
  -3.94999981E-03  -9.72557254E-03
  -3.89999989E-03  -9.85871907E-03
  -3.84999998E-03  -9.99349914E-03
  -3.80000006E-03  -1.01298718E-02
  -3.74999992E-03  -1.02675492E-02
  -3.70000000E-03  -1.04064466E-02
  -3.65000009E-03  -1.05467020E-02
  -3.59999994E-03  -1.06883124E-02
  -3.55000002E-03  -1.08312117E-02
  -3.50000011E-03  -1.09754698E-02
  -3.44999996E-03  -1.11213401E-02
  -3.40000005E-03  -1.12688746E-02
  -3.34999990E-03  -1.14180073E-02
  -3.29999998E-03  -1.15686767E-02
  -3.25000007E-03  -1.17207589E-02
  -3.19999992E-03  -1.18740611E-02
  -3.15000000E-03  -1.20286513E-02
  -3.10000009E-03  -1.21846674E-02
  -3.04999994E-03  -1.23420926E-02
  -3.00000003E-03  -1.25010535E-02
  -2.95000011E-03  -1.26617206E-02
  -2.89999996E-03  -1.28239980E-02
  -2.85000005E-03  -1.29877385E-02
  -2.79999990E-03  -1.31529663E-02
  -2.74999999E-03  -1.33194383E-02
  -2.70000007E-03  -1.34869600E-02
  -2.64999992E-03  -1.36558386E-02
  -2.60000001E-03  -1.38262864E-02
  -2.55000009E-03  -1.39983390E-02
  -2.49999994E-03  -1.41721200E-02
  -2.45000003E-03  -1.43475365E-02
  -2.40000011E-03  -1.45246470E-02
  -2.34999997E-03  -1.47035634E-02
  -2.30000005E-03  -1.48839029E-02
  -2.24999990E-03  -1.50652910E-02
  -2.19999999E-03  -1.52478004E-02
  -2.15000007E-03  -1.54318614E-02
  -2.09999993E-03  -1.56178037E-02
  -2.05000001E-03  -1.58056244E-02
  -2.00000009E-03  -1.59951523E-02
  -1.94999995E-03  -1.61862411E-02
  -1.90000003E-03  -1.63788125E-02
  -1.85000000E-03  -1.65727809E-02
  -1.79999997E-03  -1.67680308E-02
  -1.75000005E-03  -1.69645697E-02
  -1.70000002E-03  -1.71624348E-02
  -1.64999999E-03  -1.73618197E-02
  -1.59999996E-03  -1.75631903E-02
  -1.55000004E-03  -1.77665576E-02
  -1.50000001E-03  -1.79714933E-02
  -1.44999998E-03  -1.81778856E-02
  -1.39999995E-03  -1.83857847E-02
  -1.35000004E-03  -1.85950827E-02
  -1.30000000E-03  -1.88056994E-02
  -1.24999997E-03  -1.90175734E-02
  -1.20000006E-03  -1.92310046E-02
  -1.15000003E-03  -1.94463152E-02
  -1.09999999E-03  -1.96636971E-02
  -1.04999996E-03  -1.98830552E-02
  -1.00000005E-03  -2.01037303E-02
  -9.50000016E-04  -2.03255117E-02
  -8.99999985E-04  -2.05487534E-02
  -8.50000011E-04  -2.07735263E-02
  -7.99999980E-04  -2.09995899E-02
  -7.50000007E-04  -2.12268736E-02
  -6.99999975E-04  -2.14558206E-02
  -6.50000002E-04  -2.16868594E-02
  -6.00000028E-04  -2.19199564E-02
  -5.49999997E-04  -2.21546777E-02
  -5.00000024E-04  -2.23903451E-02
  -4.49999992E-04  -2.26268601E-02
  -3.99999990E-04  -2.28648428E-02
  -3.49999988E-04  -2.31044330E-02
  -3.00000014E-04  -2.33452991E-02
  -2.50000012E-04  -2.35874988E-02
  -1.99999995E-04  -2.38311514E-02
  -1.50000007E-04  -2.40766387E-02
  -9.99999975E-05  -2.43241321E-02
  -4.99999987E-05  -2.45731566E-02
   0.00000000      -2.48228721E-02
   4.99999987E-05  -2.50732861E-02
   9.99999975E-05  -2.53248587E-02
   1.50000007E-04  -2.55780201E-02
   1.99999995E-04  -2.58331932E-02
   2.50000012E-04  -2.60901581E-02
   3.00000014E-04  -2.63486598E-02
   3.49999988E-04  -2.66083367E-02
   3.99999990E-04  -2.68691927E-02
   4.49999992E-04  -2.71311086E-02
   5.00000024E-04  -2.73937397E-02
   5.49999997E-04  -2.76571717E-02
   6.00000028E-04  -2.79219002E-02
   6.50000002E-04  -2.81877890E-02
   6.99999975E-04  -2.84548067E-02
   7.50000007E-04  -2.87233666E-02
   7.99999980E-04  -2.89935395E-02
   8.50000011E-04  -2.92649437E-02
   8.99999985E-04  -2.95366980E-02
   9.50000016E-04  -2.98086777E-02
   1.00000005E-03  -3.00811045E-02
   1.04999996E-03  -3.03544216E-02
   1.09999999E-03  -3.06293704E-02
   1.15000003E-03  -3.09059825E-02
   1.20000006E-03  -3.11837476E-02
   1.24999997E-03  -3.14625278E-02
   1.30000000E-03  -3.17421779E-02
   1.35000004E-03  -3.20223458E-02
   1.39999995E-03  -3.23024020E-02
   1.44999998E-03  -3.25822309E-02
   1.50000001E-03  -3.28626074E-02
   1.55000004E-03  -3.31441872E-02
   1.59999996E-03  -3.34270634E-02
   1.64999999E-03  -3.37104797E-02
   1.70000002E-03  -3.39942463E-02
   1.75000005E-03  -3.42784859E-02
   1.79999997E-03  -3.45626548E-02
   1.85000000E-03  -3.48466933E-02
   1.90000003E-03  -3.51305529E-02
   1.94999995E-03  -3.54140811E-02
   2.00000009E-03  -3.56974825E-02
   2.05000001E-03  -3.59809808E-02
   2.09999993E-03  -3.62650491E-02
   2.15000007E-03  -3.65497619E-02
   2.19999999E-03  -3.68346684E-02
   2.24999990E-03  -3.71187292E-02
   2.30000005E-03  -3.74011695E-02
   2.34999997E-03  -3.76829132E-02
   2.40000011E-03  -3.79650071E-02
   2.45000003E-03  -3.82473357E-02
   2.49999994E-03  -3.85286920E-02
   2.55000009E-03  -3.88086475E-02
   2.60000001E-03  -3.90881002E-02
   2.64999992E-03  -3.93672809E-02
   2.70000007E-03  -3.96459326E-02
   2.74999999E-03  -3.99233475E-02
   2.79999990E-03  -4.01981398E-02