  -3.99999991E-02   0.00000000    
  -3.99499983E-02   0.00000000    
  -3.99000011E-02   0.00000000    
  -3.98500003E-02   0.00000000    
  -3.97999994E-02   1.57890788E-18
  -3.97499986E-02   1.86727321E-17
  -3.97000015E-02   1.14555462E-16
  -3.96500006E-02   4.83468142E-16
  -3.95999998E-02   1.57097210E-15
  -3.95499989E-02   4.17166606E-15
  -3.95000018E-02   9.38479471E-15
  -3.94500010E-02   1.83087086E-14
  -3.94000001E-02   3.14711907E-14
  -3.93499993E-02   4.82167712E-14
  -3.92999984E-02   6.64896605E-14
  -3.92500013E-02   8.34689577E-14
  -3.92000005E-02   9.71782198E-14
  -3.91499996E-02   1.08551094E-13
  -3.90999988E-02   1.22809017E-13
  -3.90500017E-02   1.48876679E-13
  -3.90000008E-02   1.96257683E-13
  -3.89500000E-02   2.70185838E-13
  -3.88999991E-02   3.67286849E-13
  -3.88499983E-02   4.74509429E-13
  -3.88000011E-02   5.73089048E-13
  -3.87500003E-02   6.46931727E-13
  -3.86999995E-02   6.92046030E-13
  -3.86499986E-02   7.21990339E-13
  -3.86000015E-02   7.65010559E-13
  -3.85500006E-02   8.51905081E-13
  -3.84999998E-02   9.98563211E-13
  -3.84499989E-02   1.19124437E-12
  -3.84000018E-02   1.38339687E-12
  -3.83500010E-02   1.50879634E-12
  -3.83000001E-02   1.50805442E-12
  -3.82499993E-02   1.35767721E-12
  -3.81999984E-02   1.08721224E-12
  -3.81500013E-02   7.73472107E-13
  -3.81000005E-02   5.10654670E-13
  -3.80499996E-02   3.67124327E-13
  -3.79999988E-02   3.47818183E-13
  -3.79500017E-02   3.81067655E-13
  -3.79000008E-02   3.39193951E-13
  -3.78500000E-02   8.70565488E-14
  -3.77999991E-02  -4.61474066E-13
  -3.77499983E-02  -1.30514599E-12
  -3.77000012E-02  -2.35482944E-12
  -3.76500003E-02  -3.47385879E-12
  -3.75999995E-02  -4.54234393E-12
  -3.75499986E-02  -5.51583692E-12
  -3.75000015E-02  -6.45015421E-12
  -3.74500006E-02  -7.47956558E-12
  -3.73999998E-02  -8.75728136E-12
  -3.73499990E-02  -1.03843479E-11
  -3.73000018E-02  -1.23574519E-11
  -3.72500010E-02  -1.45565417E-11
  -3.72000001E-02  -1.67752617E-11
  -3.71499993E-02  -1.87797989E-11
  -3.70999984E-02  -2.03730349E-11
  -3.70500013E-02  -2.14435518E-11
  -3.70000005E-02  -2.19898353E-11
  -3.69499996E-02  -2.21211400E-11
  -3.68999988E-02  -2.20405378E-11
  -3.68500017E-02  -2.20109556E-11
  -3.68000008E-02  -2.22980783E-11
  -3.67500000E-02  -2.30859082E-11
  -3.66999991E-02  -2.43771062E-11
  -3.66499983E-02  -2.59150982E-11
  -3.66000012E-02  -2.71804419E-11
  -3.65500003E-02  -2.75013450E-11
  -3.64999995E-02  -2.62720366E-11
  -3.64499986E-02  -2.32088671E-11
  -3.64000015E-02  -1.85257521E-11
  -3.63500006E-02  -1.29127065E-11
  -3.62999998E-02  -7.27002746E-12
  -3.62499990E-02  -2.26818239E-12
  -3.62000018E-02   2.08004924E-12
  -3.61500010E-02   6.59949439E-12
  -3.61000001E-02   1.27159932E-11
  -3.60499993E-02   2.18148728E-11
  -3.59999985E-02   3.44312009E-11
  -3.59500013E-02   4.96651852E-11
  -3.59000005E-02   6.51986104E-11
  -3.58499996E-02   7.80622164E-11
  -3.57999988E-02   8.59424545E-11
  -3.57500017E-02   8.84811530E-11
  -3.57000008E-02   8.78975712E-11
  -3.56500000E-02   8.84601836E-11
  -3.55999991E-02   9.48205056E-11
  -3.55499983E-02   1.09803701E-10
  -3.55000012E-02   1.32650502E-10
  -3.54500003E-02   1.58678404E-10
  -3.53999995E-02   1.80804205E-10
  -3.53499986E-02   1.92514837E-10
  -3.53000015E-02   1.91066135E-10
  -3.52500007E-02   1.79351270E-10
  -3.51999998E-02   1.65274072E-10
  -3.51499990E-02   1.58512134E-10
  -3.51000018E-02   1.65844144E-10
  -3.50500010E-02   1.87132476E-10
  -3.50000001E-02   2.14073828E-10
  -3.49499993E-02   2.32799724E-10
  -3.48999985E-02   2.29673086E-10
  -3.48500013E-02   1.97936528E-10
  -3.48000005E-02   1.42074769E-10
  -3.47499996E-02   7.73909201E-11
  -3.46999988E-02   2.42741435E-11
  -3.46500017E-02  -8.28848492E-13
  -3.46000008E-02   6.18844689E-12
  -3.45500000E-02   3.35090705E-11
  -3.44999991E-02   5.70358032E-11
  -3.44499983E-02   5.04693301E-11
  -3.44000012E-02  -2.22320621E-12
  -3.43500003E-02  -9.77039838E-11
  -3.42999995E-02  -2.12398696E-10
  -3.42499986E-02  -3.11360521E-10
  -3.42000015E-02  -3.63800295E-10
  -3.41500007E-02  -3.58567925E-10
  -3.40999998E-02  -3.12028320E-10
  -3.40499990E-02  -2.63519262E-10
  -3.40000018E-02  -2.59023081E-10
  -3.39500010E-02  -3.29502314E-10
  -3.39000002E-02  -4.73746986E-10
  -3.38499993E-02  -6.54600096E-10
  -3.37999985E-02  -8.12016399E-10
  -3.37500013E-02  -8.88676910E-10
  -3.37000005E-02  -8.57314608E-10
  -3.36499996E-02  -7.36816275E-10
  -3.35999988E-02  -5.88088578E-10
  -3.35500017E-02  -4.89393193E-10
  -3.35000008E-02  -5.00703590E-10
  -3.34500000E-02  -6.32974451E-10
  -3.33999991E-02  -8.37600600E-10
  -3.33499983E-02  -1.02330200E-09
  -3.33000012E-02  -1.09527032E-09
  -3.32500003E-02  -1.00017350E-09
  -3.31999995E-02  -7.56071539E-10
  -3.31499986E-02  -4.51336385E-10
  -3.31000015E-02  -2.09866610E-10
  -3.30500007E-02  -1.35737227E-10
  -3.29999998E-02  -2.61588640E-10
  -3.29499990E-02  -5.25724519E-10
  -3.29000019E-02  -7.91685661E-10
  -3.28500010E-02  -9.05182929E-10
  -3.28000002E-02  -7.64985353E-10
  -3.27499993E-02  -3.75464909E-10
  -3.26999985E-02   1.45846349E-10
  -3.26500013E-02   6.13444628E-10
  -3.26000005E-02   8.55198412E-10
  -3.25499997E-02   7.94557420E-10
  -3.24999988E-02   4.94720931E-10
  -3.24500017E-02   1.40418205E-10
  -3.24000008E-02  -3.95998651E-11
  -3.23500000E-02   1.22153468E-10
  -3.22999991E-02   6.46311338E-10
  -3.22499983E-02   1.38307177E-09
  -3.22000012E-02   2.06724082E-09
  -3.21500003E-02   2.43271425E-09
  -3.20999995E-02   2.33741715E-09
  -3.20499986E-02   1.84058357E-09
  -3.20000015E-02   1.19185228E-09
  -3.19500007E-02   7.29905747E-10
  -3.18999998E-02   7.30887795E-10
  -3.18499990E-02   1.27381727E-09
  -3.18000019E-02   2.18766671E-09
  -3.17500010E-02   3.11150949E-09
  -3.17000002E-02   3.64840758E-09
  -3.16499993E-02   3.54808827E-09
  -3.15999985E-02   2.83484236E-09
  -3.15500014E-02   1.81636495E-09
  -3.15000005E-02   9.60290847E-10
  -3.14499997E-02   6.86335266E-10
  -3.13999988E-02   1.16524346E-09
  -3.13500017E-02   2.21941532E-09
  -3.13000008E-02   3.37942230E-09
  -3.12500000E-02   4.08151735E-09
  -3.11999992E-02   3.92401711E-09
  -3.11500002E-02   2.86686253E-09
  -3.10999993E-02   1.27689359E-09
  -3.10500003E-02  -2.13382631E-10
  -3.09999995E-02  -9.80820314E-10
  -3.09500005E-02  -7.01508684E-10
  -3.08999997E-02   4.78668272E-10
  -3.08500007E-02   1.98047956E-09
  -3.07999998E-02   3.03183856E-09
  -3.07500008E-02   3.01394842E-09
  -3.07000000E-02   1.75884074E-09
  -3.06499992E-02  -3.43513717E-10
  -3.06000002E-02  -2.49088061E-09
  -3.05499993E-02  -3.81577570E-09
  -3.05000003E-02  -3.78518727E-09
  -3.04499995E-02  -2.47021803E-09
  -3.04000005E-02  -5.51741208E-10
  -3.03499997E-02   9.57435353E-10
  -3.03000007E-02   1.16269094E-09
  -3.02499998E-02  -2.88373603E-10
  -3.02000009E-02  -3.00661940E-09
  -3.01500000E-02  -5.99330630E-09
  -3.00999992E-02  -8.06247602E-09
  -3.00500002E-02  -8.37567082E-09
  -2.99999993E-02  -6.84798440E-09
  -2.99500003E-02  -4.22968105E-09
  -2.98999995E-02  -1.80651560E-09
  -2.98500005E-02  -8.35203851E-10
  -2.97999997E-02  -1.96002481E-09
  -2.97500007E-02  -4.87944929E-09
  -2.96999998E-02  -8.43129833E-09
  -2.96500009E-02  -1.10807932E-08
  -2.96000000E-02  -1.16084937E-08
  -2.95499992E-02  -9.69129132E-09
  -2.95000002E-02  -6.10194562E-09
  -2.94499993E-02  -2.41382936E-09
  -2.94000003E-02  -3.19933163E-10
  -2.93499995E-02  -8.59294413E-10
  -2.93000005E-02  -3.90265287E-09
  -2.92499997E-02  -8.14834422E-09
  -2.92000007E-02  -1.16574315E-08
  -2.91499998E-02  -1.27100268E-08
  -2.91000009E-02  -1.06053042E-08
  -2.90500000E-02  -6.03419625E-09
  -2.89999992E-02  -8.31528790E-10
  -2.89500002E-02   2.80971180E-09
  -2.88999993E-02   3.32757422E-09
  -2.88500004E-02   5.39049694E-10
  -2.87999995E-02  -4.20910284E-09
  -2.87500005E-02  -8.58530758E-09
  -2.86999997E-02  -1.02974349E-08
  -2.86500007E-02  -8.14896151E-09
  -2.85999998E-02  -2.64337574E-09
  -2.85500009E-02   4.16254586E-09
  -2.85000000E-02   9.52523038E-09
  -2.84499992E-02   1.12371916E-08
  -2.84000002E-02   8.66234195E-09
  -2.83499993E-02   3.10031911E-09
  -2.83000004E-02  -2.71826117E-09
  -2.82499995E-02  -5.81444715E-09
  -2.82000005E-02  -4.31101466E-09
  -2.81499997E-02   1.66031844E-09
  -2.81000007E-02   9.92934268E-09
  -2.80499998E-02   1.71878618E-08
  -2.80000009E-02   2.04492920E-08
  -2.79500000E-02   1.84243731E-08
  -2.78999992E-02   1.21804362E-08
  -2.78500002E-02   4.75210493E-09
  -2.77999993E-02  -1.63592903E-10
  -2.77500004E-02   1.29531719E-10
  -2.76999995E-02   6.04971540E-09
  -2.76500005E-02   1.54457105E-08
  -2.75999997E-02   2.44652725E-08
  -2.75500007E-02   2.92358404E-08
  -2.74999999E-02   2.76246777E-08
  -2.74500009E-02   2.02794403E-08
  -2.74000000E-02   1.04459330E-08
  -2.73499992E-02   2.59678412E-09
  -2.73000002E-02   4.48021564E-10
  -2.72499993E-02   5.24208188E-09
  -2.72000004E-02   1.50887995E-08
  -2.71499995E-02   2.57050612E-08
  -2.71000005E-02   3.22702256E-08
  -2.70499997E-02   3.15959952E-08
  -2.70000007E-02   2.36358151E-08
  -2.69499999E-02   1.16227445E-08
  -2.69000009E-02   7.21664617E-10
  -2.68500000E-02  -4.24682023E-09
  -2.67999992E-02  -1.01094277E-09
  -2.67500002E-02   9.02351971E-09
  -2.66999993E-02   2.12726459E-08
  -2.66500004E-02   2.99345864E-08
  -2.65999995E-02   3.05739611E-08
  -2.65500005E-02   2.21803518E-08
  -2.64999997E-02   7.74839037E-09
  -2.64500007E-02  -6.93596425E-09
  -2.63999999E-02  -1.58158660E-08
  -2.63500009E-02  -1.52941642E-08
  -2.63000000E-02  -5.94428462E-09
  -2.62499992E-02   7.60848540E-09
  -2.62000002E-02   1.86439646E-08
  -2.61499994E-02   2.13183160E-08
  -2.61000004E-02   1.33385285E-08
  -2.60499995E-02  -2.88044832E-09
  -2.60000005E-02  -2.11500453E-08
  -2.59499997E-02  -3.41802959E-08
  -2.59000007E-02  -3.68382373E-08
  -2.58499999E-02  -2.85377713E-08
  -2.58000009E-02  -1.36520386E-08
  -2.57500000E-02   3.02235903E-10
  -2.56999992E-02   5.95965144E-09
  -2.56500002E-02  -5.60922586E-10
  -2.55999994E-02  -1.77894304E-08
  -2.55500004E-02  -3.93926527E-08
  -2.54999995E-02  -5.68703378E-08
  -2.54500005E-02  -6.33108996E-08
  -2.53999997E-02  -5.65445859E-08
  -2.53500007E-02  -4.02534042E-08
  -2.52999999E-02  -2.24756338E-08
  -2.52500009E-02  -1.21017445E-08
  -2.52000000E-02  -1.48824517E-08
  -2.51499992E-02  -3.07349950E-08
  -2.51000002E-02  -5.36006937E-08
  -2.50499994E-02  -7.39927799E-08
  -2.50000004E-02  -8.31647782E-08
  -2.49499995E-02  -7.70676252E-08
  -2.49000005E-02  -5.83060462E-08
  -2.48499997E-02  -3.51553560E-08
  -2.48000007E-02  -1.79972641E-08
  -2.47499999E-02  -1.47063997E-08
  -2.47000009E-02  -2.70351563E-08
  -2.46500000E-02  -4.96519768E-08
  -2.45999992E-02  -7.23394749E-08
  -2.45500002E-02  -8.44500079E-08
  -2.44999994E-02  -7.96754804E-08
  -2.44500004E-02  -5.89941855E-08
  -2.43999995E-02  -3.04197769E-08
  -2.43500005E-02  -5.57992763E-09
  -2.42999997E-02   5.42050760E-09
  -2.42500007E-02  -1.41325152E-09
  -2.41999999E-02  -2.20062173E-08
  -2.41500009E-02  -4.58320670E-08
  -2.41000000E-02  -6.04757986E-08
  -2.40499992E-02  -5.71661758E-08
  -2.40000002E-02  -3.48163667E-08
  -2.39499994E-02  -7.18593685E-10
  -2.39000004E-02   3.25050244E-08
  -2.38499995E-02   5.24207735E-08
  -2.38000005E-02   5.23546362E-08
  -2.37499997E-02   3.45165745E-08
  -2.37000007E-02   9.21488130E-09
  -2.36499999E-02  -9.58230473E-09
  -2.36000009E-02  -1.04343423E-08
  -2.35500000E-02   1.03708393E-08
  -2.34999992E-02   4.69597801E-08
  -2.34500002E-02   8.62731611E-08
  -2.33999994E-02   1.13744974E-07
  -2.33500004E-02   1.19788950E-07
  -2.32999995E-02   1.04199628E-07
  -2.32500006E-02   7.64445574E-08
  -2.31999997E-02   5.16223579E-08
  -2.31500007E-02   4.38007675E-08
  -2.30999999E-02   5.96640959E-08
  -2.30500009E-02   9.53272234E-08
  -2.30000000E-02   1.37816272E-07
  -2.29499992E-02   1.70655909E-07
  -2.29000002E-02   1.81148778E-07
  -2.28499994E-02   1.66120273E-07
  -2.28000004E-02   1.33520714E-07
  -2.27499995E-02   9.90779370E-08
  -2.27000006E-02   7.93965711E-08
  -2.26499997E-02   8.45227603E-08
  -2.26000007E-02   1.13295975E-07
  -2.25499999E-02   1.53629486E-07
  -2.25000009E-02   1.87695022E-07
  -2.24500000E-02   1.99787124E-07
  -2.23999992E-02   1.83396082E-07
  -2.23500002E-02   1.44303414E-07
  -2.22999994E-02   9.82320500E-08
  -2.22500004E-02   6.39957136E-08
  -2.21999995E-02   5.51285950E-08
  -2.21500006E-02   7.37158175E-08
  -2.20999997E-02   1.09230619E-07
  -2.20500007E-02   1.42995518E-07
  -2.19999999E-02   1.56376245E-07
  -2.19500009E-02   1.39109204E-07
  -2.19000001E-02   9.40365581E-08
  -2.18499992E-02   3.60642716E-08
  -2.18000002E-02  -1.42941117E-08
  -2.17499994E-02  -3.99930542E-08
  -2.17000004E-02  -3.51321390E-08
  -2.16499995E-02  -7.77291298E-09
  -2.16000006E-02   2.34493598E-08
  -2.15499997E-02   3.75079701E-08
  -2.15000007E-02   2.03786996E-08
  -2.14499999E-02  -2.85404234E-08
  -2.14000009E-02  -9.59071400E-08
  -2.13500001E-02  -1.60141369E-07
  -2.12999992E-02  -2.00907365E-07
  -2.12500002E-02  -2.08188538E-07
  -2.11999994E-02  -1.86887647E-07
  -2.11500004E-02  -1.54824548E-07
  -2.10999995E-02  -1.34926395E-07
  -2.10500006E-02  -1.45016656E-07
  -2.09999997E-02  -1.89735346E-07
  -2.09500007E-02  -2.58235588E-07
  -2.08999999E-02  -3.28769346E-07
  -2.08500009E-02  -3.78208000E-07
  -2.08000001E-02  -3.92306731E-07
  -2.07499992E-02  -3.72130074E-07
  -2.07000002E-02  -3.33712848E-07
  -2.06499994E-02  -3.01017508E-07
  -2.06000004E-02  -2.95250231E-07
  -2.05499995E-02  -3.25270435E-07
  -2.05000006E-02  -3.83398429E-07
  -2.04499997E-02  -4.48566908E-07
  -2.04000007E-02  -4.95500160E-07
  -2.03499999E-02  -5.05891478E-07
  -2.03000009E-02  -4.76605408E-07
  -2.02500001E-02  -4.21203879E-07
  -2.01999992E-02  -3.64036396E-07
  -2.01500002E-02  -3.29452746E-07
  -2.00999994E-02  -3.30904584E-07
  -2.00500004E-02  -3.64805487E-07
  -1.99999996E-02  -4.11941812E-07
  -1.99500006E-02  -4.45879607E-07
  -1.98999997E-02  -4.44679301E-07
  -1.98500007E-02  -4.00713617E-07
  -1.97999999E-02  -3.24183304E-07
  -1.97500009E-02  -2.38701602E-07
  -1.97000001E-02  -1.70849546E-07
  -1.96499992E-02  -1.38317361E-07
  -1.96000002E-02  -1.41920793E-07
  -1.95499994E-02  -1.65093923E-07
  -1.95000004E-02  -1.81147158E-07
  -1.94499996E-02  -1.65111075E-07
  -1.94000006E-02  -1.04911770E-07
  -1.93499997E-02  -6.88349200E-09
  -1.93000007E-02   1.06883022E-07
  -1.92499999E-02   2.08228755E-07
  -1.92000009E-02   2.75370894E-07
  -1.91500001E-02   3.02562029E-07
  -1.90999992E-02   3.02639251E-07
  -1.90500002E-02   3.01286974E-07
  -1.89999994E-02   3.25530095E-07
  -1.89500004E-02   3.91570836E-07
  -1.88999996E-02   4.97397707E-07
  -1.88500006E-02   6.23490109E-07
  -1.87999997E-02   7.41339818E-07
  -1.87500007E-02   8.26014400E-07
  -1.86999999E-02   8.67168922E-07
  -1.86500009E-02   8.73583190E-07
  -1.86000001E-02   8.69174301E-07
  -1.85499992E-02   8.82235781E-07
  -1.85000002E-02   9.32685907E-07
  -1.84499994E-02   1.02301237E-06
  -1.84000004E-02   1.13696058E-06
  -1.83499996E-02   1.24656628E-06
  -1.83000006E-02   1.32440869E-06
  -1.82499997E-02   1.35562789E-06
  -1.82000007E-02   1.34434333E-06
  -1.81499999E-02   1.31160903E-06
  -1.81000009E-02   1.28582235E-06
  -1.80500001E-02   1.28986528E-06
  -1.79999992E-02   1.33071524E-06
  -1.79500002E-02   1.39616679E-06
  -1.78999994E-02   1.46011905E-06
  -1.78500004E-02   1.49405639E-06
  -1.77999996E-02   1.47959759E-06
  -1.77500006E-02   1.41651083E-06
  -1.76999997E-02   1.32262142E-06
  -1.76500008E-02   1.22568031E-06
  -1.75999999E-02   1.15084026E-06
  -1.75500009E-02   1.10932422E-06
  -1.75000001E-02   1.09335087E-06
  -1.74499992E-02   1.07954440E-06
  -1.74000002E-02   1.03927459E-06
  -1.73499994E-02   9.51279560E-07
  -1.73000004E-02   8.10930771E-07
  -1.72499996E-02   6.32039701E-07
  -1.72000006E-02   4.40431904E-07
  -1.71499997E-02   2.62223438E-07
  -1.71000008E-02   1.12064946E-07
  -1.70499999E-02  -1.33993883E-08
  -1.70000009E-02  -1.33974694E-07
  -1.69500001E-02  -2.77016312E-07
  -1.68999992E-02  -4.65209354E-07
  -1.68500002E-02  -7.06517767E-07
  -1.67999994E-02  -9.90768058E-07
  -1.67500004E-02  -1.29433261E-06
  -1.66999996E-02  -1.59074591E-06
  -1.66500006E-02  -1.86246598E-06
  -1.65999997E-02  -2.10853523E-06
  -1.65500008E-02  -2.34474146E-06
  -1.64999999E-02  -2.59632475E-06
  -1.64500009E-02  -2.88654655E-06
  -1.64000001E-02  -3.22626624E-06
  -1.63499992E-02  -3.60922490E-06
  -1.63000003E-02  -4.01500301E-06
  -1.62499994E-02  -4.41822340E-06
  -1.62000004E-02  -4.79985192E-06
  -1.61499996E-02  -5.15547572E-06
  -1.61000006E-02  -5.49689412E-06
  -1.60499997E-02  -5.84642748E-06
  -1.60000008E-02  -6.22659172E-06
  -1.59499999E-02  -6.64984873E-06
  -1.59000009E-02  -7.11303301E-06
  -1.58500001E-02  -7.59881641E-06
  -1.57999992E-02  -8.08347158E-06
  -1.57500003E-02  -8.54738028E-06
  -1.56999994E-02  -8.98346207E-06
  -1.56500004E-02  -9.39983966E-06
  -1.55999996E-02  -9.81566518E-06
  -1.55499997E-02  -1.02521235E-05
  -1.54999997E-02  -1.07227515E-05
  -1.54499998E-02  -1.12274083E-05
  -1.53999999E-02  -1.17525269E-05
  -1.53500000E-02  -1.22774154E-05
  -1.53000001E-02  -1.27836183E-05
  -1.52500002E-02  -1.32630148E-05
  -1.52000003E-02  -1.37210482E-05
  -1.51500003E-02  -1.41737519E-05
  -1.51000004E-02  -1.46401308E-05
  -1.50499996E-02  -1.51333716E-05
  -1.49999997E-02  -1.56549231E-05
  -1.49499997E-02  -1.61940297E-05
  -1.48999998E-02  -1.67328562E-05
  -1.48499999E-02  -1.72546970E-05
  -1.48000000E-02  -1.77513466E-05
  -1.47500001E-02  -1.82264357E-05
  -1.47000002E-02  -1.86933648E-05
  -1.46500003E-02  -1.91688596E-05
  -1.46000003E-02  -1.96652454E-05
  -1.45500004E-02  -2.01850671E-05
  -1.44999996E-02  -2.07203793E-05
  -1.44499997E-02  -2.12569230E-05
  -1.43999998E-02  -2.17810430E-05
  -1.43499998E-02  -2.22861308E-05
  -1.42999999E-02  -2.27756136E-05
  -1.42500000E-02  -2.32611237E-05
  -1.42000001E-02  -2.37569948E-05
  -1.41500002E-02  -2.42737515E-05
  -1.41000003E-02  -2.48135166E-05
  -1.40500003E-02  -2.53696417E-05
  -1.40000004E-02  -2.59304870E-05
  -1.39499996E-02  -2.64853024E-05
  -1.38999997E-02  -2.70295768E-05
  -1.38499998E-02  -2.75672592E-05
  -1.37999998E-02  -2.81089160E-05
  -1.37499999E-02  -2.86667691E-05
  -1.37000000E-02  -2.92490804E-05
  -1.36500001E-02  -2.98568139E-05
  -1.36000002E-02  -3.04838923E-05
  -1.35500003E-02  -3.11209187E-05
  -1.35000004E-02  -3.17605227E-05
  -1.34500004E-02  -3.24016401E-05
  -1.33999996E-02  -3.30505718E-05
  -1.33499997E-02  -3.37182428E-05
  -1.32999998E-02  -3.44153123E-05
  -1.32499998E-02  -3.51474300E-05
  -1.31999999E-02  -3.59129735E-05
  -1.31500000E-02  -3.67044740E-05
  -1.31000001E-02  -3.75129857E-05
  -1.30500002E-02  -3.83333063E-05
  -1.30000003E-02  -3.91673457E-05
  -1.29500004E-02  -4.00239878E-05
  -1.29000004E-02  -4.09153981E-05
  -1.28499996E-02  -4.18514283E-05
  -1.27999997E-02  -4.28352905E-05
  -1.27499998E-02  -4.38623210E-05
  -1.26999998E-02  -4.49226864E-05
  -1.26499999E-02  -4.60069386E-05
  -1.26000000E-02  -4.71116000E-05
  -1.25500001E-02  -4.82422220E-05
  -1.25000002E-02  -4.94116066E-05
  -1.24500003E-02  -5.06346005E-05
  -1.24000004E-02  -5.19218884E-05
  -1.23500004E-02  -5.32750128E-05
  -1.22999996E-02  -5.46859264E-05
  -1.22499997E-02  -5.61412598E-05
  -1.21999998E-02  -5.76293642E-05
  -1.21499998E-02  -5.91468342E-05
  -1.20999999E-02  -6.07012262E-05
  -1.20500000E-02  -6.23086307E-05
  -1.20000001E-02  -6.39870414E-05
  -1.19500002E-02  -6.57481723E-05
  -1.19000003E-02  -6.75917254E-05
  -1.18500004E-02  -6.95057752E-05
  -1.18000004E-02  -7.14724156E-05
  -1.17499996E-02  -7.34763817E-05
  -1.16999997E-02  -7.55132132E-05
  -1.16499998E-02  -7.75926674E-05
  -1.15999999E-02  -7.97354442E-05
  -1.15499999E-02  -8.19647539E-05
  -1.15000000E-02  -8.42962472E-05
  -1.14500001E-02  -8.67309136E-05
  -1.14000002E-02  -8.92546013E-05
  -1.13500003E-02  -9.18449150E-05
  -1.13000004E-02  -9.44818094E-05
  -1.12500004E-02  -9.71576301E-05
  -1.11999996E-02  -9.98817341E-05
  -1.11499997E-02  -1.02677273E-04
  -1.10999998E-02  -1.05571278E-04
  -1.10499999E-02  -1.08582462E-04
  -1.09999999E-02  -1.11712754E-04
  -1.09500000E-02  -1.14945840E-04
  -1.09000001E-02  -1.18254691E-04
  -1.08500002E-02  -1.21614517E-04
  -1.08000003E-02  -1.25014805E-04
  -1.07500004E-02  -1.28465705E-04
  -1.07000005E-02  -1.31994719E-04
  -1.06499996E-02  -1.35635797E-04
  -1.05999997E-02  -1.39414915E-04
  -1.05499998E-02  -1.43338242E-04
  -1.04999999E-02  -1.47389816E-04
  -1.04499999E-02  -1.51539236E-04
  -1.04000000E-02  -1.55756090E-04
  -1.03500001E-02  -1.60024400E-04
  -1.03000002E-02  -1.64351033E-04
  -1.02500003E-02  -1.68764222E-04
  -1.02000004E-02  -1.73301625E-04
  -1.01500005E-02  -1.77994269E-04
  -1.00999996E-02  -1.82852484E-04
  -1.00499997E-02  -1.87861224E-04
  -9.99999978E-03  -1.92987587E-04
  -9.94999986E-03  -1.98195557E-04
  -9.89999995E-03  -2.03463860E-04
  -9.85000003E-03  -2.08796919E-04
  -9.80000012E-03  -2.14224347E-04
  -9.75000020E-03  -2.19789436E-04
  -9.70000029E-03  -2.25530792E-04
  -9.65000037E-03  -2.31466620E-04
  -9.60000046E-03  -2.37586777E-04
  -9.54999961E-03  -2.43858216E-04
  -9.49999969E-03  -2.50241254E-04
  -9.44999978E-03  -2.56709551E-04
  -9.39999986E-03  -2.63263908E-04
  -9.34999995E-03  -2.69934040E-04
  -9.30000003E-03  -2.76766776E-04
  -9.25000012E-03  -2.83806352E-04
  -9.20000020E-03  -2.91076256E-04
  -9.15000029E-03  -2.98568310E-04
  -9.10000037E-03  -3.06247530E-04
  -9.05000046E-03  -3.14069301E-04
  -8.99999961E-03  -3.22000415E-04
  -8.94999970E-03  -3.30035109E-04
  -8.89999978E-03  -3.38199665E-04
  -8.84999987E-03  -3.46543035E-04
  -8.79999995E-03  -3.55115975E-04
  -8.75000004E-03  -3.63950181E-04
  -8.70000012E-03  -3.73045419E-04
  -8.65000021E-03  -3.82371218E-04
  -8.60000029E-03  -3.91882902E-04
  -8.55000038E-03  -4.01543075E-04
  -8.50000046E-03  -4.11341462E-04
  -8.44999962E-03  -4.21302597E-04
  -8.39999970E-03  -4.31477471E-04
  -8.34999979E-03  -4.41922981E-04
  -8.29999987E-03  -4.52676701E-04
  -8.24999996E-03  -4.63743578E-04
  -8.20000004E-03  -4.75095498E-04
  -8.15000013E-03  -4.86685574E-04
  -8.10000021E-03  -4.98470908E-04
  -8.05000030E-03  -5.10434038E-04
  -8.00000038E-03  -5.22593502E-04
  -7.95000046E-03  -5.34996972E-04
  -7.89999962E-03  -5.47702541E-04
  -7.84999970E-03  -5.60754328E-04
  -7.79999979E-03  -5.74162521E-04
  -7.74999987E-03  -5.87901683E-04
  -7.69999996E-03  -6.01924839E-04
  -7.65000004E-03  -6.16186764E-04
  -7.60000013E-03  -6.30667142E-04
  -7.55000021E-03  -6.45381166E-04
  -7.49999983E-03  -6.60377904E-04
  -7.44999992E-03  -6.75719755E-04
  -7.40000000E-03  -6.91458466E-04
  -7.35000009E-03  -7.07612024E-04
  -7.30000017E-03  -7.24157202E-04
  -7.24999979E-03  -7.41046504E-04
  -7.19999988E-03  -7.58232141E-04
  -7.14999996E-03  -7.75689434E-04
  -7.10000005E-03  -7.93430430E-04
  -7.05000013E-03  -8.11501930E-04
  -7.00000022E-03  -8.29967554E-04
  -6.94999984E-03  -8.48881144E-04
  -6.89999992E-03  -8.68262665E-04
  -6.85000001E-03  -8.88093025E-04
  -6.80000009E-03  -9.08324786E-04
  -6.75000018E-03  -9.28907888E-04
  -6.69999979E-03  -9.49815207E-04
  -6.64999988E-03  -9.71055706E-04
  -6.59999996E-03  -9.92674031E-04
  -6.55000005E-03  -1.01473194E-03
  -6.50000013E-03  -1.03728310E-03
  -6.45000022E-03  -1.06035231E-03
  -6.39999984E-03  -1.08392700E-03
  -6.34999992E-03  -1.10796257E-03
  -6.30000001E-03  -1.13241083E-03
  -6.25000009E-03  -1.15724385E-03
  -6.20000018E-03  -1.18246779E-03
  -6.14999980E-03  -1.20812899E-03
  -6.09999988E-03  -1.23429450E-03
  -6.04999997E-03  -1.26101892E-03
  -6.00000005E-03  -1.28832401E-03
  -5.95000014E-03  -1.31619978E-03
  -5.90000022E-03  -1.34461024E-03
  -5.84999984E-03  -1.37351023E-03
  -5.79999993E-03  -1.40286877E-03
  -5.75000001E-03  -1.43268937E-03
  -5.70000010E-03  -1.46301242E-03
  -5.65000018E-03  -1.49390008E-03
  -5.59999980E-03  -1.52541231E-03
  -5.54999989E-03  -1.55757659E-03
  -5.49999997E-03  -1.59038173E-03
  -5.45000006E-03  -1.62378571E-03
  -5.40000014E-03  -1.65774173E-03
  -5.35000023E-03  -1.69222336E-03
  -5.29999984E-03  -1.72723806E-03
  -5.24999993E-03  -1.76283030E-03
  -5.20000001E-03  -1.79906504E-03
  -5.15000010E-03  -1.83599885E-03
  -5.10000018E-03  -1.87365874E-03
  -5.04999980E-03  -1.91203761E-03
  -4.99999989E-03  -1.95109751E-03
  -4.94999997E-03  -1.99079025E-03
  -4.90000006E-03  -2.03109020E-03
  -4.85000014E-03  -2.07200763E-03
  -4.80000023E-03  -2.11359002E-03
  -4.74999985E-03  -2.15590722E-03
  -4.69999993E-03  -2.19901884E-03
  -4.65000002E-03  -2.24294886E-03
  -4.60000010E-03  -2.28768238E-03
  -4.55000019E-03  -2.33318005E-03
  -4.49999981E-03  -2.37939367E-03
  -4.44999989E-03  -2.42628879E-03
  -4.39999998E-03  -2.47387518E-03
  -4.35000006E-03  -2.52220151E-03
  -4.30000015E-03  -2.57133925E-03
  -4.25000023E-03  -2.62135966E-03
  -4.19999985E-03  -2.67229462E-03
  -4.14999994E-03  -2.72412761E-03
  -4.10000002E-03  -2.77680997E-03
  -4.05000011E-03  -2.83027906E-03
  -4.00000019E-03  -2.88449647E-03
  -3.94999981E-03  -2.93947384E-03
  -3.89999989E-03  -2.99527450E-03
  -3.84999998E-03  -3.05198762E-03
  -3.80000006E-03  -3.10968910E-03
  -3.74999992E-03  -3.16841714E-03
  -3.70000000E-03  -3.22815147E-03
  -3.65000009E-03  -3.28882551E-03
  -3.59999994E-03  -3.35036637E-03
  -3.55000002E-03  -3.41273728E-03
  -3.50000011E-03  -3.47595452E-03
  -3.44999996E-03  -3.54007329E-03
  -3.40000005E-03  -3.60517926E-03
  -3.34999990E-03  -3.67134879E-03
  -3.29999998E-03  -3.73862591E-03
  -3.25000007E-03  -3.80700314E-03
  -3.19999992E-03  -3.87640577E-03
  -3.15000000E-03  -3.94675881E-03
  -3.10000009E-03  -4.01801057E-03
  -3.04999994E-03  -4.09014849E-03
  -3.00000003E-03  -4.16323217E-03
  -2.95000011E-03  -4.23736172E-03
  -2.89999996E-03  -4.31263074E-03
  -2.85000005E-03  -4.38910723E-03
  -2.79999990E-03  -4.46679164E-03
  -2.74999999E-03  -4.54560062E-03
  -2.70000007E-03  -4.62543685E-03
  -2.64999992E-03  -4.70621651E-03
  -2.60000001E-03  -4.78791865E-03
  -2.55000009E-03  -4.87060705E-03
  -2.49999994E-03  -4.95439628E-03
  -2.45000003E-03  -5.03941206E-03
  -2.40000011E-03  -5.12573123E-03
  -2.34999997E-03  -5.21334633E-03
  -2.30000005E-03  -5.30216424E-03
  -2.24999990E-03  -5.39204385E-03
  -2.19999999E-03  -5.48288226E-03
  -2.15000007E-03  -5.57466364E-03
  -2.09999993E-03  -5.66743780E-03
  -2.05000001E-03  -5.76132955E-03
  -2.00000009E-03  -5.85648511E-03
  -1.94999995E-03  -5.95300132E-03
  -1.90000003E-03  -6.05089450E-03
  -1.85000000E-03  -6.15006359E-03
  -1.79999997E-03  -6.25034608E-03
  -1.75000005E-03  -6.35161949E-03
  -1.70000002E-03  -6.45382842E-03
  -1.64999999E-03  -6.55701105E-03
  -1.59999996E-03  -6.66131312E-03
  -1.55000004E-03  -6.76689111E-03
  -1.50000001E-03  -6.87386421E-03
  -1.44999998E-03  -6.98227528E-03
  -1.39999995E-03  -7.09203072E-03
  -1.35000004E-03  -7.20294984E-03
  -1.30000000E-03  -7.31486082E-03
  -1.24999997E-03  -7.42766028E-03
  -1.20000006E-03  -7.54138129E-03
  -1.15000003E-03  -7.65616493E-03
  -1.09999999E-03  -7.77220353E-03
  -1.04999996E-03  -7.88969453E-03
  -1.00000005E-03  -8.00869986E-03
  -9.50000016E-04  -8.12910311E-03
  -8.99999985E-04  -8.25069286E-03
  -8.50000011E-04  -8.37323535E-03
  -7.99999980E-04  -8.49656481E-03
  -7.50000007E-04  -8.62069521E-03
  -6.99999975E-04  -8.74580722E-03
  -6.50000002E-04  -8.87214951E-03
  -6.00000028E-04  -8.99992045E-03
  -5.49999997E-04  -9.12921317E-03
  -5.00000024E-04  -9.25992057E-03
  -4.49999992E-04  -9.39178560E-03
  -3.99999990E-04  -9.52456426E-03
  -3.49999988E-04  -9.65808891E-03
  -3.00000014E-04  -9.79231112E-03
  -2.50000012E-04  -9.92739573E-03
  -1.99999995E-04  -1.00636259E-02
  -1.50000007E-04  -1.02012344E-02
  -9.99999975E-05  -1.03403106E-02
  -4.99999987E-05  -1.04807764E-02
   0.00000000      -1.06223812E-02
   4.99999987E-05  -1.07647954E-02
   9.99999975E-05  -1.09078372E-02
   1.50000007E-04  -1.10514686E-02
   1.99999995E-04  -1.11958059E-02
   2.50000012E-04  -1.13411257E-02
   3.00000014E-04  -1.14876805E-02
   3.49999988E-04  -1.16356015E-02
   3.99999990E-04  -1.17848068E-02
   4.49999992E-04  -1.19350450E-02
   5.00000024E-04  -1.20860133E-02
   5.49999997E-04  -1.22374827E-02
   6.00000028E-04  -1.23893693E-02
   6.50000002E-04  -1.25417635E-02
   6.99999975E-04  -1.26948906E-02
   7.50000007E-04  -1.28490161E-02
   7.99999980E-04  -1.30043700E-02
   8.50000011E-04  -1.31609663E-02
   8.99999985E-04  -1.33185470E-02
   9.50000016E-04  -1.34767210E-02
   1.00000005E-03  -1.36351679E-02
   1.04999996E-03  -1.37937451E-02
   1.09999999E-03  -1.39524797E-02
   1.15000003E-03  -1.41116288E-02
   1.20000006E-03  -1.42715583E-02
   1.24999997E-03  -1.44325448E-02
   1.30000000E-03  -1.45946210E-02
   1.35000004E-03  -1.47575270E-02
   1.39999995E-03  -1.49208065E-02
   1.44999998E-03  -1.50840748E-02
   1.50000001E-03  -1.52471364E-02
   1.55000004E-03  -1.54100265E-02
   1.59999996E-03  -1.55730071E-02
   1.64999999E-03  -1.57364197E-02
   1.70000002E-03  -1.59005672E-02
   1.75000005E-03  -1.60655081E-02
   1.79999997E-03  -1.62309837E-02
   1.85000000E-03  -1.63965728E-02
   1.90000003E-03  -1.65619086E-02
   1.94999995E-03  -1.67267099E-02
   2.00000009E-03  -1.68909002E-02
   2.05000001E-03  -1.70547273E-02
   2.09999993E-03  -1.72185469E-02
   2.15000007E-03  -1.73827037E-02
   2.19999999E-03  -1.75473187E-02
   2.24999990E-03  -1.77122094E-02
   2.30000005E-03  -1.78770050E-02
   2.34999997E-03  -1.80411637E-02
   2.40000011E-03  -1.82042904E-02
   2.45000003E-03  -1.83662884E-02
   2.49999994E-03  -1.85273215E-02
   2.55000009E-03  -1.86877958E-02
   2.60000001E-03  -1.88481063E-02
   2.64999992E-03  -1.90084651E-02
   2.70000007E-03  -1.91687439E-02
   2.74999999E-03  -1.93285625E-02
   2.79999990E-03  -1.94874015E-02