  -3.99999991E-02   0.00000000    
  -3.99499983E-02   0.00000000    
  -3.99000011E-02   0.00000000    
  -3.98500003E-02   0.00000000    
  -3.97999994E-02  -1.15935864E-19
  -3.97499986E-02  -9.90440216E-19
  -3.97000015E-02  -4.43932242E-18
  -3.96500006E-02  -1.38784826E-17
  -3.95999998E-02  -3.42631478E-17
  -3.95499989E-02  -7.21650961E-17
  -3.95000018E-02  -1.36799116E-16
  -3.94500010E-02  -2.41066239E-16
  -3.94000001E-02  -3.99716701E-16
  -3.93499993E-02  -6.23230431E-16
  -3.92999984E-02  -9.11373570E-16
  -3.92500013E-02  -1.25397309E-15
  -3.92000005E-02  -1.64206559E-15
  -3.91499996E-02  -2.08243304E-15
  -3.90999988E-02  -2.60331362E-15
  -3.90500017E-02  -3.24614471E-15
  -3.90000008E-02  -4.05101088E-15
  -3.89500000E-02  -5.04750618E-15
  -3.88999991E-02  -6.25328850E-15
  -3.88499983E-02  -7.67235837E-15
  -3.88000011E-02  -9.28893684E-15
  -3.87500003E-02  -1.10669310E-14
  -3.86999995E-02  -1.29683268E-14
  -3.86499986E-02  -1.49853122E-14
  -3.86000015E-02  -1.71581584E-14
  -3.85500006E-02  -1.95540046E-14
  -3.84999998E-02  -2.22153635E-14
  -3.84499989E-02  -2.51182725E-14
  -3.84000018E-02  -2.81727698E-14
  -3.83500010E-02  -3.12578468E-14
  -3.83000001E-02  -3.42536871E-14
  -3.82499993E-02  -3.70486248E-14
  -3.81999984E-02  -3.95361132E-14
  -3.81500013E-02  -4.16289284E-14
  -3.81000005E-02  -4.32862601E-14
  -3.80499996E-02  -4.45160774E-14
  -3.79999988E-02  -4.53293578E-14
  -3.79500017E-02  -4.56770242E-14
  -3.79000008E-02  -4.54293924E-14
  -3.78500000E-02  -4.44188448E-14
  -3.77999991E-02  -4.24971981E-14
  -3.77499983E-02  -3.95411311E-14
  -3.77000012E-02  -3.54003732E-14
  -3.76500003E-02  -2.98560513E-14
  -3.75999995E-02  -2.26517667E-14
  -3.75499986E-02  -1.35772741E-14
  -3.75000015E-02  -2.51849916E-15
  -3.74500006E-02   1.05822816E-14
  -3.73999998E-02   2.58163360E-14
  -3.73499990E-02   4.33581360E-14
  -3.73000018E-02   6.34345888E-14
  -3.72500010E-02   8.62587793E-14
  -3.72000001E-02   1.11985277E-13
  -3.71499993E-02   1.40675991E-13
  -3.70999984E-02   1.72219281E-13
  -3.70500013E-02   2.06209209E-13
  -3.70000005E-02   2.41904749E-13
  -3.69499996E-02   2.78402708E-13
  -3.68999988E-02   3.15007108E-13
  -3.68500017E-02   3.51586761E-13
  -3.68000008E-02   3.88672493E-13
  -3.67500000E-02   4.27208968E-13
  -3.66999991E-02   4.68095235E-13
  -3.66499983E-02   5.11738004E-13
  -3.66000012E-02   5.57773554E-13
  -3.65500003E-02   6.05013435E-13
  -3.64999995E-02   6.51642585E-13
  -3.64499986E-02   6.95684721E-13
  -3.64000015E-02   7.35631770E-13
  -3.63500006E-02   7.70944398E-13
  -3.62999998E-02   8.02061976E-13
  -3.62499990E-02   8.29790609E-13
  -3.62000018E-02   8.54353643E-13
  -3.61500010E-02   8.74673760E-13
  -3.61000001E-02   8.88351513E-13
  -3.60499993E-02   8.92385883E-13
  -3.59999985E-02   8.84279195E-13
  -3.59500013E-02   8.63014684E-13
  -3.59000005E-02   8.29494784E-13
  -3.58499996E-02   7.86215602E-13
  -3.57999988E-02   7.36166336E-13
  -3.57500017E-02   6.81239028E-13
  -3.57000008E-02   6.20790474E-13
  -3.56500000E-02   5.51177702E-13
  -3.55999991E-02   4.66779501E-13
  -3.55499983E-02   3.62249781E-13
  -3.55000012E-02   2.34961925E-13
  -3.54500003E-02   8.63658781E-14
  -3.53999995E-02  -7.85024850E-14
  -3.53499986E-02  -2.53191213E-13
  -3.53000015E-02  -4.32730186E-13
  -3.52500007E-02  -6.16005619E-13
  -3.51999998E-02  -8.06564613E-13
  -3.51499990E-02  -1.01133154E-12
  -3.51000018E-02  -1.23749925E-12
  -3.50500010E-02  -1.48872180E-12
  -3.50000001E-02  -1.76235578E-12
  -3.49499993E-02  -2.04932967E-12
  -3.48999985E-02  -2.33710989E-12
  -3.48500013E-02  -2.61459496E-12
  -3.48000005E-02  -2.87662147E-12
  -3.47499996E-02  -3.12580192E-12
  -3.46999988E-02  -3.37070281E-12
  -3.46500017E-02  -3.62109951E-12
  -3.46000008E-02  -3.88237663E-12
  -3.45500000E-02  -4.15153285E-12
  -3.44999991E-02  -4.41668794E-12
  -3.44499983E-02  -4.66066465E-12
  -3.44000012E-02  -4.86745193E-12
  -3.43500003E-02  -5.02882328E-12
  -3.42999995E-02  -5.14781967E-12
  -3.42499986E-02  -5.23693242E-12
  -3.42000015E-02  -5.31130999E-12
  -3.41500007E-02  -5.37998595E-12
  -3.40999998E-02  -5.43937768E-12
  -3.40499990E-02  -5.47241159E-12
  -3.40000018E-02  -5.45401007E-12
  -3.39500010E-02  -5.36071578E-12
  -3.39000002E-02  -5.18032015E-12
  -3.38499993E-02  -4.91716303E-12
  -3.37999985E-02  -4.59037279E-12
  -3.37500013E-02  -4.22520309E-12
  -3.37000005E-02  -3.84080398E-12
  -3.36499996E-02  -3.43989637E-12
  -3.35999988E-02  -3.00559187E-12
  -3.35500017E-02  -2.50764882E-12
  -3.35000008E-02  -1.91588824E-12
  -3.34500000E-02  -1.21473816E-12
  -3.33999991E-02  -4.11940772E-13
  -3.33499983E-02   4.62996503E-13
  -3.33000012E-02   1.37034069E-12
  -3.32500003E-02   2.27685102E-12
  -3.31999995E-02   3.17036957E-12
  -3.31499986E-02   4.06557210E-12
  -3.31000015E-02   4.99765030E-12
  -3.30500007E-02   6.00583428E-12
  -3.29999998E-02   7.11355931E-12
  -3.29499990E-02   8.31434574E-12
  -3.29000019E-02   9.57056916E-12
  -3.28500010E-02   1.08265731E-11
  -3.28000002E-02   1.20305918E-11
  -3.27499993E-02   1.31553900E-11
  -3.26999985E-02   1.42078051E-11
  -3.26500013E-02   1.52223720E-11
  -3.26000005E-02   1.62415342E-11
  -3.25499997E-02   1.72911113E-11
  -3.24999988E-02   1.83621018E-11
  -3.24500017E-02   1.94076109E-11
  -3.24000008E-02   2.03574171E-11
  -3.23500000E-02   2.11447474E-11
  -3.22999991E-02   2.17335819E-11
  -3.22499983E-02   2.21334843E-11
  -3.22000012E-02   2.23939495E-11
  -3.21500003E-02   2.25796552E-11
  -3.20999995E-02   2.27373884E-11
  -3.20499986E-02   2.28699039E-11
  -3.20000015E-02   2.29292071E-11
  -3.19500007E-02   2.28330098E-11
  -3.18999998E-02   2.24976877E-11
  -3.18499990E-02   2.18735169E-11
  -3.18000019E-02   2.09664005E-11
  -3.17500010E-02   1.98355533E-11
  -3.17000002E-02   1.85668408E-11
  -3.16499993E-02   1.72326615E-11
  -3.15999985E-02   1.58563215E-11
  -3.15500014E-02   1.43980357E-11
  -3.15000005E-02   1.27703369E-11
  -3.14499997E-02   1.08770180E-11
  -3.13999988E-02   8.65821043E-12
  -3.13500017E-02   6.12086857E-12
  -3.13000008E-02   3.34031132E-12
  -3.12500000E-02   4.31387402E-13
  -3.11999992E-02  -2.49856190E-12
  -3.11500002E-02  -5.39438329E-12
  -3.10999993E-02  -8.27526242E-12
  -3.10500003E-02  -1.12233027E-11
  -3.09999995E-02  -1.43421481E-11
  -3.09500005E-02  -1.77033475E-11
  -3.08999997E-02  -2.13049595E-11
  -3.08500007E-02  -2.50624348E-11
  -3.07999998E-02  -2.88372642E-11
  -3.07500008E-02  -3.24911729E-11
  -3.07000000E-02  -3.59412292E-11
  -3.06499992E-02  -3.91904183E-11
  -3.06000002E-02  -4.23192453E-11
  -3.05499993E-02  -4.54413486E-11
  -3.05000003E-02  -4.86421736E-11
  -3.04499995E-02  -5.19278440E-11
  -3.04000005E-02  -5.52078556E-11
  -3.03499997E-02  -5.83211882E-11
  -3.03000007E-02  -6.10960449E-11
  -3.02499998E-02  -6.34171188E-11
  -3.02000009E-02  -6.52696022E-11
  -3.01500000E-02  -6.67384273E-11
  -3.00999992E-02  -6.79620041E-11
  -3.00500002E-02  -6.90605767E-11
  -2.99999993E-02  -7.00717262E-11
  -2.99500003E-02  -7.09222889E-11
  -2.98999995E-02  -7.14501028E-11
  -2.98500005E-02  -7.14669018E-11
  -2.97999997E-02  -7.08354625E-11
  -2.97500007E-02  -6.95270647E-11
  -2.96999998E-02  -6.76326981E-11
  -2.96500009E-02  -6.53210402E-11
  -2.96000000E-02  -6.27603247E-11
  -2.95499992E-02  -6.00386199E-11
  -2.95000002E-02  -5.71192052E-11
  -2.94499993E-02  -5.38522525E-11
  -2.94000003E-02  -5.00386815E-11
  -2.93499995E-02  -4.55177250E-11
  -2.93000005E-02  -4.02393362E-11
  -2.92499997E-02  -3.42890785E-11
  -2.92000007E-02  -2.78542883E-11
  -2.91499998E-02  -2.11456685E-11
  -2.91000009E-02  -1.43083245E-11
  -2.90500000E-02  -7.36186893E-12
  -2.89999992E-02  -1.97497184E-13
  -2.89500002E-02   7.36471908E-12
  -2.88999993E-02   1.54828962E-11
  -2.88500004E-02   2.42065968E-11
  -2.87999995E-02   3.34365972E-11
  -2.87500005E-02   4.29505875E-11
  -2.86999997E-02   5.24841108E-11
  -2.86500007E-02   6.18309431E-11
  -2.85999998E-02   7.09183268E-11
  -2.85500009E-02   7.98235991E-11
  -2.85000000E-02   8.87238616E-11
  -2.84499992E-02   9.77992826E-11
  -2.84000002E-02   1.07131651E-10
  -2.83499993E-02   1.16643098E-10
  -2.83000004E-02   1.26103988E-10
  -2.82499995E-02   1.35208539E-10
  -2.82000005E-02   1.43685966E-10
  -2.81499997E-02   1.51397186E-10
  -2.81000007E-02   1.58373620E-10
  -2.80499998E-02   1.64779732E-10
  -2.80000009E-02   1.70815778E-10
  -2.79500000E-02   1.76603732E-10
  -2.78999992E-02   1.82106052E-10
  -2.78500002E-02   1.87113824E-10
  -2.77999993E-02   1.91310606E-10
  -2.77500004E-02   1.94386576E-10
  -2.76999995E-02   1.96153954E-10
  -2.76500005E-02   1.96612879E-10
  -2.75999997E-02   1.95936781E-10
  -2.75500007E-02   1.94381955E-10
  -2.74999999E-02   1.92160496E-10
  -2.74500009E-02   1.89333230E-10
  -2.74000000E-02   1.85770413E-10
  -2.73499992E-02   1.81198168E-10
  -2.73000002E-02   1.75310363E-10
  -2.72499993E-02   1.67897432E-10
  -2.72000004E-02   1.58936572E-10
  -2.71499995E-02   1.48603435E-10
  -2.71000005E-02   1.37198655E-10
  -2.70499997E-02   1.25019411E-10
  -2.70000007E-02   1.12231745E-10
  -2.69499999E-02   9.88009952E-11
  -2.69000009E-02   8.45138889E-11
  -2.68500000E-02   6.90841689E-11
  -2.67999992E-02   5.22959107E-11
  -2.67500002E-02   3.41208173E-11
  -2.66999993E-02   1.47566126E-11
  -2.66500004E-02  -5.43096644E-12
  -2.65999995E-02  -2.60387042E-11
  -2.65500005E-02  -4.67730542E-11
  -2.64999997E-02  -6.75502987E-11
  -2.64500007E-02  -8.85043219E-11
  -2.63999999E-02  -1.09895801E-10
  -2.63500009E-02  -1.31959374E-10
  -2.63000000E-02  -1.54755347E-10
  -2.62499992E-02  -1.78092971E-10
  -2.62000002E-02  -2.01562433E-10
  -2.61499994E-02  -2.24663940E-10
  -2.61000004E-02  -2.46979076E-10
  -2.60499995E-02  -2.68308292E-10
  -2.60000005E-02  -2.88714469E-10
  -2.59499997E-02  -3.08451847E-10
  -2.59000007E-02  -3.27809335E-10
  -2.58499999E-02  -3.46934148E-10
  -2.58000009E-02  -3.65712821E-10
  -2.57500000E-02  -3.83763771E-10
  -2.56999992E-02  -4.00548372E-10
  -2.56500002E-02  -4.15555479E-10
  -2.55999994E-02  -4.28478864E-10
  -2.55500004E-02  -4.39308034E-10
  -2.54999995E-02  -4.48289933E-10
  -2.54500005E-02  -4.55776222E-10
  -2.53999997E-02  -4.62023642E-10
  -2.53500007E-02  -4.67035743E-10
  -2.52999999E-02  -4.70517236E-10
  -2.52500009E-02  -4.71963080E-10
  -2.52000000E-02  -4.70846251E-10
  -2.51499992E-02  -4.66823913E-10
  -2.51000002E-02  -4.59870392E-10
  -2.50499994E-02  -4.50276427E-10
  -2.50000004E-02  -4.38507702E-10
  -2.49499995E-02  -4.24983881E-10
  -2.49000005E-02  -4.09874995E-10
  -2.48499997E-02  -3.93009403E-10
  -2.48000007E-02  -3.73937381E-10
  -2.47499999E-02  -3.52124857E-10
  -2.47000009E-02  -3.27192828E-10
  -2.46500000E-02  -2.99096387E-10
  -2.45999992E-02  -2.68162798E-10
  -2.45500002E-02  -2.34968628E-10
  -2.44999994E-02  -2.00106376E-10
  -2.44500004E-02  -1.63942124E-10
  -2.43999995E-02  -1.26472166E-10
  -2.43500005E-02  -8.73483855E-11
  -2.42999997E-02  -4.60668552E-11
  -2.42500007E-02  -2.23861164E-12
  -2.41999999E-02   4.41786885E-11
  -2.41500009E-02   9.27952992E-11
  -2.41000000E-02   1.42892601E-10
  -2.40499992E-02   1.93671759E-10
  -2.40000002E-02   2.44540027E-10
  -2.39499994E-02   2.95307251E-10
  -2.39000004E-02   3.46204648E-10
  -2.38499995E-02   3.97713001E-10
  -2.38000005E-02   4.50271931E-10
  -2.37499997E-02   5.03997621E-10
  -2.37000007E-02   5.58535829E-10
  -2.36499999E-02   6.13121554E-10
  -2.36000009E-02   6.66823929E-10
  -2.35500000E-02   7.18868465E-10
  -2.34999992E-02   7.68890229E-10
  -2.34500002E-02   8.17002022E-10
  -2.33999994E-02   8.63645766E-10
  -2.33500004E-02   9.09291031E-10
  -2.32999995E-02   9.54116008E-10
  -2.32500006E-02   9.97815497E-10
  -2.31999997E-02   1.03962106E-09
  -2.31500007E-02   1.07853426E-09
  -2.30999999E-02   1.11366893E-09
  -2.30500009E-02   1.14455301E-09
  -2.30000000E-02   1.17125099E-09
  -2.29499992E-02   1.19424282E-09
  -2.29000002E-02   1.21411259E-09
  -2.28499994E-02   1.23118704E-09
  -2.28000004E-02   1.24528876E-09
  -2.27499995E-02   1.25571864E-09
  -2.27000006E-02   1.26148059E-09
  -2.26499997E-02   1.26164668E-09
  -2.26000007E-02   1.25570221E-09
  -2.25499999E-02   1.24371546E-09
  -2.25000009E-02   1.22624999E-09
  -2.24500000E-02   1.20405608E-09
  -2.23999992E-02   1.17767240E-09
  -2.23500002E-02   1.14711940E-09
  -2.22999994E-02   1.11182652E-09
  -2.22500004E-02   1.07083220E-09
  -2.21999995E-02   1.02316933E-09
  -2.21500006E-02   9.68263247E-10
  -2.20999997E-02   9.06157760E-10
  -2.20500007E-02   8.37469483E-10
  -2.19999999E-02   7.63089203E-10
  -2.19500009E-02   6.83761769E-10
  -2.19000001E-02   5.99734928E-10
  -2.18499992E-02   5.10632703E-10
  -2.18000002E-02   4.15616180E-10
  -2.17499994E-02   3.13763820E-10
  -2.17000004E-02   2.04499792E-10
  -2.16499995E-02   8.78760328E-11
  -2.16000006E-02  -3.54249234E-11
  -2.15499997E-02  -1.64373154E-10
  -2.15000007E-02  -2.98031794E-10
  -2.14499999E-02  -4.35953745E-10
  -2.14000009E-02  -5.78353698E-10
  -2.13500001E-02  -7.25979332E-10
  -2.12999992E-02  -8.79738060E-10
  -2.12500002E-02  -1.04024789E-09
  -2.11999994E-02  -1.20751531E-09
  -2.11500004E-02  -1.38088418E-09
  -2.10999995E-02  -1.55928648E-09
  -2.10500006E-02  -1.74168091E-09
  -2.09999997E-02  -1.92748617E-09
  -2.09500007E-02  -2.11679985E-09
  -2.08999999E-02  -2.31030839E-09
  -2.08500009E-02  -2.50891885E-09
  -2.08000001E-02  -2.71328426E-09
  -2.07499992E-02  -2.92344726E-09
  -2.07000002E-02  -3.13875725E-09
  -2.06499994E-02  -3.35810491E-09
  -2.06000004E-02  -3.58036178E-09
  -2.05499995E-02  -3.80484577E-09
  -2.05000006E-02  -4.03158351E-09
  -2.04499997E-02  -4.26126467E-09
  -2.04000007E-02  -4.49488935E-09
  -2.03499999E-02  -4.73327644E-09
  -2.03000009E-02  -4.97665420E-09
  -2.02500001E-02  -5.22451593E-09
  -2.01999992E-02  -5.47581713E-09
  -2.01500002E-02  -5.72941383E-09
  -2.00999994E-02  -5.98455152E-09
  -2.00500004E-02  -6.24117158E-09
  -1.99999996E-02  -6.49990772E-09
  -1.99500006E-02  -6.76177070E-09
  -1.98999997E-02  -7.02766600E-09
  -1.98500007E-02  -7.29797156E-09
  -1.97999999E-02  -7.57234453E-09
  -1.97500009E-02  -7.84987630E-09
  -1.97000001E-02  -8.12950329E-09
  -1.96499992E-02  -8.41050518E-09
  -1.96000002E-02  -8.69285621E-09
  -1.95499994E-02  -8.97725183E-09
  -1.95000004E-02  -9.26481469E-09
  -1.94499996E-02  -9.55661328E-09
  -1.94000006E-02  -9.85321424E-09
  -1.93499997E-02  -1.01544764E-08
  -1.93000007E-02  -1.04596714E-08
  -1.92499999E-02  -1.07678666E-08
  -1.92000009E-02  -1.10784315E-08
  -1.91500001E-02  -1.13913936E-08
  -1.90999992E-02  -1.17075283E-08
  -1.90500002E-02  -1.20280790E-08
  -1.89999994E-02  -1.23542989E-08
  -1.89500004E-02  -1.26869715E-08
  -1.88999996E-02  -1.30261544E-08
  -1.88500006E-02  -1.33712836E-08
  -1.87999997E-02  -1.37215634E-08
  -1.87500007E-02  -1.40764609E-08
  -1.86999999E-02  -1.44361021E-08
  -1.86500009E-02  -1.48013637E-08
  -1.86000001E-02  -1.51736437E-08
  -1.85499992E-02  -1.55544093E-08
  -1.85000002E-02  -1.59447229E-08
  -1.84499994E-02  -1.63449485E-08
  -1.84000004E-02  -1.67547913E-08
  -1.83499996E-02  -1.71736474E-08
  -1.83000006E-02  -1.76011206E-08
  -1.82499997E-02  -1.80374400E-08
  -1.82000007E-02  -1.84836129E-08
  -1.81499999E-02  -1.89411935E-08
  -1.81000009E-02  -1.94118446E-08
  -1.80500001E-02  -1.98968575E-08
  -1.79999992E-02  -2.03968717E-08
  -1.79500002E-02  -2.09118642E-08
  -1.78999994E-02  -2.14414619E-08
  -1.78500004E-02  -2.19854268E-08
  -1.77999996E-02  -2.25440928E-08
  -1.77500006E-02  -2.31185702E-08
  -1.76999997E-02  -2.37105695E-08
  -1.76500008E-02  -2.43219613E-08
  -1.75999999E-02  -2.49543017E-08
  -1.75500009E-02  -2.56085020E-08
  -1.75000001E-02  -2.62848516E-08
  -1.74499992E-02  -2.69833027E-08
  -1.74000002E-02  -2.77039227E-08
  -1.73499994E-02  -2.84473369E-08
  -1.73000004E-02  -2.92149167E-08
  -1.72499996E-02  -3.00086036E-08
  -1.72000006E-02  -3.08305417E-08
  -1.71499997E-02  -3.16825641E-08
  -1.71000008E-02  -3.25658611E-08
  -1.70499999E-02  -3.34808981E-08
  -1.70000009E-02  -3.44277495E-08
  -1.69500001E-02  -3.54065719E-08
  -1.68999992E-02  -3.64180863E-08
  -1.68500002E-02  -3.74637814E-08
  -1.67999994E-02  -3.85457923E-08
  -1.67500004E-02  -3.96664817E-08
  -1.66999996E-02  -4.08279845E-08
  -1.66500006E-02  -4.20318216E-08
  -1.65999997E-02  -4.32788489E-08
  -1.65500008E-02  -4.45694504E-08
  -1.64999999E-02  -4.59040166E-08
  -1.64500009E-02  -4.72834323E-08
  -1.64000001E-02  -4.87093033E-08
  -1.63499992E-02  -5.01839281E-08
  -1.63000003E-02  -5.17098542E-08
  -1.62499994E-02  -5.32894049E-08
  -1.62000004E-02  -5.49242465E-08
  -1.61499996E-02  -5.66153595E-08
  -1.61000006E-02  -5.83632485E-08
  -1.60499997E-02  -6.01684107E-08
  -1.60000008E-02  -6.20317522E-08
  -1.59499999E-02  -6.39549000E-08
  -1.59000009E-02  -6.59401493E-08
  -1.58500001E-02  -6.79901504E-08
  -1.57999992E-02  -7.01073759E-08
  -1.57500003E-02  -7.22936591E-08
  -1.56999994E-02  -7.45500799E-08
  -1.56500004E-02  -7.68772068E-08
  -1.55999996E-02  -7.92755870E-08
  -1.55499997E-02  -8.17461796E-08
  -1.54999997E-02  -8.42906189E-08
  -1.54499998E-02  -8.69112426E-08
  -1.53999999E-02  -8.96107366E-08
  -1.53500000E-02  -9.23915238E-08
  -1.53000001E-02  -9.52554942E-08
  -1.52500002E-02  -9.82037278E-08
  -1.52000003E-02  -1.01236701E-07
  -1.51500003E-02  -1.04354854E-07
  -1.51000004E-02  -1.07558996E-07
  -1.50499996E-02  -1.10850671E-07
  -1.49999997E-02  -1.14232179E-07
  -1.49499997E-02  -1.17706250E-07
  -1.48999998E-02  -1.21275477E-07
  -1.48499999E-02  -1.24941849E-07
  -1.48000000E-02  -1.28706560E-07
  -1.47500001E-02  -1.32570108E-07
  -1.47000002E-02  -1.36532904E-07
  -1.46500003E-02  -1.40595716E-07
  -1.46000003E-02  -1.44760065E-07
  -1.45500004E-02  -1.49028295E-07
  -1.44999996E-02  -1.53403064E-07
  -1.44499997E-02  -1.57887129E-07
  -1.43999998E-02  -1.62482749E-07
  -1.43499998E-02  -1.67191345E-07
  -1.42999999E-02  -1.72013713E-07
  -1.42500000E-02  -1.76950294E-07
  -1.42000001E-02  -1.82001983E-07
  -1.41500002E-02  -1.87170457E-07
  -1.41000003E-02  -1.92458273E-07
  -1.40500003E-02  -1.97868445E-07
  -1.40000004E-02  -2.03403886E-07
  -1.39499996E-02  -2.09067053E-07
  -1.38999997E-02  -2.14859753E-07
  -1.38499998E-02  -2.20783136E-07
  -1.37999998E-02  -2.26838097E-07
  -1.37499999E-02  -2.33025816E-07
  -1.37000000E-02  -2.39348367E-07
  -1.36500001E-02  -2.45808792E-07
  -1.36000002E-02  -2.52410672E-07
  -1.35500003E-02  -2.59157758E-07
  -1.35000004E-02  -2.66053320E-07
  -1.34500004E-02  -2.73099630E-07
  -1.33999996E-02  -2.80298536E-07
  -1.33499997E-02  -2.87651517E-07
  -1.32999998E-02  -2.95160277E-07
  -1.32499998E-02  -3.02827402E-07
  -1.31999999E-02  -3.10656560E-07
  -1.31500000E-02  -3.18652241E-07
  -1.31000001E-02  -3.26819134E-07
  -1.30500002E-02  -3.35161417E-07
  -1.30000003E-02  -3.43682444E-07
  -1.29500004E-02  -3.52384916E-07
  -1.29000004E-02  -3.61271361E-07
  -1.28499996E-02  -3.70344623E-07
  -1.27999997E-02  -3.79608196E-07
  -1.27499998E-02  -3.89066571E-07
  -1.26999998E-02  -3.98725319E-07
  -1.26499999E-02  -4.08590381E-07
  -1.26000000E-02  -4.18667696E-07
  -1.25500001E-02  -4.28962494E-07
  -1.25000002E-02  -4.39478555E-07
  -1.24500003E-02  -4.50219858E-07
  -1.24000004E-02  -4.61190552E-07
  -1.23500004E-02  -4.72395783E-07
  -1.22999996E-02  -4.83841745E-07
  -1.22499997E-02  -4.95534948E-07
  -1.21999998E-02  -5.07482184E-07
  -1.21499998E-02  -5.19690161E-07
  -1.20999999E-02  -5.32164961E-07
  -1.20500000E-02  -5.44911927E-07
  -1.20000001E-02  -5.57936005E-07
  -1.19500002E-02  -5.71242424E-07
  -1.19000003E-02  -5.84837323E-07
  -1.18500004E-02  -5.98728775E-07
  -1.18000004E-02  -6.12926101E-07
  -1.17499996E-02  -6.27438908E-07
  -1.16999997E-02  -6.42276689E-07
  -1.16499998E-02  -6.57448368E-07
  -1.15999999E-02  -6.72961733E-07
  -1.15499999E-02  -6.88823889E-07
  -1.15000000E-02  -7.05041487E-07
  -1.14500001E-02  -7.21621745E-07
  -1.14000002E-02  -7.38572453E-07
  -1.13500003E-02  -7.55902420E-07
  -1.13000004E-02  -7.73621252E-07
  -1.12500004E-02  -7.91738159E-07
  -1.11999996E-02  -8.10262122E-07
  -1.11499997E-02  -8.29201781E-07
  -1.10999998E-02  -8.48565207E-07
  -1.10499999E-02  -8.68361951E-07
  -1.09999999E-02  -8.88602528E-07
  -1.09500000E-02  -9.09298819E-07
  -1.09000001E-02  -9.30464012E-07
  -1.08500002E-02  -9.52112146E-07
  -1.08000003E-02  -9.74256864E-07
  -1.07500004E-02  -9.96910671E-07
  -1.07000005E-02  -1.02008369E-06
  -1.06499996E-02  -1.04378603E-06
  -1.05999997E-02  -1.06802656E-06
  -1.05499998E-02  -1.09281473E-06
  -1.04999999E-02  -1.11816075E-06
  -1.04499999E-02  -1.14407521E-06
  -1.04000000E-02  -1.17057039E-06
  -1.03500001E-02  -1.19765900E-06
  -1.03000002E-02  -1.22535357E-06
  -1.02500003E-02  -1.25366626E-06
  -1.02000004E-02  -1.28260820E-06
  -1.01500005E-02  -1.31219167E-06
  -1.00999996E-02  -1.34242930E-06
  -1.00499997E-02  -1.37333643E-06
  -9.99999978E-03  -1.40492841E-06
  -9.94999986E-03  -1.43722173E-06
  -9.89999995E-03  -1.47023252E-06
  -9.85000003E-03  -1.50397580E-06
  -9.80000012E-03  -1.53846702E-06
  -9.75000020E-03  -1.57372006E-06
  -9.70000029E-03  -1.60974707E-06
  -9.65000037E-03  -1.64656171E-06
  -9.60000046E-03  -1.68417910E-06
  -9.54999961E-03  -1.72261446E-06
  -9.49999969E-03  -1.76188450E-06
  -9.44999978E-03  -1.80200527E-06
  -9.39999986E-03  -1.84299142E-06
  -9.34999995E-03  -1.88485740E-06
  -9.30000003E-03  -1.92761649E-06
  -9.25000012E-03  -1.97128111E-06
  -9.20000020E-03  -2.01586477E-06
  -9.15000029E-03  -2.06138179E-06
  -9.10000037E-03  -2.10784879E-06
  -9.05000046E-03  -2.15528416E-06
  -8.99999961E-03  -2.20370703E-06
  -8.94999970E-03  -2.25313670E-06
  -8.89999978E-03  -2.30359024E-06
  -8.84999987E-03  -2.35508378E-06
  -8.79999995E-03  -2.40763484E-06
  -8.75000004E-03  -2.46126251E-06
  -8.70000012E-03  -2.51598613E-06
  -8.65000021E-03  -2.57182387E-06
  -8.60000029E-03  -2.62879553E-06
  -8.55000038E-03  -2.68691929E-06
  -8.50000046E-03  -2.74621607E-06
  -8.44999962E-03  -2.80670474E-06
  -8.39999970E-03  -2.86840168E-06
  -8.34999979E-03  -2.93132052E-06
  -8.29999987E-03  -2.99547651E-06
  -8.24999996E-03  -3.06088759E-06
  -8.20000004E-03  -3.12757425E-06
  -8.15000013E-03  -3.19555716E-06
  -8.10000021E-03  -3.26485565E-06
  -8.05000030E-03  -3.33548724E-06
  -8.00000038E-03  -3.40746988E-06
  -7.95000046E-03  -3.48082358E-06
  -7.89999962E-03  -3.55556654E-06
  -7.84999970E-03  -3.63171716E-06
  -7.79999979E-03  -3.70929433E-06
  -7.74999987E-03  -3.78831828E-06
  -7.69999996E-03  -3.86881311E-06
  -7.65000004E-03  -3.95080360E-06
  -7.60000013E-03  -4.03431295E-06
  -7.55000021E-03  -4.11936117E-06
  -7.49999983E-03  -4.20596689E-06
  -7.44999992E-03  -4.29415104E-06
  -7.40000000E-03  -4.38393454E-06
  -7.35000009E-03  -4.47533967E-06
  -7.30000017E-03  -4.56838779E-06
  -7.24999979E-03  -4.66309893E-06
  -7.19999988E-03  -4.75949628E-06
  -7.14999996E-03  -4.85760529E-06
  -7.10000005E-03  -4.95744962E-06
  -7.05000013E-03  -5.05904836E-06
  -7.00000022E-03  -5.16241698E-06
  -6.94999984E-03  -5.26757276E-06
  -6.89999992E-03  -5.37453934E-06
  -6.85000001E-03  -5.48334310E-06
  -6.80000009E-03  -5.59400723E-06
  -6.75000018E-03  -5.70655357E-06
  -6.69999979E-03  -5.82100256E-06
  -6.64999988E-03  -5.93737650E-06
  -6.59999996E-03  -6.05570358E-06
  -6.55000005E-03  -6.17600926E-06
  -6.50000013E-03  -6.29831356E-06
  -6.45000022E-03  -6.42263285E-06
  -6.39999984E-03  -6.54899486E-06
  -6.34999992E-03  -6.67743325E-06
  -6.30000001E-03  -6.80797848E-06
  -6.25000009E-03  -6.94065511E-06
  -6.20000018E-03  -7.07548588E-06
  -6.14999980E-03  -7.21249262E-06
  -6.09999988E-03  -7.35170124E-06
  -6.04999997E-03  -7.49313995E-06
  -6.00000005E-03  -7.63683056E-06
  -5.95000014E-03  -7.78279627E-06
  -5.90000022E-03  -7.93106210E-06
  -5.84999984E-03  -8.08166078E-06
  -5.79999993E-03  -8.23462324E-06
  -5.75000001E-03  -8.38997494E-06
  -5.70000010E-03  -8.54773498E-06
  -5.65000018E-03  -8.70792701E-06
  -5.59999980E-03  -8.87057377E-06
  -5.54999989E-03  -9.03570617E-06
  -5.49999997E-03  -9.20335424E-06
  -5.45000006E-03  -9.37354980E-06
  -5.40000014E-03  -9.54632196E-06
  -5.35000023E-03  -9.72170074E-06
  -5.29999984E-03  -9.89972068E-06
  -5.24999993E-03  -1.00804145E-05
  -5.20000001E-03  -1.02638123E-05
  -5.15000010E-03  -1.04499413E-05
  -5.10000018E-03  -1.06388279E-05
  -5.04999980E-03  -1.08305094E-05
  -4.99999989E-03  -1.10250257E-05
  -4.94999997E-03  -1.12224161E-05
  -4.90000006E-03  -1.14227141E-05
  -4.85000014E-03  -1.16259462E-05
  -4.80000023E-03  -1.18321377E-05
  -4.74999985E-03  -1.20413215E-05
  -4.69999993E-03  -1.22535284E-05
  -4.65000002E-03  -1.24687913E-05
  -4.60000010E-03  -1.26871364E-05
  -4.55000019E-03  -1.29085956E-05
  -4.49999981E-03  -1.31332117E-05
  -4.44999989E-03  -1.33610274E-05
  -4.39999998E-03  -1.35920836E-05
  -4.35000006E-03  -1.38264140E-05
  -4.30000015E-03  -1.40640477E-05
  -4.25000023E-03  -1.43050165E-05
  -4.19999985E-03  -1.45493559E-05
  -4.14999994E-03  -1.47971150E-05
  -4.10000002E-03  -1.50483465E-05
  -4.05000011E-03  -1.53030887E-05
  -4.00000019E-03  -1.55613798E-05
  -3.94999981E-03  -1.58232633E-05
  -3.89999989E-03  -1.60887776E-05
  -3.84999998E-03  -1.63579662E-05
  -3.80000006E-03  -1.66308619E-05
  -3.74999992E-03  -1.69074992E-05
  -3.70000000E-03  -1.71879037E-05
  -3.65000009E-03  -1.74721317E-05
  -3.59999994E-03  -1.77602378E-05
  -3.55000002E-03  -1.80522675E-05
  -3.50000011E-03  -1.83482571E-05
  -3.44999996E-03  -1.86482393E-05
  -3.40000005E-03  -1.89522561E-05
  -3.34999990E-03  -1.92603529E-05
  -3.29999998E-03  -1.95725734E-05
  -3.25000007E-03  -1.98889484E-05
  -3.19999992E-03  -2.02095198E-05
  -3.15000000E-03  -2.05343440E-05
  -3.10000009E-03  -2.08634829E-05
  -3.04999994E-03  -2.11969946E-05
  -3.00000003E-03  -2.15349155E-05
  -2.95000011E-03  -2.18772730E-05
  -2.89999996E-03  -2.22241088E-05
  -2.85000005E-03  -2.25754720E-05
  -2.79999990E-03  -2.29314173E-05
  -2.74999999E-03  -2.32919920E-05
  -2.70000007E-03  -2.36572505E-05
  -2.64999992E-03  -2.40272439E-05
  -2.60000001E-03  -2.44020266E-05
  -2.55000009E-03  -2.47816515E-05
  -2.49999994E-03  -2.51661641E-05
  -2.45000003E-03  -2.55555860E-05
  -2.40000011E-03  -2.59499593E-05
  -2.34999997E-03  -2.63493312E-05
  -2.30000005E-03  -2.67537689E-05
  -2.24999990E-03  -2.71633144E-05
  -2.19999999E-03  -2.75780149E-05
  -2.15000007E-03  -2.79979231E-05
  -2.09999993E-03  -2.84230919E-05
  -2.05000001E-03  -2.88535775E-05
  -2.00000009E-03  -2.92894165E-05
  -1.94999995E-03  -2.97306469E-05
  -1.90000003E-03  -3.01773089E-05
  -1.85000000E-03  -3.06294714E-05
  -1.79999997E-03  -3.10871910E-05
  -1.75000005E-03  -3.15505349E-05
  -1.70000002E-03  -3.20195613E-05
  -1.64999999E-03  -3.24943176E-05
  -1.59999996E-03  -3.29748509E-05
  -1.55000004E-03  -3.34611905E-05
  -1.50000001E-03  -3.39533981E-05
  -1.44999998E-03  -3.44515174E-05
  -1.39999995E-03  -3.49555958E-05
  -1.35000004E-03  -3.54656731E-05
  -1.30000000E-03  -3.59818150E-05
  -1.24999997E-03  -3.65040978E-05
  -1.20000006E-03  -3.70325724E-05
  -1.15000003E-03  -3.75672789E-05
  -1.09999999E-03  -3.81082573E-05
  -1.04999996E-03  -3.86555294E-05
  -1.00000005E-03  -3.92091461E-05
  -9.50000016E-04  -3.97691801E-05
  -8.99999985E-04  -4.03356862E-05
  -8.50000011E-04  -4.09087261E-05
  -7.99999980E-04  -4.14883652E-05
  -7.50000007E-04  -4.20746619E-05
  -6.99999975E-04  -4.26676597E-05
  -6.50000002E-04  -4.32674206E-05
  -6.00000028E-04  -4.38739626E-05
  -5.49999997E-04  -4.44873331E-05
  -5.00000024E-04  -4.51075939E-05
  -4.49999992E-04  -4.57347960E-05
  -3.99999990E-04  -4.63690048E-05
  -3.49999988E-04  -4.70103041E-05
  -3.00000014E-04  -4.76587556E-05
  -2.50000012E-04  -4.83143958E-05
  -1.99999995E-04  -4.89772538E-05
  -1.50000007E-04  -4.96473731E-05
  -9.99999975E-05  -5.03248193E-05
  -4.99999987E-05  -5.10096397E-05
   0.00000000      -5.17018889E-05
   4.99999987E-05  -5.24016104E-05
   9.99999975E-05  -5.31088699E-05
   1.50000007E-04  -5.38237618E-05
   1.99999995E-04  -5.45463590E-05
   2.50000012E-04  -5.52766869E-05
   3.00000014E-04  -5.60147346E-05
   3.49999988E-04  -5.67605239E-05
   3.99999990E-04  -5.75141457E-05
   4.49999992E-04  -5.82757166E-05
   5.00000024E-04  -5.90453237E-05
   5.49999997E-04  -5.98229526E-05
   6.00000028E-04  -6.06086505E-05
   6.50000002E-04  -6.14024830E-05
   6.99999975E-04  -6.22045700E-05
   7.50000007E-04  -6.30149589E-05
   7.99999980E-04  -6.38336642E-05
   8.50000011E-04  -6.46606859E-05
   8.99999985E-04  -6.54960895E-05
   9.50000016E-04  -6.63399769E-05
   1.00000005E-03  -6.71924572E-05
   1.04999996E-03  -6.80535813E-05
   1.09999999E-03  -6.89233711E-05
   1.15000003E-03  -6.98018557E-05
   1.20000006E-03  -7.06890642E-05
   1.24999997E-03  -7.15850620E-05
   1.30000000E-03  -7.24899364E-05
   1.35000004E-03  -7.34037458E-05
   1.39999995E-03  -7.43264973E-05
   1.44999998E-03  -7.52582564E-05
   1.50000001E-03  -7.61991032E-05
   1.55000004E-03  -7.71491541E-05
   1.59999996E-03  -7.81084891E-05
   1.64999999E-03  -7.90770937E-05
   1.70000002E-03  -8.00549678E-05
   1.75000005E-03  -8.10421843E-05
   1.79999997E-03  -8.20388450E-05
   1.85000000E-03  -8.30450590E-05
   1.90000003E-03  -8.40608700E-05
   1.94999995E-03  -8.50863071E-05
   2.00000009E-03  -8.61214066E-05
   2.05000001E-03  -8.71662414E-05
   2.09999993E-03  -8.82209351E-05
   2.15000007E-03  -8.92855096E-05
   2.19999999E-03  -9.03599575E-05
   2.24999990E-03  -9.14442862E-05
   2.30000005E-03  -9.25385903E-05
   2.34999997E-03  -9.36430370E-05
   2.40000011E-03  -9.47576991E-05
   2.45000003E-03  -9.58825694E-05
   2.49999994E-03  -9.70176770E-05
   2.55000009E-03  -9.81630656E-05
   2.60000001E-03  -9.93188441E-05
   2.64999992E-03  -1.00485078E-04
   2.70000007E-03  -1.01661797E-04
   2.74999999E-03  -1.02849015E-04
   2.79999990E-03  -1.04046820E-04