  -3.99999991E-02   0.00000000    
  -3.99499983E-02   0.00000000    
  -3.99000011E-02   0.00000000    
  -3.98500003E-02   0.00000000    
  -3.97999994E-02   1.42990104E-21
  -3.97499986E-02   1.20229773E-20
  -3.97000015E-02   5.31795999E-20
  -3.96500006E-02   1.60769880E-19
  -3.95999998E-02   3.61446314E-19
  -3.95499989E-02   6.06738323E-19
  -3.95000018E-02   6.64602554E-19
  -3.94500010E-02   1.14774269E-21
  -3.94000001E-02  -2.27986879E-18
  -3.93499993E-02  -7.35853752E-18
  -3.92999984E-02  -1.64321993E-17
  -3.92500013E-02  -3.03007773E-17
  -3.92000005E-02  -4.89669416E-17
  -3.91499996E-02  -7.15028223E-17
  -3.90999988E-02  -9.64021697E-17
  -3.90500017E-02  -1.22438215E-16
  -3.90000008E-02  -1.49743884E-16
  -3.89500000E-02  -1.80586511E-16
  -3.88999991E-02  -2.19306174E-16
  -3.88499983E-02  -2.71200627E-16
  -3.88000011E-02  -3.40662305E-16
  -3.87500003E-02  -4.29352398E-16
  -3.86999995E-02  -5.35356428E-16
  -3.86499986E-02  -6.53959781E-16
  -3.86000015E-02  -7.79971549E-16
  -3.85500006E-02  -9.10703037E-16
  -3.84999998E-02  -1.04817733E-15
  -3.84499989E-02  -1.19925815E-15
  -3.84000018E-02  -1.37321680E-15
  -3.83500010E-02  -1.57749457E-15
  -3.83000001E-02  -1.81346366E-15
  -3.82499993E-02  -2.07423990E-15
  -3.81999984E-02  -2.34581518E-15
  -3.81500013E-02  -2.61128145E-15
  -3.81000005E-02  -2.85642507E-15
  -3.80499996E-02  -3.07424044E-15
  -3.79999988E-02  -3.26632040E-15
  -3.79500017E-02  -3.44046763E-15
  -3.79000008E-02  -3.60556642E-15
  -3.78500000E-02  -3.76597582E-15
  -3.77999991E-02  -3.91788483E-15
  -3.77499983E-02  -4.04908769E-15
  -3.77000012E-02  -4.14204278E-15
  -3.76500003E-02  -4.17865155E-15
  -3.75999995E-02  -4.14470331E-15
  -3.75499986E-02  -4.03250490E-15
  -3.75000015E-02  -3.84135456E-15
  -3.74500006E-02  -3.57639291E-15
  -3.73999998E-02  -3.24648819E-15
  -3.73499990E-02  -2.86128894E-15
  -3.73000018E-02  -2.42721187E-15
  -3.72500010E-02  -1.94258494E-15
  -3.72000001E-02  -1.39349011E-15
  -3.71499993E-02  -7.53175397E-16
  -3.70999984E-02   1.19929418E-17
  -3.70500013E-02   9.29160627E-16
  -3.70000005E-02   2.00134488E-15
  -3.69499996E-02   3.19291674E-15
  -3.68999988E-02   4.42744249E-15
  -3.68500017E-02   5.60429947E-15
  -3.68000008E-02   6.63268133E-15
  -3.67500000E-02   7.47146333E-15
  -3.66999991E-02   8.15616834E-15
  -3.66499983E-02   8.79490996E-15
  -3.66000012E-02   9.52621533E-15
  -3.65500003E-02   1.04496151E-14
  -3.64999995E-02   1.15571937E-14
  -3.64499986E-02   1.27011159E-14
  -3.64000015E-02   1.36224201E-14
  -3.63500006E-02   1.40411669E-14
  -3.62999998E-02   1.37770476E-14
  -3.62499990E-02   1.28473273E-14
  -3.62000018E-02   1.14891744E-14
  -3.61500010E-02   1.00804510E-14
  -3.61000001E-02   8.97882876E-15
  -3.60499993E-02   8.34388185E-15
  -3.59999985E-02   8.02738037E-15
  -3.59500013E-02   7.59824214E-15
  -3.59000005E-02   6.51284226E-15
  -3.58499996E-02   4.37050790E-15
  -3.57999988E-02   1.14145694E-15
  -3.57500017E-02  -2.75025055E-15
  -3.57000008E-02  -6.55292555E-15
  -3.56500000E-02  -9.49296590E-15
  -3.55999991E-02  -1.11365444E-14
  -3.55499983E-02  -1.16366699E-14
  -3.55000012E-02  -1.17255000E-14
  -3.54500003E-02  -1.24166611E-14
  -3.53999995E-02  -1.45206994E-14
  -3.53499986E-02  -1.81846505E-14
  -3.53000015E-02  -2.26859818E-14
  -3.52500007E-02  -2.66192589E-14
  -3.51999998E-02  -2.84409201E-14
  -3.51499990E-02  -2.71575517E-14
  -3.51000018E-02  -2.28440314E-14
  -3.50500010E-02  -1.67187634E-14
  -3.50000001E-02  -1.06826144E-14
  -3.49499993E-02  -6.47570198E-15
  -3.48999985E-02  -4.81074184E-15
  -3.48500013E-02  -4.89766986E-15
  -3.48000005E-02  -4.63639704E-15
  -3.47499996E-02  -1.46581434E-15
  -3.46999988E-02   6.46069044E-15
  -3.46500017E-02   1.92989477E-14
  -3.46000008E-02   3.52276801E-14
  -3.45500000E-02   5.10674538E-14
  -3.44999991E-02   6.36102363E-14
  -3.44499983E-02   7.11036590E-14
  -3.44000012E-02   7.42001133E-14
  -3.43500003E-02   7.58628186E-14
  -3.42999995E-02   8.01648583E-14
  -3.42499986E-02   9.04372470E-14
  -3.42000015E-02   1.07578226E-13
  -3.41500007E-02   1.29340928E-13
  -3.40999998E-02   1.51032466E-13
  -3.40499990E-02   1.67429493E-13
  -3.40000018E-02   1.75119237E-13
  -3.39500010E-02   1.74198478E-13
  -3.39000002E-02   1.68468131E-13
  -3.38499993E-02   1.63895563E-13
  -3.37999985E-02   1.65916705E-13
  -3.37500013E-02   1.76751314E-13
  -3.37000005E-02   1.94003261E-13
  -3.36499996E-02   2.11323472E-13
  -3.35999988E-02   2.21006386E-13
  -3.35500017E-02   2.17466453E-13
  -3.35000008E-02   2.00033905E-13
  -3.34500000E-02   1.73695205E-13
  -3.33999991E-02   1.47255119E-13
  -3.33499983E-02   1.29565968E-13
  -3.33000012E-02   1.25433477E-13
  -3.32500003E-02   1.33091522E-13
  -3.31999995E-02   1.44555036E-13
  -3.31499986E-02   1.48915074E-13
  -3.31000015E-02   1.37266907E-13
  -3.30500007E-02   1.07095329E-13
  -3.29999998E-02   6.40265429E-14
  -3.29499990E-02   1.99268736E-14
  -3.29000019E-02  -1.20436921E-14
  -3.28500010E-02  -2.33483497E-14
  -3.28000002E-02  -1.42793170E-14
  -3.27499993E-02   5.62792195E-15
  -3.26999985E-02   2.14376907E-14
  -3.26500013E-02   1.94323808E-14
  -3.26000005E-02  -6.37157453E-15
  -3.25499997E-02  -5.08399610E-14
  -3.24999988E-02  -9.92540129E-14
  -3.24500017E-02  -1.33386032E-13
  -3.24000008E-02  -1.39612768E-13
  -3.23500000E-02  -1.15452759E-13
  -3.22999991E-02  -7.14066393E-14
  -3.22499983E-02  -2.69505809E-14
  -3.22000012E-02  -2.16348033E-15
  -3.21500003E-02  -8.58143478E-15
  -3.20999995E-02  -4.34551043E-14
  -3.20499986E-02  -9.02719943E-14
  -3.20000015E-02  -1.25685703E-13
  -3.19500007E-02  -1.30043017E-13
  -3.18999998E-02  -9.68674874E-14
  -3.18499990E-02  -3.68610714E-14
  -3.18000019E-02   2.57519158E-14
  -3.17500010E-02   6.33134224E-14
  -3.17000002E-02   5.69933301E-14
  -3.16499993E-02   5.71649111E-15
  -3.15999985E-02  -7.25367710E-14
  -3.15500014E-02  -1.48088112E-13
  -3.15000005E-02  -1.92686958E-13
  -3.14499997E-02  -1.92703478E-13
  -3.13999988E-02  -1.56338159E-13
  -3.13500017E-02  -1.11210283E-13
  -3.13000008E-02  -9.29018350E-14
  -3.12500000E-02  -1.29209848E-13
  -3.11999992E-02  -2.27081307E-13
  -3.11500002E-02  -3.68346385E-13
  -3.10999993E-02  -5.16661800E-13
  -3.10500003E-02  -6.33074918E-13
  -3.09999995E-02  -6.93546078E-13
  -3.09500005E-02  -7.00527798E-13
  -3.08999997E-02  -6.83010831E-13
  -3.08500007E-02  -6.84427775E-13
  -3.07999998E-02  -7.43312801E-13
  -3.07500008E-02  -8.75161272E-13
  -3.07000000E-02  -1.06380215E-12
  -3.06499992E-02  -1.26666798E-12
  -3.06000002E-02  -1.43223378E-12
  -3.05499993E-02  -1.52228143E-12
  -3.05000003E-02  -1.52911353E-12
  -3.04499995E-02  -1.47967315E-12
  -3.04000005E-02  -1.42411658E-12
  -3.03499997E-02  -1.41332638E-12
  -3.03000007E-02  -1.47508297E-12
  -3.02499998E-02  -1.59965270E-12
  -3.02000009E-02  -1.74176212E-12
  -3.01500000E-02  -1.83879301E-12
  -3.00999992E-02  -1.83767303E-12
  -3.00500002E-02  -1.71865831E-12
  -2.99999993E-02  -1.50511038E-12
  -2.99500003E-02  -1.25423521E-12
  -2.98999995E-02  -1.03217120E-12
  -2.98500005E-02  -8.84039369E-13
  -2.97999997E-02  -8.12294784E-13
  -2.97500007E-02  -7.73527347E-13
  -2.96999998E-02  -6.95930943E-13
  -2.96500009E-02  -5.10417446E-13
  -2.96000000E-02  -1.81888087E-13
  -2.95499992E-02   2.73438986E-13
  -2.95000002E-02   7.93029433E-13
  -2.94499993E-02   1.29399193E-12
  -2.94000003E-02   1.70911863E-12
  -2.93499995E-02   2.01714361E-12
  -2.93000005E-02   2.25334161E-12
  -2.92499997E-02   2.49491140E-12
  -2.92000007E-02   2.82674079E-12
  -2.91499998E-02   3.30220768E-12
  -2.91000009E-02   3.91647739E-12
  -2.90500000E-02   4.60480525E-12
  -2.89999992E-02   5.26757284E-12
  -2.89500002E-02   5.81182975E-12
  -2.88999993E-02   6.19131959E-12
  -2.88500004E-02   6.42695662E-12
  -2.87999995E-02   6.59787286E-12
  -2.87500005E-02   6.80598329E-12
  -2.86999997E-02   7.12905039E-12
  -2.86500007E-02   7.58290132E-12
  -2.85999998E-02   8.11009766E-12
  -2.85500009E-02   8.60107818E-12
  -2.85000000E-02   8.93943686E-12
  -2.84499992E-02   9.05188511E-12
  -2.84000002E-02   8.94065637E-12
  -2.83499993E-02   8.68323555E-12
  -2.83000004E-02   8.39843473E-12
  -2.82499995E-02   8.19287780E-12
  -2.82000005E-02   8.11125125E-12
  -2.81499997E-02   8.11275699E-12
  -2.81000007E-02   8.08521652E-12
  -2.80499998E-02   7.89180093E-12
  -2.80000009E-02   7.43053882E-12
  -2.79500000E-02   6.68041664E-12
  -2.78999992E-02   5.71299648E-12
  -2.78500002E-02   4.66324548E-12
  -2.77999993E-02   3.67133234E-12
  -2.77500004E-02   2.82051552E-12
  -2.76999995E-02   2.09879965E-12
  -2.76500005E-02   1.40228703E-12
  -2.75999997E-02   5.80044151E-13
  -2.75500007E-02  -4.98272322E-13
  -2.74999999E-02  -1.88157216E-12
  -2.74500009E-02  -3.51070995E-12
  -2.74000000E-02  -5.23906829E-12
  -2.73499992E-02  -6.89262016E-12
  -2.73000002E-02  -8.34385859E-12
  -2.72499993E-02  -9.56697135E-12
  -2.72000004E-02  -1.06490606E-11
  -2.71499995E-02  -1.17510368E-11
  -2.71000005E-02  -1.30341458E-11
  -2.70499997E-02  -1.45839053E-11
  -2.70000007E-02  -1.63652997E-11
  -2.69499999E-02  -1.82301865E-11
  -2.69000009E-02  -1.99750945E-11
  -2.68500000E-02  -2.14251481E-11
  -2.67999992E-02  -2.25073987E-11
  -2.67500002E-02  -2.32806205E-11
  -2.66999993E-02  -2.39070482E-11
  -2.66500004E-02  -2.45771268E-11
  -2.65999995E-02  -2.54195259E-11
  -2.65500005E-02  -2.64362039E-11
  -2.64999997E-02  -2.74921960E-11
  -2.64500007E-02  -2.83661809E-11
  -2.63999999E-02  -2.88409904E-11
  -2.63500009E-02  -2.87947617E-11
  -2.63000000E-02  -2.82522131E-11
  -2.62499992E-02  -2.73721306E-11
  -2.62000002E-02  -2.63750462E-11
  -2.61499994E-02  -2.54417980E-11
  -2.61000004E-02  -2.46274910E-11
  -2.60499995E-02  -2.38296327E-11
  -2.60000005E-02  -2.28260258E-11
  -2.59499997E-02  -2.13673228E-11
  -2.59000007E-02  -1.92844265E-11
  -2.58499999E-02  -1.65632404E-11
  -2.58000009E-02  -1.33527607E-11
  -2.57500000E-02  -9.90128118E-12
  -2.56999992E-02  -6.44747103E-12
  -2.56500002E-02  -3.11378462E-12
  -2.55999994E-02   1.50190339E-13
  -2.55500004E-02   3.54797008E-12
  -2.54999995E-02   7.34693816E-12
  -2.54500005E-02   1.17576773E-11
  -2.53999997E-02   1.68348148E-11
  -2.53500007E-02   2.24439738E-11
  -2.52999999E-02   2.83109959E-11
  -2.52500009E-02   3.41334148E-11
  -2.52000000E-02   3.97059469E-11
  -2.51499992E-02   4.50045244E-11
  -2.51000002E-02   5.01905878E-11
  -2.50499994E-02   5.55320477E-11
  -2.50000004E-02   6.12742287E-11
  -2.49499995E-02   6.75171724E-11
  -2.49000005E-02   7.41538636E-11
  -2.48499997E-02   8.08981770E-11
  -2.48000007E-02   8.73918785E-11
  -2.47499999E-02   9.33448041E-11
  -2.47000009E-02   9.86465354E-11
  -2.46500000E-02   1.03399504E-10
  -2.45999992E-02   1.07857299E-10
  -2.45500002E-02   1.12293744E-10
  -2.44999994E-02   1.16859675E-10
  -2.44500004E-02   1.21490637E-10
  -2.43999995E-02   1.25907604E-10
  -2.43500005E-02   1.29711991E-10
  -2.42999997E-02   1.32534539E-10
  -2.42500007E-02   1.34173200E-10
  -2.41999999E-02   1.34658493E-10
  -2.41500009E-02   1.34216471E-10
  -2.41000000E-02   1.33143802E-10
  -2.40499992E-02   1.31649289E-10
  -2.40000002E-02   1.29731503E-10
  -2.39499994E-02   1.27147431E-10
  -2.39000004E-02   1.23487665E-10
  -2.38499995E-02   1.18326474E-10
  -2.38000005E-02   1.11381543E-10
  -2.37499997E-02   1.02612724E-10
  -2.37000007E-02   9.22150967E-11
  -2.36499999E-02   8.05080030E-11
  -2.36000009E-02   6.77675416E-11
  -2.35500000E-02   5.40759902E-11
  -2.34999992E-02   3.92550784E-11
  -2.34500002E-02   2.29139294E-11
  -2.33999994E-02   4.59208366E-12
  -2.33500004E-02  -1.60642246E-11
  -2.32999995E-02  -3.91700665E-11
  -2.32500006E-02  -6.45729165E-11
  -2.31999997E-02  -9.19409132E-11
  -2.31500007E-02  -1.20930807E-10
  -2.30999999E-02  -1.51362131E-10
  -2.30500009E-02  -1.83320983E-10
  -2.30000000E-02  -2.17146412E-10
  -2.29499992E-02  -2.53304294E-10
  -2.29000002E-02  -2.92202790E-10
  -2.28499994E-02  -3.34030331E-10
  -2.28000004E-02  -3.78687887E-10
  -2.27499995E-02  -4.25846275E-10
  -2.27000006E-02  -4.75104733E-10
  -2.26499997E-02  -5.26181820E-10
  -2.26000007E-02  -5.79055026E-10
  -2.25499999E-02  -6.33986696E-10
  -2.25000009E-02  -6.91424584E-10
  -2.24500000E-02  -7.51818885E-10
  -2.23999992E-02  -8.15435774E-10
  -2.23500002E-02  -8.82250328E-10
  -2.22999994E-02  -9.51965506E-10
  -2.22500004E-02  -1.02415065E-09
  -2.21999995E-02  -1.09843912E-09
  -2.21500006E-02  -1.17469934E-09
  -2.20999997E-02  -1.25310251E-09
  -2.20500007E-02  -1.33405775E-09
  -2.19999999E-02  -1.41804146E-09
  -2.19500009E-02  -1.50539614E-09
  -2.19000001E-02  -1.59618485E-09
  -2.18499992E-02  -1.69016923E-09
  -2.18000002E-02  -1.78691772E-09
  -2.17499994E-02  -1.88600091E-09
  -2.17000004E-02  -1.98718575E-09
  -2.16499995E-02  -2.09054618E-09
  -2.16000006E-02  -2.19644081E-09
  -2.15499997E-02  -2.30536301E-09
  -2.15000007E-02  -2.41773535E-09
  -2.14499999E-02  -2.53373167E-09
  -2.14000009E-02  -2.65320854E-09
  -2.13500001E-02  -2.77577739E-09
  -2.12999992E-02  -2.90098279E-09
  -2.12500002E-02  -3.02851388E-09
  -2.11999994E-02  -3.15835402E-09
  -2.11500004E-02  -3.29080274E-09
  -2.10999995E-02  -3.42636208E-09
  -2.10500006E-02  -3.56553409E-09
  -2.09999997E-02  -3.70861875E-09
  -2.09500007E-02  -3.85560206E-09
  -2.08999999E-02  -4.00617939E-09
  -2.08500009E-02  -4.15991241E-09
  -2.08000001E-02  -4.31643921E-09
  -2.07499992E-02  -4.47566206E-09
  -2.07000002E-02  -4.63781502E-09
  -2.06499994E-02  -4.80339457E-09
  -2.06000004E-02  -4.97297581E-09
  -2.05499995E-02  -5.14699483E-09
  -2.05000006E-02  -5.32559641E-09
  -2.04499997E-02  -5.50860912E-09
  -2.04000007E-02  -5.69566039E-09
  -2.03499999E-02  -5.88638382E-09
  -2.03000009E-02  -6.08062312E-09
  -2.02500001E-02  -6.27855012E-09
  -2.01999992E-02  -6.48064491E-09
  -2.01500002E-02  -6.68753986E-09
  -2.00999994E-02  -6.89980073E-09
  -2.00500004E-02  -7.11774373E-09
  -1.99999996E-02  -7.34135597E-09
  -1.99500006E-02  -7.57036922E-09
  -1.98999997E-02  -7.80444154E-09
  -1.98500007E-02  -8.04337930E-09
  -1.97999999E-02  -8.28729352E-09
  -1.97500009E-02  -8.53662918E-09
  -1.97000001E-02  -8.79205153E-09
  -1.96499992E-02  -9.05424535E-09
  -1.96000002E-02  -9.32369559E-09
  -1.95499994E-02  -9.60057189E-09
  -1.95000004E-02  -9.88474547E-09
  -1.94499996E-02  -1.01759374E-08
  -1.94000006E-02  -1.04739390E-08
  -1.93499997E-02  -1.07788045E-08
  -1.93000007E-02  -1.10909291E-08
  -1.92499999E-02  -1.14109886E-08
  -1.92000009E-02  -1.17397523E-08
  -1.91500001E-02  -1.20778676E-08
  -1.90999992E-02  -1.24256880E-08
  -1.90500002E-02  -1.27832456E-08
  -1.89999994E-02  -1.31503484E-08
  -1.89500004E-02  -1.35267921E-08
  -1.88999996E-02  -1.39125698E-08
  -1.88500006E-02  -1.43080099E-08
  -1.87999997E-02  -1.47137591E-08
  -1.87500007E-02  -1.51306399E-08
  -1.86999999E-02  -1.55594364E-08
  -1.86500009E-02  -1.60006906E-08
  -1.86000001E-02  -1.64546172E-08
  -1.85499992E-02  -1.69211525E-08
  -1.85000002E-02  -1.74001329E-08
  -1.84499994E-02  -1.78915212E-08
  -1.84000004E-02  -1.83955695E-08
  -1.83499996E-02  -1.89128748E-08
  -1.83000006E-02  -1.94442844E-08
  -1.82499997E-02  -1.99906882E-08
  -1.82000007E-02  -2.05528057E-08
  -1.81499999E-02  -2.11310436E-08
  -1.81000009E-02  -2.17254961E-08
  -1.80500001E-02  -2.23360725E-08
  -1.79999992E-02  -2.29627233E-08
  -1.79500002E-02  -2.36056419E-08
  -1.78999994E-02  -2.42653666E-08
  -1.78500004E-02  -2.49427359E-08
  -1.77999996E-02  -2.56387302E-08
  -1.77500006E-02  -2.63542255E-08
  -1.76999997E-02  -2.70898362E-08
  -1.76500008E-02  -2.78458376E-08
  -1.75999999E-02  -2.86222654E-08
  -1.75500009E-02  -2.94191036E-08
  -1.75000001E-02  -3.02365066E-08
  -1.74499992E-02  -3.10749648E-08
  -1.74000002E-02  -3.19353077E-08
  -1.73499994E-02  -3.28185763E-08
  -1.73000004E-02  -3.37258044E-08
  -1.72499996E-02  -3.46578233E-08
  -1.72000006E-02  -3.56151233E-08
  -1.71499997E-02  -3.65978927E-08
  -1.71000008E-02  -3.76061955E-08
  -1.70499999E-02  -3.86401844E-08
  -1.70000009E-02  -3.97002999E-08
  -1.69500001E-02  -4.07873451E-08
  -1.68999992E-02  -4.19024104E-08
  -1.68500002E-02  -4.30466756E-08
  -1.67999994E-02  -4.42211849E-08
  -1.67500004E-02  -4.54266740E-08
  -1.66999996E-02  -4.66635512E-08
  -1.66500006E-02  -4.79320121E-08
  -1.65999997E-02  -4.92322627E-08
  -1.65500008E-02  -5.05647364E-08
  -1.64999999E-02  -5.19302290E-08
  -1.64500009E-02  -5.33298845E-08
  -1.64000001E-02  -5.47650210E-08
  -1.63499992E-02  -5.62369138E-08
  -1.63000003E-02  -5.77465720E-08
  -1.62499994E-02  -5.92946705E-08
  -1.62000004E-02  -6.08816038E-08
  -1.61499996E-02  -6.25077021E-08
  -1.61000006E-02  -6.41734275E-08
  -1.60499997E-02  -6.58795969E-08
  -1.60000008E-02  -6.76274112E-08
  -1.59499999E-02  -6.94183129E-08
  -1.59000009E-02  -7.12538153E-08
  -1.58500001E-02  -7.31352188E-08
  -1.57999992E-02  -7.50635039E-08
  -1.57500003E-02  -7.70393385E-08
  -1.56999994E-02  -7.90632129E-08
  -1.56500004E-02  -8.11357097E-08
  -1.55999996E-02  -8.32577314E-08
  -1.55499997E-02  -8.54305355E-08
  -1.54999997E-02  -8.76557493E-08
  -1.54499998E-02  -8.99351065E-08
  -1.53999999E-02  -9.22702483E-08
  -1.53500000E-02  -9.46624823E-08
  -1.53000001E-02  -9.71127818E-08
  -1.52500002E-02  -9.96219072E-08
  -1.52000003E-02  -1.02190604E-07
  -1.51500003E-02  -1.04819861E-07
  -1.51000004E-02  -1.07511070E-07
  -1.50499996E-02  -1.10265987E-07
  -1.49999997E-02  -1.13086600E-07
  -1.49499997E-02  -1.15974835E-07
  -1.48999998E-02  -1.18932419E-07
  -1.48499999E-02  -1.21960696E-07
  -1.48000000E-02  -1.25060708E-07
  -1.47500001E-02  -1.28233438E-07
  -1.47000002E-02  -1.31479993E-07
  -1.46500003E-02  -1.34801908E-07
  -1.46000003E-02  -1.38201116E-07
  -1.45500004E-02  -1.41679834E-07
  -1.44999996E-02  -1.45240335E-07
  -1.44499997E-02  -1.48884737E-07
  -1.43999998E-02  -1.52614774E-07
  -1.43499998E-02  -1.56431824E-07
  -1.42999999E-02  -1.60337166E-07
  -1.42500000E-02  -1.64332093E-07
  -1.42000001E-02  -1.68418282E-07
  -1.41500002E-02  -1.72597822E-07
  -1.41000003E-02  -1.76873172E-07
  -1.40500003E-02  -1.81246932E-07
  -1.40000004E-02  -1.85721575E-07
  -1.39499996E-02  -1.90299261E-07
  -1.38999997E-02  -1.94981780E-07
  -1.38499998E-02  -1.99770668E-07
  -1.37999998E-02  -2.04667472E-07
  -1.37499999E-02  -2.09674042E-07
  -1.37000000E-02  -2.14792692E-07
  -1.36500001E-02  -2.20026109E-07
  -1.36000002E-02  -2.25377207E-07
  -1.35500003E-02  -2.30848840E-07
  -1.35000004E-02  -2.36443555E-07
  -1.34500004E-02  -2.42163537E-07
  -1.33999996E-02  -2.48010650E-07
  -1.33499997E-02  -2.53986741E-07
  -1.32999998E-02  -2.60093856E-07
  -1.32499998E-02  -2.66334496E-07
  -1.31999999E-02  -2.72711560E-07
  -1.31500000E-02  -2.79228288E-07
  -1.31000001E-02  -2.85887893E-07
  -1.30500002E-02  -2.92693301E-07
  -1.30000003E-02  -2.99647155E-07
  -1.29500004E-02  -3.06751645E-07
  -1.29000004E-02  -3.14008872E-07
  -1.28499996E-02  -3.21421169E-07
  -1.27999997E-02  -3.28991149E-07
  -1.27499998E-02  -3.36722024E-07
  -1.26999998E-02  -3.44617291E-07
  -1.26499999E-02  -3.52680502E-07
  -1.26000000E-02  -3.60915067E-07
  -1.25500001E-02  -3.69323971E-07
  -1.25000002E-02  -3.77909743E-07
  -1.24500003E-02  -3.86674827E-07
  -1.24000004E-02  -3.95621726E-07
  -1.23500004E-02  -4.04753422E-07
  -1.22999996E-02  -4.14073213E-07
  -1.22499997E-02  -4.23584879E-07
  -1.21999998E-02  -4.33292314E-07
  -1.21499998E-02  -4.43199212E-07
  -1.20999999E-02  -4.53308957E-07
  -1.20500000E-02  -4.63624446E-07
  -1.20000001E-02  -4.74148379E-07
  -1.19500002E-02  -4.84883515E-07
  -1.19000003E-02  -4.95833035E-07
  -1.18500004E-02  -5.07000607E-07
  -1.18000004E-02  -5.18390209E-07
  -1.17499996E-02  -5.30006218E-07
  -1.16999997E-02  -5.41852671E-07
  -1.16499998E-02  -5.53933319E-07
  -1.15999999E-02  -5.66251458E-07
  -1.15499999E-02  -5.78809932E-07
  -1.15000000E-02  -5.91611808E-07
  -1.14500001E-02  -6.04660443E-07
  -1.14000002E-02  -6.17959699E-07
  -1.13500003E-02  -6.31513785E-07
  -1.13000004E-02  -6.45327248E-07
  -1.12500004E-02  -6.59404577E-07
  -1.11999996E-02  -6.73749696E-07
  -1.11499997E-02  -6.88366413E-07
  -1.10999998E-02  -7.03257967E-07
  -1.10499999E-02  -7.18427714E-07
  -1.09999999E-02  -7.33879290E-07
  -1.09500000E-02  -7.49616959E-07
  -1.09000001E-02  -7.65645268E-07
  -1.08500002E-02  -7.81969163E-07
  -1.08000003E-02  -7.98593362E-07
  -1.07500004E-02  -8.15522299E-07
  -1.07000005E-02  -8.32759895E-07
  -1.06499996E-02  -8.50309675E-07
  -1.05999997E-02  -8.68175050E-07
  -1.05499998E-02  -8.86359771E-07
  -1.04999999E-02  -9.04868102E-07
  -1.04499999E-02  -9.23705045E-07
  -1.04000000E-02  -9.42875658E-07
  -1.03500001E-02  -9.62385229E-07
  -1.03000002E-02  -9.82238362E-07
  -1.02500003E-02  -1.00243972E-06
  -1.02000004E-02  -1.02299282E-06
  -1.01500005E-02  -1.04390176E-06
  -1.00999996E-02  -1.06517041E-06
  -1.00499997E-02  -1.08680308E-06
  -9.99999978E-03  -1.10880501E-06
  -9.94999986E-03  -1.13118199E-06
  -9.89999995E-03  -1.15393914E-06
  -9.85000003E-03  -1.17708191E-06
  -9.80000012E-03  -1.20061497E-06
  -9.75000020E-03  -1.22454242E-06
  -9.70000029E-03  -1.24886799E-06
  -9.65000037E-03  -1.27359579E-06
  -9.60000046E-03  -1.29873013E-06
  -9.54999961E-03  -1.32427658E-06
  -9.49999969E-03  -1.35024084E-06
  -9.44999978E-03  -1.37662857E-06
  -9.39999986E-03  -1.40344548E-06
  -9.34999995E-03  -1.43069599E-06
  -9.30000003E-03  -1.45838453E-06
  -9.25000012E-03  -1.48651498E-06
  -9.20000020E-03  -1.51509130E-06
  -9.15000029E-03  -1.54411816E-06
  -9.10000037E-03  -1.57360125E-06
  -9.05000046E-03  -1.60354648E-06
  -8.99999961E-03  -1.63396021E-06
  -8.94999970E-03  -1.66484813E-06
  -8.89999978E-03  -1.69621524E-06
  -8.84999987E-03  -1.72806597E-06
  -8.79999995E-03  -1.76040430E-06
  -8.75000004E-03  -1.79323411E-06
  -8.70000012E-03  -1.82656038E-06
  -8.65000021E-03  -1.86038847E-06
  -8.60000029E-03  -1.89472439E-06
  -8.55000038E-03  -1.92957418E-06
  -8.50000046E-03  -1.96494352E-06
  -8.44999962E-03  -2.00083718E-06
  -8.39999970E-03  -2.03726017E-06
  -8.34999979E-03  -2.07421590E-06
  -8.29999987E-03  -2.11170823E-06
  -8.24999996E-03  -2.14974125E-06
  -8.20000004E-03  -2.18831997E-06
  -8.15000013E-03  -2.22745030E-06
  -8.10000021E-03  -2.26713837E-06
  -8.05000030E-03  -2.30738965E-06
  -8.00000038E-03  -2.34821005E-06
  -7.95000046E-03  -2.38960342E-06
  -7.89999962E-03  -2.43157342E-06
  -7.84999970E-03  -2.47412368E-06
  -7.79999979E-03  -2.51725805E-06
  -7.74999987E-03  -2.56098110E-06
  -7.69999996E-03  -2.60529805E-06
  -7.65000004E-03  -2.65021549E-06
  -7.60000013E-03  -2.69573889E-06
  -7.55000021E-03  -2.74187323E-06
  -7.49999983E-03  -2.78862262E-06
  -7.44999992E-03  -2.83598911E-06
  -7.40000000E-03  -2.88397564E-06
  -7.35000009E-03  -2.93258563E-06
  -7.30000017E-03  -2.98182181E-06
  -7.24999979E-03  -3.03168963E-06
  -7.19999988E-03  -3.08219433E-06
  -7.14999996E-03  -3.13334067E-06
  -7.10000005E-03  -3.18513366E-06
  -7.05000013E-03  -3.23757672E-06
  -7.00000022E-03  -3.29067166E-06
  -6.94999984E-03  -3.34442007E-06
  -6.89999992E-03  -3.39882399E-06
  -6.85000001E-03  -3.45388571E-06
  -6.80000009E-03  -3.50960886E-06
  -6.75000018E-03  -3.56599776E-06
  -6.69999979E-03  -3.62305718E-06
  -6.64999988E-03  -3.68079145E-06
  -6.59999996E-03  -3.73920329E-06
  -6.55000005E-03  -3.79829407E-06
  -6.50000013E-03  -3.85806334E-06
  -6.45000022E-03  -3.91851108E-06
  -6.39999984E-03  -3.97963913E-06
  -6.34999992E-03  -4.04144839E-06
  -6.30000001E-03  -4.10394250E-06
  -6.25000009E-03  -4.16712555E-06
  -6.20000018E-03  -4.23099937E-06
  -6.14999980E-03  -4.29556621E-06
  -6.09999988E-03  -4.36082564E-06
  -6.04999997E-03  -4.42677583E-06
  -6.00000005E-03  -4.49341542E-06
  -5.95000014E-03  -4.56074167E-06
  -5.90000022E-03  -4.62875551E-06
  -5.84999984E-03  -4.69745692E-06
  -5.79999993E-03  -4.76684909E-06
  -5.75000001E-03  -4.83693339E-06
  -5.70000010E-03  -4.90771072E-06
  -5.65000018E-03  -4.97917790E-06
  -5.59999980E-03  -5.05133266E-06
  -5.54999989E-03  -5.12417091E-06
  -5.49999997E-03  -5.19768764E-06
  -5.45000006E-03  -5.27188104E-06
  -5.40000014E-03  -5.34674882E-06
  -5.35000023E-03  -5.42229100E-06
  -5.29999984E-03  -5.49850756E-06
  -5.24999993E-03  -5.57539761E-06
  -5.20000001E-03  -5.65295613E-06
  -5.15000010E-03  -5.73117768E-06
  -5.10000018E-03  -5.81005543E-06
  -5.04999980E-03  -5.88958164E-06
  -4.99999989E-03  -5.96974996E-06
  -4.94999997E-03  -6.05055629E-06
  -4.90000006E-03  -6.13199700E-06
  -4.85000014E-03  -6.21406889E-06
  -4.80000023E-03  -6.29676924E-06
  -4.74999985E-03  -6.38009033E-06
  -4.69999993E-03  -6.46402441E-06
  -4.65000002E-03  -6.54856012E-06
  -4.60000010E-03  -6.63368792E-06
  -4.55000019E-03  -6.71939779E-06
  -4.49999981E-03  -6.80568110E-06
  -4.44999989E-03  -6.89253193E-06
  -4.39999998E-03  -6.97994301E-06
  -4.35000006E-03  -7.06790843E-06
  -4.30000015E-03  -7.15641818E-06
  -4.25000023E-03  -7.24546135E-06
  -4.19999985E-03  -7.33502293E-06
  -4.14999994E-03  -7.42508928E-06
  -4.10000002E-03  -7.51564585E-06
  -4.05000011E-03  -7.60667945E-06
  -4.00000019E-03  -7.69817962E-06
  -3.94999981E-03  -7.79013499E-06
  -3.89999989E-03  -7.88253601E-06
  -3.84999998E-03  -7.97536995E-06
  -3.80000006E-03  -8.06862136E-06
  -3.74999992E-03  -8.16227293E-06
  -3.70000000E-03  -8.25630377E-06
  -3.65000009E-03  -8.35069568E-06
  -3.59999994E-03  -8.44542865E-06
  -3.55000002E-03  -8.54048903E-06
  -3.50000011E-03  -8.63586138E-06
  -3.44999996E-03  -8.73153203E-06
  -3.40000005E-03  -8.82748373E-06
  -3.34999990E-03  -8.92369735E-06
  -3.29999998E-03  -9.02015108E-06
  -3.25000007E-03  -9.11681946E-06
  -3.19999992E-03  -9.21367791E-06
  -3.15000000E-03  -9.31070190E-06
  -3.10000009E-03  -9.40786958E-06
  -3.04999994E-03  -9.50516187E-06
  -3.00000003E-03  -9.60256057E-06
  -2.95000011E-03  -9.70004476E-06
  -2.89999996E-03  -9.79758988E-06
  -2.85000005E-03  -9.89517048E-06
  -2.79999990E-03  -9.99275380E-06
  -2.74999999E-03  -1.00903098E-05
  -2.70000007E-03  -1.01878068E-05
  -2.64999992E-03  -1.02852191E-05
  -2.60000001E-03  -1.03825205E-05
  -2.55000009E-03  -1.04796845E-05
  -2.49999994E-03  -1.05766876E-05
  -2.45000003E-03  -1.06735024E-05
  -2.40000011E-03  -1.07700944E-05
  -2.34999997E-03  -1.08664271E-05
  -2.30000005E-03  -1.09624634E-05
  -2.24999990E-03  -1.10581650E-05
  -2.19999999E-03  -1.11535001E-05
  -2.15000007E-03  -1.12484349E-05
  -2.09999993E-03  -1.13429387E-05
  -2.05000001E-03  -1.14369823E-05
  -2.00000009E-03  -1.15305320E-05
  -1.94999995E-03  -1.16235478E-05
  -1.90000003E-03  -1.17159898E-05
  -1.85000000E-03  -1.18078142E-05
  -1.79999997E-03  -1.18989738E-05
  -1.75000005E-03  -1.19894275E-05
  -1.70000002E-03  -1.20791374E-05
  -1.64999999E-03  -1.21680650E-05
  -1.59999996E-03  -1.22561751E-05
  -1.55000004E-03  -1.23434284E-05
  -1.50000001E-03  -1.24297803E-05
  -1.44999998E-03  -1.25151837E-05
  -1.39999995E-03  -1.25995866E-05
  -1.35000004E-03  -1.26829364E-05
  -1.30000000E-03  -1.27651811E-05
  -1.24999997E-03  -1.28462780E-05
  -1.20000006E-03  -1.29261798E-05
  -1.15000003E-03  -1.30048456E-05
  -1.09999999E-03  -1.30822309E-05
  -1.04999996E-03  -1.31582847E-05
  -1.00000005E-03  -1.32329524E-05
  -9.50000016E-04  -1.33061776E-05
  -8.99999985E-04  -1.33778994E-05
  -8.50000011E-04  -1.34480606E-05
  -7.99999980E-04  -1.35166065E-05
  -7.50000007E-04  -1.35834862E-05
  -6.99999975E-04  -1.36486487E-05
  -6.50000002E-04  -1.37120442E-05
  -6.00000028E-04  -1.37736170E-05
  -5.49999997E-04  -1.38333044E-05
  -5.00000024E-04  -1.38910427E-05
  -4.49999992E-04  -1.39467611E-05
  -3.99999990E-04  -1.40003995E-05
  -3.49999988E-04  -1.40518914E-05
  -3.00000014E-04  -1.41011797E-05
  -2.50000012E-04  -1.41482060E-05
  -1.99999995E-04  -1.41929140E-05
  -1.50000007E-04  -1.42352401E-05
  -9.99999975E-05  -1.42751178E-05
  -4.99999987E-05  -1.43124735E-05
   0.00000000      -1.43472353E-05
   4.99999987E-05  -1.43793295E-05
   9.99999975E-05  -1.44086853E-05
   1.50000007E-04  -1.44352352E-05
   1.99999995E-04  -1.44589139E-05
   2.50000012E-04  -1.44796568E-05
   3.00000014E-04  -1.44973974E-05
   3.49999988E-04  -1.45120621E-05
   3.99999990E-04  -1.45235717E-05
   4.49999992E-04  -1.45318481E-05
   5.00000024E-04  -1.45368067E-05
   5.49999997E-04  -1.45383719E-05
   6.00000028E-04  -1.45364666E-05
   6.50000002E-04  -1.45310187E-05
   6.99999975E-04  -1.45219556E-05
   7.50000007E-04  -1.45092063E-05
   7.99999980E-04  -1.44926917E-05
   8.50000011E-04  -1.44723263E-05
   8.99999985E-04  -1.44480255E-05
   9.50000016E-04  -1.44197002E-05
   1.00000005E-03  -1.43872621E-05
   1.04999996E-03  -1.43506304E-05
   1.09999999E-03  -1.43097259E-05
   1.15000003E-03  -1.42644703E-05
   1.20000006E-03  -1.42147837E-05
   1.24999997E-03  -1.41605851E-05
   1.30000000E-03  -1.41017845E-05
   1.35000004E-03  -1.40382854E-05
   1.39999995E-03  -1.39699960E-05
   1.44999998E-03  -1.38968235E-05
   1.50000001E-03  -1.38186797E-05
   1.55000004E-03  -1.37354791E-05
   1.59999996E-03  -1.36471399E-05
   1.64999999E-03  -1.35535765E-05
   1.70000002E-03  -1.34547017E-05
   1.75000005E-03  -1.33504200E-05
   1.79999997E-03  -1.32406340E-05
   1.85000000E-03  -1.31252418E-05
   1.90000003E-03  -1.30041499E-05
   1.94999995E-03  -1.28772626E-05
   2.00000009E-03  -1.27444910E-05
   2.05000001E-03  -1.26057412E-05
   2.09999993E-03  -1.24609242E-05
   2.15000007E-03  -1.23099489E-05
   2.19999999E-03  -1.21527191E-05
   2.24999990E-03  -1.19891365E-05
   2.30000005E-03  -1.18190974E-05
   2.34999997E-03  -1.16424999E-05
   2.40000011E-03  -1.14592440E-05
   2.45000003E-03  -1.12692351E-05
   2.49999994E-03  -1.10723786E-05
   2.55000009E-03  -1.08685808E-05
   2.60000001E-03  -1.06577481E-05
   2.64999992E-03  -1.04397814E-05
   2.70000007E-03  -1.02145814E-05
   2.74999999E-03  -9.98204268E-06
   2.79999990E-03  -9.74206341E-06