  -3.99999991E-02   0.00000000    
  -3.99499983E-02   0.00000000    
  -3.99000011E-02   0.00000000    
  -3.98500003E-02   0.00000000    
  -3.97999994E-02  -2.16253095E-18
  -3.97499986E-02  -2.47047201E-17
  -3.97000015E-02  -1.47165860E-16
  -3.96500006E-02  -6.06025498E-16
  -3.95999998E-02  -1.92972973E-15
  -3.95499989E-02  -5.04085866E-15
  -3.95000018E-02  -1.11946077E-14
  -3.94500010E-02  -2.16322745E-14
  -3.94000001E-02  -3.69612855E-14
  -3.93499993E-02  -5.65136689E-14
  -3.92999984E-02  -7.81563399E-14
  -3.92500013E-02  -9.90263508E-14
  -3.92000005E-02  -1.17289587E-13
  -3.91499996E-02  -1.34335292E-13
  -3.90999988E-02  -1.56173062E-13
  -3.90500017E-02  -1.92703546E-13
  -3.90000008E-02  -2.54316506E-13
  -3.89500000E-02  -3.46757210E-13
  -3.88999991E-02  -4.66660131E-13
  -3.88499983E-02  -6.00614176E-13
  -3.88000011E-02  -7.29495023E-13
  -3.87500003E-02  -8.37287867E-13
  -3.86999995E-02  -9.20802714E-13
  -3.86499986E-02  -9.95082272E-13
  -3.86000015E-02  -1.09016116E-12
  -3.85500006E-02  -1.23837962E-12
  -3.84999998E-02  -1.45647112E-12
  -3.84499989E-02  -1.73072364E-12
  -3.84000018E-02  -2.01404063E-12
  -3.83500010E-02  -2.23944366E-12
  -3.83000001E-02  -2.34670118E-12
  -3.82499993E-02  -2.31104350E-12
  -3.81999984E-02  -2.15967738E-12
  -3.81500013E-02  -1.96567177E-12
  -3.81000005E-02  -1.81867683E-12
  -3.80499996E-02  -1.78343646E-12
  -3.79999988E-02  -1.86444545E-12
  -3.79500017E-02  -1.99422900E-12
  -3.79000008E-02  -2.05320418E-12
  -3.78500000E-02  -1.91469128E-12
  -3.77999991E-02  -1.49590193E-12
  -3.77499983E-02  -7.91203366E-13
  -3.77000012E-02   1.29153077E-13
  -3.76500003E-02   1.15575789E-12
  -3.75999995E-02   2.19568331E-12
  -3.75499986E-02   3.22068479E-12
  -3.75000015E-02   4.28496648E-12
  -3.74500006E-02   5.50440075E-12
  -3.73999998E-02   7.00751566E-12
  -3.73499990E-02   8.88078673E-12
  -3.73000018E-02   1.11311021E-11
  -3.72500010E-02   1.36779104E-11
  -3.72000001E-02   1.63732205E-11
  -3.71499993E-02   1.90372978E-11
  -3.70999984E-02   2.14962874E-11
  -3.70500013E-02   2.36144212E-11
  -3.70000005E-02   2.53217673E-11
  -3.69499996E-02   2.66411598E-11
  -3.68999988E-02   2.77108371E-11
  -3.68500017E-02   2.87862130E-11
  -3.68000008E-02   3.01963038E-11
  -3.67500000E-02   3.22406685E-11
  -3.66999991E-02   3.50436624E-11
  -3.66499983E-02   3.84218039E-11
  -3.66000012E-02   4.18421270E-11
  -3.65500003E-02   4.45310733E-11
  -3.64999995E-02   4.57314395E-11
  -3.64499986E-02   4.50217086E-11
  -3.64000015E-02   4.25505395E-11
  -3.63500006E-02   3.90411210E-11
  -3.62999998E-02   3.55032254E-11
  -3.62499990E-02   3.27304919E-11
  -3.62000018E-02   3.07973126E-11
  -3.61500010E-02   2.88261463E-11
  -3.61000001E-02   2.52199581E-11
  -3.60499993E-02   1.83518409E-11
  -3.59999985E-02   7.45438954E-12
  -3.59500013E-02  -6.71946266E-12
  -3.59000005E-02  -2.18723581E-11
  -3.58499996E-02  -3.49393327E-11
  -3.57999988E-02  -4.34449560E-11
  -3.57500017E-02  -4.68691093E-11
  -3.57000008E-02  -4.73241273E-11
  -3.56500000E-02  -4.90561827E-11
  -3.55999991E-02  -5.67854479E-11
  -3.55499983E-02  -7.34915115E-11
  -3.55000012E-02  -9.86467366E-11
  -3.54500003E-02  -1.27860250E-10
  -3.53999995E-02  -1.54358568E-10
  -3.53499986E-02  -1.71878192E-10
  -3.53000015E-02  -1.77760806E-10
  -3.52500007E-02  -1.74736961E-10
  -3.51999998E-02  -1.70293599E-10
  -3.51499990E-02  -1.73556836E-10
  -3.51000018E-02  -1.90854929E-10
  -3.50500010E-02  -2.21967930E-10
  -3.50000001E-02  -2.59038624E-10
  -3.49499993E-02  -2.89098884E-10
  -3.48999985E-02  -2.99516495E-10
  -3.48500013E-02  -2.84118146E-10
  -3.48000005E-02  -2.47080162E-10
  -3.47499996E-02  -2.02355299E-10
  -3.46999988E-02  -1.68285816E-10
  -3.46500017E-02  -1.59369462E-10
  -3.46000008E-02  -1.78808926E-10
  -3.45500000E-02  -2.15574891E-10
  -3.44999991E-02  -2.47987075E-10
  -3.44499983E-02  -2.52886823E-10
  -3.44000012E-02  -2.16628812E-10
  -3.43500003E-02  -1.42766063E-10
  -3.42999995E-02  -5.22898079E-11
  -3.42499986E-02   2.45844838E-11
  -3.42000015E-02   6.20925464E-11
  -3.41500007E-02   5.20448649E-11
  -3.40999998E-02   9.93748833E-12
  -3.40499990E-02  -2.97558055E-11
  -3.40000018E-02  -2.80942873E-11
  -3.39500010E-02   3.99193040E-11
  -3.39000002E-02   1.71501965E-10
  -3.38499993E-02   3.34039352E-10
  -3.37999985E-02   4.77126672E-10
  -3.37500013E-02   5.54450375E-10
  -3.37000005E-02   5.46050816E-10
  -3.36499996E-02   4.70314843E-10
  -3.35999988E-02   3.78871212E-10
  -3.35500017E-02   3.35079076E-10
  -3.35000008E-02   3.84761750E-10
  -3.34500000E-02   5.32445532E-10
  -3.33999991E-02   7.35056405E-10
  -3.33499983E-02   9.17831700E-10
  -3.33000012E-02   1.00699638E-09
  -3.32500003E-02   9.65168057E-10
  -3.31999995E-02   8.12787893E-10
  -3.31499986E-02   6.23967655E-10
  -3.31000015E-02   4.96289843E-10
  -3.30500007E-02   5.06513997E-10
  -3.29999998E-02   6.71988298E-10
  -3.29499990E-02   9.36661859E-10
  -3.29000019E-02   1.19059074E-09
  -3.28500010E-02   1.31668010E-09
  -3.28000002E-02   1.24488531E-09
  -3.27499993E-02   9.88816917E-10
  -3.26999985E-02   6.45902887E-10
  -3.26500013E-02   3.57970736E-10
  -3.26000005E-02   2.47665222E-10
  -3.25499997E-02   3.58882035E-10
  -3.24999988E-02   6.29804764E-10
  -3.24500017E-02   9.13981557E-10
  -3.24000008E-02   1.04331144E-09
  -3.23500000E-02   9.06421271E-10
  -3.22999991E-02   5.06485631E-10
  -3.22499983E-02  -3.05787826E-11
  -3.22000012E-02  -5.05389952E-10
  -3.21500003E-02  -7.33085648E-10
  -3.20999995E-02  -6.31458164E-10
  -3.20499986E-02  -2.67623951E-10
  -3.20000015E-02   1.61985550E-10
  -3.19500007E-02   4.13930917E-10
  -3.18999998E-02   3.08260056E-10
  -3.18499990E-02  -1.82739532E-10
  -3.18000019E-02  -9.10849340E-10
  -3.17500010E-02  -1.60907854E-09
  -3.17000002E-02  -2.00851047E-09
  -3.16499993E-02  -1.96407512E-09
  -3.15999985E-02  -1.53073143E-09
  -3.15500014E-02  -9.50812984E-10
  -3.15000005E-02  -5.52380475E-10
  -3.14499997E-02  -6.00281047E-10
  -3.13999988E-02  -1.16670140E-09
  -3.13500017E-02  -2.08337081E-09
  -3.13000008E-02  -3.00337355E-09
  -3.12500000E-02  -3.55092200E-09
  -3.11999992E-02  -3.49471341E-09
  -3.11500002E-02  -2.86522694E-09
  -3.10999993E-02  -1.95742267E-09
  -3.10500003E-02  -1.21021926E-09
  -3.09999995E-02  -1.01125808E-09
  -3.09500005E-02  -1.51345214E-09
  -3.08999997E-02  -2.54966226E-09
  -3.08500007E-02  -3.69127329E-09
  -3.07999998E-02  -4.43198367E-09
  -3.07500008E-02  -4.41847980E-09
  -3.07000000E-02  -3.62312225E-09
  -3.06499992E-02  -2.37466558E-09
  -3.06000002E-02  -1.22443278E-09
  -3.05499993E-02  -7.00910607E-10
  -3.05000003E-02  -1.06088505E-09
  -3.04499995E-02  -2.15308793E-09
  -3.04000005E-02  -3.46439410E-09
  -3.03499997E-02  -4.33746949E-09
  -3.03000007E-02  -4.26817914E-09
  -3.02499998E-02  -3.14876480E-09
  -3.02000009E-02  -1.34061751E-09
  -3.01500000E-02   4.66620076E-10
  -3.00999992E-02   1.55579494E-09
  -3.00500002E-02   1.51177837E-09
  -2.99999993E-02   4.28329955E-10
  -2.99500003E-02  -1.11016951E-09
  -2.98999995E-02  -2.27531616E-09
  -2.98500005E-02  -2.36691777E-09
  -2.97999997E-02  -1.14453358E-09
  -2.97500007E-02   1.03759923E-09
  -2.96999998E-02   3.36478800E-09
  -2.96500009E-02   4.91648278E-09
  -2.96000000E-02   5.08781728E-09
  -2.95499992E-02   3.88593158E-09
  -2.95000002E-02   1.95748973E-09
  -2.94499993E-02   3.21385224E-10
  -2.94000003E-02  -8.40468042E-11
  -2.93499995E-02   1.16123655E-09
  -2.93000005E-02   3.73948827E-09
  -2.92499997E-02   6.70575417E-09
  -2.92000007E-02   8.89291663E-09
  -2.91499998E-02   9.43772793E-09
  -2.91000009E-02   8.19045276E-09
  -2.90500000E-02   5.81375614E-09
  -2.89999992E-02   3.51130125E-09
  -2.89500002E-02   2.49492271E-09
  -2.88999993E-02   3.42491391E-09
  -2.88500004E-02   6.08068396E-09
  -2.87999995E-02   9.42386880E-09
  -2.87500005E-02   1.20418724E-08
  -2.86999997E-02   1.27835067E-08
  -2.86500007E-02   1.13015819E-08
  -2.85999998E-02   8.24804847E-09
  -2.85500009E-02   5.01673769E-09
  -2.85000000E-02   3.13304804E-09
  -2.84499992E-02   3.55699181E-09
  -2.84000002E-02   6.21704332E-09
  -2.83499993E-02   9.99901939E-09
  -2.83000004E-02   1.32138425E-08
  -2.82499995E-02   1.43483669E-08
  -2.82000005E-02   1.27652298E-08
  -2.81499997E-02   9.02777852E-09
  -2.81000007E-02   4.68586059E-09
  -2.80499998E-02   1.59991387E-09
  -2.80000009E-02   1.09640785E-09
  -2.79500000E-02   3.33667383E-09
  -2.78999992E-02   7.19776994E-09
  -2.78500002E-02   1.07398952E-08
  -2.77999993E-02   1.20678099E-08
  -2.77500004E-02   1.02051061E-08
  -2.76999995E-02   5.57977886E-09
  -2.76500005E-02  -1.16901891E-10
  -2.75999997E-02  -4.65710359E-09
  -2.75500007E-02  -6.27695362E-09
  -2.74999999E-02  -4.50172433E-09
  -2.74500009E-02  -4.10437434E-10
  -2.74000000E-02   3.80189569E-09
  -2.73499992E-02   5.78895065E-09
  -2.73000002E-02   4.12106527E-09
  -2.72499993E-02  -1.02963316E-09
  -2.72000004E-02  -7.91452770E-09
  -2.71499995E-02  -1.39572132E-08
  -2.71000005E-02  -1.69070127E-08
  -2.70499997E-02  -1.58819269E-08
  -2.70000007E-02  -1.18186154E-08
  -2.69499999E-02  -7.10260029E-09
  -2.69000009E-02  -4.52032811E-09
  -2.68500000E-02  -5.99088290E-09
  -2.67999992E-02  -1.16517134E-08
  -2.67500002E-02  -1.97299475E-08
  -2.66999993E-02  -2.72849512E-08
  -2.66500004E-02  -3.15110178E-08
  -2.65999995E-02  -3.10216883E-08
  -2.65500005E-02  -2.65264326E-08
  -2.64999997E-02  -2.05694377E-08
  -2.64500007E-02  -1.64196816E-08
  -2.63999999E-02  -1.65933027E-08
  -2.63500009E-02  -2.16735287E-08
  -2.63000000E-02  -2.99785263E-08
  -2.62499992E-02  -3.82564096E-08
  -2.62000002E-02  -4.31214886E-08
  -2.61499994E-02  -4.25969162E-08
  -2.61000004E-02  -3.70598805E-08
  -2.60499995E-02  -2.91370643E-08
  -2.60000005E-02  -2.25652137E-08
  -2.59499997E-02  -2.05067785E-08
  -2.59000007E-02  -2.40756890E-08
  -2.58499999E-02  -3.17558886E-08
  -2.58000009E-02  -4.00070839E-08
  -2.57500000E-02  -4.48171384E-08
  -2.56999992E-02  -4.35191119E-08
  -2.56500002E-02  -3.60486823E-08
  -2.55999994E-02  -2.50487897E-08
  -2.55500004E-02  -1.47388306E-08
  -2.54999995E-02  -9.02923514E-09
  -2.54500005E-02  -9.72290959E-09
  -2.53999997E-02  -1.56302775E-08
  -2.53500007E-02  -2.30307062E-08
  -2.52999999E-02  -2.73085021E-08
  -2.52500009E-02  -2.50478163E-08
  -2.52000000E-02  -1.56390900E-08
  -2.51499992E-02  -1.64560121E-09
  -2.51000002E-02   1.22745938E-08
  -2.50499994E-02   2.14394333E-08
  -2.50000004E-02   2.32855566E-08
  -2.49499995E-02   1.86019555E-08
  -2.49000005E-02   1.12619292E-08
  -2.48499997E-02   6.53216903E-09
  -2.48000007E-02   8.69330563E-09
  -2.47499999E-02   1.90434708E-08
  -2.47000009E-02   3.52117269E-08
  -2.46500000E-02   5.21339771E-08
  -2.45999992E-02   6.42907452E-08
  -2.45500002E-02   6.82155772E-08
  -2.44999994E-02   6.41301767E-08
  -2.44500004E-02   5.59302826E-08
  -2.43999995E-02   4.94822956E-08
  -2.43500005E-02   4.99654895E-08
  -2.42999997E-02   5.94540417E-08
  -2.42500007E-02   7.58572227E-08
  -2.41999999E-02   9.37441271E-08
  -2.41500009E-02   1.06727768E-07
  -2.41000000E-02   1.10357270E-07
  -2.40499992E-02   1.04203693E-07
  -2.40000002E-02   9.21573857E-08
  -2.39499994E-02   8.07497145E-08
  -2.39000004E-02   7.62146470E-08
  -2.38499995E-02   8.16055348E-08
  -2.38000005E-02   9.52939203E-08
  -2.37499997E-02   1.11579084E-07
  -2.37000007E-02   1.23186396E-07
  -2.36499999E-02   1.24557644E-07
  -2.36000009E-02   1.14441555E-07
  -2.35500000E-02   9.65728759E-08
  -2.34999992E-02   7.80750256E-08
  -2.34500002E-02   6.62589130E-08
  -2.33999994E-02   6.52479741E-08
  -2.33500004E-02   7.39795212E-08
  -2.32999995E-02   8.65417675E-08
  -2.32500006E-02   9.47567287E-08
  -2.31999997E-02   9.18817520E-08
  -2.31500007E-02   7.57553593E-08
  -2.30999999E-02   4.99226545E-08
  -2.30500009E-02   2.21654410E-08
  -2.30000000E-02   1.04235975E-09
  -2.29499992E-02  -8.02155586E-09
  -2.29000002E-02  -5.30598188E-09
  -2.28499994E-02   3.19469962E-09
  -2.28000004E-02   8.39757153E-09
  -2.27499995E-02   2.25476215E-09
  -2.27000006E-02  -1.84871194E-08
  -2.26499997E-02  -5.06357658E-08
  -2.26000007E-02  -8.58310258E-08
  -2.25499999E-02  -1.14242702E-07
  -2.25000009E-02  -1.29047976E-07
  -2.24500000E-02  -1.29643098E-07
  -2.23999992E-02  -1.22070716E-07
  -2.23500002E-02  -1.16387604E-07
  -2.22999994E-02  -1.22102321E-07
  -2.22500004E-02  -1.43735065E-07
  -2.21999995E-02  -1.78553165E-07
  -2.21500006E-02  -2.17588436E-07
  -2.20999997E-02  -2.49557303E-07
  -2.20500007E-02  -2.65954412E-07
  -2.19999999E-02  -2.65001177E-07
  -2.19500009E-02  -2.52594049E-07
  -2.19000001E-02  -2.39731662E-07
  -2.18499992E-02  -2.37513959E-07
  -2.18000002E-02  -2.51956664E-07
  -2.17499994E-02  -2.81013200E-07
  -2.17000004E-02  -3.15241920E-07
  -2.16499995E-02  -3.41911630E-07
  -2.16000006E-02  -3.50744699E-07
  -2.15499997E-02  -3.38687897E-07
  -2.15000007E-02  -3.11480278E-07
  -2.14499999E-02  -2.81202830E-07
  -2.14000009E-02  -2.60831598E-07
  -2.13500001E-02  -2.58227203E-07
  -2.12999992E-02  -2.72323149E-07
  -2.12500002E-02  -2.93334807E-07
  -2.11999994E-02  -3.07005052E-07
  -2.11500004E-02  -3.01035669E-07
  -2.10999995E-02  -2.70793123E-07
  -2.10500006E-02  -2.21632320E-07
  -2.09999997E-02  -1.66671043E-07
  -2.09500007E-02  -1.20919012E-07
  -2.08999999E-02  -9.43758920E-08
  -2.08500009E-02  -8.72611565E-08
  -2.08000001E-02  -8.96412189E-08
  -2.07499992E-02  -8.57498605E-08
  -2.07000002E-02  -6.11354736E-08
  -2.06499994E-02  -9.41154532E-09
  -2.06000004E-02   6.45216431E-08
  -2.05499995E-02   1.46371960E-07
  -2.05000006E-02   2.18734243E-07
  -2.04499997E-02   2.68975839E-07
  -2.04000007E-02   2.95132793E-07
  -2.03499999E-02   3.07037851E-07
  -2.03000009E-02   3.22027915E-07
  -2.02500001E-02   3.57064437E-07
  -2.01999992E-02   4.20806714E-07
  -2.01500002E-02   5.09296456E-07
  -2.00999994E-02   6.07344759E-07
  -2.00500004E-02   6.95137430E-07
  -1.99999996E-02   7.57150417E-07
  -1.99500006E-02   7.89321405E-07
  -1.98999997E-02   8.01117949E-07
  -1.98500007E-02   8.11406608E-07
  -1.97999999E-02   8.39858387E-07
  -1.97500009E-02   8.97736527E-07
  -1.97000001E-02   9.82298047E-07
  -1.96499992E-02   1.07749440E-06
  -1.96000002E-02   1.16081981E-06
  -1.95499994E-02   1.21331959E-06
  -1.95000004E-02   1.22823087E-06
  -1.94499996E-02   1.21423579E-06
  -1.94000006E-02   1.19168408E-06
  -1.93499997E-02   1.18333958E-06
  -1.93000007E-02   1.20376774E-06
  -1.92499999E-02   1.25221902E-06
  -1.92000009E-02   1.31237982E-06
  -1.91500001E-02   1.35929258E-06
  -1.90999992E-02   1.37044549E-06
  -1.90500002E-02   1.33603146E-06
  -1.89999994E-02   1.26363295E-06
  -1.89500004E-02   1.17502157E-06
  -1.88999996E-02   1.09633800E-06
  -1.88500006E-02   1.04599656E-06
  -1.87999997E-02   1.02582055E-06
  -1.87500007E-02   1.01957585E-06
  -1.86999999E-02   9.99773647E-07
  -1.86500009E-02   9.39832944E-07
  -1.86000001E-02   8.26150767E-07
  -1.85499992E-02   6.64533388E-07
  -1.85000002E-02   4.77883304E-07
  -1.84499994E-02   2.95985984E-07
  -1.84000004E-02   1.41881287E-07
  -1.83499996E-02   2.09955200E-08
  -1.83000006E-02  -8.18964239E-08
  -1.82499997E-02  -1.96290131E-07
  -1.82000007E-02  -3.52840402E-07
  -1.81499999E-02  -5.69370002E-07
  -1.81000009E-02  -8.42401846E-07
  -1.80500001E-02  -1.14824468E-06
  -1.79999992E-02  -1.45337071E-06
  -1.79500002E-02  -1.72956493E-06
  -1.78999994E-02  -1.96701558E-06
  -1.78500004E-02  -2.17928368E-06
  -1.77999996E-02  -2.39767246E-06
  -1.77500006E-02  -2.65732228E-06
  -1.76999997E-02  -2.98118130E-06
  -1.76500008E-02  -3.36916810E-06
  -1.75999999E-02  -3.79760945E-06
  -1.75500009E-02  -4.22943776E-06
  -1.75000001E-02  -4.63076458E-06
  -1.74499992E-02  -4.98637883E-06
  -1.74000002E-02  -5.30705302E-06
  -1.73499994E-02  -5.62509877E-06
  -1.73000004E-02  -5.97993949E-06
  -1.72499996E-02  -6.40007192E-06
  -1.72000006E-02  -6.88957380E-06
  -1.71499997E-02  -7.42545990E-06
  -1.71000008E-02  -7.96735549E-06
  -1.70499999E-02  -8.47534193E-06
  -1.70000009E-02  -8.92802291E-06
  -1.69500001E-02  -9.33253614E-06
  -1.68999992E-02  -9.72177895E-06
  -1.68500002E-02  -1.01397927E-05
  -1.67999994E-02  -1.06217276E-05
  -1.67500004E-02  -1.11774079E-05
  -1.66999996E-02  -1.17861091E-05
  -1.66500006E-02  -1.24051612E-05
  -1.65999997E-02  -1.29887467E-05
  -1.65500008E-02  -1.35085884E-05
  -1.64999999E-02  -1.39670674E-05
  -1.64500009E-02  -1.43966299E-05
  -1.64000001E-02  -1.48455074E-05
  -1.63499992E-02  -1.53558613E-05
  -1.63000003E-02  -1.59442297E-05
  -1.62499994E-02  -1.65932834E-05
  -1.62000004E-02  -1.72588007E-05
  -1.61499996E-02  -1.78891296E-05
  -1.61000006E-02  -1.84484252E-05
  -1.60499997E-02  -1.89332350E-05
  -1.60000008E-02  -1.93747237E-05
  -1.59499999E-02  -1.98251855E-05
  -1.59000009E-02  -2.03346244E-05
  -1.58500001E-02  -2.09279606E-05
  -1.57999992E-02  -2.15932141E-05
  -1.57500003E-02  -2.22862109E-05
  -1.56999994E-02  -2.29501165E-05
  -1.56500004E-02  -2.35411844E-05
  -1.55999996E-02  -2.40490008E-05
  -1.55499997E-02  -2.45019964E-05
  -1.54999997E-02  -2.49554050E-05
  -1.54499998E-02  -2.54668121E-05
  -1.53999999E-02  -2.60701236E-05
  -1.53500000E-02  -2.67598043E-05
  -1.53000001E-02  -2.74927879E-05
  -1.52500002E-02  -2.82075125E-05
  -1.52000003E-02  -2.88518022E-05
  -1.51500003E-02  -2.94070578E-05
  -1.51000004E-02  -2.98976411E-05
  -1.50499996E-02  -3.03810066E-05
  -1.49999997E-02  -3.09225907E-05
  -1.49499997E-02  -3.15666075E-05
  -1.48999998E-02  -3.23160457E-05
  -1.48499999E-02  -3.31309566E-05
  -1.48000000E-02  -3.39462968E-05
  -1.47500001E-02  -3.47014902E-05
  -1.47000002E-02  -3.53685609E-05
  -1.46500003E-02  -3.59660371E-05
  -1.46000003E-02  -3.65518281E-05
  -1.45500004E-02  -3.71982096E-05
  -1.44999996E-02  -3.79598132E-05
  -1.44499997E-02  -3.88490007E-05
  -1.43999998E-02  -3.98300945E-05
  -1.43499998E-02  -4.08352498E-05
  -1.42999999E-02  -4.17952979E-05
  -1.42500000E-02  -4.26717561E-05
  -1.42000001E-02  -4.34755275E-05
  -1.41500002E-02  -4.42633573E-05
  -1.41000003E-02  -4.51136111E-05
  -1.40500003E-02  -4.60918200E-05
  -1.40000004E-02  -4.72214015E-05
  -1.39499996E-02  -4.84730699E-05
  -1.38999997E-02  -4.97779547E-05
  -1.38499998E-02  -5.10590871E-05
  -1.37999998E-02  -5.22668415E-05
  -1.37499999E-02  -5.34026476E-05
  -1.37000000E-02  -5.45200528E-05
  -1.36500001E-02  -5.57019339E-05
  -1.36000002E-02  -5.70240591E-05
  -1.35500003E-02  -5.85213093E-05
  -1.35000004E-02  -6.01719184E-05
  -1.34500004E-02  -6.19071143E-05
  -1.33999996E-02  -6.36423283E-05
  -1.33499997E-02  -6.53160241E-05
  -1.32999998E-02  -6.69186848E-05
  -1.32499998E-02  -6.84986226E-05
  -1.31999999E-02  -7.01416575E-05
  -1.31500000E-02  -7.19335949E-05
  -1.31000001E-02  -7.39219831E-05
  -1.30500002E-02  -7.60946350E-05
  -1.30000003E-02  -7.83852156E-05
  -1.29500004E-02  -8.07031829E-05
  -1.29000004E-02  -8.29752389E-05
  -1.28499996E-02  -8.51796212E-05
  -1.27999997E-02  -8.73574245E-05
  -1.27499998E-02  -8.95957273E-05
  -1.26999998E-02  -9.19893282E-05
  -1.26499999E-02  -9.45983484E-05
  -1.26000000E-02  -9.74212599E-05
  -1.25500001E-02  -1.00395438E-04
  -1.25000002E-02  -1.03425329E-04
  -1.24500003E-02  -1.06425978E-04
  -1.24000004E-02  -1.09362270E-04
  -1.23500004E-02  -1.12266127E-04
  -1.22999996E-02  -1.15223549E-04
  -1.22499997E-02  -1.18336793E-04
  -1.21999998E-02  -1.21679092E-04
  -1.21499998E-02  -1.25261853E-04
  -1.20999999E-02  -1.29029111E-04
  -1.20500000E-02  -1.32882880E-04
  -1.20000001E-02  -1.36727991E-04
  -1.19500002E-02  -1.40516189E-04
  -1.19000003E-02  -1.44269288E-04
  -1.18500004E-02  -1.48070976E-04
  -1.18000004E-02  -1.52030392E-04
  -1.17499996E-02  -1.56233757E-04
  -1.16999997E-02  -1.60705793E-04
  -1.16499998E-02  -1.65398218E-04
  -1.15999999E-02  -1.70211992E-04
  -1.15499999E-02  -1.75042194E-04
  -1.15000000E-02  -1.79826020E-04
  -1.14500001E-02  -1.84573262E-04
  -1.14000002E-02  -1.89362938E-04
  -1.13500003E-02  -1.94308988E-04
  -1.13000004E-02  -1.99510323E-04
  -1.12500004E-02  -2.05006509E-04
  -1.11999996E-02  -2.10760467E-04
  -1.11499997E-02  -2.16675355E-04
  -1.10999998E-02  -2.22639079E-04
  -1.10499999E-02  -2.28576624E-04
  -1.09999999E-02  -2.34485502E-04
  -1.09500000E-02  -2.40438880E-04
  -1.09000001E-02  -2.46554526E-04
  -1.08500002E-02  -2.52942991E-04
  -1.08000003E-02  -2.59658409E-04
  -1.07500004E-02  -2.66674877E-04
  -1.07000005E-02  -2.73898331E-04
  -1.06499996E-02  -2.81209388E-04
  -1.05999997E-02  -2.88519193E-04
  -1.05499998E-02  -2.95811216E-04
  -1.04999999E-02  -3.03149805E-04
  -1.04499999E-02  -3.10654024E-04
  -1.04000000E-02  -3.18445469E-04
  -1.03500001E-02  -3.26593785E-04
  -1.03000002E-02  -3.35087185E-04
  -1.02500003E-02  -3.43838910E-04
  -1.02000004E-02  -3.52726929E-04
  -1.01500005E-02  -3.61651502E-04
  -1.00999996E-02  -3.70582129E-04
  -1.00499997E-02  -3.79573787E-04
  -9.99999978E-03  -3.88745335E-04
  -9.94999986E-03  -3.98227887E-04
  -9.89999995E-03  -4.08107036E-04
  -9.85000003E-03  -4.18385665E-04
  -9.80000012E-03  -4.28983680E-04
  -9.75000020E-03  -4.39775700E-04
  -9.70000029E-03  -4.50650579E-04
  -9.65000037E-03  -4.61562304E-04
  -9.60000046E-03  -4.72554326E-04
  -9.54999961E-03  -4.83742508E-04
  -9.49999969E-03  -4.95263783E-04
  -9.44999978E-03  -5.07217424E-04
  -9.39999986E-03  -5.19620255E-04
  -9.34999995E-03  -5.32400911E-04
  -9.30000003E-03  -5.45434479E-04
  -9.25000012E-03  -5.58600761E-04
  -9.20000020E-03  -5.71841956E-04
  -9.15000029E-03  -5.85191359E-04
  -9.10000037E-03  -5.98761486E-04
  -9.05000046E-03  -6.12696167E-04
  -8.99999961E-03  -6.27107918E-04
  -8.94999970E-03  -6.42030034E-04
  -8.89999978E-03  -6.57402503E-04
  -8.84999987E-03  -6.73102099E-04
  -8.79999995E-03  -6.89002161E-04
  -8.75000004E-03  -7.05030805E-04
  -8.70000012E-03  -7.21207762E-04
  -8.65000021E-03  -7.37638155E-04
  -8.60000029E-03  -7.54467444E-04
  -8.55000038E-03  -7.71818915E-04
  -8.50000046E-03  -7.89738959E-04
  -8.44999962E-03  -8.08176585E-04
  -8.39999970E-03  -8.27010081E-04
  -8.34999979E-03  -8.46106501E-04
  -8.29999987E-03  -8.65382317E-04
  -8.24999996E-03  -8.84844107E-04
  -8.20000004E-03  -9.04590415E-04
  -8.15000013E-03  -9.24771070E-04
  -8.10000021E-03  -9.45519772E-04
  -8.05000030E-03  -9.66896361E-04
  -8.00000038E-03  -9.88865155E-04
  -7.95000046E-03  -1.01131131E-03
  -7.89999962E-03  -1.03409600E-03
  -7.84999970E-03  -1.05712633E-03
  -7.79999979E-03  -1.08039868E-03
  -7.74999987E-03  -1.10400340E-03
  -7.69999996E-03  -1.12808950E-03
  -7.65000004E-03  -1.15280016E-03
  -7.60000013E-03  -1.17820909E-03
  -7.55000021E-03  -1.20428938E-03
  -7.49999983E-03  -1.23092986E-03
  -7.44999992E-03  -1.25798921E-03
  -7.40000000E-03  -1.28536299E-03
  -7.35000009E-03  -1.31303526E-03
  -7.30000017E-03  -1.34109019E-03
  -7.24999979E-03  -1.36967667E-03
  -7.19999988E-03  -1.39894395E-03
  -7.14999996E-03  -1.42897666E-03
  -7.10000005E-03  -1.45975861E-03
  -7.05000013E-03  -1.49118493E-03
  -7.00000022E-03  -1.52311311E-03
  -6.94999984E-03  -1.55543035E-03
  -6.89999992E-03  -1.58810918E-03
  -6.85000001E-03  -1.62122736E-03
  -6.80000009E-03  -1.65493379E-03
  -6.75000018E-03  -1.68938271E-03
  -6.69999979E-03  -1.72467320E-03
  -6.64999988E-03  -1.76080549E-03
  -6.59999996E-03  -1.79768121E-03
  -6.55000005E-03  -1.83515507E-03
  -6.50000013E-03  -1.87310472E-03
  -6.45000022E-03  -1.91149011E-03
  -6.39999984E-03  -1.95038295E-03
  -6.34999992E-03  -1.98992947E-03
  -6.30000001E-03  -2.03029159E-03
  -6.25000009E-03  -2.07158225E-03
  -6.20000018E-03  -2.11380818E-03
  -6.14999980E-03  -2.15688022E-03
  -6.09999988E-03  -2.20065238E-03
  -6.04999997E-03  -2.24498799E-03
  -6.00000005E-03  -2.28983304E-03
  -5.95000014E-03  -2.33524456E-03
  -5.90000022E-03  -2.38136970E-03
  -5.84999984E-03  -2.42838543E-03
  -5.79999993E-03  -2.47641420E-03
  -5.75000001E-03  -2.52547627E-03
  -5.70000010E-03  -2.57548760E-03
  -5.65000018E-03  -2.62629730E-03
  -5.59999980E-03  -2.67775753E-03
  -5.54999989E-03  -2.72980286E-03
  -5.49999997E-03  -2.78248964E-03
  -5.45000006E-03  -2.83595989E-03
  -5.40000014E-03  -2.89039174E-03
  -5.35000023E-03  -2.94592790E-03
  -5.29999984E-03  -3.00260144E-03
  -5.24999993E-03  -3.06033227E-03
  -5.20000001E-03  -3.11897369E-03
  -5.15000010E-03  -3.17837461E-03
  -5.10000018E-03  -3.23845213E-03
  -5.04999980E-03  -3.29923839E-03
  -4.99999989E-03  -3.36087239E-03
  -4.94999997E-03  -3.42353620E-03
  -4.90000006E-03  -3.48737789E-03
  -4.85000014E-03  -3.55244754E-03
  -4.80000023E-03  -3.61867808E-03
  -4.74999985E-03  -3.68590956E-03
  -4.69999993E-03  -3.75397992E-03
  -4.65000002E-03  -3.82280094E-03
  -4.60000010E-03  -3.89239052E-03
  -4.55000019E-03  -3.96288140E-03
  -4.49999981E-03  -4.03446192E-03
  -4.44999989E-03  -4.10729274E-03
  -4.39999998E-03  -4.18143440E-03
  -4.35000006E-03  -4.25683009E-03
  -4.30000015E-03  -4.33333218E-03
  -4.25000023E-03  -4.41077072E-03
  -4.19999985E-03  -4.48903767E-03
  -4.14999994E-03  -4.56814235E-03
  -4.10000002E-03  -4.64820117E-03
  -4.05000011E-03  -4.72939992E-03
  -4.00000019E-03  -4.81190858E-03
  -3.94999981E-03  -4.89580538E-03
  -3.89999989E-03  -4.98104841E-03
  -3.84999998E-03  -5.06747561E-03
  -3.80000006E-03  -5.15490491E-03
  -3.74999992E-03  -5.24321711E-03
  -3.70000000E-03  -5.33239078E-03
  -3.65000009E-03  -5.42253209E-03
  -3.59999994E-03  -5.51383477E-03
  -3.55000002E-03  -5.60648274E-03
  -3.50000011E-03  -5.70057426E-03
  -3.44999996E-03  -5.79607952E-03
  -3.40000005E-03  -5.89285279E-03
  -3.34999990E-03  -5.99068822E-03
  -3.29999998E-03  -6.08942378E-03
  -3.25000007E-03  -6.18902966E-03
  -3.19999992E-03  -6.28960412E-03
  -3.15000000E-03  -6.39135297E-03
  -3.10000009E-03  -6.49449648E-03
  -3.04999994E-03  -6.59913663E-03
  -3.00000003E-03  -6.70524547E-03
  -2.95000011E-03  -6.81266887E-03
  -2.89999996E-03  -6.92117354E-03
  -2.85000005E-03  -7.03059696E-03
  -2.79999990E-03  -7.14088976E-03
  -2.74999999E-03  -7.25213205E-03
  -2.70000007E-03  -7.36452872E-03
  -2.64999992E-03  -7.47829862E-03
  -2.60000001E-03  -7.59356422E-03
  -2.55000009E-03  -7.71030551E-03
  -2.49999994E-03  -7.82838464E-03
  -2.45000003E-03  -7.94759300E-03
  -2.40000011E-03  -8.06772336E-03
  -2.34999997E-03  -8.18867143E-03
  -2.30000005E-03  -8.31050053E-03
  -2.24999990E-03  -8.43339972E-03
  -2.19999999E-03  -8.55760835E-03
  -2.15000007E-03  -8.68329871E-03
  -2.09999993E-03  -8.81048758E-03
  -2.05000001E-03  -8.93902872E-03
  -2.00000009E-03  -9.06867906E-03
  -1.94999995E-03  -9.19921231E-03
  -1.90000003E-03  -9.33050364E-03
  -1.85000000E-03  -9.46257915E-03
  -1.79999997E-03  -9.59565397E-03
  -1.75000005E-03  -9.72999446E-03
  -1.70000002E-03  -9.86576453E-03
  -1.64999999E-03  -1.00029837E-02
  -1.59999996E-03  -1.01415059E-02
  -1.55000004E-03  -1.02810590E-02
  -1.50000001E-03  -1.04213944E-02
  -1.44999998E-03  -1.05623947E-02
  -1.39999995E-03  -1.07040899E-02
  -1.35000004E-03  -1.08466707E-02
  -1.30000000E-03  -1.09903924E-02
  -1.24999997E-03  -1.11354236E-02
  -1.20000006E-03  -1.12817949E-02
  -1.15000003E-03  -1.14293639E-02
  -1.09999999E-03  -1.15778577E-02
  -1.04999996E-03  -1.17270332E-02
  -1.00000005E-03  -1.18767191E-02
  -9.50000016E-04  -1.20269349E-02
  -8.99999985E-04  -1.21778920E-02
  -8.50000011E-04  -1.23298140E-02
  -7.99999980E-04  -1.24828741E-02
  -7.50000007E-04  -1.26371235E-02
  -6.99999975E-04  -1.27924420E-02
  -6.50000002E-04  -1.29485680E-02
  -6.00000028E-04  -1.31052127E-02
  -5.49999997E-04  -1.32621899E-02
  -5.00000024E-04  -1.34195006E-02
  -4.49999992E-04  -1.35773057E-02
  -3.99999990E-04  -1.37358224E-02
  -3.49999988E-04  -1.38952537E-02
  -3.00000014E-04  -1.40556786E-02
  -2.50000012E-04  -1.42170135E-02
  -1.99999995E-04  -1.43790320E-02
  -1.50000007E-04  -1.45414025E-02
  -9.99999975E-05  -1.47038326E-02
  -4.99999987E-05  -1.48662217E-02
   0.00000000      -1.50286835E-02
   4.99999987E-05  -1.51914768E-02
   9.99999975E-05  -1.53548922E-02
   1.50000007E-04  -1.55190742E-02
   1.99999995E-04  -1.56839602E-02
   2.50000012E-04  -1.58492755E-02
   3.00000014E-04  -1.60146654E-02
   3.49999988E-04  -1.61798242E-02
   3.99999990E-04  -1.63446125E-02
   4.49999992E-04  -1.65091362E-02
   5.00000024E-04  -1.66736282E-02
   5.49999997E-04  -1.68383773E-02
   6.00000028E-04  -1.70035604E-02
   6.50000002E-04  -1.71691086E-02
   6.99999975E-04  -1.73347760E-02
   7.50000007E-04  -1.75001975E-02
   7.99999980E-04  -1.76650044E-02
   8.50000011E-04  -1.78290233E-02
   8.99999985E-04  -1.79922916E-02
   9.50000016E-04  -1.81549881E-02
   1.00000005E-03  -1.83174275E-02
   1.04999996E-03  -1.84798371E-02
   1.09999999E-03  -1.86421741E-02
   1.15000003E-03  -1.88042242E-02
   1.20000006E-03  -1.89656280E-02
   1.24999997E-03  -1.91260055E-02
   1.30000000E-03  -1.92851387E-02
   1.35000004E-03  -1.94429588E-02
   1.39999995E-03  -1.95996296E-02
   1.44999998E-03  -1.97554696E-02
   1.50000001E-03  -1.99107267E-02
   1.55000004E-03  -2.00654864E-02
   1.59999996E-03  -2.02195290E-02
   1.64999999E-03  -2.03723982E-02
   1.70000002E-03  -2.05236897E-02
   1.75000005E-03  -2.06731092E-02
   1.79999997E-03  -2.08205339E-02
   1.85000000E-03  -2.09661163E-02
   1.90000003E-03  -2.11102404E-02
   1.94999995E-03  -2.12532282E-02
   2.00000009E-03  -2.13951040E-02
   2.05000001E-03  -2.15356387E-02
   2.09999993E-03  -2.16744207E-02
   2.15000007E-03  -2.18110085E-02
   2.19999999E-03  -2.19449997E-02
   2.24999990E-03  -2.20762696E-02
   2.30000005E-03  -2.22050361E-02
   2.34999997E-03  -2.23316103E-02
   2.40000011E-03  -2.24562529E-02
   2.45000003E-03  -2.25790199E-02
   2.49999994E-03  -2.26997491E-02
   2.55000009E-03  -2.28180215E-02
   2.60000001E-03  -2.29333062E-02
   2.64999992E-03  -2.30452735E-02
   2.70000007E-03  -2.31538247E-02
   2.74999999E-03  -2.32591014E-02
   2.79999990E-03  -2.33613905E-02