  -3.99999991E-02   0.00000000    
  -3.99499983E-02   0.00000000    
  -3.99000011E-02   0.00000000    
  -3.98500003E-02   0.00000000    
  -3.97999994E-02  -2.66832232E-18
  -3.97499986E-02  -3.13139346E-17
  -3.97000015E-02  -1.90859684E-16
  -3.96500006E-02  -8.01131702E-16
  -3.95999998E-02  -2.59146639E-15
  -3.95499989E-02  -6.85610194E-15
  -3.95000018E-02  -1.53779645E-14
  -3.94500010E-02  -2.99325350E-14
  -3.94000001E-02  -5.13729785E-14
  -3.93499993E-02  -7.86571803E-14
  -3.92999984E-02  -1.08520743E-13
  -3.92500013E-02  -1.36518794E-13
  -3.92000005E-02  -1.59614523E-13
  -3.91499996E-02  -1.79465573E-13
  -3.90999988E-02  -2.04571887E-13
  -3.90500017E-02  -2.49267214E-13
  -3.90000008E-02  -3.28677759E-13
  -3.89500000E-02  -4.51002869E-13
  -3.88999991E-02  -6.10709833E-13
  -3.88499983E-02  -7.87007774E-13
  -3.88000011E-02  -9.50317407E-13
  -3.87500003E-02  -1.07564630E-12
  -3.86999995E-02  -1.15743049E-12
  -3.86499986E-02  -1.21787237E-12
  -3.86000015E-02  -1.30204137E-12
  -3.85500006E-02  -1.45842182E-12
  -3.84999998E-02  -1.71134439E-12
  -3.84499989E-02  -2.03812943E-12
  -3.84000018E-02  -2.36470392E-12
  -3.83500010E-02  -2.58689923E-12
  -3.83000001E-02  -2.61237820E-12
  -3.82499993E-02  -2.40588821E-12
  -3.81999984E-02  -2.01518424E-12
  -3.81500013E-02  -1.56080595E-12
  -3.81000005E-02  -1.18856747E-12
  -3.80499996E-02  -1.00221188E-12
  -3.79999988E-02  -1.00599900E-12
  -3.79500017E-02  -1.08603285E-12
  -3.79000008E-02  -1.04389457E-12
  -3.78500000E-02  -6.72443871E-13
  -3.77999991E-02   1.57901524E-13
  -3.77499983E-02   1.44244219E-12
  -3.77000012E-02   3.04436424E-12
  -3.76500003E-02   4.75863706E-12
  -3.75999995E-02   6.41024560E-12
  -3.75499986E-02   7.94097687E-12
  -3.75000015E-02   9.44282933E-12
  -3.74500006E-02   1.11209644E-11
  -3.73999998E-02   1.32023030E-11
  -3.73499990E-02   1.58305782E-11
  -3.73000018E-02   1.89929530E-11
  -3.72500010E-02   2.25067898E-11
  -3.72000001E-02   2.60675353E-11
  -3.71499993E-02   2.93341393E-11
  -3.70999984E-02   3.20182734E-11
  -3.70500013E-02   3.39505646E-11
  -3.70000005E-02   3.51144322E-11
  -3.69499996E-02   3.56528765E-11
  -3.68999988E-02   3.58553361E-11
  -3.68500017E-02   3.61199508E-11
  -3.68000008E-02   3.68737992E-11
  -3.67500000E-02   3.84387105E-11
  -3.66999991E-02   4.08613941E-11
  -3.66499983E-02   4.37715836E-11
  -3.66000012E-02   4.63601171E-11
  -3.65500003E-02   4.75478996E-11
  -3.64999995E-02   4.63386794E-11
  -3.64499986E-02   4.22410475E-11
  -3.64000015E-02   3.55639442E-11
  -3.63500006E-02   2.73929577E-11
  -3.62999998E-02   1.91678704E-11
  -3.62499990E-02   1.19743356E-11
  -3.62000018E-02   5.85220110E-12
  -3.61500010E-02  -4.98567008E-13
  -3.61000001E-02  -9.34350167E-12
  -3.60499993E-02  -2.28915741E-11
  -3.59999985E-02  -4.20072588E-11
  -3.59500013E-02  -6.52858254E-11
  -3.59000005E-02  -8.90874388E-11
  -3.58499996E-02  -1.08760147E-10
  -3.57999988E-02  -1.20705862E-10
  -3.57500017E-02  -1.24417573E-10
  -3.57000008E-02  -1.23431196E-10
  -3.56500000E-02  -1.24461427E-10
  -3.55999991E-02  -1.34764033E-10
  -3.55499983E-02  -1.58679861E-10
  -3.55000012E-02  -1.94927435E-10
  -3.54500003E-02  -2.36143743E-10
  -3.53999995E-02  -2.71326878E-10
  -3.53499986E-02  -2.90491492E-10
  -3.53000015E-02  -2.89603952E-10
  -3.52500007E-02  -2.73377543E-10
  -3.51999998E-02  -2.54163163E-10
  -3.51499990E-02  -2.46832665E-10
  -3.51000018E-02  -2.61546451E-10
  -3.50500010E-02  -2.97669778E-10
  -3.50000001E-02  -3.42062767E-10
  -3.49499993E-02  -3.73312242E-10
  -3.48999985E-02  -3.70768943E-10
  -3.48500013E-02  -3.24690219E-10
  -3.48000005E-02  -2.42662251E-10
  -3.47499996E-02  -1.48571266E-10
  -3.46999988E-02  -7.35106073E-11
  -3.46500017E-02  -4.18919031E-11
  -3.46000008E-02  -5.88601737E-11
  -3.45500000E-02  -1.05337059E-10
  -3.44999991E-02  -1.44147860E-10
  -3.44499983E-02  -1.35727596E-10
  -3.44000012E-02  -5.70123081E-11
  -3.43500003E-02   8.52780277E-11
  -3.42999995E-02   2.54163468E-10
  -3.42499986E-02   3.96603639E-10
  -3.42000015E-02   4.67311190E-10
  -3.41500007E-02   4.51773036E-10
  -3.40999998E-02   3.77140458E-10
  -3.40499990E-02   3.04144876E-10
  -3.40000018E-02   3.01598635E-10
  -3.39500010E-02   4.13723583E-10
  -3.39000002E-02   6.35293596E-10
  -3.38499993E-02   9.07591891E-10
  -3.37999985E-02   1.13963394E-09
  -3.37500013E-02   1.24739563E-09
  -3.37000005E-02   1.19424226E-09
  -3.36499996E-02   1.01324882E-09
  -3.35999988E-02   7.98654864E-10
  -3.35500017E-02   6.67145172E-10
  -3.35000008E-02   7.04255321E-10
  -3.34500000E-02   9.20026944E-10
  -3.33999991E-02   1.23619881E-09
  -3.33499983E-02   1.51443125E-09
  -3.33000012E-02   1.61633018E-09
  -3.32500003E-02   1.46978341E-09
  -3.31999995E-02   1.11044196E-09
  -3.31499986E-02   6.75901335E-10
  -3.31000015E-02   3.50522944E-10
  -3.30500007E-02   2.82271484E-10
  -3.29999998E-02   5.08467324E-10
  -3.29499990E-02   9.26746901E-10
  -3.29000019E-02   1.32950106E-09
  -3.28500010E-02   1.49155532E-09
  -3.28000002E-02   1.27449840E-09
  -3.27499993E-02   6.99676816E-10
  -3.26999985E-02  -4.76880653E-11
  -3.26500013E-02  -6.91490587E-10
  -3.26000005E-02  -9.87131599E-10
  -3.25499997E-02  -8.39604664E-10
  -3.24999988E-02  -3.60833002E-10
  -3.24500017E-02   1.66308065E-10
  -3.24000008E-02   4.08346162E-10
  -3.23500000E-02   1.36141765E-10
  -3.22999991E-02  -6.56164789E-10
  -3.22499983E-02  -1.72776526E-09
  -3.22000012E-02  -2.68270872E-09
  -3.21500003E-02  -3.14285020E-09
  -3.20999995E-02  -2.92730928E-09
  -3.20499986E-02  -2.15412777E-09
  -3.20000015E-02  -1.20960175E-09
  -3.19500007E-02  -5.88831151E-10
  -3.18999998E-02  -6.72155998E-10
  -3.18499990E-02  -1.53763924E-09
  -3.18000019E-02  -2.90072988E-09
  -3.17500010E-02  -4.21946744E-09
  -3.17000002E-02  -4.92856955E-09
  -3.16499993E-02  -4.70220307E-09
  -3.15999985E-02  -3.62404973E-09
  -3.15500014E-02  -2.17769647E-09
  -3.15000005E-02  -1.04838616E-09
  -3.14499997E-02  -8.15246093E-10
  -3.13999988E-02  -1.67053038E-09
  -3.13500017E-02  -3.29981176E-09
  -3.13000008E-02  -4.99122965E-09
  -3.12500000E-02  -5.93925797E-09
  -3.11999992E-02  -5.61462787E-09
  -3.11500002E-02  -4.03179445E-09
  -3.10999993E-02  -1.78140525E-09
  -3.10500003E-02   2.03986036E-10
  -3.09999995E-02   1.06000997E-09
  -3.09500005E-02   3.96874644E-10
  -3.08999997E-02  -1.48795865E-09
  -3.08500007E-02  -3.70311826E-09
  -3.07999998E-02  -5.13945952E-09
  -3.07500008E-02  -4.97207209E-09
  -3.07000000E-02  -3.06212700E-09
  -3.06499992E-02  -6.45942674E-11
  -3.06000002E-02   2.82732837E-09
  -3.05499993E-02   4.40500747E-09
  -3.05000003E-02   4.00746547E-09
  -3.04499995E-02   1.86462401E-09
  -3.04000005E-02  -9.53235380E-10
  -3.03499997E-02  -2.98101299E-09
  -3.03000007E-02  -3.01648528E-09
  -3.02499998E-02  -6.97146840E-10
  -3.02000009E-02   3.27715788E-09
  -3.01500000E-02   7.40099582E-09
  -3.00999992E-02   1.00092210E-08
  -3.00500002E-02   1.00353983E-08
  -2.99999993E-02   7.53748175E-09
  -2.99500003E-02   3.73328701E-09
  -2.98999995E-02   5.00975039E-10
  -2.98500005E-02  -4.54475985E-10
  -2.97999997E-02   1.59863467E-09
  -2.97500007E-02   6.02483219E-09
  -2.96999998E-02   1.10390870E-08
  -2.96500009E-02   1.44691743E-08
  -2.96000000E-02   1.47398049E-08
  -2.95499992E-02   1.16349552E-08
  -2.95000002E-02   6.47327347E-09
  -2.94499993E-02   1.58337154E-09
  -2.94000003E-02  -7.16270654E-10
  -2.93499995E-02   8.12138301E-10
  -2.93000005E-02   5.69660319E-09
  -2.92499997E-02   1.18814985E-08
  -2.92000007E-02   1.65901746E-08
  -2.91499998E-02   1.75641048E-08
  -2.91000009E-02   1.41263428E-08
  -2.90500000E-02   7.57022356E-09
  -2.89999992E-02   6.60345334E-10
  -2.89500002E-02  -3.56817376E-09
  -2.88999993E-02  -3.19339155E-09
  -2.88500004E-02   1.65543157E-09
  -2.87999995E-02   8.75925910E-09
  -2.87500005E-02   1.47314827E-08
  -2.86999997E-02   1.65223568E-08
  -2.86500007E-02   1.28407400E-08
  -2.85999998E-02   4.83470641E-09
  -2.85500009E-02  -4.31742864E-09
  -2.85000000E-02  -1.07689626E-08
  -2.84499992E-02  -1.17380141E-08
  -2.84000002E-02  -6.83289469E-09
  -2.83499993E-02   1.65795166E-09
  -2.83000004E-02   9.69187575E-09
  -2.82499995E-02   1.32439117E-08
  -2.82000005E-02   1.01497069E-08
  -2.81499997E-02   1.17750487E-09
  -2.81000007E-02  -1.01961568E-08
  -2.80499998E-02  -1.92606588E-08
  -2.80000009E-02  -2.21737189E-08
  -2.79500000E-02  -1.77554593E-08
  -2.78999992E-02  -8.13888779E-09
  -2.78500002E-02   2.06969908E-09
  -2.77999993E-02   7.79861953E-09
  -2.77500004E-02   5.81647397E-09
  -2.76999995E-02  -3.70763376E-09
  -2.76500005E-02  -1.71344947E-08
  -2.75999997E-02  -2.88693425E-08
  -2.75500007E-02  -3.38330928E-08
  -2.74999999E-02  -2.97997200E-08
  -2.74500009E-02  -1.85263840E-08
  -2.74000000E-02  -5.11191400E-09
  -2.73499992E-02   4.19370405E-09
  -2.73000002E-02   4.78981477E-09
  -2.72499993E-02  -4.11852907E-09
  -2.72000004E-02  -1.90167100E-08
  -2.71499995E-02  -3.35218644E-08
  -2.71000005E-02  -4.11853449E-08
  -2.70499997E-02  -3.84293095E-08
  -2.70000007E-02  -2.62832476E-08
  -2.69499999E-02  -1.00839985E-08
  -2.69000009E-02   2.79923951E-09
  -2.68500000E-02   6.25060492E-09
  -2.67999992E-02  -1.75637571E-09
  -2.67500002E-02  -1.80811508E-08
  -2.66999993E-02  -3.56517518E-08
  -2.66500004E-02  -4.65345877E-08
  -2.65999995E-02  -4.55068943E-08
  -2.65500005E-02  -3.25240919E-08
  -2.64999997E-02  -1.29205873E-08
  -2.64500007E-02   4.82658669E-09
  -2.63999999E-02   1.28392168E-08
  -2.63500009E-02   7.43559125E-09
  -2.63000000E-02  -9.05549058E-09
  -2.62499992E-02  -2.91489961E-08
  -2.62000002E-02  -4.34280025E-08
  -2.61499994E-02  -4.47526567E-08
  -2.61000004E-02  -3.15747535E-08
  -2.60499995E-02  -8.82299656E-09
  -2.60000005E-02   1.41230387E-08
  -2.59499997E-02   2.75455978E-08
  -2.59000007E-02   2.57893120E-08
  -2.58499999E-02   9.96162175E-09
  -2.58000009E-02  -1.23470691E-08
  -2.57500000E-02  -3.02922487E-08
  -2.56999992E-02  -3.45830564E-08
  -2.56500002E-02  -2.17394458E-08
  -2.55999994E-02   4.14785095E-09
  -2.55500004E-02   3.30295009E-08
  -2.54999995E-02   5.32555049E-08
  -2.54500005E-02   5.67889202E-08
  -2.53999997E-02   4.29402007E-08
  -2.53500007E-02   1.88866593E-08
  -2.52999999E-02  -3.35384986E-09
  -2.52500009E-02  -1.22297612E-08
  -2.52000000E-02  -1.90731209E-09
  -2.51499992E-02   2.49126906E-08
  -2.51000002E-02   5.79594079E-08
  -2.50499994E-02   8.38114502E-08
  -2.50000004E-02   9.18713994E-08
  -2.49499995E-02   7.92365071E-08
  -2.49000005E-02   5.22299430E-08
  -2.48499997E-02   2.38043381E-08
  -2.48000007E-02   7.87445575E-09
  -2.47499999E-02   1.30548523E-08
  -2.47000009E-02   3.86168537E-08
  -2.46500000E-02   7.45538742E-08
  -2.45999992E-02   1.05838375E-07
  -2.45500002E-02   1.19061134E-07
  -2.44999994E-02   1.08517128E-07
  -2.44500004E-02   7.89730450E-08
  -2.43999995E-02   4.37772769E-08
  -2.43500005E-02   1.90427887E-08
  -2.42999997E-02   1.64273128E-08
  -2.42500007E-02   3.77363065E-08
  -2.41999999E-02   7.38355652E-08
  -2.41500009E-02   1.08477863E-07
  -2.41000000E-02   1.25443634E-07
  -2.40499992E-02   1.15857041E-07
  -2.40000002E-02   8.23781505E-08
  -2.39499994E-02   3.82984737E-08
  -2.39000004E-02   1.81827753E-09
  -2.38499995E-02  -1.20334374E-08
  -2.38000005E-02   1.75074577E-09
  -2.37499997E-02   3.56569991E-08
  -2.37000007E-02   7.27355598E-08
  -2.36499999E-02   9.40150784E-08
  -2.36000009E-02   8.70055459E-08
  -2.35500000E-02   5.14799900E-08
  -2.34999992E-02  -1.37962933E-10
  -2.34500002E-02  -4.80826259E-08
  -2.33999994E-02  -7.39894617E-08
  -2.33500004E-02  -6.92080988E-08
  -2.32999995E-02  -3.89239858E-08
  -2.32500006E-02  -1.31580788E-10
  -2.31999997E-02   2.57685215E-08
  -2.31500007E-02   2.25321433E-08
  -2.30999999E-02  -1.34701912E-08
  -2.30500009E-02  -7.13114048E-08
  -2.30000000E-02  -1.30082498E-07
  -2.29499992E-02  -1.68066293E-07
  -2.29000002E-02  -1.72475808E-07
  -2.28499994E-02  -1.45379090E-07
  -2.28000004E-02  -1.03056855E-07
  -2.27499995E-02  -6.89413255E-08
  -2.27000006E-02  -6.31840678E-08
  -2.26499997E-02  -9.34848288E-08
  -2.26000007E-02  -1.51344139E-07
  -2.25499999E-02  -2.15542229E-07
  -2.25000009E-02  -2.61425072E-07
  -2.24500000E-02  -2.71929309E-07
  -2.23999992E-02  -2.45408813E-07
  -2.23500002E-02  -1.96667727E-07
  -2.22999994E-02  -1.50595739E-07
  -2.22500004E-02  -1.31125347E-07
  -2.21999995E-02  -1.50397057E-07
  -2.21500006E-02  -2.03021585E-07
  -2.20999997E-02  -2.68124978E-07
  -2.20500007E-02  -3.18406705E-07
  -2.19999999E-02  -3.32263852E-07
  -2.19500009E-02  -3.03574723E-07
  -2.19000001E-02  -2.44688437E-07
  -2.18499992E-02  -1.81148991E-07
  -2.18000002E-02  -1.40380365E-07
  -2.17499994E-02  -1.39325067E-07
  -2.17000004E-02  -1.76590916E-07
  -2.16499995E-02  -2.32727828E-07
  -2.16000006E-02  -2.78654483E-07
  -2.15499997E-02  -2.88578178E-07
  -2.15000007E-02  -2.51661049E-07
  -2.14499999E-02  -1.77148763E-07
  -2.14000009E-02  -9.05371706E-08
  -2.13500001E-02  -2.23522960E-08
  -2.12999992E-02   5.52232127E-09
  -2.12500002E-02  -1.01531050E-08
  -2.11999994E-02  -5.22148760E-08
  -2.11500004E-02  -9.05047628E-08
  -2.10999995E-02  -9.52542791E-08
  -2.10500006E-02  -5.05049371E-08
  -2.09999997E-02   3.84856769E-08
  -2.09500007E-02   1.47282933E-07
  -2.08999999E-02   2.42982537E-07
  -2.08500009E-02   2.98886249E-07
  -2.08000001E-02   3.06584013E-07
  -2.07499992E-02   2.79952928E-07
  -2.07000002E-02   2.49150958E-07
  -2.06499994E-02   2.47169623E-07
  -2.06000004E-02   2.94907352E-07
  -2.05499995E-02   3.91479716E-07
  -2.05000006E-02   5.14212957E-07
  -2.04499997E-02   6.28461351E-07
  -2.04000007E-02   7.02956868E-07
  -2.03499999E-02   7.23841254E-07
  -2.03000009E-02   7.01033116E-07
  -2.02500001E-02   6.63957906E-07
  -2.01999992E-02   6.48429989E-07
  -2.01500002E-02   6.80492064E-07
  -2.00999994E-02   7.64463721E-07
  -2.00500004E-02   8.80642745E-07
  -1.99999996E-02   9.93809408E-07
  -1.99500006E-02   1.06882101E-06
  -1.98999997E-02   1.08634060E-06
  -1.98500007E-02   1.05159631E-06
  -1.97999999E-02   9.92141281E-07
  -1.97500009E-02   9.45501313E-07
  -1.97000001E-02   9.42177962E-07
  -1.96499992E-02   9.91633783E-07
  -1.96000002E-02   1.07762332E-06
  -1.95499994E-02   1.16508033E-06
  -1.95000004E-02   1.21557366E-06
  -1.94499996E-02   1.20443872E-06
  -1.94000006E-02   1.13186832E-06
  -1.93499997E-02   1.02289800E-06
  -1.93000007E-02   9.16184945E-07
  -1.92499999E-02   8.46545902E-07
  -1.92000009E-02   8.29085536E-07
  -1.91500001E-02   8.52103142E-07
  -1.90999992E-02   8.82053769E-07
  -1.90500002E-02   8.78421474E-07
  -1.89999994E-02   8.11865220E-07
  -1.89500004E-02   6.77454807E-07
  -1.88999996E-02   4.96972632E-07
  -1.88500006E-02   3.09151318E-07
  -1.87999997E-02   1.52169378E-07
  -1.87500007E-02   4.62663117E-08
  -1.86999999E-02  -1.56553082E-08
  -1.86500009E-02  -6.51276935E-08
  -1.86000001E-02  -1.44136578E-07
  -1.85499992E-02  -2.86304214E-07
  -1.85000002E-02  -5.01717466E-07
  -1.84499994E-02  -7.72287990E-07
  -1.84000004E-02  -1.05981189E-06
  -1.83499996E-02  -1.32316177E-06
  -1.83000006E-02  -1.53687699E-06
  -1.82499997E-02  -1.70275302E-06
  -1.82000007E-02  -1.84913938E-06
  -1.81499999E-02  -2.01819830E-06
  -1.81000009E-02  -2.24684027E-06
  -1.80500001E-02  -2.54994347E-06
  -1.79999992E-02  -2.91347237E-06
  -1.79500002E-02  -3.30067201E-06
  -1.78999994E-02  -3.66859399E-06
  -1.78500004E-02  -3.98750080E-06
  -1.77999996E-02  -4.25436383E-06
  -1.77500006E-02  -4.49430490E-06
  -1.76999997E-02  -4.74926674E-06
  -1.76500008E-02  -5.05900971E-06
  -1.75999999E-02  -5.44302748E-06
  -1.75500009E-02  -5.89155570E-06
  -1.75000001E-02  -6.36983214E-06
  -1.74499992E-02  -6.83369080E-06
  -1.74000002E-02  -7.24945676E-06
  -1.73499994E-02  -7.60909506E-06
  -1.73000004E-02  -7.93373238E-06
  -1.72499996E-02  -8.26392261E-06
  -1.72000006E-02  -8.64102640E-06
  -1.71499997E-02  -9.08820493E-06
  -1.71000008E-02  -9.59963472E-06
  -1.70499999E-02  -1.01429150E-05
  -1.70000009E-02  -1.06735924E-05
  -1.69500001E-02  -1.11552208E-05
  -1.68999992E-02  -1.15758367E-05
  -1.68500002E-02  -1.19533424E-05
  -1.67999994E-02  -1.23272976E-05
  -1.67500004E-02  -1.27408312E-05
  -1.66999996E-02  -1.32209243E-05
  -1.66500006E-02  -1.37660263E-05
  -1.65999997E-02  -1.43466414E-05
  -1.65500008E-02  -1.49187072E-05
  -1.64999999E-02  -1.54435966E-05
  -1.64500009E-02  -1.59056690E-05
  -1.64000001E-02  -1.63193872E-05
  -1.63499992E-02  -1.67225880E-05
  -1.63000003E-02  -1.71591200E-05
  -1.62499994E-02  -1.76587437E-05
  -1.62000004E-02  -1.82234162E-05
  -1.61499996E-02  -1.88263548E-05
  -1.61000006E-02  -1.94242621E-05
  -1.60499997E-02  -1.99771948E-05
  -1.60000008E-02  -2.04669850E-05
  -1.59499999E-02  -2.09057380E-05
  -1.59000009E-02  -2.13303956E-05
  -1.58500001E-02  -2.17860161E-05
  -1.57999992E-02  -2.23053321E-05
  -1.57500003E-02  -2.28938752E-05
  -1.56999994E-02  -2.35276621E-05
  -1.56500004E-02  -2.41644484E-05
  -1.55999996E-02  -2.47633743E-05
  -1.55499997E-02  -2.53039689E-05
  -1.54999997E-02  -2.57958163E-05
  -1.54499998E-02  -2.62744234E-05
  -1.53999999E-02  -2.67851265E-05
  -1.53500000E-02  -2.73623846E-05
  -1.53000001E-02  -2.80141048E-05
  -1.52500002E-02  -2.87182247E-05
  -1.52000003E-02  -2.94331348E-05
  -1.51500003E-02  -3.01172495E-05
  -1.51000004E-02  -3.07485898E-05
  -1.50499996E-02  -3.13355195E-05
  -1.49999997E-02  -3.19134524E-05
  -1.49499997E-02  -3.25290712E-05
  -1.48999998E-02  -3.32193522E-05
  -1.48499999E-02  -3.39949038E-05
  -1.48000000E-02  -3.48355788E-05
  -1.47500001E-02  -3.57002173E-05
  -1.47000002E-02  -3.65461783E-05
  -1.46500003E-02  -3.73498478E-05
  -1.46000003E-02  -3.81181635E-05
  -1.45500004E-02  -3.88861154E-05
  -1.44999996E-02  -3.97011936E-05
  -1.44499997E-02  -4.06018626E-05
  -1.43999998E-02  -4.16002222E-05
  -1.43499998E-02  -4.26766346E-05
  -1.42999999E-02  -4.37891904E-05
  -1.42500000E-02  -4.48936917E-05
  -1.42000001E-02  -4.59648836E-05
  -1.41500002E-02  -4.70088598E-05
  -1.41000003E-02  -4.80612616E-05
  -1.40500003E-02  -4.91716310E-05
  -1.40000004E-02  -5.03810516E-05
  -1.39499996E-02  -5.17036970E-05
  -1.38999997E-02  -5.31206751E-05
  -1.38499998E-02  -5.45893527E-05
  -1.37999998E-02  -5.60635781E-05
  -1.37499999E-02  -5.75159320E-05
  -1.37000000E-02  -5.89515585E-05
  -1.36500001E-02  -6.04067209E-05
  -1.36000002E-02  -6.19328857E-05
  -1.35500003E-02  -6.35734104E-05
  -1.35000004E-02  -6.53437310E-05
  -1.34500004E-02  -6.72243259E-05
  -1.33999996E-02  -6.91700334E-05
  -1.33499997E-02  -7.11313551E-05
  -1.32999998E-02  -7.30782340E-05
  -1.32499998E-02  -7.50148974E-05
  -1.31999999E-02  -7.69790422E-05
  -1.31500000E-02  -7.90256090E-05
  -1.31000001E-02  -8.12019571E-05
  -1.30500002E-02  -8.35262035E-05
  -1.30000003E-02  -8.59792490E-05
  -1.29500004E-02  -8.85136978E-05
  -1.29000004E-02  -9.10761955E-05
  -1.28499996E-02  -9.36331198E-05
  -1.27999997E-02  -9.61872793E-05
  -1.27499998E-02  -9.87779276E-05
  -1.26999998E-02  -1.01463644E-04
  -1.26499999E-02  -1.04295847E-04
  -1.26000000E-02  -1.07295324E-04
  -1.25500001E-02  -1.10442372E-04
  -1.25000002E-02  -1.13686023E-04
  -1.24500003E-02  -1.16967800E-04
  -1.24000004E-02  -1.20249097E-04
  -1.23500004E-02  -1.23530423E-04
  -1.22999996E-02  -1.26852363E-04
  -1.22499997E-02  -1.30277826E-04
  -1.21999998E-02  -1.33863941E-04
  -1.21499998E-02  -1.37636234E-04
  -1.20999999E-02  -1.41576573E-04
  -1.20500000E-02  -1.45631653E-04
  -1.20000001E-02  -1.49738073E-04
  -1.19500002E-02  -1.53852758E-04
  -1.19000003E-02  -1.57974326E-04
  -1.18500004E-02  -1.62145312E-04
  -1.18000004E-02  -1.66434373E-04
  -1.17499996E-02  -1.70905827E-04
  -1.16999997E-02  -1.75590772E-04
  -1.16499998E-02  -1.80472154E-04
  -1.15999999E-02  -1.85493118E-04
  -1.15499999E-02  -1.90583334E-04
  -1.15000000E-02  -1.95691464E-04
  -1.14500001E-02  -2.00811221E-04
  -1.14000002E-02  -2.05985503E-04
  -1.13500003E-02  -2.11287916E-04
  -1.13000004E-02  -2.16790882E-04
  -1.12500004E-02  -2.22532879E-04
  -1.11999996E-02  -2.28501536E-04
  -1.11499997E-02  -2.34639432E-04
  -1.10999998E-02  -2.40871275E-04
  -1.10499999E-02  -2.47140590E-04
  -1.09999999E-02  -2.53437523E-04
  -1.09500000E-02  -2.59805849E-04
  -1.09000001E-02  -2.66325515E-04
  -1.08500002E-02  -2.73077632E-04
  -1.08000003E-02  -2.80108536E-04
  -1.07500004E-02  -2.87409173E-04
  -1.07000005E-02  -2.94919126E-04
  -1.06499996E-02  -3.02554254E-04
  -1.05999997E-02  -3.10246949E-04
  -1.05499998E-02  -3.17978993E-04
  -1.04999999E-02  -3.25791363E-04
  -1.04499999E-02  -3.33768025E-04
  -1.04000000E-02  -3.41999781E-04
  -1.03500001E-02  -3.50543763E-04
  -1.03000002E-02  -3.59398924E-04
  -1.02500003E-02  -3.68507317E-04
  -1.02000004E-02  -3.77781515E-04
  -1.01500005E-02  -3.87146778E-04
  -1.00999996E-02  -3.96577438E-04
  -1.00499997E-02  -4.06112289E-04
  -9.99999978E-03  -4.15840361E-04
  -9.94999986E-03  -4.25863254E-04
  -9.89999995E-03  -4.36249800E-04
  -9.85000003E-03  -4.47006634E-04
  -9.80000012E-03  -4.58075956E-04
  -9.75000020E-03  -4.69362916E-04
  -9.70000029E-03  -4.80781513E-04
  -9.65000037E-03  -4.92294901E-04
  -9.60000046E-03  -5.03935677E-04
  -9.54999961E-03  -5.15794090E-04
  -9.49999969E-03  -5.27978118E-04
  -9.44999978E-03  -5.40566805E-04
  -9.39999986E-03  -5.53574879E-04
  -9.34999995E-03  -5.66946401E-04
  -9.30000003E-03  -5.80582826E-04
  -9.25000012E-03  -5.94389508E-04
  -9.20000020E-03  -6.08321570E-04
  -9.15000029E-03  -6.22408174E-04
  -9.10000037E-03  -6.36742625E-04
  -9.05000046E-03  -6.51443552E-04
  -8.99999961E-03  -6.66603679E-04
  -8.94999970E-03  -6.82251586E-04
  -8.89999978E-03  -6.98338670E-04
  -8.84999987E-03  -7.14764057E-04
  -8.79999995E-03  -7.31424487E-04
  -8.75000004E-03  -7.48262566E-04
  -8.70000012E-03  -7.65297154E-04
  -8.65000021E-03  -7.82617193E-04
  -8.60000029E-03  -8.00345268E-04
  -8.55000038E-03  -8.18585511E-04
  -8.50000046E-03  -8.37375352E-04
  -8.44999962E-03  -8.56669561E-04
  -8.39999970E-03  -8.76363076E-04
  -8.34999979E-03  -8.96341866E-04
  -8.29999987E-03  -9.16537712E-04
  -8.24999996E-03  -9.36960103E-04
  -8.20000004E-03  -9.57697048E-04
  -8.15000013E-03  -9.78880329E-04
  -8.10000021E-03  -1.00062625E-03
  -8.05000030E-03  -1.02298532E-03
  -8.00000038E-03  -1.04592380E-03
  -7.95000046E-03  -1.06933969E-03
  -7.89999962E-03  -1.09311228E-03
  -7.84999970E-03  -1.11716345E-03
  -7.79999979E-03  -1.14149612E-03
  -7.74999987E-03  -1.16619561E-03
  -7.69999996E-03  -1.19139720E-03
  -7.65000004E-03  -1.21722801E-03
  -7.60000013E-03  -1.24374998E-03
  -7.55000021E-03  -1.27093529E-03
  -7.49999983E-03  -1.29868055E-03
  -7.44999992E-03  -1.32685760E-03
  -7.40000000E-03  -1.35537400E-03
  -7.35000009E-03  -1.38422032E-03
  -7.30000017E-03  -1.41348050E-03
  -7.24999979E-03  -1.44329423E-03
  -7.19999988E-03  -1.47379783E-03
  -7.14999996E-03  -1.50506606E-03
  -7.10000005E-03  -1.53707713E-03
  -7.05000013E-03  -1.56972907E-03
  -7.00000022E-03  -1.60288822E-03
  -6.94999984E-03  -1.63645193E-03
  -6.89999992E-03  -1.67040341E-03
  -6.85000001E-03  -1.70482323E-03
  -6.80000009E-03  -1.73985690E-03
  -6.75000018E-03  -1.77564914E-03
  -6.69999979E-03  -1.81228667E-03
  -6.64999988E-03  -1.84976379E-03
  -6.59999996E-03  -1.88798155E-03
  -6.55000005E-03  -1.92680012E-03
  -6.50000013E-03  -1.96610927E-03
  -6.45000022E-03  -2.00588047E-03
  -6.39999984E-03  -2.04619137E-03
  -6.34999992E-03  -2.08718725E-03
  -6.30000001E-03  -2.12902017E-03
  -6.25000009E-03  -2.17179116E-03
  -6.20000018E-03  -2.21549836E-03
  -6.14999980E-03  -2.26004678E-03
  -6.09999988E-03  -2.30529136E-03
  -6.04999997E-03  -2.35110638E-03
  -6.00000005E-03  -2.39745155E-03
  -5.95000014E-03  -2.44438951E-03
  -5.90000022E-03  -2.49206624E-03
  -5.84999984E-03  -2.54065101E-03
  -5.79999993E-03  -2.59025511E-03
  -5.75000001E-03  -2.64088879E-03
  -5.70000010E-03  -2.69246264E-03
  -5.65000018E-03  -2.74482812E-03
  -5.59999980E-03  -2.79784342E-03
  -5.54999989E-03  -2.85145524E-03
  -5.49999997E-03  -2.90572876E-03
  -5.45000006E-03  -2.96081277E-03
  -5.40000014E-03  -3.01688211E-03
  -5.35000023E-03  -3.07406555E-03
  -5.29999984E-03  -3.13238474E-03
  -5.24999993E-03  -3.19175120E-03
  -5.20000001E-03  -3.25201079E-03
  -5.15000010E-03  -3.31301638E-03
  -5.10000018E-03  -3.37469671E-03
  -5.04999980E-03  -3.43709858E-03
  -4.99999989E-03  -3.50037194E-03
  -4.94999997E-03  -3.56469816E-03
  -4.90000006E-03  -3.63021437E-03
  -4.85000014E-03  -3.69695039E-03
  -4.80000023E-03  -3.76482122E-03
  -4.74999985E-03  -3.83365597E-03
  -4.69999993E-03  -3.90329398E-03
  -4.65000002E-03  -3.97366472E-03
  -4.60000010E-03  -4.04480472E-03
  -4.55000019E-03  -4.11685649E-03
  -4.49999981E-03  -4.19001235E-03
  -4.44999989E-03  -4.26442735E-03
  -4.39999998E-03  -4.34014807E-03
  -4.35000006E-03  -4.41709906E-03
  -4.30000015E-03  -4.49511595E-03
  -4.25000023E-03  -4.57402412E-03
  -4.19999985E-03  -4.65372344E-03
  -4.14999994E-03  -4.73424373E-03
  -4.10000002E-03  -4.81572561E-03
  -4.05000011E-03  -4.89836326E-03
  -4.00000019E-03  -4.98232292E-03
  -3.94999981E-03  -5.06766606E-03
  -3.89999989E-03  -5.15432237E-03
  -3.84999998E-03  -5.24210045E-03
  -3.80000006E-03  -5.33080893E-03
  -3.74999992E-03  -5.42033510E-03
  -3.70000000E-03  -5.51068131E-03
  -3.65000009E-03  -5.60198631E-03
  -3.59999994E-03  -5.69446245E-03
  -3.55000002E-03  -5.78829506E-03
  -3.50000011E-03  -5.88355865E-03
  -3.44999996E-03  -5.98019967E-03
  -3.40000005E-03  -6.07804116E-03
  -3.34999990E-03  -6.17685821E-03
  -3.29999998E-03  -6.27649203E-03
  -3.25000007E-03  -6.37693750E-03
  -3.19999992E-03  -6.47833338E-03
  -3.15000000E-03  -6.58090040E-03
  -3.10000009E-03  -6.68486999E-03
  -3.04999994E-03  -6.79034414E-03
  -3.00000003E-03  -6.89725950E-03
  -2.95000011E-03  -7.00541865E-03
  -2.89999996E-03  -7.11455755E-03
  -2.85000005E-03  -7.22449971E-03
  -2.79999990E-03  -7.33521162E-03
  -2.74999999E-03  -7.44682178E-03
  -2.70000007E-03  -7.55957654E-03
  -2.64999992E-03  -7.67372595E-03
  -2.60000001E-03  -7.78938876E-03
  -2.55000009E-03  -7.90651236E-03
  -2.49999994E-03  -8.02491046E-03
  -2.45000003E-03  -8.14431719E-03
  -2.40000011E-03  -8.26449413E-03
  -2.34999997E-03  -8.38535093E-03
  -2.30000005E-03  -8.50700401E-03
  -2.24999990E-03  -8.62972159E-03
  -2.19999999E-03  -8.75378400E-03
  -2.15000007E-03  -8.87936447E-03
  -2.09999993E-03  -9.00645368E-03
  -2.05000001E-03  -9.13483929E-03
  -2.00000009E-03  -9.26421024E-03
  -1.94999995E-03  -9.39428527E-03
  -1.90000003E-03  -9.52494238E-03
  -1.85000000E-03  -9.65626352E-03
  -1.79999997E-03  -9.78853833E-03
  -1.75000005E-03  -9.92210396E-03
  -1.70000002E-03  -1.00571634E-02
  -1.64999999E-03  -1.01937111E-02
  -1.59999996E-03  -1.03315124E-02
  -1.55000004E-03  -1.04702162E-02
  -1.50000001E-03  -1.06095104E-02
  -1.44999998E-03  -1.07492497E-02
  -1.39999995E-03  -1.08895116E-02
  -1.35000004E-03  -1.10305892E-02
  -1.30000000E-03  -1.11728199E-02
  -1.24999997E-03  -1.13164242E-02
  -1.20000006E-03  -1.14614274E-02
  -1.15000003E-03  -1.16076162E-02
  -1.09999999E-03  -1.17546041E-02
  -1.04999996E-03  -1.19020324E-02
  -1.00000005E-03  -1.20496918E-02
  -9.50000016E-04  -1.21976594E-02
  -8.99999985E-04  -1.23462519E-02
  -8.50000011E-04  -1.24958083E-02
  -7.99999980E-04  -1.26466062E-02
  -7.50000007E-04  -1.27987033E-02
  -6.99999975E-04  -1.29518723E-02
  -6.50000002E-04  -1.31057184E-02
  -6.00000028E-04  -1.32598272E-02
  -5.49999997E-04  -1.34139275E-02
  -5.00000024E-04  -1.35680595E-02
  -4.49999992E-04  -1.37225278E-02
  -3.99999990E-04  -1.38776889E-02
  -3.49999988E-04  -1.40338438E-02
  -3.00000014E-04  -1.41911134E-02
  -2.50000012E-04  -1.43493293E-02
  -1.99999995E-04  -1.45080695E-02
  -1.50000007E-04  -1.46668646E-02
  -9.99999975E-05  -1.48253627E-02
  -4.99999987E-05  -1.49834743E-02
   0.00000000      -1.51414424E-02
   4.99999987E-05  -1.52997114E-02
   9.99999975E-05  -1.54586723E-02
   1.50000007E-04  -1.56184994E-02
   1.99999995E-04  -1.57790557E-02
   2.50000012E-04  -1.59398895E-02
   3.00000014E-04  -1.61004867E-02
   3.49999988E-04  -1.62604582E-02
   3.99999990E-04  -1.64197069E-02
   4.49999992E-04  -1.65784620E-02
   5.00000024E-04  -1.67370848E-02
   5.49999997E-04  -1.68959629E-02
   6.00000028E-04  -1.70553289E-02
   6.50000002E-04  -1.72150768E-02
   6.99999975E-04  -1.73748452E-02
   7.50000007E-04  -1.75341107E-02
   7.99999980E-04  -1.76923480E-02
   8.50000011E-04  -1.78493429E-02
   8.99999985E-04  -1.80052370E-02
   9.50000016E-04  -1.81603953E-02
   1.00000005E-03  -1.83152612E-02
   1.04999996E-03  -1.84701569E-02
   1.09999999E-03  -1.86250489E-02
   1.15000003E-03  -1.87795889E-02
   1.20000006E-03  -1.89332273E-02
   1.24999997E-03  -1.90854054E-02
   1.30000000E-03  -1.92358289E-02
   1.35000004E-03  -1.93845052E-02
   1.39999995E-03  -1.95318107E-02
   1.44999998E-03  -1.96782555E-02
   1.50000001E-03  -1.98241714E-02
   1.55000004E-03  -1.99696384E-02
   1.59999996E-03  -2.01143306E-02
   1.64999999E-03  -2.02575997E-02
   1.70000002E-03  -2.03988086E-02
   1.75000005E-03  -2.05376018E-02
   1.79999997E-03  -2.06739772E-02
   1.85000000E-03  -2.08082460E-02
   1.90000003E-03  -2.09409166E-02
   1.94999995E-03  -2.10724566E-02
   2.00000009E-03  -2.12029628E-02
   2.05000001E-03  -2.13321131E-02
   2.09999993E-03  -2.14593448E-02
   2.15000007E-03  -2.15839930E-02
   2.19999999E-03  -2.17054877E-02
   2.24999990E-03  -2.18236577E-02
   2.30000005E-03  -2.19388157E-02
   2.34999997E-03  -2.20515653E-02
   2.40000011E-03  -2.21624207E-02
   2.45000003E-03  -2.22715735E-02
   2.49999994E-03  -2.23788209E-02
   2.55000009E-03  -2.24834979E-02
   2.60000001E-03  -2.25848146E-02
   2.64999992E-03  -2.26821881E-02
   2.70000007E-03  -2.27754656E-02
   2.74999999E-03  -2.28649098E-02
   2.79999990E-03  -2.29509845E-02