  -3.99999991E-02   0.00000000    
  -3.99499983E-02   0.00000000    
  -3.99000011E-02   0.00000000    
  -3.98500003E-02   2.47820823E-16
  -3.97999994E-02   1.19825675E-15
  -3.97499986E-02   3.06314155E-15
  -3.97000015E-02   5.61595295E-15
  -3.96500006E-02   8.72682630E-15
  -3.95999998E-02   1.29822072E-14
  -3.95499989E-02   1.93195086E-14
  -3.95000018E-02   2.78095469E-14
  -3.94500010E-02   3.71322676E-14
  -3.94000001E-02   4.57986310E-14
  -3.93499993E-02   5.39910625E-14
  -3.92999984E-02   6.37548824E-14
  -3.92500013E-02   7.69882882E-14
  -3.92000005E-02   9.34306275E-14
  -3.91499996E-02   1.11112237E-13
  -3.90999988E-02   1.28824414E-13
  -3.90500017E-02   1.47554684E-13
  -3.90000008E-02   1.68969114E-13
  -3.89500000E-02   1.92769520E-13
  -3.88999991E-02   2.16410304E-13
  -3.88499983E-02   2.37844141E-13
  -3.88000011E-02   2.57977613E-13
  -3.87500003E-02   2.79512172E-13
  -3.86999995E-02   3.03229257E-13
  -3.86499986E-02   3.26234103E-13
  -3.86000015E-02   3.44620464E-13
  -3.85500006E-02   3.57604408E-13
  -3.84999998E-02   3.68062080E-13
  -3.84499989E-02   3.78537208E-13
  -3.84000018E-02   3.87358765E-13
  -3.83500010E-02   3.89609975E-13
  -3.83000001E-02   3.81909321E-13
  -3.82499993E-02   3.65283948E-13
  -3.81999984E-02   3.42722297E-13
  -3.81500013E-02   3.14590801E-13
  -3.81000005E-02   2.77800840E-13
  -3.80499996E-02   2.29850427E-13
  -3.79999988E-02   1.72455583E-13
  -3.79500017E-02   1.09597918E-13
  -3.79000008E-02   4.17080988E-14
  -3.78500000E-02  -3.70104236E-14
  -3.77999991E-02  -1.34273113E-13
  -3.77499983E-02  -2.52771789E-13
  -3.77000012E-02  -3.88319449E-13
  -3.76500003E-02  -5.35059573E-13
  -3.75999995E-02  -6.91598254E-13
  -3.75499986E-02  -8.61189592E-13
  -3.75000015E-02  -1.04654610E-12
  -3.74500006E-02  -1.24626774E-12
  -3.73999998E-02  -1.45735518E-12
  -3.73499990E-02  -1.68006158E-12
  -3.73000018E-02  -1.91790008E-12
  -3.72500010E-02  -2.17163548E-12
  -3.72000001E-02  -2.43429799E-12
  -3.71499993E-02  -2.69422809E-12
  -3.70999984E-02  -2.94426614E-12
  -3.70500013E-02  -3.18775627E-12
  -3.70000005E-02  -3.43503784E-12
  -3.69499996E-02  -3.69426798E-12
  -3.68999988E-02  -3.96590356E-12
  -3.68500017E-02  -4.24496939E-12
  -3.68000008E-02  -4.52602018E-12
  -3.67500000E-02  -4.80380753E-12
  -3.66999991E-02  -5.06985296E-12
  -3.66499983E-02  -5.31183647E-12
  -3.66000012E-02  -5.51988229E-12
  -3.65500003E-02  -5.69453599E-12
  -3.64999995E-02  -5.84708063E-12
  -3.64499986E-02  -5.98980327E-12
  -3.64000015E-02  -6.12454054E-12
  -3.63500006E-02  -6.23997945E-12
  -3.62999998E-02  -6.31926499E-12
  -3.62499990E-02  -6.34957364E-12
  -3.62000018E-02  -6.32523981E-12
  -3.61500010E-02  -6.24480806E-12
  -3.61000001E-02  -6.10876540E-12
  -3.60499993E-02  -5.92140052E-12
  -3.59999985E-02  -5.69230990E-12
  -3.59500013E-02  -5.43152242E-12
  -3.59000005E-02  -5.13981826E-12
  -3.58499996E-02  -4.80356553E-12
  -3.57999988E-02  -4.40109017E-12
  -3.57500017E-02  -3.91659708E-12
  -3.57000008E-02  -3.34991063E-12
  -3.56500000E-02  -2.71425677E-12
  -3.55999991E-02  -2.02570014E-12
  -3.55499983E-02  -1.29420216E-12
  -3.55000012E-02  -5.21888468E-13
  -3.54500003E-02   2.94647824E-13
  -3.53999995E-02   1.16348023E-12
  -3.53499986E-02   2.09774949E-12
  -3.53000015E-02   3.11200523E-12
  -3.52500007E-02   4.21238175E-12
  -3.51999998E-02   5.38719373E-12
  -3.51499990E-02   6.60766017E-12
  -3.51000018E-02   7.84111057E-12
  -3.50500010E-02   9.06752191E-12
  -3.50000001E-02   1.02869137E-11
  -3.49499993E-02   1.15132600E-11
  -3.48999985E-02   1.27617925E-11
  -3.48500013E-02   1.40395768E-11
  -3.48000005E-02   1.53428294E-11
  -3.47499996E-02   1.66572953E-11
  -3.46999988E-02   1.79583761E-11
  -3.46500017E-02   1.92133618E-11
  -3.46000008E-02   2.03900247E-11
  -3.45500000E-02   2.14698086E-11
  -3.44999991E-02   2.24561515E-11
  -3.44499983E-02   2.33691278E-11
  -3.44000012E-02   2.42281317E-11
  -3.43500003E-02   2.50348353E-11
  -3.42999995E-02   2.57683996E-11
  -3.42499986E-02   2.63941612E-11
  -3.42000015E-02   2.68766554E-11
  -3.41500007E-02   2.71876341E-11
  -3.40999998E-02   2.73078608E-11
  -3.40499990E-02   2.72274737E-11
  -3.40000018E-02   2.69470453E-11
  -3.39500010E-02   2.64753167E-11
  -3.39000002E-02   2.58195184E-11
  -3.38499993E-02   2.49724044E-11
  -3.37999985E-02   2.39071454E-11
  -3.37500013E-02   2.25873643E-11
  -3.37000005E-02   2.09864435E-11
  -3.36499996E-02   1.91012171E-11
  -3.35999988E-02   1.69498027E-11
  -3.35500017E-02   1.45573432E-11
  -3.35000008E-02   1.19425069E-11
  -3.34500000E-02   9.11301416E-12
  -3.33999991E-02   6.06747248E-12
  -3.33499983E-02   2.79647638E-12
  -3.33000012E-02  -7.17540881E-13
  -3.32500003E-02  -4.49519371E-12
  -3.31999995E-02  -8.54642225E-12
  -3.31499986E-02  -1.28561701E-11
  -3.31000015E-02  -1.73833743E-11
  -3.30500007E-02  -2.20774371E-11
  -3.29999998E-02  -2.69003691E-11
  -3.29499990E-02  -3.18369150E-11
  -3.29000019E-02  -3.68863620E-11
  -3.28500010E-02  -4.20467064E-11
  -3.28000002E-02  -4.73055727E-11
  -3.27499993E-02  -5.26410859E-11
  -3.26999985E-02  -5.80241515E-11
  -3.26500013E-02  -6.34150579E-11
  -3.26000005E-02  -6.87596924E-11
  -3.25499997E-02  -7.39958234E-11
  -3.24999988E-02  -7.90704099E-11
  -3.24500017E-02  -8.39537329E-11
  -3.24000008E-02  -8.86357376E-11
  -3.23500000E-02  -9.31064392E-11
  -3.22999991E-02  -9.73382347E-11
  -3.22499983E-02  -1.01285827E-10
  -3.22000012E-02  -1.04900477E-10
  -3.21500003E-02  -1.08141759E-10
  -3.20999995E-02  -1.10975652E-10
  -3.20499986E-02  -1.13366080E-10
  -3.20000015E-02  -1.15273985E-10
  -3.19500007E-02  -1.16666649E-10
  -3.18999998E-02  -1.17524379E-10
  -3.18499990E-02  -1.17833077E-10
  -3.18000019E-02  -1.17568261E-10
  -3.17500010E-02  -1.16689061E-10
  -3.17000002E-02  -1.15151513E-10
  -3.16499993E-02  -1.12929166E-10
  -3.15999985E-02  -1.10019979E-10
  -3.15500014E-02  -1.06433036E-10
  -3.15000005E-02  -1.02170113E-10
  -3.14499997E-02  -9.72217376E-11
  -3.13999988E-02  -9.15790707E-11
  -3.13500017E-02  -8.52449430E-11
  -3.13000008E-02  -7.82307760E-11
  -3.12500000E-02  -7.05456110E-11
  -3.11999992E-02  -6.21944857E-11
  -3.11500002E-02  -5.31918433E-11
  -3.10999993E-02  -4.35750221E-11
  -3.10500003E-02  -3.34001854E-11
  -3.09999995E-02  -2.27217741E-11
  -3.09500005E-02  -1.15764464E-11
  -3.08999997E-02   1.14294425E-14
  -3.08500007E-02   1.20093727E-11
  -3.07999998E-02   2.43644046E-11
  -3.07500008E-02   3.70112829E-11
  -3.07000000E-02   4.98901927E-11
  -3.06499992E-02   6.29525806E-11
  -3.06000002E-02   7.61501487E-11
  -3.05499993E-02   8.94219074E-11
  -3.05000003E-02   1.02696046E-10
  -3.04499995E-02   1.15902635E-10
  -3.04000005E-02   1.28978342E-10
  -3.03499997E-02   1.41853349E-10
  -3.03000007E-02   1.54434299E-10
  -3.02499998E-02   1.66605355E-10
  -3.02000009E-02   1.78252066E-10
  -3.01500000E-02   1.89287447E-10
  -3.00999992E-02   1.99656208E-10
  -3.00500002E-02   2.09315842E-10
  -2.99999993E-02   2.18215335E-10
  -2.99500003E-02   2.26290084E-10
  -2.98999995E-02   2.33470160E-10
  -2.98500005E-02   2.39684578E-10
  -2.97999997E-02   2.44855108E-10
  -2.97500007E-02   2.48891241E-10
  -2.96999998E-02   2.51703131E-10
  -2.96500009E-02   2.53227134E-10
  -2.96000000E-02   2.53441435E-10
  -2.95499992E-02   2.52352972E-10
  -2.95000002E-02   2.49964410E-10
  -2.94499993E-02   2.46248882E-10
  -2.94000003E-02   2.41151654E-10
  -2.93499995E-02   2.34610692E-10
  -2.93000005E-02   2.26575175E-10
  -2.92499997E-02   2.17010007E-10
  -2.92000007E-02   2.05896161E-10
  -2.91499998E-02   1.93238245E-10
  -2.91000009E-02   1.79075296E-10
  -2.90500000E-02   1.63477010E-10
  -2.89999992E-02   1.46518075E-10
  -2.89500002E-02   1.28246580E-10
  -2.88999993E-02   1.08674153E-10
  -2.88500004E-02   8.77980813E-11
  -2.87999995E-02   6.56375856E-11
  -2.87500005E-02   4.22556400E-11
  -2.86999997E-02   1.77537828E-11
  -2.86500007E-02  -7.74741382E-12
  -2.85999998E-02  -3.41232598E-11
  -2.85500009E-02  -6.12524406E-11
  -2.85000000E-02  -8.90252247E-11
  -2.84499992E-02  -1.17356916E-10
  -2.84000002E-02  -1.46193280E-10
  -2.83499993E-02  -1.75491677E-10
  -2.83000004E-02  -2.05180525E-10
  -2.82499995E-02  -2.35124697E-10
  -2.82000005E-02  -2.65124950E-10
  -2.81499997E-02  -2.94954838E-10
  -2.81000007E-02  -3.24408583E-10
  -2.80499998E-02  -3.53330060E-10
  -2.80000009E-02  -3.81613019E-10
  -2.79500000E-02  -4.09184159E-10
  -2.78999992E-02  -4.35983388E-10
  -2.78500002E-02  -4.61942262E-10
  -2.77999993E-02  -4.86955420E-10
  -2.77500004E-02  -5.10854858E-10
  -2.76999995E-02  -5.33408928E-10
  -2.76500005E-02  -5.54362056E-10
  -2.75999997E-02  -5.73499304E-10
  -2.75500007E-02  -5.90696603E-10
  -2.74999999E-02  -6.05923534E-10
  -2.74500009E-02  -6.19201301E-10
  -2.74000000E-02  -6.30546115E-10
  -2.73499992E-02  -6.39930775E-10
  -2.73000002E-02  -6.47273513E-10
  -2.72499993E-02  -6.52445264E-10
  -2.72000004E-02  -6.55289545E-10
  -2.71499995E-02  -6.55659749E-10
  -2.71000005E-02  -6.53469223E-10
  -2.70499997E-02  -6.48733289E-10
  -2.70000007E-02  -6.41568743E-10
  -2.69499999E-02  -6.32137842E-10
  -2.69000009E-02  -6.20566876E-10
  -2.68500000E-02  -6.06891148E-10
  -2.67999992E-02  -5.91059590E-10
  -2.67500002E-02  -5.72990710E-10
  -2.66999993E-02  -5.52638157E-10
  -2.66500004E-02  -5.30038180E-10
  -2.65999995E-02  -5.05328113E-10
  -2.65500005E-02  -4.78743212E-10
  -2.64999997E-02  -4.50586624E-10
  -2.64500007E-02  -4.21168600E-10
  -2.63999999E-02  -3.90729532E-10
  -2.63500009E-02  -3.59390739E-10
  -2.63000000E-02  -3.27173177E-10
  -2.62499992E-02  -2.94085728E-10
  -2.62000002E-02  -2.60231808E-10
  -2.61499994E-02  -2.25868879E-10
  -2.61000004E-02  -1.91389946E-10
  -2.60499995E-02  -1.57250754E-10
  -2.60000005E-02  -1.23885402E-10
  -2.59499997E-02  -9.16425338E-11
  -2.59000007E-02  -6.07500925E-11
  -2.58499999E-02  -3.13157798E-11
  -2.58000009E-02  -3.37876753E-12
  -2.57500000E-02   2.29884878E-11
  -2.56999992E-02   4.75665098E-11
  -2.56500002E-02   6.99358557E-11
  -2.55999994E-02   8.95244087E-11
  -2.55500004E-02   1.05737377E-10
  -2.54999995E-02   1.18094284E-10
  -2.54500005E-02   1.26297195E-10
  -2.53999997E-02   1.30213368E-10
  -2.53500007E-02   1.29796035E-10
  -2.52999999E-02   1.24988367E-10
  -2.52500009E-02   1.15633905E-10
  -2.52000000E-02   1.01415563E-10
  -2.51499992E-02   8.18504708E-11
  -2.51000002E-02   5.63649613E-11
  -2.50499994E-02   2.44370427E-11
  -2.50000004E-02  -1.42662028E-11
  -2.49499995E-02  -5.98410141E-11
  -2.49000005E-02  -1.12221496E-10
  -2.48499997E-02  -1.71334294E-10
  -2.48000007E-02  -2.37238701E-10
  -2.47499999E-02  -3.10186377E-10
  -2.47000009E-02  -3.90590948E-10
  -2.46500000E-02  -4.78939777E-10
  -2.45999992E-02  -5.75679671E-10
  -2.45500002E-02  -6.81106171E-10
  -2.44999994E-02  -7.95287280E-10
  -2.44500004E-02  -9.18078114E-10
  -2.43999995E-02  -1.04924047E-09
  -2.43500005E-02  -1.18862220E-09
  -2.42999997E-02  -1.33630840E-09
  -2.42500007E-02  -1.49264034E-09
  -2.41999999E-02  -1.65809821E-09
  -2.41500009E-02  -1.83311610E-09
  -2.41000000E-02  -2.01793160E-09
  -2.40499992E-02  -2.21253149E-09
  -2.40000002E-02  -2.41668574E-09
  -2.39499994E-02  -2.63005617E-09
  -2.39000004E-02  -2.85234347E-09
  -2.38499995E-02  -3.08344195E-09
  -2.38000005E-02  -3.32351924E-09
  -2.37499997E-02  -3.57298058E-09
  -2.37000007E-02  -3.83230025E-09
  -2.36499999E-02  -4.10179846E-09
  -2.36000009E-02  -4.38149872E-09
  -2.35500000E-02  -4.67112349E-09
  -2.34999992E-02  -4.97024333E-09
  -2.34500002E-02  -5.27847099E-09
  -2.33999994E-02  -5.59563285E-09
  -2.33500004E-02  -5.92183191E-09
  -2.32999995E-02  -6.25741281E-09
  -2.32500006E-02  -6.60284583E-09
  -2.31999997E-02  -6.95854174E-09
  -2.31500007E-02  -7.32468086E-09
  -2.30999999E-02  -7.70112862E-09
  -2.30500009E-02  -8.08749512E-09
  -2.30000000E-02  -8.48334736E-09
  -2.29499992E-02  -8.88843399E-09
  -2.29000002E-02  -9.30283139E-09
  -2.28499994E-02  -9.72692149E-09
  -2.28000004E-02  -1.01612434E-08
  -2.27499995E-02  -1.06062821E-08
  -2.27000006E-02  -1.10623271E-08
  -2.26499997E-02  -1.15293952E-08
  -2.26000007E-02  -1.20072796E-08
  -2.25499999E-02  -1.24956738E-08
  -2.25000009E-02  -1.29943913E-08
  -2.24500000E-02  -1.35035361E-08
  -2.23999992E-02  -1.40235645E-08
  -2.23500002E-02  -1.45551926E-08
  -2.22999994E-02  -1.50991504E-08
  -2.22500004E-02  -1.56559334E-08
  -2.21999995E-02  -1.62256928E-08
  -2.21500006E-02  -1.68083005E-08
  -2.20999997E-02  -1.74035097E-08
  -2.20500007E-02  -1.80111783E-08
  -2.19999999E-02  -1.86314306E-08
  -2.19500009E-02  -1.92647320E-08
  -2.19000001E-02  -1.99118375E-08
  -2.18499992E-02  -2.05736441E-08
  -2.18000002E-02  -2.12509246E-08
  -2.17499994E-02  -2.19441354E-08
  -2.17000004E-02  -2.26533601E-08
  -2.16499995E-02  -2.33784512E-08
  -2.16000006E-02  -2.41192630E-08
  -2.15499997E-02  -2.48759253E-08
  -2.15000007E-02  -2.56489301E-08
  -2.14499999E-02  -2.64390909E-08
  -2.14000009E-02  -2.72473670E-08
  -2.13500001E-02  -2.80746359E-08
  -2.12999992E-02  -2.89215336E-08
  -2.12500002E-02  -2.97883460E-08
  -2.11999994E-02  -3.06750785E-08
  -2.11500004E-02  -3.15816209E-08
  -2.10999995E-02  -3.25080016E-08
  -2.10500006E-02  -3.34545973E-08
  -2.09999997E-02  -3.44221753E-08
  -2.09500007E-02  -3.54117518E-08
  -2.08999999E-02  -3.64243427E-08
  -2.08500009E-02  -3.74606870E-08
  -2.08000001E-02  -3.85212076E-08
  -2.07499992E-02  -3.96060216E-08
  -2.07000002E-02  -4.07151397E-08
  -2.06499994E-02  -4.18486330E-08
  -2.06000004E-02  -4.30068638E-08
  -2.05499995E-02  -4.41905605E-08
  -2.05000006E-02  -4.54007285E-08
  -2.04499997E-02  -4.66385117E-08
  -2.04000007E-02  -4.79048623E-08
  -2.03499999E-02  -4.92004126E-08
  -2.03000009E-02  -5.05254150E-08
  -2.02500001E-02  -5.18799226E-08
  -2.01999992E-02  -5.32640705E-08
  -2.01500002E-02  -5.46782815E-08
  -2.00999994E-02  -5.61233549E-08
  -2.00500004E-02  -5.76004346E-08
  -1.99999996E-02  -5.91108318E-08
  -1.99500006E-02  -6.06557720E-08
  -1.98999997E-02  -6.22362180E-08
  -1.98500007E-02  -6.38527879E-08
  -1.97999999E-02  -6.55058088E-08
  -1.97500009E-02  -6.71955362E-08
  -1.97000001E-02  -6.89224748E-08
  -1.96499992E-02  -7.06875980E-08
  -1.96000002E-02  -7.24922913E-08
  -1.95499994E-02  -7.43382955E-08
  -1.95000004E-02  -7.62273231E-08
  -1.94499996E-02  -7.81608946E-08
  -1.94000006E-02  -8.01402180E-08
  -1.93499997E-02  -8.21661814E-08
  -1.93000007E-02  -8.42396162E-08
  -1.92499999E-02  -8.63614176E-08
  -1.92000009E-02  -8.85328717E-08
  -1.91500001E-02  -9.07557052E-08
  -1.90999992E-02  -9.30320354E-08
  -1.90500002E-02  -9.53641788E-08
  -1.89999994E-02  -9.77543522E-08
  -1.89500004E-02  -1.00204431E-07
  -1.88999996E-02  -1.02716029E-07
  -1.88500006E-02  -1.05290553E-07
  -1.87999997E-02  -1.07929587E-07
  -1.87500007E-02  -1.10635000E-07
  -1.86999999E-02  -1.13409207E-07
  -1.86500009E-02  -1.16255038E-07
  -1.86000001E-02  -1.19175525E-07
  -1.85499992E-02  -1.22173674E-07
  -1.85000002E-02  -1.25252356E-07
  -1.84499994E-02  -1.28414129E-07
  -1.84000004E-02  -1.31661295E-07
  -1.83499996E-02  -1.34996085E-07
  -1.83000006E-02  -1.38421029E-07
  -1.82499997E-02  -1.41939225E-07
  -1.82000007E-02  -1.45554381E-07
  -1.81499999E-02  -1.49270363E-07
  -1.81000009E-02  -1.53091108E-07
  -1.80500001E-02  -1.57020366E-07
  -1.79999992E-02  -1.61061578E-07
  -1.79500002E-02  -1.65217998E-07
  -1.78999994E-02  -1.69492822E-07
  -1.78500004E-02  -1.73889347E-07
  -1.77999996E-02  -1.78411369E-07
  -1.77500006E-02  -1.83063264E-07
  -1.76999997E-02  -1.87849864E-07
  -1.76500008E-02  -1.92776199E-07
  -1.75999999E-02  -1.97847200E-07
  -1.75500009E-02  -2.03067287E-07
  -1.75000001E-02  -2.08440554E-07
  -1.74499992E-02  -2.13970964E-07
  -1.74000002E-02  -2.19662724E-07
  -1.73499994E-02  -2.25520424E-07
  -1.73000004E-02  -2.31549009E-07
  -1.72499996E-02  -2.37753824E-07
  -1.72000006E-02  -2.44140665E-07
  -1.71499997E-02  -2.50715459E-07
  -1.71000008E-02  -2.57483777E-07
  -1.70499999E-02  -2.64450733E-07
  -1.70000009E-02  -2.71620991E-07
  -1.69500001E-02  -2.78999380E-07
  -1.68999992E-02  -2.86591330E-07
  -1.68500002E-02  -2.94402525E-07
  -1.67999994E-02  -3.02439076E-07
  -1.67500004E-02  -3.10707406E-07
  -1.66999996E-02  -3.19213967E-07
  -1.66500006E-02  -3.27965040E-07
  -1.65999997E-02  -3.36966650E-07
  -1.65500008E-02  -3.46224482E-07
  -1.64999999E-02  -3.55743964E-07
  -1.64500009E-02  -3.65530951E-07
  -1.64000001E-02  -3.75591554E-07
  -1.63499992E-02  -3.85932623E-07
  -1.63000003E-02  -3.96561461E-07
  -1.62499994E-02  -4.07485345E-07
  -1.62000004E-02  -4.18711124E-07
  -1.61499996E-02  -4.30245422E-07
  -1.61000006E-02  -4.42094745E-07
  -1.60499997E-02  -4.54265376E-07
  -1.60000008E-02  -4.66763566E-07
  -1.59499999E-02  -4.79595940E-07
  -1.59000009E-02  -4.92769914E-07
  -1.58500001E-02  -5.06293361E-07
  -1.57999992E-02  -5.20174353E-07
  -1.57500003E-02  -5.34420735E-07
  -1.56999994E-02  -5.49040067E-07
  -1.56500004E-02  -5.64039397E-07
  -1.55999996E-02  -5.79425773E-07
  -1.55499997E-02  -5.95206245E-07
  -1.54999997E-02  -6.11387975E-07
  -1.54499998E-02  -6.27979091E-07
  -1.53999999E-02  -6.44988120E-07
  -1.53500000E-02  -6.62423929E-07
  -1.53000001E-02  -6.80294988E-07
  -1.52500002E-02  -6.98609824E-07
  -1.52000003E-02  -7.17376736E-07
  -1.51500003E-02  -7.36603681E-07
  -1.51000004E-02  -7.56298562E-07
  -1.50499996E-02  -7.76469449E-07
  -1.49999997E-02  -7.97124926E-07
  -1.49499997E-02  -8.18274316E-07
  -1.48999998E-02  -8.39927168E-07
  -1.48499999E-02  -8.62093941E-07
  -1.48000000E-02  -8.84784129E-07
  -1.47500001E-02  -9.08007053E-07
  -1.47000002E-02  -9.31771581E-07
  -1.46500003E-02  -9.56086978E-07
  -1.46000003E-02  -9.80962909E-07
  -1.45500004E-02  -1.00640898E-06
  -1.44999996E-02  -1.03243542E-06
  -1.44499997E-02  -1.05905292E-06
  -1.43999998E-02  -1.08627285E-06
  -1.43499998E-02  -1.11410611E-06
  -1.42999999E-02  -1.14256363E-06
  -1.42500000E-02  -1.17165587E-06
  -1.42000001E-02  -1.20139293E-06
  -1.41500002E-02  -1.23178529E-06
  -1.41000003E-02  -1.26284419E-06
  -1.40500003E-02  -1.29458147E-06
  -1.40000004E-02  -1.32700995E-06
  -1.39499996E-02  -1.36014205E-06
  -1.38999997E-02  -1.39399026E-06
  -1.38499998E-02  -1.42856686E-06
  -1.37999998E-02  -1.46388481E-06
  -1.37499999E-02  -1.49995594E-06
  -1.37000000E-02  -1.53679218E-06
  -1.36500001E-02  -1.57440604E-06
  -1.36000002E-02  -1.61281082E-06
  -1.35500003E-02  -1.65202073E-06
  -1.35000004E-02  -1.69205100E-06
  -1.34500004E-02  -1.73291608E-06
  -1.33999996E-02  -1.77462960E-06
  -1.33499997E-02  -1.81720577E-06
  -1.32999998E-02  -1.86065881E-06
  -1.32499998E-02  -1.90500396E-06
  -1.31999999E-02  -1.95025518E-06
  -1.31500000E-02  -1.99642705E-06
  -1.31000001E-02  -2.04353523E-06
  -1.30500002E-02  -2.09159725E-06
  -1.30000003E-02  -2.14063061E-06
  -1.29500004E-02  -2.19065237E-06
  -1.29000004E-02  -2.24167775E-06
  -1.28499996E-02  -2.29372267E-06
  -1.27999997E-02  -2.34680465E-06
  -1.27499998E-02  -2.40094209E-06
  -1.26999998E-02  -2.45615229E-06
  -1.26499999E-02  -2.51245251E-06
  -1.26000000E-02  -2.56986118E-06
  -1.25500001E-02  -2.62839853E-06
  -1.25000002E-02  -2.68808458E-06
  -1.24500003E-02  -2.74893819E-06
  -1.24000004E-02  -2.81097800E-06
  -1.23500004E-02  -2.87422313E-06
  -1.22999996E-02  -2.93869380E-06
  -1.22499997E-02  -3.00441116E-06
  -1.21999998E-02  -3.07139749E-06
  -1.21499998E-02  -3.13967462E-06
  -1.20999999E-02  -3.20926529E-06
  -1.20500000E-02  -3.28019269E-06
  -1.20000001E-02  -3.35248001E-06
  -1.19500002E-02  -3.42614749E-06
  -1.19000003E-02  -3.50121786E-06
  -1.18500004E-02  -3.57771455E-06
  -1.18000004E-02  -3.65566007E-06
  -1.17499996E-02  -3.73507919E-06
  -1.16999997E-02  -3.81599648E-06
  -1.16499998E-02  -3.89843717E-06
  -1.15999999E-02  -3.98242901E-06
  -1.15499999E-02  -4.06800018E-06
  -1.15000000E-02  -4.15517752E-06
  -1.14500001E-02  -4.24398922E-06
  -1.14000002E-02  -4.33446303E-06
  -1.13500003E-02  -4.42662713E-06
  -1.13000004E-02  -4.52051199E-06
  -1.12500004E-02  -4.61614582E-06
  -1.11999996E-02  -4.71355679E-06
  -1.11499997E-02  -4.81277539E-06
  -1.10999998E-02  -4.91383116E-06
  -1.10499999E-02  -5.01675459E-06
  -1.09999999E-02  -5.12157385E-06
  -1.09500000E-02  -5.22831579E-06
  -1.09000001E-02  -5.33701268E-06
  -1.08500002E-02  -5.44770091E-06
  -1.08000003E-02  -5.56041687E-06
  -1.07500004E-02  -5.67519692E-06
  -1.07000005E-02  -5.79207745E-06
  -1.06499996E-02  -5.91109347E-06
  -1.05999997E-02  -6.03228636E-06
  -1.05499998E-02  -6.15569525E-06
  -1.04999999E-02  -6.28135786E-06
  -1.04499999E-02  -6.40930921E-06
  -1.04000000E-02  -6.53958296E-06
  -1.03500001E-02  -6.67221639E-06
  -1.03000002E-02  -6.80724906E-06
  -1.02500003E-02  -6.94472146E-06
  -1.02000004E-02  -7.08466951E-06
  -1.01500005E-02  -7.22712775E-06
  -1.00999996E-02  -7.37213804E-06
  -1.00499997E-02  -7.51974267E-06
  -9.99999978E-03  -7.66998619E-06
  -9.94999986E-03  -7.82291590E-06
  -9.89999995E-03  -7.97857410E-06
  -9.85000003E-03  -8.13700535E-06
  -9.80000012E-03  -8.29826149E-06
  -9.75000020E-03  -8.46239254E-06
  -9.70000029E-03  -8.62944671E-06
  -9.65000037E-03  -8.79946765E-06
  -9.60000046E-03  -8.97250266E-06
  -9.54999961E-03  -9.14859720E-06
  -9.49999969E-03  -9.32779949E-06
  -9.44999978E-03  -9.51016045E-06
  -9.39999986E-03  -9.69573102E-06
  -9.34999995E-03  -9.88455758E-06
  -9.30000003E-03  -1.00766874E-05
  -9.25000012E-03  -1.02721751E-05
  -9.20000020E-03  -1.04710743E-05
  -9.15000029E-03  -1.06734369E-05
  -9.10000037E-03  -1.08793110E-05
  -9.05000046E-03  -1.10887440E-05
  -8.99999961E-03  -1.13017932E-05
  -8.94999970E-03  -1.15185212E-05
  -8.89999978E-03  -1.17389773E-05
  -8.84999987E-03  -1.19632150E-05
  -8.79999995E-03  -1.21912954E-05
  -8.75000004E-03  -1.24232783E-05
  -8.70000012E-03  -1.26592249E-05
  -8.65000021E-03  -1.28991887E-05
  -8.60000029E-03  -1.31432289E-05
  -8.55000038E-03  -1.33914118E-05
  -8.50000046E-03  -1.36438011E-05
  -8.44999962E-03  -1.39004533E-05
  -8.39999970E-03  -1.41614264E-05
  -8.34999979E-03  -1.44267860E-05
  -8.29999987E-03  -1.46965940E-05
  -8.24999996E-03  -1.49709131E-05
  -8.20000004E-03  -1.52498014E-05
  -8.15000013E-03  -1.55333164E-05
  -8.10000021E-03  -1.58215225E-05
  -8.05000030E-03  -1.61144908E-05
  -8.00000038E-03  -1.64122848E-05
  -7.95000046E-03  -1.67149756E-05
  -7.89999962E-03  -1.70226231E-05
  -7.84999970E-03  -1.73352910E-05
  -7.79999979E-03  -1.76530502E-05
  -7.74999987E-03  -1.79759663E-05
  -7.69999996E-03  -1.83041102E-05
  -7.65000004E-03  -1.86375455E-05
  -7.60000013E-03  -1.89763359E-05
  -7.55000021E-03  -1.93205560E-05
  -7.49999983E-03  -1.96702786E-05
  -7.44999992E-03  -2.00255890E-05
  -7.40000000E-03  -2.03865529E-05
  -7.35000009E-03  -2.07532357E-05
  -7.30000017E-03  -2.11257156E-05
  -7.24999979E-03  -2.15040691E-05
  -7.19999988E-03  -2.18883706E-05
  -7.14999996E-03  -2.22786912E-05
  -7.10000005E-03  -2.26751108E-05
  -7.05000013E-03  -2.30776950E-05
  -7.00000022E-03  -2.34865220E-05
  -6.94999984E-03  -2.39016681E-05
  -6.89999992E-03  -2.43232171E-05
  -6.85000001E-03  -2.47512398E-05
  -6.80000009E-03  -2.51858037E-05
  -6.75000018E-03  -2.56269777E-05
  -6.69999979E-03  -2.60748493E-05
  -6.64999988E-03  -2.65295057E-05
  -6.59999996E-03  -2.69910215E-05
  -6.55000005E-03  -2.74594659E-05
  -6.50000013E-03  -2.79349224E-05
  -6.45000022E-03  -2.84174766E-05
  -6.39999984E-03  -2.89072177E-05
  -6.34999992E-03  -2.94042256E-05
  -6.30000001E-03  -2.99085750E-05
  -6.25000009E-03  -3.04203477E-05
  -6.20000018E-03  -3.09396310E-05
  -6.14999980E-03  -3.14665194E-05
  -6.09999988E-03  -3.20011059E-05
  -6.04999997E-03  -3.25434667E-05
  -6.00000005E-03  -3.30936819E-05
  -5.95000014E-03  -3.36518351E-05
  -5.90000022E-03  -3.42180101E-05
  -5.84999984E-03  -3.47922942E-05
  -5.79999993E-03  -3.53747746E-05
  -5.75000001E-03  -3.59655314E-05
  -5.70000010E-03  -3.65646447E-05
  -5.65000018E-03  -3.71721981E-05
  -5.59999980E-03  -3.77882825E-05
  -5.54999989E-03  -3.84129962E-05
  -5.49999997E-03  -3.90464156E-05
  -5.45000006E-03  -3.96886317E-05
  -5.40000014E-03  -4.03397316E-05
  -5.35000023E-03  -4.09997992E-05
  -5.29999984E-03  -4.16689254E-05
  -5.24999993E-03  -4.23472047E-05
  -5.20000001E-03  -4.30347391E-05
  -5.15000010E-03  -4.37316121E-05
  -5.10000018E-03  -4.44378929E-05
  -5.04999980E-03  -4.51536944E-05
  -4.99999989E-03  -4.58791183E-05
  -4.94999997E-03  -4.66142592E-05
  -4.90000006E-03  -4.73591936E-05
  -4.85000014E-03  -4.81139868E-05
  -4.80000023E-03  -4.88787446E-05
  -4.74999985E-03  -4.96535722E-05
  -4.69999993E-03  -5.04385644E-05
  -4.65000002E-03  -5.12337974E-05
  -4.60000010E-03  -5.20393369E-05
  -4.55000019E-03  -5.28552591E-05
  -4.49999981E-03  -5.36816660E-05
  -4.44999989E-03  -5.45186704E-05
  -4.39999998E-03  -5.53663594E-05
  -4.35000006E-03  -5.62247988E-05
  -4.30000015E-03  -5.70940792E-05
  -4.25000023E-03  -5.79743028E-05
  -4.19999985E-03  -5.88655821E-05
  -4.14999994E-03  -5.97680009E-05
  -4.10000002E-03  -6.06816175E-05
  -4.05000011E-03  -6.16065226E-05
  -4.00000019E-03  -6.25428147E-05
  -3.94999981E-03  -6.34905955E-05
  -3.89999989E-03  -6.44499378E-05
  -3.84999998E-03  -6.54209070E-05
  -3.80000006E-03  -6.64035906E-05
  -3.74999992E-03  -6.73980976E-05
  -3.70000000E-03  -6.84045153E-05
  -3.65000009E-03  -6.94229384E-05
  -3.59999994E-03  -7.04534104E-05
  -3.55000002E-03  -7.14959970E-05
  -3.50000011E-03  -7.25507853E-05
  -3.44999996E-03  -7.36178699E-05
  -3.40000005E-03  -7.46973528E-05
  -3.34999990E-03  -7.57892922E-05
  -3.29999998E-03  -7.68937462E-05
  -3.25000007E-03  -7.80107875E-05
  -3.19999992E-03  -7.91405037E-05
  -3.15000000E-03  -8.02829818E-05
  -3.10000009E-03  -8.14382947E-05
  -3.04999994E-03  -8.26064788E-05
  -3.00000003E-03  -8.37875996E-05
  -2.95000011E-03  -8.49817225E-05
  -2.89999996E-03  -8.61889639E-05
  -2.85000005E-03  -8.74094185E-05
  -2.79999990E-03  -8.86430862E-05
  -2.74999999E-03  -8.98899962E-05
  -2.70000007E-03  -9.11502502E-05
  -2.64999992E-03  -9.24239430E-05
  -2.60000001E-03  -9.37111108E-05
  -2.55000009E-03  -9.50117756E-05
  -2.49999994E-03  -9.63259808E-05
  -2.45000003E-03  -9.76537849E-05
  -2.40000011E-03  -9.89952605E-05
  -2.34999997E-03  -1.00350488E-04
  -2.30000005E-03  -1.01719474E-04
  -2.24999990E-03  -1.03102248E-04
  -2.19999999E-03  -1.04498831E-04
  -2.15000007E-03  -1.05909268E-04
  -2.09999993E-03  -1.07333595E-04
  -2.05000001E-03  -1.08771848E-04
  -2.00000009E-03  -1.10224049E-04
  -1.94999995E-03  -1.11690199E-04
  -1.90000003E-03  -1.13170347E-04
  -1.85000000E-03  -1.14664523E-04
  -1.79999997E-03  -1.16172734E-04
  -1.75000005E-03  -1.17694974E-04
  -1.70000002E-03  -1.19231277E-04
  -1.64999999E-03  -1.20781675E-04
  -1.59999996E-03  -1.22346130E-04
  -1.55000004E-03  -1.23924634E-04
  -1.50000001E-03  -1.25517181E-04
  -1.44999998E-03  -1.27123800E-04
  -1.39999995E-03  -1.28744505E-04
  -1.35000004E-03  -1.30379252E-04
  -1.30000000E-03  -1.32027984E-04
  -1.24999997E-03  -1.33690657E-04
  -1.20000006E-03  -1.35367227E-04
  -1.15000003E-03  -1.37057723E-04
  -1.09999999E-03  -1.38762145E-04
  -1.04999996E-03  -1.40480348E-04
  -1.00000005E-03  -1.42212230E-04
  -9.50000016E-04  -1.43957790E-04
  -8.99999985E-04  -1.45717073E-04
  -8.50000011E-04  -1.47490005E-04
  -7.99999980E-04  -1.49276471E-04
  -7.50000007E-04  -1.51076252E-04
  -6.99999975E-04  -1.52889348E-04
  -6.50000002E-04  -1.54715744E-04
  -6.00000028E-04  -1.56555412E-04
  -5.49999997E-04  -1.58408177E-04
  -5.00000024E-04  -1.60273819E-04
  -4.49999992E-04  -1.62152239E-04
  -3.99999990E-04  -1.64043449E-04
  -3.49999988E-04  -1.65947378E-04
  -3.00000014E-04  -1.67863836E-04
  -2.50000012E-04  -1.69792591E-04
  -1.99999995E-04  -1.71733438E-04
  -1.50000007E-04  -1.73686320E-04
  -9.99999975E-05  -1.75651134E-04
  -4.99999987E-05  -1.77627764E-04
   0.00000000      -1.79615934E-04
   4.99999987E-05  -1.81615338E-04
   9.99999975E-05  -1.83625874E-04
   1.50000007E-04  -1.85647412E-04
   1.99999995E-04  -1.87679805E-04
   2.50000012E-04  -1.89722719E-04
   3.00000014E-04  -1.91775835E-04
   3.49999988E-04  -1.93838932E-04
   3.99999990E-04  -1.95911896E-04
   4.49999992E-04  -1.97994508E-04
   5.00000024E-04  -2.00086492E-04
   5.49999997E-04  -2.02187468E-04
   6.00000028E-04  -2.04297117E-04
   6.50000002E-04  -2.06415207E-04
   6.99999975E-04  -2.08541562E-04
   7.50000007E-04  -2.10675877E-04
   7.99999980E-04  -2.12817729E-04
   8.50000011E-04  -2.14966683E-04
   8.99999985E-04  -2.17122477E-04
   9.50000016E-04  -2.19284848E-04
   1.00000005E-03  -2.21453447E-04
   1.04999996E-03  -2.23627794E-04
   1.09999999E-03  -2.25807482E-04
   1.15000003E-03  -2.27992074E-04
   1.20000006E-03  -2.30181206E-04
   1.24999997E-03  -2.32374630E-04
   1.30000000E-03  -2.34571780E-04
   1.35000004E-03  -2.36772146E-04
   1.39999995E-03  -2.38975234E-04
   1.44999998E-03  -2.41180693E-04
   1.50000001E-03  -2.43388044E-04
   1.55000004E-03  -2.45596748E-04
   1.59999996E-03  -2.47806252E-04
   1.64999999E-03  -2.50016048E-04
   1.70000002E-03  -2.52225640E-04
   1.75000005E-03  -2.54434504E-04
   1.79999997E-03  -2.56642030E-04
   1.85000000E-03  -2.58847635E-04
   1.90000003E-03  -2.61050707E-04
   1.94999995E-03  -2.63250695E-04
   2.00000009E-03  -2.65446986E-04
   2.05000001E-03  -2.67638883E-04
   2.09999993E-03  -2.69825687E-04
   2.15000007E-03  -2.72006815E-04
   2.19999999E-03  -2.74181570E-04
   2.24999990E-03  -2.76349223E-04
   2.30000005E-03  -2.78509106E-04
   2.34999997E-03  -2.80660432E-04
   2.40000011E-03  -2.82802386E-04
   2.45000003E-03  -2.84934271E-04
   2.49999994E-03  -2.87055300E-04
   2.55000009E-03  -2.89164745E-04
   2.60000001E-03  -2.91261706E-04
   2.64999992E-03  -2.93345220E-04
   2.70000007E-03  -2.95414589E-04
   2.74999999E-03  -2.97469058E-04
   2.79999990E-03  -2.99507723E-04