  -3.99999991E-02   0.00000000    
  -3.99499983E-02   0.00000000    
  -3.99000011E-02   0.00000000    
  -3.98500003E-02   0.00000000    
  -3.97999994E-02   1.16285226E-18
  -3.97499986E-02   1.33419278E-17
  -3.97000015E-02   7.97929918E-17
  -3.96500006E-02   3.29754188E-16
  -3.95999998E-02   1.05332263E-15
  -3.95499989E-02   2.75908171E-15
  -3.95000018E-02   6.14181303E-15
  -3.94500010E-02   1.18917344E-14
  -3.94000001E-02   2.03495939E-14
  -3.93499993E-02   3.11460079E-14
  -3.92999984E-02   4.30889116E-14
  -3.92500013E-02   5.45663131E-14
  -3.92000005E-02   6.45253775E-14
  -3.91499996E-02   7.37052428E-14
  -3.90999988E-02   8.54353413E-14
  -3.90500017E-02   1.05248316E-13
  -3.90000008E-02   1.38987143E-13
  -3.89500000E-02   1.89918190E-13
  -3.88999991E-02   2.56190197E-13
  -3.88499983E-02   3.30259122E-13
  -3.88000011E-02   4.01283011E-13
  -3.87500003E-02   4.60081951E-13
  -3.86999995E-02   5.04656646E-13
  -3.86499986E-02   5.43322494E-13
  -3.86000015E-02   5.92971418E-13
  -3.85500006E-02   6.71952348E-13
  -3.84999998E-02   7.89910563E-13
  -3.84499989E-02   9.39269170E-13
  -3.84000018E-02   1.09339512E-12
  -3.83500010E-02   1.21411648E-12
  -3.83000001E-02   1.26681380E-12
  -3.82499993E-02   1.23687367E-12
  -3.81999984E-02   1.13935565E-12
  -3.81500013E-02   1.01579585E-12
  -3.81000005E-02   9.17658636E-13
  -3.80499996E-02   8.82543387E-13
  -3.79999988E-02   9.13625078E-13
  -3.79500017E-02   9.72483270E-13
  -3.79000008E-02   9.90150995E-13
  -3.78500000E-02   8.92957149E-13
  -3.77999991E-02   6.32256454E-13
  -3.77499983E-02   2.04294332E-13
  -3.77000012E-02  -3.49839352E-13
  -3.76500003E-02  -9.65138234E-13
  -3.75999995E-02  -1.58525255E-12
  -3.75499986E-02  -2.19142955E-12
  -3.75000015E-02  -2.81405151E-12
  -3.74500006E-02  -3.52134337E-12
  -3.73999998E-02  -4.39061201E-12
  -3.73499990E-02  -5.47502148E-12
  -3.73000018E-02  -6.77977726E-12
  -3.72500010E-02  -8.25605903E-12
  -3.72000001E-02  -9.81265069E-12
  -3.71499993E-02  -1.13384978E-11
  -3.70999984E-02  -1.27275343E-11
  -3.70500013E-02  -1.39000304E-11
  -3.70000005E-02  -1.48194165E-11
  -3.69499996E-02  -1.55058761E-11
  -3.68999988E-02  -1.60452762E-11
  -3.68500017E-02  -1.65857224E-11
  -3.68000008E-02  -1.73100510E-11
  -3.67500000E-02  -1.83777646E-11
  -3.66999991E-02  -1.98460554E-11
  -3.66499983E-02  -2.15999267E-11
  -3.66000012E-02  -2.33330681E-11
  -3.65500003E-02  -2.46109487E-11
  -3.64999995E-02  -2.50140152E-11
  -3.64499986E-02  -2.43135460E-11
  -3.64000015E-02  -2.25992315E-11
  -3.63500006E-02  -2.02787093E-11
  -3.62999998E-02  -1.79151190E-11
  -3.62499990E-02  -1.59460310E-11
  -3.62000018E-02  -1.44030074E-11
  -3.61500010E-02  -1.27829787E-11
  -3.61000001E-02  -1.01804190E-11
  -3.60499993E-02  -5.67657987E-12
  -3.59999985E-02   1.15792586E-12
  -3.59500013E-02   9.88787004E-12
  -3.59000005E-02   1.91965662E-11
  -3.58499996E-02   2.73228020E-11
  -3.57999988E-02   3.28304328E-11
  -3.57500017E-02   3.53894344E-11
  -3.57000008E-02   3.61724782E-11
  -3.56500000E-02   3.75855007E-11
  -3.55999991E-02   4.23324917E-11
  -3.55499983E-02   5.21516823E-11
  -3.55000012E-02   6.67911976E-11
  -3.54500003E-02   8.37780401E-11
  -3.53999995E-02   9.92361887E-11
  -3.53499986E-02   1.09527241E-10
  -3.53000015E-02   1.13033756E-10
  -3.52500007E-02   1.11218097E-10
  -3.51999998E-02   1.08309542E-10
  -3.51499990E-02   1.09554095E-10
  -3.51000018E-02   1.18670337E-10
  -3.50500010E-02   1.35652739E-10
  -3.50000001E-02   1.56070518E-10
  -3.49499993E-02   1.72445766E-10
  -3.48999985E-02   1.77354686E-10
  -3.48500013E-02   1.66991004E-10
  -3.48000005E-02   1.43513881E-10
  -3.47499996E-02   1.14853280E-10
  -3.46999988E-02   9.17039777E-11
  -3.46500017E-02   8.27790961E-11
  -3.46000008E-02   9.03926864E-11
  -3.45500000E-02   1.08558634E-10
  -3.44999991E-02   1.24851463E-10
  -3.44499983E-02   1.25601862E-10
  -3.44000012E-02   1.02322435E-10
  -3.43500003E-02   5.63986219E-11
  -3.42999995E-02  -4.41617175E-13
  -3.42499986E-02  -5.06163722E-11
  -3.42000015E-02  -7.85524701E-11
  -3.41500007E-02  -7.85061738E-11
  -3.40999998E-02  -5.85360718E-11
  -3.40499990E-02  -3.82395574E-11
  -3.40000018E-02  -4.06106503E-11
  -3.39500010E-02  -8.12706291E-11
  -3.39000002E-02  -1.59970578E-10
  -3.38499993E-02  -2.58724681E-10
  -3.37999985E-02  -3.48220563E-10
  -3.37500013E-02  -4.00345923E-10
  -3.37000005E-02  -4.01494255E-10
  -3.36499996E-02  -3.60363406E-10
  -3.35999988E-02  -3.05937831E-10
  -3.35500017E-02  -2.75601708E-10
  -3.35000008E-02  -2.98055969E-10
  -3.34500000E-02  -3.78682558E-10
  -3.33999991E-02  -4.94602193E-10
  -3.33499983E-02  -6.02758565E-10
  -3.33000012E-02  -6.58452237E-10
  -3.32500003E-02  -6.36494135E-10
  -3.31999995E-02  -5.45128775E-10
  -3.31499986E-02  -4.25379620E-10
  -3.31000015E-02  -3.34720890E-10
  -3.30500007E-02  -3.21347449E-10
  -3.29999998E-02  -4.00376898E-10
  -3.29499990E-02  -5.43452616E-10
  -3.29000019E-02  -6.87905566E-10
  -3.28500010E-02  -7.62912955E-10
  -3.28000002E-02  -7.21804616E-10
  -3.27499993E-02  -5.65801017E-10
  -3.26999985E-02  -3.47244539E-10
  -3.26500013E-02  -1.49070215E-10
  -3.26000005E-02  -4.82297466E-11
  -3.25499997E-02  -7.90179588E-11
  -3.24999988E-02  -2.13612780E-10
  -3.24500017E-02  -3.70417086E-10
  -3.24000008E-02  -4.48505150E-10
  -3.23500000E-02  -3.74004244E-10
  -3.22999991E-02  -1.37466163E-10
  -3.22499983E-02   1.96137759E-10
  -3.22000012E-02   5.11702736E-10
  -3.21500003E-02   6.93837432E-10
  -3.20999995E-02   6.80824674E-10
  -3.20499986E-02   4.97645092E-10
  -3.20000015E-02   2.50938881E-10
  -3.19500007E-02   8.53797796E-11
  -3.18999998E-02   1.19021501E-10
  -3.18499990E-02   3.86345345E-10
  -3.18000019E-02   8.16220702E-10
  -3.17500010E-02   1.25758493E-09
  -3.17000002E-02   1.54419977E-09
  -3.16499993E-02   1.57093261E-09
  -3.15999985E-02   1.34668321E-09
  -3.15500014E-02   9.97594674E-10
  -3.15000005E-02   7.15638437E-10
  -3.14499997E-02   6.72893130E-10
  -3.13999988E-02   9.39268996E-10
  -3.13500017E-02   1.44237178E-09
  -3.13000008E-02   1.99109174E-09
  -3.12500000E-02   2.35617970E-09
  -3.11999992E-02   2.37402475E-09
  -3.11500002E-02   2.02681938E-09
  -3.10999993E-02   1.46027901E-09
  -3.10500003E-02   9.26677290E-10
  -3.09999995E-02   6.74937384E-10
  -3.09500005E-02   8.35485348E-10
  -3.08999997E-02   1.35293809E-09
  -3.08500007E-02   2.00072359E-09
  -3.07999998E-02   2.47573073E-09
  -3.07500008E-02   2.53382049E-09
  -3.07000000E-02   2.10576312E-09
  -3.06499992E-02   1.33873956E-09
  -3.06000002E-02   5.39900791E-10
  -3.05499993E-02   4.25923775E-11
  -3.05000003E-02   5.28779590E-11
  -3.04499995E-02   5.46398482E-10
  -3.04000005E-02   1.26620425E-09
  -3.03499997E-02   1.82823712E-09
  -3.03000007E-02   1.89166438E-09
  -3.02499998E-02   1.31888767E-09
  -3.02000009E-02   2.50720777E-10
  -3.01500000E-02  -9.42595113E-10
  -3.00999992E-02  -1.81859972E-09
  -3.00500002E-02  -2.06129891E-09
  -2.99999993E-02  -1.63192793E-09
  -2.99500003E-02  -7.99864897E-10
  -2.98999995E-02  -3.33870639E-11
  -2.98500005E-02   2.06475240E-10
  -2.97999997E-02  -3.21120019E-10
  -2.97500007E-02  -1.51480617E-09
  -2.96999998E-02  -2.96055047E-09
  -2.96500009E-02  -4.10657774E-09
  -2.96000000E-02  -4.51023929E-09
  -2.95499992E-02  -4.04673095E-09
  -2.95000002E-02  -2.98183300E-09
  -2.94499993E-02  -1.86870208E-09
  -2.94000003E-02  -1.30774747E-09
  -2.93499995E-02  -1.67336067E-09
  -2.93000005E-02  -2.93132540E-09
  -2.92499997E-02  -4.63479433E-09
  -2.92000007E-02  -6.10878592E-09
  -2.91499998E-02  -6.74719303E-09
  -2.91000009E-02  -6.29132924E-09
  -2.90500000E-02  -4.96177543E-09
  -2.89999992E-02  -3.37691186E-09
  -2.89500002E-02  -2.28636066E-09
  -2.88999993E-02  -2.23346808E-09
  -2.88500004E-02  -3.29824146E-09
  -2.87999995E-02  -5.04165909E-09
  -2.87500005E-02  -6.68512001E-09
  -2.86999997E-02  -7.45261808E-09
  -2.86500007E-02  -6.92578395E-09
  -2.85999998E-02  -5.25001509E-09
  -2.85500009E-02  -3.09144044E-09
  -2.85000000E-02  -1.35434053E-09
  -2.84499992E-02  -7.78484555E-10
  -2.84000002E-02  -1.59534663E-09
  -2.83499993E-02  -3.40230066E-09
  -2.83000004E-02  -5.32057909E-09
  -2.82499995E-02  -6.37585451E-09
  -2.82000005E-02  -5.93652238E-09
  -2.81499997E-02  -4.01228784E-09
  -2.81000007E-02  -1.27201316E-09
  -2.80499998E-02   1.23745425E-09
  -2.80000009E-02   2.55420041E-09
  -2.79500000E-02   2.24164087E-09
  -2.78999992E-02   6.05087869E-10
  -2.78500002E-02  -1.42198897E-09
  -2.77999993E-02  -2.68183342E-09
  -2.77500004E-02  -2.31272890E-09
  -2.76999995E-02  -1.53082103E-10
  -2.76500005E-02   3.15857962E-09
  -2.75999997E-02   6.44368781E-09
  -2.75500007E-02   8.49796233E-09
  -2.74999999E-02   8.63504379E-09
  -2.74500009E-02   7.01363057E-09
  -2.74000000E-02   4.59258942E-09
  -2.73499992E-02   2.72227241E-09
  -2.73000002E-02   2.54572763E-09
  -2.72499993E-02   4.47524640E-09
  -2.72000004E-02   7.98377009E-09
  -2.71499995E-02   1.18153212E-08
  -2.71000005E-02   1.45316381E-08
  -2.70499997E-02   1.51572888E-08
  -2.70000007E-02   1.36336755E-08
  -2.69499999E-02   1.08704636E-08
  -2.69000009E-02   8.35930170E-09
  -2.68500000E-02   7.51221485E-09
  -2.67999992E-02   9.01661856E-09
  -2.67500002E-02   1.24998394E-08
  -2.66999993E-02   1.66641279E-08
  -2.66500004E-02   1.98443448E-08
  -2.65999995E-02   2.07476880E-08
  -2.65500005E-02   1.90455669E-08
  -2.64999997E-02   1.55455968E-08
  -2.64500007E-02   1.18546053E-08
  -2.63999999E-02   9.67154890E-09
  -2.63500009E-02   1.00205888E-08
  -2.63000000E-02   1.27698341E-08
  -2.62499992E-02   1.66607581E-08
  -2.62000002E-02   1.98479437E-08
  -2.61499994E-02   2.07175841E-08
  -2.61000004E-02   1.86211828E-08
  -2.60499995E-02   1.41902081E-08
  -2.60000005E-02   9.07906994E-09
  -2.59499997E-02   5.23898169E-09
  -2.59000007E-02   4.04017753E-09
  -2.58499999E-02   5.63637359E-09
  -2.58000009E-02   8.86485996E-09
  -2.57500000E-02   1.17400862E-08
  -2.56999992E-02   1.23311210E-08
  -2.56500002E-02   9.63487601E-09
  -2.55999994E-02   4.05009359E-09
  -2.55500004E-02  -2.77089507E-09
  -2.54999995E-02  -8.63896155E-09
  -2.54500005E-02  -1.18013048E-08
  -2.53999997E-02  -1.17361427E-08
  -2.53500007E-02  -9.40598266E-09
  -2.52999999E-02  -6.84424206E-09
  -2.52500009E-02  -6.24945695E-09
  -2.52000000E-02  -8.98766483E-09
  -2.51499992E-02  -1.49530059E-08
  -2.51000002E-02  -2.25828742E-08
  -2.50499994E-02  -2.95327247E-08
  -2.50000004E-02  -3.37171819E-08
  -2.49499995E-02  -3.42522846E-08
  -2.49000005E-02  -3.18702931E-08
  -2.48499997E-02  -2.86100796E-08
  -2.48000007E-02  -2.69109517E-08
  -2.47499999E-02  -2.85105521E-08
  -2.47000009E-02  -3.36430155E-08
  -2.46500000E-02  -4.09053627E-08
  -2.45999992E-02  -4.78628550E-08
  -2.45500002E-02  -5.21295931E-08
  -2.44999994E-02  -5.24411661E-08
  -2.44500004E-02  -4.92326748E-08
  -2.43999995E-02  -4.44529853E-08
  -2.43500005E-02  -4.06895744E-08
  -2.42999997E-02  -3.99927558E-08
  -2.42500007E-02  -4.29299298E-08
  -2.41999999E-02  -4.83030398E-08
  -2.41500009E-02  -5.36661133E-08
  -2.41000000E-02  -5.64172602E-08
  -2.40499992E-02  -5.49749473E-08
  -2.40000002E-02  -4.95041768E-08
  -2.39499994E-02  -4.18569037E-08
  -2.39000004E-02  -3.47453657E-08
  -2.38499995E-02  -3.05170467E-08
  -2.38000005E-02  -3.00854488E-08
  -2.37499997E-02  -3.25053193E-08
  -2.37000007E-02  -3.53914835E-08
  -2.36499999E-02  -3.59970720E-08
  -2.36000009E-02  -3.24638414E-08
  -2.35500000E-02  -2.46746517E-08
  -2.34999992E-02  -1.43157814E-08
  -2.34500002E-02  -4.11548218E-09
  -2.33999994E-02   3.39720385E-09
  -2.33500004E-02   7.04712555E-09
  -2.32999995E-02   7.55068807E-09
  -2.32500006E-02   7.18606952E-09
  -2.31999997E-02   8.74327721E-09
  -2.31500007E-02   1.42332182E-08
  -2.30999999E-02   2.39487701E-08
  -2.30500009E-02   3.63121373E-08
  -2.30000000E-02   4.85818639E-08
  -2.29499992E-02   5.80964397E-08
  -2.29000002E-02   6.34818349E-08
  -2.28499994E-02   6.52647287E-08
  -2.28000004E-02   6.56064287E-08
  -2.27499995E-02   6.72790250E-08
  -2.27000006E-02   7.23584392E-08
  -2.26499997E-02   8.12417369E-08
  -2.26000007E-02   9.24471024E-08
  -2.25499999E-02   1.03291462E-07
  -2.25000009E-02   1.11130873E-07
  -2.24500000E-02   1.14583678E-07
  -2.23999992E-02   1.14162475E-07
  -2.23500002E-02   1.12016345E-07
  -2.22999994E-02   1.10901773E-07
  -2.22500004E-02   1.12864335E-07
  -2.21999995E-02   1.18252885E-07
  -2.21500006E-02   1.25533589E-07
  -2.20999997E-02   1.31995279E-07
  -2.20500007E-02   1.35015469E-07
  -2.19999999E-02   1.33288310E-07
  -2.19500009E-02   1.27429189E-07
  -2.19000001E-02   1.19663682E-07
  -2.18499992E-02   1.12744196E-07
  -2.18000002E-02   1.08608262E-07
  -2.17499994E-02   1.07421876E-07
  -2.17000004E-02   1.07473433E-07
  -2.16499995E-02   1.05979375E-07
  -2.16000006E-02   1.00423286E-07
  -2.15499997E-02   8.97867309E-08
  -2.15000007E-02   7.50720233E-08
  -2.14499999E-02   5.88499915E-08
  -2.14000009E-02   4.40347883E-08
  -2.13500001E-02   3.24681899E-08
  -2.12999992E-02   2.40013041E-08
  -2.12500002E-02   1.65349441E-08
  -2.11999994E-02   7.02296621E-09
  -2.11500004E-02  -7.02820335E-09
  -2.10999995E-02  -2.62867879E-08
  -2.10500006E-02  -4.91826029E-08
  -2.09999997E-02  -7.25850597E-08
  -2.09500007E-02  -9.32746929E-08
  -2.08999999E-02  -1.09510808E-07
  -2.08500009E-02  -1.21925027E-07
  -2.08000001E-02  -1.33272565E-07
  -2.07499992E-02  -1.47115543E-07
  -2.07000002E-02  -1.66041531E-07
  -2.06499994E-02  -1.90274392E-07
  -2.06000004E-02  -2.17379437E-07
  -2.05499995E-02  -2.43261212E-07
  -2.05000006E-02  -2.64027449E-07
  -2.04499997E-02  -2.77847874E-07
  -2.04000007E-02  -2.85898551E-07
  -2.03499999E-02  -2.91882770E-07
  -2.03000009E-02  -3.00290537E-07
  -2.02500001E-02  -3.14180113E-07
  -2.01999992E-02  -3.33539333E-07
  -2.01500002E-02  -3.55055789E-07
  -2.00999994E-02  -3.73483971E-07
  -2.00500004E-02  -3.84032177E-07
  -1.99999996E-02  -3.84667430E-07
  -1.99500006E-02  -3.77216224E-07
  -1.98999997E-02  -3.66661823E-07
  -1.98500007E-02  -3.58875781E-07
  -1.97999999E-02  -3.57789190E-07
  -1.97500009E-02  -3.63334976E-07
  -1.97000001E-02  -3.71192726E-07
  -1.96499992E-02  -3.74560017E-07
  -1.96000002E-02  -3.67216046E-07
  -1.95499994E-02  -3.46485024E-07
  -1.95000004E-02  -3.14678914E-07
  -1.94499996E-02  -2.78249331E-07
  -1.94000006E-02  -2.44928117E-07
  -1.93499997E-02  -2.20109115E-07
  -1.93000007E-02  -2.04149472E-07
  -1.92499999E-02  -1.91921075E-07
  -1.92000009E-02  -1.74945981E-07
  -1.91500001E-02  -1.45244385E-07
  -1.90999992E-02  -9.91637634E-08
  -1.90500002E-02  -3.93790778E-08
  -1.89999994E-02   2.59753286E-08
  -1.89500004E-02   8.67859882E-08
  -1.88999996E-02   1.35550863E-07
  -1.88500006E-02   1.70979717E-07
  -1.87999997E-02   1.98863376E-07
  -1.87500007E-02   2.29664209E-07
  -1.86999999E-02   2.73791926E-07
  -1.86500009E-02   3.36659667E-07
  -1.86000001E-02   4.15820409E-07
  -1.85499992E-02   5.01620661E-07
  -1.85000002E-02   5.81236691E-07
  -1.84499994E-02   6.44373472E-07
  -1.84000004E-02   6.88049681E-07
  -1.83499996E-02   7.18196986E-07
  -1.83000006E-02   7.47181502E-07
  -1.82499997E-02   7.88212276E-07
  -1.82000007E-02   8.49089531E-07
  -1.81499999E-02   9.28166230E-07
  -1.81000009E-02   1.01449893E-06
  -1.80500001E-02   1.09230712E-06
  -1.79999992E-02   1.14786701E-06
  -1.79500002E-02   1.17576076E-06
  -1.78999994E-02   1.18156436E-06
  -1.78500004E-02   1.17957632E-06
  -1.77999996E-02   1.18642788E-06
  -1.77500006E-02   1.21334813E-06
  -1.76999997E-02   1.26059103E-06
  -1.76500008E-02   1.31668924E-06
  -1.75999999E-02   1.36307381E-06
  -1.75500009E-02   1.38214352E-06
  -1.75000001E-02   1.36522101E-06
  -1.74499992E-02   1.31672175E-06
  -1.74000002E-02   1.25247300E-06
  -1.73499994E-02   1.19272079E-06
  -1.73000004E-02   1.15282796E-06
  -1.72499996E-02   1.13585565E-06
  -1.72000006E-02   1.13049236E-06
  -1.71499997E-02   1.11549991E-06
  -1.71000008E-02   1.06888251E-06
  -1.70499999E-02   9.77758532E-07
  -1.70000009E-02   8.44441843E-07
  -1.69500001E-02   6.85809368E-07
  -1.68999992E-02   5.26005863E-07
  -1.68500002E-02   3.85577266E-07
  -1.67999994E-02   2.71873915E-07
  -1.67500004E-02   1.75147619E-07
  -1.66999996E-02   7.23347000E-08
  -1.66500006E-02  -6.29398329E-08
  -1.65999997E-02  -2.48504051E-07
  -1.65500008E-02  -4.85249132E-07
  -1.64999999E-02  -7.56179531E-07
  -1.64500009E-02  -1.03356808E-06
  -1.64000001E-02  -1.29121725E-06
  -1.63499992E-02  -1.51645554E-06
  -1.63000003E-02  -1.71634463E-06
  -1.62499994E-02  -1.91509071E-06
  -1.62000004E-02  -2.14358192E-06
  -1.61499996E-02  -2.42553278E-06
  -1.61000006E-02  -2.76643095E-06
  -1.60499997E-02  -3.15040006E-06
  -1.60000008E-02  -3.54664257E-06
  -1.59499999E-02  -3.92284528E-06
  -1.59000009E-02  -4.25968346E-06
  -1.58500001E-02  -4.55982536E-06
  -1.57999992E-02  -4.84722023E-06
  -1.57500003E-02  -5.15672400E-06
  -1.56999994E-02  -5.51843277E-06
  -1.56500004E-02  -5.94373614E-06
  -1.55999996E-02  -6.41942961E-06
  -1.55499997E-02  -6.91282776E-06
  -1.54999997E-02  -7.38585004E-06
  -1.54499998E-02  -7.81195013E-06
  -1.53999999E-02  -8.18829449E-06
  -1.53500000E-02  -8.53756774E-06
  -1.53000001E-02  -8.89827152E-06
  -1.52500002E-02  -9.30759506E-06
  -1.52000003E-02  -9.78440221E-06
  -1.51500003E-02  -1.03200309E-05
  -1.51000004E-02  -1.08813347E-05
  -1.50499996E-02  -1.14248342E-05
  -1.49999997E-02  -1.19159176E-05
  -1.49499997E-02  -1.23445197E-05
  -1.48999998E-02  -1.27301355E-05
  -1.48499999E-02  -1.31136358E-05
  -1.48000000E-02  -1.35391711E-05
  -1.47500001E-02  -1.40341726E-05
  -1.47000002E-02  -1.45964486E-05
  -1.46500003E-02  -1.51943077E-05
  -1.46000003E-02  -1.57800459E-05
  -1.45500004E-02  -1.63110053E-05
  -1.44999996E-02  -1.67688886E-05
  -1.44499997E-02  -1.71685897E-05
  -1.43999998E-02  -1.75522327E-05
  -1.43499998E-02  -1.79708495E-05
  -1.42999999E-02  -1.84616383E-05
  -1.42500000E-02  -1.90308965E-05
  -1.42000001E-02  -1.96505134E-05
  -1.41500002E-02  -2.02699612E-05
  -1.41000003E-02  -2.08385936E-05
  -1.40500003E-02  -2.13285457E-05
  -1.40000004E-02  -2.17479374E-05
  -1.39499996E-02  -2.21380615E-05
  -1.38999997E-02  -2.25556596E-05
  -1.38499998E-02  -2.30478399E-05
  -1.37999998E-02  -2.36308988E-05
  -1.37499999E-02  -2.42825136E-05
  -1.37000000E-02  -2.49511704E-05
  -1.36500001E-02  -2.55790455E-05
  -1.36000002E-02  -2.61281893E-05
  -1.35500003E-02  -2.65983108E-05
  -1.35000004E-02  -2.70280289E-05
  -1.34500004E-02  -2.74786817E-05
  -1.33999996E-02  -2.80075783E-05
  -1.33499997E-02  -2.86425002E-05
  -1.32999998E-02  -2.93690591E-05
  -1.32499998E-02  -3.01368291E-05
  -1.31999999E-02  -3.08817180E-05
  -1.31500000E-02  -3.15549732E-05
  -1.31000001E-02  -3.21458465E-05
  -1.30500002E-02  -3.26875816E-05
  -1.30000003E-02  -3.32437594E-05
  -1.29500004E-02  -3.38807440E-05
  -1.29000004E-02  -3.46384732E-05
  -1.28499996E-02  -3.55124030E-05
  -1.27999997E-02  -3.64553307E-05
  -1.27499998E-02  -3.73984185E-05
  -1.26999998E-02  -3.82822727E-05
  -1.26499999E-02  -3.90843561E-05
  -1.26000000E-02  -3.98302982E-05
  -1.25500001E-02  -4.05839673E-05
  -1.25000002E-02  -4.14198621E-05
  -1.24500003E-02  -4.23904930E-05
  -1.24000004E-02  -4.35033035E-05
  -1.23500004E-02  -4.47170605E-05
  -1.22999996E-02  -4.59602852E-05
  -1.22499997E-02  -4.71635685E-05
  -1.21999998E-02  -4.82914584E-05
  -1.21499998E-02  -4.93593943E-05
  -1.20999999E-02  -5.04280979E-05
  -1.20500000E-02  -5.15776337E-05
  -1.20000001E-02  -5.28723285E-05
  -1.19500002E-02  -5.43320712E-05
  -1.19000003E-02  -5.59232103E-05
  -1.18500004E-02  -5.75736703E-05
  -1.18000004E-02  -5.92052274E-05
  -1.17499996E-02  -6.07691145E-05
  -1.16999997E-02  -6.22689913E-05
  -1.16499998E-02  -6.37605990E-05
  -1.15999999E-02  -6.53281459E-05
  -1.15499999E-02  -6.70475856E-05
  -1.15000000E-02  -6.89531662E-05
  -1.14500001E-02  -7.10220411E-05
  -1.14000002E-02  -7.31843757E-05
  -1.13500003E-02  -7.53549102E-05
  -1.13000004E-02  -7.74714281E-05
  -1.12500004E-02  -7.95232918E-05
  -1.11999996E-02  -8.15573148E-05
  -1.11499997E-02  -8.36581312E-05
  -1.10999998E-02  -8.59108113E-05
  -1.10499999E-02  -8.83630273E-05
  -1.09999999E-02  -9.10040035E-05
  -1.09500000E-02  -9.37691148E-05
  -1.09000001E-02  -9.65688305E-05
  -1.08500002E-02  -9.93294088E-05
  -1.08000003E-02  -1.02026730E-04
  -1.07500004E-02  -1.04698367E-04
  -1.07000005E-02  -1.07428066E-04
  -1.06499996E-02  -1.10309382E-04
  -1.05999997E-02  -1.13404705E-04
  -1.05499998E-02  -1.16717441E-04
  -1.04999999E-02  -1.20190765E-04
  -1.04499999E-02  -1.23733204E-04
  -1.04000000E-02  -1.27260122E-04
  -1.03500001E-02  -1.30732165E-04
  -1.03000002E-02  -1.34173868E-04
  -1.02500003E-02  -1.37663868E-04
  -1.02000004E-02  -1.41300654E-04
  -1.01500005E-02  -1.45159211E-04
  -1.00999996E-02  -1.49257728E-04
  -1.00499997E-02  -1.53549670E-04
  -9.99999978E-03  -1.57945164E-04
  -9.94999986E-03  -1.62351425E-04
  -9.89999995E-03  -1.66715516E-04
  -9.85000003E-03  -1.71049192E-04
  -9.80000012E-03  -1.75424924E-04
  -9.75000020E-03  -1.79944982E-04
  -9.70000029E-03  -1.84696502E-04
  -9.65000037E-03  -1.89714105E-04
  -9.60000046E-03  -1.94964741E-04
  -9.54999961E-03  -2.00363385E-04
  -9.49999969E-03  -2.05812394E-04
  -9.44999978E-03  -2.11246530E-04
  -9.39999986E-03  -2.16663509E-04
  -9.34999995E-03  -2.22126910E-04
  -9.30000003E-03  -2.27738768E-04
  -9.25000012E-03  -2.33594750E-04
  -9.20000020E-03  -2.39742847E-04
  -9.15000029E-03  -2.46162177E-04
  -9.10000037E-03  -2.52773345E-04
  -9.05000046E-03  -2.59475084E-04
  -8.99999961E-03  -2.66191142E-04
  -8.94999970E-03  -2.72904901E-04
  -8.89999978E-03  -2.79668457E-04
  -8.84999987E-03  -2.86581431E-04
  -8.79999995E-03  -2.93747493E-04
  -8.75000004E-03  -3.01229273E-04
  -8.70000012E-03  -3.09022318E-04
  -8.65000021E-03  -3.17058788E-04
  -8.60000029E-03  -3.25239642E-04
  -8.55000038E-03  -3.33480741E-04
  -8.50000046E-03  -3.41752602E-04
  -8.44999962E-03  -3.50096438E-04
  -8.39999970E-03  -3.58607591E-04
  -8.34999979E-03  -3.67394008E-04
  -8.29999987E-03  -3.76529235E-04
  -8.24999996E-03  -3.86022584E-04
  -8.20000004E-03  -3.95816576E-04
  -8.15000013E-03  -4.05814266E-04
  -8.10000021E-03  -4.15924529E-04
  -8.05000030E-03  -4.26104787E-04
  -8.00000038E-03  -4.36381553E-04
  -7.95000046E-03  -4.46840044E-04
  -7.89999962E-03  -4.57588409E-04
  -7.84999970E-03  -4.68710437E-04
  -7.79999979E-03  -4.80228366E-04
  -7.74999987E-03  -4.92096005E-04
  -7.69999996E-03  -5.04222291E-04
  -7.65000004E-03  -5.16514468E-04
  -7.60000013E-03  -5.28921431E-04
  -7.55000021E-03  -5.41459071E-04
  -7.49999983E-03  -5.54206432E-04
  -7.44999992E-03  -5.67271025E-04
  -7.40000000E-03  -5.80744643E-04
  -7.35000009E-03  -5.94663026E-04
  -7.30000017E-03  -6.08991366E-04
  -7.24999979E-03  -6.23644679E-04
  -7.19999988E-03  -6.38528203E-04
  -7.14999996E-03  -6.53583731E-04
  -7.10000005E-03  -6.68816501E-04
  -7.05000013E-03  -6.84295606E-04
  -7.00000022E-03  -7.00125063E-04
  -6.94999984E-03  -7.16398645E-04
  -6.89999992E-03  -7.33159541E-04
  -6.85000001E-03  -7.50383246E-04
  -6.80000009E-03  -7.67992227E-04
  -6.75000018E-03  -7.85894168E-04
  -6.69999979E-03  -8.04025098E-04
  -6.64999988E-03  -8.22380593E-04
  -6.59999996E-03  -8.41020490E-04
  -6.55000005E-03  -8.60042113E-04
  -6.50000013E-03  -8.79539119E-04
  -6.45000022E-03  -8.99563078E-04
  -6.39999984E-03  -9.20102932E-04
  -6.34999992E-03  -9.41091741E-04
  -6.30000001E-03  -9.62442835E-04
  -6.25000009E-03  -9.84090846E-04
  -6.20000018E-03  -1.00602279E-03
  -6.14999980E-03  -1.02829060E-03
  -6.09999988E-03  -1.05098903E-03
  -6.04999997E-03  -1.07421179E-03
  -6.00000005E-03  -1.09801244E-03
  -5.95000014E-03  -1.12238829E-03
  -5.90000022E-03  -1.14728394E-03
  -5.84999984E-03  -1.17261964E-03
  -5.79999993E-03  -1.19832822E-03
  -5.75000001E-03  -1.22438895E-03
  -5.70000010E-03  -1.25084247E-03
  -5.65000018E-03  -1.27777434E-03
  -5.59999980E-03  -1.30527921E-03
  -5.54999989E-03  -1.33341597E-03
  -5.49999997E-03  -1.36218732E-03
  -5.45000006E-03  -1.39154342E-03
  -5.40000014E-03  -1.42140733E-03
  -5.35000023E-03  -1.45171466E-03
  -5.29999984E-03  -1.48244645E-03
  -5.24999993E-03  -1.51364284E-03
  -5.20000001E-03  -1.54538383E-03
  -5.15000010E-03  -1.57775742E-03
  -5.10000018E-03  -1.61082589E-03
  -5.04999980E-03  -1.64459914E-03
  -4.99999989E-03  -1.67903351E-03
  -4.94999997E-03  -1.71405822E-03
  -4.90000006E-03  -1.74961437E-03
  -4.85000014E-03  -1.78568217E-03
  -4.80000023E-03  -1.82229700E-03
  -4.74999985E-03  -1.85953814E-03
  -4.69999993E-03  -1.89749000E-03
  -4.65000002E-03  -1.93620718E-03
  -4.60000010E-03  -1.97569979E-03
  -4.55000019E-03  -2.01593293E-03
  -4.49999981E-03  -2.05684057E-03
  -4.44999989E-03  -2.09836243E-03
  -4.39999998E-03  -2.14048056E-03
  -4.35000006E-03  -2.18322268E-03
  -4.30000015E-03  -2.22666236E-03
  -4.25000023E-03  -2.27088854E-03
  -4.19999985E-03  -2.31596036E-03
  -4.14999994E-03  -2.36188783E-03
  -4.10000002E-03  -2.40863767E-03
  -4.05000011E-03  -2.45614606E-03
  -4.00000019E-03  -2.50435504E-03
  -3.94999981E-03  -2.55324319E-03
  -3.89999989E-03  -2.60284543E-03
  -3.84999998E-03  -2.65324116E-03
  -3.80000006E-03  -2.70451535E-03
  -3.74999992E-03  -2.75672902E-03
  -3.70000000E-03  -2.80989450E-03
  -3.65000009E-03  -2.86397198E-03
  -3.59999994E-03  -2.91889301E-03
  -3.55000002E-03  -2.97460263E-03
  -3.50000011E-03  -3.03108874E-03
  -3.44999996E-03  -3.08838114E-03
  -3.40000005E-03  -3.14655062E-03
  -3.34999990E-03  -3.20567563E-03
  -3.29999998E-03  -3.26581905E-03
  -3.25000007E-03  -3.32700112E-03
  -3.19999992E-03  -3.38917645E-03
  -3.15000000E-03  -3.45228217E-03
  -3.10000009E-03  -3.51626473E-03
  -3.04999994E-03  -3.58109619E-03
  -3.00000003E-03  -3.64680053E-03
  -2.95000011E-03  -3.71345179E-03
  -2.89999996E-03  -3.78114008E-03
  -2.85000005E-03  -3.84993944E-03
  -2.79999990E-03  -3.91986920E-03
  -2.74999999E-03  -3.99088766E-03
  -2.70000007E-03  -4.06292640E-03
  -2.64999992E-03  -4.13591182E-03
  -2.60000001E-03  -4.20981506E-03
  -2.55000009E-03  -4.28466592E-03
  -2.49999994E-03  -4.36054263E-03
  -2.45000003E-03  -4.43754299E-03
  -2.40000011E-03  -4.51574055E-03
  -2.34999997E-03  -4.59515862E-03
  -2.30000005E-03  -4.67574690E-03
  -2.24999990E-03  -4.75740898E-03
  -2.19999999E-03  -4.84006433E-03
  -2.15000007E-03  -4.92368545E-03
  -2.09999993E-03  -5.00829704E-03
  -2.05000001E-03  -5.09398384E-03
  -2.00000009E-03  -5.18085761E-03
  -1.94999995E-03  -5.26899518E-03
  -1.90000003E-03  -5.35842218E-03
  -1.85000000E-03  -5.44908876E-03
  -1.79999997E-03  -5.54088596E-03
  -1.75000005E-03  -5.63372299E-03
  -1.70000002E-03  -5.72756631E-03
  -1.64999999E-03  -5.82243782E-03
  -1.59999996E-03  -5.91843296E-03
  -1.55000004E-03  -6.01565512E-03
  -1.50000001E-03  -6.11418765E-03
  -1.44999998E-03  -6.21406455E-03
  -1.39999995E-03  -6.31523179E-03
  -1.35000004E-03  -6.41758228E-03
  -1.30000000E-03  -6.52100984E-03
  -1.24999997E-03  -6.62545441E-03
  -1.20000006E-03  -6.73093414E-03
  -1.15000003E-03  -6.83753192E-03
  -1.09999999E-03  -6.94536837E-03
  -1.04999996E-03  -7.05457060E-03
  -1.00000005E-03  -7.16518285E-03
  -9.50000016E-04  -7.27712736E-03
  -8.99999985E-04  -7.39027373E-03
  -8.50000011E-04  -7.50448229E-03
  -7.99999980E-04  -7.61965523E-03
  -7.50000007E-04  -7.73581397E-03
  -6.99999975E-04  -7.85308331E-03
  -6.50000002E-04  -7.97160994E-03
  -6.00000028E-04  -8.09150189E-03
  -5.49999997E-04  -8.21280852E-03
  -5.00000024E-04  -8.33546277E-03
  -4.49999992E-04  -8.45929701E-03
  -3.99999990E-04  -8.58416595E-03
  -3.49999988E-04  -8.70999880E-03
  -3.00000014E-04  -8.83678533E-03
  -2.50000012E-04  -8.96462798E-03
  -1.99999995E-04  -9.09369066E-03
  -1.50000007E-04  -9.22409631E-03
  -9.99999975E-05  -9.35588311E-03
  -4.99999987E-05  -9.48897284E-03
   0.00000000      -9.62321181E-03
   4.99999987E-05  -9.75842495E-03
   9.99999975E-05  -9.89452936E-03
   1.50000007E-04  -1.00315306E-02
   1.99999995E-04  -1.01695023E-02
   2.50000012E-04  -1.03086028E-02
   3.00000014E-04  -1.04489513E-02
   3.49999988E-04  -1.05905831E-02
   3.99999990E-04  -1.07334331E-02
   4.49999992E-04  -1.08773494E-02
   5.00000024E-04  -1.10221598E-02
   5.49999997E-04  -1.11677563E-02
   6.00000028E-04  -1.13141239E-02
   6.50000002E-04  -1.14613427E-02
   6.99999975E-04  -1.16095394E-02
   7.50000007E-04  -1.17588146E-02
   7.99999980E-04  -1.19092651E-02
   8.50000011E-04  -1.20608583E-02
   8.99999985E-04  -1.22134406E-02
   9.50000016E-04  -1.23668071E-02
   1.00000005E-03  -1.25208069E-02
   1.04999996E-03  -1.26753841E-02
   1.09999999E-03  -1.28305638E-02
   1.15000003E-03  -1.29864961E-02
   1.20000006E-03  -1.31433569E-02
   1.24999997E-03  -1.33012552E-02
   1.30000000E-03  -1.34601621E-02
   1.35000004E-03  -1.36198979E-02
   1.39999995E-03  -1.37801962E-02
   1.44999998E-03  -1.39408614E-02
   1.50000001E-03  -1.41018238E-02
   1.55000004E-03  -1.42631521E-02
   1.59999996E-03  -1.44250207E-02
   1.64999999E-03  -1.45875867E-02
   1.70000002E-03  -1.47509361E-02
   1.75000005E-03  -1.49150053E-02
   1.79999997E-03  -1.50796194E-02
   1.85000000E-03  -1.52445547E-02
   1.90000003E-03  -1.54096354E-02
   1.94999995E-03  -1.55747505E-02
   2.00000009E-03  -1.57399103E-02
   2.05000001E-03  -1.59052759E-02
   2.09999993E-03  -1.60710160E-02
   2.15000007E-03  -1.62372123E-02
   2.19999999E-03  -1.64038297E-02
   2.24999990E-03  -1.65707078E-02
   2.30000005E-03  -1.67376306E-02
   2.34999997E-03  -1.69043504E-02
   2.40000011E-03  -1.70707256E-02
   2.45000003E-03  -1.72367655E-02
   2.49999994E-03  -1.74025632E-02
   2.55000009E-03  -1.75683014E-02
   2.60000001E-03  -1.77340973E-02
   2.64999992E-03  -1.78999547E-02
   2.70000007E-03  -1.80657003E-02
   2.74999999E-03  -1.82310604E-02
   2.79999990E-03  -1.83958095E-02