  -3.99999991E-02   0.00000000    
  -3.99499983E-02   0.00000000    
  -3.99000011E-02   0.00000000    
  -3.98500003E-02   0.00000000    
  -3.97999994E-02   0.00000000    
  -3.97499986E-02  -1.54830437E-22
  -3.97000015E-02  -1.76730914E-21
  -3.96500006E-02  -1.06750841E-20
  -3.95999998E-02  -4.50630905E-20
  -3.95499989E-02  -1.48469976E-19
  -3.95000018E-02  -4.04867764E-19
  -3.94500010E-02  -9.47271831E-19
  -3.94000001E-02  -1.94814145E-18
  -3.93499993E-02  -3.58387250E-18
  -3.92999984E-02  -5.97957946E-18
  -3.92500013E-02  -9.16014351E-18
  -3.92000005E-02  -1.30473646E-17
  -3.91499996E-02  -1.75361578E-17
  -3.90999988E-02  -2.26478015E-17
  -3.90500017E-02  -2.87054933E-17
  -3.90000008E-02  -3.64356913E-17
  -3.89500000E-02  -4.69017231E-17
  -3.88999991E-02  -6.12400586E-17
  -3.88499983E-02  -8.02763432E-17
  -3.88000011E-02  -1.04195151E-16
  -3.87500003E-02  -1.32463790E-16
  -3.86999995E-02  -1.64129204E-16
  -3.86499986E-02  -1.98432410E-16
  -3.86000015E-02  -2.35489982E-16
  -3.85500006E-02  -2.76678812E-16
  -3.84999998E-02  -3.24416504E-16
  -3.84499989E-02  -3.81273591E-16
  -3.84000018E-02  -4.48698763E-16
  -3.83500010E-02  -5.25920692E-16
  -3.83000001E-02  -6.09630788E-16
  -3.82499993E-02  -6.94774487E-16
  -3.81999984E-02  -7.76272927E-16
  -3.81500013E-02  -8.50988856E-16
  -3.81000005E-02  -9.19017301E-16
  -3.80499996E-02  -9.83577094E-16
  -3.79999988E-02  -1.04936011E-15
  -3.79500017E-02  -1.11991488E-15
  -3.79000008E-02  -1.19516158E-15
  -3.78500000E-02  -1.27017768E-15
  -3.77999991E-02  -1.33589791E-15
  -3.77499983E-02  -1.38151074E-15
  -3.77000012E-02  -1.39751447E-15
  -3.76500003E-02  -1.37802795E-15
  -3.75999995E-02  -1.32125419E-15
  -3.75499986E-02  -1.22785949E-15
  -3.75000015E-02  -1.09803179E-15
  -3.74500006E-02  -9.28604020E-16
  -3.73999998E-02  -7.11576074E-16
  -3.73499990E-02  -4.34690294E-16
  -3.73000018E-02  -8.38055457E-17
  -3.72500010E-02   3.53884013E-16
  -3.72000001E-02   8.86914011E-16
  -3.71499993E-02   1.51771872E-15
  -3.70999984E-02   2.24217731E-15
  -3.70500013E-02   3.05040302E-15
  -3.70000005E-02   3.92854770E-15
  -3.69499996E-02   4.86157906E-15
  -3.68999988E-02   5.83705905E-15
  -3.68500017E-02   6.84962256E-15
  -3.68000008E-02   7.90495531E-15
  -3.67500000E-02   9.02120836E-15
  -3.66999991E-02   1.02256206E-14
  -3.66499983E-02   1.15454809E-14
  -3.66000012E-02   1.29952023E-14
  -3.65500003E-02   1.45642267E-14
  -3.64999995E-02   1.62118040E-14
  -3.64499986E-02   1.78732134E-14
  -3.64000015E-02   1.94773583E-14
  -3.63500006E-02   2.09698016E-14
  -3.62999998E-02   2.23307802E-14
  -3.62499990E-02   2.35777872E-14
  -3.62000018E-02   2.47477769E-14
  -3.61500010E-02   2.58637902E-14
  -3.61000001E-02   2.69004569E-14
  -3.60499993E-02   2.77670038E-14
  -3.59999985E-02   2.83217612E-14
  -3.59500013E-02   2.84185551E-14
  -3.59000005E-02   2.79684316E-14
  -3.58499996E-02   2.69880520E-14
  -3.57999988E-02   2.56064159E-14
  -3.57500017E-02   2.40168078E-14
  -3.57000008E-02   2.23862439E-14
  -3.56500000E-02   2.07588937E-14
  -3.55999991E-02   1.90005143E-14
  -3.55499983E-02   1.68195095E-14
  -3.55000012E-02   1.38686873E-14
  -3.54500003E-02   9.89215813E-15
  -3.53999995E-02   4.85297913E-15
  -3.53499986E-02  -1.02449577E-15
  -3.53000015E-02  -7.33202222E-15
  -3.52500007E-02  -1.36550080E-14
  -3.51999998E-02  -1.97771131E-14
  -3.51499990E-02  -2.58137323E-14
  -3.51000018E-02  -3.21960578E-14
  -3.50500010E-02  -3.94899194E-14
  -3.50000001E-02  -4.81133315E-14
  -3.49499993E-02  -5.80770444E-14
  -3.48999985E-02  -6.88802043E-14
  -3.48500013E-02  -7.96364927E-14
  -3.48000005E-02  -8.94040498E-14
  -3.47499996E-02  -9.75884548E-14
  -3.46999988E-02  -1.04233516E-13
  -3.46500017E-02  -1.10043796E-13
  -3.46000008E-02  -1.16092425E-13
  -3.45500000E-02  -1.23315000E-13
  -3.44999991E-02  -1.32007700E-13
  -3.44499983E-02  -1.41572938E-13
  -3.44000012E-02  -1.50665653E-13
  -3.43500003E-02  -1.57717318E-13
  -3.42999995E-02  -1.61627778E-13
  -3.42499986E-02  -1.62308602E-13
  -3.42000015E-02  -1.60795924E-13
  -3.41500007E-02  -1.58826931E-13
  -3.40999998E-02  -1.58023171E-13
  -3.40499990E-02  -1.59032293E-13
  -3.40000018E-02  -1.61041224E-13
  -3.39500010E-02  -1.61941925E-13
  -3.39000002E-02  -1.59146391E-13
  -3.38499993E-02  -1.50732874E-13
  -3.37999985E-02  -1.36409588E-13
  -3.37500013E-02  -1.17813474E-13
  -3.37000005E-02  -9.79293144E-14
  -3.36499996E-02  -7.98143222E-14
  -3.35999988E-02  -6.51662020E-14
  -3.35500017E-02  -5.34037604E-14
  -3.35000008E-02  -4.17508266E-14
  -3.34500000E-02  -2.63826335E-14
  -3.33999991E-02  -4.19034695E-15
  -3.33499983E-02   2.56223689E-14
  -3.33000012E-02   6.08929072E-14
  -3.32500003E-02   9.72066123E-14
  -3.31999995E-02   1.29749916E-13
  -3.31499986E-02   1.55534074E-13
  -3.31000015E-02   1.74961581E-13
  -3.30500007E-02   1.91924764E-13
  -3.29999998E-02   2.12249421E-13
  -3.29499990E-02   2.41068531E-13
  -3.29000019E-02   2.80273065E-13
  -3.28500010E-02   3.27253470E-13
  -3.28000002E-02   3.75641033E-13
  -3.27499993E-02   4.17870572E-13
  -3.26999985E-02   4.48507008E-13
  -3.26500013E-02   4.66828345E-13
  -3.26000005E-02   4.77382402E-13
  -3.25499997E-02   4.88093452E-13
  -3.24999988E-02   5.06620299E-13
  -3.24500017E-02   5.36555826E-13
  -3.24000008E-02   5.75260054E-13
  -3.23500000E-02   6.14487736E-13
  -3.22999991E-02   6.43738752E-13
  -3.22499983E-02   6.54961816E-13
  -3.22000012E-02   6.46491866E-13
  -3.21500003E-02   6.24295212E-13
  -3.20999995E-02   5.99720848E-13
  -3.20499986E-02   5.84542722E-13
  -3.20000015E-02   5.85418920E-13
  -3.19500007E-02   6.00329682E-13
  -3.18999998E-02   6.18816250E-13
  -3.18499990E-02   6.26186169E-13
  -3.18000019E-02   6.09997621E-13
  -3.17500010E-02   5.65941174E-13
  -3.17000002E-02   5.00318482E-13
  -3.16499993E-02   4.27719600E-13
  -3.15999985E-02   3.64663378E-13
  -3.15500014E-02   3.21913693E-13
  -3.15000005E-02   2.98997779E-13
  -3.14499997E-02   2.83651927E-13
  -3.13999988E-02   2.56795046E-13
  -3.13500017E-02   2.01068383E-13
  -3.13000008E-02   1.09173982E-13
  -3.12500000E-02  -1.19132033E-14
  -3.11999992E-02  -1.43112437E-13
  -3.11500002E-02  -2.61191269E-13
  -3.10999993E-02  -3.49168746E-13
  -3.10500003E-02  -4.04469291E-13
  -3.09999995E-02  -4.40881435E-13
  -3.09500005E-02  -4.83021284E-13
  -3.08999997E-02  -5.55423925E-13
  -3.08500007E-02  -6.71016628E-13
  -3.07999998E-02  -8.24308287E-13
  -3.07500008E-02  -9.92740504E-13
  -3.07000000E-02  -1.14604192E-12
  -3.06499992E-02  -1.25968496E-12
  -3.06000002E-02  -1.32639657E-12
  -3.05499993E-02  -1.36024460E-12
  -3.05000003E-02  -1.39096113E-12
  -3.04499995E-02  -1.45059908E-12
  -3.04000005E-02  -1.55830698E-12
  -3.03499997E-02  -1.71021975E-12
  -3.03000007E-02  -1.87947162E-12
  -3.02499998E-02  -2.02690447E-12
  -3.02000009E-02  -2.11809888E-12
  -3.01500000E-02  -2.13916927E-12
  -3.00999992E-02  -2.10393053E-12
  -3.00500002E-02  -2.04865096E-12
  -2.99999993E-02  -2.01616827E-12
  -2.99500003E-02  -2.03618481E-12
  -2.98999995E-02  -2.11067600E-12
  -2.98500005E-02  -2.21143850E-12
  -2.97999997E-02  -2.29152721E-12
  -2.97500007E-02  -2.30596900E-12
  -2.96999998E-02  -2.23260689E-12
  -2.96500009E-02  -2.08340658E-12
  -2.96000000E-02  -1.90050666E-12
  -2.95499992E-02  -1.73807702E-12
  -2.95000002E-02  -1.63769269E-12
  -2.94499993E-02  -1.60831016E-12
  -2.94000003E-02  -1.62034774E-12
  -2.93499995E-02  -1.61729636E-12
  -2.93000005E-02  -1.54034370E-12
  -2.92499997E-02  -1.35526226E-12
  -2.92000007E-02  -1.06925731E-12
  -2.91499998E-02  -7.29540126E-13
  -2.91000009E-02  -4.03462637E-13
  -2.90500000E-02  -1.48549792E-13
  -2.89999992E-02   1.41886006E-14
  -2.89500002E-02   1.11216795E-13
  -2.88999993E-02   2.05956698E-13
  -2.88500004E-02   3.70733527E-13
  -2.87999995E-02   6.53374219E-13
  -2.87500005E-02   1.05366106E-12
  -2.86999997E-02   1.52094364E-12
  -2.86500007E-02   1.97492109E-12
  -2.85999998E-02   2.34100868E-12
  -2.85500009E-02   2.58459313E-12
  -2.85000000E-02   2.72832971E-12
  -2.84499992E-02   2.84378987E-12
  -2.84000002E-02   3.02021819E-12
  -2.83499993E-02   3.32382863E-12
  -2.83000004E-02   3.76596801E-12
  -2.82499995E-02   4.29514974E-12
  -2.82000005E-02   4.81756215E-12
  -2.81499997E-02   5.23775164E-12
  -2.81000007E-02   5.50155884E-12
  -2.80499998E-02   5.62165982E-12
  -2.80000009E-02   5.67329300E-12
  -2.79500000E-02   5.76101319E-12
  -2.78999992E-02   5.97066493E-12
  -2.78500002E-02   6.32812639E-12
  -2.77999993E-02   6.78407677E-12
  -2.77500004E-02   7.23280203E-12
  -2.76999995E-02   7.55769492E-12
  -2.76500005E-02   7.68355778E-12
  -2.75999997E-02   7.61192498E-12
  -2.75500007E-02   7.42254001E-12
  -2.74999999E-02   7.23904053E-12
  -2.74500009E-02   7.17326459E-12
  -2.74000000E-02   7.27294657E-12
  -2.73499992E-02   7.49688766E-12
  -2.73000002E-02   7.72995643E-12
  -2.72499993E-02   7.83243956E-12
  -2.72000004E-02   7.70229713E-12
  -2.71499995E-02   7.32221055E-12
  -2.71000005E-02   6.76935808E-12
  -2.70499997E-02   6.18213597E-12
  -2.70000007E-02   5.69770446E-12
  -2.69499999E-02   5.38800862E-12
  -2.69000009E-02   5.22366135E-12
  -2.68500000E-02   5.08320903E-12
  -2.67999992E-02   4.80511074E-12
  -2.67500002E-02   4.26005802E-12
  -2.66999993E-02   3.41113162E-12
  -2.66500004E-02   2.33382085E-12
  -2.65999995E-02   1.18538339E-12
  -2.65500005E-02   1.35892681E-13
  -2.64999997E-02  -7.08658880E-13
  -2.64500007E-02  -1.35622947E-12
  -2.63999999E-02  -1.92784959E-12
  -2.63500009E-02  -2.60474411E-12
  -2.63000000E-02  -3.54605668E-12
  -2.62499992E-02  -4.81394872E-12
  -2.62000002E-02  -6.34064025E-12
  -2.61499994E-02  -7.95382944E-12
  -2.61000004E-02  -9.45066161E-12
  -2.60499995E-02  -1.06878525E-11
  -2.60000005E-02  -1.16470878E-11
  -2.59499997E-02  -1.24449296E-11
  -2.59000007E-02  -1.32809172E-11
  -2.58499999E-02  -1.43457147E-11
  -2.58000009E-02  -1.57301897E-11
  -2.57500000E-02  -1.73771431E-11
  -2.56999992E-02  -1.90991788E-11
  -2.56500002E-02  -2.06565633E-11
  -2.55999994E-02  -2.18612888E-11
  -2.55500004E-02  -2.26604516E-11
  -2.54999995E-02  -2.31601509E-11
  -2.54500005E-02  -2.35772356E-11
  -2.53999997E-02  -2.41388871E-11
  -2.53500007E-02  -2.49745936E-11
  -2.52999999E-02  -2.60498983E-11
  -2.52500009E-02  -2.71735377E-11
  -2.52000000E-02  -2.80769522E-11
  -2.51499992E-02  -2.85317377E-11
  -2.51000002E-02  -2.84523117E-11
  -2.50499994E-02  -2.79361707E-11
  -2.50000004E-02  -2.72214421E-11
  -2.49499995E-02  -2.65787080E-11
  -2.49000005E-02  -2.61848841E-11
  -2.48499997E-02  -2.60365115E-11
  -2.48000007E-02  -2.59434401E-11
  -2.47499999E-02  -2.56081996E-11
  -2.47000009E-02  -2.47571026E-11
  -2.46500000E-02  -2.32644719E-11
  -2.45999992E-02  -2.12127243E-11
  -2.45500002E-02  -1.88589734E-11
  -2.44999994E-02  -1.65208663E-11
  -2.44500004E-02  -1.44318420E-11
  -2.43999995E-02  -1.26316076E-11
  -2.43500005E-02  -1.09431726E-11
  -2.42999997E-02  -9.04960742E-12
  -2.42500007E-02  -6.63804255E-12
  -2.41999999E-02  -3.54666708E-12
  -2.41500009E-02   1.52899408E-13
  -2.41000000E-02   4.17761832E-12
  -2.40499992E-02   8.15238502E-12
  -2.40000002E-02   1.17746455E-11
  -2.39499994E-02   1.49498799E-11
  -2.39000004E-02   1.78348152E-11
  -2.38499995E-02   2.07658422E-11
  -2.38000005E-02   2.41023417E-11
  -2.37499997E-02   2.80545934E-11
  -2.37000007E-02   3.25750295E-11
  -2.36499999E-02   3.73646773E-11
  -2.36000009E-02   4.19950255E-11
  -2.35500000E-02   4.60924424E-11
  -2.34999992E-02   4.95018575E-11
  -2.34500002E-02   5.23537359E-11
  -2.33999994E-02   5.50007401E-11
  -2.33500004E-02   5.78495862E-11
  -2.32999995E-02   6.11627624E-11
  -2.32500006E-02   6.49207355E-11
  -2.31999997E-02   6.88100479E-11
  -2.31500007E-02   7.23464830E-11
  -2.30999999E-02   7.50804766E-11
  -2.30500009E-02   7.67924196E-11
  -2.30000000E-02   7.75876863E-11
  -2.29499992E-02   7.78446752E-11
  -2.29000002E-02   7.80358347E-11
  -2.28499994E-02   7.85007545E-11
  -2.28000004E-02   7.92746771E-11
  -2.27499995E-02   8.00533181E-11
  -2.27000006E-02   8.03140471E-11
  -2.26499997E-02   7.95419702E-11
  -2.26000007E-02   7.74594763E-11
  -2.25499999E-02   7.41533016E-11
  -2.25000009E-02   7.00375036E-11
  -2.24500000E-02   6.56648763E-11
  -2.23999992E-02   6.14694962E-11
  -2.23500002E-02   5.75577710E-11
  -2.22999994E-02   5.36457857E-11
  -2.22500004E-02   4.91764685E-11
  -2.21999995E-02   4.35677189E-11
  -2.21500006E-02   3.64806865E-11
  -2.20999997E-02   2.79850691E-11
  -2.20500007E-02   1.85421817E-11
  -2.19999999E-02   8.80856759E-12
  -2.19500009E-02  -6.54113536E-13
  -2.19000001E-02  -9.63144928E-12
  -2.18499992E-02  -1.83529997E-11
  -2.18000002E-02  -2.73842251E-11
  -2.17499994E-02  -3.73577592E-11
  -2.17000004E-02  -4.86636495E-11
  -2.16499995E-02  -6.12407763E-11
  -2.16000006E-02  -7.45688511E-11
  -2.15499997E-02  -8.78706483E-11
  -2.15000007E-02  -1.00436916E-10
  -2.14499999E-02  -1.11927627E-10
  -2.14000009E-02  -1.22509322E-10
  -2.13500001E-02  -1.32760580E-10
  -2.12999992E-02  -1.43382611E-10
  -2.12500002E-02  -1.54843152E-10
  -2.11999994E-02  -1.67116501E-10
  -2.11500004E-02  -1.79642773E-10
  -2.10999995E-02  -1.91531291E-10
  -2.10500006E-02  -2.01921535E-10
  -2.09999997E-02  -2.10339093E-10
  -2.09500007E-02  -2.16882082E-10
  -2.08999999E-02  -2.22147176E-10
  -2.08500009E-02  -2.26922217E-10
  -2.08000001E-02  -2.31780997E-10
  -2.07499992E-02  -2.36765191E-10
  -2.07000002E-02  -2.41303560E-10
  -2.06499994E-02  -2.44412435E-10
  -2.06000004E-02  -2.45094361E-10
  -2.05499995E-02  -2.42755649E-10
  -2.05000006E-02  -2.37451503E-10
  -2.04499997E-02  -2.29840397E-10
  -2.04000007E-02  -2.20860885E-10
  -2.03499999E-02  -2.11271958E-10
  -2.03000009E-02  -2.01265865E-10
  -2.02500001E-02  -1.90334165E-10
  -2.01999992E-02  -1.77456536E-10
  -2.01500002E-02  -1.61534106E-10
  -2.00999994E-02  -1.41874831E-10
  -2.00500004E-02  -1.18508078E-10
  -1.99999996E-02  -9.21788756E-11
  -1.99500006E-02  -6.40156955E-11
  -1.98999997E-02  -3.50159138E-11
  -1.98500007E-02  -5.58199190E-12
  -1.97999999E-02   2.46757476E-11
  -1.97500009E-02   5.67709976E-11
  -1.97000001E-02   9.18742790E-11
  -1.96499992E-02   1.30753852E-10
  -1.96000002E-02   1.73379117E-10
  -1.95499994E-02   2.18873794E-10
  -1.95000004E-02   2.65850397E-10
  -1.94499996E-02   3.12981724E-10
  -1.94000006E-02   3.59553165E-10
  -1.93499997E-02   4.05740525E-10
  -1.93000007E-02   4.52477611E-10
  -1.92499999E-02   5.00963937E-10
  -1.92000009E-02   5.52028534E-10
  -1.91500001E-02   6.05639927E-10
  -1.90999992E-02   6.60791144E-10
  -1.90500002E-02   7.15823512E-10
  -1.89999994E-02   7.69052211E-10
  -1.89500004E-02   8.19413593E-10
  -1.88999996E-02   8.66836714E-10
  -1.88500006E-02   9.12161013E-10
  -1.87999997E-02   9.56625001E-10
  -1.87500007E-02   1.00114972E-09
  -1.86999999E-02   1.04574005E-09
  -1.86500009E-02   1.08928377E-09
  -1.86000001E-02   1.12985044E-09
  -1.85499992E-02   1.16536603E-09
  -1.85000002E-02   1.19436561E-09
  -1.84499994E-02   1.21647847E-09
  -1.84000004E-02   1.23241828E-09
  -1.83499996E-02   1.24346899E-09
  -1.83000006E-02   1.25069022E-09
  -1.82499997E-02   1.25419997E-09
  -1.82000007E-02   1.25286714E-09
  -1.81499999E-02   1.24456434E-09
  -1.81000009E-02   1.22688160E-09
  -1.80500001E-02   1.19798549E-09
  -1.79999992E-02   1.15723309E-09
  -1.79500002E-02   1.10525422E-09
  -1.78999994E-02   1.04344944E-09
  -1.78500004E-02   9.73121472E-10
  -1.77999996E-02   8.94625818E-10
  -1.77500006E-02   8.06934242E-10
  -1.76999997E-02   7.07818248E-10
  -1.76500008E-02   5.94587601E-10
  -1.75999999E-02   4.65057021E-10
  -1.75500009E-02   3.18306742E-10
  -1.75000001E-02   1.54885271E-10
  -1.74499992E-02  -2.36550658E-11
  -1.74000002E-02  -2.15687940E-10
  -1.73499994E-02  -4.20498580E-10
  -1.73000004E-02  -6.38869624E-10
  -1.72499996E-02  -8.72994455E-10
  -1.72000006E-02  -1.12573373E-09
  -1.71499997E-02  -1.39954603E-09
  -1.71000008E-02  -1.69556880E-09
  -1.70499999E-02  -2.01327310E-09
  -1.70000009E-02  -2.35086750E-09
  -1.69500001E-02  -2.70627876E-09
  -1.68999992E-02  -3.07827830E-09
  -1.68500002E-02  -3.46724427E-09
  -1.67999994E-02  -3.87519972E-09
  -1.67500004E-02  -4.30509761E-09
  -1.66999996E-02  -4.75965312E-09
  -1.66500006E-02  -5.24025889E-09
  -1.65999997E-02  -5.74646686E-09
  -1.65500008E-02  -6.27629193E-09
  -1.64999999E-02  -6.82722145E-09
  -1.64500009E-02  -7.39747419E-09
  -1.64000001E-02  -7.98695066E-09
  -1.63499992E-02  -8.59743476E-09
  -1.63000003E-02  -9.23192545E-09
  -1.62499994E-02  -9.89340077E-09
  -1.62000004E-02  -1.05835536E-08
  -1.61499996E-02  -1.13020766E-08
  -1.61000006E-02  -1.20468471E-08
  -1.60499997E-02  -1.28149216E-08
  -1.60000008E-02  -1.36039375E-08
  -1.59499999E-02  -1.44132652E-08
  -1.59000009E-02  -1.52444066E-08
  -1.58500001E-02  -1.61004170E-08
  -1.57999992E-02  -1.69846182E-08
  -1.57500003E-02  -1.78991595E-08
  -1.56999994E-02  -1.88440854E-08
  -1.56500004E-02  -1.98173389E-08
  -1.55999996E-02  -2.08157296E-08
  -1.55499997E-02  -2.18364402E-08
  -1.54999997E-02  -2.28783872E-08
  -1.54499998E-02  -2.39428353E-08
  -1.53999999E-02  -2.50329535E-08
  -1.53500000E-02  -2.61525042E-08
  -1.53000001E-02  -2.73042371E-08
  -1.52500002E-02  -2.84887296E-08
  -1.52000003E-02  -2.97041751E-08
  -1.51500003E-02  -3.09472874E-08
  -1.51000004E-02  -3.22148885E-08
  -1.50499996E-02  -3.35054828E-08
  -1.49999997E-02  -3.48201432E-08
  -1.49499997E-02  -3.61622128E-08
  -1.48999998E-02  -3.75360329E-08
  -1.48499999E-02  -3.89451813E-08
  -1.48000000E-02  -4.03910470E-08
  -1.47500001E-02  -4.18724113E-08
  -1.47000002E-02  -4.33861835E-08
  -1.46500003E-02  -4.49290560E-08
  -1.46000003E-02  -4.64993022E-08
  -1.45500004E-02  -4.80978919E-08
  -1.44999996E-02  -4.97284454E-08
  -1.44499997E-02  -5.13960003E-08
  -1.43999998E-02  -5.31051256E-08
  -1.43499998E-02  -5.48582371E-08
  -1.42999999E-02  -5.66549154E-08
  -1.42500000E-02  -5.84924642E-08
  -1.42000001E-02  -6.03675900E-08
  -1.41500002E-02  -6.22784029E-08
  -1.41000003E-02  -6.42257945E-08
  -1.40500003E-02  -6.62136657E-08
  -1.40000004E-02  -6.82477861E-08
  -1.39499996E-02  -7.03338543E-08
  -1.38999997E-02  -7.24755296E-08
  -1.38499998E-02  -7.46734372E-08
  -1.37999998E-02  -7.69255664E-08
  -1.37499999E-02  -7.92288688E-08
  -1.37000000E-02  -8.15814047E-08
  -1.36500001E-02  -8.39840482E-08
  -1.36000002E-02  -8.64409984E-08
  -1.35500003E-02  -8.89587852E-08
  -1.35000004E-02  -9.15442797E-08
  -1.34500004E-02  -9.42024698E-08
  -1.33999996E-02  -9.69351888E-08
  -1.33499997E-02  -9.97412215E-08
  -1.32999998E-02  -1.02617825E-07
  -1.32499998E-02  -1.05563025E-07
  -1.31999999E-02  -1.08577623E-07
  -1.31500000E-02  -1.11665990E-07
  -1.31000001E-02  -1.14835316E-07
  -1.30500002E-02  -1.18093610E-07
  -1.30000003E-02  -1.21447243E-07
  -1.29500004E-02  -1.24899401E-07
  -1.29000004E-02  -1.28449827E-07
  -1.28499996E-02  -1.32096233E-07
  -1.27999997E-02  -1.35836714E-07
  -1.27499998E-02  -1.39671982E-07
  -1.26999998E-02  -1.43606513E-07
  -1.26499999E-02  -1.47648095E-07
  -1.26000000E-02  -1.51805779E-07
  -1.25500001E-02  -1.56087353E-07
  -1.25000002E-02  -1.60497379E-07
  -1.24500003E-02  -1.65036624E-07
  -1.24000004E-02  -1.69703327E-07
  -1.23500004E-02  -1.74495611E-07
  -1.22999996E-02  -1.79413973E-07
  -1.22499997E-02  -1.84462877E-07
  -1.21999998E-02  -1.89650422E-07
  -1.21499998E-02  -1.94986569E-07
  -1.20999999E-02  -2.00480443E-07
  -1.20500000E-02  -2.06138026E-07
  -1.20000001E-02  -2.11961279E-07
  -1.19500002E-02  -2.17949108E-07
  -1.19000003E-02  -2.24099836E-07
  -1.18500004E-02  -2.30413846E-07
  -1.18000004E-02  -2.36895559E-07
  -1.17499996E-02  -2.43553473E-07
  -1.16999997E-02  -2.50398557E-07
  -1.16499998E-02  -2.57441258E-07
  -1.15999999E-02  -2.64689135E-07
  -1.15499999E-02  -2.72145542E-07
  -1.15000000E-02  -2.79810195E-07
  -1.14500001E-02  -2.87681644E-07
  -1.14000002E-02  -2.95760259E-07
  -1.13500003E-02  -3.04050332E-07
  -1.13000004E-02  -3.12560644E-07
  -1.12500004E-02  -3.21302906E-07
  -1.11999996E-02  -3.30289055E-07
  -1.11499997E-02  -3.39528242E-07
  -1.10999998E-02  -3.49025413E-07
  -1.10499999E-02  -3.58781449E-07
  -1.09999999E-02  -3.68795583E-07
  -1.09500000E-02  -3.79068467E-07
  -1.09000001E-02  -3.89604565E-07
  -1.08500002E-02  -4.00413114E-07
  -1.08000003E-02  -4.11506932E-07
  -1.07500004E-02  -4.22899490E-07
  -1.07000005E-02  -4.34601901E-07
  -1.06499996E-02  -4.46620930E-07
  -1.05999997E-02  -4.58958880E-07
  -1.05499998E-02  -4.71615891E-07
  -1.04999999E-02  -4.84592931E-07
  -1.04499999E-02  -4.97894632E-07
  -1.04000000E-02  -5.11530743E-07
  -1.03500001E-02  -5.25514849E-07
  -1.03000002E-02  -5.39862242E-07
  -1.02500003E-02  -5.54585881E-07
  -1.02000004E-02  -5.69694691E-07
  -1.01500005E-02  -5.85193050E-07
  -1.00999996E-02  -6.01082320E-07
  -1.00499997E-02  -6.17364378E-07
  -9.99999978E-03  -6.34044511E-07
  -9.94999986E-03  -6.51133291E-07
  -9.89999995E-03  -6.68645782E-07
  -9.85000003E-03  -6.86598980E-07
  -9.80000012E-03  -7.05008631E-07
  -9.75000020E-03  -7.23886046E-07
  -9.70000029E-03  -7.43237877E-07
  -9.65000037E-03  -7.63067305E-07
  -9.60000046E-03  -7.83377232E-07
  -9.54999961E-03  -8.04173908E-07
  -9.49999969E-03  -8.25468874E-07
  -9.44999978E-03  -8.47278329E-07
  -9.39999986E-03  -8.69621374E-07
  -9.34999995E-03  -8.92515914E-07
  -9.30000003E-03  -9.15975988E-07
  -9.25000012E-03  -9.40010636E-07
  -9.20000020E-03  -9.64625087E-07
  -9.15000029E-03  -9.89823775E-07
  -9.10000037E-03  -1.01561432E-06
  -9.05000046E-03  -1.04200922E-06
  -8.99999961E-03  -1.06902678E-06
  -8.94999970E-03  -1.09668792E-06
  -8.89999978E-03  -1.12501391E-06
  -8.84999987E-03  -1.15402179E-06
  -8.79999995E-03  -1.18372373E-06
  -8.75000004E-03  -1.21412756E-06
  -8.70000012E-03  -1.24524024E-06
  -8.65000021E-03  -1.27707062E-06
  -8.60000029E-03  -1.30963315E-06
  -8.55000038E-03  -1.34294748E-06
  -8.50000046E-03  -1.37703762E-06
  -8.44999962E-03  -1.41192686E-06
  -8.39999970E-03  -1.44763590E-06
  -8.34999979E-03  -1.48417962E-06
  -8.29999987E-03  -1.52156872E-06
  -8.24999996E-03  -1.55981206E-06
  -8.20000004E-03  -1.59892033E-06
  -8.15000013E-03  -1.63890945E-06
  -8.10000021E-03  -1.67980147E-06
  -8.05000030E-03  -1.72162220E-06
  -8.00000038E-03  -1.76439835E-06
  -7.95000046E-03  -1.80815391E-06
  -7.89999962E-03  -1.85290753E-06
  -7.84999970E-03  -1.89867285E-06
  -7.79999979E-03  -1.94546169E-06
  -7.74999987E-03  -1.99328724E-06
  -7.69999996E-03  -2.04216758E-06
  -7.65000004E-03  -2.09212703E-06
  -7.60000013E-03  -2.14319425E-06
  -7.55000021E-03  -2.19539970E-06
  -7.49999983E-03  -2.24877044E-06
  -7.44999992E-03  -2.30332944E-06
  -7.40000000E-03  -2.35909351E-06
  -7.35000009E-03  -2.41607722E-06
  -7.30000017E-03  -2.47429625E-06
  -7.24999979E-03  -2.53377152E-06
  -7.19999988E-03  -2.59452963E-06
  -7.14999996E-03  -2.65660219E-06
  -7.10000005E-03  -2.72002285E-06
  -7.05000013E-03  -2.78482275E-06
  -7.00000022E-03  -2.85102828E-06
  -6.94999984E-03  -2.91866013E-06
  -6.89999992E-03  -2.98773625E-06
  -6.85000001E-03  -3.05827484E-06
  -6.80000009E-03  -3.13029977E-06
  -6.75000018E-03  -3.20384015E-06
  -6.69999979E-03  -3.27893076E-06
  -6.64999988E-03  -3.35560912E-06
  -6.59999996E-03  -3.43391093E-06
  -6.55000005E-03  -3.51386620E-06
  -6.50000013E-03  -3.59550063E-06
  -6.45000022E-03  -3.67883558E-06
  -6.39999984E-03  -3.76389289E-06
  -6.34999992E-03  -3.85069916E-06
  -6.30000001E-03  -3.93928667E-06
  -6.25000009E-03  -4.02969499E-06
  -6.20000018E-03  -4.12196459E-06
  -6.14999980E-03  -4.21613504E-06
  -6.09999988E-03  -4.31224225E-06
  -6.04999997E-03  -4.41031625E-06
  -6.00000005E-03  -4.51038204E-06
  -5.95000014E-03  -4.61246464E-06
  -5.90000022E-03  -4.71659359E-06
  -5.84999984E-03  -4.82280484E-06
  -5.79999993E-03  -4.93114021E-06
  -5.75000001E-03  -5.04164518E-06
  -5.70000010E-03  -5.15436477E-06
  -5.65000018E-03  -5.26933854E-06
  -5.59999980E-03  -5.38660061E-06
  -5.54999989E-03  -5.50618051E-06
  -5.49999997E-03  -5.62810646E-06
  -5.45000006E-03  -5.75241256E-06
  -5.40000014E-03  -5.87913746E-06
  -5.35000023E-03  -6.00832709E-06
  -5.29999984E-03  -6.14003193E-06
  -5.24999993E-03  -6.27430018E-06
  -5.20000001E-03  -6.41117776E-06
  -5.15000010E-03  -6.55070380E-06
  -5.10000018E-03  -6.69291239E-06
  -5.04999980E-03  -6.83783583E-06
  -4.99999989E-03  -6.98551094E-06
  -4.94999997E-03  -7.13597956E-06
  -4.90000006E-03  -7.28929172E-06
  -4.85000014E-03  -7.44550107E-06
  -4.80000023E-03  -7.60466219E-06
  -4.74999985E-03  -7.76682555E-06
  -4.69999993E-03  -7.93203253E-06
  -4.65000002E-03  -8.10032179E-06
  -4.60000010E-03  -8.27172971E-06
  -4.55000019E-03  -8.44629631E-06
  -4.49999981E-03  -8.62406523E-06
  -4.44999989E-03  -8.80509106E-06
  -4.39999998E-03  -8.98943108E-06
  -4.35000006E-03  -9.17714442E-06
  -4.30000015E-03  -9.36828383E-06
  -4.25000023E-03  -9.56289841E-06
  -4.19999985E-03  -9.76103092E-06
  -4.14999994E-03  -9.96272047E-06
  -4.10000002E-03  -1.01680107E-05
  -4.05000011E-03  -1.03769498E-05
  -4.00000019E-03  -1.05895933E-05
  -3.94999981E-03  -1.08060012E-05
  -3.89999989E-03  -1.10262372E-05
  -3.84999998E-03  -1.12503603E-05
  -3.80000006E-03  -1.14784225E-05
  -3.74999992E-03  -1.17104682E-05
  -3.70000000E-03  -1.19465421E-05
  -3.65000009E-03  -1.21866869E-05
  -3.59999994E-03  -1.24309536E-05
  -3.55000002E-03  -1.26793984E-05
  -3.50000011E-03  -1.29320861E-05
  -3.44999996E-03  -1.31890811E-05
  -3.40000005E-03  -1.34504462E-05
  -3.34999990E-03  -1.37162397E-05
  -3.29999998E-03  -1.39865078E-05
  -3.25000007E-03  -1.42612953E-05
  -3.19999992E-03  -1.45406484E-05
  -3.15000000E-03  -1.48246154E-05
  -3.10000009E-03  -1.51132572E-05
  -3.04999994E-03  -1.54066420E-05
  -3.00000003E-03  -1.57048325E-05
  -2.95000011E-03  -1.60079016E-05
  -2.89999996E-03  -1.63159038E-05
  -2.85000005E-03  -1.66288901E-05
  -2.79999990E-03  -1.69469040E-05
  -2.74999999E-03  -1.72699929E-05
  -2.70000007E-03  -1.75982059E-05
  -2.64999992E-03  -1.79316048E-05
  -2.60000001E-03  -1.82702570E-05
  -2.55000009E-03  -1.86142297E-05
  -2.49999994E-03  -1.89635884E-05
  -2.45000003E-03  -1.93183969E-05
  -2.40000011E-03  -1.96787059E-05
  -2.34999997E-03  -2.00445593E-05
  -2.30000005E-03  -2.04160006E-05
  -2.24999990E-03  -2.07930825E-05
  -2.19999999E-03  -2.11758579E-05
  -2.15000007E-03  -2.15643922E-05
  -2.09999993E-03  -2.19587600E-05
  -2.05000001E-03  -2.23590287E-05
  -2.00000009E-03  -2.27652581E-05
  -1.94999995E-03  -2.31774975E-05
  -1.90000003E-03  -2.35957923E-05
  -1.85000000E-03  -2.40201862E-05
  -1.79999997E-03  -2.44507191E-05
  -1.75000005E-03  -2.48874512E-05
  -1.70000002E-03  -2.53304479E-05
  -1.64999999E-03  -2.57797765E-05
  -1.59999996E-03  -2.62355024E-05
  -1.55000004E-03  -2.66976876E-05
  -1.50000001E-03  -2.71663739E-05
  -1.44999998E-03  -2.76416067E-05
  -1.39999995E-03  -2.81234261E-05
  -1.35000004E-03  -2.86118720E-05
  -1.30000000E-03  -2.91069973E-05
  -1.24999997E-03  -2.96088583E-05
  -1.20000006E-03  -3.01175205E-05
  -1.15000003E-03  -3.06330476E-05
  -1.09999999E-03  -3.11554904E-05
  -1.04999996E-03  -3.16849000E-05
  -1.00000005E-03  -3.22213091E-05
  -9.50000016E-04  -3.27647504E-05
  -8.99999985E-04  -3.33152639E-05
  -8.50000011E-04  -3.38728896E-05
  -7.99999980E-04  -3.44376858E-05
  -7.50000007E-04  -3.50097107E-05
  -6.99999975E-04  -3.55890115E-05
  -6.50000002E-04  -3.61756465E-05
  -6.00000028E-04  -3.67696448E-05
  -5.49999997E-04  -3.73710500E-05
  -5.00000024E-04  -3.79798730E-05
  -4.49999992E-04  -3.85961539E-05
  -3.99999990E-04  -3.92199254E-05
  -3.49999988E-04  -3.98512311E-05
  -3.00000014E-04  -4.04901148E-05
  -2.50000012E-04  -4.11366273E-05
  -1.99999995E-04  -4.17908122E-05
  -1.50000007E-04  -4.24527025E-05
  -9.99999975E-05  -4.31223234E-05
  -4.99999987E-05  -4.37996787E-05
   0.00000000      -4.44847901E-05
   4.99999987E-05  -4.51776723E-05
   9.99999975E-05  -4.58783616E-05
   1.50000007E-04  -4.65868907E-05
   1.99999995E-04  -4.73032960E-05
   2.50000012E-04  -4.80276176E-05
   3.00000014E-04  -4.87598663E-05
   3.49999988E-04  -4.95000495E-05
   3.99999990E-04  -5.02481780E-05
   4.49999992E-04  -5.10042446E-05
   5.00000024E-04  -5.17682602E-05
   5.49999997E-04  -5.25402465E-05
   6.00000028E-04  -5.33202074E-05
   6.50000002E-04  -5.41081790E-05
   6.99999975E-04  -5.49041724E-05
   7.50000007E-04  -5.57081949E-05
   7.99999980E-04  -5.65202463E-05
   8.50000011E-04  -5.73403013E-05
   8.99999985E-04  -5.81683562E-05
   9.50000016E-04  -5.90043855E-05
   1.00000005E-03  -5.98483894E-05
   1.04999996E-03  -6.07003603E-05
   1.09999999E-03  -6.15602985E-05
   1.15000003E-03  -6.24282111E-05
   1.20000006E-03  -6.33040909E-05
   1.24999997E-03  -6.41878942E-05
   1.30000000E-03  -6.50796064E-05
   1.35000004E-03  -6.59791767E-05
   1.39999995E-03  -6.68865687E-05
   1.44999998E-03  -6.78017605E-05
   1.50000001E-03  -6.87247230E-05
   1.55000004E-03  -6.96554271E-05
   1.59999996E-03  -7.05938728E-05
   1.64999999E-03  -7.15400092E-05
   1.70000002E-03  -7.24937854E-05
   1.75000005E-03  -7.34551431E-05
   1.79999997E-03  -7.44240315E-05
   1.85000000E-03  -7.54003631E-05
   1.90000003E-03  -7.63840872E-05
   1.94999995E-03  -7.73751599E-05
   2.00000009E-03  -7.83735304E-05
   2.05000001E-03  -7.93791551E-05
   2.09999993E-03  -8.03919684E-05
   2.15000007E-03  -8.14118830E-05
   2.19999999E-03  -8.24388262E-05
   2.24999990E-03  -8.34726816E-05
   2.30000005E-03  -8.45133691E-05
   2.34999997E-03  -8.55607941E-05
   2.40000011E-03  -8.66148839E-05
   2.45000003E-03  -8.76755366E-05
   2.49999994E-03  -8.87426868E-05
   2.55000009E-03  -8.98162398E-05
   2.60000001E-03  -9.08960792E-05
   2.64999992E-03  -9.19820814E-05
   2.70000007E-03  -9.30741226E-05
   2.74999999E-03  -9.41720646E-05
   2.79999990E-03  -9.52757910E-05