  -3.99999991E-02   0.00000000    
  -3.99499983E-02   0.00000000    
  -3.99000011E-02   0.00000000    
  -3.98500003E-02   0.00000000    
  -3.97999994E-02   1.37859834E-19
  -3.97499986E-02   1.21887162E-18
  -3.97000015E-02   5.45859340E-18
  -3.96500006E-02   1.62896959E-17
  -3.95999998E-02   3.55079619E-17
  -3.95499989E-02   5.71424970E-17
  -3.95000018E-02   6.05794390E-17
  -3.94500010E-02   9.03121831E-18
  -3.94000001E-02  -1.39806666E-16
  -3.93499993E-02  -4.08960371E-16
  -3.92999984E-02  -7.71499896E-16
  -3.92500013E-02  -1.13269131E-15
  -3.92000005E-02  -1.34606040E-15
  -3.91499996E-02  -1.27211738E-15
  -3.90999988E-02  -8.62909045E-16
  -3.90500017E-02  -2.29272522E-16
  -3.90000008E-02   3.60322734E-16
  -3.89500000E-02   5.76685018E-16
  -3.88999991E-02   1.98811259E-16
  -3.88499983E-02  -7.22223278E-16
  -3.88000011E-02  -1.80278744E-15
  -3.87500003E-02  -2.43524852E-15
  -3.86999995E-02  -2.05053780E-15
  -3.86499986E-02  -4.27273462E-16
  -3.86000015E-02   2.11410191E-15
  -3.85500006E-02   4.77013296E-15
  -3.84999998E-02   6.59730246E-15
  -3.84499989E-02   7.01911724E-15
  -3.84000018E-02   6.25552043E-15
  -3.83500010E-02   5.41765111E-15
  -3.83000001E-02   6.13805602E-15
  -3.82499993E-02   9.83601086E-15
  -3.81999984E-02   1.69392173E-14
  -3.81500013E-02   2.64680161E-14
  -3.81000005E-02   3.62645976E-14
  -3.80499996E-02   4.38537756E-14
  -3.79999988E-02   4.75901972E-14
  -3.79500017E-02   4.75499902E-14
  -3.79000008E-02   4.56808392E-14
  -3.78500000E-02   4.50358880E-14
  -3.77999991E-02   4.83585611E-14
  -3.77499983E-02   5.66497702E-14
  -3.77000012E-02   6.84374161E-14
  -3.76500003E-02   8.01941250E-14
  -3.75999995E-02   8.78087276E-14
  -3.75499986E-02   8.84668112E-14
  -3.75000015E-02   8.20318816E-14
  -3.74500006E-02   7.12084065E-14
  -3.73999998E-02   6.03415565E-14
  -3.73499990E-02   5.33817849E-14
  -3.73000018E-02   5.19698860E-14
  -3.72500010E-02   5.45561114E-14
  -3.72000001E-02   5.69724931E-14
  -3.71499993E-02   5.41720328E-14
  -3.70999984E-02   4.22849520E-14
  -3.70500013E-02   2.00131202E-14
  -3.70000005E-02  -1.12341251E-14
  -3.69499996E-02  -4.83632841E-14
  -3.68999988E-02  -8.80628104E-14
  -3.68500017E-02  -1.27832952E-13
  -3.68000008E-02  -1.66101047E-13
  -3.67500000E-02  -2.01657281E-13
  -3.66999991E-02  -2.33183590E-13
  -3.66499983E-02  -2.59600663E-13
  -3.66000012E-02  -2.81296633E-13
  -3.65500003E-02  -3.01421892E-13
  -3.64999995E-02  -3.25960233E-13
  -3.64499986E-02  -3.61660246E-13
  -3.64000015E-02  -4.12116711E-13
  -3.63500006E-02  -4.73751084E-13
  -3.62999998E-02  -5.34262521E-13
  -3.62499990E-02  -5.75562601E-13
  -3.62000018E-02  -5.81161042E-13
  -3.61500010E-02  -5.45232696E-13
  -3.61000001E-02  -4.78654822E-13
  -3.60499993E-02  -4.07588975E-13
  -3.59999985E-02  -3.63193091E-13
  -3.59500013E-02  -3.65737036E-13
  -3.59000005E-02  -4.10453301E-13
  -3.58499996E-02  -4.63393430E-13
  -3.57999988E-02  -4.72093772E-13
  -3.57500017E-02  -3.88904105E-13
  -3.57000008E-02  -1.97435343E-13
  -3.56500000E-02   7.13303860E-14
  -3.55999991E-02   3.44263897E-13
  -3.55499983E-02   5.34729541E-13
  -3.55000012E-02   5.84722049E-13
  -3.54500003E-02   5.01239187E-13
  -3.53999995E-02   3.66544306E-13
  -3.53499986E-02   3.11430244E-13
  -3.53000015E-02   4.57723323E-13
  -3.52500007E-02   8.53520325E-13
  -3.51999998E-02   1.43297397E-12
  -3.51499990E-02   2.02586689E-12
  -3.51000018E-02   2.42141702E-12
  -3.50500010E-02   2.46398279E-12
  -3.50000001E-02   2.13821647E-12
  -3.49499993E-02   1.59915126E-12
  -3.48999985E-02   1.12284856E-12
  -3.48500013E-02   9.89038278E-13
  -3.48000005E-02   1.34316722E-12
  -3.47499996E-02   2.10322168E-12
  -3.46999988E-02   2.96464307E-12
  -3.46500017E-02   3.51595988E-12
  -3.46000008E-02   3.42451631E-12
  -3.45500000E-02   2.61078594E-12
  -3.44999991E-02   1.32349242E-12
  -3.44499983E-02   6.42403069E-14
  -3.44000012E-02  -6.22519343E-13
  -3.43500003E-02  -4.09697504E-13
  -3.42999995E-02   6.22954650E-13
  -3.42499986E-02   1.97270152E-12
  -3.42000015E-02   2.90223553E-12
  -3.41500007E-02   2.76755875E-12
  -3.40999998E-02   1.34322566E-12
  -3.40499990E-02  -1.01431331E-12
  -3.40000018E-02  -3.46559023E-12
  -3.39500010E-02  -5.03388043E-12
  -3.39000002E-02  -5.05992730E-12
  -3.38499993E-02  -3.55755096E-12
  -3.37999985E-02  -1.28516382E-12
  -3.37500013E-02   5.35644662E-13
  -3.37000005E-02   7.59724640E-13
  -3.36499996E-02  -1.11521914E-12
  -3.35999988E-02  -4.62689696E-12
  -3.35500017E-02  -8.45563029E-12
  -3.35000008E-02  -1.09579758E-11
  -3.34500000E-02  -1.09175724E-11
  -3.33999991E-02  -8.17541954E-12
  -3.33499983E-02  -3.82251045E-12
  -3.33000012E-02   1.85910220E-13
  -3.32500003E-02   1.87172912E-12
  -3.31999995E-02   1.75987426E-13
  -3.31499986E-02  -4.43927967E-12
  -3.31000015E-02  -1.00528032E-11
  -3.30500007E-02  -1.40479755E-11
  -3.29999998E-02  -1.42850922E-11
  -3.29499990E-02  -1.01632652E-11
  -3.29000019E-02  -3.05467695E-12
  -3.28500010E-02   4.15709871E-12
  -3.28000002E-02   8.30121735E-12
  -3.27499993E-02   7.39603431E-12
  -3.26999985E-02   1.69914603E-12
  -3.26500013E-02  -6.20820105E-12
  -3.26000005E-02  -1.24317206E-11
  -3.25499997E-02  -1.34899696E-11
  -3.24999988E-02  -8.00123249E-12
  -3.24500017E-02   2.47194973E-12
  -3.24000008E-02   1.38954508E-11
  -3.23500000E-02   2.14452605E-11
  -3.22999991E-02   2.17075646E-11
  -3.22499983E-02   1.44015190E-11
  -3.22000012E-02   2.77016040E-12
  -3.21500003E-02  -7.65711453E-12
  -3.20999995E-02  -1.14816637E-11
  -3.20499986E-02  -5.98895369E-12
  -3.20000015E-02   7.35519545E-12
  -3.19500007E-02   2.32564055E-11
  -3.18999998E-02   3.47740066E-11
  -3.18499990E-02   3.64518069E-11
  -3.18000019E-02   2.69986446E-11
  -3.17500010E-02   1.02224574E-11
  -3.17000002E-02  -6.35711709E-12
  -3.16499993E-02  -1.47450836E-11
  -3.15999985E-02  -1.01792021E-11
  -3.15500014E-02   6.39299768E-12
  -3.15000005E-02   2.83210139E-11
  -3.14499997E-02   4.59230917E-11
  -3.13999988E-02   5.07686948E-11
  -3.13500017E-02   3.96871355E-11
  -3.13000008E-02   1.66108273E-11
  -3.12500000E-02  -8.76005865E-12
  -3.11999992E-02  -2.50710893E-11
  -3.11500002E-02  -2.44797741E-11
  -3.10999993E-02  -6.53973533E-12
  -3.10500003E-02   2.10925201E-11
  -3.09999995E-02   4.56703876E-11
  -3.09500005E-02   5.49351294E-11
  -3.08999997E-02   4.28348086E-11
  -3.08500007E-02   1.27358653E-11
  -3.07999998E-02  -2.35261637E-11
  -3.07500008E-02  -5.05824792E-11
  -3.07000000E-02  -5.64164063E-11
  -3.06499992E-02  -3.81286287E-11
  -3.06000002E-02  -3.84144452E-12
  -3.05499993E-02   3.03771938E-11
  -3.05000003E-02   4.74492598E-11
  -3.04499995E-02   3.71066129E-11
  -3.04000005E-02   1.03320857E-12
  -3.03499997E-02  -4.72041295E-11
  -3.03000007E-02  -8.77082990E-11
  -3.02499998E-02  -1.03041610E-10
  -3.02000009E-02  -8.63818531E-11
  -3.01500000E-02  -4.52462928E-11
  -3.00999992E-02   1.18399420E-12
  -3.00500002E-02   3.02645166E-11
  -2.99999993E-02   2.61415247E-11
  -2.99500003E-02  -1.25483894E-11
  -2.98999995E-02  -7.12172057E-11
  -2.98500005E-02  -1.25114294E-10
  -2.97999997E-02  -1.50095603E-10
  -2.97500007E-02  -1.33694181E-10
  -2.96999998E-02  -8.14269971E-11
  -2.96500009E-02  -1.51960892E-11
  -2.96000000E-02   3.58925875E-11
  -2.95499992E-02   4.84758518E-11
  -2.95000002E-02   1.59092964E-11
  -2.94499993E-02  -4.78492558E-11
  -2.94000003E-02  -1.13578112E-10
  -2.93499995E-02  -1.49366755E-10
  -2.93000005E-02  -1.35035497E-10
  -2.92499997E-02  -7.19041493E-11
  -2.92000007E-02   1.67718946E-11
  -2.91499998E-02   9.53408255E-11
  -2.91000009E-02   1.31388955E-10
  -2.90500000E-02   1.10629346E-10
  -2.89999992E-02   4.42272607E-11
  -2.89500002E-02  -3.51200666E-11
  -2.88999993E-02  -8.70779143E-11
  -2.88500004E-02  -8.16749515E-11
  -2.87999995E-02  -1.34108115E-11
  -2.87500005E-02   9.51112800E-11
  -2.86999997E-02   2.02135891E-10
  -2.86500007E-02   2.64774452E-10
  -2.85999998E-02   2.58307153E-10
  -2.85500009E-02   1.88068103E-10
  -2.85000000E-02   8.82116324E-11
  -2.84499992E-02   7.36950952E-12
  -2.84000002E-02  -1.28486726E-11
  -2.83499993E-02   4.29307874E-11
  -2.83000004E-02   1.55712512E-10
  -2.82499995E-02   2.79215873E-10
  -2.82000005E-02   3.59592300E-10
  -2.81499997E-02   3.59372532E-10
  -2.81000007E-02   2.74988254E-10
  -2.80499998E-02   1.39694978E-10
  -2.80000009E-02   9.99384863E-12
  -2.79500000E-02  -5.89704049E-11
  -2.78999992E-02  -3.83683051E-11
  -2.78500002E-02   6.02430120E-11
  -2.77999993E-02   1.88502491E-10
  -2.77500004E-02   2.81549423E-10
  -2.76999995E-02   2.86545926E-10
  -2.76500005E-02   1.86891724E-10
  -2.75999997E-02   1.10739057E-11
  -2.75500007E-02  -1.78403681E-10
  -2.74999999E-02  -3.11771220E-10
  -2.74500009E-02  -3.42976647E-10
  -2.74000000E-02  -2.71132838E-10
  -2.73499992E-02  -1.42441656E-10
  -2.73000002E-02  -3.10209532E-11
  -2.72499993E-02  -6.48148375E-12
  -2.72000004E-02  -1.02331359E-10
  -2.71499995E-02  -2.99417491E-10
  -2.71000005E-02  -5.32370259E-10
  -2.70499997E-02  -7.16980253E-10
  -2.70000007E-02  -7.86975540E-10
  -2.69499999E-02  -7.24052762E-10
  -2.69000009E-02  -5.67474234E-10
  -2.68500000E-02  -3.98231725E-10
  -2.67999992E-02  -3.03996633E-10
  -2.67500002E-02  -3.39894002E-10
  -2.66999993E-02  -5.02520414E-10
  -2.66500004E-02  -7.29283967E-10
  -2.65999995E-02  -9.24213428E-10
  -2.65500005E-02  -9.99575200E-10
  -2.64999997E-02  -9.15204856E-10
  -2.64500007E-02  -6.97879976E-10
  -2.63999999E-02  -4.31405967E-10
  -2.63500009E-02  -2.20885116E-10
  -2.63000000E-02  -1.46297793E-10
  -2.62499992E-02  -2.25808580E-10
  -2.62000002E-02  -4.05530554E-10
  -2.61499994E-02  -5.81194926E-10
  -2.61000004E-02  -6.43084974E-10
  -2.60499995E-02  -5.24908950E-10
  -2.60000005E-02  -2.34901043E-10
  -2.59499997E-02   1.45318702E-10
  -2.59000007E-02   4.94650265E-10
  -2.58499999E-02   7.05082936E-10
  -2.58000009E-02   7.30039973E-10
  -2.57500000E-02   6.06769635E-10
  -2.56999992E-02   4.41968101E-10
  -2.56500002E-02   3.65906777E-10
  -2.55999994E-02   4.74573436E-10
  -2.55500004E-02   7.85299992E-10
  -2.54999995E-02   1.22611599E-09
  -2.54500005E-02   1.66462200E-09
  -2.53999997E-02   1.96470151E-09
  -2.53500007E-02   2.04659889E-09
  -2.52999999E-02   1.92364302E-09
  -2.52500009E-02   1.69851555E-09
  -2.52000000E-02   1.51952628E-09
  -2.51499992E-02   1.51523338E-09
  -2.51000002E-02   1.73596271E-09
  -2.50499994E-02   2.12854290E-09
  -2.50000004E-02   2.55648924E-09
  -2.49499995E-02   2.85794388E-09
  -2.49000005E-02   2.91657476E-09
  -2.48499997E-02   2.71414580E-09
  -2.48000007E-02   2.34077224E-09
  -2.47499999E-02   1.95711203E-09
  -2.47000009E-02   1.72406367E-09
  -2.46500000E-02   1.73049852E-09
  -2.45999992E-02   1.95127270E-09
  -2.45500002E-02   2.25510810E-09
  -2.44999994E-02   2.46016607E-09
  -2.44500004E-02   2.41375409E-09
  -2.43999995E-02   2.06118123E-09
  -2.43500005E-02   1.47270574E-09
  -2.42999997E-02   8.15445877E-10
  -2.42500007E-02   2.81396212E-10
  -2.41999999E-02   2.61499589E-12
  -2.41500009E-02  -8.83096461E-12
  -2.41000000E-02   1.31306535E-10
  -2.40499992E-02   2.28635985E-10
  -2.40000002E-02   9.57018284E-11
  -2.39499994E-02  -3.63435532E-10
  -2.39000004E-02  -1.10746723E-09
  -2.38499995E-02  -1.97231520E-09
  -2.38000005E-02  -2.74073897E-09
  -2.37499997E-02  -3.23720140E-09
  -2.37000007E-02  -3.40612916E-09
  -2.36499999E-02  -3.33818928E-09
  -2.36000009E-02  -3.23169669E-09
  -2.35500000E-02  -3.30501626E-09
  -2.34999992E-02  -3.69810405E-09
  -2.34500002E-02  -4.40700365E-09
  -2.33999994E-02  -5.28128385E-09
  -2.33500004E-02  -6.08682571E-09
  -2.32999995E-02  -6.60717392E-09
  -2.32500006E-02  -6.73886946E-09
  -2.31999997E-02  -6.53803456E-09
  -2.31500007E-02  -6.19648599E-09
  -2.30999999E-02  -5.95682570E-09
  -2.30500009E-02  -6.00344308E-09
  -2.30000000E-02  -6.37779207E-09
  -2.29499992E-02  -6.95626667E-09
  -2.29000002E-02  -7.50158780E-09
  -2.28499994E-02  -7.76585729E-09
  -2.28000004E-02  -7.59997221E-09
  -2.27499995E-02  -7.02050595E-09
  -2.27000006E-02  -6.20354479E-09
  -2.26499997E-02  -5.40720624E-09
  -2.26000007E-02  -4.85658491E-09
  -2.25499999E-02  -4.64215555E-09
  -2.25000009E-02  -4.67731098E-09
  -2.24500000E-02  -4.73475525E-09
  -2.23999992E-02  -4.54639304E-09
  -2.23500002E-02  -3.92270838E-09
  -2.22999994E-02  -2.83840285E-09
  -2.22500004E-02  -1.44562240E-09
  -2.21999995E-02  -8.16530003E-12
  -2.21500006E-02   1.21454868E-09
  -2.20999997E-02   2.08220774E-09
  -2.20500007E-02   2.63561195E-09
  -2.19999999E-02   3.07779247E-09
  -2.19500009E-02   3.68214770E-09
  -2.19000001E-02   4.66829020E-09
  -2.18499992E-02   6.10105433E-09
  -2.18000002E-02   7.85804311E-09
  -2.17499994E-02   9.68056924E-09
  -2.17000004E-02   1.12855192E-08
  -2.16499995E-02   1.24882433E-08
  -2.16000006E-02   1.32814160E-08
  -2.15499997E-02   1.38344962E-08
  -2.15000007E-02   1.44139047E-08
  -2.14499999E-02   1.52596851E-08
  -2.14000009E-02   1.64739387E-08
  -2.13500001E-02   1.79710451E-08
  -2.12999992E-02   1.95119085E-08
  -2.12500002E-02   2.08066755E-08
  -2.11999994E-02   2.16396572E-08
  -2.11500004E-02   2.19603624E-08
  -2.10999995E-02   2.18999503E-08
  -2.10500006E-02   2.17061960E-08
  -2.09999997E-02   2.16267289E-08
  -2.09500007E-02   2.17933849E-08
  -2.08999999E-02   2.21596945E-08
  -2.08500009E-02   2.25191759E-08
  -2.08000001E-02   2.25954846E-08
  -2.07499992E-02   2.21631034E-08
  -2.07000002E-02   2.11439577E-08
  -2.06499994E-02   1.96367562E-08
  -2.06000004E-02   1.78667676E-08
  -2.05499995E-02   1.60798237E-08
  -2.05000006E-02   1.44292995E-08
  -2.04499997E-02   1.29072690E-08
  -2.04000007E-02   1.13502416E-08
  -2.03499999E-02   9.51558299E-09
  -2.03000009E-02   7.19268600E-09
  -2.02500001E-02   4.29776748E-09
  -2.01999992E-02   9.09587794E-10
  -2.01500002E-02  -2.76885603E-09
  -2.00999994E-02  -6.50356080E-09
  -2.00500004E-02  -1.01338236E-08
  -1.99999996E-02  -1.36396583E-08
  -1.99500006E-02  -1.71423622E-08
  -1.98999997E-02  -2.08396926E-08
  -1.98500007E-02  -2.49071821E-08
  -1.97999999E-02  -2.94120177E-08
  -1.97500009E-02  -3.42788233E-08
  -1.97000001E-02  -3.93216908E-08
  -1.96499992E-02  -4.43255495E-08
  -1.96000002E-02  -4.91373946E-08
  -1.95499994E-02  -5.37244773E-08
  -1.95000004E-02  -5.81731001E-08
  -1.94499996E-02  -6.26305905E-08
  -1.94000006E-02  -6.72198368E-08
  -1.93499997E-02  -7.19679321E-08
  -1.93000007E-02  -7.67827757E-08
  -1.92499999E-02  -8.14874355E-08
  -1.92000009E-02  -8.58940439E-08
  -1.91500001E-02  -8.98801602E-08
  -1.90999992E-02  -9.34300175E-08
  -1.90500002E-02  -9.66211857E-08
  -1.89999994E-02  -9.95644243E-08
  -1.89500004E-02  -1.02327562E-07
  -1.88999996E-02  -1.04882190E-07
  -1.88500006E-02  -1.07100043E-07
  -1.87999997E-02  -1.08800876E-07
  -1.87500007E-02  -1.09827489E-07
  -1.86999999E-02  -1.10109461E-07
  -1.86500009E-02  -1.09682269E-07
  -1.86000001E-02  -1.08651072E-07
  -1.85499992E-02  -1.07116193E-07
  -1.85000002E-02  -1.05098174E-07
  -1.84499994E-02  -1.02501630E-07
  -1.84000004E-02  -9.91388731E-08
  -1.83499996E-02  -9.48041361E-08
  -1.83000006E-02  -8.93628851E-08
  -1.82499997E-02  -8.28108355E-08
  -1.82000007E-02  -7.52702221E-08
  -1.81499999E-02  -6.69209115E-08
  -1.81000009E-02  -5.78970187E-08
  -1.80500001E-02  -4.81995563E-08
  -1.79999992E-02  -3.76704570E-08
  -1.79500002E-02  -2.60461537E-08
  -1.78999994E-02  -1.30697879E-08
  -1.78500004E-02   1.38958733E-09
  -1.77999996E-02   1.72695884E-08
  -1.77500006E-02   3.43364732E-08
  -1.76999997E-02   5.22926165E-08
  -1.76500008E-02   7.09231642E-08
  -1.75999999E-02   9.02129571E-08
  -1.75500009E-02   1.10374579E-07
  -1.75000001E-02   1.31766598E-07
  -1.74499992E-02   1.54733755E-07
  -1.74000002E-02   1.79440306E-07
  -1.73499994E-02   2.05776061E-07
  -1.73000004E-02   2.33385350E-07
  -1.72499996E-02   2.61814421E-07
  -1.72000006E-02   2.90714723E-07
  -1.71499997E-02   3.20010116E-07
  -1.71000008E-02   3.49945708E-07
  -1.70499999E-02   3.80986990E-07
  -1.70000009E-02   4.13607978E-07
  -1.69500001E-02   4.48058898E-07
  -1.68999992E-02   4.84223108E-07
  -1.68500002E-02   5.21635400E-07
  -1.67999994E-02   5.59662624E-07
  -1.67500004E-02   5.97774317E-07
  -1.66999996E-02   6.35782214E-07
  -1.66500006E-02   6.73934380E-07
  -1.65999997E-02   7.12813176E-07
  -1.65500008E-02   7.53072186E-07
  -1.64999999E-02   7.95123640E-07
  -1.64500009E-02   8.38919050E-07
  -1.64000001E-02   8.83929090E-07
  -1.63499992E-02   9.29342718E-07
  -1.63000003E-02   9.74408863E-07
  -1.62499994E-02   1.01876788E-06
  -1.62000004E-02   1.06262212E-06
  -1.61499996E-02   1.10665928E-06
  -1.61000006E-02   1.15174987E-06
  -1.60499997E-02   1.19854553E-06
  -1.60000008E-02   1.24715734E-06
  -1.59499999E-02   1.29706416E-06
  -1.59000009E-02   1.34730703E-06
  -1.58500001E-02   1.39689303E-06
  -1.57999992E-02   1.44523460E-06
  -1.57500003E-02   1.49242862E-06
  -1.56999994E-02   1.53923952E-06
  -1.56500004E-02   1.58677813E-06
  -1.55999996E-02   1.63601112E-06
  -1.55499997E-02   1.68731367E-06
  -1.54999997E-02   1.74027070E-06
  -1.54499998E-02   1.79383005E-06
  -1.53999999E-02   1.84675071E-06
  -1.53500000E-02   1.89815898E-06
  -1.53000001E-02   1.94796507E-06
  -1.52500002E-02   1.99694591E-06
  -1.52000003E-02   2.04644084E-06
  -1.51500003E-02   2.09778091E-06
  -1.51000004E-02   2.15170235E-06
  -1.50499996E-02   2.20800484E-06
  -1.49999997E-02   2.26561792E-06
  -1.49499997E-02   2.32306479E-06
  -1.48999998E-02   2.37912877E-06
  -1.48499999E-02   2.43343493E-06
  -1.48000000E-02   2.48667766E-06
  -1.47500001E-02   2.54037900E-06
  -1.47000002E-02   2.59626518E-06
  -1.46500003E-02   2.65553285E-06
  -1.46000003E-02   2.71832255E-06
  -1.45500004E-02   2.78364701E-06
  -1.44999996E-02   2.84982798E-06
  -1.44499997E-02   2.91525657E-06
  -1.43999998E-02   2.97915858E-06
  -1.43499998E-02   3.04201535E-06
  -1.42999999E-02   3.10543123E-06
  -1.42500000E-02   3.17150375E-06
  -1.42000001E-02   3.24194843E-06
  -1.41500002E-02   3.31736169E-06
  -1.41000003E-02   3.39695794E-06
  -1.40500003E-02   3.47892205E-06
  -1.40000004E-02   3.56123633E-06
  -1.39499996E-02   3.64262223E-06
  -1.38999997E-02   3.72319209E-06
  -1.38499998E-02   3.80449706E-06
  -1.37999998E-02   3.88894114E-06
  -1.37499999E-02   3.97879103E-06
  -1.37000000E-02   4.07521384E-06
  -1.36500001E-02   4.17777756E-06
  -1.36000002E-02   4.28463909E-06
  -1.35500003E-02   4.39338328E-06
  -1.35000004E-02   4.50214247E-06
  -1.34500004E-02   4.61050240E-06
  -1.33999996E-02   4.71979183E-06
  -1.33499997E-02   4.83260874E-06
  -1.32999998E-02   4.95174982E-06
  -1.32499998E-02   5.07903042E-06
  -1.31999999E-02   5.21450283E-06
  -1.31500000E-02   5.35643085E-06
  -1.31000001E-02   5.50207506E-06
  -1.30500002E-02   5.64893298E-06
  -1.30000003E-02   5.79591324E-06
  -1.29500004E-02   5.94393077E-06
  -1.29000004E-02   6.09562176E-06
  -1.28499996E-02   6.25425855E-06
  -1.27999997E-02   6.42238638E-06
  -1.27499998E-02   6.60071919E-06
  -1.26999998E-02   6.78781862E-06
  -1.26499999E-02   6.98073381E-06
  -1.26000000E-02   7.17631883E-06
  -1.25500001E-02   7.37268920E-06
  -1.25000002E-02   7.57014232E-06
  -1.24500003E-02   7.77113746E-06
  -1.24000004E-02   7.97932898E-06
  -1.23500004E-02   8.19803790E-06
  -1.22999996E-02   8.42880127E-06
  -1.22499997E-02   8.67069957E-06
  -1.21999998E-02   8.92076332E-06
  -1.21499998E-02   9.17528905E-06
  -1.20999999E-02   9.43150644E-06
  -1.20500000E-02   9.68888980E-06
  -1.20000001E-02   9.94951188E-06
  -1.19500002E-02   1.02172353E-05
  -1.19000003E-02   1.04960927E-05
  -1.18500004E-02   1.07885708E-05
  -1.18000004E-02   1.10945175E-05
  -1.17499996E-02   1.14111763E-05
  -1.16999997E-02   1.17344161E-05
  -1.16499998E-02   1.20606110E-05
  -1.15999999E-02   1.23883074E-05
  -1.15499999E-02   1.27189978E-05
  -1.15000000E-02   1.30566086E-05
  -1.14500001E-02   1.34058700E-05
  -1.14000002E-02   1.37703191E-05
  -1.13500003E-02   1.41507799E-05
  -1.13000004E-02   1.45449785E-05
  -1.12500004E-02   1.49485659E-05
  -1.11999996E-02   1.53570527E-05
  -1.11499997E-02   1.57678624E-05
  -1.10999998E-02   1.61816060E-05
  -1.10499999E-02   1.66019527E-05
  -1.09999999E-02   1.70341245E-05
  -1.09500000E-02   1.74827073E-05
  -1.09000001E-02   1.79497201E-05
  -1.08500002E-02   1.84337550E-05
  -1.08000003E-02   1.89306302E-05
  -1.07500004E-02   1.94352706E-05
  -1.07000005E-02   1.99440565E-05
  -1.06499996E-02   2.04566095E-05
  -1.05999997E-02   2.09761092E-05
  -1.05499998E-02   2.15080945E-05
  -1.04999999E-02   2.20581696E-05
  -1.04499999E-02   2.26296379E-05
  -1.04000000E-02   2.32221537E-05
  -1.03500001E-02   2.38318662E-05
  -1.03000002E-02   2.44531620E-05
  -1.02500003E-02   2.50813027E-05
  -1.02000004E-02   2.57146112E-05
  -1.01500005E-02   2.63554030E-05
  -1.00999996E-02   2.70091641E-05
  -1.00499997E-02   2.76823412E-05
  -9.99999978E-03   2.83796671E-05
  -9.94999986E-03   2.91021588E-05
  -9.89999995E-03   2.98467803E-05
  -9.85000003E-03   3.06078728E-05
  -9.80000012E-03   3.13797209E-05
  -9.75000020E-03   3.21593179E-05
  -9.70000029E-03   3.29479335E-05
  -9.65000037E-03   3.37507809E-05
  -9.60000046E-03   3.45749722E-05
  -9.54999961E-03   3.54266194E-05
  -9.49999969E-03   3.63083345E-05
  -9.44999978E-03   3.72182039E-05
  -9.39999986E-03   3.81507598E-05
  -9.34999995E-03   3.90995301E-05
  -9.30000003E-03   4.00600220E-05
  -9.25000012E-03   4.10319299E-05
  -9.20000020E-03   4.20195065E-05
  -9.15000029E-03   4.30300024E-05
  -9.10000037E-03   4.40706681E-05
  -9.05000046E-03   4.51457636E-05
  -8.99999961E-03   4.62548160E-05
  -8.94999970E-03   4.73929067E-05
  -8.89999978E-03   4.85529636E-05
  -8.84999987E-03   4.97291476E-05
  -8.79999995E-03   5.09196507E-05
  -8.75000004E-03   5.21276306E-05
  -8.70000012E-03   5.33602615E-05
  -8.65000021E-03   5.46259434E-05
  -8.60000029E-03   5.59307882E-05
  -8.55000038E-03   5.72761492E-05
  -8.50000046E-03   5.86582610E-05
  -8.44999962E-03   6.00700514E-05
  -8.39999970E-03   6.15043755E-05
  -8.34999979E-03   6.29575370E-05
  -8.29999987E-03   6.44311222E-05
  -8.24999996E-03   6.59317011E-05
  -8.20000004E-03   6.74682669E-05
  -8.15000013E-03   6.90484449E-05
  -8.10000021E-03   7.06753563E-05
  -8.05000030E-03   7.23464036E-05
  -8.00000038E-03   7.40546602E-05
  -7.95000046E-03   7.57920134E-05
  -7.89999962E-03   7.75528824E-05
  -7.84999970E-03   7.93369618E-05
  -7.79999979E-03   8.11496429E-05
  -7.74999987E-03   8.30000135E-05
  -7.69999996E-03   8.48970958E-05
  -7.65000004E-03   8.68461575E-05
  -7.60000013E-03   8.88467330E-05
  -7.55000021E-03   9.08929942E-05
  -7.49999983E-03   9.29764137E-05
  -7.44999992E-03   9.50899048E-05
  -7.40000000E-03   9.72313574E-05
  -7.35000009E-03   9.94047077E-05
  -7.30000017E-03   1.01618563E-04
  -7.24999979E-03   1.03882958E-04
  -7.19999988E-03   1.06205240E-04
  -7.14999996E-03   1.08587024E-04
  -7.10000005E-03   1.11023750E-04
  -7.05000013E-03   1.13506838E-04
  -7.00000022E-03   1.16027724E-04
  -6.94999984E-03   1.18581695E-04
  -6.89999992E-03   1.21170444E-04
  -6.85000001E-03   1.23801845E-04
  -6.80000009E-03   1.26486600E-04
  -6.75000018E-03   1.29233755E-04
  -6.69999979E-03   1.32047251E-04
  -6.64999988E-03   1.34924325E-04
  -6.59999996E-03   1.37857191E-04
  -6.55000005E-03   1.40836346E-04
  -6.50000013E-03   1.43855053E-04
  -6.45000022E-03   1.46912891E-04
  -6.39999984E-03   1.50016247E-04
  -6.34999992E-03   1.53176094E-04
  -6.30000001E-03   1.56403315E-04
  -6.25000009E-03   1.59704432E-04
  -6.20000018E-03   1.63079225E-04
  -6.14999980E-03   1.66520913E-04
  -6.09999988E-03   1.70019470E-04
  -6.04999997E-03   1.73566397E-04
  -6.00000005E-03   1.77158639E-04
  -5.95000014E-03   1.80800736E-04
  -5.90000022E-03   1.84502918E-04
  -5.84999984E-03   1.88277001E-04
  -5.79999993E-03   1.92131614E-04
  -5.75000001E-03   1.96069057E-04
  -5.70000010E-03   2.00084556E-04
  -5.65000018E-03   2.04167969E-04
  -5.59999980E-03   2.08308964E-04
  -5.54999989E-03   2.12501996E-04
  -5.49999997E-03   2.16749249E-04
  -5.45000006E-03   2.21059890E-04
  -5.40000014E-03   2.25446580E-04
  -5.35000023E-03   2.29920188E-04
  -5.29999984E-03   2.34485648E-04
  -5.24999993E-03   2.39140179E-04
  -5.20000001E-03   2.43874645E-04
  -5.15000010E-03   2.48678291E-04
  -5.10000018E-03   2.53543578E-04
  -5.04999980E-03   2.58469838E-04
  -4.99999989E-03   2.63464259E-04
  -4.94999997E-03   2.68539094E-04
  -4.90000006E-03   2.73707119E-04
  -4.85000014E-03   2.78975756E-04
  -4.80000023E-03   2.84344831E-04
  -4.74999985E-03   2.89806689E-04
  -4.69999993E-03   2.95349717E-04
  -4.65000002E-03   3.00964020E-04
  -4.60000010E-03   3.06645903E-04
  -4.55000019E-03   3.12399992E-04
  -4.49999981E-03   3.18237639E-04
  -4.44999989E-03   3.24172783E-04
  -4.39999998E-03   3.30215960E-04
  -4.35000006E-03   3.36369587E-04
  -4.30000015E-03   3.42627522E-04
  -4.25000023E-03   3.48978239E-04
  -4.19999985E-03   3.55410244E-04
  -4.14999994E-03   3.61917191E-04
  -4.10000002E-03   3.68501642E-04
  -4.05000011E-03   3.75174102E-04
  -4.00000019E-03   3.81948252E-04
  -3.94999981E-03   3.88836284E-04
  -3.89999989E-03   3.95843468E-04
  -3.84999998E-03   4.02966311E-04
  -3.80000006E-03   4.10194305E-04
  -3.74999992E-03   4.17514122E-04
  -3.70000000E-03   4.24917758E-04
  -3.65000009E-03   4.32405097E-04
  -3.59999994E-03   4.39983938E-04
  -3.55000002E-03   4.47667117E-04
  -3.50000011E-03   4.55467380E-04
  -3.44999996E-03   4.63392353E-04
  -3.40000005E-03   4.71441395E-04
  -3.34999990E-03   4.79605922E-04
  -3.29999998E-03   4.87872632E-04
  -3.25000007E-03   4.96230845E-04
  -3.19999992E-03   5.04676718E-04
  -3.15000000E-03   5.13214734E-04
  -3.10000009E-03   5.21857350E-04
  -3.04999994E-03   5.30618534E-04
  -3.00000003E-03   5.39508066E-04
  -2.95000011E-03   5.48528798E-04
  -2.89999996E-03   5.57674735E-04
  -2.85000005E-03   5.66933013E-04
  -2.79999990E-03   5.76290884E-04
  -2.74999999E-03   5.85741422E-04
  -2.70000007E-03   5.95285092E-04
  -2.64999992E-03   6.04931090E-04
  -2.60000001E-03   6.14693854E-04
  -2.55000009E-03   6.24586653E-04
  -2.49999994E-03   6.34615077E-04
  -2.45000003E-03   6.44775748E-04
  -2.40000011E-03   6.55056909E-04
  -2.34999997E-03   6.65443717E-04
  -2.30000005E-03   6.75925345E-04
  -2.24999990E-03   6.86499581E-04
  -2.19999999E-03   6.97173062E-04
  -2.15000007E-03   7.07959640E-04
  -2.09999993E-03   7.18874042E-04
  -2.05000001E-03   7.29923835E-04
  -2.00000009E-03   7.41108262E-04
  -1.94999995E-03   7.52416498E-04
  -1.90000003E-03   7.63833465E-04
  -1.85000000E-03   7.75346241E-04
  -1.79999997E-03   7.86948076E-04
  -1.75000005E-03   7.98644207E-04
  -1.70000002E-03   8.10447498E-04
  -1.64999999E-03   8.22373666E-04
  -1.59999996E-03   8.34433420E-04
  -1.55000004E-03   8.46627518E-04
  -1.50000001E-03   8.58947169E-04
  -1.44999998E-03   8.71377997E-04
  -1.39999995E-03   8.83904053E-04
  -1.35000004E-03   8.96515208E-04
  -1.30000000E-03   9.09212860E-04
  -1.24999997E-03   9.22007253E-04
  -1.20000006E-03   9.34912765E-04
  -1.15000003E-03   9.47942783E-04
  -1.09999999E-03   9.61102953E-04
  -1.04999996E-03   9.74384369E-04
  -1.00000005E-03   9.87772131E-04
  -9.50000016E-04   1.00125151E-03
  -8.99999985E-04   1.01480936E-03
  -8.50000011E-04   1.02844101E-03
  -7.99999980E-04   1.04215345E-03
  -7.50000007E-04   1.05596276E-03
  -6.99999975E-04   1.06988335E-03
  -6.50000002E-04   1.08392199E-03
  -6.00000028E-04   1.09807530E-03
  -5.49999997E-04   1.11232896E-03
  -5.00000024E-04   1.12666492E-03
  -4.49999992E-04   1.14106911E-03
  -3.99999990E-04   1.15553441E-03
  -3.49999988E-04   1.17006281E-03
  -3.00000014E-04   1.18466688E-03
  -2.50000012E-04   1.19936233E-03
  -1.99999995E-04   1.21415756E-03
  -1.50000007E-04   1.22905069E-03
  -9.99999975E-05   1.24403159E-03
  -4.99999987E-05   1.25908188E-03
   0.00000000       1.27418491E-03
   4.99999987E-05   1.28932938E-03
   9.99999975E-05   1.30451319E-03
   1.50000007E-04   1.31974684E-03
   1.99999995E-04   1.33504649E-03
   2.50000012E-04   1.35042437E-03
   3.00000014E-04   1.36587943E-03
   3.49999988E-04   1.38139923E-03
   3.99999990E-04   1.39696361E-03
   4.49999992E-04   1.41255441E-03
   5.00000024E-04   1.42816047E-03
   5.49999997E-04   1.44377735E-03
   6.00000028E-04   1.45941472E-03
   6.50000002E-04   1.47508935E-03
   6.99999975E-04   1.49081356E-03
   7.50000007E-04   1.50658854E-03
   7.99999980E-04   1.52239995E-03
   8.50000011E-04   1.53822778E-03
   8.99999985E-04   1.55405118E-03
   9.50000016E-04   1.56985410E-03
   1.00000005E-03   1.58563268E-03
   1.04999996E-03   1.60139683E-03
   1.09999999E-03   1.61716074E-03
   1.15000003E-03   1.63293420E-03
   1.20000006E-03   1.64871919E-03
   1.24999997E-03   1.66450522E-03
   1.30000000E-03   1.68027286E-03
   1.35000004E-03   1.69599999E-03
   1.39999995E-03   1.71166810E-03
   1.44999998E-03   1.72726961E-03
   1.50000001E-03   1.74281001E-03
   1.55000004E-03   1.75830501E-03
   1.59999996E-03   1.77376345E-03
   1.64999999E-03   1.78918510E-03
   1.70000002E-03   1.80455996E-03
   1.75000005E-03   1.81986915E-03
   1.79999997E-03   1.83509116E-03
   1.85000000E-03   1.85020803E-03
   1.90000003E-03   1.86521898E-03
   1.94999995E-03   1.88013120E-03
   2.00000009E-03   1.89494691E-03
   2.05000001E-03   1.90966600E-03
   2.09999993E-03   1.92428427E-03
   2.15000007E-03   1.93879614E-03
   2.19999999E-03   1.95318996E-03
   2.24999990E-03   1.96745060E-03
   2.30000005E-03   1.98156224E-03
   2.34999997E-03   1.99551019E-03
   2.40000011E-03   2.00929330E-03
   2.45000003E-03   2.02291459E-03
   2.49999994E-03   2.03637476E-03
   2.55000009E-03   2.04967032E-03
   2.60000001E-03   2.06280011E-03
   2.64999992E-03   2.07575317E-03
   2.70000007E-03   2.08850531E-03
   2.74999999E-03   2.10104417E-03
   2.79999990E-03   2.11336580E-03