  -3.99999991E-02   0.00000000    
  -3.99499983E-02   0.00000000    
  -3.99000011E-02   0.00000000    
  -3.98500003E-02   0.00000000    
  -3.97999994E-02   0.00000000    
  -3.97499986E-02   1.60418999E-23
  -3.97000015E-02   1.41712425E-22
  -3.96500006E-02   6.49789903E-22
  -3.95999998E-02   2.02842397E-21
  -3.95499989E-02   4.74467891E-21
  -3.95000018E-02   8.56011250E-21
  -3.94500010E-02   1.14943475E-20
  -3.94000001E-02   8.98756212E-21
  -3.93499993E-02  -5.82637064E-21
  -3.92999984E-02  -3.99537639E-20
  -3.92500013E-02  -9.65664089E-20
  -3.92000005E-02  -1.70703324E-19
  -3.91499996E-02  -2.47309736E-19
  -3.90999988E-02  -3.04199470E-19
  -3.90500017E-02  -3.20577517E-19
  -3.90000008E-02  -2.88406188E-19
  -3.89500000E-02  -2.20854794E-19
  -3.88999991E-02  -1.51551612E-19
  -3.88499983E-02  -1.21648335E-19
  -3.88000011E-02  -1.57996215E-19
  -3.87500003E-02  -2.52023735E-19
  -3.86999995E-02  -3.51386479E-19
  -3.86499986E-02  -3.72631166E-19
  -3.86000015E-02  -2.33525469E-19
  -3.85500006E-02   1.07713708E-19
  -3.84999998E-02   6.26369129E-19
  -3.84499989E-02   1.23642202E-18
  -3.84000018E-02   1.83238559E-18
  -3.83500010E-02   2.35408654E-18
  -3.83000001E-02   2.84445968E-18
  -3.82499993E-02   3.46691516E-18
  -3.81999984E-02   4.46313530E-18
  -3.81500013E-02   6.06003725E-18
  -3.81000005E-02   8.36342713E-18
  -3.80499996E-02   1.12899921E-17
  -3.79999988E-02   1.45787340E-17
  -3.79500017E-02   1.78893276E-17
  -3.79000008E-02   2.09520515E-17
  -3.78500000E-02   2.37024452E-17
  -3.77999991E-02   2.63312599E-17
  -3.77499983E-02   2.92126311E-17
  -3.77000012E-02   3.27291910E-17
  -3.76500003E-02   3.70672040E-17
  -3.75999995E-02   4.20790583E-17
  -3.75499986E-02   4.72881455E-17
  -3.75000015E-02   5.20482853E-17
  -3.74500006E-02   5.57944308E-17
  -3.73999998E-02   5.82712875E-17
  -3.73499990E-02   5.96287240E-17
  -3.73000018E-02   6.03293658E-17
  -3.72500010E-02   6.09001403E-17
  -3.72000001E-02   6.16341539E-17
  -3.71499993E-02   6.23766378E-17
  -3.70999984E-02   6.24932504E-17
  -3.70500013E-02   6.10366515E-17
  -3.70000005E-02   5.70372399E-17
  -3.69499996E-02   4.97907705E-17
  -3.68999988E-02   3.90257526E-17
  -3.68500017E-02   2.48996303E-17
  -3.68000008E-02   7.85630255E-18
  -3.67500000E-02  -1.15680820E-17
  -3.66999991E-02  -3.29060984E-17
  -3.66499983E-02  -5.58501762E-17
  -3.66000012E-02  -8.02932772E-17
  -3.65500003E-02  -1.06359710E-16
  -3.64999995E-02  -1.34437192E-16
  -3.64499986E-02  -1.65164490E-16
  -3.64000015E-02  -1.99293168E-16
  -3.63500006E-02  -2.37374419E-16
  -3.62999998E-02  -2.79327749E-16
  -3.62499990E-02  -3.24079597E-16
  -3.62000018E-02  -3.69528579E-16
  -3.61500010E-02  -4.13019221E-16
  -3.61000001E-02  -4.52273613E-16
  -3.60499993E-02  -4.86431963E-16
  -3.59999985E-02  -5.16649917E-16
  -3.59500013E-02  -5.45760851E-16
  -3.59000005E-02  -5.76885077E-16
  -3.58499996E-02  -6.11430733E-16
  -3.57999988E-02  -6.47414598E-16
  -3.57500017E-02  -6.79127830E-16
  -3.57000008E-02  -6.98722243E-16
  -3.56500000E-02  -6.99399022E-16
  -3.55999991E-02  -6.78919777E-16
  -3.55499983E-02  -6.41641910E-16
  -3.55000012E-02  -5.97607367E-16
  -3.54500003E-02  -5.58414517E-16
  -3.53999995E-02  -5.31249694E-16
  -3.53499986E-02  -5.13763652E-16
  -3.53000015E-02  -4.92670361E-16
  -3.52500007E-02  -4.47663689E-16
  -3.51999998E-02  -3.59845378E-16
  -3.51499990E-02  -2.21355729E-16
  -3.51000018E-02  -4.15849833E-17
  -3.50500010E-02   1.53862211E-16
  -3.50000001E-02   3.32365088E-16
  -3.49499993E-02   4.68616955E-16
  -3.48999985E-02   5.57898092E-16
  -3.48500013E-02   6.21493379E-16
  -3.48000005E-02   7.00171357E-16
  -3.47499996E-02   8.36906827E-16
  -3.46999988E-02   1.05561915E-15
  -3.46500017E-02   1.34584557E-15
  -3.46000008E-02   1.66195445E-15
  -3.45500000E-02   1.93965463E-15
  -3.44999991E-02   2.12437324E-15
  -3.44499983E-02   2.19929140E-15
  -3.44000012E-02   2.19906927E-15
  -3.43500003E-02   2.20024071E-15
  -3.42999995E-02   2.28944091E-15
  -3.42499986E-02   2.52181169E-15
  -3.42000015E-02   2.88864641E-15
  -3.41500007E-02   3.31159940E-15
  -3.40999998E-02   3.67020731E-15
  -3.40499990E-02   3.85400076E-15
  -3.40000018E-02   3.81711459E-15
  -3.39500010E-02   3.60895370E-15
  -3.39000002E-02   3.36255118E-15
  -3.38499993E-02   3.24052253E-15
  -3.37999985E-02   3.35932293E-15
  -3.37500013E-02   3.72594716E-15
  -3.37000005E-02   4.21968563E-15
  -3.36499996E-02   4.63380936E-15
  -3.35999988E-02   4.76470475E-15
  -3.35500017E-02   4.51117508E-15
  -3.35000008E-02   3.93684439E-15
  -3.34500000E-02   3.26059340E-15
  -3.33999991E-02   2.77052386E-15
  -3.33499983E-02   2.69359040E-15
  -3.33000012E-02   3.07851139E-15
  -3.32500003E-02   3.75018078E-15
  -3.31999995E-02   4.36618718E-15
  -3.31499986E-02   4.56031146E-15
  -3.31000015E-02   4.11406952E-15
  -3.30500007E-02   3.07699816E-15
  -3.29999998E-02   1.77200150E-15
  -3.29499990E-02   6.70241872E-16
  -3.29000019E-02   1.81151866E-16
  -3.28500010E-02   4.49027306E-16
  -3.28000002E-02   1.25456718E-15
  -3.27499993E-02   2.07994044E-15
  -3.26999985E-02   2.32369640E-15
  -3.26500013E-02   1.57839688E-15
  -3.26000005E-02  -1.55498706E-16
  -3.25499997E-02  -2.42863447E-15
  -3.24999988E-02  -4.51224361E-15
  -3.24500017E-02  -5.71872134E-15
  -3.24000008E-02  -5.73542145E-15
  -3.23500000E-02  -4.81349639E-15
  -3.22999991E-02  -3.70697447E-15
  -3.22499983E-02  -3.36615213E-15
  -3.22000012E-02  -4.50713473E-15
  -3.21500003E-02  -7.25038180E-15
  -3.20999995E-02  -1.10069543E-14
  -3.20499986E-02  -1.46902686E-14
  -3.20000015E-02  -1.71835050E-14
  -3.19500007E-02  -1.78644043E-14
  -3.18999998E-02  -1.69433254E-14
  -3.18499990E-02  -1.54364470E-14
  -3.18000019E-02  -1.47530795E-14
  -3.17500010E-02  -1.60575322E-14
  -3.17000002E-02  -1.96877494E-14
  -3.16499993E-02  -2.49115710E-14
  -3.15999985E-02  -3.01666278E-14
  -3.15500014E-02  -3.37137273E-14
  -3.15000005E-02  -3.44315132E-14
  -3.14499997E-02  -3.23894693E-14
  -3.13999988E-02  -2.89095801E-14
  -3.13500017E-02  -2.60436644E-14
  -3.13000008E-02  -2.56631400E-14
  -3.12500000E-02  -2.85574414E-14
  -3.11999992E-02  -3.39664887E-14
  -3.11500002E-02  -3.98030675E-14
  -3.10999993E-02  -4.35169275E-14
  -3.10500003E-02  -4.32461989E-14
  -3.09999995E-02  -3.87377169E-14
  -3.09500005E-02  -3.15851335E-14
  -3.08999997E-02  -2.46187924E-14
  -3.08500007E-02  -2.06671685E-14
  -3.07999998E-02  -2.12224833E-14
  -3.07500008E-02  -2.56296178E-14
  -3.07000000E-02  -3.12195880E-14
  -3.06499992E-02  -3.43977234E-14
  -3.06000002E-02  -3.22494716E-14
  -3.05499993E-02  -2.39507612E-14
  -3.05000003E-02  -1.13079737E-14
  -3.04499995E-02   1.89008224E-15
  -3.04000005E-02   1.14927616E-14
  -3.03499997E-02   1.48943730E-14
  -3.03000007E-02   1.23567284E-14
  -3.02499998E-02   7.08736184E-15
  -3.02000009E-02   3.94763771E-15
  -3.01500000E-02   7.29631978E-15
  -3.00999992E-02   1.89138679E-14
  -3.00500002E-02   3.69815906E-14
  -2.99999993E-02   5.66655182E-14
  -2.99500003E-02   7.21443372E-14
  -2.98999995E-02   7.92361782E-14
  -2.98500005E-02   7.74419455E-14
  -2.97999997E-02   7.04141267E-14
  -2.97500007E-02   6.45262720E-14
  -2.96999998E-02   6.60805503E-14
  -2.96500009E-02   7.83602173E-14
  -2.96000000E-02   9.98858995E-14
  -2.95499992E-02   1.24764429E-13
  -2.95000002E-02   1.45105024E-13
  -2.94499993E-02   1.54516157E-13
  -2.94000003E-02   1.51131386E-13
  -2.93499995E-02   1.38732450E-13
  -2.93000005E-02   1.25329326E-13
  -2.92499997E-02   1.19695879E-13
  -2.92000007E-02   1.27337377E-13
  -2.91499998E-02   1.47721692E-13
  -2.91000009E-02   1.74132396E-13
  -2.90500000E-02   1.96371822E-13
  -2.89999992E-02   2.05237235E-13
  -2.89500002E-02   1.96807848E-13
  -2.88999993E-02   1.74550573E-13
  -2.88500004E-02   1.48141387E-13
  -2.87999995E-02   1.29351689E-13
  -2.87500005E-02   1.26724911E-13
  -2.86999997E-02   1.41427844E-13
  -2.86500007E-02   1.66258012E-13
  -2.85999998E-02   1.88446765E-13
  -2.85500009E-02   1.95184404E-13
  -2.85000000E-02   1.79477825E-13
  -2.84499992E-02   1.43663049E-13
  -2.84000002E-02   9.88241539E-14
  -2.83499993E-02   6.01580214E-14
  -2.83000004E-02   4.01922690E-14
  -2.82499995E-02   4.28572617E-14
  -2.82000005E-02   6.11852826E-14
  -2.81499997E-02   7.98936790E-14
  -2.81000007E-02   8.19320604E-14
  -2.80499998E-02   5.62022454E-14
  -2.80000009E-02   2.97050664E-15
  -2.79500000E-02  -6.56348822E-14
  -2.78999992E-02  -1.30531274E-13
  -2.78500002E-02  -1.74030793E-13
  -2.77999993E-02  -1.87986047E-13
  -2.77500004E-02  -1.77990069E-13
  -2.76999995E-02  -1.61501631E-13
  -2.76500005E-02  -1.60440061E-13
  -2.75999997E-02  -1.91353850E-13
  -2.75500007E-02  -2.57535692E-13
  -2.74999999E-02  -3.46788543E-13
  -2.74500009E-02  -4.36147402E-13
  -2.74000000E-02  -5.01746810E-13
  -2.73499992E-02  -5.29580665E-13
  -2.73000002E-02  -5.22282413E-13
  -2.72499993E-02  -4.98632114E-13
  -2.72000004E-02  -4.85657304E-13
  -2.71499995E-02  -5.06572106E-13
  -2.71000005E-02  -5.69854710E-13
  -2.70499997E-02  -6.64503934E-13
  -2.70000007E-02  -7.63936494E-13
  -2.69499999E-02  -8.37164539E-13
  -2.69000009E-02  -8.62508849E-13
  -2.68500000E-02  -8.37721440E-13
  -2.67999992E-02  -7.81738227E-13
  -2.67500002E-02  -7.26871905E-13
  -2.66999993E-02  -7.04553495E-13
  -2.66500004E-02  -7.30812925E-13
  -2.65999995E-02  -7.98096615E-13
  -2.65500005E-02  -8.77437012E-13
  -2.64999997E-02  -9.30466966E-13
  -2.64500007E-02  -9.26265466E-13
  -2.63999999E-02  -8.55597548E-13
  -2.63500009E-02  -7.35958874E-13
  -2.63000000E-02  -6.04714195E-13
  -2.62499992E-02  -5.02913629E-13
  -2.62000002E-02  -4.56717726E-13
  -2.61499994E-02  -4.64763807E-13
  -2.61000004E-02  -4.97476572E-13
  -2.60499995E-02  -5.09170885E-13
  -2.60000005E-02  -4.58025436E-13
  -2.59499997E-02  -3.25216525E-13
  -2.59000007E-02  -1.24499301E-13
  -2.58499999E-02   1.02523370E-13
  -2.58000009E-02   3.03922089E-13
  -2.57500000E-02   4.40364406E-13
  -2.56999992E-02   5.03286215E-13
  -2.56500002E-02   5.19872665E-13
  -2.55999994E-02   5.42028228E-13
  -2.55500004E-02   6.23646805E-13
  -2.54999995E-02   7.95979602E-13
  -2.54500005E-02   1.05217332E-12
  -2.53999997E-02   1.34836933E-12
  -2.53500007E-02   1.62156486E-12
  -2.52999999E-02   1.81686046E-12
  -2.52500009E-02   1.91215988E-12
  -2.52000000E-02   1.92904221E-12
  -2.51499992E-02   1.92431531E-12
  -2.51000002E-02   1.96527321E-12
  -2.50499994E-02   2.09917088E-12
  -2.50000004E-02   2.33048953E-12
  -2.49499995E-02   2.61658447E-12
  -2.49000005E-02   2.88444572E-12
  -2.48499997E-02   3.06185546E-12
  -2.48000007E-02   3.10945172E-12
  -2.47499999E-02   3.03924984E-12
  -2.47000009E-02   2.91070965E-12
  -2.46500000E-02   2.80522459E-12
  -2.45999992E-02   2.78969729E-12
  -2.45500002E-02   2.88522353E-12
  -2.44999994E-02   3.05523987E-12
  -2.44500004E-02   3.21927142E-12
  -2.43999995E-02   3.28709586E-12
  -2.43500005E-02   3.19871018E-12
  -2.42999997E-02   2.95229249E-12
  -2.42500007E-02   2.60706062E-12
  -2.41999999E-02   2.25875525E-12
  -2.41500009E-02   1.99773921E-12
  -2.41000000E-02   1.86794850E-12
  -2.40499992E-02   1.84525051E-12
  -2.40000002E-02   1.84573537E-12
  -2.39499994E-02   1.76135484E-12
  -2.39000004E-02   1.50789266E-12
  -2.38499995E-02   1.06409640E-12
  -2.38000005E-02   4.83984760E-13
  -2.37499997E-02  -1.24246018E-13
  -2.37000007E-02  -6.44472377E-13
  -2.36499999E-02  -1.00414208E-12
  -2.36000009E-02  -1.20799161E-12
  -2.35500000E-02  -1.33810237E-12
  -2.34999992E-02  -1.51900356E-12
  -2.34500002E-02  -1.86224430E-12
  -2.33999994E-02  -2.41466894E-12
  -2.33500004E-02  -3.13385190E-12
  -2.32999995E-02  -3.90278782E-12
  -2.32500006E-02  -4.57866991E-12
  -2.31999997E-02  -5.05502758E-12
  -2.31500007E-02  -5.30971447E-12
  -2.30999999E-02  -5.41659599E-12
  -2.30500009E-02  -5.51435633E-12
  -2.30000000E-02  -5.74493534E-12
  -2.29499992E-02  -6.18825867E-12
  -2.29000002E-02  -6.82255554E-12
  -2.28499994E-02  -7.52908933E-12
  -2.28000004E-02  -8.14076584E-12
  -2.27499995E-02  -8.51428823E-12
  -2.27000006E-02  -8.59418266E-12
  -2.26499997E-02  -8.43954594E-12
  -2.26000007E-02  -8.20014803E-12
  -2.25499999E-02  -8.05088374E-12
  -2.25000009E-02  -8.11265031E-12
  -2.24500000E-02  -8.39485426E-12
  -2.23999992E-02  -8.78622609E-12
  -2.23500002E-02  -9.09976781E-12
  -2.22999994E-02  -9.15347832E-12
  -2.22500004E-02  -8.85172231E-12
  -2.21999995E-02  -8.23060543E-12
  -2.21500006E-02  -7.44570031E-12
  -2.20999997E-02  -6.70568982E-12
  -2.20500007E-02  -6.18000442E-12
  -2.19999999E-02  -5.92120320E-12
  -2.19500009E-02  -5.83757478E-12
  -2.19000001E-02  -5.72999027E-12
  -2.18499992E-02  -5.37856521E-12
  -2.18000002E-02  -4.64173144E-12
  -2.17499994E-02  -3.52350636E-12
  -2.17000004E-02  -2.17760185E-12
  -2.16499995E-02  -8.44439807E-13
  -2.16000006E-02   2.52738802E-13
  -2.15499997E-02   1.00721135E-12
  -2.15000007E-02   1.47866485E-12
  -2.14499999E-02   1.86957871E-12
  -2.14000009E-02   2.43638508E-12
  -2.13500001E-02   3.37334544E-12
  -2.12999992E-02   4.72058807E-12
  -2.12500002E-02   6.33849527E-12
  -2.11999994E-02   7.96207024E-12
  -2.11500004E-02   9.31331574E-12
  -2.10999995E-02   1.02228183E-11
  -2.10500006E-02   1.07060879E-11
  -2.09999997E-02   1.09588900E-11
  -2.09500007E-02   1.12711984E-11
  -2.08999999E-02   1.18960649E-11
  -2.08500009E-02   1.29311015E-11
  -2.08000001E-02   1.42663572E-11
  -2.07499992E-02   1.56241044E-11
  -2.07000002E-02   1.66753781E-11
  -2.06499994E-02   1.71831386E-11
  -2.06000004E-02   1.71084119E-11
  -2.05499995E-02   1.66305424E-11
  -2.05000006E-02   1.60699735E-11
  -2.04499997E-02   1.57454657E-11
  -2.04000007E-02   1.58281895E-11
  -2.03499999E-02   1.62582690E-11
  -2.03000009E-02   1.67631829E-11
  -2.02500001E-02   1.69726733E-11
  -2.01999992E-02   1.65811982E-11
  -2.01500002E-02   1.54861748E-11
  -2.00999994E-02   1.38391590E-11
  -2.00500004E-02   1.19844785E-11
  -1.99999996E-02   1.03098476E-11
  -1.99500006E-02   9.07377298E-12
  -1.98999997E-02   8.28675236E-12
  -1.98500007E-02   7.70125717E-12
  -1.97999999E-02   6.91792370E-12
  -1.97500009E-02   5.56336054E-12
  -1.97000001E-02   3.46150626E-12
  -1.96499992E-02   7.21293739E-13
  -1.96000002E-02  -2.30103198E-12
  -1.95499994E-02  -5.15128478E-12
  -1.95000004E-02  -7.47416538E-12
  -1.94499996E-02  -9.17025917E-12
  -1.94000006E-02  -1.04415990E-11
  -1.93499997E-02  -1.17024498E-11
  -1.93000007E-02  -1.33920279E-11
  -1.92499999E-02  -1.57708898E-11
  -1.92000009E-02  -1.87921675E-11
  -1.91500001E-02  -2.21074339E-11
  -1.90999992E-02  -2.52079989E-11
  -1.90500002E-02  -2.76414256E-11
  -1.89999994E-02  -2.92079243E-11
  -1.89500004E-02  -3.00478011E-11
  -1.88999996E-02  -3.05781199E-11
  -1.88500006E-02  -3.13033627E-11
  -1.87999997E-02  -3.25822598E-11
  -1.87500007E-02  -3.44545469E-11
  -1.86999999E-02  -3.66069570E-11
  -1.86500009E-02  -3.84970909E-11
  -1.86000001E-02  -3.95832429E-11
  -1.85499992E-02  -3.95595084E-11
  -1.85000002E-02  -3.84906655E-11
  -1.84499994E-02  -3.67840654E-11
  -1.84000004E-02  -3.50075004E-11
  -1.83499996E-02  -3.36313824E-11
  -1.83000006E-02  -3.28094739E-11
  -1.82499997E-02  -3.22974911E-11
  -1.82000007E-02  -3.15493291E-11
  -1.81499999E-02  -2.99516870E-11
  -1.81000009E-02  -2.70948455E-11
  -1.80500001E-02  -2.29588484E-11
  -1.79999992E-02  -1.79298104E-11
  -1.79500002E-02  -1.26353207E-11
  -1.78999994E-02  -7.66915090E-12
  -1.78500004E-02  -3.32633985E-12
  -1.77999996E-02   5.31972578E-13
  -1.77500006E-02   4.42075673E-12
  -1.76999997E-02   9.00206125E-12
  -1.76500008E-02   1.47840143E-11
  -1.75999999E-02   2.18814116E-11
  -1.75500009E-02   2.99464342E-11
  -1.75000001E-02   3.83041342E-11
  -1.74499992E-02   4.62358485E-11
  -1.74000002E-02   5.32862747E-11
  -1.73499994E-02   5.94571892E-11
  -1.73000004E-02   6.51983537E-11
  -1.72499996E-02   7.11959935E-11
  -1.72000006E-02   7.80494558E-11
  -1.71499997E-02   8.59793764E-11
  -1.71000008E-02   9.46983186E-11
  -1.70499999E-02   1.03505392E-10
  -1.70000009E-02   1.11566444E-10
  -1.69500001E-02   1.18258028E-10
  -1.68999992E-02   1.23421565E-10
  -1.68500002E-02   1.27412955E-10
  -1.67999994E-02   1.30921191E-10
  -1.67500004E-02   1.34633013E-10
  -1.66999996E-02   1.38891648E-10
  -1.66500006E-02   1.43502224E-10
  -1.65999997E-02   1.47773696E-10
  -1.65500008E-02   1.50783219E-10
  -1.64999999E-02   1.51747698E-10
  -1.64500009E-02   1.50338839E-10
  -1.64000001E-02   1.46798948E-10
  -1.63499992E-02   1.41802764E-10
  -1.63000003E-02   1.36122405E-10
  -1.62499994E-02   1.30242983E-10
  -1.62000004E-02   1.24099689E-10
  -1.61499996E-02   1.17056378E-10
  -1.61000006E-02   1.08139858E-10
  -1.60499997E-02   9.64289551E-11
  -1.60000008E-02   8.14262130E-11
  -1.59499999E-02   6.32465746E-11
  -1.59000009E-02   4.25350727E-11
  -1.58500001E-02   2.01465667E-11
  -1.57999992E-02  -3.27330437E-12
  -1.57500003E-02  -2.76190494E-11
  -1.56999994E-02  -5.34193037E-11
  -1.56500004E-02  -8.16467588E-11
  -1.55999996E-02  -1.13326723E-10
  -1.55499997E-02  -1.49114207E-10
  -1.54999997E-02  -1.89029570E-10
  -1.54499998E-02  -2.32473096E-10
  -1.53999999E-02  -2.78516210E-10
  -1.53500000E-02  -3.26342953E-10
  -1.53000001E-02  -3.75645709E-10
  -1.52500002E-02  -4.26799041E-10
  -1.52000003E-02  -4.80727624E-10
  -1.51500003E-02  -5.38526557E-10
  -1.51000004E-02  -6.00997530E-10
  -1.50499996E-02  -6.68308464E-10
  -1.49999997E-02  -7.39930617E-10
  -1.49499997E-02  -8.14885215E-10
  -1.48999998E-02  -8.92192764E-10
  -1.48499999E-02  -9.71327907E-10
  -1.48000000E-02  -1.05247555E-09
  -1.47500001E-02  -1.13647147E-09
  -1.47000002E-02  -1.22444932E-09
  -1.46500003E-02  -1.31734934E-09
  -1.46000003E-02  -1.41550383E-09
  -1.45500004E-02  -1.51849089E-09
  -1.44999996E-02  -1.62531966E-09
  -1.44499997E-02  -1.73487447E-09
  -1.43999998E-02  -1.84641724E-09
  -1.43499998E-02  -1.95992822E-09
  -1.42999999E-02  -2.07612749E-09
  -1.42500000E-02  -2.19616725E-09
  -1.42000001E-02  -2.32112551E-09
  -1.41500002E-02  -2.45152676E-09
  -1.41000003E-02  -2.58710386E-09
  -1.40500003E-02  -2.72691314E-09
  -1.40000004E-02  -2.86975088E-09
  -1.39499996E-02  -3.01469272E-09
  -1.38999997E-02  -3.16151483E-09
  -1.38499998E-02  -3.31080718E-09
  -1.37999998E-02  -3.46372486E-09
  -1.37499999E-02  -3.62148422E-09
  -1.37000000E-02  -3.78482934E-09
  -1.36500001E-02  -3.95370181E-09
  -1.36000002E-02  -4.12726786E-09
  -1.35500003E-02  -4.30429870E-09
  -1.35000004E-02  -4.48372761E-09
  -1.34500004E-02  -4.66514427E-09
  -1.33999996E-02  -4.84900564E-09
  -1.33499997E-02  -5.03646014E-09
  -1.32999998E-02  -5.22886356E-09
  -1.32499998E-02  -5.42720269E-09
  -1.31999999E-02  -5.63167823E-09
  -1.31500000E-02  -5.84163873E-09
  -1.31000001E-02  -6.05590023E-09
  -1.30500002E-02  -6.27330410E-09
  -1.30000003E-02  -6.49328369E-09
  -1.29500004E-02  -6.71616052E-09
  -1.29000004E-02  -6.94306124E-09
  -1.28499996E-02  -7.17547533E-09
  -1.27999997E-02  -7.41464268E-09
  -1.27499998E-02  -7.66105934E-09
  -1.26999998E-02  -7.91431098E-09
  -1.26499999E-02  -8.17332158E-09
  -1.26000000E-02  -8.43689207E-09
  -1.25500001E-02  -8.70431904E-09
  -1.25000002E-02  -8.97579078E-09
  -1.24500003E-02  -9.25239441E-09
  -1.24000004E-02  -9.53572687E-09
  -1.23500004E-02  -9.82728032E-09
  -1.22999996E-02  -1.01278657E-08
  -1.22499997E-02  -1.04373532E-08
  -1.21999998E-02  -1.07548255E-08
  -1.21499998E-02  -1.10790985E-08
  -1.20999999E-02  -1.14093535E-08
  -1.20500000E-02  -1.17456311E-08
  -1.20000001E-02  -1.20889441E-08
  -1.19500002E-02  -1.24409576E-08
  -1.19000003E-02  -1.28033788E-08
  -1.18500004E-02  -1.31773294E-08
  -1.18000004E-02  -1.35629836E-08
  -1.17499996E-02  -1.39596201E-08
  -1.16999997E-02  -1.43660976E-08
  -1.16499998E-02  -1.47815067E-08
  -1.15999999E-02  -1.52057389E-08
  -1.15499999E-02  -1.56397011E-08
  -1.15000000E-02  -1.60850782E-08
  -1.14500001E-02  -1.65437584E-08
  -1.14000002E-02  -1.70171592E-08
  -1.13500003E-02  -1.75057657E-08
  -1.13000004E-02  -1.80090804E-08
  -1.12500004E-02  -1.85260340E-08
  -1.11999996E-02  -1.90556353E-08
  -1.11499997E-02  -1.95976089E-08
  -1.10999998E-02  -2.01527133E-08
  -1.10499999E-02  -2.07225987E-08
  -1.09999999E-02  -2.13092797E-08
  -1.09500000E-02  -2.19144347E-08
  -1.09000001E-02  -2.25388543E-08
  -1.08500002E-02  -2.31822916E-08
  -1.08000003E-02  -2.38437945E-08
  -1.07500004E-02  -2.45223326E-08
  -1.07000005E-02  -2.52174761E-08
  -1.06499996E-02  -2.59298254E-08
  -1.05999997E-02  -2.66609685E-08
  -1.05499998E-02  -2.74130034E-08
  -1.04999999E-02  -2.81878432E-08
  -1.04499999E-02  -2.89865731E-08
  -1.04000000E-02  -2.98092395E-08
  -1.03500001E-02  -3.06550305E-08
  -1.03000002E-02  -3.15229052E-08
  -1.02500003E-02  -3.24123093E-08
  -1.02000004E-02  -3.33236763E-08
  -1.01500005E-02  -3.42584840E-08
  -1.00999996E-02  -3.52188962E-08
  -1.00499997E-02  -3.62070267E-08
  -9.99999978E-03  -3.72242859E-08
  -9.94999986E-03  -3.82710219E-08
  -9.89999995E-03  -3.93466415E-08
  -9.85000003E-03  -4.04501570E-08
  -9.80000012E-03  -4.15809325E-08
  -9.75000020E-03  -4.27392663E-08
  -9.70000029E-03  -4.39265690E-08
  -9.65000037E-03  -4.51450397E-08
  -9.60000046E-03  -4.63970196E-08
  -9.54999961E-03  -4.76842565E-08
  -9.49999969E-03  -4.90074790E-08
  -9.44999978E-03  -5.03663564E-08
  -9.39999986E-03  -5.17600611E-08
  -9.34999995E-03  -5.31879607E-08
  -9.30000003E-03  -5.46502577E-08
  -9.25000012E-03  -5.61483127E-08
  -9.20000020E-03  -5.76843640E-08
  -9.15000029E-03  -5.92609588E-08
  -9.10000037E-03  -6.08801898E-08
  -9.05000046E-03  -6.25431724E-08
  -8.99999961E-03  -6.42499316E-08
  -8.94999970E-03  -6.59998634E-08
  -8.89999978E-03  -6.77923921E-08
  -8.84999987E-03  -6.96277169E-08
  -8.79999995E-03  -7.15071451E-08
  -8.75000004E-03  -7.34330001E-08
  -8.70000012E-03  -7.54080460E-08
  -8.65000021E-03  -7.74347413E-08
  -8.60000029E-03  -7.95146704E-08
  -8.55000038E-03  -8.16483023E-08
  -8.50000046E-03  -8.38353458E-08
  -8.44999962E-03  -8.60753815E-08
  -8.39999970E-03  -8.83686795E-08
  -8.34999979E-03  -9.07165330E-08
  -8.29999987E-03  -9.31213791E-08
  -8.24999996E-03  -9.55862518E-08
  -8.20000004E-03  -9.81139863E-08
  -8.15000013E-03  -1.00706657E-07
  -8.10000021E-03  -1.03365217E-07
  -8.05000030E-03  -1.06089729E-07
  -8.00000038E-03  -1.08880023E-07
  -7.95000046E-03  -1.11736448E-07
  -7.89999962E-03  -1.14660374E-07
  -7.84999970E-03  -1.17654288E-07
  -7.79999979E-03  -1.20721438E-07
  -7.74999987E-03  -1.23865078E-07
  -7.69999996E-03  -1.27087759E-07
  -7.65000004E-03  -1.30390958E-07
  -7.60000013E-03  -1.33775188E-07
  -7.55000021E-03  -1.37240562E-07
  -7.49999983E-03  -1.40787591E-07
  -7.44999992E-03  -1.44417697E-07
  -7.40000000E-03  -1.48133495E-07
  -7.35000009E-03  -1.51938480E-07
  -7.30000017E-03  -1.55836261E-07
  -7.24999979E-03  -1.59829909E-07
  -7.19999988E-03  -1.63921428E-07
  -7.14999996E-03  -1.68111825E-07
  -7.10000005E-03  -1.72401556E-07
  -7.05000013E-03  -1.76791303E-07
  -7.00000022E-03  -1.81282644E-07
  -6.94999984E-03  -1.85878292E-07
  -6.89999992E-03  -1.90581986E-07
  -6.85000001E-03  -1.95397661E-07
  -6.80000009E-03  -2.00328842E-07
  -6.75000018E-03  -2.05378143E-07
  -6.69999979E-03  -2.10547014E-07
  -6.64999988E-03  -2.15836309E-07
  -6.59999996E-03  -2.21246992E-07
  -6.55000005E-03  -2.26780770E-07
  -6.50000013E-03  -2.32440442E-07
  -6.45000022E-03  -2.38229887E-07
  -6.39999984E-03  -2.44153313E-07
  -6.34999992E-03  -2.50214839E-07
  -6.30000001E-03  -2.56417508E-07
  -6.25000009E-03  -2.62763422E-07
  -6.20000018E-03  -2.69253832E-07
  -6.14999980E-03  -2.75890017E-07
  -6.09999988E-03  -2.82673824E-07
  -6.04999997E-03  -2.89608209E-07
  -6.00000005E-03  -2.96697209E-07
  -5.95000014E-03  -3.03945541E-07
  -5.90000022E-03  -3.11357610E-07
  -5.84999984E-03  -3.18937140E-07
  -5.79999993E-03  -3.26686745E-07
  -5.75000001E-03  -3.34608160E-07
  -5.70000010E-03  -3.42703061E-07
  -5.65000018E-03  -3.50973522E-07
  -5.59999980E-03  -3.59422671E-07
  -5.54999989E-03  -3.68054799E-07
  -5.49999997E-03  -3.76874794E-07
  -5.45000006E-03  -3.85887574E-07
  -5.40000014E-03  -3.95097487E-07
  -5.35000023E-03  -4.04507688E-07
  -5.29999984E-03  -4.14120677E-07
  -5.24999993E-03  -4.23938388E-07
  -5.20000001E-03  -4.33963294E-07
  -5.15000010E-03  -4.44198605E-07
  -5.10000018E-03  -4.54648898E-07
  -5.04999980E-03  -4.65319374E-07
  -4.99999989E-03  -4.76215604E-07
  -4.94999997E-03  -4.87342390E-07
  -4.90000006E-03  -4.98703798E-07
  -4.85000014E-03  -5.10302812E-07
  -4.80000023E-03  -5.22141931E-07
  -4.74999985E-03  -5.34224000E-07
  -4.69999993E-03  -5.46552542E-07
  -4.65000002E-03  -5.59132332E-07
  -4.60000010E-03  -5.71969110E-07
  -4.55000019E-03  -5.85068790E-07
  -4.49999981E-03  -5.98437055E-07
  -4.44999989E-03  -6.12078622E-07
  -4.39999998E-03  -6.25997131E-07
  -4.35000006E-03  -6.40195822E-07
  -4.30000015E-03  -6.54677763E-07
  -4.25000023E-03  -6.69447104E-07
  -4.19999985E-03  -6.84508791E-07
  -4.14999994E-03  -6.99868792E-07
  -4.10000002E-03  -7.15533645E-07
  -4.05000011E-03  -7.31509658E-07
  -4.00000019E-03  -7.47802403E-07
  -3.94999981E-03  -7.64416313E-07
  -3.89999989E-03  -7.81355368E-07
  -3.84999998E-03  -7.98623148E-07
  -3.80000006E-03  -8.16224201E-07
  -3.74999992E-03  -8.34163757E-07
  -3.70000000E-03  -8.52448125E-07
  -3.65000009E-03  -8.71084410E-07
  -3.59999994E-03  -8.90079718E-07
  -3.55000002E-03  -9.09440473E-07
  -3.50000011E-03  -9.29172131E-07
  -3.44999996E-03  -9.49279183E-07
  -3.40000005E-03  -9.69765892E-07
  -3.34999990E-03  -9.90637091E-07
  -3.29999998E-03  -1.01189846E-06
  -3.25000007E-03  -1.03355660E-06
  -3.19999992E-03  -1.05561912E-06
  -3.15000000E-03  -1.07809353E-06
  -3.10000009E-03  -1.10098733E-06
  -3.04999994E-03  -1.12430655E-06
  -3.00000003E-03  -1.14805675E-06
  -2.95000011E-03  -1.17224272E-06
  -2.89999996E-03  -1.19686979E-06
  -2.85000005E-03  -1.22194376E-06
  -2.79999990E-03  -1.24747157E-06
  -2.74999999E-03  -1.27346129E-06
  -2.70000007E-03  -1.29992111E-06
  -2.64999992E-03  -1.32685909E-06
  -2.60000001E-03  -1.35428218E-06
  -2.55000009E-03  -1.38219673E-06
  -2.49999994E-03  -1.41060809E-06
  -2.45000003E-03  -1.43952218E-06
  -2.40000011E-03  -1.46894490E-06
  -2.34999997E-03  -1.49888365E-06
  -2.30000005E-03  -1.52934660E-06
  -2.24999990E-03  -1.56034253E-06
  -2.19999999E-03  -1.59188005E-06
  -2.15000007E-03  -1.62396702E-06
  -2.09999993E-03  -1.65661061E-06
  -2.05000001E-03  -1.68981694E-06
  -2.00000009E-03  -1.72359228E-06
  -1.94999995E-03  -1.75794253E-06
  -1.90000003E-03  -1.79287508E-06
  -1.85000000E-03  -1.82839858E-06
  -1.79999997E-03  -1.86452110E-06
  -1.75000005E-03  -1.90125206E-06
  -1.70000002E-03  -1.93860024E-06
  -1.64999999E-03  -1.97657346E-06
  -1.59999996E-03  -2.01517832E-06
  -1.55000004E-03  -2.05442188E-06
  -1.50000001E-03  -2.09431073E-06
  -1.44999998E-03  -2.13485168E-06
  -1.39999995E-03  -2.17605316E-06
  -1.35000004E-03  -2.21792357E-06
  -1.30000000E-03  -2.26047200E-06
  -1.24999997E-03  -2.30370824E-06
  -1.20000006E-03  -2.34764002E-06
  -1.15000003E-03  -2.39227529E-06
  -1.09999999E-03  -2.43762133E-06
  -1.04999996E-03  -2.48368474E-06
  -1.00000005E-03  -2.53047233E-06
  -9.50000016E-04  -2.57799206E-06
  -8.99999985E-04  -2.62625258E-06
  -8.50000011E-04  -2.67526275E-06
  -7.99999980E-04  -2.72503212E-06
  -7.50000007E-04  -2.77556910E-06
  -6.99999975E-04  -2.82688234E-06
  -6.50000002E-04  -2.87897910E-06
  -6.00000028E-04  -2.93186599E-06
  -5.49999997E-04  -2.98554983E-06
  -5.00000024E-04  -3.04003788E-06
  -4.49999992E-04  -3.09533743E-06
  -3.99999990E-04  -3.15145849E-06
  -3.49999988E-04  -3.20840968E-06
  -3.00000014E-04  -3.26620011E-06
  -2.50000012E-04  -3.32483773E-06
  -1.99999995E-04  -3.38433119E-06
  -1.50000007E-04  -3.44468685E-06
  -9.99999975E-05  -3.50591108E-06
  -4.99999987E-05  -3.56800979E-06
   0.00000000      -3.63099070E-06
   4.99999987E-05  -3.69486202E-06
   9.99999975E-05  -3.75963168E-06
   1.50000007E-04  -3.82530925E-06
   1.99999995E-04  -3.89190336E-06
   2.50000012E-04  -3.95942288E-06
   3.00000014E-04  -4.02787373E-06
   3.49999988E-04  -4.09726090E-06
   3.99999990E-04  -4.16759030E-06
   4.49999992E-04  -4.23886740E-06
   5.00000024E-04  -4.31109856E-06
   5.49999997E-04  -4.38429242E-06
   6.00000028E-04  -4.45845671E-06
   6.50000002E-04  -4.53360099E-06
   6.99999975E-04  -4.60973206E-06
   7.50000007E-04  -4.68685766E-06
   7.99999980E-04  -4.76498144E-06
   8.50000011E-04  -4.84410748E-06
   8.99999985E-04  -4.92424078E-06
   9.50000016E-04  -5.00538636E-06
   1.00000005E-03  -5.08754965E-06
   1.04999996E-03  -5.17073886E-06
   1.09999999E-03  -5.25496171E-06
   1.15000003E-03  -5.34022502E-06
   1.20000006E-03  -5.42653561E-06
   1.24999997E-03  -5.51389667E-06
   1.30000000E-03  -5.60231092E-06
   1.35000004E-03  -5.69178201E-06
   1.39999995E-03  -5.78231311E-06
   1.44999998E-03  -5.87390787E-06
   1.50000001E-03  -5.96657219E-06
   1.55000004E-03  -6.06031244E-06
   1.59999996E-03  -6.15513363E-06
   1.64999999E-03  -6.25104121E-06
   1.70000002E-03  -6.34803837E-06
   1.75000005E-03  -6.44612601E-06
   1.79999997E-03  -6.54530550E-06
   1.85000000E-03  -6.64557729E-06
   1.90000003E-03  -6.74694274E-06
   1.94999995E-03  -6.84940551E-06
   2.00000009E-03  -6.95297058E-06
   2.05000001E-03  -7.05764205E-06
   2.09999993E-03  -7.16342356E-06
   2.15000007E-03  -7.27031602E-06
   2.19999999E-03  -7.37832033E-06
   2.24999990E-03  -7.48743332E-06
   2.30000005E-03  -7.59765317E-06
   2.34999997E-03  -7.70897896E-06
   2.40000011E-03  -7.82140978E-06
   2.45000003E-03  -7.93494928E-06
   2.49999994E-03  -8.04959927E-06
   2.55000009E-03  -8.16536158E-06
   2.60000001E-03  -8.28223619E-06
   2.64999992E-03  -8.40022039E-06
   2.70000007E-03  -8.51931054E-06
   2.74999999E-03  -8.63949936E-06
   2.79999990E-03  -8.76078138E-06