  -3.99999991E-02   0.00000000    
  -3.99499983E-02   0.00000000    
  -3.99000011E-02   0.00000000    
  -3.98500003E-02   0.00000000    
  -3.97999994E-02  -4.25189731E-19
  -3.97499986E-02  -3.13138713E-18
  -3.97000015E-02  -1.24160960E-17
  -3.96500006E-02  -3.53601911E-17
  -3.95999998E-02  -8.18974981E-17
  -3.95499989E-02  -1.65986813E-16
  -3.95000018E-02  -3.08090235E-16
  -3.94500010E-02  -5.36087576E-16
  -3.94000001E-02  -8.80571693E-16
  -3.93499993E-02  -1.36473673E-15
  -3.92999984E-02  -1.99637577E-15
  -3.92500013E-02  -2.77172156E-15
  -3.92000005E-02  -3.69275660E-15
  -3.91499996E-02  -4.78712105E-15
  -3.90999988E-02  -6.11579641E-15
  -3.90500017E-02  -7.76396667E-15
  -3.90000008E-02  -9.82457507E-15
  -3.89500000E-02  -1.23863881E-14
  -3.88999991E-02  -1.55272913E-14
  -3.88499983E-02  -1.93048431E-14
  -3.88000011E-02  -2.37440394E-14
  -3.87500003E-02  -2.88380871E-14
  -3.86999995E-02  -3.45772639E-14
  -3.86499986E-02  -4.09953443E-14
  -3.86000015E-02  -4.81967439E-14
  -3.85500006E-02  -5.63343826E-14
  -3.84999998E-02  -6.55492980E-14
  -3.84499989E-02  -7.59178283E-14
  -3.84000018E-02  -8.74418539E-14
  -3.83500010E-02  -1.00071711E-13
  -3.83000001E-02  -1.13723077E-13
  -3.82499993E-02  -1.28270875E-13
  -3.81999984E-02  -1.43547283E-13
  -3.81500013E-02  -1.59378329E-13
  -3.81000005E-02  -1.75649019E-13
  -3.80499996E-02  -1.92341409E-13
  -3.79999988E-02  -2.09504452E-13
  -3.79500017E-02  -2.27181013E-13
  -3.79000008E-02  -2.45356957E-13
  -3.78500000E-02  -2.63960837E-13
  -3.77999991E-02  -2.82872413E-13
  -3.77499983E-02  -3.01883925E-13
  -3.77000012E-02  -3.20630350E-13
  -3.76500003E-02  -3.38578124E-13
  -3.75999995E-02  -3.55133322E-13
  -3.75499986E-02  -3.69811630E-13
  -3.75000015E-02  -3.82327281E-13
  -3.74500006E-02  -3.92508617E-13
  -3.73999998E-02  -4.00097002E-13
  -3.73499990E-02  -4.04578497E-13
  -3.73000018E-02  -4.05153423E-13
  -3.72500010E-02  -4.00834097E-13
  -3.72000001E-02  -3.90612049E-13
  -3.71499993E-02  -3.73675293E-13
  -3.70999984E-02  -3.49679161E-13
  -3.70500013E-02  -3.18984178E-13
  -3.70000005E-02  -2.82655111E-13
  -3.69499996E-02  -2.42050195E-13
  -3.68999988E-02  -1.98084902E-13
  -3.68500017E-02  -1.50542678E-13
  -3.68000008E-02  -9.78593563E-14
  -3.67500000E-02  -3.75456332E-14
  -3.66999991E-02   3.29559717E-14
  -3.66499983E-02   1.15377028E-13
  -3.66000012E-02   2.10029951E-13
  -3.65500003E-02   3.15689532E-13
  -3.64999995E-02   4.30009815E-13
  -3.64499986E-02   5.50427379E-13
  -3.64000015E-02   6.75288601E-13
  -3.63500006E-02   8.04671922E-13
  -3.62999998E-02   9.40335700E-13
  -3.62499990E-02   1.08461894E-12
  -3.62000018E-02   1.23877959E-12
  -3.61500010E-02   1.40169994E-12
  -3.61000001E-02   1.56973512E-12
  -3.60499993E-02   1.73782657E-12
  -3.59999985E-02   1.90134193E-12
  -3.59500013E-02   2.05780792E-12
  -3.59000005E-02   2.20782008E-12
  -3.58499996E-02   2.35470454E-12
  -3.57999988E-02   2.50288765E-12
  -3.57500017E-02   2.65540498E-12
  -3.57000008E-02   2.81155177E-12
  -3.56500000E-02   2.96593978E-12
  -3.55999991E-02   3.10977784E-12
  -3.55499983E-02   3.23405538E-12
  -3.55000012E-02   3.33314214E-12
  -3.54500003E-02   3.40692687E-12
  -3.53999995E-02   3.46034638E-12
  -3.53499986E-02   3.50047573E-12
  -3.53000015E-02   3.53245254E-12
  -3.52500007E-02   3.55598992E-12
  -3.51999998E-02   3.56394948E-12
  -3.51499990E-02   3.54379785E-12
  -3.51000018E-02   3.48172836E-12
  -3.50500010E-02   3.36801008E-12
  -3.50000001E-02   3.20119604E-12
  -3.49499993E-02   2.98891055E-12
  -3.48999985E-02   2.74438935E-12
  -3.48500013E-02   2.48014088E-12
  -3.48000005E-02   2.20175028E-12
  -3.47499996E-02   1.90485366E-12
  -3.46999988E-02   1.57674861E-12
  -3.46500017E-02   1.20190522E-12
  -3.46000008E-02   7.68996032E-13
  -3.45500000E-02   2.76467922E-13
  -3.44999991E-02  -2.65806555E-13
  -3.44499983E-02  -8.39872497E-13
  -3.44000012E-02  -1.42705433E-12
  -3.43500003E-02  -2.01631095E-12
  -3.42999995E-02  -2.60952284E-12
  -3.42499986E-02  -3.22069628E-12
  -3.42000015E-02  -3.86891821E-12
  -3.41500007E-02  -4.56823555E-12
  -3.40999998E-02  -5.31927670E-12
  -3.40499990E-02  -6.10668374E-12
  -3.40000018E-02  -6.90357754E-12
  -3.39500010E-02  -7.68114392E-12
  -3.39000002E-02  -8.41928090E-12
  -3.38499993E-02  -9.11372627E-12
  -3.37999985E-02  -9.77629696E-12
  -3.37500013E-02  -1.04275390E-11
  -3.37000005E-02  -1.10844589E-11
  -3.36499996E-02  -1.17487756E-11
  -3.35999988E-02  -1.24015668E-11
  -3.35500017E-02  -1.30075950E-11
  -3.35000008E-02  -1.35278152E-11
  -3.34500000E-02  -1.39344222E-11
  -3.33999991E-02  -1.42213671E-11
  -3.33499983E-02  -1.44054196E-11
  -3.33000012E-02  -1.45172051E-11
  -3.32500003E-02  -1.45858516E-11
  -3.31999995E-02  -1.46236530E-11
  -3.31499986E-02  -1.46172970E-11
  -3.31000015E-02  -1.45299207E-11
  -3.30500007E-02  -1.43139008E-11
  -3.29999998E-02  -1.39294002E-11
  -3.29499990E-02  -1.33603718E-11
  -3.29000019E-02  -1.26203431E-11
  -3.28500010E-02  -1.17449158E-11
  -3.28000002E-02  -1.07743129E-11
  -3.27499993E-02  -9.73420303E-12
  -3.26999985E-02  -8.62365214E-12
  -3.26500013E-02  -7.41556816E-12
  -3.26000005E-02  -6.06943835E-12
  -3.25499997E-02  -4.55088007E-12
  -3.24999988E-02  -2.84969032E-12
  -3.24500017E-02  -9.88304816E-13
  -3.24000008E-02   9.83746830E-13
  -3.23500000E-02   3.00789211E-12
  -3.22999991E-02   5.03943935E-12
  -3.22499983E-02   7.06477411E-12
  -3.22000012E-02   9.10433014E-12
  -3.21500003E-02   1.11995005E-11
  -3.20999995E-02   1.33894007E-11
  -3.20499986E-02   1.56882701E-11
  -3.20000015E-02   1.80735652E-11
  -3.19500007E-02   2.04900194E-11
  -3.18999998E-02   2.28678586E-11
  -3.18499990E-02   2.51476704E-11
  -3.18000019E-02   2.73013712E-11
  -3.17500010E-02   2.93399194E-11
  -3.17000002E-02   3.13033523E-11
  -3.16499993E-02   3.32367849E-11
  -3.15999985E-02   3.51625951E-11
  -3.15500014E-02   3.70619785E-11
  -3.15000005E-02   3.88747923E-11
  -3.14499997E-02   4.05182450E-11
  -3.13999988E-02   4.19159568E-11
  -3.13500017E-02   4.30245804E-11
  -3.13000008E-02   4.38466832E-11
  -3.12500000E-02   4.44246966E-11
  -3.11999992E-02   4.48184719E-11
  -3.11500002E-02   4.50755336E-11
  -3.10999993E-02   4.52063942E-11
  -3.10500003E-02   4.51758665E-11
  -3.09999995E-02   4.49150682E-11
  -3.09500005E-02   4.43495241E-11
  -3.08999997E-02   4.34307451E-11
  -3.08500007E-02   4.21567226E-11
  -3.07999998E-02   4.05718757E-11
  -3.07500008E-02   3.87468703E-11
  -3.07000000E-02   3.67477368E-11
  -3.06499992E-02   3.46078825E-11
  -3.06000002E-02   3.23145677E-11
  -3.05499993E-02   2.98153030E-11
  -3.05000003E-02   2.70418653E-11
  -3.04499995E-02   2.39423325E-11
  -3.04000005E-02   2.05076546E-11
  -3.03499997E-02   1.67806463E-11
  -3.03000007E-02   1.28424511E-11
  -3.02499998E-02   8.78204627E-12
  -3.02000009E-02   4.66269211E-12
  -3.01500000E-02   5.00814451E-13
  -3.00999992E-02  -3.73317436E-12
  -3.00500002E-02  -8.09328125E-12
  -2.99999993E-02  -1.26253235E-11
  -2.99500003E-02  -1.73371456E-11
  -2.98999995E-02  -2.21841677E-11
  -2.98500005E-02  -2.70763949E-11
  -2.97999997E-02  -3.19054505E-11
  -2.97500007E-02  -3.65812762E-11
  -2.96999998E-02  -4.10631078E-11
  -2.96500009E-02  -4.53701209E-11
  -2.96000000E-02  -4.95660665E-11
  -2.95499992E-02  -5.37238622E-11
  -2.95000002E-02  -5.78858177E-11
  -2.94499993E-02  -6.20369381E-11
  -2.94000003E-02  -6.61023319E-11
  -2.93499995E-02  -6.99687946E-11
  -2.93000005E-02  -7.35218900E-11
  -2.92499997E-02  -7.66835484E-11
  -2.92000007E-02  -7.94357080E-11
  -2.91499998E-02  -8.18196830E-11
  -2.91000009E-02  -8.39100733E-11
  -2.90500000E-02  -8.57734717E-11
  -2.89999992E-02  -8.74296816E-11
  -2.89500002E-02  -8.88339124E-11
  -2.88999993E-02  -8.98882219E-11
  -2.88500004E-02  -9.04772715E-11
  -2.87999995E-02  -9.05120631E-11
  -2.87500005E-02  -8.99628566E-11
  -2.86999997E-02  -8.88681490E-11
  -2.86500007E-02  -8.73162168E-11
  -2.85999998E-02  -8.54064180E-11
  -2.85500009E-02  -8.32049152E-11
  -2.85000000E-02  -8.07132694E-11
  -2.84499992E-02  -7.78642567E-11
  -2.84000002E-02  -7.45488879E-11
  -2.83499993E-02  -7.06639955E-11
  -2.83000004E-02  -6.61587035E-11
  -2.82499995E-02  -6.10584708E-11
  -2.82000005E-02  -5.54556435E-11
  -2.81499997E-02  -4.94713437E-11
  -2.81000007E-02  -4.32059319E-11
  -2.80499998E-02  -3.66989945E-11
  -2.80000009E-02  -2.99154521E-11
  -2.79500000E-02  -2.27643390E-11
  -2.78999992E-02  -1.51441793E-11
  -2.78500002E-02  -6.99728730E-12
  -2.77999993E-02   1.65078086E-12
  -2.77500004E-02   1.06860293E-11
  -2.76999995E-02   1.99400479E-11
  -2.76500005E-02   2.92501336E-11
  -2.75999997E-02   3.85181054E-11
  -2.75500007E-02   4.77411652E-11
  -2.74999999E-02   5.70017124E-11
  -2.74500009E-02   6.64207647E-11
  -2.74000000E-02   7.60944849E-11
  -2.73499992E-02   8.60398974E-11
  -2.73000002E-02   9.61718691E-11
  -2.72499993E-02   1.06322701E-10
  -2.72000004E-02   1.16298644E-10
  -2.71499995E-02   1.25950902E-10
  -2.71000005E-02   1.35229439E-10
  -2.70499997E-02   1.44194573E-10
  -2.70000007E-02   1.52979046E-10
  -2.69499999E-02   1.61717709E-10
  -2.69000009E-02   1.70476563E-10
  -2.68500000E-02   1.79212173E-10
  -2.67999992E-02   1.87778182E-10
  -2.67500002E-02   1.95975874E-10
  -2.66999993E-02   2.03626963E-10
  -2.66500004E-02   2.10639575E-10
  -2.65999995E-02   2.17038956E-10
  -2.65500005E-02   2.22948326E-10
  -2.64999997E-02   2.28526198E-10
  -2.64500007E-02   2.33886799E-10
  -2.63999999E-02   2.39040704E-10
  -2.63500009E-02   2.43883524E-10
  -2.63000000E-02   2.48238929E-10
  -2.62499992E-02   2.51935417E-10
  -2.62000002E-02   2.54881838E-10
  -2.61499994E-02   2.57107696E-10
  -2.61000004E-02   2.58751631E-10
  -2.60499995E-02   2.60002159E-10
  -2.60000005E-02   2.61015126E-10
  -2.59499997E-02   2.61841937E-10
  -2.59000007E-02   2.62400296E-10
  -2.58499999E-02   2.62502881E-10
  -2.58000009E-02   2.61934169E-10
  -2.57500000E-02   2.60542338E-10
  -2.56999992E-02   2.58304073E-10
  -2.56500002E-02   2.55331978E-10
  -2.55999994E-02   2.51821480E-10
  -2.55500004E-02   2.47961346E-10
  -2.54999995E-02   2.43848192E-10
  -2.54500005E-02   2.39440329E-10
  -2.53999997E-02   2.34570308E-10
  -2.53500007E-02   2.29009992E-10
  -2.52999999E-02   2.22563301E-10
  -2.52500009E-02   2.15147164E-10
  -2.52000000E-02   2.06824460E-10
  -2.51499992E-02   1.97771424E-10
  -2.51000002E-02   1.88192642E-10
  -2.50499994E-02   1.78219925E-10
  -2.50000004E-02   1.67840908E-10
  -2.49499995E-02   1.56888932E-10
  -2.49000005E-02   1.45096948E-10
  -2.48499997E-02   1.32189898E-10
  -2.48000007E-02   1.17976559E-10
  -2.47499999E-02   1.02403225E-10
  -2.47000009E-02   8.55484295E-11
  -2.46500000E-02   6.75612899E-11
  -2.45999992E-02   4.85685520E-11
  -2.45500002E-02   2.85899412E-11
  -2.44999994E-02   7.49949755E-12
  -2.44500004E-02  -1.49482718E-11
  -2.43999995E-02  -3.90389943E-11
  -2.43500005E-02  -6.50030932E-11
  -2.42999997E-02  -9.29478230E-11
  -2.42500007E-02  -1.22846788E-10
  -2.41999999E-02  -1.54588828E-10
  -2.41500009E-02  -1.88063648E-10
  -2.41000000E-02  -2.23247171E-10
  -2.40499992E-02  -2.60252236E-10
  -2.40000002E-02  -2.99322622E-10
  -2.39499994E-02  -3.40770856E-10
  -2.39000004E-02  -3.84884846E-10
  -2.38499995E-02  -4.31842284E-10
  -2.38000005E-02  -4.81671925E-10
  -2.37499997E-02  -5.34280509E-10
  -2.37000007E-02  -5.89534255E-10
  -2.36499999E-02  -6.47358944E-10
  -2.36000009E-02  -7.07812142E-10
  -2.35500000E-02  -7.71100017E-10
  -2.34999992E-02  -8.37531211E-10
  -2.34500002E-02  -9.07430131E-10
  -2.33999994E-02  -9.81041248E-10
  -2.33500004E-02  -1.05846487E-09
  -2.32999995E-02  -1.13964715E-09
  -2.32500006E-02  -1.22443544E-09
  -2.31999997E-02  -1.31267586E-09
  -2.31500007E-02  -1.40431444E-09
  -2.30999999E-02  -1.49945556E-09
  -2.30500009E-02  -1.59835123E-09
  -2.30000000E-02  -1.70132808E-09
  -2.29499992E-02  -1.80868431E-09
  -2.29000002E-02  -1.92060012E-09
  -2.28499994E-02  -2.03709805E-09
  -2.28000004E-02  -2.15806462E-09
  -2.27499995E-02  -2.28332686E-09
  -2.27000006E-02  -2.41275244E-09
  -2.26499997E-02  -2.54633536E-09
  -2.26000007E-02  -2.68423039E-09
  -2.25499999E-02  -2.82671553E-09
  -2.25000009E-02  -2.97409941E-09
  -2.24500000E-02  -3.12661119E-09
  -2.23999992E-02  -3.28432459E-09
  -2.23500002E-02  -3.44714834E-09
  -2.22999994E-02  -3.61488750E-09
  -2.22500004E-02  -3.78734732E-09
  -2.21999995E-02  -3.96443633E-09
  -2.21500006E-02  -4.14622603E-09
  -2.20999997E-02  -4.33294689E-09
  -2.20500007E-02  -4.52492044E-09
  -2.19999999E-02  -4.72244510E-09
  -2.19500009E-02  -4.92569097E-09
  -2.19000001E-02  -5.13465181E-09
  -2.18499992E-02  -5.34917355E-09
  -2.18000002E-02  -5.56905544E-09
  -2.17499994E-02  -5.79417980E-09
  -2.17000004E-02  -6.02460659E-09
  -2.16499995E-02  -6.26059071E-09
  -2.16000006E-02  -6.50251986E-09
  -2.15499997E-02  -6.75079859E-09
  -2.15000007E-02  -7.00571556E-09
  -2.14499999E-02  -7.26736005E-09
  -2.14000009E-02  -7.53562635E-09
  -2.13500001E-02  -7.81029996E-09
  -2.12999992E-02  -8.09121126E-09
  -2.12500002E-02  -8.37838332E-09
  -2.11999994E-02  -8.67210659E-09
  -2.11500004E-02  -8.97290597E-09
  -2.10999995E-02  -9.28141208E-09
  -2.10500006E-02  -9.59819602E-09
  -2.09999997E-02  -9.92362903E-09
  -2.09500007E-02  -1.02578417E-08
  -2.08999999E-02  -1.06007869E-08
  -2.08500009E-02  -1.09523750E-08
  -2.08000001E-02  -1.13126575E-08
  -2.07499992E-02  -1.16819452E-08
  -2.07000002E-02  -1.20608359E-08
  -2.06499994E-02  -1.24501121E-08
  -2.06000004E-02  -1.28505731E-08
  -2.05499995E-02  -1.32628424E-08
  -2.05000006E-02  -1.36872860E-08
  -2.04499997E-02  -1.41240406E-08
  -2.04000007E-02  -1.45731587E-08
  -2.03499999E-02  -1.50348054E-08
  -2.03000009E-02  -1.55094018E-08
  -2.02500001E-02  -1.59976850E-08
  -2.01999992E-02  -1.65006320E-08
  -2.01500002E-02  -1.70192962E-08
  -2.00999994E-02  -1.75545960E-08
  -2.00500004E-02  -1.81071762E-08
  -1.99999996E-02  -1.86774027E-08
  -1.99500006E-02  -1.92654870E-08
  -1.98999997E-02  -1.98716990E-08
  -1.98500007E-02  -2.04965573E-08
  -1.97999999E-02  -2.11409272E-08
  -1.97500009E-02  -2.18059579E-08
  -1.97000001E-02  -2.24928982E-08
  -1.96499992E-02  -2.32028707E-08
  -1.96000002E-02  -2.39367104E-08
  -1.95499994E-02  -2.46949075E-08
  -1.95000004E-02  -2.54777319E-08
  -1.94499996E-02  -2.62854503E-08
  -1.94000006E-02  -2.71185616E-08
  -1.93499997E-02  -2.79779346E-08
  -1.93000007E-02  -2.88648057E-08
  -1.92499999E-02  -2.97805940E-08
  -1.92000009E-02  -3.07266426E-08
  -1.91500001E-02  -3.17039728E-08
  -1.90999992E-02  -3.27132170E-08
  -1.90500002E-02  -3.37547199E-08
  -1.89999994E-02  -3.48287301E-08
  -1.89500004E-02  -3.59356811E-08
  -1.88999996E-02  -3.70763757E-08
  -1.88500006E-02  -3.82520149E-08
  -1.87999997E-02  -3.94640836E-08
  -1.87500007E-02  -4.07140668E-08
  -1.86999999E-02  -4.20031654E-08
  -1.86500009E-02  -4.33321681E-08
  -1.86000001E-02  -4.47014799E-08
  -1.85499992E-02  -4.61113174E-08
  -1.85000002E-02  -4.75620254E-08
  -1.84499994E-02  -4.90542753E-08
  -1.84000004E-02  -5.05891578E-08
  -1.83499996E-02  -5.21680725E-08
  -1.83000006E-02  -5.37924763E-08
  -1.82499997E-02  -5.54636337E-08
  -1.82000007E-02  -5.71824117E-08
  -1.81499999E-02  -5.89493148E-08
  -1.81000009E-02  -6.07646413E-08
  -1.80500001E-02  -6.26287573E-08
  -1.79999992E-02  -6.45423626E-08
  -1.79500002E-02  -6.65066011E-08
  -1.78999994E-02  -6.85229580E-08
  -1.78500004E-02  -7.05930532E-08
  -1.77999996E-02  -7.27182794E-08
  -1.77500006E-02  -7.48995959E-08
  -1.76999997E-02  -7.71375639E-08
  -1.76500008E-02  -7.94324677E-08
  -1.75999999E-02  -8.17846555E-08
  -1.75500009E-02  -8.41947525E-08
  -1.75000001E-02  -8.66638885E-08
  -1.74499992E-02  -8.91936480E-08
  -1.74000002E-02  -9.17858287E-08
  -1.73499994E-02  -9.44421146E-08
  -1.73000004E-02  -9.71637988E-08
  -1.72499996E-02  -9.99517198E-08
  -1.72000006E-02  -1.02806446E-07
  -1.71499997E-02  -1.05728525E-07
  -1.71000008E-02  -1.08718766E-07
  -1.70499999E-02  -1.11778505E-07
  -1.70000009E-02  -1.14909575E-07
  -1.69500001E-02  -1.18114116E-07
  -1.68999992E-02  -1.21394223E-07
  -1.68500002E-02  -1.24751722E-07
  -1.67999994E-02  -1.28187935E-07
  -1.67500004E-02  -1.31703828E-07
  -1.66999996E-02  -1.35300340E-07
  -1.66500006E-02  -1.38978649E-07
  -1.65999997E-02  -1.42740433E-07
  -1.65500008E-02  -1.46587894E-07
  -1.64999999E-02  -1.50523633E-07
  -1.64500009E-02  -1.54550335E-07
  -1.64000001E-02  -1.58670460E-07
  -1.63499992E-02  -1.62886138E-07
  -1.63000003E-02  -1.67199119E-07
  -1.62499994E-02  -1.71611006E-07
  -1.62000004E-02  -1.76123720E-07
  -1.61499996E-02  -1.80739605E-07
  -1.61000006E-02  -1.85461602E-07
  -1.60499997E-02  -1.90293008E-07
  -1.60000008E-02  -1.95237263E-07
  -1.59499999E-02  -2.00297606E-07
  -1.59000009E-02  -2.05476979E-07
  -1.58500001E-02  -2.10777912E-07
  -1.57999992E-02  -2.16202835E-07
  -1.57500003E-02  -2.21754391E-07
  -1.56999994E-02  -2.27435820E-07
  -1.56500004E-02  -2.33250915E-07
  -1.55999996E-02  -2.39203985E-07
  -1.55499997E-02  -2.45299532E-07
  -1.54999997E-02  -2.51541934E-07
  -1.54499998E-02  -2.57935170E-07
  -1.53999999E-02  -2.64482850E-07
  -1.53500000E-02  -2.71188412E-07
  -1.53000001E-02  -2.78055467E-07
  -1.52500002E-02  -2.85087992E-07
  -1.52000003E-02  -2.92290821E-07
  -1.51500003E-02  -2.99669182E-07
  -1.51000004E-02  -3.07228675E-07
  -1.50499996E-02  -3.14974869E-07
  -1.49999997E-02  -3.22913024E-07
  -1.49499997E-02  -3.31047801E-07
  -1.48999998E-02  -3.39383831E-07
  -1.48499999E-02  -3.47925777E-07
  -1.48000000E-02  -3.56678697E-07
  -1.47500001E-02  -3.65648219E-07
  -1.47000002E-02  -3.74840710E-07
  -1.46500003E-02  -3.84262705E-07
  -1.46000003E-02  -3.93920800E-07
  -1.45500004E-02  -4.03821360E-07
  -1.44999996E-02  -4.13970298E-07
  -1.44499997E-02  -4.24373326E-07
  -1.43999998E-02  -4.35036270E-07
  -1.43499998E-02  -4.45965213E-07
  -1.42999999E-02  -4.57167062E-07
  -1.42500000E-02  -4.68649233E-07
  -1.42000001E-02  -4.80419658E-07
  -1.41500002E-02  -4.92486038E-07
  -1.41000003E-02  -5.04855905E-07
  -1.40500003E-02  -5.17536307E-07
  -1.40000004E-02  -5.30534123E-07
  -1.39499996E-02  -5.43856345E-07
  -1.38999997E-02  -5.57510191E-07
  -1.38499998E-02  -5.71503563E-07
  -1.37999998E-02  -5.85844816E-07
  -1.37499999E-02  -6.00542990E-07
  -1.37000000E-02  -6.15607291E-07
  -1.36500001E-02  -6.31046362E-07
  -1.36000002E-02  -6.46868500E-07
  -1.35500003E-02  -6.63081551E-07
  -1.35000004E-02  -6.79693358E-07
  -1.34500004E-02  -6.96712334E-07
  -1.33999996E-02  -7.14147745E-07
  -1.33499997E-02  -7.32009198E-07
  -1.32999998E-02  -7.50306924E-07
  -1.32499998E-02  -7.69051439E-07
  -1.31999999E-02  -7.88252862E-07
  -1.31500000E-02  -8.07920856E-07
  -1.31000001E-02  -8.28064742E-07
  -1.30500002E-02  -8.48693617E-07
  -1.30000003E-02  -8.69816688E-07
  -1.29500004E-02  -8.91444017E-07
  -1.29000004E-02  -9.13586291E-07
  -1.28499996E-02  -9.36254537E-07
  -1.27999997E-02  -9.59460408E-07
  -1.27499998E-02  -9.83215273E-07
  -1.26999998E-02  -1.00752993E-06
  -1.26499999E-02  -1.03241518E-06
  -1.26000000E-02  -1.05788172E-06
  -1.25500001E-02  -1.08394033E-06
  -1.25000002E-02  -1.11060240E-06
  -1.24500003E-02  -1.13788008E-06
  -1.24000004E-02  -1.16578599E-06
  -1.23500004E-02  -1.19433264E-06
  -1.22999996E-02  -1.22353231E-06
  -1.22499997E-02  -1.25339659E-06
  -1.21999998E-02  -1.28393663E-06
  -1.21499998E-02  -1.31516390E-06
  -1.20999999E-02  -1.34709046E-06
  -1.20500000E-02  -1.37972904E-06
  -1.20000001E-02  -1.41309329E-06
  -1.19500002E-02  -1.44719786E-06
  -1.19000003E-02  -1.48205822E-06
  -1.18500004E-02  -1.51768904E-06
  -1.18000004E-02  -1.55410441E-06
  -1.17499996E-02  -1.59131787E-06
  -1.16999997E-02  -1.62934202E-06
  -1.16499998E-02  -1.66818927E-06
  -1.15999999E-02  -1.70787257E-06
  -1.15499999E-02  -1.74840466E-06
  -1.15000000E-02  -1.78979951E-06
  -1.14500001E-02  -1.83207169E-06
  -1.14000002E-02  -1.87523642E-06
  -1.13500003E-02  -1.91930803E-06
  -1.13000004E-02  -1.96430187E-06
  -1.12500004E-02  -2.01023340E-06
  -1.11999996E-02  -2.05711899E-06
  -1.11499997E-02  -2.10497637E-06
  -1.10999998E-02  -2.15382352E-06
  -1.10499999E-02  -2.20367951E-06
  -1.09999999E-02  -2.25456279E-06
  -1.09500000E-02  -2.30649084E-06
  -1.09000001E-02  -2.35948050E-06
  -1.08500002E-02  -2.41354587E-06
  -1.08000003E-02  -2.46869968E-06
  -1.07500004E-02  -2.52495602E-06
  -1.07000005E-02  -2.58232785E-06
  -1.06499996E-02  -2.64083064E-06
  -1.05999997E-02  -2.70048099E-06
  -1.05499998E-02  -2.76129731E-06
  -1.04999999E-02  -2.82329870E-06
  -1.04499999E-02  -2.88650654E-06
  -1.04000000E-02  -2.95094105E-06
  -1.03500001E-02  -3.01662294E-06
  -1.03000002E-02  -3.08357335E-06
  -1.02500003E-02  -3.15181387E-06
  -1.02000004E-02  -3.22136634E-06
  -1.01500005E-02  -3.29225213E-06
  -1.00999996E-02  -3.36449170E-06
  -1.00499997E-02  -3.43810575E-06
  -9.99999978E-03  -3.51311382E-06
  -9.94999986E-03  -3.58953457E-06
  -9.89999995E-03  -3.66738573E-06
  -9.85000003E-03  -3.74668321E-06
  -9.80000012E-03  -3.82744565E-06
  -9.75000020E-03  -3.90969353E-06
  -9.70000029E-03  -3.99345026E-06
  -9.65000037E-03  -4.07873949E-06
  -9.60000046E-03  -4.16558260E-06
  -9.54999961E-03  -4.25400322E-06
  -9.49999969E-03  -4.34402546E-06
  -9.44999978E-03  -4.43567478E-06
  -9.39999986E-03  -4.52897439E-06
  -9.34999995E-03  -4.62394655E-06
  -9.30000003E-03  -4.72061538E-06
  -9.25000012E-03  -4.81900815E-06
  -9.20000020E-03  -4.91915353E-06
  -9.15000029E-03  -5.02108151E-06
  -9.10000037E-03  -5.12481802E-06
  -9.05000046E-03  -5.23038943E-06
  -8.99999961E-03  -5.33782213E-06
  -8.94999970E-03  -5.44714430E-06
  -8.89999978E-03  -5.55838278E-06
  -8.84999987E-03  -5.67156258E-06
  -8.79999995E-03  -5.78671006E-06
  -8.75000004E-03  -5.90385207E-06
  -8.70000012E-03  -6.02301816E-06
  -8.65000021E-03  -6.14423880E-06
  -8.60000029E-03  -6.26754309E-06
  -8.55000038E-03  -6.39295786E-06
  -8.50000046E-03  -6.52050858E-06
  -8.44999962E-03  -6.65022526E-06
  -8.39999970E-03  -6.78214337E-06
  -8.34999979E-03  -6.91629657E-06
  -8.29999987E-03  -7.05271896E-06
  -8.24999996E-03  -7.19144418E-06
  -8.20000004E-03  -7.33250681E-06
  -8.15000013E-03  -7.47594368E-06
  -8.10000021E-03  -7.62179161E-06
  -8.05000030E-03  -7.77008609E-06
  -8.00000038E-03  -7.92085757E-06
  -7.95000046E-03  -8.07414290E-06
  -7.89999962E-03  -8.22997845E-06
  -7.84999970E-03  -8.38840788E-06
  -7.79999979E-03  -8.54947029E-06
  -7.74999987E-03  -8.71320208E-06
  -7.69999996E-03  -8.87964052E-06
  -7.65000004E-03  -9.04882745E-06
  -7.60000013E-03  -9.22080017E-06
  -7.55000021E-03  -9.39559777E-06
  -7.49999983E-03  -9.57325665E-06
  -7.44999992E-03  -9.75381226E-06
  -7.40000000E-03  -9.93730646E-06
  -7.35000009E-03  -1.01237838E-05
  -7.30000017E-03  -1.03132897E-05
  -7.24999979E-03  -1.05058652E-05
  -7.19999988E-03  -1.07015521E-05
  -7.14999996E-03  -1.09003940E-05
  -7.10000005E-03  -1.11024374E-05
  -7.05000013E-03  -1.13077294E-05
  -7.00000022E-03  -1.15163157E-05
  -6.94999984E-03  -1.17282425E-05
  -6.89999992E-03  -1.19435581E-05
  -6.85000001E-03  -1.21623134E-05
  -6.80000009E-03  -1.23845648E-05
  -6.75000018E-03  -1.26103605E-05
  -6.69999979E-03  -1.28397478E-05
  -6.64999988E-03  -1.30727713E-05
  -6.59999996E-03  -1.33094773E-05
  -6.55000005E-03  -1.35499213E-05
  -6.50000013E-03  -1.37941588E-05
  -6.45000022E-03  -1.40422399E-05
  -6.39999984E-03  -1.42942154E-05
  -6.34999992E-03  -1.45501326E-05
  -6.30000001E-03  -1.48100471E-05
  -6.25000009E-03  -1.50740152E-05
  -6.20000018E-03  -1.53420897E-05
  -6.14999980E-03  -1.56143142E-05
  -6.09999988E-03  -1.58907405E-05
  -6.04999997E-03  -1.61714233E-05
  -6.00000005E-03  -1.64564244E-05
  -5.95000014E-03  -1.67458056E-05
  -5.90000022E-03  -1.70396288E-05
  -5.84999984E-03  -1.73379449E-05
  -5.79999993E-03  -1.76408139E-05
  -5.75000001E-03  -1.79482977E-05
  -5.70000010E-03  -1.82604581E-05
  -5.65000018E-03  -1.85773515E-05
  -5.59999980E-03  -1.88990325E-05
  -5.54999989E-03  -1.92255684E-05
  -5.49999997E-03  -1.95570228E-05
  -5.45000006E-03  -1.98934631E-05
  -5.40000014E-03  -2.02349493E-05
  -5.35000023E-03  -2.05815359E-05
  -5.29999984E-03  -2.09332866E-05
  -5.24999993E-03  -2.12902614E-05
  -5.20000001E-03  -2.16525241E-05
  -5.15000010E-03  -2.20201327E-05
  -5.10000018E-03  -2.23931474E-05
  -5.04999980E-03  -2.27716318E-05
  -4.99999989E-03  -2.31556478E-05
  -4.94999997E-03  -2.35452644E-05
  -4.90000006E-03  -2.39405490E-05
  -4.85000014E-03  -2.43415634E-05
  -4.80000023E-03  -2.47483713E-05
  -4.74999985E-03  -2.51610400E-05
  -4.69999993E-03  -2.55796367E-05
  -4.65000002E-03  -2.60042416E-05
  -4.60000010E-03  -2.64349219E-05
  -4.55000019E-03  -2.68717486E-05
  -4.49999981E-03  -2.73147871E-05
  -4.44999989E-03  -2.77641157E-05
  -4.39999998E-03  -2.82198089E-05
  -4.35000006E-03  -2.86819268E-05
  -4.30000015E-03  -2.91505294E-05
  -4.25000023E-03  -2.96256876E-05
  -4.19999985E-03  -3.01074670E-05
  -4.14999994E-03  -3.05959475E-05
  -4.10000002E-03  -3.10911964E-05
  -4.05000011E-03  -3.15932848E-05
  -4.00000019E-03  -3.21022781E-05
  -3.94999981E-03  -3.26182490E-05
  -3.89999989E-03  -3.31412666E-05
  -3.84999998E-03  -3.36714074E-05
  -3.80000006E-03  -3.42087405E-05
  -3.74999992E-03  -3.47533351E-05
  -3.70000000E-03  -3.53052637E-05
  -3.65000009E-03  -3.58646030E-05
  -3.59999994E-03  -3.64314474E-05
  -3.55000002E-03  -3.70058588E-05
  -3.50000011E-03  -3.75879172E-05
  -3.44999996E-03  -3.81776845E-05
  -3.40000005E-03  -3.87752407E-05
  -3.34999990E-03  -3.93806658E-05
  -3.29999998E-03  -3.99940400E-05
  -3.25000007E-03  -4.06154322E-05
  -3.19999992E-03  -4.12449117E-05
  -3.15000000E-03  -4.18825584E-05
  -3.10000009E-03  -4.25284597E-05
  -3.04999994E-03  -4.31826847E-05
  -3.00000003E-03  -4.38453026E-05
  -2.95000011E-03  -4.45163896E-05
  -2.89999996E-03  -4.51960186E-05
  -2.85000005E-03  -4.58842696E-05
  -2.79999990E-03  -4.65812191E-05
  -2.74999999E-03  -4.72869397E-05
  -2.70000007E-03  -4.80015187E-05
  -2.64999992E-03  -4.87250254E-05
  -2.60000001E-03  -4.94575434E-05
  -2.55000009E-03  -5.01991344E-05
  -2.49999994E-03  -5.09498750E-05
  -2.45000003E-03  -5.17098524E-05
  -2.40000011E-03  -5.24791358E-05
  -2.34999997E-03  -5.32578015E-05
  -2.30000005E-03  -5.40459441E-05
  -2.24999990E-03  -5.48436328E-05
  -2.19999999E-03  -5.56509585E-05
  -2.15000007E-03  -5.64679940E-05
  -2.09999993E-03  -5.72948229E-05
  -2.05000001E-03  -5.81315180E-05
  -2.00000009E-03  -5.89781557E-05
  -1.94999995E-03  -5.98348124E-05
  -1.90000003E-03  -6.07015609E-05
  -1.85000000E-03  -6.15784738E-05
  -1.79999997E-03  -6.24656313E-05
  -1.75000005E-03  -6.33631134E-05
  -1.70000002E-03  -6.42709856E-05
  -1.64999999E-03  -6.51893206E-05
  -1.59999996E-03  -6.61181984E-05
  -1.55000004E-03  -6.70576846E-05
  -1.50000001E-03  -6.80078665E-05
  -1.44999998E-03  -6.89688095E-05
  -1.39999995E-03  -6.99405937E-05
  -1.35000004E-03  -7.09232991E-05
  -1.30000000E-03  -7.19170057E-05
  -1.24999997E-03  -7.29218009E-05
  -1.20000006E-03  -7.39377283E-05
  -1.15000003E-03  -7.49648752E-05
  -1.09999999E-03  -7.60032999E-05
  -1.04999996E-03  -7.70531042E-05
  -1.00000005E-03  -7.81143681E-05
  -9.50000016E-04  -7.91871353E-05
  -8.99999985E-04  -8.02714785E-05
  -8.50000011E-04  -8.13674706E-05
  -7.99999980E-04  -8.24751987E-05
  -7.50000007E-04  -8.35947285E-05
  -6.99999975E-04  -8.47260962E-05
  -6.50000002E-04  -8.58693820E-05
  -6.00000028E-04  -8.70246513E-05
  -5.49999997E-04  -8.81919550E-05
  -5.00000024E-04  -8.93713877E-05
  -4.49999992E-04  -9.05629859E-05
  -3.99999990E-04  -9.17668222E-05
  -3.49999988E-04  -9.29829766E-05
  -3.00000014E-04  -9.42115003E-05
  -2.50000012E-04  -9.54524367E-05
  -1.99999995E-04  -9.67058440E-05
  -1.50000007E-04  -9.79717879E-05
  -9.99999975E-05  -9.92503556E-05
  -4.99999987E-05  -1.00541583E-04
   0.00000000      -1.01845508E-04
   4.99999987E-05  -1.03162180E-04
   9.99999975E-05  -1.04491693E-04
   1.50000007E-04  -1.05834079E-04
   1.99999995E-04  -1.07189386E-04
   2.50000012E-04  -1.08557622E-04
   3.00000014E-04  -1.09938861E-04
   3.49999988E-04  -1.11333175E-04
   3.99999990E-04  -1.12740621E-04
   4.49999992E-04  -1.14161201E-04
   5.00000024E-04  -1.15594921E-04
   5.49999997E-04  -1.17041833E-04
   6.00000028E-04  -1.18501979E-04
   6.50000002E-04  -1.19975462E-04
   6.99999975E-04  -1.21462253E-04
   7.50000007E-04  -1.22962330E-04
   7.99999980E-04  -1.24475715E-04
   8.50000011E-04  -1.26002487E-04
   8.99999985E-04  -1.27542720E-04
   9.50000016E-04  -1.29096385E-04
   1.00000005E-03  -1.30663451E-04
   1.04999996E-03  -1.32243920E-04
   1.09999999E-03  -1.33837850E-04
   1.15000003E-03  -1.35445269E-04
   1.20000006E-03  -1.37066192E-04
   1.24999997E-03  -1.38700590E-04
   1.30000000E-03  -1.40348435E-04
   1.35000004E-03  -1.42009754E-04
   1.39999995E-03  -1.43684563E-04
   1.44999998E-03  -1.45372862E-04
   1.50000001E-03  -1.47074577E-04
   1.55000004E-03  -1.48789681E-04
   1.59999996E-03  -1.50518128E-04
   1.64999999E-03  -1.52259963E-04
   1.70000002E-03  -1.54015186E-04
   1.75000005E-03  -1.55783709E-04
   1.79999997E-03  -1.57565475E-04
   1.85000000E-03  -1.59360425E-04
   1.90000003E-03  -1.61168544E-04
   1.94999995E-03  -1.62989818E-04
   2.00000009E-03  -1.64824145E-04
   2.05000001E-03  -1.66671409E-04
   2.09999993E-03  -1.68531566E-04
   2.15000007E-03  -1.70404586E-04
   2.19999999E-03  -1.72290456E-04
   2.24999990E-03  -1.74189088E-04
   2.30000005E-03  -1.76100351E-04
   2.34999997E-03  -1.78024085E-04
   2.40000011E-03  -1.79960232E-04
   2.45000003E-03  -1.81908763E-04
   2.49999994E-03  -1.83869590E-04
   2.55000009E-03  -1.85842524E-04
   2.60000001E-03  -1.87827391E-04
   2.64999992E-03  -1.89824088E-04
   2.70000007E-03  -1.91832529E-04
   2.74999999E-03  -1.93852655E-04
   2.79999990E-03  -1.95884262E-04