  -3.99999991E-02   0.00000000    
  -3.99499983E-02   0.00000000    
  -3.99000011E-02   0.00000000    
  -3.98500003E-02  -1.67342952E-15
  -3.97999994E-02  -1.35481785E-14
  -3.97499986E-02  -5.66382031E-14
  -3.97000015E-02  -1.63615595E-13
  -3.96500006E-02  -3.71106168E-13
  -3.95999998E-02  -7.17830255E-13
  -3.95499989E-02  -1.25793093E-12
  -3.95000018E-02  -2.06919096E-12
  -3.94500010E-02  -3.21663356E-12
  -3.94000001E-02  -4.67196030E-12
  -3.93499993E-02  -6.26743666E-12
  -3.92999984E-02  -7.77831966E-12
  -3.92500013E-02  -9.11774475E-12
  -3.92000005E-02  -1.04834561E-11
  -3.91499996E-02  -1.22948613E-11
  -3.90999988E-02  -1.49467071E-11
  -3.90500017E-02  -1.85932693E-11
  -3.90000008E-02  -2.31372109E-11
  -3.89500000E-02  -2.83605518E-11
  -3.88999991E-02  -3.39923853E-11
  -3.88499983E-02  -3.96562783E-11
  -3.88000011E-02  -4.48947303E-11
  -3.87500003E-02  -4.94499580E-11
  -3.86999995E-02  -5.36253333E-11
  -3.86499986E-02  -5.82802556E-11
  -3.86000015E-02  -6.42546849E-11
  -3.85500006E-02  -7.16235127E-11
  -3.84999998E-02  -7.94697988E-11
  -3.84499989E-02  -8.64222374E-11
  -3.84000018E-02  -9.14436443E-11
  -3.83500010E-02  -9.41401054E-11
  -3.83000001E-02  -9.44585174E-11
  -3.82499993E-02  -9.23464430E-11
  -3.81999984E-02  -8.78942891E-11
  -3.81500013E-02  -8.17207621E-11
  -3.81000005E-02  -7.48811152E-11
  -3.80499996E-02  -6.80801804E-11
  -3.79999988E-02  -6.09229056E-11
  -3.79500017E-02  -5.21016043E-11
  -3.79000008E-02  -4.04311411E-11
  -3.78500000E-02  -2.56079376E-11
  -3.77999991E-02  -7.80068891E-12
  -3.77499983E-02   1.34378984E-11
  -3.77000012E-02   3.95235025E-11
  -3.76500003E-02   7.18014953E-11
  -3.75999995E-02   1.10139932E-10
  -3.75499986E-02   1.52796276E-10
  -3.75000015E-02   1.97917835E-10
  -3.74500006E-02   2.45236748E-10
  -3.73999998E-02   2.96289437E-10
  -3.73499990E-02   3.53094831E-10
  -3.73000018E-02   4.16739948E-10
  -3.72500010E-02   4.86971852E-10
  -3.72000001E-02   5.62289548E-10
  -3.71499993E-02   6.39423403E-10
  -3.70999984E-02   7.12483572E-10
  -3.70500013E-02   7.73698328E-10
  -3.70000005E-02   8.17000301E-10
  -3.69499996E-02   8.42786285E-10
  -3.68999988E-02   8.59989302E-10
  -3.68500017E-02   8.82909024E-10
  -3.68000008E-02   9.24238908E-10
  -3.67500000E-02   9.88626070E-10
  -3.66999991E-02   1.07028353E-09
  -3.66499983E-02   1.15496646E-09
  -3.66000012E-02   1.22447552E-09
  -3.65500003E-02   1.26220512E-09
  -3.64999995E-02   1.25914268E-09
  -3.64499986E-02   1.21873989E-09
  -3.64000015E-02   1.15719667E-09
  -3.63500006E-02   1.09636622E-09
  -3.62999998E-02   1.05120312E-09
  -3.62499990E-02   1.01900322E-09
  -3.62000018E-02   9.78197523E-10
  -3.61500010E-02   8.98639108E-10
  -3.61000001E-02   7.57569896E-10
  -3.60499993E-02   5.52185686E-10
  -3.59999985E-02   3.02714687E-10
  -3.59500013E-02   4.54446515E-11
  -3.59000005E-02  -1.81222426E-10
  -3.58499996E-02  -3.53452323E-10
  -3.57999988E-02  -4.75982698E-10
  -3.57500017E-02  -5.86334759E-10
  -3.57000008E-02  -7.43271222E-10
  -3.56500000E-02  -1.00069075E-09
  -3.55999991E-02  -1.37846967E-09
  -3.55499983E-02  -1.84698190E-09
  -3.55000012E-02  -2.33625630E-09
  -3.54500003E-02  -2.76671952E-09
  -3.53999995E-02  -3.08610693E-09
  -3.53499986E-02  -3.29460792E-09
  -3.53000015E-02  -3.44719009E-09
  -3.52500007E-02  -3.63230535E-09
  -3.51999998E-02  -3.93441457E-09
  -3.51499990E-02  -4.39343495E-09
  -3.51000018E-02  -4.97791097E-09
  -3.50500010E-02  -5.58753044E-09
  -3.50000001E-02  -6.09029582E-09
  -3.49499993E-02  -6.38145670E-09
  -3.48999985E-02  -6.43580700E-09
  -3.48500013E-02  -6.32436459E-09
  -3.48000005E-02  -6.18398133E-09
  -3.47499996E-02  -6.15359319E-09
  -3.46999988E-02  -6.30778496E-09
  -3.46500017E-02  -6.61822863E-09
  -3.46000008E-02  -6.95986024E-09
  -3.45500000E-02  -7.16024484E-09
  -3.44999991E-02  -7.07408443E-09
  -3.44499983E-02  -6.65314115E-09
  -3.44000012E-02  -5.97871308E-09
  -3.43500003E-02  -5.23472821E-09
  -3.42999995E-02  -4.62578065E-09
  -3.42499986E-02  -4.27539426E-09
  -3.42000015E-02  -4.15590629E-09
  -3.41500007E-02  -4.08918810E-09
  -3.40999998E-02  -3.82189613E-09
  -3.40499990E-02  -3.14077542E-09
  -3.40000018E-02  -1.97423744E-09
  -3.39500010E-02  -4.33989122E-10
  -3.39000002E-02   1.22329036E-09
  -3.38499993E-02   2.70168288E-09
  -3.37999985E-02   3.79803877E-09
  -3.37500013E-02   4.50358639E-09
  -3.37000005E-02   5.02374675E-09
  -3.36499996E-02   5.69588643E-09
  -3.35999988E-02   6.83368384E-09
  -3.35500017E-02   8.56917293E-09
  -3.35000008E-02   1.07720650E-08
  -3.34500000E-02   1.30914000E-08
  -3.33999991E-02   1.51042521E-08
  -3.33499983E-02   1.65038117E-08
  -3.33000012E-02   1.72415824E-08
  -3.32500003E-02   1.75593691E-08
  -3.31999995E-02   1.78931092E-08
  -3.31499986E-02   1.86837834E-08
  -3.31000015E-02   2.01721502E-08
  -3.30500007E-02   2.22689600E-08
  -3.29999998E-02   2.45686635E-08
  -3.29499990E-02   2.65138276E-08
  -3.29000019E-02   2.76425673E-08
  -3.28500010E-02   2.78028125E-08
  -3.28000002E-02   2.72266547E-08
  -3.27499993E-02   2.64246101E-08
  -3.26999985E-02   2.59469566E-08
  -3.26500013E-02   2.61218851E-08
  -3.26000005E-02   2.68895057E-08
  -3.25499997E-02   2.78076975E-08
  -3.24999988E-02   2.82333481E-08
  -3.24500017E-02   2.76075927E-08
  -3.24000008E-02   2.57228923E-08
  -3.23500000E-02   2.28457218E-08
  -3.22999991E-02   1.96233696E-08
  -3.22499983E-02   1.68019074E-08
  -3.22000012E-02   1.48793227E-08
  -3.21500003E-02   1.38596947E-08
  -3.20999995E-02   1.32319142E-08
  -3.20499986E-02   1.21891528E-08
  -3.20000015E-02   9.99107286E-09
  -3.19500007E-02   6.30558805E-09
  -3.18999998E-02   1.37749245E-09
  -3.18499990E-02  -4.05478096E-09
  -3.18000019E-02  -9.06766839E-09
  -3.17500010E-02  -1.29610038E-08
  -3.17000002E-02  -1.55874442E-08
  -3.16499993E-02  -1.74437176E-08
  -3.15999985E-02  -1.94635650E-08
  -3.15500014E-02  -2.25919745E-08
  -3.15000005E-02  -2.73341776E-08
  -3.14499997E-02  -3.34945369E-08
  -3.13999988E-02  -4.02336049E-08
  -3.13500017E-02  -4.64207233E-08
  -3.13000008E-02  -5.11234752E-08
  -3.12500000E-02  -5.40169474E-08
  -3.11999992E-02  -5.55317818E-08
  -3.11500002E-02  -5.66705189E-08
  -3.10999993E-02  -5.85609214E-08
  -3.10500003E-02  -6.19330791E-08
  -3.09999995E-02  -6.67549926E-08
  -3.09500005E-02  -7.22064115E-08
  -3.08999997E-02  -7.70220794E-08
  -3.08500007E-02  -8.00567008E-08
  -3.07999998E-02  -8.08088885E-08
  -3.07500008E-02  -7.96549742E-08
  -3.07000000E-02  -7.76806459E-08
  -3.06499992E-02  -7.61872201E-08
  -3.06000002E-02  -7.60952190E-08
  -3.05499993E-02  -7.75088438E-08
  -3.05000003E-02  -7.96348374E-08
  -3.04499995E-02  -8.11016392E-08
  -3.04000005E-02  -8.05549263E-08
  -3.03499997E-02  -7.72749189E-08
  -3.03000007E-02  -7.15301454E-08
  -3.02499998E-02  -6.44868265E-08
  -3.02000009E-02  -5.76958605E-08
  -3.01500000E-02  -5.23869126E-08
  -3.00999992E-02  -4.88983787E-08
  -3.00500002E-02  -4.65099781E-08
  -2.99999993E-02  -4.37553318E-08
  -2.99500003E-02  -3.90738819E-08
  -2.98999995E-02  -3.15147837E-08
  -2.98500005E-02  -2.11876579E-08
  -2.97999997E-02  -9.25879373E-09
  -2.97500007E-02   2.52243981E-09
  -2.96999998E-02   1.25775657E-08
  -2.96500009E-02   2.02069614E-08
  -2.96000000E-02   2.59217359E-08
  -2.95499992E-02   3.12289217E-08
  -2.95000002E-02   3.79544218E-08
  -2.94499993E-02   4.74096602E-08
  -2.94000003E-02   5.97859753E-08
  -2.93499995E-02   7.40487849E-08
  -2.93000005E-02   8.83718627E-08
  -2.92499997E-02   1.00916623E-07
  -2.92000007E-02   1.10618664E-07
  -2.91499998E-02   1.17644298E-07
  -2.91000009E-02   1.23311139E-07
  -2.90500000E-02   1.29489578E-07
  -2.89999992E-02   1.37732926E-07
  -2.89500002E-02   1.48525316E-07
  -2.88999993E-02   1.61003555E-07
  -2.88500004E-02   1.73297494E-07
  -2.87999995E-02   1.83341868E-07
  -2.87500005E-02   1.89785226E-07
  -2.86999997E-02   1.92580956E-07
  -2.86500007E-02   1.92999650E-07
  -2.85999998E-02   1.93062746E-07
  -2.85500009E-02   1.94643476E-07
  -2.85000000E-02   1.98616249E-07
  -2.84499992E-02   2.04422165E-07
  -2.84000002E-02   2.10256630E-07
  -2.83499993E-02   2.13823100E-07
  -2.83000004E-02   2.13337927E-07
  -2.82499995E-02   2.08333461E-07
  -2.82000005E-02   1.99878755E-07
  -2.81499997E-02   1.90103947E-07
  -2.81000007E-02   1.81241461E-07
  -2.80499998E-02   1.74619231E-07
  -2.80000009E-02   1.70055316E-07
  -2.79500000E-02   1.65913548E-07
  -2.78999992E-02   1.59792151E-07
  -2.78500002E-02   1.49559966E-07
  -2.77999993E-02   1.34308024E-07
  -2.77500004E-02   1.14799931E-07
  -2.76999995E-02   9.32004625E-08
  -2.76500005E-02   7.21702236E-08
  -2.75999997E-02   5.37121032E-08
  -2.75500007E-02   3.82899508E-08
  -2.74999999E-02   2.46310510E-08
  -2.74500009E-02   1.03080664E-08
  -2.74000000E-02  -7.16557436E-09
  -2.73499992E-02  -2.92140712E-08
  -2.73000002E-02  -5.55419213E-08
  -2.72499993E-02  -8.42138377E-08
  -2.72000004E-02  -1.12438876E-07
  -2.71499995E-02  -1.37742006E-07
  -2.71000005E-02  -1.59028247E-07
  -2.70499997E-02  -1.77064805E-07
  -2.70000007E-02  -1.94136945E-07
  -2.69499999E-02  -2.12998145E-07
  -2.69000009E-02  -2.35577403E-07
  -2.68500000E-02  -2.62038071E-07
  -2.67999992E-02  -2.90624257E-07
  -2.67500002E-02  -3.18369644E-07
  -2.66999993E-02  -3.42348216E-07
  -2.66500004E-02  -3.60914470E-07
  -2.65999995E-02  -3.74398610E-07
  -2.65500005E-02  -3.84952671E-07
  -2.64999997E-02  -3.95593275E-07
  -2.64500007E-02  -4.08827304E-07
  -2.63999999E-02  -4.25447439E-07
  -2.63500009E-02  -4.44053484E-07
  -2.63000000E-02  -4.61557619E-07
  -2.62499992E-02  -4.74486484E-07
  -2.62000002E-02  -4.80500887E-07
  -2.61499994E-02  -4.79440530E-07
  -2.61000004E-02  -4.73410154E-07
  -2.60499995E-02  -4.65860694E-07
  -2.60000005E-02  -4.60074745E-07
  -2.59499997E-02  -4.57703180E-07
  -2.59000007E-02  -4.57980093E-07
  -2.58499999E-02  -4.57974181E-07
  -2.58000009E-02  -4.53806166E-07
  -2.57500000E-02  -4.42332720E-07
  -2.56999992E-02  -4.22567865E-07
  -2.56500002E-02  -3.96180781E-07
  -2.55999994E-02  -3.66803931E-07
  -2.55500004E-02  -3.38435285E-07
  -2.54999995E-02  -3.13646495E-07
  -2.54500005E-02  -2.92423977E-07
  -2.53999997E-02  -2.72165693E-07
  -2.53500007E-02  -2.48837722E-07
  -2.52999999E-02  -2.18786738E-07
  -2.52500009E-02  -1.80415583E-07
  -2.52000000E-02  -1.34996426E-07
  -2.51499992E-02  -8.62314877E-08
  -2.51000002E-02  -3.87123720E-08
  -2.50499994E-02   4.08048173E-09
  -2.50000004E-02   4.13479064E-08
  -2.49499995E-02   7.53558709E-08
  -2.49000005E-02   1.10410504E-07
  -2.48499997E-02   1.50866271E-07
  -2.48000007E-02   1.99079139E-07
  -2.47499999E-02   2.54240007E-07
  -2.47000009E-02   3.12621893E-07
  -2.46500000E-02   3.69136842E-07
  -2.45999992E-02   4.19523872E-07
  -2.45500002E-02   4.62213706E-07
  -2.44999994E-02   4.99035025E-07
  -2.44500004E-02   5.34407775E-07
  -2.43999995E-02   5.73317891E-07
  -2.43500005E-02   6.18940589E-07
  -2.42999997E-02   6.71009161E-07
  -2.42500007E-02   7.25729592E-07
  -2.41999999E-02   7.77329660E-07
  -2.41500009E-02   8.20559251E-07
  -2.41000000E-02   8.52999335E-07
  -2.40499992E-02   8.76123806E-07
  -2.40000002E-02   8.94631171E-07
  -2.39499994E-02   9.14332816E-07
  -2.39000004E-02   9.39510699E-07
  -2.38499995E-02   9.70889687E-07
  -2.38000005E-02   1.00515012E-06
  -2.37499997E-02   1.03625337E-06
  -2.37000007E-02   1.05804975E-06
  -2.36499999E-02   1.06702475E-06
  -2.36000009E-02   1.06390246E-06
  -2.35500000E-02   1.05331469E-06
  -2.34999992E-02   1.04166179E-06
  -2.34500002E-02   1.03415016E-06
  -2.33999994E-02   1.03236300E-06
  -2.33500004E-02   1.03346395E-06
  -2.32999995E-02   1.03140758E-06
  -2.32500006E-02   1.01960200E-06
  -2.31999997E-02   9.93866706E-07
  -2.31500007E-02   9.54386564E-07
  -2.30999999E-02   9.05725756E-07
  -2.30500009E-02   8.54841744E-07
  -2.30000000E-02   8.07921083E-07
  -2.29499992E-02   7.67484323E-07
  -2.29000002E-02   7.31155808E-07
  -2.28499994E-02   6.92705044E-07
  -2.28000004E-02   6.44900638E-07
  -2.27499995E-02   5.82866278E-07
  -2.27000006E-02   5.06392439E-07
  -2.26499997E-02   4.20144715E-07
  -2.26000007E-02   3.31682088E-07
  -2.25499999E-02   2.48133802E-07
  -2.25000009E-02   1.73001339E-07
  -2.24500000E-02   1.04519948E-07
  -2.23999992E-02   3.63733683E-08
  -2.23500002E-02  -3.94581612E-08
  -2.22999994E-02  -1.28973724E-07
  -2.22500004E-02  -2.33270811E-07
  -2.21999995E-02  -3.47889113E-07
  -2.21500006E-02  -4.64738378E-07
  -2.20999997E-02  -5.75700824E-07
  -2.20500007E-02  -6.76238983E-07
  -2.19999999E-02  -7.67402867E-07
  -2.19500009E-02  -8.55325709E-07
  -2.19000001E-02  -9.48421814E-07
  -2.18499992E-02  -1.05351398E-06
  -2.18000002E-02  -1.17258855E-06
  -2.17499994E-02  -1.30169019E-06
  -2.17000004E-02  -1.43253089E-06
  -2.16499995E-02  -1.55613805E-06
  -2.16000006E-02  -1.66691689E-06
  -2.15499997E-02  -1.76520643E-06
  -2.15000007E-02  -1.85709655E-06
  -2.14499999E-02  -1.95158441E-06
  -2.14000009E-02  -2.05641345E-06
  -2.13500001E-02  -2.17449451E-06
  -2.12999992E-02  -2.30252226E-06
  -2.12500002E-02  -2.43239242E-06
  -2.11999994E-02  -2.55479358E-06
  -2.11500004E-02  -2.66342272E-06
  -2.10999995E-02  -2.75789898E-06
  -2.10500006E-02  -2.84401153E-06
  -2.09999997E-02  -2.93108292E-06
  -2.09500007E-02  -3.02761077E-06
  -2.08999999E-02  -3.13723353E-06
  -2.08500009E-02  -3.25688166E-06
  -2.08000001E-02  -3.37810820E-06
  -2.07499992E-02  -3.49093011E-06
  -2.07000002E-02  -3.58833245E-06
  -2.06499994E-02  -3.66948143E-06
  -2.06000004E-02  -3.74022284E-06
  -2.05499995E-02  -3.81053974E-06
  -2.05000006E-02  -3.89010347E-06
  -2.04499997E-02  -3.98386146E-06
  -2.04000007E-02  -4.08965889E-06
  -2.03499999E-02  -4.19914340E-06
  -2.03000009E-02  -4.30152522E-06
  -2.02500001E-02  -4.38850429E-06
  -2.01999992E-02  -4.45809610E-06
  -2.01500002E-02  -4.51558572E-06
  -2.00999994E-02  -4.57112037E-06
  -2.00500004E-02  -4.63508832E-06
  -1.99999996E-02  -4.71341855E-06
  -1.99500006E-02  -4.80490144E-06
  -1.98999997E-02  -4.90175307E-06
  -1.98500007E-02  -4.99308726E-06
  -1.97999999E-02  -5.06991091E-06
  -1.97500009E-02  -5.12935048E-06
  -1.97000001E-02  -5.17612261E-06
  -1.96499992E-02  -5.22054370E-06
  -1.96000002E-02  -5.27386055E-06
  -1.95499994E-02  -5.34307128E-06
  -1.95000004E-02  -5.42771068E-06
  -1.94499996E-02  -5.52017900E-06
  -1.94000006E-02  -5.60931448E-06
  -1.93499997E-02  -5.68552423E-06
  -1.93000007E-02  -5.74518435E-06
  -1.92499999E-02  -5.79242305E-06
  -1.92000009E-02  -5.83747942E-06
  -1.91500001E-02  -5.89221008E-06
  -1.90999992E-02  -5.96464315E-06
  -1.90500002E-02  -6.05535161E-06
  -1.89999994E-02  -6.15716681E-06
  -1.89500004E-02  -6.25841176E-06
  -1.88999996E-02  -6.34847493E-06
  -1.88500006E-02  -6.42286568E-06
  -1.87999997E-02  -6.48538935E-06
  -1.87500007E-02  -6.54655423E-06
  -1.86999999E-02  -6.61897775E-06
  -1.86500009E-02  -6.71175530E-06
  -1.86000001E-02  -6.82652899E-06
  -1.85499992E-02  -6.95684821E-06
  -1.85000002E-02  -7.09106916E-06
  -1.84499994E-02  -7.21770994E-06
  -1.84000004E-02  -7.33082425E-06
  -1.83499996E-02  -7.43307191E-06
  -1.83000006E-02  -7.53491213E-06
  -1.82499997E-02  -7.64997549E-06
  -1.82000007E-02  -7.78890717E-06
  -1.81499999E-02  -7.95465075E-06
  -1.81000009E-02  -8.14137638E-06
  -1.80500001E-02  -8.33762169E-06
  -1.79999992E-02  -8.53142501E-06
  -1.79500002E-02  -8.71565862E-06
  -1.78999994E-02  -8.89161220E-06
  -1.78500004E-02  -9.06877904E-06
  -1.77999996E-02  -9.26098710E-06
  -1.77500006E-02  -9.48022080E-06
  -1.76999997E-02  -9.73106125E-06
  -1.76500008E-02  -1.00088873E-05
  -1.75999999E-02  -1.03023976E-05
  -1.75500009E-02  -1.05991412E-05
  -1.75000001E-02  -1.08915838E-05
  -1.74499992E-02  -1.11806785E-05
  -1.74000002E-02  -1.14758577E-05
  -1.73499994E-02  -1.17911704E-05
  -1.73000004E-02  -1.21389630E-05
  -1.72499996E-02  -1.25247971E-05
  -1.72000006E-02  -1.29450664E-05
  -1.71499997E-02  -1.33885060E-05
  -1.71000008E-02  -1.38413407E-05
  -1.70499999E-02  -1.42940007E-05
  -1.70000009E-02  -1.47459814E-05
  -1.69500001E-02  -1.52064185E-05
  -1.68999992E-02  -1.56902333E-05
  -1.68500002E-02  -1.62113756E-05
  -1.67999994E-02  -1.67769031E-05
  -1.67500004E-02  -1.73842964E-05
  -1.66999996E-02  -1.80230290E-05
  -1.66500006E-02  -1.86794641E-05
  -1.65999997E-02  -1.93430078E-05
  -1.65500008E-02  -2.00110426E-05
  -1.64999999E-02  -2.06908844E-05
  -1.64500009E-02  -2.13970361E-05
  -1.64000001E-02  -2.21446262E-05
  -1.63499992E-02  -2.29425877E-05
  -1.63000003E-02  -2.37893673E-05
  -1.62499994E-02  -2.46740055E-05
  -1.62000004E-02  -2.55817358E-05
  -1.61499996E-02  -2.65006784E-05
  -1.61000006E-02  -2.74270587E-05
  -1.60499997E-02  -2.83669397E-05
  -1.60000008E-02  -2.93337071E-05
  -1.59499999E-02  -3.03426659E-05
  -1.59000009E-02  -3.14043973E-05
  -1.58500001E-02  -3.25196634E-05
  -1.57999992E-02  -3.36787161E-05
  -1.57500003E-02  -3.48659742E-05
  -1.56999994E-02  -3.60675622E-05
  -1.56500004E-02  -3.72780414E-05
  -1.55999996E-02  -3.85024468E-05
  -1.55499997E-02  -3.97536460E-05
  -1.54999997E-02  -4.10471075E-05
  -1.54499998E-02  -4.23938945E-05
  -1.53999999E-02  -4.37950039E-05
  -1.53500000E-02  -4.52413333E-05
  -1.53000001E-02  -4.67176069E-05
  -1.52500002E-02  -4.82085088E-05
  -1.52000003E-02  -4.97067158E-05
  -1.51500003E-02  -5.12157967E-05
  -1.51000004E-02  -5.27481752E-05
  -1.50499996E-02  -5.43204042E-05
  -1.49999997E-02  -5.59455293E-05
  -1.49499997E-02  -5.76265484E-05
  -1.48999998E-02  -5.93549848E-05
  -1.48499999E-02  -6.11149808E-05
  -1.48000000E-02  -6.28898706E-05
  -1.47500001E-02  -6.46698463E-05
  -1.47000002E-02  -6.64573454E-05
  -1.46500003E-02  -6.82646714E-05
  -1.46000003E-02  -7.01082536E-05
  -1.45500004E-02  -7.20013268E-05
  -1.44999996E-02  -7.39487150E-05
  -1.44499997E-02  -7.59457107E-05
  -1.43999998E-02  -7.79781549E-05
  -1.43499998E-02  -8.00285634E-05
  -1.42999999E-02  -8.20849527E-05
  -1.42500000E-02  -8.41468136E-05
  -1.42000001E-02  -8.62257948E-05
  -1.41500002E-02  -8.83397952E-05
  -1.41000003E-02  -9.05041161E-05
  -1.40500003E-02  -9.27247238E-05
  -1.40000004E-02  -9.49962850E-05
  -1.39499996E-02  -9.73054630E-05
  -1.38999997E-02  -9.96371309E-05
  -1.38499998E-02  -1.01979727E-04
  -1.37999998E-02  -1.04330931E-04
  -1.37499999E-02  -1.06701460E-04
  -1.37000000E-02  -1.09109526E-04
  -1.36500001E-02  -1.11571106E-04
  -1.36000002E-02  -1.14095477E-04
  -1.35500003E-02  -1.16681724E-04
  -1.35000004E-02  -1.19316675E-04
  -1.34500004E-02  -1.21983416E-04
  -1.33999996E-02  -1.24669488E-04
  -1.33499997E-02  -1.27371488E-04
  -1.32999998E-02  -1.30098735E-04
  -1.32499998E-02  -1.32870860E-04
  -1.31999999E-02  -1.35708033E-04
  -1.31500000E-02  -1.38621166E-04
  -1.31000001E-02  -1.41608078E-04
  -1.30500002E-02  -1.44656296E-04
  -1.30000003E-02  -1.47751663E-04
  -1.29500004E-02  -1.50883570E-04
  -1.29000004E-02  -1.54047972E-04
  -1.28499996E-02  -1.57251794E-04
  -1.27999997E-02  -1.60511903E-04
  -1.27499998E-02  -1.63850345E-04
  -1.26999998E-02  -1.67284830E-04
  -1.26499999E-02  -1.70820102E-04
  -1.26000000E-02  -1.74446715E-04
  -1.25500001E-02  -1.78144415E-04
  -1.25000002E-02  -1.81898649E-04
  -1.24500003E-02  -1.85709054E-04
  -1.24000004E-02  -1.89584505E-04
  -1.23500004E-02  -1.93541273E-04
  -1.22999996E-02  -1.97595291E-04
  -1.22499997E-02  -2.01757823E-04
  -1.21999998E-02  -2.06035358E-04
  -1.21499998E-02  -2.10425205E-04
  -1.20999999E-02  -2.14914340E-04
  -1.20500000E-02  -2.19488153E-04
  -1.20000001E-02  -2.24141186E-04
  -1.19500002E-02  -2.28882272E-04
  -1.19000003E-02  -2.33733648E-04
  -1.18500004E-02  -2.38719294E-04
  -1.18000004E-02  -2.43855568E-04
  -1.17499996E-02  -2.49148055E-04
  -1.16999997E-02  -2.54591781E-04
  -1.16499998E-02  -2.60172499E-04
  -1.15999999E-02  -2.65872135E-04
  -1.15499999E-02  -2.71680183E-04
  -1.15000000E-02  -2.77599029E-04
  -1.14500001E-02  -2.83641595E-04
  -1.14000002E-02  -2.89826945E-04
  -1.13500003E-02  -2.96176760E-04
  -1.13000004E-02  -3.02701083E-04
  -1.12500004E-02  -3.09396215E-04
  -1.11999996E-02  -3.16253689E-04
  -1.11499997E-02  -3.23260669E-04
  -1.10999998E-02  -3.30412469E-04
  -1.10499999E-02  -3.37720645E-04
  -1.09999999E-02  -3.45202454E-04
  -1.09500000E-02  -3.52876814E-04
  -1.09000001E-02  -3.60762759E-04
  -1.08500002E-02  -3.68870213E-04
  -1.08000003E-02  -3.77193966E-04
  -1.07500004E-02  -3.85715190E-04
  -1.07000005E-02  -3.94417439E-04
  -1.06499996E-02  -4.03292623E-04
  -1.05999997E-02  -4.12341964E-04
  -1.05499998E-02  -4.21576347E-04
  -1.04999999E-02  -4.31010383E-04
  -1.04499999E-02  -4.40664066E-04
  -1.04000000E-02  -4.50551801E-04
  -1.03500001E-02  -4.60674986E-04
  -1.03000002E-02  -4.71024046E-04
  -1.02500003E-02  -4.81578609E-04
  -1.02000004E-02  -4.92325868E-04
  -1.01500005E-02  -5.03271760E-04
  -1.00999996E-02  -5.14438725E-04
  -1.00499997E-02  -5.25848300E-04
  -9.99999978E-03  -5.37517364E-04
  -9.94999986E-03  -5.49460063E-04
  -9.89999995E-03  -5.61676803E-04
  -9.85000003E-03  -5.74170437E-04
  -9.80000012E-03  -5.86933806E-04
  -9.75000020E-03  -5.99943858E-04
  -9.70000029E-03  -6.13198150E-04
  -9.65000037E-03  -6.26716122E-04
  -9.60000046E-03  -6.40514423E-04
  -9.54999961E-03  -6.54606731E-04
  -9.49999969E-03  -6.69000321E-04
  -9.44999978E-03  -6.83684542E-04
  -9.39999986E-03  -6.98646065E-04
  -9.34999995E-03  -7.13870279E-04
  -9.30000003E-03  -7.29342224E-04
  -9.25000012E-03  -7.45056197E-04
  -9.20000020E-03  -7.61015166E-04
  -9.15000029E-03  -7.77247595E-04
  -9.10000037E-03  -7.93791318E-04
  -9.05000046E-03  -8.10665952E-04
  -8.99999961E-03  -8.27876676E-04
  -8.94999970E-03  -8.45405855E-04
  -8.89999978E-03  -8.63235269E-04
  -8.84999987E-03  -8.81368469E-04
  -8.79999995E-03  -8.99826700E-04
  -8.75000004E-03  -9.18626902E-04
  -8.70000012E-03  -9.37764184E-04
  -8.65000021E-03  -9.57240758E-04
  -8.60000029E-03  -9.77073330E-04
  -8.55000038E-03  -9.97288036E-04
  -8.50000046E-03  -1.01789238E-03
  -8.44999962E-03  -1.03884982E-03
  -8.39999970E-03  -1.06011098E-03
  -8.34999979E-03  -1.08166202E-03
  -8.29999987E-03  -1.10353250E-03
  -8.24999996E-03  -1.12576538E-03
  -8.20000004E-03  -1.14838465E-03
  -8.15000013E-03  -1.17137097E-03
  -8.10000021E-03  -1.19469641E-03
  -8.05000030E-03  -1.21836597E-03
  -8.00000038E-03  -1.24239572E-03
  -7.95000046E-03  -1.26678601E-03
  -7.89999962E-03  -1.29151670E-03
  -7.84999970E-03  -1.31658057E-03
  -7.79999979E-03  -1.34200032E-03
  -7.74999987E-03  -1.36782636E-03
  -7.69999996E-03  -1.39408919E-03
  -7.65000004E-03  -1.42077741E-03
  -7.60000013E-03  -1.44786236E-03
  -7.55000021E-03  -1.47532008E-03
  -7.49999983E-03  -1.50315824E-03
  -7.44999992E-03  -1.53139990E-03
  -7.40000000E-03  -1.56005414E-03
  -7.35000009E-03  -1.58910663E-03
  -7.30000017E-03  -1.61854608E-03
  -7.24999979E-03  -1.64841674E-03
  -7.19999988E-03  -1.67876668E-03
  -7.14999996E-03  -1.70958589E-03
  -7.10000005E-03  -1.74080976E-03
  -7.05000013E-03  -1.77236996E-03
  -7.00000022E-03  -1.80426799E-03
  -6.94999984E-03  -1.83656777E-03
  -6.89999992E-03  -1.86931761E-03
  -6.85000001E-03  -1.90249819E-03
  -6.80000009E-03  -1.93607481E-03
  -6.75000018E-03  -1.97003433E-03
  -6.69999979E-03  -2.00440595E-03
  -6.64999988E-03  -2.03925185E-03
  -6.59999996E-03  -2.07457040E-03
  -6.55000005E-03  -2.11027754E-03
  -6.50000013E-03  -2.14632018E-03
  -6.45000022E-03  -2.18277611E-03
  -6.39999984E-03  -2.21976964E-03
  -6.34999992E-03  -2.25732499E-03
  -6.30000001E-03  -2.29536556E-03
  -6.25000009E-03  -2.33382778E-03
  -6.20000018E-03  -2.37272261E-03
  -6.14999980E-03  -2.41209287E-03
  -6.09999988E-03  -2.45195767E-03
  -6.04999997E-03  -2.49226973E-03
  -6.00000005E-03  -2.53298879E-03
  -5.95000014E-03  -2.57415231E-03
  -5.90000022E-03  -2.61585531E-03
  -5.84999984E-03  -2.65812618E-03
  -5.79999993E-03  -2.70088203E-03
  -5.75000001E-03  -2.74403975E-03
  -5.70000010E-03  -2.78759794E-03
  -5.65000018E-03  -2.83158454E-03
  -5.59999980E-03  -2.87603214E-03
  -5.54999989E-03  -2.92097684E-03
  -5.49999997E-03  -2.96642934E-03
  -5.45000006E-03  -3.01239081E-03
  -5.40000014E-03  -3.05888406E-03
  -5.35000023E-03  -3.10593541E-03
  -5.29999984E-03  -3.15355090E-03
  -5.24999993E-03  -3.20170098E-03
  -5.20000001E-03  -3.25033674E-03
  -5.15000010E-03  -3.29945353E-03
  -5.10000018E-03  -3.34913237E-03
  -5.04999980E-03  -3.39946360E-03
  -4.99999989E-03  -3.45047191E-03
  -4.94999997E-03  -3.50211048E-03
  -4.90000006E-03  -3.55429086E-03
  -4.85000014E-03  -3.60696949E-03
  -4.80000023E-03  -3.66019178E-03
  -4.74999985E-03  -3.71398847E-03
  -4.69999993E-03  -3.76833580E-03
  -4.65000002E-03  -3.82318441E-03
  -4.60000010E-03  -3.87852802E-03
  -4.55000019E-03  -3.93448398E-03
  -4.49999981E-03  -3.99113772E-03
  -4.44999989E-03  -4.04848484E-03
  -4.39999998E-03  -4.10647457E-03
  -4.35000006E-03  -4.16499563E-03
  -4.30000015E-03  -4.22400096E-03
  -4.25000023E-03  -4.28358791E-03
  -4.19999985E-03  -4.34389664E-03
  -4.14999994E-03  -4.40503517E-03
  -4.10000002E-03  -4.46696486E-03
  -4.05000011E-03  -4.52955486E-03
  -4.00000019E-03  -4.59281122E-03
  -3.94999981E-03  -4.65680799E-03
  -3.89999989E-03  -4.72156378E-03
  -3.84999998E-03  -4.78701759E-03
  -3.80000006E-03  -4.85306233E-03
  -3.74999992E-03  -4.91966680E-03
  -3.70000000E-03  -4.98696091E-03
  -3.65000009E-03  -5.05515607E-03
  -3.59999994E-03  -5.12427045E-03
  -3.55000002E-03  -5.19410055E-03
  -3.50000011E-03  -5.26449457E-03
  -3.44999996E-03  -5.33550512E-03
  -3.40000005E-03  -5.40728262E-03
  -3.34999990E-03  -5.47984429E-03
  -3.29999998E-03  -5.55305462E-03
  -3.25000007E-03  -5.62689826E-03
  -3.19999992E-03  -5.70154609E-03
  -3.15000000E-03  -5.77716157E-03
  -3.10000009E-03  -5.85377077E-03
  -3.04999994E-03  -5.93123538E-03
  -3.00000003E-03  -6.00931700E-03
  -2.95000011E-03  -6.08799560E-03
  -2.89999996E-03  -6.16744952E-03
  -2.85000005E-03  -6.24781009E-03
  -2.79999990E-03  -6.32908195E-03
  -2.74999999E-03  -6.41125860E-03
  -2.70000007E-03  -6.49434747E-03
  -2.64999992E-03  -6.57831365E-03
  -2.60000001E-03  -6.66321581E-03
  -2.55000009E-03  -6.74898783E-03
  -2.49999994E-03  -6.83536520E-03
  -2.45000003E-03  -6.92240242E-03
  -2.40000011E-03  -7.01031135E-03
  -2.34999997E-03  -7.09916791E-03
  -2.30000005E-03  -7.18891574E-03
  -2.24999990E-03  -7.27946311E-03
  -2.19999999E-03  -7.37085426E-03
  -2.15000007E-03  -7.46317301E-03
  -2.09999993E-03  -7.55645009E-03
  -2.05000001E-03  -7.65050156E-03
  -2.00000009E-03  -7.74518913E-03
  -1.94999995E-03  -7.84060545E-03
  -1.90000003E-03  -7.93696940E-03
  -1.85000000E-03  -8.03441461E-03
  -1.79999997E-03  -8.13294481E-03
  -1.75000005E-03  -8.23249388E-03
  -1.70000002E-03  -8.33290443E-03
  -1.64999999E-03  -8.43414199E-03
  -1.59999996E-03  -8.53618048E-03
  -1.55000004E-03  -8.63909349E-03
  -1.50000001E-03  -8.74298438E-03
  -1.44999998E-03  -8.84772558E-03
  -1.39999995E-03  -8.95318016E-03
  -1.35000004E-03  -9.05959960E-03
  -1.30000000E-03  -9.16727446E-03
  -1.24999997E-03  -9.27600171E-03
  -1.20000006E-03  -9.38552339E-03
  -1.15000003E-03  -9.49571840E-03
  -1.09999999E-03  -9.60653368E-03
  -1.04999996E-03  -9.71811265E-03
  -1.00000005E-03  -9.83073749E-03
  -9.50000016E-04  -9.94439051E-03
  -8.99999985E-04  -1.00589870E-02
  -8.50000011E-04  -1.01746535E-02
  -7.99999980E-04  -1.02913715E-02
  -7.50000007E-04  -1.04090376E-02
  -6.99999975E-04  -1.05276117E-02
  -6.50000002E-04  -1.06469337E-02
  -6.00000028E-04  -1.07669188E-02
  -5.49999997E-04  -1.08878249E-02
  -5.00000024E-04  -1.10098384E-02
  -4.49999992E-04  -1.11329043E-02
  -3.99999990E-04  -1.12571074E-02
  -3.49999988E-04  -1.13824727E-02
  -3.00000014E-04  -1.15087694E-02
  -2.50000012E-04  -1.16358120E-02
  -1.99999995E-04  -1.17636072E-02
  -1.50000007E-04  -1.18922992E-02
  -9.99999975E-05  -1.20219095E-02
  -4.99999987E-05  -1.21524148E-02
   0.00000000      -1.22838868E-02
   4.99999987E-05  -1.24164224E-02
   9.99999975E-05  -1.25502376E-02
   1.50000007E-04  -1.26853138E-02
   1.99999995E-04  -1.28211286E-02
   2.50000012E-04  -1.29571492E-02
   3.00000014E-04  -1.30935730E-02
   3.49999988E-04  -1.32310996E-02
   3.99999990E-04  -1.33702783E-02
   4.49999992E-04  -1.35110226E-02
   5.00000024E-04  -1.36524169E-02
   5.49999997E-04  -1.37942117E-02
   6.00000028E-04  -1.39370076E-02
   6.50000002E-04  -1.40813906E-02
   6.99999975E-04  -1.42271258E-02
   7.50000007E-04  -1.43734608E-02
   7.99999980E-04  -1.45201134E-02
   8.50000011E-04  -1.46675240E-02
   8.99999985E-04  -1.48164285E-02
   9.50000016E-04  -1.49669386E-02
   1.00000005E-03  -1.51186641E-02
   1.04999996E-03  -1.52712297E-02
   1.09999999E-03  -1.54243559E-02
   1.15000003E-03  -1.55780194E-02
   1.20000006E-03  -1.57325212E-02
   1.24999997E-03  -1.58881675E-02
   1.30000000E-03  -1.60450730E-02
   1.35000004E-03  -1.62027702E-02
   1.39999995E-03  -1.63611807E-02
   1.44999998E-03  -1.65207740E-02
   1.50000001E-03  -1.66819096E-02
   1.55000004E-03  -1.68444440E-02
   1.59999996E-03  -1.70076732E-02
   1.64999999E-03  -1.71711631E-02
   1.70000002E-03  -1.73353944E-02
   1.75000005E-03  -1.75010711E-02
   1.79999997E-03  -1.76684614E-02
   1.85000000E-03  -1.78371668E-02
   1.90000003E-03  -1.80065427E-02
   1.94999995E-03  -1.81765966E-02
   2.00000009E-03  -1.83478352E-02
   2.05000001E-03  -1.85207110E-02
   2.09999993E-03  -1.86946802E-02
   2.15000007E-03  -1.88689213E-02
   2.19999999E-03  -1.90434009E-02
   2.24999990E-03  -1.92190502E-02
   2.30000005E-03  -1.93969011E-02
   2.34999997E-03  -1.95765570E-02
   2.40000011E-03  -1.97568294E-02
   2.45000003E-03  -1.99372042E-02
   2.49999994E-03  -2.01183520E-02
   2.55000009E-03  -2.03011706E-02
   2.60000001E-03  -2.04854496E-02
   2.64999992E-03  -2.06705872E-02
   2.70000007E-03  -2.08562370E-02
   2.74999999E-03  -2.10427530E-02
   2.79999990E-03  -2.12311335E-02