  -3.99999991E-02   0.00000000    
  -3.99499983E-02   0.00000000    
  -3.99000011E-02   0.00000000    
  -3.98500003E-02   0.00000000    
  -3.97999994E-02   2.90524288E-19
  -3.97499986E-02   2.30966818E-18
  -3.97000015E-02   9.79674584E-18
  -3.96500006E-02   2.94471732E-17
  -3.95999998E-02   7.08738407E-17
  -3.95499989E-02   1.47121179E-16
  -3.95000018E-02   2.76798932E-16
  -3.94500010E-02   4.85680116E-16
  -3.94000001E-02   8.02775370E-16
  -3.93499993E-02   1.24923183E-15
  -3.92999984E-02   1.82756655E-15
  -3.92500013E-02   2.52392207E-15
  -3.92000005E-02   3.32779064E-15
  -3.91499996E-02   4.25682040E-15
  -3.90999988E-02   5.36655554E-15
  -3.90500017E-02   6.73726915E-15
  -3.90000008E-02   8.45064104E-15
  -3.89500000E-02   1.05746236E-14
  -3.88999991E-02   1.31592659E-14
  -3.88499983E-02   1.62307843E-14
  -3.88000011E-02   1.97790003E-14
  -3.87500003E-02   2.37563434E-14
  -3.86999995E-02   2.81103316E-14
  -3.86499986E-02   3.28394470E-14
  -3.86000015E-02   3.80250234E-14
  -3.85500006E-02   4.37981730E-14
  -3.84999998E-02   5.02565586E-14
  -3.84499989E-02   5.73956776E-14
  -3.84000018E-02   6.51062320E-14
  -3.83500010E-02   7.32234707E-14
  -3.83000001E-02   8.15695168E-14
  -3.82499993E-02   8.99567218E-14
  -3.81999984E-02   9.81819538E-14
  -3.81500013E-02   1.06058005E-13
  -3.81000005E-02   1.13472084E-13
  -3.80499996E-02   1.20404581E-13
  -3.79999988E-02   1.26864543E-13
  -3.79500017E-02   1.32788596E-13
  -3.79000008E-02   1.37999028E-13
  -3.78500000E-02   1.42255023E-13
  -3.77999991E-02   1.45322299E-13
  -3.77499983E-02   1.46961328E-13
  -3.77000012E-02   1.46836807E-13
  -3.76500003E-02   1.44464180E-13
  -3.75999995E-02   1.39290082E-13
  -3.75499986E-02   1.30857781E-13
  -3.75000015E-02   1.18899980E-13
  -3.74500006E-02   1.03258954E-13
  -3.73999998E-02   8.37058016E-14
  -3.73499990E-02   5.98216070E-14
  -3.73000018E-02   3.10244113E-14
  -3.72500010E-02  -3.31950772E-15
  -3.72000001E-02  -4.37887235E-14
  -3.71499993E-02  -9.07922012E-14
  -3.70999984E-02  -1.44372456E-13
  -3.70500013E-02  -2.03965127E-13
  -3.70000005E-02  -2.68338899E-13
  -3.69499996E-02  -3.35939284E-13
  -3.68999988E-02  -4.05586318E-13
  -3.68500017E-02  -4.77141005E-13
  -3.68000008E-02  -5.51696059E-13
  -3.67500000E-02  -6.31138533E-13
  -3.66999991E-02  -7.17322144E-13
  -3.66499983E-02  -8.11248096E-13
  -3.66000012E-02  -9.12542503E-13
  -3.65500003E-02  -1.01934336E-12
  -3.64999995E-02  -1.12865609E-12
  -3.64499986E-02  -1.23719264E-12
  -3.64000015E-02  -1.34249892E-12
  -3.63500006E-02  -1.44383648E-12
  -3.62999998E-02  -1.54218890E-12
  -3.62499990E-02  -1.63916905E-12
  -3.62000018E-02  -1.73533312E-12
  -3.61500010E-02  -1.82888947E-12
  -3.61000001E-02  -1.91560786E-12
  -3.60499993E-02  -1.99001210E-12
  -3.59999985E-02  -2.04725299E-12
  -3.59500013E-02  -2.08481149E-12
  -3.59000005E-02  -2.10334636E-12
  -3.58499996E-02  -2.10629235E-12
  -3.57999988E-02  -2.09814674E-12
  -3.57500017E-02  -2.08186962E-12
  -3.57000008E-02  -2.05643640E-12
  -3.56500000E-02  -2.01592475E-12
  -3.55999991E-02  -1.95102181E-12
  -3.55499983E-02  -1.85257755E-12
  -3.55000012E-02  -1.71552811E-12
  -3.54500003E-02  -1.54111988E-12
  -3.53999995E-02  -1.33622399E-12
  -3.53499986E-02  -1.11000846E-12
  -3.53000015E-02  -8.69447472E-13
  -3.52500007E-02  -6.15581100E-13
  -3.51999998E-02  -3.42122299E-13
  -3.51499990E-02  -3.72659701E-14
  -3.51000018E-02   3.11599406E-13
  -3.50500010E-02   7.11928455E-13
  -3.50000001E-02   1.16150709E-12
  -3.49499993E-02   1.64793027E-12
  -3.48999985E-02   2.15290199E-12
  -3.48500013E-02   2.65964182E-12
  -3.48000005E-02   3.15985129E-12
  -3.47499996E-02   3.65677107E-12
  -3.46999988E-02   4.16280161E-12
  -3.46500017E-02   4.69271583E-12
  -3.46000008E-02   5.25543281E-12
  -3.45500000E-02   5.84786603E-12
  -3.44999991E-02   6.45364664E-12
  -3.44499983E-02   7.04777903E-12
  -3.44000012E-02   7.60577192E-12
  -3.43500003E-02   8.11345435E-12
  -3.42999995E-02   8.57263219E-12
  -3.42499986E-02   8.99918074E-12
  -3.42000015E-02   9.41380481E-12
  -3.41500007E-02   9.82959374E-12
  -3.40999998E-02   1.02424180E-11
  -3.40499990E-02   1.06289751E-11
  -3.40000018E-02   1.09536226E-11
  -3.39500010E-02   1.11811480E-11
  -3.39000002E-02   1.12900305E-11
  -3.38499993E-02   1.12803863E-11
  -3.37999985E-02   1.11726817E-11
  -3.37500013E-02   1.09969612E-11
  -3.37000005E-02   1.07766521E-11
  -3.36499996E-02   1.05141815E-11
  -3.35999988E-02   1.01857307E-11
  -3.35500017E-02   9.74865241E-12
  -3.35000008E-02   9.15887331E-12
  -3.34500000E-02   8.39036739E-12
  -3.33999991E-02   7.44743416E-12
  -3.33499983E-02   6.36378710E-12
  -3.33000012E-02   5.18852496E-12
  -3.32500003E-02   3.96483801E-12
  -3.31999995E-02   2.71051953E-12
  -3.31499986E-02   1.40896420E-12
  -3.31000015E-02   1.53625061E-14
  -3.30500007E-02  -1.52347926E-12
  -3.29999998E-02  -3.24369828E-12
  -3.29499990E-02  -5.14487324E-12
  -3.29000019E-02  -7.18618134E-12
  -3.28500010E-02  -9.30090987E-12
  -3.28000002E-02  -1.14230101E-11
  -3.27499993E-02  -1.35133398E-11
  -3.26999985E-02  -1.55732510E-11
  -3.26500013E-02  -1.76391332E-11
  -3.26000005E-02  -1.97602351E-11
  -3.25499997E-02  -2.19693864E-11
  -3.24999988E-02  -2.42595458E-11
  -3.24500017E-02  -2.65771120E-11
  -3.24000008E-02  -2.88362285E-11
  -3.23500000E-02  -3.09490801E-11
  -3.22999991E-02  -3.28590835E-11
  -3.22499983E-02  -3.45613017E-11
  -3.22000012E-02  -3.60993874E-11
  -3.21500003E-02  -3.75394160E-11
  -3.20999995E-02  -3.89323053E-11
  -3.20499986E-02  -4.02821873E-11
  -3.20000015E-02  -4.15355875E-11
  -3.19500007E-02  -4.25965443E-11
  -3.18999998E-02  -4.33614603E-11
  -3.18499990E-02  -4.37588507E-11
  -3.18000019E-02  -4.37765449E-11
  -3.17500010E-02  -4.34636355E-11
  -3.17000002E-02  -4.29046902E-11
  -3.16499993E-02  -4.21765088E-11
  -3.15999985E-02  -4.13066387E-11
  -3.15500014E-02  -4.02535609E-11
  -3.15000005E-02  -3.89190034E-11
  -3.14499997E-02  -3.71877633E-11
  -3.13999988E-02  -3.49771254E-11
  -3.13500017E-02  -3.22733645E-11
  -3.13000008E-02  -2.91390072E-11
  -3.12500000E-02  -2.56874192E-11
  -3.11999992E-02  -2.20355730E-11
  -3.11500002E-02  -1.82550728E-11
  -3.10999993E-02  -1.43428446E-11
  -3.10500003E-02  -1.02255097E-11
  -3.09999995E-02  -5.79696664E-12
  -3.09500005E-02  -9.73446042E-13
  -3.08999997E-02   4.25916507E-12
  -3.08500007E-02   9.82832045E-12
  -3.07999998E-02   1.55969074E-11
  -3.07500008E-02   2.14145212E-11
  -3.07000000E-02   2.71744606E-11
  -3.06499992E-02   3.28505695E-11
  -3.06000002E-02   3.84975593E-11
  -3.05499993E-02   4.42145799E-11
  -3.05000003E-02   5.00875279E-11
  -3.04499995E-02   5.61349751E-11
  -3.04000005E-02   6.22818672E-11
  -3.03499997E-02   6.83743895E-11
  -3.03000007E-02   7.42312392E-11
  -3.02499998E-02   7.97091421E-11
  -3.02000009E-02   8.47523024E-11
  -3.01500000E-02   8.94020760E-11
  -3.00999992E-02   9.37619843E-11
  -3.00500002E-02   9.79340567E-11
  -2.99999993E-02   1.01955354E-10
  -2.99500003E-02   1.05763120E-10
  -2.98999995E-02   1.09204069E-10
  -2.98500005E-02   1.12084189E-10
  -2.97999997E-02   1.14238993E-10
  -2.97500007E-02   1.15593972E-10
  -2.96999998E-02   1.16188351E-10
  -2.96500009E-02   1.16149451E-10
  -2.96000000E-02   1.15627209E-10
  -2.95499992E-02   1.14717680E-10
  -2.95000002E-02   1.13410545E-10
  -2.94499993E-02   1.11584783E-10
  -2.94000003E-02   1.09054522E-10
  -2.93499995E-02   1.05644035E-10
  -2.93000005E-02   1.01258980E-10
  -2.92499997E-02   9.59234636E-11
  -2.92000007E-02   8.97674851E-11
  -2.91499998E-02   8.29699781E-11
  -2.91000009E-02   7.56808435E-11
  -2.90500000E-02   6.79561893E-11
  -2.89999992E-02   5.97360425E-11
  -2.89500002E-02   5.08767160E-11
  -2.88999993E-02   4.12241456E-11
  -2.88500004E-02   3.06950958E-11
  -2.87999995E-02   1.93284260E-11
  -2.87500005E-02   7.28322524E-12
  -2.86999997E-02  -5.21488191E-12
  -2.86500007E-02  -1.79551166E-11
  -2.85999998E-02  -3.08152809E-11
  -2.85500009E-02  -4.37964907E-11
  -2.85000000E-02  -5.70037177E-11
  -2.84499992E-02  -7.05787789E-11
  -2.84000002E-02  -8.46136633E-11
  -2.83499993E-02  -9.90821453E-11
  -2.83000004E-02  -1.13821480E-10
  -2.82499995E-02  -1.28574915E-10
  -2.82000005E-02  -1.43076578E-10
  -2.81499997E-02  -1.57140648E-10
  -2.81000007E-02  -1.70713985E-10
  -2.80499998E-02  -1.83869184E-10
  -2.80000009E-02  -1.96741776E-10
  -2.79500000E-02  -2.09438661E-10
  -2.78999992E-02  -2.21957022E-10
  -2.78500002E-02  -2.34147979E-10
  -2.77999993E-02  -2.45742565E-10
  -2.77500004E-02  -2.56432153E-10
  -2.76999995E-02  -2.65970107E-10
  -2.76500005E-02  -2.74250261E-10
  -2.75999997E-02  -2.81326101E-10
  -2.75500007E-02  -2.87360330E-10
  -2.74999999E-02  -2.92526559E-10
  -2.74500009E-02  -2.96907526E-10
  -2.74000000E-02  -3.00434483E-10
  -2.73499992E-02  -3.02893904E-10
  -2.73000002E-02  -3.03998271E-10
  -2.72499993E-02  -3.03490233E-10
  -2.72000004E-02  -3.01237923E-10
  -2.71499995E-02  -2.97279840E-10
  -2.71000005E-02  -2.91798807E-10
  -2.70499997E-02  -2.85032581E-10
  -2.70000007E-02  -2.77159878E-10
  -2.69499999E-02  -2.68212785E-10
  -2.69000009E-02  -2.58057520E-10
  -2.68500000E-02  -2.46452636E-10
  -2.67999992E-02  -2.33158992E-10
  -2.67500002E-02  -2.18051868E-10
  -2.66999993E-02  -2.01185471E-10
  -2.66500004E-02  -1.82782386E-10
  -2.65999995E-02  -1.63152186E-10
  -2.65500005E-02  -1.42572870E-10
  -2.64999997E-02  -1.21185784E-10
  -2.64500007E-02  -9.89509308E-11
  -2.63999999E-02  -7.56863738E-11
  -2.63500009E-02  -5.11776697E-11
  -2.63000000E-02  -2.53102157E-11
  -2.62499992E-02   1.83722352E-12
  -2.62000002E-02   2.99829155E-11
  -2.61499994E-02   5.87225893E-11
  -2.61000004E-02   8.76647782E-11
  -2.60499995E-02   1.16561441E-10
  -2.60000005E-02   1.45376849E-10
  -2.59499997E-02   1.74264408E-10
  -2.59000007E-02   2.03459319E-10
  -2.58499999E-02   2.33130959E-10
  -2.58000009E-02   2.63257693E-10
  -2.57500000E-02   2.93581603E-10
  -2.56999992E-02   3.23667676E-10
  -2.56500002E-02   3.53044705E-10
  -2.55999994E-02   3.81366383E-10
  -2.55500004E-02   4.08517331E-10
  -2.54999995E-02   4.34616509E-10
  -2.54500005E-02   4.59914801E-10
  -2.53999997E-02   4.84634277E-10
  -2.53500007E-02   5.08818876E-10
  -2.52999999E-02   5.32263900E-10
  -2.52500009E-02   5.54555346E-10
  -2.52000000E-02   5.75204551E-10
  -2.51499992E-02   5.93821992E-10
  -2.51000002E-02   6.10254625E-10
  -2.50499994E-02   6.24621466E-10
  -2.50000004E-02   6.37227882E-10
  -2.49499995E-02   6.48393561E-10
  -2.49000005E-02   6.58273547E-10
  -2.48499997E-02   6.66755040E-10
  -2.48000007E-02   6.73478662E-10
  -2.47499999E-02   6.77973844E-10
  -2.47000009E-02   6.79847068E-10
  -2.46500000E-02   6.78938294E-10
  -2.45999992E-02   6.75376755E-10
  -2.45500002E-02   6.69508005E-10
  -2.44999994E-02   6.61723287E-10
  -2.44500004E-02   6.52263965E-10
  -2.43999995E-02   6.41089237E-10
  -2.43500005E-02   6.27873753E-10
  -2.42999997E-02   6.12141282E-10
  -2.42500007E-02   5.93475935E-10
  -2.41999999E-02   5.71713010E-10
  -2.41500009E-02   5.47019152E-10
  -2.41000000E-02   5.19823740E-10
  -2.40499992E-02   4.90631202E-10
  -2.40000002E-02   4.59798977E-10
  -2.39499994E-02   4.27377744E-10
  -2.39000004E-02   3.93086202E-10
  -2.38499995E-02   3.56433882E-10
  -2.38000005E-02   3.16942333E-10
  -2.37499997E-02   2.74368334E-10
  -2.37000007E-02   2.28826513E-10
  -2.36499999E-02   1.80750123E-10
  -2.36000009E-02   1.30704378E-10
  -2.35500000E-02   7.91361560E-11
  -2.34999992E-02   2.61772218E-11
  -2.34500002E-02  -2.84088829E-11
  -2.33999994E-02  -8.51131110E-11
  -2.33500004E-02  -1.44453574E-10
  -2.32999995E-02  -2.06737016E-10
  -2.32500006E-02  -2.71915185E-10
  -2.31999997E-02  -3.39601097E-10
  -2.31500007E-02  -4.09241530E-10
  -2.30999999E-02  -4.80370965E-10
  -2.30500009E-02  -5.52832558E-10
  -2.30000000E-02  -6.26861341E-10
  -2.29499992E-02  -7.02985559E-10
  -2.29000002E-02  -7.81790521E-10
  -2.28499994E-02  -8.63654481E-10
  -2.28000004E-02  -9.48583656E-10
  -2.27499995E-02  -1.03622144E-09
  -2.27000006E-02  -1.12602616E-09
  -2.26499997E-02  -1.21754040E-09
  -2.26000007E-02  -1.31062483E-09
  -2.25499999E-02  -1.40555578E-09
  -2.25000009E-02  -1.50293689E-09
  -2.24500000E-02  -1.60346203E-09
  -2.23999992E-02  -1.70762782E-09
  -2.23500002E-02  -1.81553417E-09
  -2.22999994E-02  -1.92686644E-09
  -2.22500004E-02  -2.04107353E-09
  -2.21999995E-02  -2.15766138E-09
  -2.21500006E-02  -2.27646346E-09
  -2.20999997E-02  -2.39776110E-09
  -2.20500007E-02  -2.52220200E-09
  -2.19999999E-02  -2.65055444E-09
  -2.19500009E-02  -2.78340462E-09
  -2.19000001E-02  -2.92093705E-09
  -2.18499992E-02  -3.06288994E-09
  -2.18000002E-02  -3.20871840E-09
  -2.17499994E-02  -3.35789063E-09
  -2.17000004E-02  -3.51018747E-09
  -2.16499995E-02  -3.66586117E-09
  -2.16000006E-02  -3.82558252E-09
  -2.15499997E-02  -3.99019084E-09
  -2.15000007E-02  -4.16036539E-09
  -2.14499999E-02  -4.33637037E-09
  -2.14000009E-02  -4.51799620E-09
  -2.13500001E-02  -4.70471351E-09
  -2.12999992E-02  -4.89596719E-09
  -2.12500002E-02  -5.09147746E-09
  -2.11999994E-02  -5.29142108E-09
  -2.11500004E-02  -5.49639889E-09
  -2.10999995E-02  -5.70720804E-09
  -2.10500006E-02  -5.92451377E-09
  -2.09999997E-02  -6.14857765E-09
  -2.09500007E-02  -6.37917763E-09
  -2.08999999E-02  -6.61575106E-09
  -2.08500009E-02  -6.85770729E-09
  -2.08000001E-02  -7.10475989E-09
  -2.07499992E-02  -7.35711403E-09
  -2.07000002E-02  -7.61543273E-09
  -2.06499994E-02  -7.88059396E-09
  -2.06000004E-02  -8.15334555E-09
  -2.05499995E-02  -8.43401970E-09
  -2.05000006E-02  -8.72242190E-09
  -2.04499997E-02  -9.01797481E-09
  -2.04000007E-02  -9.32002475E-09
  -2.03499999E-02  -9.62820845E-09
  -2.03000009E-02  -9.94269200E-09
  -2.02500001E-02  -1.02641655E-08
  -2.01999992E-02  -1.05936149E-08
  -2.01500002E-02  -1.09319425E-08
  -2.00999994E-02  -1.12796474E-08
  -2.00500004E-02  -1.16366836E-08
  -1.99999996E-02  -1.20025918E-08
  -1.99500006E-02  -1.23768036E-08
  -1.98999997E-02  -1.27590170E-08
  -1.98500007E-02  -1.31494486E-08
  -1.97999999E-02  -1.35488847E-08
  -1.97500009E-02  -1.39584602E-08
  -1.97000001E-02  -1.43792942E-08
  -1.96499992E-02  -1.48121337E-08
  -1.96000002E-02  -1.52571893E-08
  -1.95499994E-02  -1.57142068E-08
  -1.95000004E-02  -1.61827955E-08
  -1.94499996E-02  -1.66628062E-08
  -1.94000006E-02  -1.71546297E-08
  -1.93499997E-02  -1.76592376E-08
  -1.93000007E-02  -1.81779836E-08
  -1.92499999E-02  -1.87122371E-08
  -1.92000009E-02  -1.92630321E-08
  -1.91500001E-02  -1.98308552E-08
  -1.90999992E-02  -2.04157153E-08
  -1.90500002E-02  -2.10174491E-08
  -1.89999994E-02  -2.16361080E-08
  -1.89500004E-02  -2.22722765E-08
  -1.88999996E-02  -2.29271677E-08
  -1.88500006E-02  -2.36024338E-08
  -1.87999997E-02  -2.42997782E-08
  -1.87500007E-02  -2.50205527E-08
  -1.86999999E-02  -2.57655426E-08
  -1.86500009E-02  -2.65349964E-08
  -1.86000001E-02  -2.73289480E-08
  -1.85499992E-02  -2.81476158E-08
  -1.85000002E-02  -2.89917654E-08
  -1.84499994E-02  -2.98628073E-08
  -1.84000004E-02  -3.07626564E-08
  -1.83499996E-02  -3.16933395E-08
  -1.83000006E-02  -3.26565761E-08
  -1.82499997E-02  -3.36534818E-08
  -1.82000007E-02  -3.46845326E-08
  -1.81499999E-02  -3.57498813E-08
  -1.81000009E-02  -3.68497730E-08
  -1.80500001E-02  -3.79849752E-08
  -1.79999992E-02  -3.91569124E-08
  -1.79500002E-02  -4.03675742E-08
  -1.78999994E-02  -4.16191348E-08
  -1.78500004E-02  -4.29135127E-08
  -1.77999996E-02  -4.42520829E-08
  -1.77500006E-02  -4.56355700E-08
  -1.76999997E-02  -4.70642796E-08
  -1.76500008E-02  -4.85385101E-08
  -1.75999999E-02  -5.00589827E-08
  -1.75500009E-02  -5.16270902E-08
  -1.75000001E-02  -5.32448254E-08
  -1.74499992E-02  -5.49143770E-08
  -1.74000002E-02  -5.66376741E-08
  -1.73499994E-02  -5.84160595E-08
  -1.73000004E-02  -6.02502226E-08
  -1.72499996E-02  -6.21404226E-08
  -1.72000006E-02  -6.40868549E-08
  -1.71499997E-02  -6.60901236E-08
  -1.71000008E-02  -6.81514436E-08
  -1.70499999E-02  -7.02727121E-08
  -1.70000009E-02  -7.24561602E-08
  -1.69500001E-02  -7.47037987E-08
  -1.68999992E-02  -7.70170772E-08
  -1.68500002E-02  -7.93966777E-08
  -1.67999994E-02  -8.18426997E-08
  -1.67500004E-02  -8.43551859E-08
  -1.66999996E-02  -8.69345058E-08
  -1.66500006E-02  -8.95817465E-08
  -1.65999997E-02  -9.22985990E-08
  -1.65500008E-02  -9.50871524E-08
  -1.64999999E-02  -9.79494814E-08
  -1.64500009E-02  -1.00887149E-07
  -1.64000001E-02  -1.03900902E-07
  -1.63499992E-02  -1.06990854E-07
  -1.63000003E-02  -1.10156890E-07
  -1.62499994E-02  -1.13399260E-07
  -1.62000004E-02  -1.16718894E-07
  -1.61499996E-02  -1.20117519E-07
  -1.61000006E-02  -1.23597360E-07
  -1.60499997E-02  -1.27160646E-07
  -1.60000008E-02  -1.30809198E-07
  -1.59499999E-02  -1.34544166E-07
  -1.59000009E-02  -1.38366076E-07
  -1.58500001E-02  -1.42275070E-07
  -1.57999992E-02  -1.46271432E-07
  -1.57500003E-02  -1.50356200E-07
  -1.56999994E-02  -1.54531236E-07
  -1.56500004E-02  -1.58799068E-07
  -1.55999996E-02  -1.63162312E-07
  -1.55499997E-02  -1.67623284E-07
  -1.54999997E-02  -1.72183690E-07
  -1.54499998E-02  -1.76844551E-07
  -1.53999999E-02  -1.81606623E-07
  -1.53500000E-02  -1.86470857E-07
  -1.53000001E-02  -1.91438772E-07
  -1.52500002E-02  -1.96512815E-07
  -1.52000003E-02  -2.01696238E-07
  -1.51500003E-02  -2.06992596E-07
  -1.51000004E-02  -2.12405027E-07
  -1.50499996E-02  -2.17936091E-07
  -1.49999997E-02  -2.23587719E-07
  -1.49499997E-02  -2.29361476E-07
  -1.48999998E-02  -2.35259137E-07
  -1.48499999E-02  -2.41283033E-07
  -1.48000000E-02  -2.47436503E-07
  -1.47500001E-02  -2.53723698E-07
  -1.47000002E-02  -2.60149335E-07
  -1.46500003E-02  -2.66717990E-07
  -1.46000003E-02  -2.73433557E-07
  -1.45500004E-02  -2.80299275E-07
  -1.44999996E-02  -2.87317846E-07
  -1.44499997E-02  -2.94492111E-07
  -1.43999998E-02  -3.01825509E-07
  -1.43499998E-02  -3.09322417E-07
  -1.42999999E-02  -3.16987979E-07
  -1.42500000E-02  -3.24828022E-07
  -1.42000001E-02  -3.32848401E-07
  -1.41500002E-02  -3.41054744E-07
  -1.41000003E-02  -3.49451767E-07
  -1.40500003E-02  -3.58043565E-07
  -1.40000004E-02  -3.66834286E-07
  -1.39499996E-02  -3.75828449E-07
  -1.38999997E-02  -3.85031910E-07
  -1.38499998E-02  -3.94451320E-07
  -1.37999998E-02  -4.04093754E-07
  -1.37499999E-02  -4.13966291E-07
  -1.37000000E-02  -4.24075722E-07
  -1.36500001E-02  -4.34428387E-07
  -1.36000002E-02  -4.45030253E-07
  -1.35500003E-02  -4.55886806E-07
  -1.35000004E-02  -4.67003645E-07
  -1.34500004E-02  -4.78387335E-07
  -1.33999996E-02  -4.90045863E-07
  -1.33499997E-02  -5.01987870E-07
  -1.32999998E-02  -5.14222108E-07
  -1.32499998E-02  -5.26756480E-07
  -1.31999999E-02  -5.39598432E-07
  -1.31500000E-02  -5.52754841E-07
  -1.31000001E-02  -5.66232814E-07
  -1.30500002E-02  -5.80039739E-07
  -1.30000003E-02  -5.94183518E-07
  -1.29500004E-02  -6.08672735E-07
  -1.29000004E-02  -6.23517280E-07
  -1.28499996E-02  -6.38727442E-07
  -1.27999997E-02  -6.54313055E-07
  -1.27499998E-02  -6.70282759E-07
  -1.26999998E-02  -6.86644228E-07
  -1.26499999E-02  -7.03405306E-07
  -1.26000000E-02  -7.20574178E-07
  -1.25500001E-02  -7.38159883E-07
  -1.25000002E-02  -7.56171858E-07
  -1.24500003E-02  -7.74620560E-07
  -1.24000004E-02  -7.93517074E-07
  -1.23500004E-02  -8.12872827E-07
  -1.22999996E-02  -8.32698561E-07
  -1.22499997E-02  -8.53004110E-07
  -1.21999998E-02  -8.73798456E-07
  -1.21499998E-02  -8.95090977E-07
  -1.20999999E-02  -9.16892077E-07
  -1.20500000E-02  -9.39212669E-07
  -1.20000001E-02  -9.62064064E-07
  -1.19500002E-02  -9.85457064E-07
  -1.19000003E-02  -1.00940292E-06
  -1.18500004E-02  -1.03391267E-06
  -1.18000004E-02  -1.05899744E-06
  -1.17499996E-02  -1.08466725E-06
  -1.16999997E-02  -1.11093220E-06
  -1.16499998E-02  -1.13780322E-06
  -1.15999999E-02  -1.16529350E-06
  -1.15499999E-02  -1.19341746E-06
  -1.15000000E-02  -1.22218933E-06
  -1.14500001E-02  -1.25162273E-06
  -1.14000002E-02  -1.28173008E-06
  -1.13500003E-02  -1.31252375E-06
  -1.13000004E-02  -1.34401569E-06
  -1.12500004E-02  -1.37621691E-06
  -1.11999996E-02  -1.40913801E-06
  -1.11499997E-02  -1.44279056E-06
  -1.10999998E-02  -1.47718652E-06
  -1.10499999E-02  -1.51234042E-06
  -1.09999999E-02  -1.54826625E-06
  -1.09500000E-02  -1.58497835E-06
  -1.09000001E-02  -1.62249046E-06
  -1.08500002E-02  -1.66081657E-06
  -1.08000003E-02  -1.69997224E-06
  -1.07500004E-02  -1.73997341E-06
  -1.07000005E-02  -1.78083621E-06
  -1.06499996E-02  -1.82257691E-06
  -1.05999997E-02  -1.86521220E-06
  -1.05499998E-02  -1.90875744E-06
  -1.04999999E-02  -1.95322787E-06
  -1.04499999E-02  -1.99863712E-06
  -1.04000000E-02  -2.04499815E-06
  -1.03500001E-02  -2.09232417E-06
  -1.03000002E-02  -2.14062834E-06
  -1.02500003E-02  -2.18992545E-06
  -1.02000004E-02  -2.24023256E-06
  -1.01500005E-02  -2.29156785E-06
  -1.00999996E-02  -2.34394929E-06
  -1.00499997E-02  -2.39739506E-06
  -9.99999978E-03  -2.45192450E-06
  -9.94999986E-03  -2.50755579E-06
  -9.89999995E-03  -2.56430735E-06
  -9.85000003E-03  -2.62219669E-06
  -9.80000012E-03  -2.68124154E-06
  -9.75000020E-03  -2.74146055E-06
  -9.70000029E-03  -2.80287304E-06
  -9.65000037E-03  -2.86549721E-06
  -9.60000046E-03  -2.92935124E-06
  -9.54999961E-03  -2.99445105E-06
  -9.49999969E-03  -3.06081552E-06
  -9.44999978E-03  -3.12846237E-06
  -9.39999986E-03  -3.19741116E-06
  -9.34999995E-03  -3.26768009E-06
  -9.30000003E-03  -3.33929006E-06
  -9.25000012E-03  -3.41226178E-06
  -9.20000020E-03  -3.48661638E-06
  -9.15000029E-03  -3.56237570E-06
  -9.10000037E-03  -3.63955974E-06
  -9.05000046E-03  -3.71818737E-06
  -8.99999961E-03  -3.79827952E-06
  -8.94999970E-03  -3.87985710E-06
  -8.89999978E-03  -3.96294263E-06
  -8.84999987E-03  -4.04755792E-06
  -8.79999995E-03  -4.13372663E-06
  -8.75000004E-03  -4.22147150E-06
  -8.70000012E-03  -4.31081708E-06
  -8.65000021E-03  -4.40178610E-06
  -8.60000029E-03  -4.49440131E-06
  -8.55000038E-03  -4.58868408E-06
  -8.50000046E-03  -4.68465623E-06
  -8.44999962E-03  -4.78233960E-06
  -8.39999970E-03  -4.88175874E-06
  -8.34999979E-03  -4.98293957E-06
  -8.29999987E-03  -5.08590483E-06
  -8.24999996E-03  -5.19067953E-06
  -8.20000004E-03  -5.29728595E-06
  -8.15000013E-03  -5.40574865E-06
  -8.10000021E-03  -5.51609446E-06
  -8.05000030E-03  -5.62834975E-06
  -8.00000038E-03  -5.74253681E-06
  -7.95000046E-03  -5.85868247E-06
  -7.89999962E-03  -5.97681310E-06
  -7.84999970E-03  -6.09695962E-06
  -7.79999979E-03  -6.21915069E-06
  -7.74999987E-03  -6.34341177E-06
  -7.69999996E-03  -6.46976650E-06
  -7.65000004E-03  -6.59824491E-06
  -7.60000013E-03  -6.72887791E-06
  -7.55000021E-03  -6.86169597E-06
  -7.49999983E-03  -6.99673046E-06
  -7.44999992E-03  -7.13401005E-06
  -7.40000000E-03  -7.27356382E-06
  -7.35000009E-03  -7.41542408E-06
  -7.30000017E-03  -7.55962537E-06
  -7.24999979E-03  -7.70619681E-06
  -7.19999988E-03  -7.85516295E-06
  -7.14999996E-03  -8.00655289E-06
  -7.10000005E-03  -8.16039847E-06
  -7.05000013E-03  -8.31673697E-06
  -7.00000022E-03  -8.47560113E-06
  -6.94999984E-03  -8.63702371E-06
  -6.89999992E-03  -8.80103380E-06
  -6.85000001E-03  -8.96766778E-06
  -6.80000009E-03  -9.13696476E-06
  -6.75000018E-03  -9.30896203E-06
  -6.69999979E-03  -9.48369143E-06
  -6.64999988E-03  -9.66118569E-06
  -6.59999996E-03  -9.84148119E-06
  -6.55000005E-03  -1.00246243E-05
  -6.50000013E-03  -1.02106587E-05
  -6.45000022E-03  -1.03996199E-05
  -6.39999984E-03  -1.05915415E-05
  -6.34999992E-03  -1.07864607E-05
  -6.30000001E-03  -1.09844159E-05
  -6.25000009E-03  -1.11854561E-05
  -6.20000018E-03  -1.13896222E-05
  -6.14999980E-03  -1.15969533E-05
  -6.09999988E-03  -1.18074822E-05
  -6.04999997E-03  -1.20212580E-05
  -6.00000005E-03  -1.22383262E-05
  -5.95000014E-03  -1.24587305E-05
  -5.90000022E-03  -1.26825053E-05
  -5.84999984E-03  -1.29096898E-05
  -5.79999993E-03  -1.31403267E-05
  -5.75000001E-03  -1.33744652E-05
  -5.70000010E-03  -1.36121580E-05
  -5.65000018E-03  -1.38534469E-05
  -5.59999980E-03  -1.40983793E-05
  -5.54999989E-03  -1.43470006E-05
  -5.49999997E-03  -1.45993672E-05
  -5.45000006E-03  -1.48555291E-05
  -5.40000014E-03  -1.51155282E-05
  -5.35000023E-03  -1.53794044E-05
  -5.29999984E-03  -1.56472106E-05
  -5.24999993E-03  -1.59189985E-05
  -5.20000001E-03  -1.61948301E-05
  -5.15000010E-03  -1.64747544E-05
  -5.10000018E-03  -1.67588187E-05
  -5.04999980E-03  -1.70470739E-05
  -4.99999989E-03  -1.73395692E-05
  -4.94999997E-03  -1.76363574E-05
  -4.90000006E-03  -1.79374874E-05
  -4.85000014E-03  -1.82430085E-05
  -4.80000023E-03  -1.85529752E-05
  -4.74999985E-03  -1.88674385E-05
  -4.69999993E-03  -1.91864565E-05
  -4.65000002E-03  -1.95100856E-05
  -4.60000010E-03  -1.98383859E-05
  -4.55000019E-03  -2.01714029E-05
  -4.49999981E-03  -2.05091892E-05
  -4.44999989E-03  -2.08517995E-05
  -4.39999998E-03  -2.11992938E-05
  -4.35000006E-03  -2.15517375E-05
  -4.30000015E-03  -2.19091853E-05
  -4.25000023E-03  -2.22717008E-05
  -4.19999985E-03  -2.26393367E-05
  -4.14999994E-03  -2.30121605E-05
  -4.10000002E-03  -2.33902265E-05
  -4.05000011E-03  -2.37735931E-05
  -4.00000019E-03  -2.41623093E-05
  -3.94999981E-03  -2.45564279E-05
  -3.89999989E-03  -2.49560126E-05
  -3.84999998E-03  -2.53611288E-05
  -3.80000006E-03  -2.57718420E-05
  -3.74999992E-03  -2.61882160E-05
  -3.70000000E-03  -2.66102943E-05
  -3.65000009E-03  -2.70381388E-05
  -3.59999994E-03  -2.74718186E-05
  -3.55000002E-03  -2.79113901E-05
  -3.50000011E-03  -2.83569007E-05
  -3.44999996E-03  -2.88084211E-05
  -3.40000005E-03  -2.92660206E-05
  -3.34999990E-03  -2.97297684E-05
  -3.29999998E-03  -3.01997316E-05
  -3.25000007E-03  -3.06759721E-05
  -3.19999992E-03  -3.11585500E-05
  -3.15000000E-03  -3.16475198E-05
  -3.10000009E-03  -3.21429579E-05
  -3.04999994E-03  -3.26449226E-05
  -3.00000003E-03  -3.31534829E-05
  -2.95000011E-03  -3.36687008E-05
  -2.89999996E-03  -3.41906489E-05
  -2.85000005E-03  -3.47193964E-05
  -2.79999990E-03  -3.52550051E-05
  -2.74999999E-03  -3.57975514E-05
  -2.70000007E-03  -3.63470754E-05
  -2.64999992E-03  -3.69036425E-05
  -2.60000001E-03  -3.74673182E-05
  -2.55000009E-03  -3.80381789E-05
  -2.49999994E-03  -3.86162938E-05
  -2.45000003E-03  -3.92017282E-05
  -2.40000011E-03  -3.97945514E-05
  -2.34999997E-03  -4.03948434E-05
  -2.30000005E-03  -4.10026769E-05
  -2.24999990E-03  -4.16181174E-05
  -2.19999999E-03  -4.22411977E-05
  -2.15000007E-03  -4.28719904E-05
  -2.09999993E-03  -4.35105721E-05
  -2.05000001E-03  -4.41570337E-05
  -2.00000009E-03  -4.48114370E-05
  -1.94999995E-03  -4.54738692E-05
  -1.90000003E-03  -4.61443851E-05
  -1.85000000E-03  -4.68230683E-05
  -1.79999997E-03  -4.75099769E-05
  -1.75000005E-03  -4.82051801E-05
  -1.70000002E-03  -4.89087470E-05
  -1.64999999E-03  -4.96207358E-05
  -1.59999996E-03  -5.03412230E-05
  -1.55000004E-03  -5.10703030E-05
  -1.50000001E-03  -5.18080487E-05
  -1.44999998E-03  -5.25545256E-05
  -1.39999995E-03  -5.33098028E-05
  -1.35000004E-03  -5.40739456E-05
  -1.30000000E-03  -5.48470198E-05
  -1.24999997E-03  -5.56291016E-05
  -1.20000006E-03  -5.64202455E-05
  -1.15000003E-03  -5.72205390E-05
  -1.09999999E-03  -5.80300548E-05
  -1.04999996E-03  -5.88488838E-05
  -1.00000005E-03  -5.96770988E-05
  -9.50000016E-04  -6.05147652E-05
  -8.99999985E-04  -6.13619486E-05
  -8.50000011E-04  -6.22187290E-05
  -7.99999980E-04  -6.30851791E-05
  -7.50000007E-04  -6.39613572E-05
  -6.99999975E-04  -6.48473360E-05
  -6.50000002E-04  -6.57432101E-05
  -6.00000028E-04  -6.66490523E-05
  -5.49999997E-04  -6.75649644E-05
  -5.00000024E-04  -6.84910046E-05
  -4.49999992E-04  -6.94272167E-05
  -3.99999990E-04  -7.03736587E-05
  -3.49999988E-04  -7.13304325E-05
  -3.00000014E-04  -7.22976110E-05
  -2.50000012E-04  -7.32752451E-05
  -1.99999995E-04  -7.42634074E-05
  -1.50000007E-04  -7.52621563E-05
  -9.99999975E-05  -7.62716008E-05
  -4.99999987E-05  -7.72918356E-05
   0.00000000      -7.83229189E-05
   4.99999987E-05  -7.93648724E-05
   9.99999975E-05  -8.04177616E-05
   1.50000007E-04  -8.14816667E-05
   1.99999995E-04  -8.25567040E-05
   2.50000012E-04  -8.36429608E-05
   3.00000014E-04  -8.47404808E-05
   3.49999988E-04  -8.58493222E-05
   3.99999990E-04  -8.69695505E-05
   4.49999992E-04  -8.81012893E-05
   5.00000024E-04  -8.92445969E-05
   5.49999997E-04  -9.03994878E-05
   6.00000028E-04  -9.15660203E-05
   6.50000002E-04  -9.27442816E-05
   6.99999975E-04  -9.39343445E-05
   7.50000007E-04  -9.51363181E-05
   7.99999980E-04  -9.63502462E-05
   8.50000011E-04  -9.75761941E-05
   8.99999985E-04  -9.88142128E-05
   9.50000016E-04  -1.00064353E-04
   1.00000005E-03  -1.01326688E-04
   1.04999996E-03  -1.02601261E-04
   1.09999999E-03  -1.03888131E-04
   1.15000003E-03  -1.05187391E-04
   1.20000006E-03  -1.06499094E-04
   1.24999997E-03  -1.07823333E-04
   1.30000000E-03  -1.09160181E-04
   1.35000004E-03  -1.10509696E-04
   1.39999995E-03  -1.11871908E-04
   1.44999998E-03  -1.13246817E-04
   1.50000001E-03  -1.14634488E-04
   1.55000004E-03  -1.16035022E-04
   1.59999996E-03  -1.17448508E-04
   1.64999999E-03  -1.18875003E-04
   1.70000002E-03  -1.20314486E-04
   1.75000005E-03  -1.21767051E-04
   1.79999997E-03  -1.23232778E-04
   1.85000000E-03  -1.24711703E-04
   1.90000003E-03  -1.26203857E-04
   1.94999995E-03  -1.27709223E-04
   2.00000009E-03  -1.29227861E-04
   2.05000001E-03  -1.30759814E-04
   2.09999993E-03  -1.32305155E-04
   2.15000007E-03  -1.33863927E-04
   2.19999999E-03  -1.35436174E-04
   2.24999990E-03  -1.37021896E-04
   2.30000005E-03  -1.38621122E-04
   2.34999997E-03  -1.40233882E-04
   2.40000011E-03  -1.41860233E-04
   2.45000003E-03  -1.43500190E-04
   2.49999994E-03  -1.45153812E-04
   2.55000009E-03  -1.46821068E-04
   2.60000001E-03  -1.48502018E-04
   2.64999992E-03  -1.50196676E-04
   2.70000007E-03  -1.51905057E-04
   2.74999999E-03  -1.53627188E-04
   2.79999990E-03  -1.55363072E-04