  -3.99999991E-02   0.00000000    
  -3.99499983E-02   0.00000000    
  -3.99000011E-02   0.00000000    
  -3.98500003E-02   0.00000000    
  -3.97999994E-02  -6.06188487E-22
  -3.97499986E-02  -5.71230938E-21
  -3.97000015E-02  -2.80019507E-20
  -3.96500006E-02  -9.33196668E-20
  -3.95999998E-02  -2.32429403E-19
  -3.95499989E-02  -4.44827645E-19
  -3.95000018E-02  -6.27530232E-19
  -3.94500010E-02  -4.85451260E-19
  -3.94000001E-02   5.28585058E-19
  -3.93499993E-02   3.17678218E-18
  -3.92999984E-02   8.25225158E-18
  -3.92500013E-02   1.62657060E-17
  -3.92000005E-02   2.71222084E-17
  -3.91499996E-02   3.99864998E-17
  -3.90999988E-02   5.35198793E-17
  -3.90500017E-02   6.65214215E-17
  -3.90000008E-02   7.87642703E-17
  -3.89500000E-02   9.16125756E-17
  -3.88999991E-02   1.07987145E-16
  -3.88499983E-02   1.31489901E-16
  -3.88000011E-02   1.64923443E-16
  -3.87500003E-02   2.08844377E-16
  -3.86999995E-02   2.60929770E-16
  -3.86499986E-02   3.16678540E-16
  -3.86000015E-02   3.71367117E-16
  -3.85500006E-02   4.22484046E-16
  -3.84999998E-02   4.71433763E-16
  -3.84499989E-02   5.23427292E-16
  -3.84000018E-02   5.85220198E-16
  -3.83500010E-02   6.61445170E-16
  -3.83000001E-02   7.51180317E-16
  -3.82499993E-02   8.46556544E-16
  -3.81999984E-02   9.34428536E-16
  -3.81500013E-02   1.00069616E-15
  -3.81000005E-02   1.03546633E-15
  -3.80499996E-02   1.03663238E-15
  -3.79999988E-02   1.00999891E-15
  -3.79500017E-02   9.65624548E-16
  -3.79000008E-02   9.11873425E-16
  -3.78500000E-02   8.49890519E-16
  -3.77999991E-02   7.71189035E-16
  -3.77499983E-02   6.59676618E-16
  -3.77000012E-02   4.97334283E-16
  -3.76500003E-02   2.70940429E-16
  -3.75999995E-02  -2.33378687E-17
  -3.75499986E-02  -3.79615074E-16
  -3.75000015E-02  -7.86213335E-16
  -3.74500006E-02  -1.23177299E-15
  -3.73999998E-02  -1.71058187E-15
  -3.73499990E-02  -2.22485210E-15
  -3.73000018E-02  -2.78343158E-15
  -3.72500010E-02  -3.39817379E-15
  -3.72000001E-02  -4.07993324E-15
  -3.71499993E-02  -4.83560479E-15
  -3.70999984E-02  -5.66632304E-15
  -3.70500013E-02  -6.56587584E-15
  -3.70000005E-02  -7.51850669E-15
  -3.69499996E-02  -8.49664763E-15
  -3.68999988E-02  -9.46093789E-15
  -3.68500017E-02  -1.03654928E-14
  -3.68000008E-02  -1.11696185E-14
  -3.67500000E-02  -1.18531097E-14
  -3.66999991E-02  -1.24280054E-14
  -3.66499983E-02  -1.29381123E-14
  -3.66000012E-02  -1.34411737E-14
  -3.65500003E-02  -1.39767162E-14
  -3.64999995E-02  -1.45320056E-14
  -3.64499986E-02  -1.50238640E-14
  -3.64000015E-02  -1.53110641E-14
  -3.63500006E-02  -1.52398439E-14
  -3.62999998E-02  -1.47082375E-14
  -3.62499990E-02  -1.37210715E-14
  -3.62000018E-02  -1.24051295E-14
  -3.61500010E-02  -1.09673191E-14
  -3.61000001E-02  -9.60433972E-15
  -3.60499993E-02  -8.39952345E-15
  -3.59999985E-02  -7.25701661E-15
  -3.59500013E-02  -5.91466505E-15
  -3.59000005E-02  -4.04464754E-15
  -3.58499996E-02  -1.40745271E-15
  -3.57999988E-02   2.00923415E-15
  -3.57500017E-02   5.94019632E-15
  -3.57000008E-02   9.92263607E-15
  -3.56500000E-02   1.34892496E-14
  -3.55999991E-02   1.63966300E-14
  -3.55499983E-02   1.87794031E-14
  -3.55000012E-02   2.11388981E-14
  -3.54500003E-02   2.41431885E-14
  -3.53999995E-02   2.83068043E-14
  -3.53499986E-02   3.36909015E-14
  -3.53000015E-02   3.97777209E-14
  -3.52500007E-02   4.56110301E-14
  -3.51999998E-02   5.01758194E-14
  -3.51499990E-02   5.28674225E-14
  -3.51000018E-02   5.38329621E-14
  -3.50500010E-02   5.39986079E-14
  -3.50000001E-02   5.47235427E-14
  -3.49499993E-02   5.71962454E-14
  -3.48999985E-02   6.18315552E-14
  -3.48500013E-02   6.79624610E-14
  -3.48000005E-02   7.40168289E-14
  -3.47499996E-02   7.81576545E-14
  -3.46999988E-02   7.91362622E-14
  -3.46500017E-02   7.69711985E-14
  -3.46000008E-02   7.31007391E-14
  -3.45500000E-02   6.98688137E-14
  -3.44999991E-02   6.95105594E-14
  -3.44499983E-02   7.30666273E-14
  -3.44000012E-02   7.97416129E-14
  -3.43500003E-02   8.70683462E-14
  -3.42999995E-02   9.18930730E-14
  -3.42499986E-02   9.18024066E-14
  -3.42000015E-02   8.63565743E-14
  -3.41500007E-02   7.75151902E-14
  -3.40999998E-02   6.89619328E-14
  -3.40499990E-02   6.45321944E-14
  -3.40000018E-02   6.64012844E-14
  -3.39500010E-02   7.38759233E-14
  -3.39000002E-02   8.34307937E-14
  -3.38499993E-02   9.01008800E-14
  -3.37999985E-02   8.97012838E-14
  -3.37500013E-02   8.08955293E-14
  -3.37000005E-02   6.61064831E-14
  -3.36499996E-02   5.07170532E-14
  -3.35999988E-02   4.07702640E-14
  -3.35500017E-02   4.01171202E-14
  -3.35000008E-02   4.83180390E-14
  -3.34500000E-02   6.03724495E-14
  -3.33999991E-02   6.85837156E-14
  -3.33499983E-02   6.58791530E-14
  -3.33000012E-02   4.91480805E-14
  -3.32500003E-02   2.10178520E-14
  -3.31999995E-02  -1.09163514E-14
  -3.31499986E-02  -3.72745183E-14
  -3.31000015E-02  -5.11989912E-14
  -3.30500007E-02  -5.18503155E-14
  -3.29999998E-02  -4.53689956E-14
  -3.29499990E-02  -4.26273803E-14
  -3.29000019E-02  -5.45535059E-14
  -3.28500010E-02  -8.70217527E-14
  -3.28000002E-02  -1.37679053E-13
  -3.27499993E-02  -1.96361563E-13
  -3.26999985E-02  -2.49202541E-13
  -3.26500013E-02  -2.84801805E-13
  -3.26000005E-02  -2.99724302E-13
  -3.25499997E-02  -3.00691465E-13
  -3.24999988E-02  -3.02172946E-13
  -3.24500017E-02  -3.20145169E-13
  -3.24000008E-02  -3.64641423E-13
  -3.23500000E-02  -4.34487271E-13
  -3.22999991E-02  -5.16851536E-13
  -3.22499983E-02  -5.92184992E-13
  -3.22000012E-02  -6.42640672E-13
  -3.21500003E-02  -6.60296633E-13
  -3.20999995E-02  -6.51324914E-13
  -3.20499986E-02  -6.33865790E-13
  -3.20000015E-02  -6.30149524E-13
  -3.19500007E-02  -6.56136658E-13
  -3.18999998E-02  -7.13343447E-13
  -3.18499990E-02  -7.86826496E-13
  -3.18000019E-02  -8.50707471E-13
  -3.17500010E-02  -8.79192661E-13
  -3.17000002E-02  -8.58340417E-13
  -3.16499993E-02  -7.93150105E-13
  -3.15999985E-02  -7.06355005E-13
  -3.15500014E-02  -6.28917274E-13
  -3.15000005E-02  -5.86083916E-13
  -3.14499997E-02  -5.85184353E-13
  -3.13999988E-02  -6.10951502E-13
  -3.13500017E-02  -6.31031902E-13
  -3.13000008E-02  -6.09792761E-13
  -3.12500000E-02  -5.24563195E-13
  -3.11999992E-02  -3.76942862E-13
  -3.11500002E-02  -1.93633141E-13
  -3.10999993E-02  -1.57522328E-14
  -3.10500003E-02   1.19136106E-13
  -3.09999995E-02   1.94415786E-13
  -3.09500005E-02   2.23155912E-13
  -3.08999997E-02   2.43626083E-13
  -3.08500007E-02   3.02861225E-13
  -3.07999998E-02   4.35146222E-13
  -3.07500008E-02   6.45047492E-13
  -3.07000000E-02   9.03087013E-13
  -3.06499992E-02   1.15679482E-12
  -3.06000002E-02   1.35294196E-12
  -3.05499993E-02   1.46136185E-12
  -3.05000003E-02   1.48949201E-12
  -3.04499995E-02   1.48043134E-12
  -3.04000005E-02   1.49449604E-12
  -3.03499997E-02   1.58185314E-12
  -3.03000007E-02   1.75833198E-12
  -3.02499998E-02   1.99571653E-12
  -3.02000009E-02   2.23177379E-12
  -3.01500000E-02   2.39647690E-12
  -3.00999992E-02   2.44325285E-12
  -3.00500002E-02   2.37117118E-12
  -2.99999993E-02   2.22740749E-12
  -2.99500003E-02   2.08780888E-12
  -2.98999995E-02   2.02333354E-12
  -2.98500005E-02   2.06701713E-12
  -2.97999997E-02   2.19664304E-12
  -2.97500007E-02   2.34186715E-12
  -2.96999998E-02   2.41379616E-12
  -2.96500009E-02   2.34462276E-12
  -2.96000000E-02   2.11969244E-12
  -2.95499992E-02   1.78696034E-12
  -2.95000002E-02   1.43838598E-12
  -2.94499993E-02   1.17038920E-12
  -2.94000003E-02   1.04040951E-12
  -2.93499995E-02   1.03922350E-12
  -2.93000005E-02   1.09242574E-12
  -2.92499997E-02   1.09179766E-12
  -2.92000007E-02   9.43670597E-13
  -2.91499998E-02   6.13020106E-13
  -2.91000009E-02   1.42968631E-13
  -2.90500000E-02  -3.60363025E-13
  -2.89999992E-02  -7.72379068E-13
  -2.89500002E-02  -1.00499795E-12
  -2.88999993E-02  -1.04755809E-12
  -2.88500004E-02  -9.74379973E-13
  -2.87999995E-02  -9.14037834E-13
  -2.87500005E-02  -9.92601726E-13
  -2.86999997E-02  -1.27551214E-12
  -2.86500007E-02  -1.73446229E-12
  -2.85999998E-02  -2.25545580E-12
  -2.85500009E-02  -2.68618027E-12
  -2.85000000E-02  -2.90288280E-12
  -2.84499992E-02  -2.86720257E-12
  -2.84000002E-02  -2.64670751E-12
  -2.83499993E-02  -2.38824737E-12
  -2.83000004E-02  -2.25421721E-12
  -2.82499995E-02  -2.34910333E-12
  -2.82000005E-02  -2.66925783E-12
  -2.81499997E-02  -3.09970344E-12
  -2.81000007E-02  -3.46140261E-12
  -2.80499998E-02  -3.58967565E-12
  -2.80000009E-02  -3.40949361E-12
  -2.79500000E-02  -2.97338109E-12
  -2.78999992E-02  -2.44319343E-12
  -2.78500002E-02  -2.02172155E-12
  -2.77999993E-02  -1.86305572E-12
  -2.77500004E-02  -2.00144892E-12
  -2.76999995E-02  -2.33163142E-12
  -2.76500005E-02  -2.65155150E-12
  -2.75999997E-02  -2.75067642E-12
  -2.75500007E-02  -2.50568685E-12
  -2.74999999E-02  -1.94052695E-12
  -2.74500009E-02  -1.22222198E-12
  -2.74000000E-02  -5.91813545E-13
  -2.73499992E-02  -2.59110848E-13
  -2.73000002E-02  -3.07443442E-13
  -2.72499993E-02  -6.51865009E-13
  -2.72000004E-02  -1.07177396E-12
  -2.71499995E-02  -1.30606138E-12
  -2.71000005E-02  -1.17018624E-12
  -2.70499997E-02  -6.43118046E-13
  -2.70000007E-02   1.16266087E-13
  -2.69499999E-02   8.33394063E-13
  -2.69000009E-02   1.23685025E-12
  -2.68500000E-02   1.18026530E-12
  -2.67999992E-02   7.12338608E-13
  -2.67500002E-02   6.15101435E-14
  -2.66999993E-02  -4.60903722E-13
  -2.66500004E-02  -5.98352802E-13
  -2.65999995E-02  -2.66812288E-13
  -2.65500005E-02   4.01201750E-13
  -2.64999997E-02   1.10888067E-12
  -2.64500007E-02   1.52352209E-12
  -2.63999999E-02   1.42586463E-12
  -2.63500009E-02   8.13739538E-13
  -2.63000000E-02  -8.83326751E-14
  -2.62499992E-02  -9.21273257E-13
  -2.62000002E-02  -1.34734335E-12
  -2.61499994E-02  -1.20176384E-12
  -2.61000004E-02  -5.71554848E-13
  -2.60499995E-02   2.36462976E-13
  -2.60000005E-02   8.27917921E-13
  -2.59499997E-02   8.97226033E-13
  -2.59000007E-02   3.70062108E-13
  -2.58499999E-02  -5.53393160E-13
  -2.58000009E-02  -1.47729702E-12
  -2.57500000E-02  -1.97968920E-12
  -2.56999992E-02  -1.79942704E-12
  -2.56500002E-02  -9.56889624E-13
  -2.55999994E-02   2.48124573E-13
  -2.55500004E-02   1.36444176E-12
  -2.54999995E-02   1.99000430E-12
  -2.54500005E-02   1.95689450E-12
  -2.53999997E-02   1.41704975E-12
  -2.53500007E-02   7.86794295E-13
  -2.52999999E-02   5.70516236E-13
  -2.52500009E-02   1.13890223E-12
  -2.52000000E-02   2.55999909E-12
  -2.51499992E-02   4.56079619E-12
  -2.51000002E-02   6.64069234E-12
  -2.50499994E-02   8.29060258E-12
  -2.50000004E-02   9.22237980E-12
  -2.49499995E-02   9.50564974E-12
  -2.49000005E-02   9.54759882E-12
  -2.48499997E-02   9.91988870E-12
  -2.48000007E-02   1.11058489E-11
  -2.47499999E-02   1.32792189E-11
  -2.47000009E-02   1.62148923E-11
  -2.46500000E-02   1.93758464E-11
  -2.45999992E-02   2.21424389E-11
  -2.45500002E-02   2.40852633E-11
  -2.44999994E-02   2.51600858E-11
  -2.44500004E-02   2.57348899E-11
  -2.43999995E-02   2.64318359E-11
  -2.43500005E-02   2.78497433E-11
  -2.42999997E-02   3.02883239E-11
  -2.42500007E-02   3.35982249E-11
  -2.41999999E-02   3.72279568E-11
  -2.41500009E-02   4.04522839E-11
  -2.41000000E-02   4.26846336E-11
  -2.40499992E-02   4.37355187E-11
  -2.40000002E-02   4.38992523E-11
  -2.39499994E-02   4.38251484E-11
  -2.39000004E-02   4.42251478E-11
  -2.38499995E-02   4.55447069E-11
  -2.38000005E-02   4.77439442E-11
  -2.37499997E-02   5.02905807E-11
  -2.37000007E-02   5.23737026E-11
  -2.36499999E-02   5.32485514E-11
  -2.36000009E-02   5.25609799E-11
  -2.35500000E-02   5.05053430E-11
  -2.34999992E-02   4.77404852E-11
  -2.34500002E-02   4.50951568E-11
  -2.33999994E-02   4.31896081E-11
  -2.33500004E-02   4.21412003E-11
  -2.32999995E-02   4.14885938E-11
  -2.32500006E-02   4.03741936E-11
  -2.31999997E-02   3.79098350E-11
  -2.31500007E-02   3.35662435E-11
  -2.30999999E-02   2.74120553E-11
  -2.30500009E-02   2.00915291E-11
  -2.30000000E-02   1.25442981E-11
  -2.29499992E-02   5.58689987E-12
  -2.29000002E-02  -4.59565166E-13
  -2.28499994E-02  -5.92710603E-12
  -2.28000004E-02  -1.16676729E-11
  -2.27499995E-02  -1.86817298E-11
  -2.27000006E-02  -2.76695195E-11
  -2.26499997E-02  -3.87042828E-11
  -2.26000007E-02  -5.11772222E-11
  -2.25499999E-02  -6.40448805E-11
  -2.25000009E-02  -7.62753471E-11
  -2.24500000E-02  -8.72973846E-11
  -2.23999992E-02  -9.72511030E-11
  -2.23500002E-02  -1.06923047E-10
  -2.22999994E-02  -1.17387614E-10
  -2.22500004E-02  -1.29508806E-10
  -2.21999995E-02  -1.43522971E-10
  -2.21500006E-02  -1.58891497E-10
  -2.20999997E-02  -1.74495030E-10
  -2.20500007E-02  -1.89090341E-10
  -2.19999999E-02  -2.01830122E-10
  -2.19500009E-02  -2.12614176E-10
  -2.19000001E-02  -2.22110802E-10
  -2.18499992E-02  -2.31431818E-10
  -2.18000002E-02  -2.41599296E-10
  -2.17499994E-02  -2.53039201E-10
  -2.17000004E-02  -2.65328925E-10
  -2.16499995E-02  -2.77318085E-10
  -2.16000006E-02  -2.87575186E-10
  -2.15499997E-02  -2.94967772E-10
  -2.15000007E-02  -2.99117897E-10
  -2.14499999E-02  -3.00527464E-10
  -2.14000009E-02  -3.00309555E-10
  -2.13500001E-02  -2.99640257E-10
  -2.12999992E-02  -2.99169273E-10
  -2.12500002E-02  -2.98654212E-10
  -2.11999994E-02  -2.96985936E-10
  -2.11500004E-02  -2.92601859E-10
  -2.10999995E-02  -2.84108514E-10
  -2.10500006E-02  -2.70840073E-10
  -2.09999997E-02  -2.53100013E-10
  -2.09500007E-02  -2.31973607E-10
  -2.08999999E-02  -2.08786585E-10
  -2.08500009E-02  -1.84446111E-10
  -2.08000001E-02  -1.58957500E-10
  -2.07499992E-02  -1.31336053E-10
  -2.07000002E-02  -9.99613031E-11
  -2.06499994E-02  -6.32203040E-11
  -2.06000004E-02  -2.01614402E-11
  -2.05499995E-02   2.91375743E-11
  -2.05000006E-02   8.36540073E-11
  -2.04499997E-02   1.41927900E-10
  -2.04000007E-02   2.02772341E-10
  -2.03499999E-02   2.65871714E-10
  -2.03000009E-02   3.31997319E-10
  -2.02500001E-02   4.02740619E-10
  -2.01999992E-02   4.79871309E-10
  -2.01500002E-02   5.64605085E-10
  -2.00999994E-02   6.57105148E-10
  -2.00500004E-02   7.56443796E-10
  -1.99999996E-02   8.61049176E-10
  -1.99500006E-02   9.69445413E-10
  -1.98999997E-02   1.08095544E-09
  -1.98500007E-02   1.19605914E-09
  -1.97999999E-02   1.31623490E-09
  -1.97500009E-02   1.44335011E-09
  -1.97000001E-02   1.57887026E-09
  -1.96499992E-02   1.72322934E-09
  -1.96000002E-02   1.87565496E-09
  -1.95499994E-02   2.03452277E-09
  -1.95000004E-02   2.19809815E-09
  -1.94499996E-02   2.36533104E-09
  -1.94000006E-02   2.53635513E-09
  -1.93499997E-02   2.71246603E-09
  -1.93000007E-02   2.89557378E-09
  -1.92499999E-02   3.08737613E-09
  -1.92000009E-02   3.28861183E-09
  -1.91500001E-02   3.49873375E-09
  -1.90999992E-02   3.71614917E-09
  -1.90500002E-02   3.93892829E-09
  -1.89999994E-02   4.16567225E-09
  -1.89500004E-02   4.39615189E-09
  -1.88999996E-02   4.63143568E-09
  -1.88500006E-02   4.87343721E-09
  -1.87999997E-02   5.12408249E-09
  -1.87500007E-02   5.38446399E-09
  -1.86999999E-02   5.65435565E-09
  -1.86500009E-02   5.93231686E-09
  -1.86000001E-02   6.21633189E-09
  -1.85499992E-02   6.50472254E-09
  -1.85000002E-02   6.79691903E-09
  -1.84499994E-02   7.09374293E-09
  -1.84000004E-02   7.39708383E-09
  -1.83499996E-02   7.70908937E-09
  -1.83000006E-02   8.03124323E-09
  -1.82499997E-02   8.36373193E-09
  -1.82000007E-02   8.70538130E-09
  -1.81499999E-02   9.05421338E-09
  -1.81000009E-02   9.40836031E-09
  -1.80500001E-02   9.76694725E-09
  -1.79999992E-02   1.01305488E-08
  -1.79500002E-02   1.05009992E-08
  -1.78999994E-02   1.08806590E-08
  -1.78500004E-02   1.12714345E-08
  -1.77999996E-02   1.16740040E-08
  -1.77500006E-02   1.20875931E-08
  -1.76999997E-02   1.25103936E-08
  -1.76500008E-02   1.29404558E-08
  -1.75999999E-02   1.33766580E-08
  -1.75500009E-02   1.38193252E-08
  -1.75000001E-02   1.42702063E-08
  -1.74499992E-02   1.47318344E-08
  -1.74000002E-02   1.52065400E-08
  -1.73499994E-02   1.56955426E-08
  -1.73000004E-02   1.61985589E-08
  -1.72499996E-02   1.67140648E-08
  -1.72000006E-02   1.72401347E-08
  -1.71499997E-02   1.77754576E-08
  -1.71000008E-02   1.83201045E-08
  -1.70499999E-02   1.88756921E-08
  -1.70000009E-02   1.94448617E-08
  -1.69500001E-02   2.00303276E-08
  -1.68999992E-02   2.06338626E-08
  -1.68500002E-02   2.12557421E-08
  -1.67999994E-02   2.18948291E-08
  -1.67500004E-02   2.25493153E-08
  -1.66999996E-02   2.32177566E-08
  -1.66500006E-02   2.38999842E-08
  -1.65999997E-02   2.45974192E-08
  -1.65500008E-02   2.53127368E-08
  -1.64999999E-02   2.60489532E-08
  -1.64500009E-02   2.68083653E-08
  -1.64000001E-02   2.75918275E-08
  -1.63499992E-02   2.83986523E-08
  -1.63000003E-02   2.92272322E-08
  -1.62499994E-02   3.00760519E-08
  -1.62000004E-02   3.09446868E-08
  -1.61499996E-02   3.18343076E-08
  -1.61000006E-02   3.27475291E-08
  -1.60499997E-02   3.36875630E-08
  -1.60000008E-02   3.46571767E-08
  -1.59499999E-02   3.56577878E-08
  -1.59000009E-02   3.66892188E-08
  -1.58500001E-02   3.77501443E-08
  -1.57999992E-02   3.88390262E-08
  -1.57500003E-02   3.99552214E-08
  -1.56999994E-02   4.10996179E-08
  -1.56500004E-02   4.22746673E-08
  -1.55999996E-02   4.34836949E-08
  -1.55499997E-02   4.47298412E-08
  -1.54999997E-02   4.60150780E-08
  -1.54499998E-02   4.73397641E-08
  -1.53999999E-02   4.87029190E-08
  -1.53500000E-02   5.01030826E-08
  -1.53000001E-02   5.15394056E-08
  -1.52500002E-02   5.30124744E-08
  -1.52000003E-02   5.45245200E-08
  -1.51500003E-02   5.60788571E-08
  -1.51000004E-02   5.76789176E-08
  -1.50499996E-02   5.93271849E-08
  -1.49999997E-02   6.10245934E-08
  -1.49499997E-02   6.27705958E-08
  -1.48999998E-02   6.45639133E-08
  -1.48499999E-02   6.64035866E-08
  -1.48000000E-02   6.82899426E-08
  -1.47500001E-02   7.02249352E-08
  -1.47000002E-02   7.22118472E-08
  -1.46500003E-02   7.42543236E-08
  -1.46000003E-02   7.63553416E-08
  -1.45500004E-02   7.85164218E-08
  -1.44999996E-02   8.07375287E-08
  -1.44499997E-02   8.30176745E-08
  -1.43999998E-02   8.53559357E-08
  -1.43499998E-02   8.77524258E-08
  -1.42999999E-02   9.02089070E-08
  -1.42500000E-02   9.27285697E-08
  -1.42000001E-02   9.53152082E-08
  -1.41500002E-02   9.79722756E-08
  -1.41000003E-02   1.00701918E-07
  -1.40500003E-02   1.03504739E-07
  -1.40000004E-02   1.06380220E-07
  -1.39499996E-02   1.09327601E-07
  -1.38999997E-02   1.12346967E-07
  -1.38499998E-02   1.15439910E-07
  -1.37999998E-02   1.18609542E-07
  -1.37499999E-02   1.21859856E-07
  -1.37000000E-02   1.25194717E-07
  -1.36500001E-02   1.28616989E-07
  -1.36000002E-02   1.32127994E-07
  -1.35500003E-02   1.35727831E-07
  -1.35000004E-02   1.39416159E-07
  -1.34500004E-02   1.43193148E-07
  -1.33999996E-02   1.47060319E-07
  -1.33499997E-02   1.51020728E-07
  -1.32999998E-02   1.55078538E-07
  -1.32499998E-02   1.59238098E-07
  -1.31999999E-02   1.63502975E-07
  -1.31500000E-02   1.67875370E-07
  -1.31000001E-02   1.72356167E-07
  -1.30500002E-02   1.76945505E-07
  -1.30000003E-02   1.81643870E-07
  -1.29500004E-02   1.86452866E-07
  -1.29000004E-02   1.91375676E-07
  -1.28499996E-02   1.96416593E-07
  -1.27999997E-02   2.01580420E-07
  -1.27499998E-02   2.06871434E-07
  -1.26999998E-02   2.12292733E-07
  -1.26499999E-02   2.17846079E-07
  -1.26000000E-02   2.23532396E-07
  -1.25500001E-02   2.29352651E-07
  -1.25000002E-02   2.35308732E-07
  -1.24500003E-02   2.41403910E-07
  -1.24000004E-02   2.47642760E-07
  -1.23500004E-02   2.54030482E-07
  -1.22999996E-02   2.60572108E-07
  -1.22499997E-02   2.67271645E-07
  -1.21999998E-02   2.74131878E-07
  -1.21499998E-02   2.81154655E-07
  -1.20999999E-02   2.88341624E-07
  -1.20500000E-02   2.95694974E-07
  -1.20000001E-02   3.03218258E-07
  -1.19500002E-02   3.10916278E-07
  -1.19000003E-02   3.18794719E-07
  -1.18500004E-02   3.26859237E-07
  -1.18000004E-02   3.35114919E-07
  -1.17499996E-02   3.43565603E-07
  -1.16999997E-02   3.52214187E-07
  -1.16499998E-02   3.61063059E-07
  -1.15999999E-02   3.70115117E-07
  -1.15499999E-02   3.79374200E-07
  -1.15000000E-02   3.88845422E-07
  -1.14500001E-02   3.98534837E-07
  -1.14000002E-02   4.08448869E-07
  -1.13500003E-02   4.18593430E-07
  -1.13000004E-02   4.28973578E-07
  -1.12500004E-02   4.39593265E-07
  -1.11999996E-02   4.50455786E-07
  -1.11499997E-02   4.61564696E-07
  -1.10999998E-02   4.72924313E-07
  -1.10499999E-02   4.84540124E-07
  -1.09999999E-02   4.96418693E-07
  -1.09500000E-02   5.08567041E-07
  -1.09000001E-02   5.20991989E-07
  -1.08500002E-02   5.33699620E-07
  -1.08000003E-02   5.46694991E-07
  -1.07500004E-02   5.59982652E-07
  -1.07000005E-02   5.73567036E-07
  -1.06499996E-02   5.87453030E-07
  -1.05999997E-02   6.01646548E-07
  -1.05499998E-02   6.16154637E-07
  -1.04999999E-02   6.30985085E-07
  -1.04499999E-02   6.46145338E-07
  -1.04000000E-02   6.61642730E-07
  -1.03500001E-02   6.77483513E-07
  -1.03000002E-02   6.93673371E-07
  -1.02500003E-02   7.10217591E-07
  -1.02000004E-02   7.27121801E-07
  -1.01500005E-02   7.44392537E-07
  -1.00999996E-02   7.62037189E-07
  -1.00499997E-02   7.80063885E-07
  -9.99999978E-03   7.98481267E-07
  -9.94999986E-03   8.17297462E-07
  -9.89999995E-03   8.36520030E-07
  -9.85000003E-03   8.56155623E-07
  -9.80000012E-03   8.76210834E-07
  -9.75000020E-03   8.96692029E-07
  -9.70000029E-03   9.17606485E-07
  -9.65000037E-03   9.38962273E-07
  -9.60000046E-03   9.60768034E-07
  -9.54999961E-03   9.83033374E-07
  -9.49999969E-03   1.00576722E-06
  -9.44999978E-03   1.02897855E-06
  -9.39999986E-03   1.05267520E-06
  -9.34999995E-03   1.07686503E-06
  -9.30000003E-03   1.10155565E-06
  -9.25000012E-03   1.12675468E-06
  -9.20000020E-03   1.15247110E-06
  -9.15000029E-03   1.17871411E-06
  -9.10000037E-03   1.20549362E-06
  -9.05000046E-03   1.23281950E-06
  -8.99999961E-03   1.26070165E-06
  -8.94999970E-03   1.28914974E-06
  -8.89999978E-03   1.31817262E-06
  -8.84999987E-03   1.34777861E-06
  -8.79999995E-03   1.37797656E-06
  -8.75000004E-03   1.40877603E-06
  -8.70000012E-03   1.44018634E-06
  -8.65000021E-03   1.47221840E-06
  -8.60000029E-03   1.50488302E-06
  -8.55000038E-03   1.53819133E-06
  -8.50000046E-03   1.57215391E-06
  -8.44999962E-03   1.60678110E-06
  -8.39999970E-03   1.64208268E-06
  -8.34999979E-03   1.67806854E-06
  -8.29999987E-03   1.71474835E-06
  -8.24999996E-03   1.75213290E-06
  -8.20000004E-03   1.79023311E-06
  -8.15000013E-03   1.82906103E-06
  -8.10000021E-03   1.86862849E-06
  -8.05000030E-03   1.90894752E-06
  -8.00000038E-03   1.95002940E-06
  -7.95000046E-03   1.99188503E-06
  -7.89999962E-03   2.03452532E-06
  -7.84999970E-03   2.07796052E-06
  -7.79999979E-03   2.12220198E-06
  -7.74999987E-03   2.16726130E-06
  -7.69999996E-03   2.21315054E-06
  -7.65000004E-03   2.25988242E-06
  -7.60000013E-03   2.30746991E-06
  -7.55000021E-03   2.35592574E-06
  -7.49999983E-03   2.40526174E-06
  -7.44999992E-03   2.45549018E-06
  -7.40000000E-03   2.50662197E-06
  -7.35000009E-03   2.55866871E-06
  -7.30000017E-03   2.61164223E-06
  -7.24999979E-03   2.66555526E-06
  -7.19999988E-03   2.72042143E-06
  -7.14999996E-03   2.77625486E-06
  -7.10000005E-03   2.83306963E-06
  -7.05000013E-03   2.89087916E-06
  -7.00000022E-03   2.94969595E-06
  -6.94999984E-03   3.00953207E-06
  -6.89999992E-03   3.07039886E-06
  -6.85000001E-03   3.13230908E-06
  -6.80000009E-03   3.19527567E-06
  -6.75000018E-03   3.25931205E-06
  -6.69999979E-03   3.32443301E-06
  -6.64999988E-03   3.39065377E-06
  -6.59999996E-03   3.45798844E-06
  -6.55000005E-03   3.52645088E-06
  -6.50000013E-03   3.59605360E-06
  -6.45000022E-03   3.66680797E-06
  -6.39999984E-03   3.73872649E-06
  -6.34999992E-03   3.81182213E-06
  -6.30000001E-03   3.88610897E-06
  -6.25000009E-03   3.96160249E-06
  -6.20000018E-03   4.03831791E-06
  -6.14999980E-03   4.11627070E-06
  -6.09999988E-03   4.19547541E-06
  -6.04999997E-03   4.27594523E-06
  -6.00000005E-03   4.35769198E-06
  -5.95000014E-03   4.44072839E-06
  -5.90000022E-03   4.52506765E-06
  -5.84999984E-03   4.61072295E-06
  -5.79999993E-03   4.69771021E-06
  -5.75000001E-03   4.78604579E-06
  -5.70000010E-03   4.87574380E-06
  -5.65000018E-03   4.96682151E-06
  -5.59999980E-03   5.05929120E-06
  -5.54999989E-03   5.15316424E-06
  -5.49999997E-03   5.24845382E-06
  -5.45000006E-03   5.34517176E-06
  -5.40000014E-03   5.44333125E-06
  -5.35000023E-03   5.54294775E-06
  -5.29999984E-03   5.64403626E-06
  -5.24999993E-03   5.74661453E-06
  -5.20000001E-03   5.85069711E-06
  -5.15000010E-03   5.95629763E-06
  -5.10000018E-03   6.06342701E-06
  -5.04999980E-03   6.17209798E-06
  -4.99999989E-03   6.28232146E-06
  -4.94999997E-03   6.39410973E-06
  -4.90000006E-03   6.50747779E-06
  -4.85000014E-03   6.62244202E-06
  -4.80000023E-03   6.73901741E-06
  -4.74999985E-03   6.85721943E-06
  -4.69999993E-03   6.97706173E-06
  -4.65000002E-03   7.09855613E-06
  -4.60000010E-03   7.22171171E-06
  -4.55000019E-03   7.34653895E-06
  -4.49999981E-03   7.47304966E-06
  -4.44999989E-03   7.60125658E-06
  -4.39999998E-03   7.73117426E-06
  -4.35000006E-03   7.86281635E-06
  -4.30000015E-03   7.99619920E-06
  -4.25000023E-03   8.13133556E-06
  -4.19999985E-03   8.26823361E-06
  -4.14999994E-03   8.40690427E-06
  -4.10000002E-03   8.54735390E-06
  -4.05000011E-03   8.68959160E-06
  -4.00000019E-03   8.83363009E-06
  -3.94999981E-03   8.97948030E-06
  -3.89999989E-03   9.12715677E-06
  -3.84999998E-03   9.27667315E-06
  -3.80000006E-03   9.42804309E-06
  -3.74999992E-03   9.58127202E-06
  -3.70000000E-03   9.73636816E-06
  -3.65000009E-03   9.89333512E-06
  -3.59999994E-03   1.00521802E-05
  -3.55000002E-03   1.02129106E-05
  -3.50000011E-03   1.03755383E-05
  -3.44999996E-03   1.05400732E-05
  -3.40000005E-03   1.07065280E-05
  -3.34999990E-03   1.08749118E-05
  -3.29999998E-03   1.10452311E-05
  -3.25000007E-03   1.12174894E-05
  -3.19999992E-03   1.13916867E-05
  -3.15000000E-03   1.15678249E-05
  -3.10000009E-03   1.17459113E-05
  -3.04999994E-03   1.19259485E-05
  -3.00000003E-03   1.21079474E-05
  -2.95000011E-03   1.22919155E-05
  -2.89999996E-03   1.24778580E-05
  -2.85000005E-03   1.26657787E-05
  -2.79999990E-03   1.28556776E-05
  -2.74999999E-03   1.30475546E-05
  -2.70000007E-03   1.32414043E-05
  -2.64999992E-03   1.34372258E-05
  -2.60000001E-03   1.36350191E-05
  -2.55000009E-03   1.38347878E-05
  -2.49999994E-03   1.40365355E-05
  -2.45000003E-03   1.42402687E-05
  -2.40000011E-03   1.44459864E-05
  -2.34999997E-03   1.46536868E-05
  -2.30000005E-03   1.48633580E-05
  -2.24999990E-03   1.50749902E-05
  -2.19999999E-03   1.52885750E-05
  -2.15000007E-03   1.55041071E-05
  -2.09999993E-03   1.57215854E-05
  -2.05000001E-03   1.59410101E-05
  -2.00000009E-03   1.61623775E-05
  -1.94999995E-03   1.63856876E-05
  -1.90000003E-03   1.66109239E-05
  -1.85000000E-03   1.68380739E-05
  -1.79999997E-03   1.70671210E-05
  -1.75000005E-03   1.72980453E-05
  -1.70000002E-03   1.75308378E-05
  -1.64999999E-03   1.77654892E-05
  -1.59999996E-03   1.80019888E-05
  -1.55000004E-03   1.82403364E-05
  -1.50000001E-03   1.84805176E-05
  -1.44999998E-03   1.87225160E-05
  -1.39999995E-03   1.89663078E-05
  -1.35000004E-03   1.92118678E-05
  -1.30000000E-03   1.94591667E-05
  -1.24999997E-03   1.97081827E-05
  -1.20000006E-03   1.99588994E-05
  -1.15000003E-03   2.02113079E-05
  -1.09999999E-03   2.04653879E-05
  -1.04999996E-03   2.07211251E-05
  -1.00000005E-03   2.09784994E-05
  -9.50000016E-04   2.12374725E-05
  -8.99999985E-04   2.14980082E-05
  -8.50000011E-04   2.17600646E-05
  -7.99999980E-04   2.20236125E-05
  -7.50000007E-04   2.22886283E-05
  -6.99999975E-04   2.25550848E-05
  -6.50000002E-04   2.28229655E-05
  -6.00000028E-04   2.30922415E-05
  -5.49999997E-04   2.33628798E-05
  -5.00000024E-04   2.36348387E-05
  -4.49999992E-04   2.39080691E-05
  -3.99999990E-04   2.41825182E-05
  -3.49999988E-04   2.44581424E-05
  -3.00000014E-04   2.47349017E-05
  -2.50000012E-04   2.50127632E-05
  -1.99999995E-04   2.52916998E-05
  -1.50000007E-04   2.55716732E-05
  -9.99999975E-05   2.58526452E-05
  -4.99999987E-05   2.61345594E-05
   0.00000000       2.64173577E-05
   4.99999987E-05   2.67009764E-05
   9.99999975E-05   2.69853535E-05
   1.50000007E-04   2.72704383E-05
   1.99999995E-04   2.75561852E-05
   2.50000012E-04   2.78425468E-05
   3.00000014E-04   2.81294815E-05
   3.49999988E-04   2.84169346E-05
   3.99999990E-04   2.87048479E-05
   4.49999992E-04   2.89931486E-05
   5.00000024E-04   2.92817585E-05
   5.49999997E-04   2.95705959E-05
   6.00000028E-04   2.98595951E-05
   6.50000002E-04   3.01486925E-05
   6.99999975E-04   3.04378354E-05
   7.50000007E-04   3.07269693E-05
   7.99999980E-04   3.10160285E-05
   8.50000011E-04   3.13049386E-05
   8.99999985E-04   3.15936231E-05
   9.50000016E-04   3.18819802E-05
   1.00000005E-03   3.21699226E-05
   1.04999996E-03   3.24573557E-05
   1.09999999E-03   3.27442067E-05
   1.15000003E-03   3.30304028E-05
   1.20000006E-03   3.33158787E-05
   1.24999997E-03   3.36005651E-05
   1.30000000E-03   3.38843711E-05
   1.35000004E-03   3.41672021E-05
   1.39999995E-03   3.44489490E-05
   1.44999998E-03   3.47294990E-05
   1.50000001E-03   3.50087430E-05
   1.55000004E-03   3.52865936E-05
   1.59999996E-03   3.55629527E-05
   1.64999999E-03   3.58377474E-05
   1.70000002E-03   3.61108869E-05
   1.75000005E-03   3.63822801E-05
   1.79999997E-03   3.66518143E-05
   1.85000000E-03   3.69193694E-05
   1.90000003E-03   3.71848146E-05
   1.94999995E-03   3.74480223E-05
   2.00000009E-03   3.77088763E-05
   2.05000001E-03   3.79672711E-05
   2.09999993E-03   3.82231119E-05
   2.15000007E-03   3.84763043E-05
   2.19999999E-03   3.87267355E-05
   2.24999990E-03   3.89742854E-05
   2.30000005E-03   3.92188194E-05
   2.34999997E-03   3.94601957E-05
   2.40000011E-03   3.96982578E-05
   2.45000003E-03   3.99328746E-05
   2.49999994E-03   4.01639263E-05
   2.55000009E-03   4.03912964E-05
   2.60000001E-03   4.06148793E-05
   2.64999992E-03   4.08345513E-05
   2.70000007E-03   4.10501780E-05
   2.74999999E-03   4.12616100E-05
   2.79999990E-03   4.14686801E-05