  -3.99999991E-02   0.00000000    
  -3.99499983E-02   0.00000000    
  -3.99000011E-02  -3.88713367E-12
  -3.98500003E-02  -1.87654493E-11
  -3.97999994E-02  -4.39488619E-11
  -3.97499986E-02  -6.85159915E-11
  -3.97000015E-02  -8.68163111E-11
  -3.96500006E-02  -1.11297166E-10
  -3.95999998E-02  -1.58295502E-10
  -3.95499989E-02  -2.19078894E-10
  -3.95000018E-02  -2.57428467E-10
  -3.94500010E-02  -2.48356891E-10
  -3.94000001E-02  -2.15747281E-10
  -3.93499993E-02  -2.16215906E-10
  -3.92999984E-02  -2.77888573E-10
  -3.92500013E-02  -3.64622055E-10
  -3.92000005E-02  -4.13958784E-10
  -3.91499996E-02  -4.07982592E-10
  -3.90999988E-02  -3.90094984E-10
  -3.90500017E-02  -4.03511086E-10
  -3.90000008E-02  -4.27503449E-10
  -3.89500000E-02  -3.96555316E-10
  -3.88999991E-02  -2.84902796E-10
  -3.88499983E-02  -1.49549401E-10
  -3.88000011E-02  -6.81569592E-11
  -3.87500003E-02  -4.01487073E-11
  -3.86999995E-02   2.46124354E-11
  -3.86499986E-02   2.05400849E-10
  -3.86000015E-02   4.75033957E-10
  -3.85500006E-02   7.29353300E-10
  -3.84999998E-02   9.13265630E-10
  -3.84499989E-02   1.09198550E-09
  -3.84000018E-02   1.37618816E-09
  -3.83500010E-02   1.78730653E-09
  -3.83000001E-02   2.22683227E-09
  -3.82499993E-02   2.58949284E-09
  -3.81999984E-02   2.88257973E-09
  -3.81500013E-02   3.20384430E-09
  -3.81000005E-02   3.60645203E-09
  -3.80499996E-02   4.02478406E-09
  -3.79999988E-02   4.36299663E-09
  -3.79500017E-02   4.64093475E-09
  -3.79000008E-02   5.00707920E-09
  -3.78500000E-02   5.58150770E-09
  -3.77999991E-02   6.30398045E-09
  -3.77499983E-02   6.97088520E-09
  -3.77000012E-02   7.42916750E-09
  -3.76500003E-02   7.71092168E-09
  -3.75999995E-02   7.96296451E-09
  -3.75499986E-02   8.26736368E-09
  -3.75000015E-02   8.56880700E-09
  -3.74500006E-02   8.77935591E-09
  -3.73999998E-02   8.90442120E-09
  -3.73499990E-02   9.01150532E-09
  -3.73000018E-02   9.07597197E-09
  -3.72500010E-02   8.91778207E-09
  -3.72000001E-02   8.35375946E-09
  -3.71499993E-02   7.42514139E-09
  -3.70999984E-02   6.44013376E-09
  -3.70500013E-02   5.75430770E-09
  -3.70000005E-02   5.49466828E-09
  -3.69499996E-02   5.48938628E-09
  -3.68999988E-02   5.43479883E-09
  -3.68500017E-02   5.09047915E-09
  -3.68000008E-02   4.31761960E-09
  -3.67500000E-02   3.01010594E-09
  -3.66999991E-02   1.10363629E-09
  -3.66499983E-02  -1.28753708E-09
  -3.66000012E-02  -3.78555942E-09
  -3.65500003E-02  -5.90710725E-09
  -3.64999995E-02  -7.40129158E-09
  -3.64499986E-02  -8.46917114E-09
  -3.64000015E-02  -9.63998126E-09
  -3.63500006E-02  -1.13999175E-08
  -3.62999998E-02  -1.38923451E-08
  -3.62499990E-02  -1.69024492E-08
  -3.62000018E-02  -2.00474002E-08
  -3.61500010E-02  -2.29491377E-08
  -3.61000001E-02  -2.52977355E-08
  -3.60499993E-02  -2.69072391E-08
  -3.59999985E-02  -2.78547567E-08
  -3.59500013E-02  -2.85943749E-08
  -3.59000005E-02  -2.98314866E-08
  -3.58499996E-02  -3.21193703E-08
  -3.57999988E-02  -3.54421026E-08
  -3.57500017E-02  -3.91361361E-08
  -3.57000008E-02  -4.22470023E-08
  -3.56500000E-02  -4.40604921E-08
  -3.55999991E-02  -4.44383197E-08
  -3.55499983E-02  -4.38016095E-08
  -3.55000012E-02  -4.28849880E-08
  -3.54500003E-02  -4.24553903E-08
  -3.53999995E-02  -4.30601794E-08
  -3.53499986E-02  -4.47778916E-08
  -3.53000015E-02  -4.70357229E-08
  -3.52500007E-02  -4.86894542E-08
  -3.51999998E-02  -4.84891594E-08
  -3.51499990E-02  -4.57531790E-08
  -3.51000018E-02  -4.08215008E-08
  -3.50500010E-02  -3.49433655E-08
  -3.50000001E-02  -2.96415639E-08
  -3.49499993E-02  -2.59556323E-08
  -3.48999985E-02  -2.39952325E-08
  -3.48500013E-02  -2.29620110E-08
  -3.48000005E-02  -2.15145715E-08
  -3.47499996E-02  -1.82756246E-08
  -3.46999988E-02  -1.23543078E-08
  -3.46500017E-02  -3.77625708E-09
  -3.46000008E-02   6.37190301E-09
  -3.45500000E-02   1.62917431E-08
  -3.44999991E-02   2.42966678E-08
  -3.44499983E-02   2.97210558E-08
  -3.44000012E-02   3.33509433E-08
  -3.43500003E-02   3.70599622E-08
  -3.42999995E-02   4.28489813E-08
  -3.42499986E-02   5.18591037E-08
  -3.42000015E-02   6.38752695E-08
  -3.41500007E-02   7.74701263E-08
  -3.40999998E-02   9.06032938E-08
  -3.40499990E-02   1.01400609E-07
  -3.40000018E-02   1.08895570E-07
  -3.39500010E-02   1.13516450E-07
  -3.39000002E-02   1.17047030E-07
  -3.38499993E-02   1.21891816E-07
  -3.37999985E-02   1.29853404E-07
  -3.37500013E-02   1.41056574E-07
  -3.37000005E-02   1.53709607E-07
  -3.36499996E-02   1.64921232E-07
  -3.35999988E-02   1.72112721E-07
  -3.35500017E-02   1.74220702E-07
  -3.35000008E-02   1.72111143E-07
  -3.34500000E-02   1.68145220E-07
  -3.33999991E-02   1.65210423E-07
  -3.33499983E-02   1.65582392E-07
  -3.33000012E-02   1.69927290E-07
  -3.32500003E-02   1.76793009E-07
  -3.31999995E-02   1.82959965E-07
  -3.31499986E-02   1.84743712E-07
  -3.31000015E-02   1.79750472E-07
  -3.30500007E-02   1.68124899E-07
  -3.29999998E-02   1.52504299E-07
  -3.29499990E-02   1.36679745E-07
  -3.29000019E-02   1.23760898E-07
  -3.28500010E-02   1.14836844E-07
  -3.28000002E-02   1.08663500E-07
  -3.27499993E-02   1.02295800E-07
  -3.26999985E-02   9.22911383E-08
  -3.26500013E-02   7.61146381E-08
  -3.26000005E-02   5.33518723E-08
  -3.25499997E-02   2.61913282E-08
  -3.24999988E-02  -1.29871480E-09
  -3.24500017E-02  -2.50165684E-08
  -3.24000008E-02  -4.29095834E-08
  -3.23500000E-02  -5.60650797E-08
  -3.22999991E-02  -6.81287347E-08
  -3.22499983E-02  -8.34324823E-08
  -3.22000012E-02  -1.04944775E-07
  -3.21500003E-02  -1.33045233E-07
  -3.20999995E-02  -1.65463717E-07
  -3.20499986E-02  -1.98176650E-07
  -3.20000015E-02  -2.26907716E-07
  -3.19500007E-02  -2.48859578E-07
  -3.18999998E-02  -2.64092620E-07
  -3.18499990E-02  -2.75769480E-07
  -3.18000019E-02  -2.88805495E-07
  -3.17500010E-02  -3.07392554E-07
  -3.17000002E-02  -3.32733975E-07
  -3.16499993E-02  -3.62330098E-07
  -3.15999985E-02  -3.91181601E-07
  -3.15500014E-02  -4.14103852E-07
  -3.15000005E-02  -4.27885283E-07
  -3.14499997E-02  -4.32428465E-07
  -3.13999988E-02  -4.30684736E-07
  -3.13500017E-02  -4.27545501E-07
  -3.13000008E-02  -4.27948009E-07
  -3.12500000E-02  -4.34689753E-07
  -3.11999992E-02  -4.46878971E-07
  -3.11500002E-02  -4.60024353E-07
  -3.10999993E-02  -4.68030976E-07
  -3.10500003E-02  -4.66158696E-07
  -3.09999995E-02  -4.53282752E-07
  -3.09500005E-02  -4.32237869E-07
  -3.08999997E-02  -4.08267709E-07
  -3.08500007E-02  -3.86614914E-07
  -3.07999998E-02  -3.70410845E-07
  -3.07500008E-02  -3.59527746E-07
  -3.07000000E-02  -3.50593581E-07
  -3.06499992E-02  -3.38198987E-07
  -3.06000002E-02  -3.17103144E-07
  -3.05499993E-02  -2.84702850E-07
  -3.05000003E-02  -2.42517274E-07
  -3.04499995E-02  -1.95656682E-07
  -3.04000005E-02  -1.50362723E-07
  -3.03499997E-02  -1.10964585E-07
  -3.03000007E-02  -7.79517464E-08
  -3.02499998E-02  -4.80570179E-08
  -3.02000009E-02  -1.60074691E-08
  -3.01500000E-02   2.31067325E-08
  -3.00999992E-02   7.18032069E-08
  -3.00500002E-02   1.29077321E-07
  -2.99999993E-02   1.90510633E-07
  -2.99500003E-02   2.49796727E-07
  -2.98999995E-02   3.01381789E-07
  -2.98500005E-02   3.43134815E-07
  -2.97999997E-02   3.77567687E-07
  -2.97500007E-02   4.10735964E-07
  -2.96999998E-02   4.49310761E-07
  -2.96500009E-02   4.97421979E-07
  -2.96000000E-02   5.54880330E-07
  -2.95499992E-02   6.17421108E-07
  -2.95000002E-02   6.78523293E-07
  -2.94499993E-02   7.31886871E-07
  -2.94000003E-02   7.73741078E-07
  -2.93499995E-02   8.04307092E-07
  -2.93000005E-02   8.27811164E-07
  -2.92499997E-02   8.50737706E-07
  -2.92000007E-02   8.78807839E-07
  -2.91499998E-02   9.14081909E-07
  -2.91000009E-02   9.53787662E-07
  -2.90500000E-02   9.91585580E-07
  -2.89999992E-02   1.02054537E-06
  -2.89500002E-02   1.03620664E-06
  -2.88999993E-02   1.03828029E-06
  -2.88500004E-02   1.03049024E-06
  -2.87999995E-02   1.01892044E-06
  -2.87500005E-02   1.00957550E-06
  -2.86999997E-02   1.00592615E-06
  -2.86500007E-02   1.00726015E-06
  -2.85999998E-02   1.00865930E-06
  -2.85500009E-02   1.00295358E-06
  -2.85000000E-02   9.83980954E-07
  -2.84499992E-02   9.49543676E-07
  -2.84000002E-02   9.02429804E-07
  -2.83499993E-02   8.48957484E-07
  -2.83000004E-02   7.95926553E-07
  -2.82499995E-02   7.47609192E-07
  -2.82000005E-02   7.04116871E-07
  -2.81499997E-02   6.61564115E-07
  -2.81000007E-02   6.13738564E-07
  -2.80499998E-02   5.54671317E-07
  -2.80000009E-02   4.81307666E-07
  -2.79500000E-02   3.95277937E-07
  -2.78999992E-02   3.02749072E-07
  -2.78500002E-02   2.12021973E-07
  -2.77999993E-02   1.29821800E-07
  -2.77500004E-02   5.81640549E-08
  -2.76999995E-02  -6.48806964E-09
  -2.76500005E-02  -7.13820540E-08
  -2.75999997E-02  -1.44058831E-07
  -2.75500007E-02  -2.29081039E-07
  -2.74999999E-02  -3.26205225E-07
  -2.74500009E-02  -4.30435904E-07
  -2.74000000E-02  -5.33776188E-07
  -2.73499992E-02  -6.28172302E-07
  -2.73000002E-02  -7.08781386E-07
  -2.72499993E-02  -7.76211323E-07
  -2.72000004E-02  -8.36399295E-07
  -2.71499995E-02  -8.97835378E-07
  -2.71000005E-02  -9.67380402E-07
  -2.70499997E-02  -1.04689070E-06
  -2.70000007E-02  -1.13243254E-06
  -2.69499999E-02  -1.21625180E-06
  -2.69000009E-02  -1.29020043E-06
  -2.68500000E-02  -1.34894378E-06
  -2.67999992E-02  -1.39181179E-06
  -2.67500002E-02  -1.42291037E-06
  -2.66999993E-02  -1.44948592E-06
  -2.66500004E-02  -1.47885532E-06
  -2.65999995E-02  -1.51490860E-06
  -2.65500005E-02  -1.55587588E-06
  -2.64999997E-02  -1.59485819E-06
  -2.64500007E-02  -1.62315212E-06
  -2.63999999E-02  -1.63462767E-06
  -2.63500009E-02  -1.62869810E-06
  -2.63000000E-02  -1.61039372E-06
  -2.62499992E-02  -1.58787122E-06
  -2.62000002E-02  -1.56887052E-06
  -2.61499994E-02  -1.55768498E-06
  -2.61000004E-02  -1.55347811E-06
  -2.60499995E-02  -1.55039152E-06
  -2.60000005E-02  -1.53965698E-06
  -2.59499997E-02  -1.51330767E-06
  -2.59000007E-02  -1.46807645E-06
  -2.58499999E-02  -1.40735472E-06
  -2.58000009E-02  -1.33981496E-06
  -2.57500000E-02  -1.27525152E-06
  -2.56999992E-02  -1.22000233E-06
  -2.56500002E-02  -1.17439254E-06
  -2.55999994E-02  -1.13320505E-06
  -2.55500004E-02  -1.08843665E-06
  -2.54999995E-02  -1.03277910E-06
  -2.54500005E-02  -9.62628860E-07
  -2.53999997E-02  -8.79822835E-07
  -2.53500007E-02  -7.91439902E-07
  -2.52999999E-02  -7.07288962E-07
  -2.52500009E-02  -6.35709625E-07
  -2.52000000E-02  -5.79636605E-07
  -2.51499992E-02  -5.35210802E-07
  -2.51000002E-02  -4.93908715E-07
  -2.50499994E-02  -4.46952185E-07
  -2.50000004E-02  -3.89422325E-07
  -2.49499995E-02  -3.22071088E-07
  -2.49000005E-02  -2.50455969E-07
  -2.48499997E-02  -1.82397855E-07
  -2.48000007E-02  -1.25005144E-07
  -2.47499999E-02  -8.20597919E-08
  -2.47000009E-02  -5.25100745E-08
  -2.46500000E-02  -3.09021573E-08
  -2.45999992E-02  -1.00436086E-08
  -2.45500002E-02   1.50499329E-08
  -2.44999994E-02   4.41527064E-08
  -2.44500004E-02   7.17160304E-08
  -2.43999995E-02   8.97053383E-08
  -2.43500005E-02   9.16833685E-08
  -2.42999997E-02   7.56707834E-08
  -2.42500007E-02   4.45369750E-08
  -2.41999999E-02   4.36087344E-09
  -2.41500009E-02  -3.81641989E-08
  -2.41000000E-02  -7.83169369E-08
  -2.40499992E-02  -1.15343816E-07
  -2.40000002E-02  -1.53225784E-07
  -2.39499994E-02  -1.99416121E-07
  -2.39000004E-02  -2.61572012E-07
  -2.38499995E-02  -3.43859085E-07
  -2.38000005E-02  -4.44929469E-07
  -2.37499997E-02  -5.58825491E-07
  -2.37000007E-02  -6.78205993E-07
  -2.36499999E-02  -7.97835696E-07
  -2.36000009E-02  -9.16508611E-07
  -2.35500000E-02  -1.03688603E-06
  -2.34999992E-02  -1.16386639E-06
  -2.34500002E-02  -1.30246121E-06
  -2.33999994E-02  -1.45600166E-06
  -2.33500004E-02  -1.62480831E-06
  -2.32999995E-02  -1.80580582E-06
  -2.32500006E-02  -1.99381157E-06
  -2.31999997E-02  -2.18407376E-06
  -2.31500007E-02  -2.37469999E-06
  -2.30999999E-02  -2.56748649E-06
  -2.30500009E-02  -2.76645505E-06
  -2.30000000E-02  -2.97518409E-06
  -2.29499992E-02  -3.19487367E-06
  -2.29000002E-02  -3.42413637E-06
  -2.28499994E-02  -3.66022527E-06
  -2.28000004E-02  -3.90059949E-06
  -2.27499995E-02  -4.14368606E-06
  -2.27000006E-02  -4.38922825E-06
  -2.26499997E-02  -4.63850847E-06
  -2.26000007E-02  -4.89397644E-06
  -2.25499999E-02  -5.15812690E-06
  -2.25000009E-02  -5.43193255E-06
  -2.24500000E-02  -5.71398095E-06
  -2.23999992E-02  -6.00122530E-06
  -2.23500002E-02  -6.29117540E-06
  -2.22999994E-02  -6.58380895E-06
  -2.22500004E-02  -6.88161845E-06
  -2.21999995E-02  -7.18783531E-06
  -2.21500006E-02  -7.50455274E-06
  -2.20999997E-02  -7.83191081E-06
  -2.20500007E-02  -8.16845204E-06
  -2.19999999E-02  -8.51200184E-06
  -2.19500009E-02  -8.86037742E-06
  -2.19000001E-02  -9.21194624E-06
  -2.18499992E-02  -9.56662188E-06
  -2.18000002E-02  -9.92658715E-06
  -2.17499994E-02  -1.02955828E-05
  -2.17000004E-02  -1.06768966E-05
  -2.16499995E-02  -1.10714491E-05
  -2.16000006E-02  -1.14775457E-05
  -2.15499997E-02  -1.18924727E-05
  -2.15000007E-02  -1.23149148E-05
  -2.14499999E-02  -1.27464955E-05
  -2.14000009E-02  -1.31910438E-05
  -2.13500001E-02  -1.36524914E-05
  -2.12999992E-02  -1.41331302E-05
  -2.12500002E-02  -1.46324155E-05
  -2.11999994E-02  -1.51468794E-05
  -2.11500004E-02  -1.56711612E-05
  -2.10999995E-02  -1.61997486E-05
  -2.10500006E-02  -1.67291819E-05
  -2.09999997E-02  -1.72605087E-05
  -2.09500007E-02  -1.78001555E-05
  -2.08999999E-02  -1.83574393E-05
  -2.08500009E-02  -1.89401853E-05
  -2.08000001E-02  -1.95508073E-05
  -2.07499992E-02  -2.01852599E-05
  -2.07000002E-02  -2.08353995E-05
  -2.06499994E-02  -2.14929587E-05
  -2.06000004E-02  -2.21530954E-05
  -2.05499995E-02  -2.28160679E-05
  -2.05000006E-02  -2.34868512E-05
  -2.04499997E-02  -2.41737489E-05
  -2.04000007E-02  -2.48849792E-05
  -2.03499999E-02  -2.56241528E-05
  -2.03000009E-02  -2.63877446E-05
  -2.02500001E-02  -2.71660847E-05
  -2.01999992E-02  -2.79478318E-05
  -2.01500002E-02  -2.87253206E-05
  -2.00999994E-02  -2.94986876E-05
  -2.00500004E-02  -3.02755780E-05
  -1.99999996E-02  -3.10671057E-05
  -1.99500006E-02  -3.18829298E-05
  -1.98999997E-02  -3.27267117E-05
  -1.98500007E-02  -3.35943769E-05
  -1.97999999E-02  -3.44760047E-05
  -1.97500009E-02  -3.53598771E-05
  -1.97000001E-02  -3.62369865E-05
  -1.96499992E-02  -3.71052956E-05
  -1.96000002E-02  -3.79719786E-05
  -1.95499994E-02  -3.88506705E-05
  -1.95000004E-02  -3.97547956E-05
  -1.94499996E-02  -4.06904001E-05
  -1.94000006E-02  -4.16519433E-05
  -1.93499997E-02  -4.26251427E-05
  -1.93000007E-02  -4.35944894E-05
  -1.92499999E-02  -4.45502883E-05
  -1.92000009E-02  -4.54919209E-05
  -1.91500001E-02  -4.64278601E-05
  -1.90999992E-02  -4.73732653E-05
  -1.90500002E-02  -4.83443582E-05
  -1.89999994E-02  -4.93519983E-05
  -1.89500004E-02  -5.03947485E-05
  -1.88999996E-02  -5.14574822E-05
  -1.88500006E-02  -5.25192299E-05
  -1.87999997E-02  -5.35643812E-05
  -1.87500007E-02  -5.45891417E-05
  -1.86999999E-02  -5.56029336E-05
  -1.86500009E-02  -5.66244889E-05
  -1.86000001E-02  -5.76733983E-05
  -1.85499992E-02  -5.87635113E-05
  -1.85000002E-02  -5.98981132E-05
  -1.84499994E-02  -6.10683783E-05
  -1.84000004E-02  -6.22565858E-05
  -1.83499996E-02  -6.34445969E-05
  -1.83000006E-02  -6.46243279E-05
  -1.82499997E-02  -6.58020435E-05
  -1.82000007E-02  -6.69960355E-05
  -1.81499999E-02  -6.82286118E-05
  -1.81000009E-02  -6.95157214E-05
  -1.80500001E-02  -7.08598163E-05
  -1.79999992E-02  -7.22506593E-05
  -1.79500002E-02  -7.36709044E-05
  -1.78999994E-02  -7.51045736E-05
  -1.78500004E-02  -7.65452423E-05
  -1.77999996E-02  -7.80012779E-05
  -1.77500006E-02  -7.94956068E-05
  -1.76999997E-02  -8.10550191E-05
  -1.76500008E-02  -8.27005497E-05
  -1.75999999E-02  -8.44395036E-05
  -1.75500009E-02  -8.62625966E-05
  -1.75000001E-02  -8.81495071E-05
  -1.74499992E-02  -9.00784216E-05
  -1.74000002E-02  -9.20371749E-05
  -1.73499994E-02  -9.40308528E-05
  -1.73000004E-02  -9.60820762E-05
  -1.72499996E-02  -9.82223792E-05
  -1.72000006E-02  -1.00478050E-04
  -1.71499997E-02  -1.02859136E-04
  -1.71000008E-02  -1.05358289E-04
  -1.70499999E-02  -1.07956745E-04
  -1.70000009E-02  -1.10634006E-04
  -1.69500001E-02  -1.13376962E-04
  -1.68999992E-02  -1.16187912E-04
  -1.68500002E-02  -1.19086842E-04
  -1.67999994E-02  -1.22105514E-04
  -1.67500004E-02  -1.25275605E-04
  -1.66999996E-02  -1.28615269E-04
  -1.66500006E-02  -1.32121510E-04
  -1.65999997E-02  -1.35770373E-04
  -1.65500008E-02  -1.39532174E-04
  -1.64999999E-02  -1.43389683E-04
  -1.64500009E-02  -1.47344370E-04
  -1.64000001E-02  -1.51415734E-04
  -1.63499992E-02  -1.55630070E-04
  -1.63000003E-02  -1.60014461E-04
  -1.62499994E-02  -1.64591387E-04
  -1.62000004E-02  -1.69363979E-04
  -1.61499996E-02  -1.74313202E-04
  -1.61000006E-02  -1.79411159E-04
  -1.60499997E-02  -1.84637887E-04
  -1.60000008E-02  -1.89991551E-04
  -1.59499999E-02  -1.95491564E-04
  -1.59000009E-02  -2.01169314E-04
  -1.58500001E-02  -2.07054545E-04
  -1.57999992E-02  -2.13163934E-04
  -1.57500003E-02  -2.19493217E-04
  -1.56999994E-02  -2.26022981E-04
  -1.56500004E-02  -2.32725593E-04
  -1.55999996E-02  -2.39574307E-04
  -1.55499997E-02  -2.46557931E-04
  -1.54999997E-02  -2.53691571E-04
  -1.54499998E-02  -2.61009758E-04
  -1.53999999E-02  -2.68551346E-04
  -1.53500000E-02  -2.76344101E-04
  -1.53000001E-02  -2.84388982E-04
  -1.52500002E-02  -2.92661454E-04
  -1.52000003E-02  -3.01125401E-04
  -1.51500003E-02  -3.09753348E-04
  -1.51000004E-02  -3.18536244E-04
  -1.50499996E-02  -3.27481976E-04
  -1.49999997E-02  -3.36615019E-04
  -1.49499997E-02  -3.45972774E-04
  -1.48999998E-02  -3.55587923E-04
  -1.48499999E-02  -3.65468470E-04
  -1.48000000E-02  -3.75594158E-04
  -1.47500001E-02  -3.85931082E-04
  -1.47000002E-02  -3.96446383E-04
  -1.46500003E-02  -4.07126005E-04
  -1.46000003E-02  -4.17983159E-04
  -1.45500004E-02  -4.29044128E-04
  -1.44999996E-02  -4.40340780E-04
  -1.44499997E-02  -4.51903325E-04
  -1.43999998E-02  -4.63742850E-04
  -1.43499998E-02  -4.75842593E-04
  -1.42999999E-02  -4.88168327E-04
  -1.42500000E-02  -5.00681112E-04
  -1.42000001E-02  -5.13358100E-04
  -1.41500002E-02  -5.26210584E-04
  -1.41000003E-02  -5.39270346E-04
  -1.40500003E-02  -5.52577898E-04
  -1.40000004E-02  -5.66167524E-04
  -1.39499996E-02  -5.80046210E-04
  -1.38999997E-02  -5.94198937E-04
  -1.38499998E-02  -6.08591596E-04
  -1.37999998E-02  -6.23188389E-04
  -1.37499999E-02  -6.37975463E-04
  -1.37000000E-02  -6.52958348E-04
  -1.36500001E-02  -6.68160676E-04
  -1.36000002E-02  -6.83620921E-04
  -1.35500003E-02  -6.99383148E-04
  -1.35000004E-02  -7.15473434E-04
  -1.34500004E-02  -7.31874898E-04
  -1.33999996E-02  -7.48537306E-04
  -1.33499997E-02  -7.65407225E-04
  -1.32999998E-02  -7.82467541E-04
  -1.32499998E-02  -7.99735717E-04
  -1.31999999E-02  -8.17240623E-04
  -1.31500000E-02  -8.35021201E-04
  -1.31000001E-02  -8.53118952E-04
  -1.30500002E-02  -8.71568976E-04
  -1.30000003E-02  -8.90378898E-04
  -1.29500004E-02  -9.09515948E-04
  -1.29000004E-02  -9.28926864E-04
  -1.28499996E-02  -9.48578003E-04
  -1.27999997E-02  -9.68471228E-04
  -1.27499998E-02  -9.88645595E-04
  -1.26999998E-02  -1.00915378E-03
  -1.26499999E-02  -1.03001518E-03
  -1.26000000E-02  -1.05121767E-03
  -1.25500001E-02  -1.07275310E-03
  -1.25000002E-02  -1.09462405E-03
  -1.24500003E-02  -1.11682620E-03
  -1.24000004E-02  -1.13933138E-03
  -1.23500004E-02  -1.16211246E-03
  -1.22999996E-02  -1.18520227E-03
  -1.22499997E-02  -1.20868837E-03
  -1.21999998E-02  -1.23265968E-03
  -1.21499998E-02  -1.25714170E-03
  -1.20999999E-02  -1.28207507E-03
  -1.20500000E-02  -1.30738260E-03
  -1.20000001E-02  -1.33302493E-03
  -1.19500002E-02  -1.35898590E-03
  -1.19000003E-02  -1.38524931E-03
  -1.18500004E-02  -1.41181110E-03
  -1.18000004E-02  -1.43871154E-03
  -1.17499996E-02  -1.46602129E-03
  -1.16999997E-02  -1.49381231E-03
  -1.16499998E-02  -1.52213441E-03
  -1.15999999E-02  -1.55099225E-03
  -1.15499999E-02  -1.58035650E-03
  -1.15000000E-02  -1.61018944E-03
  -1.14500001E-02  -1.64050411E-03
  -1.14000002E-02  -1.67136011E-03
  -1.13500003E-02  -1.70278607E-03
  -1.13000004E-02  -1.73478096E-03
  -1.12500004E-02  -1.76732987E-03
  -1.11999996E-02  -1.80038717E-03
  -1.11499997E-02  -1.83389510E-03
  -1.10999998E-02  -1.86779804E-03
  -1.10499999E-02  -1.90205208E-03
  -1.09999999E-02  -1.93664466E-03
  -1.09500000E-02  -1.97161688E-03
  -1.09000001E-02  -2.00707302E-03
  -1.08500002E-02  -2.04315246E-03
  -1.08000003E-02  -2.07999349E-03
  -1.07500004E-02  -2.11766432E-03
  -1.07000005E-02  -2.15613842E-03
  -1.06499996E-02  -2.19536200E-03
  -1.05999997E-02  -2.23530619E-03
  -1.05499998E-02  -2.27595353E-03
  -1.04999999E-02  -2.31726305E-03
  -1.04499999E-02  -2.35920190E-03
  -1.04000000E-02  -2.40176730E-03
  -1.03500001E-02  -2.44497065E-03
  -1.03000002E-02  -2.48881499E-03
  -1.02500003E-02  -2.53329705E-03
  -1.02000004E-02  -2.57838937E-03
  -1.01500005E-02  -2.62402883E-03
  -1.00999996E-02  -2.67020729E-03
  -1.00499997E-02  -2.71701650E-03
  -9.99999978E-03  -2.76461570E-03
  -9.94999986E-03  -2.81313993E-03
  -9.89999995E-03  -2.86260084E-03
  -9.85000003E-03  -2.91296258E-03
  -9.80000012E-03  -2.96423025E-03
  -9.75000020E-03  -3.01644113E-03
  -9.70000029E-03  -3.06959799E-03
  -9.65000037E-03  -3.12358816E-03
  -9.60000046E-03  -3.17829684E-03
  -9.54999961E-03  -3.23378062E-03
  -9.49999969E-03  -3.29022598E-03
  -9.44999978E-03  -3.34776752E-03
  -9.39999986E-03  -3.40640312E-03
  -9.34999995E-03  -3.46600567E-03
  -9.30000003E-03  -3.52647994E-03
  -9.25000012E-03  -3.58786131E-03
  -9.20000020E-03  -3.65017820E-03
  -9.15000029E-03  -3.71340686E-03
  -9.10000037E-03  -3.77746811E-03
  -9.05000046E-03  -3.84237175E-03
  -8.99999961E-03  -3.90826911E-03
  -8.94999970E-03  -3.97531688E-03
  -8.89999978E-03  -4.04356234E-03
  -8.84999987E-03  -4.11288068E-03
  -8.79999995E-03  -4.18315595E-03
  -8.75000004E-03  -4.25443705E-03
  -8.70000012E-03  -4.32685111E-03
  -8.65000021E-03  -4.40048426E-03
  -8.60000029E-03  -4.47534630E-03
  -8.55000038E-03  -4.55143815E-03
  -8.50000046E-03  -4.62875888E-03
  -8.44999962E-03  -4.70737135E-03
  -8.39999970E-03  -4.78735566E-03
  -8.34999979E-03  -4.86861356E-03
  -8.29999987E-03  -4.95095132E-03
  -8.24999996E-03  -5.03428653E-03
  -8.20000004E-03  -5.11872722E-03
  -8.15000013E-03  -5.20447874E-03
  -8.10000021E-03  -5.29166125E-03
  -8.05000030E-03  -5.38017601E-03
  -8.00000038E-03  -5.46992570E-03
  -7.95000046E-03  -5.56098530E-03
  -7.89999962E-03  -5.65343117E-03
  -7.84999970E-03  -5.74719161E-03
  -7.79999979E-03  -5.84208267E-03
  -7.74999987E-03  -5.93804708E-03
  -7.69999996E-03  -6.03523524E-03
  -7.65000004E-03  -6.13387302E-03
  -7.60000013E-03  -6.23406796E-03
  -7.55000021E-03  -6.33572880E-03
  -7.49999983E-03  -6.43879827E-03
  -7.44999992E-03  -6.54333923E-03
  -7.40000000E-03  -6.64936425E-03
  -7.35000009E-03  -6.75685611E-03
  -7.30000017E-03  -6.86570955E-03
  -7.24999979E-03  -6.97584404E-03
  -7.19999988E-03  -7.08741462E-03
  -7.14999996E-03  -7.20064621E-03
  -7.10000005E-03  -7.31565664E-03
  -7.05000013E-03  -7.43230898E-03
  -7.00000022E-03  -7.55038578E-03
  -6.94999984E-03  -7.66974874E-03
  -6.89999992E-03  -7.79046025E-03
  -6.85000001E-03  -7.91270752E-03
  -6.80000009E-03  -8.03649705E-03
  -6.75000018E-03  -8.16168170E-03
  -6.69999979E-03  -8.28825403E-03
  -6.64999988E-03  -8.41639563E-03
  -6.59999996E-03  -8.54632165E-03
  -6.55000005E-03  -8.67800228E-03
  -6.50000013E-03  -8.81108455E-03
  -6.45000022E-03  -8.94541573E-03
  -6.39999984E-03  -9.08111688E-03
  -6.34999992E-03  -9.21830907E-03
  -6.30000001E-03  -9.35711339E-03
  -6.25000009E-03  -9.49764624E-03
  -6.20000018E-03  -9.63994488E-03
  -6.14999980E-03  -9.78412572E-03
  -6.09999988E-03  -9.93024930E-03
  -6.04999997E-03  -1.00781145E-02
  -6.00000005E-03  -1.02274641E-02
  -5.95000014E-03  -1.03782210E-02
  -5.90000022E-03  -1.05305947E-02
  -5.84999984E-03  -1.06846839E-02
  -5.79999993E-03  -1.08404905E-02
  -5.75000001E-03  -1.09980097E-02
  -5.70000010E-03  -1.11571252E-02
  -5.65000018E-03  -1.13179274E-02
  -5.59999980E-03  -1.14805978E-02
  -5.54999989E-03  -1.16449716E-02
  -5.49999997E-03  -1.18107060E-02
  -5.45000006E-03  -1.19776037E-02
  -5.40000014E-03  -1.21459235E-02
  -5.35000023E-03  -1.23161925E-02
  -5.29999984E-03  -1.24885254E-02
  -5.24999993E-03  -1.26626976E-02
  -5.20000001E-03  -1.28384717E-02
  -5.15000010E-03  -1.30159212E-02
  -5.10000018E-03  -1.31952865E-02
  -5.04999980E-03  -1.33765480E-02
  -4.99999989E-03  -1.35596404E-02
  -4.94999997E-03  -1.37444735E-02
  -4.90000006E-03  -1.39309485E-02
  -4.85000014E-03  -1.41193187E-02
  -4.80000023E-03  -1.43097593E-02
  -4.74999985E-03  -1.45023344E-02
  -4.69999993E-03  -1.46969575E-02
  -4.65000002E-03  -1.48931053E-02
  -4.60000010E-03  -1.50904562E-02
  -4.55000019E-03  -1.52891148E-02
  -4.49999981E-03  -1.54894097E-02
  -4.44999989E-03  -1.56917367E-02
  -4.39999998E-03  -1.58960186E-02
  -4.35000006E-03  -1.61017720E-02
  -4.30000015E-03  -1.63091570E-02
  -4.25000023E-03  -1.65187195E-02
  -4.19999985E-03  -1.67305432E-02
  -4.14999994E-03  -1.69441923E-02
  -4.10000002E-03  -1.71589777E-02
  -4.05000011E-03  -1.73750371E-02
  -4.00000019E-03  -1.75931063E-02
  -3.94999981E-03  -1.78135987E-02
  -3.89999989E-03  -1.80363394E-02
  -3.84999998E-03  -1.82608645E-02
  -3.80000006E-03  -1.84872281E-02
  -3.74999992E-03  -1.87154002E-02
  -3.70000000E-03  -1.89452488E-02
  -3.65000009E-03  -1.91769022E-02
  -3.59999994E-03  -1.94102246E-02
  -3.55000002E-03  -1.96449440E-02
  -3.50000011E-03  -1.98811218E-02
  -3.44999996E-03  -2.01192703E-02
  -3.40000005E-03  -2.03596763E-02
  -3.34999990E-03  -2.06020717E-02
  -3.29999998E-03  -2.08459012E-02
  -3.25000007E-03  -2.10909806E-02
  -3.19999992E-03  -2.13375334E-02
  -3.15000000E-03  -2.15858631E-02
  -3.10000009E-03  -2.18358897E-02
  -3.04999994E-03  -2.20873859E-02
  -3.00000003E-03  -2.23405175E-02
  -2.95000011E-03  -2.25957073E-02
  -2.89999996E-03  -2.28531025E-02
  -2.85000005E-03  -2.31121294E-02
  -2.79999990E-03  -2.33724639E-02
  -2.74999999E-03  -2.36340817E-02
  -2.70000007E-03  -2.38971412E-02
  -2.64999992E-03  -2.41618548E-02
  -2.60000001E-03  -2.44281031E-02
  -2.55000009E-03  -2.46957485E-02
  -2.49999994E-03  -2.49649063E-02
  -2.45000003E-03  -2.52358876E-02
  -2.40000011E-03  -2.55087744E-02
  -2.34999997E-03  -2.57831793E-02
  -2.30000005E-03  -2.60585025E-02
  -2.24999990E-03  -2.63346937E-02
  -2.19999999E-03  -2.66120154E-02
  -2.15000007E-03  -2.68905684E-02
  -2.09999993E-03  -2.71702893E-02
  -2.05000001E-03  -2.74511091E-02
  -2.00000009E-03  -2.77333092E-02
  -1.94999995E-03  -2.80171745E-02
  -1.90000003E-03  -2.83019524E-02
  -1.85000000E-03  -2.85869669E-02
  -1.79999997E-03  -2.88726371E-02
  -1.75000005E-03  -2.91597415E-02
  -1.70000002E-03  -2.94482764E-02
  -1.64999999E-03  -2.97375619E-02
  -1.59999996E-03  -3.00273672E-02
  -1.55000004E-03  -3.03179901E-02
  -1.50000001E-03  -3.06097381E-02
  -1.44999998E-03  -3.09027992E-02
  -1.39999995E-03  -3.11968792E-02
  -1.35000004E-03  -3.14911418E-02
  -1.30000000E-03  -3.17848884E-02
  -1.24999997E-03  -3.20783891E-02
  -1.20000006E-03  -3.23728584E-02
  -1.15000003E-03  -3.26688588E-02
  -1.09999999E-03  -3.29655744E-02
  -1.04999996E-03  -3.32615748E-02
  -1.00000005E-03  -3.35566550E-02
  -9.50000016E-04  -3.38517912E-02
  -8.99999985E-04  -3.41475569E-02
  -8.50000011E-04  -3.44439931E-02
  -7.99999980E-04  -3.47399302E-02
  -7.50000007E-04  -3.50341499E-02
  -6.99999975E-04  -3.53274532E-02
  -6.50000002E-04  -3.56215090E-02
  -6.00000028E-04  -3.59166563E-02
  -5.49999997E-04  -3.62116769E-02
  -5.00000024E-04  -3.65047380E-02
  -4.49999992E-04  -3.67954150E-02
  -3.99999990E-04  -3.70854586E-02
  -3.49999988E-04  -3.73761356E-02
  -3.00000014E-04  -3.76667716E-02
  -2.50000012E-04  -3.79555635E-02
  -1.99999995E-04  -3.82418111E-02
  -1.50000007E-04  -3.85264643E-02
  -9.99999975E-05  -3.88109647E-02
  -4.99999987E-05  -3.90954353E-02
   0.00000000      -3.93776707E-02
   4.99999987E-05  -3.96561474E-02
   9.99999975E-05  -3.99313681E-02
   1.50000007E-04  -4.02051248E-02
   1.99999995E-04  -4.04786319E-02
   2.50000012E-04  -4.07503583E-02
   3.00000014E-04  -4.10186574E-02
   3.49999988E-04  -4.12832312E-02
   3.99999990E-04  -4.15449925E-02
   4.49999992E-04  -4.18049805E-02
   5.00000024E-04  -4.20629010E-02
   5.49999997E-04  -4.23172452E-02
   6.00000028E-04  -4.25665937E-02
   6.50000002E-04  -4.28117663E-02
   6.99999975E-04  -4.30543497E-02
   7.50000007E-04  -4.32949811E-02
   7.99999980E-04  -4.35329005E-02
   8.50000011E-04  -4.37661149E-02
   8.99999985E-04  -4.39932607E-02
   9.50000016E-04  -4.42145914E-02
   1.00000005E-03  -4.44327332E-02
   1.04999996E-03  -4.46488932E-02
   1.09999999E-03  -4.48603071E-02
   1.15000003E-03  -4.50646728E-02
   1.20000006E-03  -4.52615768E-02
   1.24999997E-03  -4.54525761E-02
   1.30000000E-03  -4.56399359E-02
   1.35000004E-03  -4.58235964E-02
   1.39999995E-03  -4.60006967E-02
   1.44999998E-03  -4.61682715E-02
   1.50000001E-03  -4.63267826E-02
   1.55000004E-03  -4.64803092E-02
   1.59999996E-03  -4.66311127E-02
   1.64999999E-03  -4.67763543E-02
   1.70000002E-03  -4.69112210E-02
   1.75000005E-03  -4.70341854E-02
   1.79999997E-03  -4.71499152E-02
   1.85000000E-03  -4.72626649E-02
   1.90000003E-03  -4.73701842E-02
   1.94999995E-03  -4.74667251E-02
   2.00000009E-03  -4.75490391E-02
   2.05000001E-03  -4.76212353E-02
   2.09999993E-03  -4.76893112E-02
   2.15000007E-03  -4.77521792E-02
   2.19999999E-03  -4.78032045E-02
   2.24999990E-03  -4.78392057E-02
   2.30000005E-03  -4.78627570E-02
   2.34999997E-03  -4.78783436E-02
   2.40000011E-03  -4.78877351E-02
   2.45000003E-03  -4.78860512E-02
   2.49999994E-03  -4.78677154E-02
   2.55000009E-03  -4.78333645E-02
   2.60000001E-03  -4.77897674E-02
   2.64999992E-03  -4.77409549E-02
   2.70000007E-03  -4.76813428E-02
   2.74999999E-03  -4.76036146E-02
   2.79999990E-03  -4.75071706E-02