  -3.99999991E-02   0.00000000    
  -3.99499983E-02   0.00000000    
  -3.99000011E-02   0.00000000    
  -3.98500003E-02   0.00000000    
  -3.97999994E-02   4.60692555E-19
  -3.97499986E-02   3.64105260E-18
  -3.97000015E-02   1.32709003E-17
  -3.96500006E-02   2.51728464E-17
  -3.95999998E-02   1.80623717E-18
  -3.95499989E-02  -1.62408893E-16
  -3.95000018E-02  -6.53053244E-16
  -3.94500010E-02  -1.67753827E-15
  -3.94000001E-02  -3.31257666E-15
  -3.93499993E-02  -5.30430073E-15
  -3.92999984E-02  -6.95301267E-15
  -3.92500013E-02  -7.24167345E-15
  -3.92000005E-02  -5.27419972E-15
  -3.91499996E-02  -8.82192226E-16
  -3.90999988E-02   4.95855501E-15
  -3.90500017E-02   1.03222628E-14
  -3.90000008E-02   1.33386861E-14
  -3.89500000E-02   1.37374726E-14
  -3.88999991E-02   1.41609704E-14
  -3.88499983E-02   2.02921616E-14
  -3.88000011E-02   3.92270275E-14
  -3.87500003E-02   7.64256009E-14
  -3.86999995E-02   1.32598427E-13
  -3.86499986E-02   2.02420654E-13
  -3.86000015E-02   2.76526469E-13
  -3.85500006E-02   3.46771629E-13
  -3.84999998E-02   4.12797563E-13
  -3.84499989E-02   4.86482111E-13
  -3.84000018E-02   5.90934636E-13
  -3.83500010E-02   7.52743842E-13
  -3.83000001E-02   9.89640444E-13
  -3.82499993E-02   1.29898631E-12
  -3.81999984E-02   1.65358352E-12
  -3.81500013E-02   2.00901839E-12
  -3.81000005E-02   2.32157783E-12
  -3.80499996E-02   2.56996638E-12
  -3.79999988E-02   2.77061533E-12
  -3.79500017E-02   2.97759365E-12
  -3.79000008E-02   3.26415262E-12
  -3.78500000E-02   3.69157959E-12
  -3.77999991E-02   4.27831685E-12
  -3.77499983E-02   4.98436882E-12
  -3.77000012E-02   5.72086822E-12
  -3.76500003E-02   6.38363711E-12
  -3.75999995E-02   6.89736939E-12
  -3.75499986E-02   7.24985566E-12
  -3.75000015E-02   7.49799008E-12
  -3.74500006E-02   7.73917735E-12
  -3.73999998E-02   8.05817826E-12
  -3.73499990E-02   8.47246145E-12
  -3.73000018E-02   8.90211342E-12
  -3.72500010E-02   9.18106390E-12
  -3.72000001E-02   9.10860016E-12
  -3.71499993E-02   8.52163565E-12
  -3.70999984E-02   7.35742890E-12
  -3.70500013E-02   5.67905792E-12
  -3.70000005E-02   3.65118439E-12
  -3.69499996E-02   1.47507191E-12
  -3.68999988E-02  -6.90623123E-13
  -3.68500017E-02  -2.79158684E-12
  -3.68000008E-02  -4.89946668E-12
  -3.67500000E-02  -7.18904840E-12
  -3.66999991E-02  -9.88428436E-12
  -3.66499983E-02  -1.31952661E-11
  -3.66000012E-02  -1.72663221E-11
  -3.65500003E-02  -2.21465537E-11
  -3.64999995E-02  -2.77851908E-11
  -3.64499986E-02  -3.40495132E-11
  -3.64000015E-02  -4.07625739E-11
  -3.63500006E-02  -4.77574785E-11
  -3.62999998E-02  -5.49395876E-11
  -3.62499990E-02  -6.23373020E-11
  -3.62000018E-02  -7.01114444E-11
  -3.61500010E-02  -7.84940862E-11
  -3.61000001E-02  -8.76492490E-11
  -3.60499993E-02  -9.74900369E-11
  -3.59999985E-02  -1.07532379E-10
  -3.59500013E-02  -1.16885862E-10
  -3.59000005E-02  -1.24451144E-10
  -3.58499996E-02  -1.29307245E-10
  -3.57999988E-02  -1.31160305E-10
  -3.57500017E-02  -1.30644065E-10
  -3.57000008E-02  -1.29267472E-10
  -3.56500000E-02  -1.28922262E-10
  -3.55999991E-02  -1.31064173E-10
  -3.55499983E-02  -1.35881265E-10
  -3.55000012E-02  -1.41857026E-10
  -3.54500003E-02  -1.46043441E-10
  -3.53999995E-02  -1.45079976E-10
  -3.53499986E-02  -1.36626016E-10
  -3.53000015E-02  -1.20586499E-10
  -3.52500007E-02  -9.94753308E-11
  -3.51999998E-02  -7.75544629E-11
  -3.51499990E-02  -5.89304508E-11
  -3.51000018E-02  -4.53565067E-11
  -3.50500010E-02  -3.47916349E-11
  -3.50000001E-02  -2.15988945E-11
  -3.49499993E-02   1.38530019E-12
  -3.48999985E-02   3.95746595E-11
  -3.48500013E-02   9.35490088E-11
  -3.48000005E-02   1.57734034E-10
  -3.47499996E-02   2.21833579E-10
  -3.46999988E-02   2.74813367E-10
  -3.46500017E-02   3.09931830E-10
  -3.46000008E-02   3.28531508E-10
  -3.45500000E-02   3.40522222E-10
  -3.44999991E-02   3.60775188E-10
  -3.44499983E-02   4.02534894E-10
  -3.44000012E-02   4.70603945E-10
  -3.43500003E-02   5.57604296E-10
  -3.42999995E-02   6.45620057E-10
  -3.42499986E-02   7.13233916E-10
  -3.42000015E-02   7.45319029E-10
  -3.41500007E-02   7.41190165E-10
  -3.40999998E-02   7.16863013E-10
  -3.40499990E-02   6.99431846E-10
  -3.40000018E-02   7.15149495E-10
  -3.39500010E-02   7.76116893E-10
  -3.39000002E-02   8.71881289E-10
  -3.38499993E-02   9.70748926E-10
  -3.37999985E-02   1.03155773E-09
  -3.37500013E-02   1.02167308E-09
  -3.37000005E-02   9.33367605E-10
  -3.36499996E-02   7.90472521E-10
  -3.35999988E-02   6.40823006E-10
  -3.35500017E-02   5.36302780E-10
  -3.35000008E-02   5.08520503E-10
  -3.34500000E-02   5.51270363E-10
  -3.33999991E-02   6.19054752E-10
  -3.33499983E-02   6.44346299E-10
  -3.33000012E-02   5.67543179E-10
  -3.32500003E-02   3.66719627E-10
  -3.31999995E-02   7.28238719E-11
  -3.31499986E-02  -2.38722986E-10
  -3.31000015E-02  -4.78774742E-10
  -3.30500007E-02  -5.85406223E-10
  -3.29999998E-02  -5.56602098E-10
  -3.29499990E-02  -4.58077826E-10
  -3.29000019E-02  -3.99659472E-10
  -3.28500010E-02  -4.87975216E-10
  -3.28000002E-02  -7.75405240E-10
  -3.27499993E-02  -1.22920918E-09
  -3.26999985E-02  -1.73768699E-09
  -3.26500013E-02  -2.15434826E-09
  -3.26000005E-02  -2.36302289E-09
  -3.25499997E-02  -2.33508035E-09
  -3.24999988E-02  -2.15071405E-09
  -3.24500017E-02  -1.97053041E-09
  -3.24000008E-02  -1.96598804E-09
  -3.23500000E-02  -2.23771046E-09
  -3.22999991E-02  -2.75937806E-09
  -3.22499983E-02  -3.37646355E-09
  -3.22000012E-02  -3.86585564E-09
  -3.21500003E-02  -4.03403533E-09
  -3.20999995E-02  -3.81096177E-09
  -3.20499986E-02  -3.29473071E-09
  -3.20000015E-02  -2.72113310E-09
  -3.19500007E-02  -2.36539521E-09
  -3.18999998E-02  -2.41619524E-09
  -3.18499990E-02  -2.87887914E-09
  -3.18000019E-02  -3.55619023E-09
  -3.17500010E-02  -4.12256318E-09
  -3.17000002E-02  -4.26526148E-09
  -3.16499993E-02  -3.83172560E-09
  -3.15999985E-02  -2.91425772E-09
  -3.15500014E-02  -1.82677706E-09
  -3.15000005E-02  -9.75407310E-10
  -3.14499997E-02  -6.74871714E-10
  -3.13999988E-02  -9.92612992E-10
  -3.13500017E-02  -1.69638070E-09
  -3.13000008E-02  -2.33857333E-09
  -3.12500000E-02  -2.44898124E-09
  -3.11999992E-02  -1.75422843E-09
  -3.11500002E-02  -3.22987553E-10
  -3.10999993E-02   1.43722312E-09
  -3.10500003E-02   2.94205216E-09
  -3.09999995E-02   3.68781494E-09
  -3.09500005E-02   3.49137541E-09
  -3.08999997E-02   2.59880584E-09
  -3.08500007E-02   1.60194591E-09
  -3.07999998E-02   1.18735133E-09
  -3.07500008E-02   1.82248361E-09
  -3.07000000E-02   3.52114027E-09
  -3.06499992E-02   5.80359005E-09
  -3.06000002E-02   7.88422305E-09
  -3.05499993E-02   9.01547725E-09
  -3.05000003E-02   8.83856188E-09
  -3.04499995E-02   7.57756613E-09
  -3.04000005E-02   5.97511507E-09
  -3.03499997E-02   4.98123764E-09
  -3.03000007E-02   5.32320232E-09
  -3.02499998E-02   7.14859283E-09
  -3.02000009E-02   9.91308102E-09
  -3.01500000E-02   1.25820847E-08
  -3.00999992E-02   1.40739909E-08
  -3.00500002E-02   1.37552236E-08
  -2.99999993E-02   1.17606227E-08
  -2.99500003E-02   8.97881236E-09
  -2.98999995E-02   6.68750388E-09
  -2.98500005E-02   5.98540195E-09
  -2.97999997E-02   7.27132754E-09
  -2.97500007E-02   1.00152020E-08
  -2.96999998E-02   1.29455540E-08
  -2.96500009E-02   1.45925849E-08
  -2.96000000E-02   1.39570764E-08
  -2.95499992E-02   1.10027996E-08
  -2.95000002E-02   6.73333034E-09
  -2.94499993E-02   2.79229995E-09
  -2.94000003E-02   7.43258399E-10
  -2.93499995E-02   1.34309952E-09
  -2.93000005E-02   4.14472057E-09
  -2.92499997E-02   7.63209318E-09
  -2.92000007E-02   9.85653958E-09
  -2.91499998E-02   9.30945898E-09
  -2.91000009E-02   5.64226355E-09
  -2.90500000E-02  -1.07307392E-10
  -2.89999992E-02  -5.91460392E-09
  -2.89500002E-02  -9.64386082E-09
  -2.88999993E-02  -1.00228439E-08
  -2.88500004E-02  -7.27246618E-09
  -2.87999995E-02  -3.08247849E-09
  -2.87500005E-02   9.09405259E-11
  -2.86999997E-02   1.18430196E-10
  -2.86500007E-02  -3.80122733E-09
  -2.85999998E-02  -1.06976890E-08
  -2.85500009E-02  -1.81772375E-08
  -2.85000000E-02  -2.34439472E-08
  -2.84499992E-02  -2.45593181E-08
  -2.84000002E-02  -2.13737437E-08
  -2.83499993E-02  -1.56849840E-08
  -2.83000004E-02  -1.05115641E-08
  -2.82499995E-02  -8.76995276E-09
  -2.82000005E-02  -1.19325385E-08
  -2.81499997E-02  -1.92808489E-08
  -2.81000007E-02  -2.81253634E-08
  -2.80499998E-02  -3.49379974E-08
  -2.80000009E-02  -3.69221951E-08
  -2.79500000E-02  -3.33223511E-08
  -2.78999992E-02  -2.58606132E-08
  -2.78500002E-02  -1.80602537E-08
  -2.77999993E-02  -1.37135192E-08
  -2.77500004E-02  -1.51556190E-08
  -2.76999995E-02  -2.21256329E-08
  -2.76500005E-02  -3.17622657E-08
  -2.75999997E-02  -3.97880413E-08
  -2.75500007E-02  -4.23945679E-08
  -2.74999999E-02  -3.79991931E-08
  -2.74500009E-02  -2.80653563E-08
  -2.74000000E-02  -1.65710698E-08
  -2.73499992E-02  -8.30892510E-09
  -2.73000002E-02  -6.74228007E-09
  -2.72499993E-02  -1.23756916E-08
  -2.72000004E-02  -2.24038281E-08
  -2.71499995E-02  -3.18523483E-08
  -2.71000005E-02  -3.57529935E-08
  -2.70499997E-02  -3.14051327E-08
  -2.70000007E-02  -1.96975236E-08
  -2.69499999E-02  -4.85039964E-09
  -2.69000009E-02   7.36869765E-09
  -2.68500000E-02   1.22049446E-08
  -2.67999992E-02   8.11867018E-09
  -2.67500002E-02  -2.38580311E-09
  -2.66999993E-02  -1.37361917E-08
  -2.66500004E-02  -1.97007584E-08
  -2.65999995E-02  -1.61913061E-08
  -2.65500005E-02  -3.20329763E-09
  -2.64999997E-02   1.50208290E-08
  -2.64500007E-02   3.17469713E-08
  -2.63999999E-02   4.06999803E-08
  -2.63500009E-02   3.89166992E-08
  -2.63000000E-02   2.82046706E-08
  -2.62499992E-02   1.44942653E-08
  -2.62000002E-02   5.30051913E-09
  -2.61499994E-02   6.37570707E-09
  -2.61000004E-02   1.90390761E-08
  -2.60499995E-02   3.94168893E-08
  -2.60000005E-02   6.00047514E-08
  -2.59499997E-02   7.29273992E-08
  -2.59000007E-02   7.34812104E-08
  -2.58499999E-02   6.23669436E-08
  -2.58000009E-02   4.55577229E-08
  -2.57500000E-02   3.17799476E-08
  -2.56999992E-02   2.86631607E-08
  -2.56500002E-02   3.92522850E-08
  -2.55999994E-02   6.04691763E-08
  -2.55500004E-02   8.42833217E-08
  -2.54999995E-02   1.01153823E-07
  -2.54500005E-02   1.04265162E-07
  -2.53999997E-02   9.26727282E-08
  -2.53500007E-02   7.19046938E-08
  -2.52999999E-02   5.16669871E-08
  -2.52500009E-02   4.15933172E-08
  -2.52000000E-02   4.68933479E-08
  -2.51499992E-02   6.58570016E-08
  -2.51000002E-02   9.03977693E-08
  -2.50499994E-02   1.09485875E-07
  -2.50000004E-02   1.14015684E-07
  -2.49499995E-02   1.00960335E-07
  -2.49000005E-02   7.49213740E-08
  -2.48499997E-02   4.62953871E-08
  -2.48000007E-02   2.67787197E-08
  -2.47499999E-02   2.41504594E-08
  -2.47000009E-02   3.86573760E-08
  -2.46500000E-02   6.26739123E-08
  -2.45999992E-02   8.38875422E-08
  -2.45500002E-02   9.06829456E-08
  -2.44999994E-02   7.73713040E-08
  -2.44500004E-02   4.69117261E-08
  -2.43999995E-02   9.83004789E-09
  -2.43500005E-02  -2.02889705E-08
  -2.42999997E-02  -3.28107781E-08
  -2.42500007E-02  -2.49068748E-08
  -2.41999999E-02  -3.04470515E-09
  -2.41500009E-02   1.96526742E-08
  -2.41000000E-02   2.91095290E-08
  -2.40499992E-02   1.65913736E-08
  -2.40000002E-02  -1.72163368E-08
  -2.39499994E-02  -6.22352800E-08
  -2.39000004E-02  -1.03229013E-07
  -2.38499995E-02  -1.26463917E-07
  -2.38000005E-02  -1.25878501E-07
  -2.37499997E-02  -1.05984668E-07
  -2.37000007E-02  -8.01133027E-08
  -2.36499999E-02  -6.46651657E-08
  -2.36000009E-02  -7.18349540E-08
  -2.35500000E-02  -1.04025581E-07
  -2.34999992E-02  -1.52497378E-07
  -2.34500002E-02  -2.00967577E-07
  -2.33999994E-02  -2.32677294E-07
  -2.33500004E-02  -2.37852959E-07
  -2.32999995E-02  -2.18232529E-07
  -2.32500006E-02  -1.86555482E-07
  -2.31999997E-02  -1.61115523E-07
  -2.31500007E-02  -1.57687310E-07
  -2.30999999E-02  -1.82372048E-07
  -2.30500009E-02  -2.28586131E-07
  -2.30000000E-02  -2.79644070E-07
  -2.29499992E-02  -3.15921625E-07
  -2.29000002E-02  -3.23511472E-07
  -2.28499994E-02  -3.00539057E-07
  -2.28000004E-02  -2.58258581E-07
  -2.27499995E-02  -2.16311946E-07
  -2.27000006E-02  -1.94128134E-07
  -2.26499997E-02  -2.02212817E-07
  -2.26000007E-02  -2.37218458E-07
  -2.25499999E-02  -2.83087672E-07
  -2.25000009E-02  -3.17903755E-07
  -2.24500000E-02  -3.23522158E-07
  -2.23999992E-02  -2.93744904E-07
  -2.23500002E-02  -2.37351671E-07
  -2.22999994E-02  -1.74512664E-07
  -2.22500004E-02  -1.28030408E-07
  -2.21999995E-02  -1.13202915E-07
  -2.21500006E-02  -1.30804196E-07
  -2.20999997E-02  -1.66386030E-07
  -2.20500007E-02  -1.96358599E-07
  -2.19999999E-02  -1.98289698E-07
  -2.19500009E-02  -1.60919768E-07
  -2.19000001E-02  -8.94175187E-08
  -2.18499992E-02  -3.42658613E-09
  -2.18000002E-02   7.13819404E-08
  -2.17499994E-02   1.14622203E-07
  -2.17000004E-02   1.20383433E-07
  -2.16499995E-02   1.00150388E-07
  -2.16000006E-02   7.80173224E-08
  -2.15499997E-02   8.01682631E-08
  -2.15000007E-02   1.23197538E-07
  -2.14499999E-02   2.06458978E-07
  -2.14000009E-02   3.11942216E-07
  -2.13500001E-02   4.11886418E-07
  -2.12999992E-02   4.80896176E-07
  -2.12500002E-02   5.07244749E-07
  -2.11999994E-02   4.98306179E-07
  -2.11500004E-02   4.77574929E-07
  -2.10999995E-02   4.74434273E-07
  -2.10500006E-02   5.11092026E-07
  -2.09999997E-02   5.92455990E-07
  -2.09500007E-02   7.03519106E-07
  -2.08999999E-02   8.15564590E-07
  -2.08500009E-02   8.98591338E-07
  -2.08000001E-02   9.34536558E-07
  -2.07499992E-02   9.25412223E-07
  -2.07000002E-02   8.92633693E-07
  -2.06499994E-02   8.67677784E-07
  -2.06000004E-02   8.78077799E-07
  -2.05499995E-02   9.34917921E-07
  -2.05000006E-02   1.02743172E-06
  -2.04499997E-02   1.12724229E-06
  -2.04000007E-02   1.20052846E-06
  -2.03499999E-02   1.22283211E-06
  -2.03000009E-02   1.18995433E-06
  -2.02500001E-02   1.12001771E-06
  -2.01999992E-02   1.04562309E-06
  -2.01500002E-02   9.99431563E-07
  -2.00999994E-02   9.99482040E-07
  -2.00500004E-02   1.04078299E-06
  -1.99999996E-02   1.09702410E-06
  -1.99500006E-02   1.13180567E-06
  -1.98999997E-02   1.11453278E-06
  -1.98500007E-02   1.03396462E-06
  -1.97999999E-02   9.03351008E-07
  -1.97500009E-02   7.54738267E-07
  -1.97000001E-02   6.24818995E-07
  -1.96499992E-02   5.38506640E-07
  -1.96000002E-02   4.97517362E-07
  -1.95499994E-02   4.79121411E-07
  -1.95000004E-02   4.45768109E-07
  -1.94499996E-02   3.61452635E-07
  -1.94000006E-02   2.07634699E-07
  -1.93499997E-02  -8.38025649E-09
  -1.93000007E-02  -2.56430610E-07
  -1.92499999E-02  -4.96683640E-07
  -1.92000009E-02  -6.97281109E-07
  -1.91500001E-02  -8.48644163E-07
  -1.90999992E-02  -9.68038421E-07
  -1.90500002E-02  -1.09224959E-06
  -1.89999994E-02  -1.26147916E-06
  -1.89500004E-02  -1.50152584E-06
  -1.88999996E-02  -1.81215762E-06
  -1.88500006E-02  -2.16692320E-06
  -1.87999997E-02  -2.52461541E-06
  -1.87500007E-02  -2.84741941E-06
  -1.86999999E-02  -3.11774397E-06
  -1.86500009E-02  -3.34623724E-06
  -1.86000001E-02  -3.56732289E-06
  -1.85499992E-02  -3.82411054E-06
  -1.85000002E-02  -4.14927763E-06
  -1.84499994E-02  -4.55037571E-06
  -1.84000004E-02  -5.00613760E-06
  -1.83499996E-02  -5.47552963E-06
  -1.83000006E-02  -5.91564958E-06
  -1.82499997E-02  -6.30060549E-06
  -1.82000007E-02  -6.63299261E-06
  -1.81499999E-02  -6.94282062E-06
  -1.81000009E-02  -7.27425777E-06
  -1.80500001E-02  -7.66598896E-06
  -1.79999992E-02  -8.13385486E-06
  -1.79500002E-02  -8.66349637E-06
  -1.78999994E-02  -9.21635274E-06
  -1.78500004E-02  -9.74644445E-06
  -1.77999996E-02  -1.02205640E-05
  -1.77500006E-02  -1.06329398E-05
  -1.76999997E-02  -1.10078317E-05
  -1.76500008E-02  -1.13888364E-05
  -1.75999999E-02  -1.18195585E-05
  -1.75500009E-02  -1.23241352E-05
  -1.75000001E-02  -1.28962874E-05
  -1.74499992E-02  -1.35017854E-05
  -1.74000002E-02  -1.40932916E-05
  -1.73499994E-02  -1.46310667E-05
  -1.73000004E-02  -1.51004160E-05
  -1.72499996E-02  -1.55181115E-05
  -1.72000006E-02  -1.59249066E-05
  -1.71499997E-02  -1.63674522E-05
  -1.71000008E-02  -1.68775314E-05
  -1.70499999E-02  -1.74578327E-05
  -1.70000009E-02  -1.80805855E-05
  -1.69500001E-02  -1.86996858E-05
  -1.68999992E-02  -1.92710031E-05
  -1.68500002E-02  -1.97718819E-05
  -1.67999994E-02  -2.02112169E-05
  -1.67500004E-02  -2.06256336E-05
  -1.66999996E-02  -2.10634280E-05
  -1.66500006E-02  -2.15633518E-05
  -1.65999997E-02  -2.21375594E-05
  -1.65500008E-02  -2.27663440E-05
  -1.64999999E-02  -2.34069103E-05
  -1.64500009E-02  -2.40123572E-05
  -1.64000001E-02  -2.45525280E-05
  -1.63499992E-02  -2.50274170E-05
  -1.63000003E-02  -2.54673341E-05
  -1.62499994E-02  -2.59197459E-05
  -1.62000004E-02  -2.64285409E-05
  -1.61499996E-02  -2.70149576E-05
  -1.61000006E-02  -2.76685514E-05
  -1.60499997E-02  -2.83521877E-05
  -1.60000008E-02  -2.90188218E-05
  -1.59499999E-02  -2.96326525E-05
  -1.59000009E-02  -3.01852288E-05
  -1.58500001E-02  -3.06995789E-05
  -1.57999992E-02  -3.12205193E-05
  -1.57500003E-02  -3.17953163E-05
  -1.56999994E-02  -3.24534340E-05
  -1.56500004E-02  -3.31942283E-05
  -1.55999996E-02  -3.39878861E-05
  -1.55499997E-02  -3.47890928E-05
  -1.54999997E-02  -3.55575430E-05
  -1.54499998E-02  -3.62761275E-05
  -1.53999999E-02  -3.69588597E-05
  -1.53500000E-02  -3.76451062E-05
  -1.53000001E-02  -3.83826809E-05
  -1.52500002E-02  -3.92074326E-05
  -1.52000003E-02  -4.01282450E-05
  -1.51500003E-02  -4.11239816E-05
  -1.51000004E-02  -4.21535260E-05
  -1.50499996E-02  -4.31746776E-05
  -1.49999997E-02  -4.41633820E-05
  -1.49499997E-02  -4.51248234E-05
  -1.48999998E-02  -4.60916890E-05
  -1.48499999E-02  -4.71103231E-05
  -1.48000000E-02  -4.82211362E-05
  -1.47500001E-02  -4.94417800E-05
  -1.47000002E-02  -5.07602890E-05
  -1.46500003E-02  -5.21413895E-05
  -1.46000003E-02  -5.35427644E-05
  -1.45500004E-02  -5.49342149E-05
  -1.44999996E-02  -5.63113354E-05
  -1.44499997E-02  -5.76978200E-05
  -1.43999998E-02  -5.91354983E-05
  -1.43499998E-02  -6.06664325E-05
  -1.42999999E-02  -6.23152227E-05
  -1.42500000E-02  -6.40792641E-05
  -1.42000001E-02  -6.59308935E-05
  -1.41500002E-02  -6.78301658E-05
  -1.41000003E-02  -6.97432188E-05
  -1.40500003E-02  -7.16575378E-05
  -1.40000004E-02  -7.35876019E-05
  -1.39499996E-02  -7.55690562E-05
  -1.38999997E-02  -7.76435627E-05
  -1.38499998E-02  -7.98413821E-05
  -1.37999998E-02  -8.21689537E-05
  -1.37499999E-02  -8.46071853E-05
  -1.37000000E-02  -8.71207885E-05
  -1.36500001E-02  -8.96741331E-05
  -1.36000002E-02  -9.22473264E-05
  -1.35500003E-02  -9.48449233E-05
  -1.35000004E-02  -9.74941358E-05
  -1.34500004E-02  -1.00232995E-04
  -1.33999996E-02  -1.03094353E-04
  -1.33499997E-02  -1.06092441E-04
  -1.32999998E-02  -1.09217559E-04
  -1.32499998E-02  -1.12441296E-04
  -1.31999999E-02  -1.15729461E-04
  -1.31500000E-02  -1.19057579E-04
  -1.31000001E-02  -1.22421799E-04
  -1.30500002E-02  -1.25840568E-04
  -1.30000003E-02  -1.29346940E-04
  -1.29500004E-02  -1.32974747E-04
  -1.29000004E-02  -1.36744799E-04
  -1.28499996E-02  -1.40656965E-04
  -1.27999997E-02  -1.44691046E-04
  -1.27499998E-02  -1.48816631E-04
  -1.26999998E-02  -1.53006797E-04
  -1.26499999E-02  -1.57249742E-04
  -1.26000000E-02  -1.61554199E-04
  -1.25500001E-02  -1.65945574E-04
  -1.25000002E-02  -1.70455620E-04
  -1.24500003E-02  -1.75109788E-04
  -1.24000004E-02  -1.79916678E-04
  -1.23500004E-02  -1.84865610E-04
  -1.22999996E-02  -1.89932427E-04
  -1.22499997E-02  -1.95090353E-04
  -1.21999998E-02  -2.00322189E-04
  -1.21499998E-02  -2.05628254E-04
  -1.20999999E-02  -2.11026447E-04
  -1.20500000E-02  -2.16545202E-04
  -1.20000001E-02  -2.22212417E-04
  -1.19500002E-02  -2.28044926E-04
  -1.19000003E-02  -2.34043240E-04
  -1.18500004E-02  -2.40192589E-04
  -1.18000004E-02  -2.46469921E-04
  -1.17499996E-02  -2.52855330E-04
  -1.16999997E-02  -2.59341439E-04
  -1.16499998E-02  -2.65936716E-04
  -1.15999999E-02  -2.72662961E-04
  -1.15499999E-02  -2.79547152E-04
  -1.15000000E-02  -2.86610972E-04
  -1.14500001E-02  -2.93863908E-04
  -1.14000002E-02  -3.01300286E-04
  -1.13500003E-02  -3.08902789E-04
  -1.13000004E-02  -3.16651771E-04
  -1.12500004E-02  -3.24534281E-04
  -1.11999996E-02  -3.32550990E-04
  -1.11499997E-02  -3.40716913E-04
  -1.10999998E-02  -3.49057373E-04
  -1.10499999E-02  -3.57599580E-04
  -1.09999999E-02  -3.66363034E-04
  -1.09500000E-02  -3.75354197E-04
  -1.09000001E-02  -3.84565326E-04
  -1.08500002E-02  -3.93979251E-04
  -1.08000003E-02  -4.03578306E-04
  -1.07500004E-02  -4.13352944E-04
  -1.07000005E-02  -4.23307385E-04
  -1.06499996E-02  -4.33459121E-04
  -1.05999997E-02  -4.43834084E-04
  -1.05499998E-02  -4.54458350E-04
  -1.04999999E-02  -4.65347723E-04
  -1.04499999E-02  -4.76503716E-04
  -1.04000000E-02  -4.87914542E-04
  -1.03500001E-02  -4.99560963E-04
  -1.03000002E-02  -5.11427585E-04
  -1.02500003E-02  -5.23511553E-04
  -1.02000004E-02  -5.35825617E-04
  -1.01500005E-02  -5.48396201E-04
  -1.00999996E-02  -5.61254972E-04
  -1.00499997E-02  -5.74428181E-04
  -9.99999978E-03  -5.87927469E-04
  -9.94999986E-03  -6.01748936E-04
  -9.89999995E-03  -6.15875586E-04
  -9.85000003E-03  -6.30287104E-04
  -9.80000012E-03  -6.44969870E-04
  -9.75000020E-03  -6.59925863E-04
  -9.70000029E-03  -6.75175863E-04
  -9.65000037E-03  -6.90750661E-04
  -9.60000046E-03  -7.06682971E-04
  -9.54999961E-03  -7.22994970E-04
  -9.49999969E-03  -7.39690207E-04
  -9.44999978E-03  -7.56754132E-04
  -9.39999986E-03  -7.74160668E-04
  -9.34999995E-03  -7.91886239E-04
  -9.30000003E-03  -8.09923513E-04
  -9.25000012E-03  -8.28287390E-04
  -9.20000020E-03  -8.47011223E-04
  -9.15000029E-03  -8.66137154E-04
  -9.10000037E-03  -8.85700574E-04
  -9.05000046E-03  -9.05716792E-04
  -8.99999961E-03  -9.26176726E-04
  -8.94999970E-03  -9.47056047E-04
  -8.89999978E-03  -9.68326814E-04
  -8.84999987E-03  -9.89971682E-04
  -8.79999995E-03  -1.01199932E-03
  -8.75000004E-03  -1.03443954E-03
  -8.70000012E-03  -1.05733506E-03
  -8.65000021E-03  -1.08072802E-03
  -8.60000029E-03  -1.10464136E-03
  -8.55000038E-03  -1.12907228E-03
  -8.50000046E-03  -1.15399517E-03
  -8.44999962E-03  -1.17937394E-03
  -8.39999970E-03  -1.20518077E-03
  -8.34999979E-03  -1.23141217E-03
  -8.29999987E-03  -1.25809433E-03
  -8.24999996E-03  -1.28527230E-03
  -8.20000004E-03  -1.31299591E-03
  -8.15000013E-03  -1.34130160E-03
  -8.10000021E-03  -1.37019728E-03
  -8.05000030E-03  -1.39966328E-03
  -8.00000038E-03  -1.42966257E-03
  -7.95000046E-03  -1.46016059E-03
  -7.89999962E-03  -1.49114523E-03
  -7.84999970E-03  -1.52263779E-03
  -7.79999979E-03  -1.55468646E-03
  -7.74999987E-03  -1.58734946E-03
  -7.69999996E-03  -1.62067544E-03
  -7.65000004E-03  -1.65468350E-03
  -7.60000013E-03  -1.68935640E-03
  -7.55000021E-03  -1.72465306E-03
  -7.49999983E-03  -1.76052668E-03
  -7.44999992E-03  -1.79694977E-03
  -7.40000000E-03  -1.83393050E-03
  -7.35000009E-03  -1.87151623E-03
  -7.30000017E-03  -1.90977741E-03
  -7.24999979E-03  -1.94877421E-03
  -7.19999988E-03  -1.98853668E-03
  -7.14999996E-03  -2.02905317E-03
  -7.10000005E-03  -2.07027607E-03
  -7.05000013E-03  -2.11215136E-03
  -7.00000022E-03  -2.15464248E-03
  -6.94999984E-03  -2.19775061E-03
  -6.89999992E-03  -2.24152184E-03
  -6.85000001E-03  -2.28603184E-03
  -6.80000009E-03  -2.33135629E-03
  -6.75000018E-03  -2.37753801E-03
  -6.69999979E-03  -2.42457469E-03
  -6.64999988E-03  -2.47242395E-03
  -6.59999996E-03  -2.52102432E-03
  -6.55000005E-03  -2.57032691E-03
  -6.50000013E-03  -2.62032170E-03
  -6.45000022E-03  -2.67104735E-03
  -6.39999984E-03  -2.72258301E-03
  -6.34999992E-03  -2.77501717E-03
  -6.30000001E-03  -2.82840547E-03
  -6.25000009E-03  -2.88275280E-03
  -6.20000018E-03  -2.93801003E-03
  -6.14999980E-03  -2.99410359E-03
  -6.09999988E-03  -3.05097038E-03
  -6.04999997E-03  -3.10859201E-03
  -6.00000005E-03  -3.16700875E-03
  -5.95000014E-03  -3.22629511E-03
  -5.90000022E-03  -3.28653725E-03
  -5.84999984E-03  -3.34780803E-03
  -5.79999993E-03  -3.41012236E-03
  -5.75000001E-03  -3.47344344E-03
  -5.70000010E-03  -3.53770400E-03
  -5.65000018E-03  -3.60282674E-03
  -5.59999980E-03  -3.66876624E-03
  -5.54999989E-03  -3.73554695E-03
  -5.49999997E-03  -3.80325667E-03
  -5.45000006E-03  -3.87200108E-03
  -5.40000014E-03  -3.94185493E-03
  -5.35000023E-03  -4.01284313E-03
  -5.29999984E-03  -4.08492889E-03
  -5.24999993E-03  -4.15803259E-03
  -5.20000001E-03  -4.23207274E-03
  -5.15000010E-03  -4.30700416E-03
  -5.10000018E-03  -4.38284222E-03
  -5.04999980E-03  -4.45964886E-03
  -4.99999989E-03  -4.53752186E-03
  -4.94999997E-03  -4.61655529E-03
  -4.90000006E-03  -4.69678594E-03
  -4.85000014E-03  -4.77818586E-03
  -4.80000023E-03  -4.86067403E-03
  -4.74999985E-03  -4.94414708E-03
  -4.69999993E-03  -5.02854213E-03
  -4.65000002E-03  -5.11386897E-03
  -4.60000010E-03  -5.20019047E-03
  -4.55000019E-03  -5.28761372E-03
  -4.49999981E-03  -5.37624303E-03
  -4.44999989E-03  -5.46613010E-03
  -4.39999998E-03  -5.55725256E-03
  -4.35000006E-03  -5.64952195E-03
  -4.30000015E-03  -5.74283302E-03
  -4.25000023E-03  -5.83709963E-03
  -4.19999985E-03  -5.93230873E-03
  -4.14999994E-03  -6.02852460E-03
  -4.10000002E-03  -6.12585479E-03
  -4.05000011E-03  -6.22442644E-03
  -4.00000019E-03  -6.32430986E-03
  -3.94999981E-03  -6.42547989E-03
  -3.89999989E-03  -6.52784156E-03
  -3.84999998E-03  -6.63125468E-03
  -3.80000006E-03  -6.73561124E-03
  -3.74999992E-03  -6.84088562E-03
  -3.70000000E-03  -6.94713183E-03
  -3.65000009E-03  -7.05447560E-03
  -3.59999994E-03  -7.16304407E-03
  -3.55000002E-03  -7.27290940E-03
  -3.50000011E-03  -7.38406973E-03
  -3.44999996E-03  -7.49644637E-03
  -3.40000005E-03  -7.60990381E-03
  -3.34999990E-03  -7.72431772E-03
  -3.29999998E-03  -7.83963222E-03
  -3.25000007E-03  -7.95586314E-03
  -3.19999992E-03  -8.07313062E-03
  -3.15000000E-03  -8.19158927E-03
  -3.10000009E-03  -8.31135735E-03
  -3.04999994E-03  -8.43244419E-03
  -3.00000003E-03  -8.55475850E-03
  -2.95000011E-03  -8.67813919E-03
  -2.89999996E-03  -8.80241953E-03
  -2.85000005E-03  -8.92752502E-03
  -2.79999990E-03  -9.05346777E-03
  -2.74999999E-03  -9.18036420E-03
  -2.70000007E-03  -9.30837449E-03
  -2.64999992E-03  -9.43763088E-03
  -2.60000001E-03  -9.56816319E-03
  -2.55000009E-03  -9.69987549E-03
  -2.49999994E-03  -9.83262248E-03
  -2.45000003E-03  -9.96623747E-03
  -2.40000011E-03  -1.01005910E-02
  -2.34999997E-03  -1.02356561E-02
  -2.30000005E-03  -1.03715286E-02
  -2.24999990E-03  -1.05083846E-02
  -2.19999999E-03  -1.06463935E-02
  -2.15000007E-03  -1.07856216E-02
  -2.09999993E-03  -1.09260185E-02
  -2.05000001E-03  -1.10674072E-02
  -2.00000009E-03  -1.12095624E-02
  -1.94999995E-03  -1.13523202E-02
  -1.90000003E-03  -1.14956014E-02
  -1.85000000E-03  -1.16394907E-02
  -1.79999997E-03  -1.17842089E-02
  -1.75000005E-03  -1.19299432E-02
  -1.70000002E-03  -1.20767765E-02
  -1.64999999E-03  -1.22246901E-02
  -1.59999996E-03  -1.23735052E-02
  -1.55000004E-03  -1.25229377E-02
  -1.50000001E-03  -1.26727568E-02
  -1.44999998E-03  -1.28228683E-02
  -1.39999995E-03  -1.29733505E-02
  -1.35000004E-03  -1.31244268E-02
  -1.30000000E-03  -1.32763302E-02
  -1.24999997E-03  -1.34291947E-02
  -1.20000006E-03  -1.35829905E-02
  -1.15000003E-03  -1.37375146E-02
  -1.09999999E-03  -1.38924439E-02
  -1.04999996E-03  -1.40474848E-02
  -1.00000005E-03  -1.42024774E-02
  -9.50000016E-04  -1.43574914E-02
  -8.99999985E-04  -1.45128025E-02
  -8.50000011E-04  -1.46686789E-02
  -7.99999980E-04  -1.48253078E-02
  -7.50000007E-04  -1.49826827E-02
  -6.99999975E-04  -1.51405903E-02
  -6.50000002E-04  -1.52986655E-02
  -6.00000028E-04  -1.54565386E-02
  -5.49999997E-04  -1.56139871E-02
  -5.00000024E-04  -1.57710798E-02
  -4.49999992E-04  -1.59280617E-02
  -3.99999990E-04  -1.60851963E-02
  -3.49999988E-04  -1.62427220E-02
  -3.00000014E-04  -1.64007023E-02
  -2.50000012E-04  -1.65589266E-02
  -1.99999995E-04  -1.67170335E-02
  -1.50000007E-04  -1.68746263E-02
  -9.99999975E-05  -1.70313958E-02
  -4.99999987E-05  -1.71872284E-02
   0.00000000      -1.73423011E-02
   4.99999987E-05  -1.74970310E-02
   9.99999975E-05  -1.76517088E-02
   1.50000007E-04  -1.78064387E-02
   1.99999995E-04  -1.79611109E-02
   2.50000012E-04  -1.81153379E-02
   3.00000014E-04  -1.82686448E-02
   3.49999988E-04  -1.84206273E-02
   3.99999990E-04  -1.85711551E-02
   4.49999992E-04  -1.87203865E-02
   5.00000024E-04  -1.88686363E-02
   5.49999997E-04  -1.90162528E-02
   6.00000028E-04  -1.91634055E-02
   6.50000002E-04  -1.93100069E-02
   6.99999975E-04  -1.94557216E-02
   7.50000007E-04  -1.96000580E-02
   7.99999980E-04  -1.97425019E-02
   8.50000011E-04  -1.98827703E-02
   8.99999985E-04  -2.00209748E-02
   9.50000016E-04  -2.01574694E-02
   1.00000005E-03  -2.02926807E-02
   1.04999996E-03  -2.04268638E-02
   1.09999999E-03  -2.05600020E-02
   1.15000003E-03  -2.06917766E-02
   1.20000006E-03  -2.08215844E-02
   1.24999997E-03  -2.09488384E-02
   1.30000000E-03  -2.10732203E-02
   1.35000004E-03  -2.11947169E-02
   1.39999995E-03  -2.13136896E-02
   1.44999998E-03  -2.14305930E-02
   1.50000001E-03  -2.15457249E-02
   1.55000004E-03  -2.16592103E-02
   1.59999996E-03  -2.17707045E-02
   1.64999999E-03  -2.18795612E-02
   1.70000002E-03  -2.19851565E-02
   1.75000005E-03  -2.20870506E-02
   1.79999997E-03  -2.21852139E-02
   1.85000000E-03  -2.22799648E-02
   1.90000003E-03  -2.23717429E-02
   1.94999995E-03  -2.24610046E-02
   2.00000009E-03  -2.25478746E-02
   2.05000001E-03  -2.26320289E-02
   2.09999993E-03  -2.27128565E-02
   2.15000007E-03  -2.27896702E-02
   2.19999999E-03  -2.28618849E-02
   2.24999990E-03  -2.29293182E-02
   2.30000005E-03  -2.29923092E-02
   2.34999997E-03  -2.30513886E-02
   2.40000011E-03  -2.31070053E-02
   2.45000003E-03  -2.31593363E-02
   2.49999994E-03  -2.32081953E-02
   2.55000009E-03  -2.32529398E-02
   2.60000001E-03  -2.32927836E-02
   2.64999992E-03  -2.33271420E-02
   2.70000007E-03  -2.33558193E-02
   2.74999999E-03  -2.33789422E-02
   2.79999990E-03  -2.33969893E-02