  -3.99999991E-02   0.00000000    
  -3.99499983E-02   0.00000000    
  -3.99000011E-02   0.00000000    
  -3.98500003E-02   0.00000000    
  -3.97999994E-02   6.75005188E-17
  -3.97499986E-02   5.19035850E-16
  -3.97000015E-02   2.00965597E-15
  -3.96500006E-02   5.29357941E-15
  -3.95999998E-02   1.09185800E-14
  -3.95499989E-02   1.94177085E-14
  -3.95000018E-02   3.17907559E-14
  -3.94500010E-02   4.90040578E-14
  -3.94000001E-02   6.98858018E-14
  -3.93499993E-02   8.93282234E-14
  -3.92999984E-02   1.00012453E-13
  -3.92500013E-02   9.80117815E-14
  -3.92000005E-02   8.76616217E-14
  -3.91499996E-02   8.00645493E-14
  -3.90999988E-02   8.52142047E-14
  -3.90500017E-02   1.04489679E-13
  -3.90000008E-02   1.30017796E-13
  -3.89500000E-02   1.49758027E-13
  -3.88999991E-02   1.51391757E-13
  -3.88499983E-02   1.21893137E-13
  -3.88000011E-02   4.81945586E-14
  -3.87500003E-02  -7.49882876E-14
  -3.86999995E-02  -2.34916226E-13
  -3.86499986E-02  -4.02290424E-13
  -3.86000015E-02  -5.51435471E-13
  -3.85500006E-02  -6.86207005E-13
  -3.84999998E-02  -8.47740714E-13
  -3.84499989E-02  -1.09385016E-12
  -3.84000018E-02  -1.46612995E-12
  -3.83500010E-02  -1.97125129E-12
  -3.83000001E-02  -2.58591109E-12
  -3.82499993E-02  -3.27095360E-12
  -3.81999984E-02  -3.97796639E-12
  -3.81500013E-02  -4.65195287E-12
  -3.81000005E-02  -5.24711351E-12
  -3.80499996E-02  -5.75714866E-12
  -3.79999988E-02  -6.23342610E-12
  -3.79500017E-02  -6.76249291E-12
  -3.79000008E-02  -7.41025557E-12
  -3.78500000E-02  -8.17751422E-12
  -3.77999991E-02  -9.00553243E-12
  -3.77499983E-02  -9.82231570E-12
  -3.77000012E-02  -1.05819147E-11
  -3.76500003E-02  -1.12633453E-11
  -3.75999995E-02  -1.18450553E-11
  -3.75499986E-02  -1.22961233E-11
  -3.75000015E-02  -1.25967778E-11
  -3.74500006E-02  -1.27557600E-11
  -3.73999998E-02  -1.27893876E-11
  -3.73499990E-02  -1.26738767E-11
  -3.73000018E-02  -1.23207824E-11
  -3.72500010E-02  -1.16039548E-11
  -3.72000001E-02  -1.04079289E-11
  -3.71499993E-02  -8.64436127E-12
  -3.70999984E-02  -6.22923544E-12
  -3.70500013E-02  -3.07562482E-12
  -3.70000005E-02   8.47538348E-13
  -3.69499996E-02   5.41877654E-12
  -3.68999988E-02   1.03268236E-11
  -3.68500017E-02   1.51640488E-11
  -3.68000008E-02   1.96153441E-11
  -3.67500000E-02   2.36257663E-11
  -3.66999991E-02   2.74497872E-11
  -3.66499983E-02   3.15731989E-11
  -3.66000012E-02   3.65597795E-11
  -3.65500003E-02   4.28682159E-11
  -3.64999995E-02   5.06642957E-11
  -3.64499986E-02   5.96818706E-11
  -3.64000015E-02   6.92385732E-11
  -3.63500006E-02   7.84865437E-11
  -3.62999998E-02   8.68296407E-11
  -3.62499990E-02   9.42707232E-11
  -3.62000018E-02   1.01432300E-10
  -3.61500010E-02   1.09176827E-10
  -3.61000001E-02   1.18014279E-10
  -3.60499993E-02   1.27626659E-10
  -3.59999985E-02   1.36773176E-10
  -3.59500013E-02   1.43646428E-10
  -3.59000005E-02   1.46562332E-10
  -3.58499996E-02   1.44745646E-10
  -3.57999988E-02   1.38895506E-10
  -3.57500017E-02   1.31201022E-10
  -3.57000008E-02   1.24615443E-10
  -3.56500000E-02   1.21536753E-10
  -3.55999991E-02   1.22452479E-10
  -3.55499983E-02   1.25291902E-10
  -3.55000012E-02   1.25975480E-10
  -3.54500003E-02   1.20052149E-10
  -3.53999995E-02   1.04712808E-10
  -3.53499986E-02   8.02244729E-11
  -3.53000015E-02   5.00676479E-11
  -3.52500007E-02   1.96094304E-11
  -3.51999998E-02  -6.23797108E-12
  -3.51499990E-02  -2.54475920E-11
  -3.51000018E-02  -4.02873845E-11
  -3.50500010E-02  -5.68539001E-11
  -3.50000001E-02  -8.26155047E-11
  -3.49499993E-02  -1.22856086E-10
  -3.48999985E-02  -1.77674847E-10
  -3.48500013E-02  -2.41175718E-10
  -3.48000005E-02  -3.03535808E-10
  -3.47499996E-02  -3.55215996E-10
  -3.46999988E-02  -3.91428195E-10
  -3.46500017E-02  -4.14718371E-10
  -3.46000008E-02  -4.34285080E-10
  -3.45500000E-02  -4.62062694E-10
  -3.44999991E-02  -5.07074271E-10
  -3.44499983E-02  -5.70513914E-10
  -3.44000012E-02  -6.44006681E-10
  -3.43500003E-02  -7.12332082E-10
  -3.42999995E-02  -7.59892871E-10
  -3.42499986E-02  -7.78202003E-10
  -3.42000015E-02  -7.70739361E-10
  -3.41500007E-02  -7.52409246E-10
  -3.40999998E-02  -7.43270834E-10
  -3.40499990E-02  -7.59066976E-10
  -3.40000018E-02  -8.02868771E-10
  -3.39500010E-02  -8.61945237E-10
  -3.39000002E-02  -9.11806963E-10
  -3.38499993E-02  -9.26194288E-10
  -3.37999985E-02  -8.88935703E-10
  -3.37500013E-02  -8.02314049E-10
  -3.37000005E-02  -6.87605195E-10
  -3.36499996E-02  -5.76659165E-10
  -3.35999988E-02  -4.97584751E-10
  -3.35500017E-02  -4.60879390E-10
  -3.35000008E-02  -4.52809706E-10
  -3.34500000E-02  -4.39929926E-10
  -3.33999991E-02  -3.83486520E-10
  -3.33499983E-02  -2.57556004E-10
  -3.33000012E-02  -6.25492713E-11
  -3.32500003E-02   1.72648146E-10
  -3.31999995E-02   4.01739364E-10
  -3.31499986E-02   5.81144632E-10
  -3.31000015E-02   6.90533630E-10
  -3.30500007E-02   7.44142858E-10
  -3.29999998E-02   7.86705645E-10
  -3.29499990E-02   8.74525397E-10
  -3.29000019E-02   1.04945175E-09
  -3.28500010E-02   1.31766720E-09
  -3.28000002E-02   1.64385172E-09
  -3.27499993E-02   1.96466510E-09
  -3.26999985E-02   2.21639018E-09
  -3.26500013E-02   2.36445130E-09
  -3.26000005E-02   2.42094123E-09
  -3.25499997E-02   2.44112974E-09
  -3.24999988E-02   2.49921461E-09
  -3.24500017E-02   2.65326561E-09
  -3.24000008E-02   2.91509128E-09
  -3.23500000E-02   3.23968097E-09
  -3.22999991E-02   3.54084362E-09
  -3.22499983E-02   3.72776254E-09
  -3.22000012E-02   3.74670384E-09
  -3.21500003E-02   3.60834607E-09
  -3.20999995E-02   3.38665540E-09
  -3.20499986E-02   3.18794080E-09
  -3.20000015E-02   3.10282644E-09
  -3.19500007E-02   3.16266879E-09
  -3.18999998E-02   3.32103101E-09
  -3.18499990E-02   3.47020812E-09
  -3.18000019E-02   3.48716411E-09
  -3.17500010E-02   3.28939942E-09
  -3.17000002E-02   2.87541124E-09
  -3.16499993E-02   2.32990760E-09
  -3.15999985E-02   1.78904025E-09
  -3.15500014E-02   1.37952894E-09
  -3.15000005E-02   1.15879395E-09
  -3.14499997E-02   1.08439813E-09
  -3.13999988E-02   1.02882480E-09
  -3.13500017E-02   8.35006730E-10
  -3.13000008E-02   3.88552523E-10
  -3.12500000E-02  -3.26227295E-10
  -3.11999992E-02  -1.21320887E-09
  -3.11500002E-02  -2.10240114E-09
  -3.10999993E-02  -2.82387624E-09
  -3.10500003E-02  -3.28532535E-09
  -3.09999995E-02  -3.51746343E-09
  -3.09500005E-02  -3.66440434E-09
  -3.08999997E-02  -3.92048705E-09
  -3.08500007E-02  -4.44035697E-09
  -3.07999998E-02  -5.26324762E-09
  -3.07500008E-02  -6.28768415E-09
  -3.07000000E-02  -7.31074934E-09
  -3.06499992E-02  -8.11632006E-09
  -3.06000002E-02  -8.57320970E-09
  -3.05499993E-02  -8.69814087E-09
  -3.05000003E-02  -8.65296901E-09
  -3.04499995E-02  -8.67454641E-09
  -3.04000005E-02  -8.96657415E-09
  -3.03499997E-02  -9.60151514E-09
  -3.03000007E-02  -1.04783799E-08
  -3.02499998E-02  -1.13587699E-08
  -3.02000009E-02  -1.19681207E-08
  -3.01500000E-02  -1.21181065E-08
  -3.00999992E-02  -1.17943575E-08
  -3.00500002E-02  -1.11675345E-08
  -2.99999993E-02  -1.05198650E-08
  -2.99500003E-02  -1.01181756E-08
  -2.98999995E-02  -1.00899786E-08
  -2.98500005E-02  -1.03593916E-08
  -2.97999997E-02  -1.06740918E-08
  -2.97500007E-02  -1.07140607E-08
  -2.96999998E-02  -1.02354303E-08
  -2.96500009E-02  -9.18495235E-09
  -2.96000000E-02  -7.73143682E-09
  -2.95499992E-02  -6.19664453E-09
  -2.95000002E-02  -4.91381780E-09
  -2.94499993E-02  -4.07665457E-09
  -2.94000003E-02  -3.64780117E-09
  -2.93499995E-02  -3.37048012E-09
  -2.93000005E-02  -2.88069901E-09
  -2.92499997E-02  -1.87110061E-09
  -2.92000007E-02  -2.33120634E-10
  -2.91499998E-02   1.88745775E-09
  -2.91000009E-02   4.14890167E-09
  -2.90500000E-02   6.16236573E-09
  -2.89999992E-02   7.66602781E-09
  -2.89500002E-02   8.64588934E-09
  -2.88999993E-02   9.34623579E-09
  -2.88500004E-02   1.01615960E-08
  -2.87999995E-02   1.14563949E-08
  -2.87500005E-02   1.33931159E-08
  -2.86999997E-02   1.58479203E-08
  -2.86500007E-02   1.84541076E-08
  -2.85999998E-02   2.07564916E-08
  -2.85500009E-02   2.24094983E-08
  -2.85000000E-02   2.33306157E-08
  -2.84499992E-02   2.37395206E-08
  -2.84000002E-02   2.40625777E-08
  -2.83499993E-02   2.47421923E-08
  -2.83000004E-02   2.60343942E-08
  -2.82499995E-02   2.78853669E-08
  -2.82000005E-02   2.99444736E-08
  -2.81499997E-02   3.17111351E-08
  -2.81000007E-02   3.27517711E-08
  -2.80499998E-02   3.28902807E-08
  -2.80000009E-02   3.22862874E-08
  -2.79500000E-02   3.13645678E-08
  -2.78999992E-02   3.06254400E-08
  -2.78500002E-02   3.04189527E-08
  -2.77999993E-02   3.07821360E-08
  -2.77500004E-02   3.14127391E-08
  -2.76999995E-02   3.17937427E-08
  -2.76500005E-02   3.14161070E-08
  -2.75999997E-02   3.00025462E-08
  -2.75500007E-02   2.76324705E-08
  -2.74999999E-02   2.47106460E-08
  -2.74500009E-02   2.17916423E-08
  -2.74000000E-02   1.93364649E-08
  -2.73499992E-02   1.75083699E-08
  -2.73000002E-02   1.60991327E-08
  -2.72499993E-02   1.46193155E-08
  -2.72000004E-02   1.25140662E-08
  -2.71499995E-02   9.41129130E-09
  -2.71000005E-02   5.29341682E-09
  -2.70499997E-02   5.16111820E-10
  -2.70000007E-02  -4.33739267E-09
  -2.69499999E-02  -8.70512906E-09
  -2.69000009E-02  -1.22898545E-08
  -2.68500000E-02  -1.51895367E-08
  -2.67999992E-02  -1.78546955E-08
  -2.67500002E-02  -2.08884732E-08
  -2.66999993E-02  -2.47756073E-08
  -2.66500004E-02  -2.96584641E-08
  -2.65999995E-02  -3.52584415E-08
  -2.65500005E-02  -4.09789536E-08
  -2.64999997E-02  -4.61487737E-08
  -2.64500007E-02  -5.03026634E-08
  -2.63999999E-02  -5.33780451E-08
  -2.63500009E-02  -5.57401236E-08
  -2.63000000E-02  -5.80205430E-08
  -2.62499992E-02  -6.08354611E-08
  -2.62000002E-02  -6.45034675E-08
  -2.61499994E-02  -6.88873740E-08
  -2.61000004E-02  -7.34319485E-08
  -2.60499995E-02  -7.73849251E-08
  -2.60000005E-02  -8.01083928E-08
  -2.59499997E-02  -8.13474728E-08
  -2.59000007E-02  -8.13393299E-08
  -2.58499999E-02  -8.07117004E-08
  -2.58000009E-02  -8.02106754E-08
  -2.57500000E-02  -8.03704054E-08
  -2.56999992E-02  -8.12664211E-08
  -2.56500002E-02  -8.24632309E-08
  -2.55999994E-02  -8.31850073E-08
  -2.55500004E-02  -8.26410655E-08
  -2.54999995E-02  -8.03666254E-08
  -2.54500005E-02  -7.64304460E-08
  -2.53999997E-02  -7.14139929E-08
  -2.53500007E-02  -6.61658106E-08
  -2.52999999E-02  -6.14340792E-08
  -2.52500009E-02  -5.75339918E-08
  -2.52000000E-02  -5.41971872E-08
  -2.51499992E-02  -5.06747391E-08
  -2.51000002E-02  -4.60587231E-08
  -2.50499994E-02  -3.96882136E-08
  -2.50000004E-02  -3.14618198E-08
  -2.49499995E-02  -2.19147527E-08
  -2.49000005E-02  -1.20161712E-08
  -2.48499997E-02  -2.76672485E-09
  -2.48000007E-02   5.23134025E-09
  -2.47499999E-02   1.20416335E-08
  -2.47000009E-02   1.83739370E-08
  -2.46500000E-02   2.52765453E-08
  -2.45999992E-02   3.36661010E-08
  -2.45500002E-02   4.38969359E-08
  -2.44999994E-02   5.55635786E-08
  -2.44500004E-02   6.76338914E-08
  -2.43999995E-02   7.88672807E-08
  -2.43500005E-02   8.83419133E-08
  -2.42999997E-02   9.58586170E-08
  -2.42500007E-02   1.02035663E-07
  -2.41999999E-02   1.08039330E-07
  -2.41500009E-02   1.15057624E-07
  -2.41000000E-02   1.23743888E-07
  -2.40499992E-02   1.33879084E-07
  -2.40000002E-02   1.44413306E-07
  -2.39499994E-02   1.53881246E-07
  -2.39000004E-02   1.61018946E-07
  -2.38499995E-02   1.65312684E-07
  -2.38000005E-02   1.67231434E-07
  -2.37499997E-02   1.68027128E-07
  -2.37000007E-02   1.69176971E-07
  -2.36499999E-02   1.71705977E-07
  -2.36000009E-02   1.75692108E-07
  -2.35500000E-02   1.80186092E-07
  -2.34999992E-02   1.83595802E-07
  -2.34500002E-02   1.84375651E-07
  -2.33999994E-02   1.81718420E-07
  -2.33500004E-02   1.75934488E-07
  -2.32999995E-02   1.68335163E-07
  -2.32500006E-02   1.60661344E-07
  -2.31999997E-02   1.54301503E-07
  -2.31500007E-02   1.49644492E-07
  -2.30999999E-02   1.45867958E-07
  -2.30500009E-02   1.41274668E-07
  -2.30000000E-02   1.34042565E-07
  -2.29499992E-02   1.23060403E-07
  -2.29000002E-02   1.08467511E-07
  -2.28499994E-02   9.16404232E-08
  -2.28000004E-02   7.46167075E-08
  -2.27499995E-02   5.92029146E-08
  -2.27000006E-02   4.61634215E-08
  -2.26499997E-02   3.48636853E-08
  -2.26000007E-02   2.35436168E-08
  -2.25499999E-02   1.01151736E-08
  -2.25000009E-02  -6.86203983E-09
  -2.24500000E-02  -2.74690457E-08
  -2.23999992E-02  -5.03129556E-08
  -2.23500002E-02  -7.30785104E-08
  -2.22999994E-02  -9.35158369E-08
  -2.22500004E-02  -1.10425013E-07
  -2.21999995E-02  -1.24187196E-07
  -2.21500006E-02  -1.36588284E-07
  -2.20999997E-02  -1.49994875E-07
  -2.20500007E-02  -1.66246238E-07
  -2.19999999E-02  -1.85762730E-07
  -2.19500009E-02  -2.07280905E-07
  -2.19000001E-02  -2.28349748E-07
  -2.18499992E-02  -2.46378590E-07
  -2.18000002E-02  -2.59771440E-07
  -2.17499994E-02  -2.68631851E-07
  -2.17000004E-02  -2.74705855E-07
  -2.16499995E-02  -2.80570845E-07
  -2.16000006E-02  -2.88426293E-07
  -2.15499997E-02  -2.99033218E-07
  -2.15000007E-02  -3.11294855E-07
  -2.14499999E-02  -3.22683604E-07
  -2.14000009E-02  -3.30335951E-07
  -2.13500001E-02  -3.32324817E-07
  -2.12999992E-02  -3.28529154E-07
  -2.12500002E-02  -3.20696671E-07
  -2.11999994E-02  -3.11654333E-07
  -2.11500004E-02  -3.04014520E-07
  -2.10999995E-02  -2.98958923E-07
  -2.10500006E-02  -2.95659191E-07
  -2.09999997E-02  -2.91615152E-07
  -2.09500007E-02  -2.83773062E-07
  -2.08999999E-02  -2.69923447E-07
  -2.08500009E-02  -2.49741021E-07
  -2.08000001E-02  -2.24981832E-07
  -2.07499992E-02  -1.98728955E-07
  -2.07000002E-02  -1.74021750E-07
  -2.06499994E-02  -1.52486550E-07
  -2.06000004E-02  -1.33597069E-07
  -2.05499995E-02  -1.14913298E-07
  -2.05000006E-02  -9.32057844E-08
  -2.04499997E-02  -6.59641515E-08
  -2.04000007E-02  -3.26068310E-08
  -2.03499999E-02   5.16610754E-09
  -2.03000009E-02   4.40524133E-08
  -2.02500001E-02   8.05675526E-08
  -2.01999992E-02   1.12565054E-07
  -2.01500002E-02   1.40155848E-07
  -2.00999994E-02   1.65602074E-07
  -2.00500004E-02   1.92223553E-07
  -1.99999996E-02   2.22809575E-07
  -1.99500006E-02   2.58256648E-07
  -1.98999997E-02   2.97059415E-07
  -1.98500007E-02   3.35892395E-07
  -1.97999999E-02   3.71028051E-07
  -1.97500009E-02   3.99954416E-07
  -1.97000001E-02   4.22450455E-07
  -1.96499992E-02   4.40619402E-07
  -1.96000002E-02   4.57850945E-07
  -1.95499994E-02   4.77182027E-07
  -1.95000004E-02   4.99803946E-07
  -1.94499996E-02   5.24406062E-07
  -1.94000006E-02   5.47666787E-07
  -1.93499997E-02   5.65672792E-07
  -1.93000007E-02   5.75621755E-07
  -1.92499999E-02   5.77032495E-07
  -1.92000009E-02   5.71906810E-07
  -1.91500001E-02   5.63757396E-07
  -1.90999992E-02   5.55933298E-07
  -1.90500002E-02   5.50005723E-07
  -1.89999994E-02   5.44959448E-07
  -1.89500004E-02   5.37569747E-07
  -1.88999996E-02   5.23802498E-07
  -1.88500006E-02   5.00605495E-07
  -1.87999997E-02   4.67271775E-07
  -1.87500007E-02   4.25745867E-07
  -1.86999999E-02   3.79724838E-07
  -1.86500009E-02   3.32959189E-07
  -1.86000001E-02   2.87522624E-07
  -1.85499992E-02   2.42839718E-07
  -1.85000002E-02   1.95922311E-07
  -1.84499994E-02   1.42712636E-07
  -1.84000004E-02   7.99260533E-08
  -1.83499996E-02   6.56208687E-09
  -1.83000006E-02  -7.56142313E-08
  -1.82499997E-02  -1.62847570E-07
  -1.82000007E-02  -2.51077211E-07
  -1.81499999E-02  -3.37760440E-07
  -1.81000009E-02  -4.23001126E-07
  -1.80500001E-02  -5.09465565E-07
  -1.79999992E-02  -6.01126146E-07
  -1.79500002E-02  -7.01395095E-07
  -1.78999994E-02  -8.11491873E-07
  -1.78500004E-02  -9.29807754E-07
  -1.77999996E-02  -1.05255685E-06
  -1.77500006E-02  -1.17541526E-06
  -1.76999997E-02  -1.29540285E-06
  -1.76500008E-02  -1.41216435E-06
  -1.75999999E-02  -1.52805330E-06
  -1.75500009E-02  -1.64697269E-06
  -1.75000001E-02  -1.77249308E-06
  -1.74499992E-02  -1.90611991E-06
  -1.74000002E-02  -2.04650360E-06
  -1.73499994E-02  -2.18994910E-06
  -1.73000004E-02  -2.33200740E-06
  -1.72499996E-02  -2.46942045E-06
  -1.72000006E-02  -2.60154115E-06
  -1.71499997E-02  -2.73056571E-06
  -1.71000008E-02  -2.86047634E-06
  -1.70499999E-02  -2.99516273E-06
  -1.70000009E-02  -3.13655300E-06
  -1.69500001E-02  -3.28361762E-06
  -1.68999992E-02  -3.43272882E-06
  -1.68500002E-02  -3.57922318E-06
  -1.67999994E-02  -3.71943474E-06
  -1.67500004E-02  -3.85227167E-06
  -1.66999996E-02  -3.97964868E-06
  -1.66500006E-02  -4.10558732E-06
  -1.65999997E-02  -4.23437768E-06
  -1.65500008E-02  -4.36859682E-06
  -1.64999999E-02  -4.50787820E-06
  -1.64500009E-02  -4.64903451E-06
  -1.64000001E-02  -4.78748461E-06
  -1.63499992E-02  -4.91933451E-06
  -1.63000003E-02  -5.04315494E-06
  -1.62499994E-02  -5.16063301E-06
  -1.62000004E-02  -5.27582824E-06
  -1.61499996E-02  -5.39334042E-06
  -1.61000006E-02  -5.51627909E-06
  -1.60499997E-02  -5.64490483E-06
  -1.60000008E-02  -5.77649416E-06
  -1.59499999E-02  -5.90657555E-06
  -1.59000009E-02  -6.03100762E-06
  -1.58500001E-02  -6.14800229E-06
  -1.57999992E-02  -6.25900748E-06
  -1.57500003E-02  -6.36809182E-06
  -1.56999994E-02  -6.48021114E-06
  -1.56500004E-02  -6.59904254E-06
  -1.55999996E-02  -6.72544047E-06
  -1.55499997E-02  -6.85715440E-06
  -1.54999997E-02  -6.98984286E-06
  -1.54499998E-02  -7.11911025E-06
  -1.53999999E-02  -7.24274241E-06
  -1.53500000E-02  -7.36185348E-06
  -1.53000001E-02  -7.48050388E-06
  -1.52500002E-02  -7.60403282E-06
  -1.52000003E-02  -7.73678858E-06
  -1.51500003E-02  -7.88028592E-06
  -1.51000004E-02  -8.03261901E-06
  -1.50499996E-02  -8.18942135E-06
  -1.49999997E-02  -8.34597904E-06
  -1.49499997E-02  -8.49941716E-06
  -1.48999998E-02  -8.65017955E-06
  -1.48499999E-02  -8.80204698E-06
  -1.48000000E-02  -8.96062011E-06
  -1.47500001E-02  -9.13099757E-06
  -1.47000002E-02  -9.31554405E-06
  -1.46500003E-02  -9.51292350E-06
  -1.46000003E-02  -9.71882218E-06
  -1.45500004E-02  -9.92801597E-06
  -1.44999996E-02  -1.01368860E-05
  -1.44499997E-02  -1.03452567E-05
  -1.43999998E-02  -1.05565441E-05
  -1.43499998E-02  -1.07763408E-05
  -1.42999999E-02  -1.10101028E-05
  -1.42500000E-02  -1.12609569E-05
  -1.42000001E-02  -1.15284320E-05
  -1.41500002E-02  -1.18085491E-05
  -1.41000003E-02  -1.20957629E-05
  -1.40500003E-02  -1.23856425E-05
  -1.40000004E-02  -1.26769783E-05
  -1.39499996E-02  -1.29727314E-05
  -1.38999997E-02  -1.32787945E-05
  -1.38499998E-02  -1.36011440E-05
  -1.37999998E-02  -1.39434042E-05
  -1.37499999E-02  -1.43053785E-05
  -1.37000000E-02  -1.46832117E-05
  -1.36500001E-02  -1.50713340E-05
  -1.36000002E-02  -1.54648860E-05
  -1.35500003E-02  -1.58619496E-05
  -1.35000004E-02  -1.62647320E-05
  -1.34500004E-02  -1.66789960E-05
  -1.33999996E-02  -1.71116644E-05
  -1.33499997E-02  -1.75675323E-05
  -1.32999998E-02  -1.80471561E-05
  -1.32499998E-02  -1.85467979E-05
  -1.31999999E-02  -1.90602841E-05
  -1.31500000E-02  -1.95817684E-05
  -1.31000001E-02  -2.01084586E-05
  -1.30500002E-02  -2.06421773E-05
  -1.30000003E-02  -2.11887636E-05
  -1.29500004E-02  -2.17555189E-05
  -1.29000004E-02  -2.23481475E-05
  -1.28499996E-02  -2.29685793E-05
  -1.27999997E-02  -2.36141041E-05
  -1.27499998E-02  -2.42784827E-05
  -1.26999998E-02  -2.49547447E-05
  -1.26499999E-02  -2.56388721E-05
  -1.26000000E-02  -2.63320944E-05
  -1.25500001E-02  -2.70400160E-05
  -1.25000002E-02  -2.77702493E-05
  -1.24500003E-02  -2.85296574E-05
  -1.24000004E-02  -2.93213598E-05
  -1.23500004E-02  -3.01437540E-05
  -1.22999996E-02  -3.09914540E-05
  -1.22499997E-02  -3.18577804E-05
  -1.21999998E-02  -3.27382622E-05
  -1.21499998E-02  -3.36332123E-05
  -1.20999999E-02  -3.45480839E-05
  -1.20500000E-02  -3.54906733E-05
  -1.20000001E-02  -3.64675871E-05
  -1.19500002E-02  -3.74816918E-05
  -1.19000003E-02  -3.85310777E-05
  -1.18500004E-02  -3.96100841E-05
  -1.18000004E-02  -4.07112420E-05
  -1.17499996E-02  -4.18290001E-05
  -1.16999997E-02  -4.29632200E-05
  -1.16499998E-02  -4.41200064E-05
  -1.15999999E-02  -4.53098037E-05
  -1.15499999E-02  -4.65429803E-05
  -1.15000000E-02  -4.78258589E-05
  -1.14500001E-02  -4.91586579E-05
  -1.14000002E-02  -5.05356657E-05
  -1.13500003E-02  -5.19489222E-05
  -1.13000004E-02  -5.33917337E-05
  -1.12500004E-02  -5.48604548E-05
  -1.11999996E-02  -5.63567664E-05
  -1.11499997E-02  -5.78867439E-05
  -1.10999998E-02  -5.94580561E-05
  -1.10499999E-02  -6.10768766E-05
  -1.09999999E-02  -6.27442787E-05
  -1.09500000E-02  -6.44559914E-05
  -1.09000001E-02  -6.62051170E-05
  -1.08500002E-02  -6.79868972E-05
  -1.08000003E-02  -6.98025833E-05
  -1.07500004E-02  -7.16594441E-05
  -1.07000005E-02  -7.35678477E-05
  -1.06499996E-02  -7.55380897E-05
  -1.05999997E-02  -7.75773078E-05
  -1.05499998E-02  -7.96865279E-05
  -1.04999999E-02  -8.18598637E-05
  -1.04499999E-02  -8.40869179E-05
  -1.04000000E-02  -8.63560999E-05
  -1.03500001E-02  -8.86589696E-05
  -1.03000002E-02  -9.09952287E-05
  -1.02500003E-02  -9.33732226E-05
  -1.02000004E-02  -9.58041201E-05
  -1.01500005E-02  -9.82961064E-05
  -1.00999996E-02  -1.00852354E-04
  -1.00499997E-02  -1.03471371E-04
  -9.99999978E-03  -1.06148997E-04
  -9.94999986E-03  -1.08880646E-04
  -9.89999995E-03  -1.11664092E-04
  -9.85000003E-03  -1.14501068E-04
  -9.80000012E-03  -1.17397656E-04
  -9.75000020E-03  -1.20364617E-04
  -9.70000029E-03  -1.23411577E-04
  -9.65000037E-03  -1.26541112E-04
  -9.60000046E-03  -1.29748179E-04
  -9.54999961E-03  -1.33023510E-04
  -9.49999969E-03  -1.36357863E-04
  -9.44999978E-03  -1.39746364E-04
  -9.39999986E-03  -1.43188896E-04
  -9.34999995E-03  -1.46689985E-04
  -9.30000003E-03  -1.50260021E-04
  -9.25000012E-03  -1.53909117E-04
  -9.20000020E-03  -1.57641232E-04
  -9.15000029E-03  -1.61453921E-04
  -9.10000037E-03  -1.65340156E-04
  -9.05000046E-03  -1.69290506E-04
  -8.99999961E-03  -1.73298453E-04
  -8.94999970E-03  -1.77364331E-04
  -8.89999978E-03  -1.81495881E-04
  -8.84999987E-03  -1.85704936E-04
  -8.79999995E-03  -1.90003659E-04
  -8.75000004E-03  -1.94399472E-04
  -8.70000012E-03  -1.98893453E-04
  -8.65000021E-03  -2.03480449E-04
  -8.60000029E-03  -2.08152574E-04
  -8.55000038E-03  -2.12904604E-04
  -8.50000046E-03  -2.17734050E-04
  -8.44999962E-03  -2.22642964E-04
  -8.39999970E-03  -2.27640994E-04
  -8.34999979E-03  -2.32739199E-04
  -8.29999987E-03  -2.37943546E-04
  -8.24999996E-03  -2.43252041E-04
  -8.20000004E-03  -2.48655211E-04
  -8.15000013E-03  -2.54144543E-04
  -8.10000021E-03  -2.59718829E-04
  -8.05000030E-03  -2.65378359E-04
  -8.00000038E-03  -2.71122350E-04
  -7.95000046E-03  -2.76957930E-04
  -7.89999962E-03  -2.82897934E-04
  -7.84999970E-03  -2.88955809E-04
  -7.79999979E-03  -2.95136968E-04
  -7.74999987E-03  -3.01434804E-04
  -7.69999996E-03  -3.07837792E-04
  -7.65000004E-03  -3.14340898E-04
  -7.60000013E-03  -3.20947845E-04
  -7.55000021E-03  -3.27669666E-04
  -7.49999983E-03  -3.34517070E-04
  -7.44999992E-03  -3.41495121E-04
  -7.40000000E-03  -3.48609989E-04
  -7.35000009E-03  -3.55868833E-04
  -7.30000017E-03  -3.63270898E-04
  -7.24999979E-03  -3.70808964E-04
  -7.19999988E-03  -3.78473254E-04
  -7.14999996E-03  -3.86255007E-04
  -7.10000005E-03  -3.94157862E-04
  -7.05000013E-03  -4.02194506E-04
  -7.00000022E-03  -4.10377019E-04
  -6.94999984E-03  -4.18713345E-04
  -6.89999992E-03  -4.27203660E-04
  -6.85000001E-03  -4.35841648E-04
  -6.80000009E-03  -4.44626581E-04
  -6.75000018E-03  -4.53561079E-04
  -6.69999979E-03  -4.62645607E-04
  -6.64999988E-03  -4.71879990E-04
  -6.59999996E-03  -4.81267489E-04
  -6.55000005E-03  -4.90818871E-04
  -6.50000013E-03  -5.00551483E-04
  -6.45000022E-03  -5.10477286E-04
  -6.39999984E-03  -5.20592323E-04
  -6.34999992E-03  -5.30887570E-04
  -6.30000001E-03  -5.41354995E-04
  -6.25000009E-03  -5.51998615E-04
  -6.20000018E-03  -5.62832807E-04
  -6.14999980E-03  -5.73862635E-04
  -6.09999988E-03  -5.85090020E-04
  -6.04999997E-03  -5.96515602E-04
  -6.00000005E-03  -6.08144444E-04
  -5.95000014E-03  -6.19986327E-04
  -5.90000022E-03  -6.32041891E-04
  -5.84999984E-03  -6.44299202E-04
  -5.79999993E-03  -6.56744174E-04
  -5.75000001E-03  -6.69382862E-04
  -5.70000010E-03  -6.82235695E-04
  -5.65000018E-03  -6.95321418E-04
  -5.59999980E-03  -7.08645210E-04
  -5.54999989E-03  -7.22195953E-04
  -5.49999997E-03  -7.35973124E-04
  -5.45000006E-03  -7.49989238E-04
  -5.40000014E-03  -7.64246797E-04
  -5.35000023E-03  -7.78740505E-04
  -5.29999984E-03  -7.93469197E-04
  -5.24999993E-03  -8.08440789E-04
  -5.20000001E-03  -8.23666865E-04
  -5.15000010E-03  -8.39162676E-04
  -5.10000018E-03  -8.54940503E-04
  -5.04999980E-03  -8.71000229E-04
  -4.99999989E-03  -8.87329923E-04
  -4.94999997E-03  -9.03919339E-04
  -4.90000006E-03  -9.20780702E-04
  -4.85000014E-03  -9.37920588E-04
  -4.80000023E-03  -9.55337542E-04
  -4.74999985E-03  -9.73031973E-04
  -4.69999993E-03  -9.91011504E-04
  -4.65000002E-03  -1.00928603E-03
  -4.60000010E-03  -1.02785486E-03
  -4.55000019E-03  -1.04671426E-03
  -4.49999981E-03  -1.06584770E-03
  -4.44999989E-03  -1.08525390E-03
  -4.39999998E-03  -1.10495964E-03
  -4.35000006E-03  -1.12499343E-03
  -4.30000015E-03  -1.14536041E-03
  -4.25000023E-03  -1.16604834E-03
  -4.19999985E-03  -1.18705397E-03
  -4.14999994E-03  -1.20838999E-03
  -4.10000002E-03  -1.23007502E-03
  -4.05000011E-03  -1.25211210E-03
  -4.00000019E-03  -1.27448363E-03
  -3.94999981E-03  -1.29717332E-03
  -3.89999989E-03  -1.32018607E-03
  -3.84999998E-03  -1.34354969E-03
  -3.80000006E-03  -1.36729726E-03
  -3.74999992E-03  -1.39142631E-03
  -3.70000000E-03  -1.41589448E-03
  -3.65000009E-03  -1.44066184E-03
  -3.59999994E-03  -1.46574667E-03
  -3.55000002E-03  -1.49119995E-03
  -3.50000011E-03  -1.51703670E-03
  -3.44999996E-03  -1.54322677E-03
  -3.40000005E-03  -1.56974082E-03
  -3.34999990E-03  -1.59660936E-03
  -3.29999998E-03  -1.62388326E-03
  -3.25000007E-03  -1.65157625E-03
  -3.19999992E-03  -1.67964934E-03
  -3.15000000E-03  -1.70805503E-03
  -3.10000009E-03  -1.73680251E-03
  -3.04999994E-03  -1.76593871E-03
  -3.00000003E-03  -1.79550191E-03
  -2.95000011E-03  -1.82548794E-03
  -2.89999996E-03  -1.85585557E-03
  -2.85000005E-03  -1.88658247E-03
  -2.79999990E-03  -1.91768818E-03
  -2.74999999E-03  -1.94919959E-03
  -2.70000007E-03  -1.98112172E-03
  -2.64999992E-03  -2.01342325E-03
  -2.60000001E-03  -2.04605679E-03
  -2.55000009E-03  -2.07903911E-03
  -2.49999994E-03  -2.11246009E-03
  -2.45000003E-03  -2.14635511E-03
  -2.40000011E-03  -2.18066759E-03
  -2.34999997E-03  -2.21532071E-03
  -2.30000005E-03  -2.25030165E-03
  -2.24999990E-03  -2.28566630E-03
  -2.19999999E-03  -2.32145656E-03
  -2.15000007E-03  -2.35765707E-03
  -2.09999993E-03  -2.39422452E-03
  -2.05000001E-03  -2.43111770E-03
  -2.00000009E-03  -2.46839202E-03
  -1.94999995E-03  -2.50615808E-03
  -1.90000003E-03  -2.54440657E-03
  -1.85000000E-03  -2.58302270E-03
  -1.79999997E-03  -2.62192334E-03
  -1.75000005E-03  -2.66114925E-03
  -1.70000002E-03  -2.70079565E-03
  -1.64999999E-03  -2.74092099E-03
  -1.59999996E-03  -2.78147543E-03
  -1.55000004E-03  -2.82239541E-03
  -1.50000001E-03  -2.86368676E-03
  -1.44999998E-03  -2.90537649E-03
  -1.39999995E-03  -2.94751953E-03
  -1.35000004E-03  -2.99007259E-03
  -1.30000000E-03  -3.03290784E-03
  -1.24999997E-03  -3.07598733E-03
  -1.20000006E-03  -3.11942957E-03
  -1.15000003E-03  -3.16335144E-03
  -1.09999999E-03  -3.20772408E-03
  -1.04999996E-03  -3.25247459E-03
  -1.00000005E-03  -3.29753733E-03
  -9.50000016E-04  -3.34291300E-03
  -8.99999985E-04  -3.38866934E-03
  -8.50000011E-04  -3.43482941E-03
  -7.99999980E-04  -3.48134921E-03
  -7.50000007E-04  -3.52816237E-03
  -6.99999975E-04  -3.57529731E-03
  -6.50000002E-04  -3.62288347E-03
  -6.00000028E-04  -3.67097929E-03
  -5.49999997E-04  -3.71951377E-03
  -5.00000024E-04  -3.76834185E-03
  -4.49999992E-04  -3.81736131E-03
  -3.99999990E-04  -3.86666413E-03
  -3.49999988E-04  -3.91643122E-03
  -3.00000014E-04  -3.96662997E-03
  -2.50000012E-04  -4.01708251E-03
  -1.99999995E-04  -4.06777440E-03
  -1.50000007E-04  -4.11886675E-03
  -9.99999975E-05  -4.17040149E-03
  -4.99999987E-05  -4.22229990E-03
   0.00000000      -4.27450333E-03
   4.99999987E-05  -4.32696426E-03
   9.99999975E-05  -4.37966408E-03
   1.50000007E-04  -4.43264190E-03
   1.99999995E-04  -4.48600110E-03
   2.50000012E-04  -4.53980407E-03
   3.00000014E-04  -4.59401868E-03
   3.49999988E-04  -4.64855274E-03
   3.99999990E-04  -4.70333500E-03
   4.49999992E-04  -4.75838734E-03
   5.00000024E-04  -4.81377309E-03
   5.49999997E-04  -4.86952113E-03
   6.00000028E-04  -4.92556626E-03
   6.50000002E-04  -4.98180231E-03
   6.99999975E-04  -5.03830938E-03
   7.50000007E-04  -5.09527605E-03
   7.99999980E-04  -5.15271258E-03
   8.50000011E-04  -5.21043222E-03
   8.99999985E-04  -5.26827760E-03
   9.50000016E-04  -5.32631017E-03
   1.00000005E-03  -5.38464030E-03
   1.04999996E-03  -5.44329267E-03
   1.09999999E-03  -5.50224539E-03
   1.15000003E-03  -5.56143979E-03
   1.20000006E-03  -5.62089402E-03
   1.24999997E-03  -5.68072638E-03
   1.30000000E-03  -5.74096106E-03
   1.35000004E-03  -5.80147514E-03
   1.39999995E-03  -5.86211588E-03
   1.44999998E-03  -5.92281716E-03
   1.50000001E-03  -5.98374568E-03
   1.55000004E-03  -6.04508072E-03
   1.59999996E-03  -6.10679062E-03
   1.64999999E-03  -6.16876734E-03
   1.70000002E-03  -6.23098202E-03
   1.75000005E-03  -6.29345002E-03
   1.79999997E-03  -6.35619229E-03
   1.85000000E-03  -6.41917950E-03
   1.90000003E-03  -6.48231525E-03
   1.94999995E-03  -6.54561305E-03
   2.00000009E-03  -6.60911715E-03
   2.05000001E-03  -6.67289365E-03
   2.09999993E-03  -6.73700869E-03
   2.15000007E-03  -6.80141943E-03
   2.19999999E-03  -6.86609047E-03
   2.24999990E-03  -6.93090260E-03
   2.30000005E-03  -6.99572172E-03
   2.34999997E-03  -7.06065120E-03
   2.40000011E-03  -7.12583866E-03
   2.45000003E-03  -7.19136419E-03
   2.49999994E-03  -7.25715142E-03
   2.55000009E-03  -7.32300244E-03
   2.60000001E-03  -7.38898851E-03
   2.64999992E-03  -7.45530240E-03
   2.70000007E-03  -7.52192782E-03
   2.74999999E-03  -7.58878095E-03
   2.79999990E-03  -7.65570672E-03