  -3.99999991E-02   0.00000000    
  -3.99499983E-02   0.00000000    
  -3.99000011E-02   0.00000000    
  -3.98500003E-02   0.00000000    
  -3.97999994E-02   7.90828870E-17
  -3.97499986E-02   6.08093635E-16
  -3.97000015E-02   2.35446148E-15
  -3.96500006E-02   6.20175798E-15
  -3.95999998E-02   1.27916180E-14
  -3.95499989E-02   2.27483488E-14
  -3.95000018E-02   3.72430019E-14
  -3.94500010E-02   5.74073937E-14
  -3.94000001E-02   8.18683974E-14
  -3.93499993E-02   1.04641969E-13
  -3.92999984E-02   1.17154252E-13
  -3.92500013E-02   1.14806236E-13
  -3.92000005E-02   1.02678520E-13
  -3.91499996E-02   9.37788055E-14
  -3.90999988E-02   9.98136307E-14
  -3.90500017E-02   1.22395380E-13
  -3.90000008E-02   1.52296659E-13
  -3.89500000E-02   1.75409519E-13
  -3.88999991E-02   1.77303186E-13
  -3.88499983E-02   1.42721596E-13
  -3.88000011E-02   5.63624600E-14
  -3.87500003E-02  -8.79570464E-14
  -3.86999995E-02  -2.75306443E-13
  -3.86499986E-02  -4.71360581E-13
  -3.86000015E-02  -6.46046638E-13
  -3.85500006E-02  -8.03892434E-13
  -3.84999998E-02  -9.93096122E-13
  -3.84499989E-02  -1.28138103E-12
  -3.84000018E-02  -1.71745409E-12
  -3.83500010E-02  -2.30909866E-12
  -3.83000001E-02  -3.02898527E-12
  -3.82499993E-02  -3.83122483E-12
  -3.81999984E-02  -4.65910036E-12
  -3.81500013E-02  -5.44819788E-12
  -3.81000005E-02  -6.14488712E-12
  -3.80499996E-02  -6.74180937E-12
  -3.79999988E-02  -7.29915000E-12
  -3.79500017E-02  -7.91827715E-12
  -3.79000008E-02  -8.67635391E-12
  -3.78500000E-02  -9.57426412E-12
  -3.77999991E-02  -1.05431601E-11
  -3.77499983E-02  -1.14987022E-11
  -3.77000012E-02  -1.23870905E-11
  -3.76500003E-02  -1.31837779E-11
  -3.75999995E-02  -1.38635371E-11
  -3.75499986E-02  -1.43901410E-11
  -3.75000015E-02  -1.47404068E-11
  -3.74500006E-02  -1.49245477E-11
  -3.73999998E-02  -1.49616656E-11
  -3.73499990E-02  -1.48238973E-11
  -3.73000018E-02  -1.44076747E-11
  -3.72500010E-02  -1.35652869E-11
  -3.72000001E-02  -1.21615721E-11
  -3.71499993E-02  -1.00931390E-11
  -3.70999984E-02  -7.26166566E-12
  -3.70500013E-02  -3.56545175E-12
  -3.70000005E-02   1.03172679E-12
  -3.69499996E-02   6.38736243E-12
  -3.68999988E-02   1.21366224E-11
  -3.68500017E-02   1.78018728E-11
  -3.68000008E-02   2.30140074E-11
  -3.67500000E-02   2.77088248E-11
  -3.66999991E-02   3.21846161E-11
  -3.66499983E-02   3.70105301E-11
  -3.66000012E-02   4.28468511E-11
  -3.65500003E-02   5.02304691E-11
  -3.64999995E-02   5.93549515E-11
  -3.64499986E-02   6.99078573E-11
  -3.64000015E-02   8.10894130E-11
  -3.63500006E-02   9.19063436E-11
  -3.62999998E-02   1.01660666E-10
  -3.62499990E-02   1.10356266E-10
  -3.62000018E-02   1.18722657E-10
  -3.61500010E-02   1.27769906E-10
  -3.61000001E-02   1.38094522E-10
  -3.60499993E-02   1.49322804E-10
  -3.59999985E-02   1.60000457E-10
  -3.59500013E-02   1.68010356E-10
  -3.59000005E-02   1.71381159E-10
  -3.58499996E-02   1.69207023E-10
  -3.57999988E-02   1.62309374E-10
  -3.57500017E-02   1.53254034E-10
  -3.57000008E-02   1.45500265E-10
  -3.56500000E-02   1.41854917E-10
  -3.55999991E-02   1.42885814E-10
  -3.55499983E-02   1.46164622E-10
  -3.55000012E-02   1.46912135E-10
  -3.54500003E-02   1.39917203E-10
  -3.53999995E-02   1.21894911E-10
  -3.53499986E-02   9.31643998E-11
  -3.53000015E-02   5.78071549E-11
  -3.52500007E-02   2.21106449E-11
  -3.51999998E-02  -8.17474820E-12
  -3.51499990E-02  -3.06808329E-11
  -3.51000018E-02  -4.80696837E-11
  -3.50500010E-02  -6.74839490E-11
  -3.50000001E-02  -9.76670342E-11
  -3.49499993E-02  -1.44798007E-10
  -3.48999985E-02  -2.08980735E-10
  -3.48500013E-02  -2.83299745E-10
  -3.48000005E-02  -3.56247559E-10
  -3.47499996E-02  -4.16657930E-10
  -3.46999988E-02  -4.58935223E-10
  -3.46500017E-02  -4.86073903E-10
  -3.46000008E-02  -5.08853293E-10
  -3.45500000E-02  -5.41246159E-10
  -3.44999991E-02  -5.93805505E-10
  -3.44499983E-02  -6.67910394E-10
  -3.44000012E-02  -7.53737517E-10
  -3.43500003E-02  -8.33458802E-10
  -3.42999995E-02  -8.88820628E-10
  -3.42499986E-02  -9.09908426E-10
  -3.42000015E-02  -9.00823860E-10
  -3.41500007E-02  -8.79036621E-10
  -3.40999998E-02  -8.68033978E-10
  -3.40499990E-02  -8.86228591E-10
  -3.40000018E-02  -9.37184108E-10
  -3.39500010E-02  -1.00596498E-09
  -3.39000002E-02  -1.06388742E-09
  -3.38499993E-02  -1.08022280E-09
  -3.37999985E-02  -1.03607833E-09
  -3.37500013E-02  -9.34176847E-10
  -3.37000005E-02  -7.99466715E-10
  -3.36499996E-02  -6.69247102E-10
  -3.35999988E-02  -5.76401871E-10
  -3.35500017E-02  -5.33172007E-10
  -3.35000008E-02  -5.23430632E-10
  -3.34500000E-02  -5.07999698E-10
  -3.33999991E-02  -4.41531367E-10
  -3.33499983E-02  -2.93738589E-10
  -3.33000012E-02  -6.51816587E-11
  -3.32500003E-02   2.10260309E-10
  -3.31999995E-02   4.78370121E-10
  -3.31499986E-02   6.88167245E-10
  -3.31000015E-02   8.15928658E-10
  -3.30500007E-02   8.78402184E-10
  -3.29999998E-02   9.27999788E-10
  -3.29499990E-02   1.03061271E-09
  -3.29000019E-02   1.23514798E-09
  -3.28500010E-02   1.54872892E-09
  -3.28000002E-02   1.92991489E-09
  -3.27499993E-02   2.30453101E-09
  -3.26999985E-02   2.59804467E-09
  -3.26500013E-02   2.77009904E-09
  -3.26000005E-02   2.83497603E-09
  -3.25499997E-02   2.85744806E-09
  -3.24999988E-02   2.92434965E-09
  -3.24500017E-02   3.10354276E-09
  -3.24000008E-02   3.40869066E-09
  -3.23500000E-02   3.78697607E-09
  -3.22999991E-02   4.13747347E-09
  -3.22499983E-02   4.35397185E-09
  -3.22000012E-02   4.37376357E-09
  -3.21500003E-02   4.20955848E-09
  -3.20999995E-02   3.94807520E-09
  -3.20499986E-02   3.71375086E-09
  -3.20000015E-02   3.61252228E-09
  -3.19500007E-02   3.68087272E-09
  -3.18999998E-02   3.86425691E-09
  -3.18499990E-02   4.03654576E-09
  -3.18000019E-02   4.05384126E-09
  -3.17500010E-02   3.81983689E-09
  -3.17000002E-02   3.33307049E-09
  -3.16499993E-02   2.69289746E-09
  -3.15999985E-02   2.05869699E-09
  -3.15500014E-02   1.57860947E-09
  -3.15000005E-02   1.31954603E-09
  -3.14499997E-02   1.23156507E-09
  -3.13999988E-02   1.16530974E-09
  -3.13500017E-02   9.37073641E-10
  -3.13000008E-02   4.13302337E-10
  -3.12500000E-02  -4.23970220E-10
  -3.11999992E-02  -1.46195167E-09
  -3.11500002E-02  -2.50164112E-09
  -3.10999993E-02  -3.34438766E-09
  -3.10500003E-02  -3.88255650E-09
  -3.09999995E-02  -4.15248103E-09
  -3.09500005E-02  -4.32300462E-09
  -3.08999997E-02  -4.62144234E-09
  -3.08500007E-02  -5.22837906E-09
  -3.07999998E-02  -6.18922913E-09
  -3.07500008E-02  -7.38485717E-09
  -3.07000000E-02  -8.57772164E-09
  -3.06499992E-02  -9.51518686E-09
  -3.06000002E-02  -1.00442632E-08
  -3.05499993E-02  -1.01850661E-08
  -3.05000003E-02  -1.01273061E-08
  -3.04499995E-02  -1.01480557E-08
  -3.04000005E-02  -1.04852207E-08
  -3.03499997E-02  -1.12229639E-08
  -3.03000007E-02  -1.22426052E-08
  -3.02499998E-02  -1.32650486E-08
  -3.02000009E-02  -1.39693466E-08
  -3.01500000E-02  -1.41358081E-08
  -3.00999992E-02  -1.37483598E-08
  -3.00500002E-02  -1.30071749E-08
  -2.99999993E-02  -1.22424897E-08
  -2.99500003E-02  -1.17660317E-08
  -2.98999995E-02  -1.17262582E-08
  -2.98500005E-02  -1.20337402E-08
  -2.97999997E-02  -1.23930368E-08
  -2.97500007E-02  -1.24300721E-08
  -2.96999998E-02  -1.18603163E-08
  -2.96500009E-02  -1.06223990E-08
  -2.96000000E-02  -8.91448781E-09
  -2.95499992E-02  -7.11313941E-09
  -2.95000002E-02  -5.60774049E-09
  -2.94499993E-02  -4.62404603E-09
  -2.94000003E-02  -4.11754453E-09
  -2.93499995E-02  -3.78747034E-09
  -2.93000005E-02  -3.20829852E-09
  -2.92499997E-02  -2.02133998E-09
  -2.92000007E-02  -1.00680367E-10
  -2.91499998E-02   2.38230613E-09
  -2.91000009E-02   5.02763564E-09
  -2.90500000E-02   7.38091810E-09
  -2.89999992E-02   9.13682996E-09
  -2.89500002E-02   1.02799689E-08
  -2.88999993E-02   1.10966143E-08
  -2.88500004E-02   1.20480399E-08
  -2.87999995E-02   1.35595934E-08
  -2.87500005E-02   1.58200653E-08
  -2.86999997E-02   1.86835614E-08
  -2.86500007E-02   2.17207941E-08
  -2.85999998E-02   2.43998386E-08
  -2.85500009E-02   2.63176112E-08
  -2.85000000E-02   2.73788476E-08
  -2.84499992E-02   2.78412919E-08
  -2.84000002E-02   2.82036456E-08
  -2.83499993E-02   2.89825390E-08
  -2.83000004E-02   3.04761514E-08
  -2.82499995E-02   3.26203633E-08
  -2.82000005E-02   3.50045504E-08
  -2.81499997E-02   3.70436588E-08
  -2.81000007E-02   3.82318071E-08
  -2.80499998E-02   3.83645258E-08
  -2.80000009E-02   3.76296434E-08
  -2.79500000E-02   3.65242450E-08
  -2.78999992E-02   3.56328194E-08
  -2.78500002E-02   3.53635450E-08
  -2.77999993E-02   3.57585179E-08
  -2.77500004E-02   3.64636357E-08
  -2.76999995E-02   3.68745781E-08
  -2.76500005E-02   3.63972603E-08
  -2.75999997E-02   3.47090712E-08
  -2.75500007E-02   3.19043920E-08
  -2.74999999E-02   2.84573130E-08
  -2.74500009E-02   2.50160692E-08
  -2.74000000E-02   2.21187282E-08
  -2.73499992E-02   1.99549550E-08
  -2.73000002E-02   1.82805024E-08
  -2.72499993E-02   1.65232148E-08
  -2.72000004E-02   1.40354004E-08
  -2.71499995E-02   1.03836690E-08
  -2.71000005E-02   5.54914958E-09
  -2.70499997E-02  -5.12137242E-11
  -2.70000007E-02  -5.73534908E-09
  -2.69499999E-02  -1.08469962E-08
  -2.69000009E-02  -1.50399337E-08
  -2.68500000E-02  -1.84298656E-08
  -2.67999992E-02  -2.15439133E-08
  -2.67500002E-02  -2.50865480E-08
  -2.66999993E-02  -2.96229423E-08
  -2.66500004E-02  -3.53177398E-08
  -2.65999995E-02  -4.18438475E-08
  -2.65500005E-02  -4.85033169E-08
  -2.64999997E-02  -5.45119399E-08
  -2.64500007E-02  -5.93271707E-08
  -2.63999999E-02  -6.28774686E-08
  -2.63500009E-02  -6.55909531E-08
  -2.63000000E-02  -6.82062549E-08
  -2.62499992E-02  -7.14427770E-08
  -2.62000002E-02  -7.56713305E-08
  -2.61499994E-02  -8.07298761E-08
  -2.61000004E-02  -8.59684164E-08
  -2.60499995E-02  -9.05078181E-08
  -2.60000005E-02  -9.36038091E-08
  -2.59499997E-02  -9.49605763E-08
  -2.59000007E-02  -9.48574552E-08
  -2.58499999E-02  -9.40296161E-08
  -2.58000009E-02  -9.33493780E-08
  -2.57500000E-02  -9.34401214E-08
  -2.56999992E-02  -9.43884189E-08
  -2.56500002E-02  -9.56837667E-08
  -2.55999994E-02  -9.64189510E-08
  -2.55500004E-02  -9.56710053E-08
  -2.54999995E-02  -9.28992705E-08
  -2.54500005E-02  -8.81872495E-08
  -2.53999997E-02  -8.22172694E-08
  -2.53500007E-02  -7.59824275E-08
  -2.52999999E-02  -7.03567409E-08
  -2.52500009E-02  -6.57068924E-08
  -2.52000000E-02  -6.17171310E-08
  -2.51499992E-02  -5.75109205E-08
  -2.51000002E-02  -5.20276977E-08
  -2.50499994E-02  -4.44977175E-08
  -2.50000004E-02  -3.48066180E-08
  -2.49499995E-02  -2.35840787E-08
  -2.49000005E-02  -1.19653620E-08
  -2.48499997E-02  -1.11998388E-09
  -2.48000007E-02   8.25055757E-09
  -2.47499999E-02   1.62241367E-08
  -2.47000009E-02   2.36331825E-08
  -2.46500000E-02   3.17034790E-08
  -2.45999992E-02   4.15040340E-08
  -2.45500002E-02   5.34443387E-08
  -2.44999994E-02   6.70451996E-08
  -2.44500004E-02   8.10965162E-08
  -2.43999995E-02   9.41478007E-08
  -2.43500005E-02   1.05124720E-07
  -2.42999997E-02   1.13799956E-07
  -2.42500007E-02   1.20901490E-07
  -2.41999999E-02   1.27795133E-07
  -2.41500009E-02   1.35868007E-07
  -2.41000000E-02   1.45878801E-07
  -2.40499992E-02   1.57565040E-07
  -2.40000002E-02   1.69694559E-07
  -2.39499994E-02   1.80553783E-07
  -2.39000004E-02   1.88669375E-07
  -2.38499995E-02   1.93448670E-07
  -2.38000005E-02   1.95448209E-07
  -2.37499997E-02   1.96136853E-07
  -2.37000007E-02   1.97241690E-07
  -2.36499999E-02   1.99956034E-07
  -2.36000009E-02   2.04363474E-07
  -2.35500000E-02   2.09348087E-07
  -2.34999992E-02   2.13047230E-07
  -2.34500002E-02   2.13659149E-07
  -2.33999994E-02   2.10250349E-07
  -2.33500004E-02   2.03195299E-07
  -2.32999995E-02   1.94035252E-07
  -2.32500006E-02   1.84807121E-07
  -2.31999997E-02   1.77128982E-07
  -2.31500007E-02   1.71446203E-07
  -2.30999999E-02   1.66789022E-07
  -2.30500009E-02   1.61170320E-07
  -2.30000000E-02   1.52465120E-07
  -2.29499992E-02   1.39386472E-07
  -2.29000002E-02   1.22112041E-07
  -2.28499994E-02   1.02262625E-07
  -2.28000004E-02   8.22237425E-08
  -2.27499995E-02   6.41015916E-08
  -2.27000006E-02   4.87777818E-08
  -2.26499997E-02   3.54983847E-08
  -2.26000007E-02   2.21998757E-08
  -2.25499999E-02   6.44520304E-09
  -2.25000009E-02  -1.34365594E-08
  -2.24500000E-02  -3.75229590E-08
  -2.23999992E-02  -6.41714308E-08
  -2.23500002E-02  -9.06702766E-08
  -2.22999994E-02  -1.14395945E-07
  -2.22500004E-02  -1.33961308E-07
  -2.21999995E-02  -1.49829461E-07
  -2.21500006E-02  -1.64099362E-07
  -2.20999997E-02  -1.79537025E-07
  -2.20500007E-02  -1.98280105E-07
  -2.19999999E-02  -2.20801311E-07
  -2.19500009E-02  -2.45607481E-07
  -2.19000001E-02  -2.69827382E-07
  -2.18499992E-02  -2.90440454E-07
  -2.18000002E-02  -3.05600025E-07
  -2.17499994E-02  -3.15450109E-07
  -2.17000004E-02  -3.22048891E-07
  -2.16499995E-02  -3.28413392E-07
  -2.16000006E-02  -3.37104240E-07
  -2.15499997E-02  -3.48991250E-07
  -2.15000007E-02  -3.62773505E-07
  -2.14499999E-02  -3.75488668E-07
  -2.14000009E-02  -3.83798437E-07
  -2.13500001E-02  -3.85473214E-07
  -2.12999992E-02  -3.80400223E-07
  -2.12500002E-02  -3.70645580E-07
  -2.11999994E-02  -3.59522573E-07
  -2.11500004E-02  -3.50076391E-07
  -2.10999995E-02  -3.43667836E-07
  -2.10500006E-02  -3.39306808E-07
  -2.09999997E-02  -3.34059592E-07
  -2.09500007E-02  -3.24364095E-07
  -2.08999999E-02  -3.07662873E-07
  -2.08500009E-02  -2.83609495E-07
  -2.08000001E-02  -2.54285453E-07
  -2.07499992E-02  -2.23306927E-07
  -2.07000002E-02  -1.94218543E-07
  -2.06499994E-02  -1.68897941E-07
  -2.06000004E-02  -1.46703016E-07
  -2.05499995E-02  -1.24765094E-07
  -2.05000006E-02  -9.93123948E-08
  -2.04499997E-02  -6.74341933E-08
  -2.04000007E-02  -2.84861503E-08
  -2.03499999E-02   1.55120343E-08
  -2.03000009E-02   6.06845987E-08
  -2.02500001E-02   1.02966588E-07
  -2.01999992E-02   1.39876875E-07
  -2.01500002E-02   1.71579600E-07
  -2.00999994E-02   2.00744367E-07
  -2.00500004E-02   2.31255910E-07
  -1.99999996E-02   2.66355613E-07
  -1.99500006E-02   3.07057860E-07
  -1.98999997E-02   3.51570208E-07
  -1.98500007E-02   3.95989019E-07
  -1.97999999E-02   4.35966314E-07
  -1.97500009E-02   4.68598472E-07
  -1.97000001E-02   4.93670655E-07
  -1.96499992E-02   5.13677548E-07
  -1.96000002E-02   5.32595550E-07
  -1.95499994E-02   5.53962423E-07
  -1.95000004E-02   5.79140362E-07
  -1.94499996E-02   6.06564981E-07
  -1.94000006E-02   6.32337503E-07
  -1.93499997E-02   6.51894709E-07
  -1.93000007E-02   6.61998854E-07
  -1.92499999E-02   6.62139257E-07
  -1.92000009E-02   6.54703115E-07
  -1.91500001E-02   6.43822091E-07
  -1.90999992E-02   6.33407637E-07
  -1.90500002E-02   6.25270104E-07
  -1.89999994E-02   6.18190768E-07
  -1.89500004E-02   6.08382209E-07
  -1.88999996E-02   5.91139553E-07
  -1.88500006E-02   5.62935554E-07
  -1.87999997E-02   5.23002655E-07
  -1.87500007E-02   4.73670042E-07
  -1.86999999E-02   4.19294707E-07
  -1.86500009E-02   3.64264736E-07
  -1.86000001E-02   3.10981051E-07
  -1.85499992E-02   2.58737430E-07
  -1.85000002E-02   2.04018065E-07
  -1.84499994E-02   1.42084858E-07
  -1.84000004E-02   6.91361350E-08
  -1.83499996E-02  -1.59369780E-08
  -1.83000006E-02  -1.11009705E-07
  -1.82499997E-02  -2.11651439E-07
  -1.82000007E-02  -3.13106398E-07
  -1.81499999E-02  -4.12423702E-07
  -1.81000009E-02  -5.09761890E-07
  -1.80500001E-02  -6.08268635E-07
  -1.79999992E-02  -7.12593192E-07
  -1.79500002E-02  -8.26695384E-07
  -1.78999994E-02  -9.51943605E-07
  -1.78500004E-02  -1.08639438E-06
  -1.77999996E-02  -1.22557844E-06
  -1.77500006E-02  -1.36443214E-06
  -1.76999997E-02  -1.49949653E-06
  -1.76500008E-02  -1.63040079E-06
  -1.75999999E-02  -1.75993785E-06
  -1.75500009E-02  -1.89268883E-06
  -1.75000001E-02  -2.03281274E-06
  -1.74499992E-02  -2.18202422E-06
  -1.74000002E-02  -2.33868809E-06
  -1.73499994E-02  -2.49844197E-06
  -1.73000004E-02  -2.65607537E-06
  -1.72499996E-02  -2.80780932E-06
  -1.72000006E-02  -2.95294080E-06
  -1.71499997E-02  -3.09409324E-06
  -1.71000008E-02  -3.23595737E-06
  -1.70499999E-02  -3.38307905E-06
  -1.70000009E-02  -3.53767814E-06
  -1.69500001E-02  -3.69850045E-06
  -1.68999992E-02  -3.86126248E-06
  -1.68500002E-02  -4.02050227E-06
  -1.67999994E-02  -4.17196361E-06
  -1.67500004E-02  -4.31443459E-06
  -1.66999996E-02  -4.45021897E-06
  -1.66500006E-02  -4.58406794E-06
  -1.65999997E-02  -4.72101556E-06
  -1.65500008E-02  -4.86405088E-06
  -1.64999999E-02  -5.01269778E-06
  -1.64500009E-02  -5.16318460E-06
  -1.64000001E-02  -5.31014484E-06
  -1.63499992E-02  -5.44905924E-06
  -1.63000003E-02  -5.57832072E-06
  -1.62499994E-02  -5.69996882E-06
  -1.62000004E-02  -5.81879794E-06
  -1.61499996E-02  -5.94021640E-06
  -1.61000006E-02  -6.06785215E-06
  -1.60499997E-02  -6.20197034E-06
  -1.60000008E-02  -6.33933541E-06
  -1.59499999E-02  -6.47468914E-06
  -1.59000009E-02  -6.60319483E-06
  -1.58500001E-02  -6.72282431E-06
  -1.57999992E-02  -6.83535836E-06
  -1.57500003E-02  -6.94561959E-06
  -1.56999994E-02  -7.05941511E-06
  -1.56500004E-02  -7.18101273E-06
  -1.55999996E-02  -7.31135970E-06
  -1.55499997E-02  -7.44778299E-06
  -1.54999997E-02  -7.58518490E-06
  -1.54499998E-02  -7.71842588E-06
  -1.53999999E-02  -7.84494114E-06
  -1.53500000E-02  -7.96607856E-06
  -1.53000001E-02  -8.08664481E-06
  -1.52500002E-02  -8.21293270E-06
  -1.52000003E-02  -8.35000628E-06
  -1.51500003E-02  -8.49956177E-06
  -1.51000004E-02  -8.65928723E-06
  -1.50499996E-02  -8.82402128E-06
  -1.49999997E-02  -8.98823237E-06
  -1.49499997E-02  -9.14859993E-06
  -1.48999998E-02  -9.30569877E-06
  -1.48499999E-02  -9.46396176E-06
  -1.48000000E-02  -9.62993090E-06
  -1.47500001E-02  -9.80955610E-06
  -1.47000002E-02  -1.00055604E-05
  -1.46500003E-02  -1.02163067E-05
  -1.46000003E-02  -1.04366300E-05
  -1.45500004E-02  -1.06603702E-05
  -1.44999996E-02  -1.08833065E-05
  -1.44499997E-02  -1.11052741E-05
  -1.43999998E-02  -1.13303304E-05
  -1.43499998E-02  -1.15649900E-05
  -1.42999999E-02  -1.18155722E-05
  -1.42500000E-02  -1.20856566E-05
  -1.42000001E-02  -1.23745949E-05
  -1.41500002E-02  -1.26776777E-05
  -1.41000003E-02  -1.29883683E-05
  -1.40500003E-02  -1.33014464E-05
  -1.40000004E-02  -1.36154777E-05
  -1.39499996E-02  -1.39339354E-05
  -1.38999997E-02  -1.42637655E-05
  -1.38499998E-02  -1.46119301E-05
  -1.37999998E-02  -1.49825546E-05
  -1.37499999E-02  -1.53752644E-05
  -1.37000000E-02  -1.57854356E-05
  -1.36500001E-02  -1.62065317E-05
  -1.36000002E-02  -1.66328900E-05
  -1.35500003E-02  -1.70622880E-05
  -1.35000004E-02  -1.74972683E-05
  -1.34500004E-02  -1.79444760E-05
  -1.33999996E-02  -1.84120145E-05
  -1.33499997E-02  -1.89055027E-05
  -1.32999998E-02  -1.94254972E-05
  -1.32499998E-02  -1.99674505E-05
  -1.31999999E-02  -2.05239703E-05
  -1.31500000E-02  -2.10882099E-05
  -1.31000001E-02  -2.16570843E-05
  -1.30500002E-02  -2.22328108E-05
  -1.30000003E-02  -2.28220633E-05
  -1.29500004E-02  -2.34331819E-05
  -1.29000004E-02  -2.40728132E-05
  -1.28499996E-02  -2.47432654E-05
  -1.27999997E-02  -2.54413499E-05
  -1.27499998E-02  -2.61596069E-05
  -1.26999998E-02  -2.68896765E-05
  -1.26499999E-02  -2.76268584E-05
  -1.26000000E-02  -2.83727568E-05
  -1.25500001E-02  -2.91340730E-05
  -1.25000002E-02  -2.99196709E-05
  -1.24500003E-02  -3.07372684E-05
  -1.24000004E-02  -3.15903017E-05
  -1.23500004E-02  -3.24769353E-05
  -1.22999996E-02  -3.33909593E-05
  -1.22499997E-02  -3.43246065E-05
  -1.21999998E-02  -3.52725365E-05
  -1.21499998E-02  -3.62349056E-05
  -1.20999999E-02  -3.72181312E-05
  -1.20500000E-02  -3.82314429E-05
  -1.20000001E-02  -3.92825714E-05
  -1.19500002E-02  -4.03747435E-05
  -1.19000003E-02  -4.15054856E-05
  -1.18500004E-02  -4.26679580E-05
  -1.18000004E-02  -4.38534735E-05
  -1.17499996E-02  -4.50558218E-05
  -1.16999997E-02  -4.62750104E-05
  -1.16499998E-02  -4.75179768E-05
  -1.15999999E-02  -4.87966317E-05
  -1.15499999E-02  -5.01229406E-05
  -1.15000000E-02  -5.15044339E-05
  -1.14500001E-02  -5.29414065E-05
  -1.14000002E-02  -5.44270042E-05
  -1.13500003E-02  -5.59516557E-05
  -1.13000004E-02  -5.75073864E-05
  -1.12500004E-02  -5.90900454E-05
  -1.11999996E-02  -6.07017355E-05
  -1.11499997E-02  -6.23496526E-05
  -1.10999998E-02  -6.40425351E-05
  -1.10499999E-02  -6.57871569E-05
  -1.09999999E-02  -6.75845440E-05
  -1.09500000E-02  -6.94299233E-05
  -1.09000001E-02  -7.13156769E-05
  -1.08500002E-02  -7.32360641E-05
  -1.08000003E-02  -7.51921252E-05
  -1.07500004E-02  -7.71920822E-05
  -1.07000005E-02  -7.92481442E-05
  -1.06499996E-02  -8.13725783E-05
  -1.05999997E-02  -8.35736282E-05
  -1.05499998E-02  -8.58519925E-05
  -1.04999999E-02  -8.82002932E-05
  -1.04499999E-02  -9.06062633E-05
  -1.04000000E-02  -9.30566312E-05
  -1.03500001E-02  -9.55418654E-05
  -1.03000002E-02  -9.80614350E-05
  -1.02500003E-02  -1.00624384E-04
  -1.02000004E-02  -1.03243525E-04
  -1.01500005E-02  -1.05928695E-04
  -1.00999996E-02  -1.08683795E-04
  -1.00499997E-02  -1.11507165E-04
  -9.99999978E-03  -1.14393290E-04
  -9.94999986E-03  -1.17336145E-04
  -9.89999995E-03  -1.20333330E-04
  -9.85000003E-03  -1.23387625E-04
  -9.80000012E-03  -1.26506318E-04
  -9.75000020E-03  -1.29700900E-04
  -9.70000029E-03  -1.32981426E-04
  -9.65000037E-03  -1.36351053E-04
  -9.60000046E-03  -1.39804775E-04
  -9.54999961E-03  -1.43332203E-04
  -9.49999969E-03  -1.46921942E-04
  -9.44999978E-03  -1.50566833E-04
  -9.39999986E-03  -1.54266221E-04
  -9.34999995E-03  -1.58026436E-04
  -9.30000003E-03  -1.61860677E-04
  -9.25000012E-03  -1.65779973E-04
  -9.20000020E-03  -1.69787570E-04
  -9.15000029E-03  -1.73879875E-04
  -9.10000037E-03  -1.78049042E-04
  -9.05000046E-03  -1.82285614E-04
  -8.99999961E-03  -1.86582431E-04
  -8.94999970E-03  -1.90938226E-04
  -8.89999978E-03  -1.95360262E-04
  -8.84999987E-03  -1.99862610E-04
  -8.79999995E-03  -2.04461074E-04
  -8.75000004E-03  -2.09164820E-04
  -8.70000012E-03  -2.13973573E-04
  -8.65000021E-03  -2.18880057E-04
  -8.60000029E-03  -2.23875337E-04
  -8.55000038E-03  -2.28954203E-04
  -8.50000046E-03  -2.34114239E-04
  -8.44999962E-03  -2.39357032E-04
  -8.39999970E-03  -2.44692492E-04
  -8.34999979E-03  -2.50132871E-04
  -8.29999987E-03  -2.55685649E-04
  -8.24999996E-03  -2.61349633E-04
  -8.20000004E-03  -2.67113384E-04
  -8.15000013E-03  -2.72965728E-04
  -8.10000021E-03  -2.78904801E-04
  -8.05000030E-03  -2.84930895E-04
  -8.00000038E-03  -2.91043922E-04
  -7.95000046E-03  -2.97252962E-04
  -7.89999962E-03  -3.03571549E-04
  -7.84999970E-03  -3.10013711E-04
  -7.79999979E-03  -3.16585880E-04
  -7.74999987E-03  -3.23281391E-04
  -7.69999996E-03  -3.30087612E-04
  -7.65000004E-03  -3.36998928E-04
  -7.60000013E-03  -3.44017870E-04
  -7.55000021E-03  -3.51155701E-04
  -7.49999983E-03  -3.58425023E-04
  -7.44999992E-03  -3.65833199E-04
  -7.40000000E-03  -3.73388262E-04
  -7.35000009E-03  -3.81097139E-04
  -7.30000017E-03  -3.88957240E-04
  -7.24999979E-03  -3.96959280E-04
  -7.19999988E-03  -4.05093189E-04
  -7.14999996E-03  -4.13350499E-04
  -7.10000005E-03  -4.21734876E-04
  -7.05000013E-03  -4.30258428E-04
  -7.00000022E-03  -4.38934512E-04
  -6.94999984E-03  -4.47773084E-04
  -6.89999992E-03  -4.56774636E-04
  -6.85000001E-03  -4.65932331E-04
  -6.80000009E-03  -4.75244859E-04
  -6.75000018E-03  -4.84713644E-04
  -6.69999979E-03  -4.94339329E-04
  -6.64999988E-03  -5.04122931E-04
  -6.59999996E-03  -5.14068059E-04
  -6.55000005E-03  -5.24185365E-04
  -6.50000013E-03  -5.34494931E-04
  -6.45000022E-03  -5.45011950E-04
  -6.39999984E-03  -5.55729959E-04
  -6.34999992E-03  -5.66637551E-04
  -6.30000001E-03  -5.77726634E-04
  -6.25000009E-03  -5.89001458E-04
  -6.20000018E-03  -6.00478728E-04
  -6.14999980E-03  -6.12164615E-04
  -6.09999988E-03  -6.24058128E-04
  -6.04999997E-03  -6.36158977E-04
  -6.00000005E-03  -6.48475718E-04
  -5.95000014E-03  -6.61021797E-04
  -5.90000022E-03  -6.73795817E-04
  -5.84999984E-03  -6.86780259E-04
  -5.79999993E-03  -6.99956785E-04
  -5.75000001E-03  -7.13336165E-04
  -5.70000010E-03  -7.26946921E-04
  -5.65000018E-03  -7.40807853E-04
  -5.59999980E-03  -7.54917972E-04
  -5.54999989E-03  -7.69262551E-04
  -5.49999997E-03  -7.83845782E-04
  -5.45000006E-03  -7.98686582E-04
  -5.40000014E-03  -8.13785067E-04
  -5.35000023E-03  -8.29130586E-04
  -5.29999984E-03  -8.44720227E-04
  -5.24999993E-03  -8.60565924E-04
  -5.20000001E-03  -8.76685197E-04
  -5.15000010E-03  -8.93093122E-04
  -5.10000018E-03  -9.09799477E-04
  -5.04999980E-03  -9.26800945E-04
  -4.99999989E-03  -9.44085827E-04
  -4.94999997E-03  -9.61647544E-04
  -4.90000006E-03  -9.79500590E-04
  -4.85000014E-03  -9.97647527E-04
  -4.80000023E-03  -1.01608189E-03
  -4.74999985E-03  -1.03480567E-03
  -4.69999993E-03  -1.05383049E-03
  -4.65000002E-03  -1.07316952E-03
  -4.60000010E-03  -1.09282089E-03
  -4.55000019E-03  -1.11277518E-03
  -4.49999981E-03  -1.13301130E-03
  -4.44999989E-03  -1.15353055E-03
  -4.39999998E-03  -1.17436831E-03
  -4.35000006E-03  -1.19555474E-03
  -4.30000015E-03  -1.21709518E-03
  -4.25000023E-03  -1.23897369E-03
  -4.19999985E-03  -1.26118260E-03
  -4.14999994E-03  -1.28373934E-03
  -4.10000002E-03  -1.30666478E-03
  -4.05000011E-03  -1.32995844E-03
  -4.00000019E-03  -1.35360553E-03
  -3.94999981E-03  -1.37759012E-03
  -3.89999989E-03  -1.40191440E-03
  -3.84999998E-03  -1.42660644E-03
  -3.80000006E-03  -1.45169976E-03
  -3.74999992E-03  -1.47719414E-03
  -3.70000000E-03  -1.50304311E-03
  -3.65000009E-03  -1.52920082E-03
  -3.59999994E-03  -1.55568402E-03
  -3.55000002E-03  -1.58254919E-03
  -3.50000011E-03  -1.60981703E-03
  -3.44999996E-03  -1.63745845E-03
  -3.40000005E-03  -1.66543806E-03
  -3.34999990E-03  -1.69378438E-03
  -3.29999998E-03  -1.72255468E-03
  -3.25000007E-03  -1.75176433E-03
  -3.19999992E-03  -1.78136700E-03
  -3.15000000E-03  -1.81131018E-03
  -3.10000009E-03  -1.84160587E-03
  -3.04999994E-03  -1.87230553E-03
  -3.00000003E-03  -1.90345733E-03
  -2.95000011E-03  -1.93505455E-03
  -2.89999996E-03  -1.96704082E-03
  -2.85000005E-03  -1.99939450E-03
  -2.79999990E-03  -2.03214446E-03
  -2.74999999E-03  -2.06532306E-03
  -2.70000007E-03  -2.09892378E-03
  -2.64999992E-03  -2.13290099E-03
  -2.60000001E-03  -2.16720672E-03
  -2.55000009E-03  -2.20187823E-03
  -2.49999994E-03  -2.23701820E-03
  -2.45000003E-03  -2.27265828E-03
  -2.40000011E-03  -2.30872096E-03
  -2.34999997E-03  -2.34510796E-03
  -2.30000005E-03  -2.38182163E-03
  -2.24999990E-03  -2.41893739E-03
  -2.19999999E-03  -2.45650159E-03
  -2.15000007E-03  -2.49448791E-03
  -2.09999993E-03  -2.53283069E-03
  -2.05000001E-03  -2.57148873E-03
  -2.00000009E-03  -2.61055026E-03
  -1.94999995E-03  -2.65014009E-03
  -1.90000003E-03  -2.69022537E-03
  -1.85000000E-03  -2.73065967E-03
  -1.79999997E-03  -2.77136173E-03
  -1.75000005E-03  -2.81238928E-03
  -1.70000002E-03  -2.85384874E-03
  -1.64999999E-03  -2.89580715E-03
  -1.59999996E-03  -2.93820980E-03
  -1.55000004E-03  -2.98098940E-03
  -1.50000001E-03  -3.02414224E-03
  -1.44999998E-03  -3.06768599E-03
  -1.39999995E-03  -3.11167631E-03
  -1.35000004E-03  -3.15607735E-03
  -1.30000000E-03  -3.20076337E-03
  -1.24999997E-03  -3.24567710E-03
  -1.20000006E-03  -3.29093379E-03
  -1.15000003E-03  -3.33667500E-03
  -1.09999999E-03  -3.38288909E-03
  -1.04999996E-03  -3.42950504E-03
  -1.00000005E-03  -3.47643602E-03
  -9.50000016E-04  -3.52365081E-03
  -8.99999985E-04  -3.57120554E-03
  -8.50000011E-04  -3.61914723E-03
  -7.99999980E-04  -3.66747286E-03
  -7.50000007E-04  -3.71612003E-03
  -6.99999975E-04  -3.76508944E-03
  -6.50000002E-04  -3.81448679E-03
  -6.00000028E-04  -3.86437331E-03
  -5.49999997E-04  -3.91470734E-03
  -5.00000024E-04  -3.96535266E-03
  -4.49999992E-04  -4.01618192E-03
  -3.99999990E-04  -4.06725844E-03
  -3.49999988E-04  -4.11877083E-03
  -3.00000014E-04  -4.17070603E-03
  -2.50000012E-04  -4.22290526E-03
  -1.99999995E-04  -4.27536666E-03
  -1.50000007E-04  -4.32822714E-03
  -9.99999975E-05  -4.38149320E-03
  -4.99999987E-05  -4.43508755E-03
   0.00000000      -4.48897434E-03
   4.99999987E-05  -4.54312377E-03
   9.99999975E-05  -4.59752511E-03
   1.50000007E-04  -4.65218397E-03
   1.99999995E-04  -4.70719254E-03
   2.50000012E-04  -4.76263929E-03
   3.00000014E-04  -4.81850281E-03
   3.49999988E-04  -4.87469696E-03
   3.99999990E-04  -4.93113836E-03
   4.49999992E-04  -4.98780934E-03
   5.00000024E-04  -5.04476856E-03
   5.49999997E-04  -5.10208495E-03
   6.00000028E-04  -5.15971845E-03
   6.50000002E-04  -5.21755032E-03
   6.99999975E-04  -5.27563971E-03
   7.50000007E-04  -5.33416355E-03
   7.99999980E-04  -5.39313722E-03
   8.50000011E-04  -5.45238797E-03
   8.99999985E-04  -5.51176537E-03
   9.50000016E-04  -5.57131507E-03
   1.00000005E-03  -5.63110551E-03
   1.04999996E-03  -5.69118233E-03
   1.09999999E-03  -5.75158792E-03
   1.15000003E-03  -5.81227103E-03
   1.20000006E-03  -5.87320840E-03
   1.24999997E-03  -5.93447592E-03
   1.30000000E-03  -5.99608570E-03
   1.35000004E-03  -6.05796045E-03
   1.39999995E-03  -6.11999584E-03
   1.44999998E-03  -6.18209084E-03
   1.50000001E-03  -6.24436280E-03
   1.55000004E-03  -6.30700029E-03
   1.59999996E-03  -6.37001684E-03
   1.64999999E-03  -6.43333606E-03
   1.70000002E-03  -6.49690814E-03
   1.75000005E-03  -6.56068744E-03
   1.79999997E-03  -6.62467862E-03
   1.85000000E-03  -6.68889144E-03
   1.90000003E-03  -6.75325701E-03
   1.94999995E-03  -6.81778928E-03
   2.00000009E-03  -6.88253250E-03
   2.05000001E-03  -6.94752391E-03
   2.09999993E-03  -7.01283896E-03
   2.15000007E-03  -7.07845110E-03
   2.19999999E-03  -7.14431750E-03
   2.24999990E-03  -7.21028121E-03
   2.30000005E-03  -7.27617787E-03
   2.34999997E-03  -7.34215276E-03
   2.40000011E-03  -7.40842661E-03
   2.45000003E-03  -7.47509394E-03
   2.49999994E-03  -7.54201226E-03
   2.55000009E-03  -7.60891102E-03
   2.60000001E-03  -7.67589174E-03
   2.64999992E-03  -7.74321612E-03
   2.70000007E-03  -7.81088043E-03
   2.74999999E-03  -7.87877664E-03
   2.79999990E-03  -7.94669334E-03