  -3.99999991E-02   0.00000000    
  -3.99499983E-02   0.00000000    
  -3.99000011E-02   0.00000000    
  -3.98500003E-02   0.00000000    
  -3.97999994E-02  -7.52667084E-20
  -3.97499986E-02  -2.74895589E-19
  -3.97000015E-02  -4.09961536E-20
  -3.96500006E-02   2.41991957E-18
  -3.95999998E-02   9.97555334E-18
  -3.95499989E-02   2.58809097E-17
  -3.95000018E-02   5.40624933E-17
  -3.94500010E-02   1.00567580E-16
  -3.94000001E-02   1.73242563E-16
  -3.93499993E-02   2.76632543E-16
  -3.92999984E-02   4.04671049E-16
  -3.92500013E-02   5.39397886E-16
  -3.92000005E-02   6.60946426E-16
  -3.91499996E-02   7.62560575E-16
  -3.90999988E-02   8.56697964E-16
  -3.90500017E-02   9.65160691E-16
  -3.90000008E-02   1.10185550E-15
  -3.89500000E-02   1.26314116E-15
  -3.88999991E-02   1.42963047E-15
  -3.88499983E-02   1.56900624E-15
  -3.88000011E-02   1.63175381E-15
  -3.87500003E-02   1.54895221E-15
  -3.86999995E-02   1.24849957E-15
  -3.86499986E-02   6.86840541E-16
  -3.86000015E-02  -1.33879195E-16
  -3.85500006E-02  -1.19190707E-15
  -3.84999998E-02  -2.50547221E-15
  -3.84499989E-02  -4.17855922E-15
  -3.84000018E-02  -6.39305232E-15
  -3.83500010E-02  -9.35627257E-15
  -3.83000001E-02  -1.32505159E-14
  -3.82499993E-02  -1.82168784E-14
  -3.81999984E-02  -2.43604423E-14
  -3.81500013E-02  -3.17468287E-14
  -3.81000005E-02  -4.03923043E-14
  -3.80499996E-02  -5.02846801E-14
  -3.79999988E-02  -6.14528299E-14
  -3.79500017E-02  -7.40404374E-14
  -3.79000008E-02  -8.83101033E-14
  -3.78500000E-02  -1.04557415E-13
  -3.77999991E-02  -1.23003550E-13
  -3.77499983E-02  -1.43759448E-13
  -3.77000012E-02  -1.66881930E-13
  -3.76500003E-02  -1.92448718E-13
  -3.75999995E-02  -2.20571242E-13
  -3.75499986E-02  -2.51346687E-13
  -3.75000015E-02  -2.84821374E-13
  -3.74500006E-02  -3.21011474E-13
  -3.73999998E-02  -3.59938370E-13
  -3.73499990E-02  -4.01605778E-13
  -3.73000018E-02  -4.45915467E-13
  -3.72500010E-02  -4.92608287E-13
  -3.72000001E-02  -5.41301758E-13
  -3.71499993E-02  -5.91582339E-13
  -3.70999984E-02  -6.43035917E-13
  -3.70500013E-02  -6.95166309E-13
  -3.70000005E-02  -7.47300496E-13
  -3.69499996E-02  -7.98627549E-13
  -3.68999988E-02  -8.48400451E-13
  -3.68500017E-02  -8.96152022E-13
  -3.68000008E-02  -9.41738115E-13
  -3.67500000E-02  -9.85160629E-13
  -3.66999991E-02  -1.02629331E-12
  -3.66499983E-02  -1.06465889E-12
  -3.66000012E-02  -1.09931151E-12
  -3.65500003E-02  -1.12879877E-12
  -3.64999995E-02  -1.15122365E-12
  -3.64499986E-02  -1.16449092E-12
  -3.64000015E-02  -1.16673587E-12
  -3.63500006E-02  -1.15673898E-12
  -3.62999998E-02  -1.13400804E-12
  -3.62499990E-02  -1.09837963E-12
  -3.62000018E-02  -1.04934648E-12
  -3.61500010E-02  -9.85559399E-13
  -3.61000001E-02  -9.04861147E-13
  -3.60499993E-02  -8.04850869E-13
  -3.59999985E-02  -6.83681735E-13
  -3.59500013E-02  -5.40716126E-13
  -3.59000005E-02  -3.76778795E-13
  -3.58499996E-02  -1.93869714E-13
  -3.57999988E-02   5.69287032E-15
  -3.57500017E-02   2.20515080E-13
  -3.57000008E-02   4.51255542E-13
  -3.56500000E-02   7.00944782E-13
  -3.55999991E-02   9.74043762E-13
  -3.55499983E-02   1.27446523E-12
  -3.55000012E-02   1.60347831E-12
  -3.54500003E-02   1.95860580E-12
  -3.53999995E-02   2.33414807E-12
  -3.53499986E-02   2.72314506E-12
  -3.53000015E-02   3.11990950E-12
  -3.52500007E-02   3.52205071E-12
  -3.51999998E-02   3.93108766E-12
  -3.51499990E-02   4.35120212E-12
  -3.51000018E-02   4.78639220E-12
  -3.50500010E-02   5.23705948E-12
  -3.50000001E-02   5.69764158E-12
  -3.49499993E-02   6.15673268E-12
  -3.48999985E-02   6.60005904E-12
  -3.48500013E-02   7.01514975E-12
  -3.48000005E-02   7.39548093E-12
  -3.47499996E-02   7.74195291E-12
  -3.46999988E-02   8.06084106E-12
  -3.46500017E-02   8.35900533E-12
  -3.46000008E-02   8.63845974E-12
  -3.45500000E-02   8.89272250E-12
  -3.44999991E-02   9.10674054E-12
  -3.44499983E-02   9.26085597E-12
  -3.44000012E-02   9.33746309E-12
  -3.43500003E-02   9.32750838E-12
  -3.42999995E-02   9.23357744E-12
  -3.42499986E-02   9.06749328E-12
  -3.42000015E-02   8.84300445E-12
  -3.41500007E-02   8.56675841E-12
  -3.40999998E-02   8.23199581E-12
  -3.40499990E-02   7.81835013E-12
  -3.40000018E-02   7.29832514E-12
  -3.39500010E-02   6.64789664E-12
  -3.39000002E-02   5.85667235E-12
  -3.38499993E-02   4.93295639E-12
  -3.37999985E-02   3.90097763E-12
  -3.37500013E-02   2.79078540E-12
  -3.37000005E-02   1.62474786E-12
  -3.36499996E-02   4.06729988E-13
  -3.35999988E-02  -8.80492782E-13
  -3.35500017E-02  -2.26745554E-12
  -3.35000008E-02  -3.78270809E-12
  -3.34500000E-02  -5.43689703E-12
  -3.33999991E-02  -7.21391480E-12
  -3.33499983E-02  -9.07380594E-12
  -3.33000012E-02  -1.09667423E-11
  -3.32500003E-02  -1.28521967E-11
  -3.31999995E-02  -1.47148144E-11
  -3.31499986E-02  -1.65694559E-11
  -3.31000015E-02  -1.84522363E-11
  -3.30500007E-02  -2.04004886E-11
  -3.29999998E-02  -2.24300214E-11
  -3.29499990E-02  -2.45201949E-11
  -3.29000019E-02  -2.66146254E-11
  -3.28500010E-02  -2.86384874E-11
  -3.28000002E-02  -3.05251484E-11
  -3.27499993E-02  -3.22399989E-11
  -3.26999985E-02  -3.37900229E-11
  -3.26500013E-02  -3.52139498E-11
  -3.26000005E-02  -3.65569346E-11
  -3.25499997E-02  -3.78408138E-11
  -3.24999988E-02  -3.90436260E-11
  -3.24500017E-02  -4.00985391E-11
  -3.24000008E-02  -4.09142442E-11
  -3.23500000E-02  -4.14089700E-11
  -3.22999991E-02  -4.15431578E-11
  -3.22499983E-02  -4.13351055E-11
  -3.22000012E-02  -4.08506839E-11
  -3.21500003E-02  -4.01702248E-11
  -3.20999995E-02  -3.93469389E-11
  -3.20499986E-02  -3.83760385E-11
  -3.20000015E-02  -3.71897027E-11
  -3.19500007E-02  -3.56813086E-11
  -3.18999998E-02  -3.37491909E-11
  -3.18499990E-02  -3.13409854E-11
  -3.18000019E-02  -2.84783135E-11
  -3.17500010E-02  -2.52495906E-11
  -3.17000002E-02  -2.17723079E-11
  -3.16499993E-02  -1.81404770E-11
  -3.15999985E-02  -1.43809964E-11
  -3.15500014E-02  -1.04400490E-11
  -3.15000005E-02  -6.20783850E-12
  -3.14499997E-02  -1.57187154E-12
  -3.13999988E-02   3.52493880E-12
  -3.13500017E-02   9.04831939E-12
  -3.13000008E-02   1.48763571E-11
  -3.12500000E-02   2.08426089E-11
  -3.11999992E-02   2.68004299E-11
  -3.11500002E-02   3.26801364E-11
  -3.10999993E-02   3.85127485E-11
  -3.10500003E-02   4.44076997E-11
  -3.09999995E-02   5.04925511E-11
  -3.09500005E-02   5.68405982E-11
  -3.08999997E-02   6.34197972E-11
  -3.08500007E-02   7.00879355E-11
  -3.07999998E-02   7.66384456E-11
  -3.07500008E-02   8.28773231E-11
  -3.07000000E-02   8.86963558E-11
  -3.06499992E-02   9.41086931E-11
  -3.06000002E-02   9.92291041E-11
  -3.05499993E-02   1.04206324E-10
  -3.05000003E-02   1.09136776E-10
  -3.04499995E-02   1.13998290E-10
  -3.04000005E-02   1.18635060E-10
  -3.03499997E-02   1.22803448E-10
  -3.03000007E-02   1.26260793E-10
  -3.02499998E-02   1.28858313E-10
  -3.02000009E-02   1.30595354E-10
  -3.01500000E-02   1.31607947E-10
  -3.00999992E-02   1.32095487E-10
  -3.00500002E-02   1.32216918E-10
  -2.99999993E-02   1.32003714E-10
  -2.99500003E-02   1.31329517E-10
  -2.98999995E-02   1.29951869E-10
  -2.98500005E-02   1.27608937E-10
  -2.97999997E-02   1.24129623E-10
  -2.97500007E-02   1.19507557E-10
  -2.96999998E-02   1.13904178E-10
  -2.96500009E-02   1.07576656E-10
  -2.96000000E-02   1.00760490E-10
  -2.95499992E-02   9.35593131E-11
  -2.95000002E-02   8.58929178E-11
  -2.94499993E-02   7.75289416E-11
  -2.94000003E-02   6.81861165E-11
  -2.93499995E-02   5.76635961E-11
  -2.93000005E-02   4.59385238E-11
  -2.92499997E-02   3.31878205E-11
  -2.92000007E-02   1.97230496E-11
  -2.91499998E-02   5.86580827E-12
  -2.91000009E-02  -8.18179552E-12
  -2.90500000E-02  -2.24132917E-11
  -2.89999992E-02  -3.70043614E-11
  -2.89500002E-02  -5.22131921E-11
  -2.88999993E-02  -6.82377765E-11
  -2.88500004E-02  -8.50946674E-11
  -2.87999995E-02  -1.02575608E-10
  -2.87500005E-02  -1.20303947E-10
  -2.86999997E-02  -1.37867384E-10
  -2.86500007E-02  -1.54968691E-10
  -2.85999998E-02  -1.71527251E-10
  -2.85500009E-02  -1.87684868E-10
  -2.85000000E-02  -2.03711464E-10
  -2.84499992E-02  -2.19849319E-10
  -2.84000002E-02  -2.36164505E-10
  -2.83499993E-02  -2.52471766E-10
  -2.83000004E-02  -2.68368799E-10
  -2.82499995E-02  -2.83368107E-10
  -2.82000005E-02  -2.97069175E-10
  -2.81499997E-02  -3.09294645E-10
  -2.81000007E-02  -3.20128646E-10
  -2.80499998E-02  -3.29838656E-10
  -2.80000009E-02  -3.38714778E-10
  -2.79500000E-02  -3.46896817E-10
  -2.78999992E-02  -3.54266561E-10
  -2.78500002E-02  -3.60453528E-10
  -2.77999993E-02  -3.64954844E-10
  -2.77500004E-02  -3.67319619E-10
  -2.76999995E-02  -3.67317454E-10
  -2.76500005E-02  -3.65015435E-10
  -2.75999997E-02  -3.60727503E-10
  -2.75500007E-02  -3.54856089E-10
  -2.74999999E-02  -3.47694096E-10
  -2.74500009E-02  -3.39275469E-10
  -2.74000000E-02  -3.29341415E-10
  -2.73499992E-02  -3.17439464E-10
  -2.73000002E-02  -3.03112896E-10
  -2.72499993E-02  -2.86097451E-10
  -2.72000004E-02  -2.66440287E-10
  -2.71499995E-02  -2.44486792E-10
  -2.71000005E-02  -2.20738927E-10
  -2.70499997E-02  -1.95643959E-10
  -2.70000007E-02  -1.69406711E-10
  -2.69499999E-02  -1.41909512E-10
  -2.69000009E-02  -1.12779085E-10
  -2.68500000E-02  -8.15742543E-11
  -2.67999992E-02  -4.80128923E-11
  -2.67500002E-02  -1.21375037E-11
  -2.66999993E-02   2.56554448E-11
  -2.66500004E-02   6.47378748E-11
  -2.65999995E-02   1.04473097E-10
  -2.65500005E-02   1.44443763E-10
  -2.64999997E-02   1.84585278E-10
  -2.64500007E-02   2.25163457E-10
  -2.63999999E-02   2.66601990E-10
  -2.63500009E-02   3.09231390E-10
  -2.63000000E-02   3.53068713E-10
  -2.62499992E-02   3.97728350E-10
  -2.62000002E-02   4.42507780E-10
  -2.61499994E-02   4.86614360E-10
  -2.61000004E-02   5.29436606E-10
  -2.60499995E-02   5.70739789E-10
  -2.60000005E-02   6.10698658E-10
  -2.59499997E-02   6.49750365E-10
  -2.59000007E-02   6.88326729E-10
  -2.58499999E-02   7.26580907E-10
  -2.58000009E-02   7.64228347E-10
  -2.57500000E-02   8.00576438E-10
  -2.56999992E-02   8.34735059E-10
  -2.56500002E-02   8.65921557E-10
  -2.55999994E-02   8.93726093E-10
  -2.55500004E-02   9.18218834E-10
  -2.54999995E-02   9.39846978E-10
  -2.54500005E-02   9.59163637E-10
  -2.53999997E-02   9.76506764E-10
  -2.53500007E-02   9.91769222E-10
  -2.52999999E-02   1.00436603E-09
  -2.52500009E-02   1.01341813E-09
  -2.52000000E-02   1.01807540E-09
  -2.51499992E-02   1.01784048E-09
  -2.51000002E-02   1.01274933E-09
  -2.50499994E-02   1.00332154E-09
  -2.50000004E-02   9.90294402E-10
  -2.49499995E-02   9.74253123E-10
  -2.49000005E-02   9.55319712E-10
  -2.48499997E-02   9.33044531E-10
  -2.48000007E-02   9.06555109E-10
  -2.47499999E-02   8.74901540E-10
  -2.47000009E-02   8.37449554E-10
  -2.46500000E-02   7.94146082E-10
  -2.45999992E-02   7.45537965E-10
  -2.45500002E-02   6.92526425E-10
  -2.44999994E-02   6.35961894E-10
  -2.44500004E-02   5.76254655E-10
  -2.43999995E-02   5.13175891E-10
  -2.43500005E-02   4.45946946E-10
  -2.42999997E-02   3.73586329E-10
  -2.42500007E-02   2.95365205E-10
  -2.41999999E-02   2.11167223E-10
  -2.41500009E-02   1.21585686E-10
  -2.41000000E-02   2.77071265E-11
  -2.40499992E-02  -6.93296046E-11
  -2.40000002E-02  -1.68805692E-10
  -2.39499994E-02  -2.70716533E-10
  -2.39000004E-02  -3.75752124E-10
  -2.38499995E-02  -4.84964680E-10
  -2.38000005E-02  -5.99262306E-10
  -2.37499997E-02  -7.18951565E-10
  -2.37000007E-02  -8.43537018E-10
  -2.36499999E-02  -9.71877134E-10
  -2.36000009E-02  -1.10263587E-09
  -2.35500000E-02  -1.23483113E-09
  -2.34999992E-02  -1.36823253E-09
  -2.34500002E-02  -1.50342550E-09
  -2.33999994E-02  -1.64150626E-09
  -2.33500004E-02  -1.78354087E-09
  -2.32999995E-02  -1.93002569E-09
  -2.32500006E-02  -2.08059547E-09
  -2.31999997E-02  -2.23411534E-09
  -2.31500007E-02  -2.38912778E-09
  -2.30999999E-02  -2.54446131E-09
  -2.30500009E-02  -2.69972866E-09
  -2.30000000E-02  -2.85548607E-09
  -2.29499992E-02  -3.01296610E-09
  -2.29000002E-02  -3.17350479E-09
  -2.28499994E-02  -3.33790950E-09
  -2.28000004E-02  -3.50606588E-09
  -2.27499995E-02  -3.67695674E-09
  -2.27000006E-02  -3.84909837E-09
  -2.26499997E-02  -4.02120648E-09
  -2.26000007E-02  -4.19278701E-09
  -2.25499999E-02  -4.36439107E-09
  -2.25000009E-02  -4.53740956E-09
  -2.24500000E-02  -4.71348338E-09
  -2.23999992E-02  -4.89378937E-09
  -2.23500002E-02  -5.07852826E-09
  -2.22999994E-02  -5.26684696E-09
  -2.22500004E-02  -5.45724932E-09
  -2.21999995E-02  -5.64830893E-09
  -2.21500006E-02  -5.83936410E-09
  -2.20999997E-02  -6.03088468E-09
  -2.20500007E-02  -6.22433749E-09
  -2.19999999E-02  -6.42160902E-09
  -2.19500009E-02  -6.62423716E-09
  -2.19000001E-02  -6.83279522E-09
  -2.18499992E-02  -7.04671121E-09
  -2.18000002E-02  -7.26461336E-09
  -2.17499994E-02  -7.48505791E-09
  -2.17000004E-02  -7.70730679E-09
  -2.16499995E-02  -7.93179922E-09
  -2.16000006E-02  -8.16010015E-09
  -2.15499997E-02  -8.39434033E-09
  -2.15000007E-02  -8.63638849E-09
  -2.14499999E-02  -8.88713902E-09
  -2.14000009E-02  -9.14624376E-09
  -2.13500001E-02  -9.41240152E-09
  -2.12999992E-02  -9.68408909E-09
  -2.12500002E-02  -9.96040583E-09
  -2.11999994E-02  -1.02416502E-08
  -2.11500004E-02  -1.05293720E-08
  -2.10999995E-02  -1.08258531E-08
  -2.10500006E-02  -1.11332543E-08
  -2.09999997E-02  -1.14528147E-08
  -2.09500007E-02  -1.17844712E-08
  -2.08999999E-02  -1.21270780E-08
  -2.08500009E-02  -1.24791235E-08
  -2.08000001E-02  -1.28396449E-08
  -2.07499992E-02  -1.32088891E-08
  -2.07000002E-02  -1.35884424E-08
  -2.06499994E-02  -1.39807614E-08
  -2.06000004E-02  -1.43883048E-08
  -2.05499995E-02  -1.48126436E-08
  -2.05000006E-02  -1.52539901E-08
  -2.04499997E-02  -1.57113202E-08
  -2.04000007E-02  -1.61830798E-08
  -2.03499999E-02  -1.66681460E-08
  -2.03000009E-02  -1.71666077E-08
  -2.02500001E-02  -1.76800015E-08
  -2.01999992E-02  -1.82109137E-08
  -2.01500002E-02  -1.87621154E-08
  -2.00999994E-02  -1.93356158E-08
  -2.00500004E-02  -1.99320542E-08
  -1.99999996E-02  -2.05507593E-08
  -1.99500006E-02  -2.11903721E-08
  -1.98999997E-02  -2.18498251E-08
  -1.98500007E-02  -2.25291608E-08
  -1.97999999E-02  -2.32299140E-08
  -1.97500009E-02  -2.39547706E-08
  -1.97000001E-02  -2.47067327E-08
  -1.96499992E-02  -2.54881307E-08
  -1.96000002E-02  -2.62999400E-08
  -1.95499994E-02  -2.71417235E-08
  -1.95000004E-02  -2.80122450E-08
  -1.94499996E-02  -2.89104189E-08
  -1.94000006E-02  -2.98362401E-08
  -1.93499997E-02  -3.07912096E-08
  -1.93000007E-02  -3.17780788E-08
  -1.92499999E-02  -3.28000844E-08
  -1.92000009E-02  -3.38598873E-08
  -1.91500001E-02  -3.49588305E-08
  -1.90999992E-02  -3.60967825E-08
  -1.90500002E-02  -3.72726774E-08
  -1.89999994E-02  -3.84854673E-08
  -1.89500004E-02  -3.97350988E-08
  -1.88999996E-02  -4.10230321E-08
  -1.88500006E-02  -4.23521094E-08
  -1.87999997E-02  -4.37257732E-08
  -1.87500007E-02  -4.51470150E-08
  -1.86999999E-02  -4.66175401E-08
  -1.86500009E-02  -4.81375082E-08
  -1.86000001E-02  -4.97060029E-08
  -1.85499992E-02  -5.13219582E-08
  -1.85000002E-02  -5.29851825E-08
  -1.84499994E-02  -5.46969616E-08
  -1.84000004E-02  -5.64600384E-08
  -1.83499996E-02  -5.82778803E-08
  -1.83000006E-02  -6.01536669E-08
  -1.82499997E-02  -6.20893914E-08
  -1.82000007E-02  -6.40854338E-08
  -1.81499999E-02  -6.61410482E-08
  -1.81000009E-02  -6.82551757E-08
  -1.80500001E-02  -7.04275465E-08
  -1.79999992E-02  -7.26592830E-08
  -1.79500002E-02  -7.49530642E-08
  -1.78999994E-02  -7.73124214E-08
  -1.78500004E-02  -7.97407154E-08
  -1.77999996E-02  -8.22401915E-08
  -1.77500006E-02  -8.48115178E-08
  -1.76999997E-02  -8.74540547E-08
  -1.76500008E-02  -9.01667150E-08
  -1.75999999E-02  -9.29490014E-08
  -1.75500009E-02  -9.58017878E-08
  -1.75000001E-02  -9.87274973E-08
  -1.74499992E-02  -1.01729484E-07
  -1.74000002E-02  -1.04811065E-07
  -1.73499994E-02  -1.07974508E-07
  -1.73000004E-02  -1.11220523E-07
  -1.72499996E-02  -1.14548577E-07
  -1.72000006E-02  -1.17957590E-07
  -1.71499997E-02  -1.21446988E-07
  -1.71000008E-02  -1.25017550E-07
  -1.70499999E-02  -1.28671687E-07
  -1.70000009E-02  -1.32412964E-07
  -1.69500001E-02  -1.36244992E-07
  -1.68999992E-02  -1.40170471E-07
  -1.68500002E-02  -1.44190579E-07
  -1.67999994E-02  -1.48304935E-07
  -1.67500004E-02  -1.52512570E-07
  -1.66999996E-02  -1.56812831E-07
  -1.66500006E-02  -1.61206486E-07
  -1.65999997E-02  -1.65695781E-07
  -1.65500008E-02  -1.70284196E-07
  -1.64999999E-02  -1.74975654E-07
  -1.64500009E-02  -1.79773323E-07
  -1.64000001E-02  -1.84678910E-07
  -1.63499992E-02  -1.89692642E-07
  -1.63000003E-02  -1.94814007E-07
  -1.62499994E-02  -2.00042848E-07
  -1.62000004E-02  -2.05380303E-07
  -1.61499996E-02  -2.10829256E-07
  -1.61000006E-02  -2.16393786E-07
  -1.60499997E-02  -2.22078498E-07
  -1.60000008E-02  -2.27887341E-07
  -1.59499999E-02  -2.33823101E-07
  -1.59000009E-02  -2.39887044E-07
  -1.58500001E-02  -2.46079594E-07
  -1.57999992E-02  -2.52401122E-07
  -1.57500003E-02  -2.58853419E-07
  -1.56999994E-02  -2.65440178E-07
  -1.56500004E-02  -2.72166545E-07
  -1.55999996E-02  -2.79038147E-07
  -1.55499997E-02  -2.86060299E-07
  -1.54999997E-02  -2.93237036E-07
  -1.54499998E-02  -3.00571031E-07
  -1.53999999E-02  -3.08064045E-07
  -1.53500000E-02  -3.15718069E-07
  -1.53000001E-02  -3.23535971E-07
  -1.52500002E-02  -3.31522557E-07
  -1.52000003E-02  -3.39684533E-07
  -1.51500003E-02  -3.48029289E-07
  -1.51000004E-02  -3.56563817E-07
  -1.50499996E-02  -3.65293999E-07
  -1.49999997E-02  -3.74224243E-07
  -1.49499997E-02  -3.83357900E-07
  -1.48999998E-02  -3.92698439E-07
  -1.48499999E-02  -4.02250407E-07
  -1.48000000E-02  -4.12020057E-07
  -1.47500001E-02  -4.22015432E-07
  -1.47000002E-02  -4.32245798E-07
  -1.46500003E-02  -4.42720108E-07
  -1.46000003E-02  -4.53446347E-07
  -1.45500004E-02  -4.64430912E-07
  -1.44999996E-02  -4.75678974E-07
  -1.44499997E-02  -4.87195678E-07
  -1.43999998E-02  -4.98987220E-07
  -1.43499998E-02  -5.11061444E-07
  -1.42999999E-02  -5.23428071E-07
  -1.42500000E-02  -5.36098014E-07
  -1.42000001E-02  -5.49082301E-07
  -1.41500002E-02  -5.62391051E-07
  -1.41000003E-02  -5.76032619E-07
  -1.40500003E-02  -5.90014110E-07
  -1.40000004E-02  -6.04342574E-07
  -1.39499996E-02  -6.19025855E-07
  -1.38999997E-02  -6.34073444E-07
  -1.38499998E-02  -6.49496940E-07
  -1.37999998E-02  -6.65308846E-07
  -1.37499999E-02  -6.81521783E-07
  -1.37000000E-02  -6.98147574E-07
  -1.36500001E-02  -7.15196450E-07
  -1.36000002E-02  -7.32677449E-07
  -1.35500003E-02  -7.50598872E-07
  -1.35000004E-02  -7.68969585E-07
  -1.34500004E-02  -7.87800218E-07
  -1.33999996E-02  -8.07103959E-07
  -1.33499997E-02  -8.26895302E-07
  -1.32999998E-02  -8.47188687E-07
  -1.32499998E-02  -8.67997699E-07
  -1.31999999E-02  -8.89334217E-07
  -1.31500000E-02  -9.11208531E-07
  -1.31000001E-02  -9.33630474E-07
  -1.30500002E-02  -9.56610620E-07
  -1.30000003E-02  -9.80160621E-07
  -1.29500004E-02  -1.00429418E-06
  -1.29000004E-02  -1.02902652E-06
  -1.28499996E-02  -1.05437368E-06
  -1.27999997E-02  -1.08035067E-06
  -1.27499998E-02  -1.10697067E-06
  -1.26999998E-02  -1.13424494E-06
  -1.26499999E-02  -1.16218393E-06
  -1.26000000E-02  -1.19079914E-06
  -1.25500001E-02  -1.22010306E-06
  -1.25000002E-02  -1.25011013E-06
  -1.24500003E-02  -1.28083605E-06
  -1.24000004E-02  -1.31229751E-06
  -1.23500004E-02  -1.34451091E-06
  -1.22999996E-02  -1.37749043E-06
  -1.22499997E-02  -1.41124895E-06
  -1.21999998E-02  -1.44579781E-06
  -1.21499998E-02  -1.48114930E-06
  -1.20999999E-02  -1.51731774E-06
  -1.20500000E-02  -1.55431974E-06
  -1.20000001E-02  -1.59217223E-06
  -1.19500002E-02  -1.63089260E-06
  -1.19000003E-02  -1.67049814E-06
  -1.18500004E-02  -1.71100419E-06
  -1.18000004E-02  -1.75242496E-06
  -1.17499996E-02  -1.79477206E-06
  -1.16999997E-02  -1.83805673E-06
  -1.16499998E-02  -1.88229137E-06
  -1.15999999E-02  -1.92749167E-06
  -1.15499999E-02  -1.97367558E-06
  -1.15000000E-02  -2.02086267E-06
  -1.14500001E-02  -2.06907112E-06
  -1.14000002E-02  -2.11831821E-06
  -1.13500003E-02  -2.16862009E-06
  -1.13000004E-02  -2.21999289E-06
  -1.12500004E-02  -2.27245232E-06
  -1.11999996E-02  -2.32601496E-06
  -1.11499997E-02  -2.38069879E-06
  -1.10999998E-02  -2.43652244E-06
  -1.10499999E-02  -2.49350705E-06
  -1.09999999E-02  -2.55167197E-06
  -1.09500000E-02  -2.61103469E-06
  -1.09000001E-02  -2.67160908E-06
  -1.08500002E-02  -2.73340743E-06
  -1.08000003E-02  -2.79644269E-06
  -1.07500004E-02  -2.86073123E-06
  -1.07000005E-02  -2.92629034E-06
  -1.06499996E-02  -2.99314047E-06
  -1.05999997E-02  -3.06130346E-06
  -1.05499998E-02  -3.13080182E-06
  -1.04999999E-02  -3.20165873E-06
  -1.04499999E-02  -3.27389648E-06
  -1.04000000E-02  -3.34753508E-06
  -1.03500001E-02  -3.42259295E-06
  -1.03000002E-02  -3.49908964E-06
  -1.02500003E-02  -3.57704744E-06
  -1.02000004E-02  -3.65649066E-06
  -1.01500005E-02  -3.73744297E-06
  -1.00999996E-02  -3.81992686E-06
  -1.00499997E-02  -3.90396235E-06
  -9.99999978E-03  -3.98957081E-06
  -9.94999986E-03  -4.07677044E-06
  -9.89999995E-03  -4.16557987E-06
  -9.85000003E-03  -4.25601547E-06
  -9.80000012E-03  -4.34809726E-06
  -9.75000020E-03  -4.44184934E-06
  -9.70000029E-03  -4.53729990E-06
  -9.65000037E-03  -4.63447532E-06
  -9.60000046E-03  -4.73339833E-06
  -9.54999961E-03  -4.83409212E-06
  -9.49999969E-03  -4.93658081E-06
  -9.44999978E-03  -5.04088894E-06
  -9.39999986E-03  -5.14704379E-06
  -9.34999995E-03  -5.25506903E-06
  -9.30000003E-03  -5.36499374E-06
  -9.25000012E-03  -5.47685022E-06
  -9.20000020E-03  -5.59067121E-06
  -9.15000029E-03  -5.70648945E-06
  -9.10000037E-03  -5.82433222E-06
  -9.05000046E-03  -5.94422272E-06
  -8.99999961E-03  -6.06618687E-06
  -8.94999970E-03  -6.19025150E-06
  -8.89999978E-03  -6.31644525E-06
  -8.84999987E-03  -6.44479542E-06
  -8.79999995E-03  -6.57533155E-06
  -8.75000004E-03  -6.70808276E-06
  -8.70000012E-03  -6.84307815E-06
  -8.65000021E-03  -6.98035183E-06
  -8.60000029E-03  -7.11993289E-06
  -8.55000038E-03  -7.26184862E-06
  -8.50000046E-03  -7.40612586E-06
  -8.44999962E-03  -7.55279552E-06
  -8.39999970E-03  -7.70189672E-06
  -8.34999979E-03  -7.85347220E-06
  -8.29999987E-03  -8.00755879E-06
  -8.24999996E-03  -8.16419470E-06
  -8.20000004E-03  -8.32341266E-06
  -8.15000013E-03  -8.48524815E-06
  -8.10000021E-03  -8.64974118E-06
  -8.05000030E-03  -8.81693177E-06
  -8.00000038E-03  -8.98685175E-06
  -7.95000046E-03  -9.15953751E-06
  -7.89999962E-03  -9.33503088E-06
  -7.84999970E-03  -9.51338006E-06
  -7.79999979E-03  -9.69462963E-06
  -7.74999987E-03  -9.87881504E-06
  -7.69999996E-03  -1.00659709E-05
  -7.65000004E-03  -1.02561353E-05
  -7.60000013E-03  -1.04493483E-05
  -7.55000021E-03  -1.06456564E-05
  -7.49999983E-03  -1.08451031E-05
  -7.44999992E-03  -1.10477295E-05
  -7.40000000E-03  -1.12535781E-05
  -7.35000009E-03  -1.14626955E-05
  -7.30000017E-03  -1.16751362E-05
  -7.24999979E-03  -1.18909484E-05
  -7.19999988E-03  -1.21101675E-05
  -7.14999996E-03  -1.23328346E-05
  -7.10000005E-03  -1.25589959E-05
  -7.05000013E-03  -1.27887133E-05
  -7.00000022E-03  -1.30220433E-05
  -6.94999984E-03  -1.32590385E-05
  -6.89999992E-03  -1.34997445E-05
  -6.85000001E-03  -1.37442139E-05
  -6.80000009E-03  -1.39925050E-05
  -6.75000018E-03  -1.42446806E-05
  -6.69999979E-03  -1.45007880E-05
  -6.64999988E-03  -1.47608744E-05
  -6.59999996E-03  -1.50249871E-05
  -6.55000005E-03  -1.52931916E-05
  -6.50000013E-03  -1.55655543E-05
  -6.45000022E-03  -1.58421390E-05
  -6.39999984E-03  -1.61229927E-05
  -6.34999992E-03  -1.64081594E-05
  -6.30000001E-03  -1.66976897E-05
  -6.25000009E-03  -1.69916511E-05
  -6.20000018E-03  -1.72901127E-05
  -6.14999980E-03  -1.75931309E-05
  -6.09999988E-03  -1.79007493E-05
  -6.04999997E-03  -1.82130334E-05
  -6.00000005E-03  -1.85300578E-05
  -5.95000014E-03  -1.88518934E-05
  -5.90000022E-03  -1.91786039E-05
  -5.84999984E-03  -1.95102366E-05
  -5.79999993E-03  -1.98468497E-05
  -5.75000001E-03  -2.01885159E-05
  -5.70000010E-03  -2.05353172E-05
  -5.65000018E-03  -2.08873207E-05
  -5.59999980E-03  -2.12445939E-05
  -5.54999989E-03  -2.16072040E-05
  -5.49999997E-03  -2.19752201E-05
  -5.45000006E-03  -2.23487168E-05
  -5.40000014E-03  -2.27277560E-05
  -5.35000023E-03  -2.31123959E-05
  -5.29999984E-03  -2.35027019E-05
  -5.24999993E-03  -2.38987413E-05
  -5.20000001E-03  -2.43005852E-05
  -5.15000010E-03  -2.47083135E-05
  -5.10000018E-03  -2.51219935E-05
  -5.04999980E-03  -2.55416890E-05
  -4.99999989E-03  -2.59674580E-05
  -4.94999997E-03  -2.63993679E-05
  -4.90000006E-03  -2.68374879E-05
  -4.85000014E-03  -2.72818961E-05
  -4.80000023E-03  -2.77326762E-05
  -4.74999985E-03  -2.81898956E-05
  -4.69999993E-03  -2.86536288E-05
  -4.65000002E-03  -2.91239667E-05
  -4.60000010E-03  -2.96009912E-05
  -4.55000019E-03  -3.00847787E-05
  -4.49999981E-03  -3.05753892E-05
  -4.44999989E-03  -3.10728901E-05
  -4.39999998E-03  -3.15773577E-05
  -4.35000006E-03  -3.20888721E-05
  -4.30000015E-03  -3.26075096E-05
  -4.25000023E-03  -3.31333576E-05
  -4.19999985E-03  -3.36664707E-05
  -4.14999994E-03  -3.42069397E-05
  -4.10000002E-03  -3.47548194E-05
  -4.05000011E-03  -3.53101859E-05
  -4.00000019E-03  -3.58731049E-05
  -3.94999981E-03  -3.64436382E-05
  -3.89999989E-03  -3.70218731E-05
  -3.84999998E-03  -3.76078860E-05
  -3.80000006E-03  -3.82017715E-05
  -3.74999992E-03  -3.88036169E-05
  -3.70000000E-03  -3.94134804E-05
  -3.65000009E-03  -4.00314384E-05
  -3.59999994E-03  -4.06575818E-05
  -3.55000002E-03  -4.12919762E-05
  -3.50000011E-03  -4.19346834E-05
  -3.44999996E-03  -4.25857943E-05
  -3.40000005E-03  -4.32453962E-05
  -3.34999990E-03  -4.39135802E-05
  -3.29999998E-03  -4.45904298E-05
  -3.25000007E-03  -4.52760214E-05
  -3.19999992E-03  -4.59704352E-05
  -3.15000000E-03  -4.66737220E-05
  -3.10000009E-03  -4.73859691E-05
  -3.04999994E-03  -4.81072457E-05
  -3.00000003E-03  -4.88376318E-05
  -2.95000011E-03  -4.95772110E-05
  -2.89999996E-03  -5.03260781E-05
  -2.85000005E-03  -5.10843056E-05
  -2.79999990E-03  -5.18519737E-05
  -2.74999999E-03  -5.26291697E-05
  -2.70000007E-03  -5.34159408E-05
  -2.64999992E-03  -5.42123562E-05
  -2.60000001E-03  -5.50184959E-05
  -2.55000009E-03  -5.58344327E-05
  -2.49999994E-03  -5.66602575E-05
  -2.45000003E-03  -5.74960795E-05
  -2.40000011E-03  -5.83419642E-05
  -2.34999997E-03  -5.91980061E-05
  -2.30000005E-03  -6.00642998E-05
  -2.24999990E-03  -6.09409180E-05
  -2.19999999E-03  -6.18279155E-05
  -2.15000007E-03  -6.27253612E-05
  -2.09999993E-03  -6.36333425E-05
  -2.05000001E-03  -6.45519540E-05
  -2.00000009E-03  -6.54812902E-05
  -1.94999995E-03  -6.64214458E-05
  -1.90000003E-03  -6.73724935E-05
  -1.85000000E-03  -6.83344915E-05
  -1.79999997E-03  -6.93075126E-05
  -1.75000005E-03  -7.02916150E-05
  -1.70000002E-03  -7.12868859E-05
  -1.64999999E-03  -7.22933692E-05
  -1.59999996E-03  -7.33111592E-05
  -1.55000004E-03  -7.43403652E-05
  -1.50000001E-03  -7.53810746E-05
  -1.44999998E-03  -7.64333599E-05
  -1.39999995E-03  -7.74973159E-05
  -1.35000004E-03  -7.85730008E-05
  -1.30000000E-03  -7.96604872E-05
  -1.24999997E-03  -8.07598408E-05
  -1.20000006E-03  -8.18711196E-05
  -1.15000003E-03  -8.29944183E-05
  -1.09999999E-03  -8.41298315E-05
  -1.04999996E-03  -8.52774683E-05
  -1.00000005E-03  -8.64374233E-05
  -9.50000016E-04  -8.76097183E-05
  -8.99999985E-04  -8.87944334E-05
  -8.50000011E-04  -8.99916340E-05
  -7.99999980E-04  -9.12013857E-05
  -7.50000007E-04  -9.24237393E-05
  -6.99999975E-04  -9.36587530E-05
  -6.50000002E-04  -9.49065216E-05
  -6.00000028E-04  -9.61671540E-05
  -5.49999997E-04  -9.74407230E-05
  -5.00000024E-04  -9.87273015E-05
  -4.49999992E-04  -1.00026897E-04
  -3.99999990E-04  -1.01339581E-04
  -3.49999988E-04  -1.02665443E-04
  -3.00000014E-04  -1.04004517E-04
  -2.50000012E-04  -1.05356849E-04
  -1.99999995E-04  -1.06722509E-04
  -1.50000007E-04  -1.08101580E-04
  -9.99999975E-05  -1.09494169E-04
  -4.99999987E-05  -1.10900335E-04
   0.00000000      -1.12320107E-04
   4.99999987E-05  -1.13753485E-04
   9.99999975E-05  -1.15200550E-04
   1.50000007E-04  -1.16661329E-04
   1.99999995E-04  -1.18135911E-04
   2.50000012E-04  -1.19624354E-04
   3.00000014E-04  -1.21126723E-04
   3.49999988E-04  -1.22643105E-04
   3.99999990E-04  -1.24173544E-04
   4.49999992E-04  -1.25718041E-04
   5.00000024E-04  -1.27276609E-04
   5.49999997E-04  -1.28849249E-04
   6.00000028E-04  -1.30436005E-04
   6.50000002E-04  -1.32037007E-04
   6.99999975E-04  -1.33652182E-04
   7.50000007E-04  -1.35281574E-04
   7.99999980E-04  -1.36925257E-04
   8.50000011E-04  -1.38583287E-04
   8.99999985E-04  -1.40255695E-04
   9.50000016E-04  -1.41942466E-04
   1.00000005E-03  -1.43643527E-04
   1.04999996E-03  -1.45358877E-04
   1.09999999E-03  -1.47088591E-04
   1.15000003E-03  -1.48832725E-04
   1.20000006E-03  -1.50591324E-04
   1.24999997E-03  -1.52364388E-04
   1.30000000E-03  -1.54151887E-04
   1.35000004E-03  -1.55953836E-04
   1.39999995E-03  -1.57770250E-04
   1.44999998E-03  -1.59601070E-04
   1.50000001E-03  -1.61446238E-04
   1.55000004E-03  -1.63305696E-04
   1.59999996E-03  -1.65179459E-04
   1.64999999E-03  -1.67067585E-04
   1.70000002E-03  -1.68970073E-04
   1.75000005E-03  -1.70886851E-04
   1.79999997E-03  -1.72817847E-04
   1.85000000E-03  -1.74762987E-04
   1.90000003E-03  -1.76722242E-04
   1.94999995E-03  -1.78695554E-04
   2.00000009E-03  -1.80682866E-04
   2.05000001E-03  -1.82684045E-04
   2.09999993E-03  -1.84699049E-04
   2.15000007E-03  -1.86727877E-04
   2.19999999E-03  -1.88770515E-04
   2.24999990E-03  -1.90826933E-04
   2.30000005E-03  -1.92896929E-04
   2.34999997E-03  -1.94980283E-04
   2.40000011E-03  -1.97076937E-04
   2.45000003E-03  -1.99186907E-04
   2.49999994E-03  -2.01310148E-04
   2.55000009E-03  -2.03446398E-04
   2.60000001E-03  -2.05595512E-04
   2.64999992E-03  -2.07757403E-04
   2.70000007E-03  -2.09931997E-04
   2.74999999E-03  -2.12119237E-04
   2.79999990E-03  -2.14318876E-04