  -3.99999991E-02   0.00000000    
  -3.99499983E-02   0.00000000    
  -3.99000011E-02   0.00000000    
  -3.98500003E-02   0.00000000    
  -3.97999994E-02   3.44253773E-18
  -3.97499986E-02   2.68205687E-17
  -3.97000015E-02   1.06262070E-16
  -3.96500006E-02   2.90821113E-16
  -3.95999998E-02   6.35972930E-16
  -3.95499989E-02   1.22354312E-15
  -3.95000018E-02   2.19617792E-15
  -3.94500010E-02   3.74548186E-15
  -3.94000001E-02   6.02370064E-15
  -3.93499993E-02   9.05656352E-15
  -3.92999984E-02   1.27765391E-14
  -3.92500013E-02   1.71671200E-14
  -3.92000005E-02   2.23389202E-14
  -3.91499996E-02   2.83999746E-14
  -3.90999988E-02   3.52592948E-14
  -3.90500017E-02   4.26846838E-14
  -3.90000008E-02   5.07109342E-14
  -3.89500000E-02   6.00337651E-14
  -3.88999991E-02   7.18796902E-14
  -3.88499983E-02   8.72846581E-14
  -3.88000011E-02   1.06311939E-13
  -3.87500003E-02   1.27810712E-13
  -3.86999995E-02   1.49786325E-13
  -3.86499986E-02   1.69992506E-13
  -3.86000015E-02   1.86522333E-13
  -3.85500006E-02   1.98601186E-13
  -3.84999998E-02   2.07612952E-13
  -3.84499989E-02   2.17534554E-13
  -3.84000018E-02   2.33522050E-13
  -3.83500010E-02   2.58446964E-13
  -3.83000001E-02   2.89198136E-13
  -3.82499993E-02   3.15558398E-13
  -3.81999984E-02   3.23109188E-13
  -3.81500013E-02   2.98883341E-13
  -3.81000005E-02   2.36757689E-13
  -3.80499996E-02   1.40121570E-13
  -3.79999988E-02   2.11022572E-14
  -3.79500017E-02  -1.03265879E-13
  -3.79000008E-02  -2.17347828E-13
  -3.78500000E-02  -3.14379301E-13
  -3.77999991E-02  -4.01980912E-13
  -3.77499983E-02  -5.01580494E-13
  -3.77000012E-02  -6.39908103E-13
  -3.76500003E-02  -8.35947902E-13
  -3.75999995E-02  -1.09083001E-12
  -3.75499986E-02  -1.38707286E-12
  -3.75000015E-02  -1.69771998E-12
  -3.74500006E-02  -2.00003577E-12
  -3.73999998E-02  -2.28685538E-12
  -3.73499990E-02  -2.57130536E-12
  -3.73000018E-02  -2.88383943E-12
  -3.72500010E-02  -3.26208982E-12
  -3.72000001E-02  -3.73525039E-12
  -3.71499993E-02  -4.30761459E-12
  -3.70999984E-02  -4.94898870E-12
  -3.70500013E-02  -5.59868818E-12
  -3.70000005E-02  -6.18302024E-12
  -3.69499996E-02  -6.63795408E-12
  -3.68999988E-02  -6.92605738E-12
  -3.68500017E-02  -7.04207916E-12
  -3.68000008E-02  -7.00948587E-12
  -3.67500000E-02  -6.87308023E-12
  -3.66999991E-02  -6.68952914E-12
  -3.66499983E-02  -6.51399811E-12
  -3.66000012E-02  -6.38265612E-12
  -3.65500003E-02  -6.29670231E-12
  -3.64999995E-02  -6.21690199E-12
  -3.64499986E-02  -6.07391264E-12
  -3.64000015E-02  -5.79169048E-12
  -3.63500006E-02  -5.31541911E-12
  -3.62999998E-02  -4.63414420E-12
  -3.62499990E-02  -3.78861352E-12
  -3.62000018E-02  -2.85521585E-12
  -3.61500010E-02  -1.90142672E-12
  -3.61000001E-02  -9.22588395E-13
  -3.60499993E-02   2.10127366E-13
  -3.59999985E-02   1.75010202E-12
  -3.59500013E-02   3.99770625E-12
  -3.59000005E-02   7.15837676E-12
  -3.58499996E-02   1.11933700E-11
  -3.57999988E-02   1.57417170E-11
  -3.57500017E-02   2.01736336E-11
  -3.57000008E-02   2.37838031E-11
  -3.56500000E-02   2.60683263E-11
  -3.55999991E-02   2.69770994E-11
  -3.55499983E-02   2.70185159E-11
  -3.55000012E-02   2.71313926E-11
  -3.54500003E-02   2.83307162E-11
  -3.53999995E-02   3.12495446E-11
  -3.53499986E-02   3.57827205E-11
  -3.53000015E-02   4.10320770E-11
  -3.52500007E-02   4.56364321E-11
  -3.51999998E-02   4.83852264E-11
  -3.51499990E-02   4.88508747E-11
  -3.51000018E-02   4.77218438E-11
  -3.50500010E-02   4.66176854E-11
  -3.50000001E-02   4.73899496E-11
  -3.49499993E-02   5.11688643E-11
  -3.48999985E-02   5.75871399E-11
  -3.48500013E-02   6.46059942E-11
  -3.48000005E-02   6.91494570E-11
  -3.47499996E-02   6.83840762E-11
  -3.46999988E-02   6.11240919E-11
  -3.46500017E-02   4.86832727E-11
  -3.46000008E-02   3.46518161E-11
  -3.45500000E-02   2.35319021E-11
  -3.44999991E-02   1.87260537E-11
  -3.44499983E-02   2.07653842E-11
  -3.44000012E-02   2.66769488E-11
  -3.43500003E-02   3.09619899E-11
  -3.42999995E-02   2.79351334E-11
  -3.42499986E-02   1.44787134E-11
  -3.42000015E-02  -8.07378209E-12
  -3.41500007E-02  -3.39752219E-11
  -3.40999998E-02  -5.52812796E-11
  -3.40499990E-02  -6.54704832E-11
  -3.40000018E-02  -6.28849542E-11
  -3.39500010E-02  -5.22696608E-11
  -3.39000002E-02  -4.33866137E-11
  -3.38499993E-02  -4.69808220E-11
  -3.37999985E-02  -6.97108482E-11
  -3.37500013E-02  -1.10368277E-10
  -3.37000005E-02  -1.59378385E-10
  -3.36499996E-02  -2.02234965E-10
  -3.35999988E-02  -2.25703650E-10
  -3.35500017E-02  -2.24153335E-10
  -3.35000008E-02  -2.02985476E-10
  -3.34500000E-02  -1.77163839E-10
  -3.33999991E-02  -1.64975811E-10
  -3.33499983E-02  -1.79484608E-10
  -3.33000012E-02  -2.21544505E-10
  -3.32500003E-02  -2.77945139E-10
  -3.31999995E-02  -3.26171645E-10
  -3.31499986E-02  -3.44222345E-10
  -3.31000015E-02  -3.21303234E-10
  -3.30500007E-02  -2.64339411E-10
  -3.29999998E-02  -1.96698477E-10
  -3.29499990E-02  -1.48875204E-10
  -3.29000019E-02  -1.44724954E-10
  -3.28500010E-02  -1.89350841E-10
  -3.28000002E-02  -2.64619771E-10
  -3.27499993E-02  -3.35263484E-10
  -3.26999985E-02  -3.63756580E-10
  -3.26500013E-02  -3.27767036E-10
  -3.26000005E-02  -2.32094510E-10
  -3.25499997E-02  -1.08842470E-10
  -3.24999988E-02  -4.59234864E-12
  -3.24500017E-02   4.05503409E-11
  -3.24000008E-02   1.28038812E-11
  -3.23500000E-02  -6.61351668E-11
  -3.22999991E-02  -1.46027634E-10
  -3.22499983E-02  -1.69349285E-10
  -3.22000012E-02  -9.81090764E-11
  -3.21500003E-02   6.60176080E-11
  -3.20999995E-02   2.78464335E-10
  -3.20499986E-02   4.68578620E-10
  -3.20000015E-02   5.70353487E-10
  -3.19500007E-02   5.53775026E-10
  -3.18999998E-02   4.41975484E-10
  -3.18499990E-02   3.04817838E-10
  -3.18000019E-02   2.29890107E-10
  -3.17500010E-02   2.82696616E-10
  -3.17000002E-02   4.73937556E-10
  -3.16499993E-02   7.49913021E-10
  -3.15999985E-02   1.01249131E-09
  -3.15500014E-02   1.16163557E-09
  -3.15000005E-02   1.14223586E-09
  -3.14499997E-02   9.73456871E-10
  -3.13999988E-02   7.45308759E-10
  -3.13500017E-02   5.81407644E-10
  -3.13000008E-02   5.82815352E-10
  -3.12500000E-02   7.77997278E-10
  -3.11999992E-02   1.10304776E-09
  -3.11500002E-02   1.42391754E-09
  -3.10999993E-02   1.59348168E-09
  -3.10500003E-02   1.51930502E-09
  -3.09999995E-02   1.21105925E-09
  -3.09500005E-02   7.83771326E-10
  -3.08999997E-02   4.12072321E-10
  -3.08500007E-02   2.53253141E-10
  -3.07999998E-02   3.72877146E-10
  -3.07500008E-02   7.08002101E-10
  -3.07000000E-02   1.08791920E-09
  -3.06499992E-02   1.30675437E-09
  -3.06000002E-02   1.21753507E-09
  -3.05499993E-02   8.05120637E-10
  -3.05000003E-02   2.02333497E-10
  -3.04499995E-02  -3.62198133E-10
  -3.04000005E-02  -6.64711730E-10
  -3.03499997E-02  -5.91656280E-10
  -3.03000007E-02  -2.00725520E-10
  -3.02499998E-02   2.93967156E-10
  -3.02000009E-02   6.10750617E-10
  -3.01500000E-02   5.26792499E-10
  -3.00999992E-02  -1.44248849E-11
  -3.00500002E-02  -8.65870542E-10
  -2.99999993E-02  -1.73184589E-09
  -2.99500003E-02  -2.29527286E-09
  -2.98999995E-02  -2.36266584E-09
  -2.98500005E-02  -1.96045580E-09
  -2.97999997E-02  -1.33487266E-09
  -2.97500007E-02  -8.49630033E-10
  -2.96999998E-02  -8.22902246E-10
  -2.96500009E-02  -1.37578571E-09
  -2.96000000E-02  -2.36337772E-09
  -2.95499992E-02  -3.42541284E-09
  -2.95000002E-02  -4.13999057E-09
  -2.94499993E-02  -4.21505542E-09
  -2.94000003E-02  -3.63092334E-09
  -2.93499995E-02  -2.66489009E-09
  -2.93000005E-02  -1.77970860E-09
  -2.92499997E-02  -1.41987322E-09
  -2.92000007E-02  -1.80488602E-09
  -2.91499998E-02  -2.81505463E-09
  -2.91000009E-02  -4.02775013E-09
  -2.90500000E-02  -4.89551244E-09
  -2.89999992E-02  -4.99130337E-09
  -2.89500002E-02  -4.21125268E-09
  -2.88999993E-02  -2.83899149E-09
  -2.88500004E-02  -1.43460333E-09
  -2.87999995E-02  -5.90404448E-10
  -2.87500005E-02  -6.59363120E-10
  -2.86999997E-02  -1.58008029E-09
  -2.86500007E-02  -2.88401680E-09
  -2.85999998E-02  -3.89089028E-09
  -2.85500009E-02  -4.01159461E-09
  -2.85000000E-02  -3.02442449E-09
  -2.84499992E-02  -1.19608712E-09
  -2.84000002E-02   8.15873591E-10
  -2.83499993E-02   2.24497154E-09
  -2.83000004E-02   2.56133315E-09
  -2.82499995E-02   1.72523307E-09
  -2.82000005E-02   2.27850946E-10
  -2.81499997E-02  -1.10927389E-09
  -2.81000007E-02  -1.49524426E-09
  -2.80499998E-02  -5.33134870E-10
  -2.80000009E-02   1.58078539E-09
  -2.79500000E-02   4.12062562E-09
  -2.78999992E-02   6.13975137E-09
  -2.78500002E-02   6.89413238E-09
  -2.77999993E-02   6.19118401E-09
  -2.77500004E-02   4.50100668E-09
  -2.76999995E-02   2.76883294E-09
  -2.76500005E-02   2.00170724E-09
  -2.75999997E-02   2.80874657E-09
  -2.75500007E-02   5.10319609E-09
  -2.74999999E-02   8.10932299E-09
  -2.74500009E-02   1.06838121E-08
  -2.74000000E-02   1.18181340E-08
  -2.73499992E-02   1.11002816E-08
  -2.73000002E-02   8.92382701E-09
  -2.72499993E-02   6.33890096E-09
  -2.72000004E-02   4.59878224E-09
  -2.71499995E-02   4.59661331E-09
  -2.71000005E-02   6.44444809E-09
  -2.70499997E-02   9.39168565E-09
  -2.70000007E-02   1.21328689E-08
  -2.69499999E-02   1.33796121E-08
  -2.69000009E-02   1.24466117E-08
  -2.68500000E-02   9.58593471E-09
  -2.67999992E-02   5.90814997E-09
  -2.67500002E-02   2.91081625E-09
  -2.66999993E-02   1.81373816E-09
  -2.66500004E-02   2.99546765E-09
  -2.65999995E-02   5.79045656E-09
  -2.65500005E-02   8.75192807E-09
  -2.64999997E-02   1.02780850E-08
  -2.64500007E-02   9.33100353E-09
  -2.63999999E-02   5.92627947E-09
  -2.63500009E-02   1.16390408E-09
  -2.63000000E-02  -3.22936744E-09
  -2.62499992E-02  -5.65604452E-09
  -2.62000002E-02  -5.37088551E-09
  -2.61499994E-02  -2.84314927E-09
  -2.61000004E-02   4.17311158E-10
  -2.60499995E-02   2.50959920E-09
  -2.60000005E-02   1.98940642E-09
  -2.59499997E-02  -1.46142065E-09
  -2.59000007E-02  -6.85127111E-09
  -2.58499999E-02  -1.22798296E-08
  -2.58000009E-02  -1.57619233E-08
  -2.57500000E-02  -1.61168803E-08
  -2.56999992E-02  -1.35247262E-08
  -2.56500002E-02  -9.48815781E-09
  -2.55999994E-02  -6.19844531E-09
  -2.55500004E-02  -5.57154234E-09
  -2.54999995E-02  -8.37724823E-09
  -2.54500005E-02  -1.38555372E-08
  -2.53999997E-02  -2.00075529E-08
  -2.53500007E-02  -2.44512748E-08
  -2.52999999E-02  -2.54750709E-08
  -2.52500009E-02  -2.28222952E-08
  -2.52000000E-02  -1.78466930E-08
  -2.51499992E-02  -1.29498927E-08
  -2.51000002E-02  -1.05317648E-08
  -2.50499994E-02  -1.19098393E-08
  -2.50000004E-02  -1.66913594E-08
  -2.49499995E-02  -2.28929711E-08
  -2.49000005E-02  -2.77769630E-08
  -2.48499997E-02  -2.90511224E-08
  -2.48000007E-02  -2.59061501E-08
  -2.47499999E-02  -1.94218508E-08
  -2.47000009E-02  -1.21414336E-08
  -2.46500000E-02  -6.97988822E-09
  -2.45999992E-02  -5.93499783E-09
  -2.45500002E-02  -9.17110299E-09
  -2.44999994E-02  -1.48957877E-08
  -2.44500004E-02  -2.01070502E-08
  -2.43999995E-02  -2.19023057E-08
  -2.43500005E-02  -1.87808133E-08
  -2.42999997E-02  -1.13575211E-08
  -2.42500007E-02  -2.15287055E-09
  -2.41999999E-02   5.47432277E-09
  -2.41500009E-02   8.79949003E-09
  -2.41000000E-02   6.96459557E-09
  -2.40499992E-02   1.41327716E-09
  -2.40000002E-02  -4.68827333E-09
  -2.39499994E-02  -7.81564946E-09
  -2.39000004E-02  -5.65014657E-09
  -2.38499995E-02   1.84904592E-09
  -2.38000005E-02   1.23564465E-08
  -2.37499997E-02   2.21431584E-08
  -2.37000007E-02   2.76919163E-08
  -2.36499999E-02   2.72642424E-08
  -2.36000009E-02   2.17200178E-08
  -2.35500000E-02   1.42029499E-08
  -2.34999992E-02   8.80032669E-09
  -2.34500002E-02   8.74469652E-09
  -2.33999994E-02   1.49457637E-08
  -2.33500004E-02   2.55156429E-08
  -2.32999995E-02   3.65273110E-08
  -2.32500006E-02   4.37037286E-08
  -2.31999997E-02   4.43116761E-08
  -2.31500007E-02   3.84223924E-08
  -2.30999999E-02   2.89593114E-08
  -2.30500009E-02   2.04766888E-08
  -2.30000000E-02   1.71759709E-08
  -2.29499992E-02   2.10213553E-08
  -2.29000002E-02   3.07965244E-08
  -2.28499994E-02   4.25492139E-08
  -2.28000004E-02   5.12657969E-08
  -2.27499995E-02   5.30657402E-08
  -2.27000006E-02   4.69541241E-08
  -2.26499997E-02   3.53398590E-08
  -2.26000007E-02   2.30535235E-08
  -2.25499999E-02   1.52601416E-08
  -2.25000009E-02   1.51656590E-08
  -2.24500000E-02   2.25326229E-08
  -2.23999992E-02   3.36895702E-08
  -2.23500002E-02   4.30725215E-08
  -2.22999994E-02   4.56549074E-08
  -2.22500004E-02   3.92085440E-08
  -2.21999995E-02   2.53829544E-08
  -2.21500006E-02   9.08809383E-09
  -2.20999997E-02  -3.59248387E-09
  -2.20500007E-02  -8.07057621E-09
  -2.19999999E-02  -3.33185812E-09
  -2.19500009E-02   7.51946683E-09
  -2.19000001E-02   1.85360012E-08
  -2.18499992E-02   2.35048123E-08
  -2.18000002E-02   1.87142426E-08
  -2.17499994E-02   4.68187755E-09
  -2.17000004E-02  -1.39553347E-08
  -2.16499995E-02  -3.03907726E-08
  -2.16000006E-02  -3.86190173E-08
  -2.15499997E-02  -3.61305688E-08
  -2.15000007E-02  -2.51201921E-08
  -2.14499999E-02  -1.16287824E-08
  -2.14000009E-02  -2.94435987E-09
  -2.13500001E-02  -4.37449055E-09
  -2.12999992E-02  -1.68142567E-08
  -2.12500002E-02  -3.62172372E-08
  -2.11999994E-02  -5.52574662E-08
  -2.11500004E-02  -6.65004691E-08
  -2.10999995E-02  -6.57088179E-08
  -2.10500006E-02  -5.38104459E-08
  -2.09999997E-02  -3.66155284E-08
  -2.09500007E-02  -2.23478516E-08
  -2.08999999E-02  -1.80356512E-08
  -2.08500009E-02  -2.63438640E-08
  -2.08000001E-02  -4.42738894E-08
  -2.07499992E-02  -6.43590639E-08
  -2.07000002E-02  -7.78862983E-08
  -2.06499994E-02  -7.87567416E-08
  -2.06000004E-02  -6.62756392E-08
  -2.05499995E-02  -4.55974245E-08
  -2.05000006E-02  -2.55671289E-08
  -2.04499997E-02  -1.48565844E-08
  -2.04000007E-02  -1.80802076E-08
  -2.03499999E-02  -3.36262254E-08
  -2.03000009E-02  -5.42164003E-08
  -2.02500001E-02  -7.00119500E-08
  -2.01999992E-02  -7.29401819E-08
  -2.01500002E-02  -6.03391399E-08
  -2.00999994E-02  -3.62751784E-08
  -2.00500004E-02  -9.88887727E-09
  -1.99999996E-02   8.56179483E-09
  -1.99500006E-02   1.22461596E-08
  -1.98999997E-02   8.76828388E-10
  -1.98500007E-02  -1.90300558E-08
  -1.97999999E-02  -3.69319153E-08
  -1.97500009E-02  -4.28998916E-08
  -1.97000001E-02  -3.20890052E-08
  -1.96499992E-02  -7.03450898E-09
  -1.96000002E-02   2.33021193E-08
  -1.95499994E-02   4.73838462E-08
  -1.95000004E-02   5.61889486E-08
  -1.94499996E-02   4.72915005E-08
  -1.94000006E-02   2.60845603E-08
  -1.93499997E-02   3.53836604E-09
  -1.93000007E-02  -8.58155857E-09
  -1.92499999E-02  -2.95269187E-09
  -1.92000009E-02   1.99423180E-08
  -1.91500001E-02   5.18708241E-08
  -1.90999992E-02   8.03667390E-08
  -1.90500002E-02   9.42079197E-08
  -1.89999994E-02   8.84447218E-08
  -1.89500004E-02   6.67236861E-08
  -1.88999996E-02   3.98161077E-08
  -1.88500006E-02   2.09332374E-08
  -1.87999997E-02   1.98627284E-08
  -1.87500007E-02   3.85250338E-08
  -1.86999999E-02   6.99628657E-08
  -1.86500009E-02   1.01281429E-07
  -1.86000001E-02   1.19298903E-07
  -1.85499992E-02   1.16432112E-07
  -1.85000002E-02   9.41910230E-08
  -1.84499994E-02   6.26765697E-08
  -1.84000004E-02   3.62339811E-08
  -1.83499996E-02   2.71346288E-08
  -1.83000006E-02   4.00728730E-08
  -1.82499997E-02   6.99481859E-08
  -1.82000007E-02   1.03979296E-07
  -1.81499999E-02   1.27278710E-07
  -1.81000009E-02   1.29455529E-07
  -1.80500001E-02   1.09316339E-07
  -1.79999992E-02   7.55345582E-08
  -1.79500002E-02   4.29248814E-08
  -1.78999994E-02   2.59195527E-08
  -1.78500004E-02   3.21155973E-08
  -1.77999996E-02   5.87750080E-08
  -1.77500006E-02   9.38850491E-08
  -1.76999997E-02   1.21376942E-07
  -1.76500008E-02   1.28236891E-07
  -1.75999999E-02   1.10362606E-07
  -1.75500009E-02   7.45377093E-08
  -1.75000001E-02   3.55823602E-08
  -1.74499992E-02   9.88210225E-09
  -1.74000002E-02   8.13112688E-09
  -1.73499994E-02   3.05094119E-08
  -1.73000004E-02   6.64794584E-08
  -1.72499996E-02   9.93490659E-08
  -1.72000006E-02   1.13632389E-07
  -1.71499997E-02   1.01963352E-07
  -1.71000008E-02   6.84722039E-08
  -1.70499999E-02   2.70814748E-08
  -1.70000009E-02  -4.58338700E-09
  -1.69500001E-02  -1.30104159E-08
  -1.68999992E-02   5.11550891E-09
  -1.68500002E-02   4.12986587E-08
  -1.67999994E-02   7.88574042E-08
  -1.67500004E-02   1.00235965E-07
  -1.66999996E-02   9.47918508E-08
  -1.66500006E-02   6.35992521E-08
  -1.65999997E-02   1.90950935E-08
  -1.65500008E-02  -2.03354809E-08
  -1.64999999E-02  -3.84681371E-08
  -1.64500009E-02  -2.84766966E-08
  -1.64000001E-02   3.92527344E-09
  -1.63499992E-02   4.28909566E-08
  -1.63000003E-02   6.93647877E-08
  -1.62499994E-02   6.94899995E-08
  -1.62000004E-02   4.07889864E-08
  -1.61499996E-02  -6.66015998E-09
  -1.61000006E-02  -5.46259038E-08
  -1.60499997E-02  -8.47876152E-08
  -1.60000008E-02  -8.69120171E-08
  -1.59499999E-02  -6.35090629E-08
  -1.59000009E-02  -2.88600130E-08
  -1.58500001E-02  -2.82241985E-09
  -1.57999992E-02  -2.08990114E-09
  -1.57500003E-02  -3.27665362E-08
  -1.56999994E-02  -8.75888730E-08
  -1.56500004E-02  -1.49044709E-07
  -1.55999996E-02  -1.97068957E-07
  -1.55499997E-02  -2.17922022E-07
  -1.54999997E-02  -2.10322511E-07
  -1.54499998E-02  -1.86118626E-07
  -1.53999999E-02  -1.65152557E-07
  -1.53500000E-02  -1.66536680E-07
  -1.53000001E-02  -2.00194307E-07
  -1.52500002E-02  -2.62435094E-07
  -1.52000003E-02  -3.37547874E-07
  -1.51500003E-02  -4.04727331E-07
  -1.51000004E-02  -4.47285430E-07
  -1.50499996E-02  -4.60116979E-07
  -1.49999997E-02  -4.52078808E-07
  -1.49499997E-02  -4.42176344E-07
  -1.48999998E-02  -4.51229511E-07
  -1.48499999E-02  -4.92676918E-07
  -1.48000000E-02  -5.66584674E-07
  -1.47500001E-02  -6.59528212E-07
  -1.47000002E-02  -7.50435788E-07
  -1.46500003E-02  -8.19842285E-07
  -1.46000003E-02  -8.58479780E-07
  -1.45500004E-02  -8.71394263E-07
  -1.44999996E-02  -8.75735680E-07
  -1.44499997E-02  -8.93194454E-07
  -1.43999998E-02  -9.40412008E-07
  -1.43499998E-02  -1.02157128E-06
  -1.42999999E-02  -1.12645853E-06
  -1.42500000E-02  -1.23490884E-06
  -1.42000001E-02  -1.32566913E-06
  -1.41500002E-02  -1.38575740E-06
  -1.41000003E-02  -1.41623843E-06
  -1.40500003E-02  -1.43176919E-06
  -1.40000004E-02  -1.45413890E-06
  -1.39499996E-02  -1.50266510E-06
  -1.38999997E-02  -1.58559192E-06
  -1.38499998E-02  -1.69634609E-06
  -1.37999998E-02  -1.81633754E-06
  -1.37499999E-02  -1.92308698E-06
  -1.37000000E-02  -2.00008549E-06
  -1.36500001E-02  -2.04402772E-06
  -1.36000002E-02  -2.06625350E-06
  -1.35500003E-02  -2.08774941E-06
  -1.35000004E-02  -2.12984878E-06
  -1.34500004E-02  -2.20477182E-06
  -1.33999996E-02  -2.31020431E-06
  -1.33499997E-02  -2.43026875E-06
  -1.32999998E-02  -2.54249039E-06
  -1.32499998E-02  -2.62769481E-06
  -1.31999999E-02  -2.67848782E-06
  -1.31500000E-02  -2.70258511E-06
  -1.31000001E-02  -2.71941076E-06
  -1.30500002E-02  -2.75156572E-06
  -1.30000003E-02  -2.81486996E-06
  -1.29500004E-02  -2.91132051E-06
  -1.29000004E-02  -3.02819876E-06
  -1.28499996E-02  -3.14366571E-06
  -1.27999997E-02  -3.23636482E-06
  -1.27499998E-02  -3.29479576E-06
  -1.26999998E-02  -3.32234436E-06
  -1.26499999E-02  -3.33581193E-06
  -1.26000000E-02  -3.35805498E-06
  -1.25500001E-02  -3.40786369E-06
  -1.25000002E-02  -3.49174024E-06
  -1.24500003E-02  -3.60107720E-06
  -1.24000004E-02  -3.71588294E-06
  -1.23500004E-02  -3.81378823E-06
  -1.22999996E-02  -3.88001490E-06
  -1.22499997E-02  -3.91392632E-06
  -1.21999998E-02  -3.92939273E-06
  -1.21499998E-02  -3.94869721E-06
  -1.20999999E-02  -3.99285227E-06
  -1.20500000E-02  -4.07247899E-06
  -1.20000001E-02  -4.18318405E-06
  -1.19500002E-02  -4.30756018E-06
  -1.19000003E-02  -4.42297778E-06
  -1.18500004E-02  -4.51168944E-06
  -1.18000004E-02  -4.56875159E-06
  -1.17499996E-02  -4.60436468E-06
  -1.16999997E-02  -4.63947208E-06
  -1.16499998E-02  -4.69652150E-06
  -1.15999999E-02  -4.78980610E-06
  -1.15499999E-02  -4.91929814E-06
  -1.15000000E-02  -5.07082950E-06
  -1.14500001E-02  -5.22245864E-06
  -1.14000002E-02  -5.35423760E-06
  -1.13500003E-02  -5.45712965E-06
  -1.13000004E-02  -5.53700829E-06
  -1.12500004E-02  -5.61221214E-06
  -1.11999996E-02  -5.70559996E-06
  -1.11499997E-02  -5.83457722E-06
  -1.10999998E-02  -6.00355588E-06
  -1.10499999E-02  -6.20222545E-06
  -1.09999999E-02  -6.41039787E-06
  -1.09500000E-02  -6.60729847E-06
  -1.09000001E-02  -6.78075503E-06
  -1.08500002E-02  -6.93266838E-06
  -1.08000003E-02  -7.07827166E-06
  -1.07500004E-02  -7.23951553E-06
  -1.07000005E-02  -7.43553210E-06
  -1.06499996E-02  -7.67420079E-06
  -1.05999997E-02  -7.94868174E-06
  -1.05499998E-02  -8.24051767E-06
  -1.04999999E-02  -8.52784160E-06
  -1.04499999E-02  -8.79490381E-06
  -1.04000000E-02  -9.03908040E-06
  -1.03500001E-02  -9.27214023E-06
  -1.03000002E-02  -9.51492348E-06
  -1.02500003E-02  -9.78816297E-06
  -1.02000004E-02  -1.01036612E-05
  -1.01500005E-02  -1.04593955E-05
  -1.00999996E-02  -1.08407394E-05
  -1.00499997E-02  -1.12270282E-05
  -9.99999978E-03  -1.16008332E-05
  -9.94999986E-03  -1.19558372E-05
  -9.89999995E-03  -1.22996507E-05
  -9.85000003E-03  -1.26503237E-05
  -9.80000012E-03  -1.30282078E-05
  -9.75000020E-03  -1.34469683E-05
  -9.70000029E-03  -1.39074718E-05
  -9.65000037E-03  -1.43975412E-05
  -9.60000046E-03  -1.48971758E-05
  -9.54999961E-03  -1.53873007E-05
  -9.49999969E-03  -1.58579187E-05
  -9.44999978E-03  -1.63121713E-05
  -9.39999986E-03  -1.67651742E-05
  -9.34999995E-03  -1.72372529E-05
  -9.30000003E-03  -1.77448819E-05
  -9.25000012E-03  -1.82931617E-05
  -9.20000020E-03  -1.88739868E-05
  -9.15000029E-03  -1.94700533E-05
  -9.10000037E-03  -2.00623817E-05
  -9.05000046E-03  -2.06388431E-05
  -8.99999961E-03  -2.11995630E-05
  -8.94999970E-03  -2.17567049E-05
  -8.89999978E-03  -2.23290608E-05
  -8.84999987E-03  -2.29339312E-05
  -8.79999995E-03  -2.35797088E-05
  -8.75000004E-03  -2.42622136E-05
  -8.70000012E-03  -2.49667191E-05
  -8.65000021E-03  -2.56740823E-05
  -8.60000029E-03  -2.63693892E-05
  -8.55000038E-03  -2.70488454E-05
  -8.50000046E-03  -2.77208092E-05
  -8.44999962E-03  -2.84021826E-05
  -8.39999970E-03  -2.91105589E-05
  -8.34999979E-03  -2.98563882E-05
  -8.29999987E-03  -3.06393813E-05
  -8.24999996E-03  -3.14483514E-05
  -8.20000004E-03  -3.22658816E-05
  -8.15000013E-03  -3.30767216E-05
  -8.10000021E-03  -3.38751815E-05
  -8.05000030E-03  -3.46668385E-05
  -8.00000038E-03  -3.54658987E-05
  -7.95000046E-03  -3.62899118E-05
  -7.89999962E-03  -3.71524839E-05
  -7.84999970E-03  -3.80572819E-05
  -7.79999979E-03  -3.89962806E-05
  -7.74999987E-03  -3.99542332E-05
  -7.69999996E-03  -4.09156601E-05
  -7.65000004E-03  -4.18720956E-05
  -7.60000013E-03  -4.28261665E-05
  -7.55000021E-03  -4.37898270E-05
  -7.49999983E-03  -4.47791281E-05
  -7.44999992E-03  -4.58079594E-05
  -7.40000000E-03  -4.68822691E-05
  -7.35000009E-03  -4.79981645E-05
  -7.30000017E-03  -4.91437095E-05
  -7.24999979E-03  -5.03040283E-05
  -7.19999988E-03  -5.14680469E-05
  -7.14999996E-03  -5.26341792E-05
  -7.10000005E-03  -5.38115673E-05
  -7.05000013E-03  -5.50159093E-05
  -7.00000022E-03  -5.62618225E-05
  -6.94999984E-03  -5.75570957E-05
  -6.89999992E-03  -5.89017072E-05
  -6.85000001E-03  -6.02868677E-05
  -6.80000009E-03  -6.17002297E-05
  -6.75000018E-03  -6.31309304E-05
  -6.69999979E-03  -6.45745386E-05
  -6.64999988E-03  -6.60374935E-05
  -6.59999996E-03  -6.75333431E-05
  -6.55000005E-03  -6.90765592E-05
  -6.50000013E-03  -7.06779319E-05
  -6.45000022E-03  -7.23399353E-05
  -6.39999984E-03  -7.40557589E-05
  -6.34999992E-03  -7.58143360E-05
  -6.30000001E-03  -7.76046654E-05
  -6.25000009E-03  -7.94199732E-05
  -6.20000018E-03  -8.12610451E-05
  -6.14999980E-03  -8.31371726E-05
  -6.09999988E-03  -8.50631695E-05
  -6.04999997E-03  -8.70518052E-05
  -6.00000005E-03  -8.91075470E-05
  -5.95000014E-03  -9.12255418E-05
  -5.90000022E-03  -9.33961055E-05
  -5.84999984E-03  -9.56098738E-05
  -5.79999993E-03  -9.78594544E-05
  -5.75000001E-03  -1.00142723E-04
  -5.70000010E-03  -1.02466794E-04
  -5.65000018E-03  -1.04844985E-04
  -5.59999980E-03  -1.07290209E-04
  -5.54999989E-03  -1.09810346E-04
  -5.49999997E-03  -1.12405760E-04
  -5.45000006E-03  -1.15068608E-04
  -5.40000014E-03  -1.17787284E-04
  -5.35000023E-03  -1.20552868E-04
  -5.29999984E-03  -1.23362741E-04
  -5.24999993E-03  -1.26221712E-04
  -5.20000001E-03  -1.29138585E-04
  -5.15000010E-03  -1.32123416E-04
  -5.10000018E-03  -1.35185619E-04
  -5.04999980E-03  -1.38329473E-04
  -4.99999989E-03  -1.41551223E-04
  -4.94999997E-03  -1.44840174E-04
  -4.90000006E-03  -1.48184030E-04
  -4.85000014E-03  -1.51574975E-04
  -4.80000023E-03  -1.55014204E-04
  -4.74999985E-03  -1.58511379E-04
  -4.69999993E-03  -1.62078708E-04
  -4.65000002E-03  -1.65725665E-04
  -4.60000010E-03  -1.69457984E-04
  -4.55000019E-03  -1.73277309E-04
  -4.49999981E-03  -1.77177513E-04
  -4.44999989E-03  -1.81147916E-04
  -4.39999998E-03  -1.85178782E-04
  -4.35000006E-03  -1.89264116E-04
  -4.30000015E-03  -1.93410422E-04
  -4.25000023E-03  -1.97632413E-04
  -4.19999985E-03  -2.01941046E-04
  -4.14999994E-03  -2.06343670E-04
  -4.10000002E-03  -2.10843195E-04
  -4.05000011E-03  -2.15436288E-04
  -4.00000019E-03  -2.20111600E-04
  -3.94999981E-03  -2.24853371E-04
  -3.89999989E-03  -2.29652142E-04
  -3.84999998E-03  -2.34510619E-04
  -3.80000006E-03  -2.39439134E-04
  -3.74999992E-03  -2.44451920E-04
  -3.70000000E-03  -2.49562552E-04
  -3.65000009E-03  -2.54780054E-04
  -3.59999994E-03  -2.60103814E-04
  -3.55000002E-03  -2.65521347E-04
  -3.50000011E-03  -2.71016150E-04
  -3.44999996E-03  -2.76578096E-04
  -3.40000005E-03  -2.82207708E-04
  -3.34999990E-03  -2.87915638E-04
  -3.29999998E-03  -2.93718185E-04
  -3.25000007E-03  -2.99627864E-04
  -3.19999992E-03  -3.05653841E-04
  -3.15000000E-03  -3.11798969E-04
  -3.10000009E-03  -3.18055099E-04
  -3.04999994E-03  -3.24408233E-04
  -3.00000003E-03  -3.30838520E-04
  -2.95000011E-03  -3.37333040E-04
  -2.89999996E-03  -3.43900349E-04
  -2.85000005E-03  -3.50560673E-04
  -2.79999990E-03  -3.57335084E-04
  -2.74999999E-03  -3.64239881E-04
  -2.70000007E-03  -3.71277623E-04
  -2.64999992E-03  -3.78437719E-04
  -2.60000001E-03  -3.85707710E-04
  -2.55000009E-03  -3.93070804E-04
  -2.49999994E-03  -4.00514808E-04
  -2.45000003E-03  -4.08036896E-04
  -2.40000011E-03  -4.15650313E-04
  -2.34999997E-03  -4.23382764E-04
  -2.30000005E-03  -4.31259046E-04
  -2.24999990E-03  -4.39289841E-04
  -2.19999999E-03  -4.47462080E-04
  -2.15000007E-03  -4.55756206E-04
  -2.09999993E-03  -4.64156619E-04
  -2.05000001E-03  -4.72649554E-04
  -2.00000009E-03  -4.81226918E-04
  -1.94999995E-03  -4.89894301E-04
  -1.90000003E-03  -4.98676032E-04
  -1.85000000E-03  -5.07608114E-04
  -1.79999997E-03  -5.16713597E-04
  -1.75000005E-03  -5.25990152E-04
  -1.70000002E-03  -5.35416766E-04
  -1.64999999E-03  -5.44958981E-04
  -1.59999996E-03  -5.54588391E-04
  -1.55000004E-03  -5.64303657E-04
  -1.50000001E-03  -5.74120146E-04
  -1.44999998E-03  -5.84056426E-04
  -1.39999995E-03  -5.94138983E-04
  -1.35000004E-03  -6.04396570E-04
  -1.30000000E-03  -6.14839722E-04
  -1.24999997E-03  -6.25451677E-04
  -1.20000006E-03  -6.36202050E-04
  -1.15000003E-03  -6.47054927E-04
  -1.09999999E-03  -6.57991448E-04
  -1.04999996E-03  -6.69017318E-04
  -1.00000005E-03  -6.80161873E-04
  -9.50000016E-04  -6.91463880E-04
  -8.99999985E-04  -7.02954829E-04
  -8.50000011E-04  -7.14654569E-04
  -7.99999980E-04  -7.26560946E-04
  -7.50000007E-04  -7.38633913E-04
  -6.99999975E-04  -7.50820676E-04
  -6.50000002E-04  -7.63093354E-04
  -6.00000028E-04  -7.75453984E-04
  -5.49999997E-04  -7.87930912E-04
  -5.00000024E-04  -8.00560520E-04
  -4.49999992E-04  -8.13381397E-04
  -3.99999990E-04  -8.26427015E-04
  -3.49999988E-04  -8.39699584E-04
  -3.00000014E-04  -8.53157428E-04
  -2.50000012E-04  -8.66739254E-04
  -1.99999995E-04  -8.80398788E-04
  -1.50000007E-04  -8.94141907E-04
  -9.99999975E-05  -9.08003422E-04
  -4.99999987E-05  -9.22014238E-04
   0.00000000      -9.36223660E-04
   4.99999987E-05  -9.50687856E-04
   9.99999975E-05  -9.65409039E-04
   1.50000007E-04  -9.80349723E-04
   1.99999995E-04  -9.95446346E-04
   2.50000012E-04  -1.01063389E-03
   3.00000014E-04  -1.02589303E-03
   3.49999988E-04  -1.04124425E-03
   3.99999990E-04  -1.05675415E-03
   4.49999992E-04  -1.07248314E-03
   5.00000024E-04  -1.08845741E-03
   5.49999997E-04  -1.10469863E-03
   6.00000028E-04  -1.12119748E-03
   6.50000002E-04  -1.13788969E-03
   6.99999975E-04  -1.15468353E-03
   7.50000007E-04  -1.17151206E-03
   7.99999980E-04  -1.18839811E-03
   8.50000011E-04  -1.20544259E-03
   8.99999985E-04  -1.22274610E-03
   9.50000016E-04  -1.24035450E-03
   1.00000005E-03  -1.25825708E-03
   1.04999996E-03  -1.27640180E-03
   1.09999999E-03  -1.29473989E-03
   1.15000003E-03  -1.31322956E-03
   1.20000006E-03  -1.33181678E-03
   1.24999997E-03  -1.35046616E-03
   1.30000000E-03  -1.36920519E-03
   1.35000004E-03  -1.38813350E-03
   1.39999995E-03  -1.40737067E-03
   1.44999998E-03  -1.42698106E-03
   1.50000001E-03  -1.44691474E-03
   1.55000004E-03  -1.46706286E-03
   1.59999996E-03  -1.48732541E-03
   1.64999999E-03  -1.50765385E-03
   1.70000002E-03  -1.52804167E-03
   1.75000005E-03  -1.54853379E-03
   1.79999997E-03  -1.56922196E-03
   1.85000000E-03  -1.59019465E-03
   1.90000003E-03  -1.61150913E-03
   1.94999995E-03  -1.63317111E-03
   2.00000009E-03  -1.65510853E-03
   2.05000001E-03  -1.67718926E-03
   2.09999993E-03  -1.69931899E-03
   2.15000007E-03  -1.72146072E-03
   2.19999999E-03  -1.74365181E-03
   2.24999990E-03  -1.76602090E-03
   2.30000005E-03  -1.78869523E-03
   2.34999997E-03  -1.81172916E-03
   2.40000011E-03  -1.83511246E-03
   2.45000003E-03  -1.85879273E-03
   2.49999994E-03  -1.88264134E-03
   2.55000009E-03  -1.90651743E-03
   2.60000001E-03  -1.93037139E-03
   2.64999992E-03  -1.95425213E-03
   2.70000007E-03  -1.97826442E-03
   2.74999999E-03  -2.00250838E-03
   2.79999990E-03  -2.02711066E-03