  -3.99999991E-02   0.00000000    
  -3.99499983E-02   0.00000000    
  -3.99000011E-02   0.00000000    
  -3.98500003E-02   0.00000000    
  -3.97999994E-02   0.00000000    
  -3.97499986E-02  -3.25585173E-23
  -3.97000015E-02  -2.87639663E-22
  -3.96500006E-02  -1.31913952E-21
  -3.95999998E-02  -4.11938813E-21
  -3.95499989E-02  -9.64238947E-21
  -3.95000018E-02  -1.74209375E-20
  -3.94500010E-02  -2.34707377E-20
  -3.94000001E-02  -1.85921541E-20
  -3.93499993E-02   1.10944905E-20
  -3.92999984E-02   7.98088864E-20
  -3.92500013E-02   1.94142082E-19
  -3.92000005E-02   3.44447571E-19
  -3.91499996E-02   5.00925948E-19
  -3.90999988E-02   6.19560864E-19
  -3.90500017E-02   6.59135511E-19
  -3.90000008E-02   6.03851980E-19
  -3.89500000E-02   4.80046255E-19
  -3.88999991E-02   3.54543001E-19
  -3.88499983E-02   3.08843676E-19
  -3.88000011E-02   3.95876621E-19
  -3.87500003E-02   5.98433585E-19
  -3.86999995E-02   8.13118801E-19
  -3.86499986E-02   8.75814180E-19
  -3.86000015E-02   6.25581033E-19
  -3.85500006E-02  -1.84964241E-20
  -3.84999998E-02  -1.00703666E-18
  -3.84499989E-02  -2.17171162E-18
  -3.84000018E-02  -3.30797737E-18
  -3.83500010E-02  -4.30157535E-18
  -3.83000001E-02  -5.23995633E-18
  -3.82499993E-02  -6.44393343E-18
  -3.81999984E-02  -8.38366741E-18
  -3.81500013E-02  -1.14977096E-17
  -3.81000005E-02  -1.59889843E-17
  -3.80499996E-02  -2.16973759E-17
  -3.79999988E-02  -2.81262022E-17
  -3.79500017E-02  -3.46339232E-17
  -3.79000008E-02  -4.07204670E-17
  -3.78500000E-02  -4.62791472E-17
  -3.77999991E-02  -5.16836674E-17
  -3.77499983E-02  -5.76438148E-17
  -3.77000012E-02  -6.48709116E-17
  -3.76500003E-02  -7.36948707E-17
  -3.75999995E-02  -8.38162659E-17
  -3.75499986E-02  -9.43296984E-17
  -3.75000015E-02  -1.04032785E-16
  -3.74500006E-02  -1.11894680E-16
  -3.73999998E-02  -1.17469944E-16
  -3.73499990E-02  -1.21055567E-16
  -3.73000018E-02  -1.23500964E-16
  -3.72500010E-02  -1.25741790E-16
  -3.72000001E-02  -1.28260932E-16
  -3.71499993E-02  -1.30719365E-16
  -3.70999984E-02  -1.31924561E-16
  -3.70500013E-02  -1.30148108E-16
  -3.70000005E-02  -1.23645171E-16
  -3.69499996E-02  -1.11144752E-16
  -3.68999988E-02  -9.21142374E-17
  -3.68500017E-02  -6.67313202E-17
  -3.68000008E-02  -3.56428817E-17
  -3.67500000E-02   3.29677279E-19
  -3.66999991E-02   4.04080906E-17
  -3.66499983E-02   8.39714980E-17
  -3.66000012E-02   1.30639016E-16
  -3.65500003E-02   1.80404240E-16
  -3.64999995E-02   2.33814287E-16
  -3.64499986E-02   2.92052646E-16
  -3.64000015E-02   3.56716464E-16
  -3.63500006E-02   4.29167083E-16
  -3.62999998E-02   5.09577827E-16
  -3.62499990E-02   5.96093031E-16
  -3.62000018E-02   6.84658637E-16
  -3.61500010E-02   7.69926268E-16
  -3.61000001E-02   8.47142585E-16
  -3.60499993E-02   9.14314045E-16
  -3.59999985E-02   9.73514448E-16
  -3.59500013E-02   1.03031860E-15
  -3.59000005E-02   1.09109628E-15
  -3.58499996E-02   1.15903118E-15
  -3.57999988E-02   1.23070234E-15
  -3.57500017E-02   1.29527114E-15
  -3.57000008E-02   1.33744289E-15
  -3.56500000E-02   1.34362179E-15
  -3.55999991E-02   1.30879317E-15
  -3.55499983E-02   1.24063783E-15
  -3.55000012E-02   1.15800055E-15
  -3.54500003E-02   1.08313428E-15
  -3.53999995E-02   1.03031436E-15
  -3.53499986E-02   9.95938375E-16
  -3.53000015E-02   9.55621089E-16
  -3.52500007E-02   8.71370216E-16
  -3.51999998E-02   7.07373308E-16
  -3.51499990E-02   4.48184985E-16
  -3.51000018E-02   1.10598951E-16
  -3.50500010E-02  -2.58028100E-16
  -3.50000001E-02  -5.96777010E-16
  -3.49499993E-02  -8.57865175E-16
  -3.48999985E-02  -1.03149999E-15
  -3.48500013E-02  -1.15619362E-15
  -3.48000005E-02  -1.30689497E-15
  -3.47499996E-02  -1.56308559E-15
  -3.46999988E-02  -1.96937151E-15
  -3.46500017E-02  -2.50693419E-15
  -3.46000008E-02  -3.09178037E-15
  -3.45500000E-02  -3.60492183E-15
  -3.44999991E-02  -3.94453164E-15
  -3.44499983E-02  -4.07763482E-15
  -3.44000012E-02  -4.06567726E-15
  -3.43500003E-02  -4.04737796E-15
  -3.42999995E-02  -4.18093430E-15
  -3.42499986E-02  -4.56808257E-15
  -3.42000015E-02  -5.19476624E-15
  -3.41500007E-02  -5.92002042E-15
  -3.40999998E-02  -6.52540715E-15
  -3.40499990E-02  -6.80927203E-15
  -3.40000018E-02  -6.68584069E-15
  -3.39500010E-02  -6.24128223E-15
  -3.39000002E-02  -5.71351336E-15
  -3.38499993E-02  -5.39543597E-15
  -3.37999985E-02  -5.49880787E-15
  -3.37500013E-02  -6.04008268E-15
  -3.37000005E-02  -6.80681013E-15
  -3.36499996E-02  -7.43136564E-15
  -3.35999988E-02  -7.54982150E-15
  -3.35500017E-02  -6.97940707E-15
  -3.35000008E-02  -5.83060635E-15
  -3.34500000E-02  -4.49127870E-15
  -3.33999991E-02  -3.47466679E-15
  -3.33499983E-02  -3.18823286E-15
  -3.33000012E-02  -3.72549485E-15
  -3.32500003E-02  -4.78406538E-15
  -3.31999995E-02  -5.76419473E-15
  -3.31499986E-02  -6.02128151E-15
  -3.31000015E-02  -5.16848451E-15
  -3.30500007E-02  -3.28970720E-15
  -3.29999998E-02  -9.50736038E-16
  -3.29499990E-02   1.01897354E-15
  -3.29000019E-02   1.89413889E-15
  -3.28500010E-02   1.41088446E-15
  -3.28000002E-02  -5.89030947E-17
  -3.27499993E-02  -1.61884291E-15
  -3.26999985E-02  -2.22147159E-15
  -3.26500013E-02  -1.15218144E-15
  -3.26000005E-02   1.59651163E-15
  -3.25499997E-02   5.25050440E-15
  -3.24999988E-02   8.54534949E-15
  -3.24500017E-02   1.02807565E-14
  -3.24000008E-02   9.89989408E-15
  -3.23500000E-02   7.81964215E-15
  -3.22999991E-02   5.33001454E-15
  -3.22499983E-02   4.06887184E-15
  -3.22000012E-02   5.28103655E-15
  -3.21500003E-02   9.19355415E-15
  -3.20999995E-02   1.48147994E-14
  -3.20499986E-02   2.02921837E-14
  -3.20000015E-02   2.37100073E-14
  -3.19500007E-02   2.39888591E-14
  -3.18999998E-02   2.14688463E-14
  -3.18499990E-02   1.78713957E-14
  -3.18000019E-02   1.56018522E-14
  -3.17500010E-02   1.66646194E-14
  -3.17000002E-02   2.16704384E-14
  -3.16499993E-02   2.94138188E-14
  -3.15999985E-02   3.72705779E-14
  -3.15500014E-02   4.22989551E-14
  -3.15000005E-02   4.25852387E-14
  -3.14499997E-02   3.82201561E-14
  -3.13999988E-02   3.14148901E-14
  -3.13500017E-02   2.56304191E-14
  -3.13000008E-02   2.40486748E-14
  -3.12500000E-02   2.80508411E-14
  -3.11999992E-02   3.64188592E-14
  -3.11500002E-02   4.56932127E-14
  -3.10999993E-02   5.16105611E-14
  -3.10500003E-02   5.10310042E-14
  -3.09999995E-02   4.34883995E-14
  -3.09500005E-02   3.16069125E-14
  -3.08999997E-02   2.01013878E-14
  -3.08500007E-02   1.37220405E-14
  -3.07999998E-02   1.50272556E-14
  -3.07500008E-02   2.30151693E-14
  -3.07000000E-02   3.33195792E-14
  -3.06499992E-02   3.99947646E-14
  -3.06000002E-02   3.81715703E-14
  -3.05499993E-02   2.64065418E-14
  -3.05000003E-02   7.60384526E-15
  -3.04499995E-02  -1.20232744E-14
  -3.04000005E-02  -2.56066547E-14
  -3.03499997E-02  -2.87686236E-14
  -3.03000007E-02  -2.18257639E-14
  -3.02499998E-02  -9.95768375E-15
  -3.02000009E-02  -1.12136130E-15
  -3.01500000E-02  -2.52824660E-15
  -3.00999992E-02  -1.72274711E-14
  -3.00500002E-02  -4.23939651E-14
  -2.99999993E-02  -7.02337833E-14
  -2.99500003E-02  -9.12610035E-14
  -2.98999995E-02  -9.85802355E-14
  -2.98500005E-02  -9.12499785E-14
  -2.97999997E-02  -7.51034773E-14
  -2.97500007E-02  -6.04791621E-14
  -2.96999998E-02  -5.77132878E-14
  -2.96500009E-02  -7.23418585E-14
  -2.96000000E-02  -1.02217781E-13
  -2.95499992E-02  -1.38001074E-13
  -2.95000002E-02  -1.67007331E-13
  -2.94499993E-02  -1.78842198E-13
  -2.94000003E-02  -1.70325166E-13
  -2.93499995E-02  -1.47381036E-13
  -2.93000005E-02  -1.22839849E-13
  -2.92499997E-02  -1.10915197E-13
  -2.92000007E-02  -1.20713240E-13
  -2.91499998E-02  -1.51713426E-13
  -2.91000009E-02  -1.93425327E-13
  -2.90500000E-02  -2.29625265E-13
  -2.89999992E-02  -2.45485327E-13
  -2.89500002E-02  -2.34472787E-13
  -2.88999993E-02  -2.01824722E-13
  -2.88500004E-02  -1.62797279E-13
  -2.87999995E-02  -1.36198155E-13
  -2.87500005E-02  -1.35912589E-13
  -2.86999997E-02  -1.64212136E-13
  -2.86500007E-02  -2.10024828E-13
  -2.85999998E-02  -2.53238809E-13
  -2.85500009E-02  -2.73393016E-13
  -2.85000000E-02  -2.58998606E-13
  -2.84499992E-02  -2.13241818E-13
  -2.84000002E-02  -1.53251015E-13
  -2.83499993E-02  -1.02919199E-13
  -2.83000004E-02  -8.22338142E-14
  -2.82499995E-02  -9.78283548E-14
  -2.82000005E-02  -1.39158772E-13
  -2.81499997E-02  -1.82357818E-13
  -2.81000007E-02  -2.00403848E-13
  -2.80499998E-02  -1.75272205E-13
  -2.80000009E-02  -1.06603189E-13
  -2.79500000E-02  -1.27350946E-14
  -2.78999992E-02   7.67634857E-14
  -2.78500002E-02   1.34077875E-13
  -2.77999993E-02   1.45985830E-13
  -2.77500004E-02   1.20669411E-13
  -2.76999995E-02   8.50813899E-14
  -2.76500005E-02   7.35980897E-14
  -2.75999997E-02   1.12710243E-13
  -2.75500007E-02   2.08548023E-13
  -2.74999999E-02   3.43075666E-13
  -2.74500009E-02   4.81111678E-13
  -2.74000000E-02   5.85492700E-13
  -2.73499992E-02   6.33851532E-13
  -2.73000002E-02   6.29428530E-13
  -2.72499993E-02   6.00699286E-13
  -2.72000004E-02   5.89455188E-13
  -2.71499995E-02   6.32223440E-13
  -2.71000005E-02   7.43180691E-13
  -2.70499997E-02   9.06415893E-13
  -2.70000007E-02   1.08150348E-12
  -2.69499999E-02   1.22046882E-12
  -2.69000009E-02   1.28895083E-12
  -2.68500000E-02   1.28212534E-12
  -2.67999992E-02   1.22790851E-12
  -2.67500002E-02   1.17540537E-12
  -2.66999993E-02   1.17319208E-12
  -2.66500004E-02   1.24685082E-12
  -2.65999995E-02   1.38593878E-12
  -2.65500005E-02   1.54673681E-12
  -2.64999997E-02   1.67023437E-12
  -2.64500007E-02   1.70785857E-12
  -2.63999999E-02   1.64360116E-12
  -2.63500009E-02   1.50234046E-12
  -2.63000000E-02   1.33997446E-12
  -2.62499992E-02   1.21904949E-12
  -2.62000002E-02   1.18031930E-12
  -2.61499994E-02   1.22296520E-12
  -2.61000004E-02   1.30283349E-12
  -2.60499995E-02   1.35027363E-12
  -2.60000005E-02   1.30033788E-12
  -2.59499997E-02   1.12219012E-12
  -2.59000007E-02   8.34364912E-13
  -2.58499999E-02   4.98368003E-13
  -2.58000009E-02   1.92605250E-13
  -2.57500000E-02  -2.23757306E-14
  -2.56999992E-02  -1.31952270E-13
  -2.56500002E-02  -1.75808492E-13
  -2.55999994E-02  -2.32016961E-13
  -2.55500004E-02  -3.83014177E-13
  -2.54999995E-02  -6.78121405E-13
  -2.54500005E-02  -1.10942841E-12
  -2.53999997E-02  -1.61250592E-12
  -2.53500007E-02  -2.09264030E-12
  -2.52999999E-02  -2.46576999E-12
  -2.52500009E-02  -2.69620849E-12
  -2.52000000E-02  -2.81396391E-12
  -2.51499992E-02  -2.90300141E-12
  -2.51000002E-02  -3.06458483E-12
  -2.50499994E-02  -3.37126659E-12
  -2.50000004E-02  -3.83195992E-12
  -2.49499995E-02  -4.38431279E-12
  -2.49000005E-02  -4.91893245E-12
  -2.48499997E-02  -5.32576847E-12
  -2.48000007E-02  -5.54259243E-12
  -2.47499999E-02  -5.58374440E-12
  -2.47000009E-02  -5.53540330E-12
  -2.46500000E-02  -5.51820178E-12
  -2.45999992E-02  -5.63281583E-12
  -2.45500002E-02  -5.91245152E-12
  -2.44999994E-02  -6.30396516E-12
  -2.44500004E-02  -6.68727226E-12
  -2.43999995E-02  -6.92577766E-12
  -2.43500005E-02  -6.92625384E-12
  -2.42999997E-02  -6.68151905E-12
  -2.42500007E-02  -6.27598277E-12
  -2.41999999E-02  -5.85014892E-12
  -2.41500009E-02  -5.53853794E-12
  -2.41000000E-02  -5.40804771E-12
  -2.40499992E-02  -5.42459437E-12
  -2.40000002E-02  -5.46417035E-12
  -2.39499994E-02  -5.36500748E-12
  -2.39000004E-02  -4.99886374E-12
  -2.38499995E-02  -4.32998385E-12
  -2.38000005E-02  -3.43468505E-12
  -2.37499997E-02  -2.47126538E-12
  -2.37000007E-02  -1.61198420E-12
  -2.36499999E-02  -9.66401113E-13
  -2.36000009E-02  -5.30354948E-13
  -2.35500000E-02  -1.84544803E-13
  -2.34999992E-02   2.54820389E-13
  -2.34500002E-02   9.54243845E-13
  -2.33999994E-02   1.98578957E-12
  -2.33500004E-02   3.28951580E-12
  -2.32999995E-02   4.69388157E-12
  -2.32500006E-02   5.98700256E-12
  -2.31999997E-02   7.00845848E-12
  -2.31500007E-02   7.72099051E-12
  -2.30999999E-02   8.22904331E-12
  -2.30500009E-02   8.73392417E-12
  -2.30000000E-02   9.44356746E-12
  -2.29499992E-02   1.04760228E-11
  -2.29000002E-02   1.17999733E-11
  -2.28499994E-02   1.32404409E-11
  -2.28000004E-02   1.45493678E-11
  -2.27499995E-02   1.55115434E-11
  -2.27000006E-02   1.60393226E-11
  -2.26499997E-02   1.62130639E-11
  -2.26000007E-02   1.62471842E-11
  -2.25499999E-02   1.63946200E-11
  -2.25000009E-02   1.68306688E-11
  -2.24500000E-02   1.75679315E-11
  -2.23999992E-02   1.84417741E-11
  -2.23500002E-02   1.91752968E-11
  -2.22999994E-02   1.94971886E-11
  -2.22500004E-02   1.92611899E-11
  -2.21999995E-02   1.85133350E-11
  -2.21500006E-02   1.74749815E-11
  -2.20999997E-02   1.64465230E-11
  -2.20500007E-02   1.56725778E-11
  -2.19999999E-02   1.52282301E-11
  -2.19500009E-02   1.49783051E-11
  -2.19000001E-02   1.46304410E-11
  -2.18499992E-02   1.38611371E-11
  -2.18000002E-02   1.24602932E-11
  -2.17499994E-02   1.04297395E-11
  -2.17000004E-02   7.98987525E-12
  -2.16499995E-02   5.48849204E-12
  -2.16000006E-02   3.24980537E-12
  -2.15499997E-02   1.42983759E-12
  -2.15000007E-02  -5.64533907E-14
  -2.14499999E-02  -1.50119544E-12
  -2.14000009E-02  -3.27475829E-12
  -2.13500001E-02  -5.65714619E-12
  -2.12999992E-02  -8.70438357E-12
  -2.12500002E-02  -1.22111713E-11
  -2.11999994E-02  -1.57895884E-11
  -2.11500004E-02  -1.90319028E-11
  -2.10999995E-02  -2.16867028E-11
  -2.10500006E-02  -2.37693580E-11
  -2.09999997E-02  -2.55551327E-11
  -2.09500007E-02  -2.74545404E-11
  -2.08999999E-02  -2.98236331E-11
  -2.08500009E-02  -3.27928310E-11
  -2.08000001E-02  -3.61919800E-11
  -2.07499992E-02  -3.96082993E-11
  -2.07000002E-02  -4.25550289E-11
  -2.06499994E-02  -4.46780599E-11
  -2.06000004E-02  -4.59086796E-11
  -2.05499995E-02  -4.64920706E-11
  -2.05000006E-02  -4.68752537E-11
  -2.04499997E-02  -4.75010170E-11
  -2.04000007E-02  -4.85980492E-11
  -2.03499999E-02  -5.00617429E-11
  -2.03000009E-02  -5.14819506E-11
  -2.02500001E-02  -5.23094103E-11
  -2.01999992E-02  -5.20897804E-11
  -2.01500002E-02  -5.06618150E-11
  -2.00999994E-02  -4.82295974E-11
  -2.00500004E-02  -4.52728376E-11
  -1.99999996E-02  -4.23313572E-11
  -1.99500006E-02  -3.97574369E-11
  -1.98999997E-02  -3.75466706E-11
  -1.98500007E-02  -3.53257631E-11
  -1.97999999E-02  -3.25069242E-11
  -1.97500009E-02  -2.85438947E-11
  -1.97000001E-02  -2.31771598E-11
  -1.96499992E-02  -1.65577239E-11
  -1.96000002E-02  -9.19068467E-12
  -1.95499994E-02  -1.71940175E-12
  -1.95000004E-02   5.35669512E-12
  -1.94499996E-02   1.19053196E-11
  -1.94000006E-02   1.82235633E-11
  -1.93499997E-02   2.49070712E-11
  -1.93000007E-02   3.25800706E-11
  -1.92499999E-02   4.16042270E-11
  -1.92000009E-02   5.18967369E-11
  -1.91500001E-02   6.29421584E-11
  -1.90999992E-02   7.39974818E-11
  -1.90500002E-02   8.44028181E-11
  -1.89999994E-02   9.38606901E-11
  -1.89500004E-02   1.02557407E-10
  -1.88999996E-02   1.11068189E-10
  -1.88500006E-02   1.20083540E-10
  -1.87999997E-02   1.30075631E-10
  -1.87500007E-02   1.41053197E-10
  -1.86999999E-02   1.52517485E-10
  -1.86500009E-02   1.63643613E-10
  -1.86000001E-02   1.73611153E-10
  -1.85499992E-02   1.81939047E-10
  -1.85000002E-02   1.88674104E-10
  -1.84499994E-02   1.94345456E-10
  -1.84000004E-02   1.99699784E-10
  -1.83499996E-02   2.05331793E-10
  -1.83000006E-02   2.11373294E-10
  -1.82499997E-02   2.17382487E-10
  -1.82000007E-02   2.22487334E-10
  -1.81499999E-02   2.25724828E-10
  -1.81000009E-02   2.26427668E-10
  -1.80500001E-02   2.24486277E-10
  -1.79999992E-02   2.20365448E-10
  -1.79500002E-02   2.14863141E-10
  -1.78999994E-02   2.08714143E-10
  -1.78500004E-02   2.02213413E-10
  -1.77999996E-02   1.95028882E-10
  -1.77500006E-02   1.86291704E-10
  -1.76999997E-02   1.74929723E-10
  -1.76500008E-02   1.60099239E-10
  -1.75999999E-02   1.41523862E-10
  -1.75500009E-02   1.19586133E-10
  -1.75000001E-02   9.51259072E-11
  -1.74499992E-02   6.90301288E-11
  -1.74000002E-02   4.17940856E-11
  -1.73499994E-02   1.32502559E-11
  -1.73000004E-02  -1.74096952E-11
  -1.72499996E-02  -5.13237855E-11
  -1.72000006E-02  -8.94928923E-11
  -1.71499997E-02  -1.32365424E-10
  -1.71000008E-02  -1.79659621E-10
  -1.70499999E-02  -2.30508820E-10
  -1.70000009E-02  -2.83869983E-10
  -1.69500001E-02  -3.39018563E-10
  -1.68999992E-02  -3.95906974E-10
  -1.68500002E-02  -4.55226162E-10
  -1.67999994E-02  -5.18134702E-10
  -1.67500004E-02  -5.85771098E-10
  -1.66999996E-02  -6.58764654E-10
  -1.66500006E-02  -7.36963268E-10
  -1.65999997E-02  -8.19505241E-10
  -1.65500008E-02  -9.05208963E-10
  -1.64999999E-02  -9.93111260E-10
  -1.64500009E-02  -1.08291642E-09
  -1.64000001E-02  -1.17515242E-09
  -1.63499992E-02  -1.27096000E-09
  -1.63000003E-02  -1.37159983E-09
  -1.62499994E-02  -1.47789780E-09
  -1.62000004E-02  -1.58987279E-09
  -1.61499996E-02  -1.70671732E-09
  -1.61000006E-02  -1.82714921E-09
  -1.60499997E-02  -1.94998018E-09
  -1.60000008E-02  -2.07465134E-09
  -1.59499999E-02  -2.20149499E-09
  -1.59000009E-02  -2.33160247E-09
  -1.58500001E-02  -2.46634868E-09
  -1.57999992E-02  -2.60678013E-09
  -1.57500003E-02  -2.75314127E-09
  -1.56999994E-02  -2.90475111E-09
  -1.56500004E-02  -3.06029424E-09
  -1.55999996E-02  -3.21839844E-09
  -1.55499997E-02  -3.37825212E-09
  -1.54999997E-02  -3.53997853E-09
  -1.54499998E-02  -3.70460040E-09
  -1.53999999E-02  -3.87360144E-09
  -1.53500000E-02  -4.04827594E-09
  -1.53000001E-02  -4.22915392E-09
  -1.52500002E-02  -4.41575931E-09
  -1.52000003E-02  -4.60682292E-09
  -1.51500003E-02  -4.80084683E-09
  -1.51000004E-02  -4.99679098E-09
  -1.50499996E-02  -5.19456345E-09
  -1.49999997E-02  -5.39509726E-09
  -1.49499997E-02  -5.59997337E-09
  -1.48999998E-02  -5.81075010E-09
  -1.48499999E-02  -6.02829520E-09
  -1.48000000E-02  -6.25241992E-09
  -1.47500001E-02  -6.48198561E-09
  -1.47000002E-02  -6.71543798E-09
  -1.46500003E-02  -6.95154245E-09
  -1.46000003E-02  -7.18999082E-09
  -1.45500004E-02  -7.43160466E-09
  -1.44999996E-02  -7.67804220E-09
  -1.44499997E-02  -7.93113042E-09
  -1.43999998E-02  -8.19210833E-09
  -1.43499998E-02  -8.46114201E-09
  -1.42999999E-02  -8.73730421E-09
  -1.42500000E-02  -9.01904951E-09
  -1.42000001E-02  -9.30498434E-09
  -1.41500002E-02  -9.59457580E-09
  -1.41000003E-02  -9.88849802E-09
  -1.40500003E-02  -1.01884430E-08
  -1.40000004E-02  -1.04964775E-08
  -1.39499996E-02  -1.08142322E-08
  -1.38999997E-02  -1.11422764E-08
  -1.38499998E-02  -1.14799628E-08
  -1.37999998E-02  -1.18258221E-08
  -1.37499999E-02  -1.21783339E-08
  -1.37000000E-02  -1.25367361E-08
  -1.36500001E-02  -1.29015110E-08
  -1.36000002E-02  -1.32743292E-08
  -1.35500003E-02  -1.36574556E-08
  -1.35000004E-02  -1.40528966E-08
  -1.34500004E-02  -1.44616523E-08
  -1.33999996E-02  -1.48834118E-08
  -1.33499997E-02  -1.53168376E-08
  -1.32999998E-02  -1.57603193E-08
  -1.32499998E-02  -1.62128586E-08
  -1.31999999E-02  -1.66746972E-08
  -1.31500000E-02  -1.71474053E-08
  -1.31000001E-02  -1.76333756E-08
  -1.30500002E-02  -1.81349531E-08
  -1.30000003E-02  -1.86535765E-08
  -1.29500004E-02  -1.91893132E-08
  -1.29000004E-02  -1.97410213E-08
  -1.28499996E-02  -2.03070343E-08
  -1.27999997E-02  -2.08861177E-08
  -1.27499998E-02  -2.14782343E-08
  -1.26999998E-02  -2.20847820E-08
  -1.26499999E-02  -2.27082140E-08
  -1.26000000E-02  -2.33511681E-08
  -1.25500001E-02  -2.40155185E-08
  -1.25000002E-02  -2.47017553E-08
  -1.24500003E-02  -2.54089798E-08
  -1.24000004E-02  -2.61355257E-08
  -1.23500004E-02  -2.68799347E-08
  -1.22999996E-02  -2.76418533E-08
  -1.22499997E-02  -2.84224573E-08
  -1.21999998E-02  -2.92241786E-08
  -1.21499998E-02  -3.00498968E-08
  -1.20999999E-02  -3.09019192E-08
  -1.20500000E-02  -3.17811981E-08
  -1.20000001E-02  -3.26871508E-08
  -1.19500002E-02  -3.36181998E-08
  -1.19000003E-02  -3.45727145E-08
  -1.18500004E-02  -3.55500269E-08
  -1.18000004E-02  -3.65510360E-08
  -1.17499996E-02  -3.75780935E-08
  -1.16999997E-02  -3.86342762E-08
  -1.16499998E-02  -3.97223019E-08
  -1.15999999E-02  -4.08436200E-08
  -1.15499999E-02  -4.19980601E-08
  -1.15000000E-02  -4.31841976E-08
  -1.14500001E-02  -4.44003234E-08
  -1.14000002E-02  -4.56454892E-08
  -1.13500003E-02  -4.69203094E-08
  -1.13000004E-02  -4.82270330E-08
  -1.12500004E-02  -4.95688859E-08
  -1.11999996E-02  -5.09490157E-08
  -1.11499997E-02  -5.23694226E-08
  -1.10999998E-02  -5.38304370E-08
  -1.10499999E-02  -5.53309292E-08
  -1.09999999E-02  -5.68691938E-08
  -1.09500000E-02  -5.84440585E-08
  -1.09000001E-02  -6.00558394E-08
  -1.08500002E-02  -6.17066291E-08
  -1.08000003E-02  -6.33997530E-08
  -1.07500004E-02  -6.51387708E-08
  -1.07000005E-02  -6.69262903E-08
  -1.06499996E-02  -6.87632280E-08
  -1.05999997E-02  -7.06488663E-08
  -1.05499998E-02  -7.25816420E-08
  -1.04999999E-02  -7.45602691E-08
  -1.04499999E-02  -7.65848398E-08
  -1.04000000E-02  -7.86572798E-08
  -1.03500001E-02  -8.07810352E-08
  -1.03000002E-02  -8.29600495E-08
  -1.02500003E-02  -8.51975415E-08
  -1.02000004E-02  -8.74951382E-08
  -1.01500005E-02  -8.98526693E-08
  -1.00999996E-02  -9.22688130E-08
  -1.00499997E-02  -9.47422336E-08
  -9.99999978E-03  -9.72728103E-08
  -9.94999986E-03  -9.98622767E-08
  -9.89999995E-03  -1.02514122E-07
  -9.85000003E-03  -1.05232658E-07
  -9.80000012E-03  -1.08021752E-07
  -9.75000020E-03  -1.10883740E-07
  -9.70000029E-03  -1.13819105E-07
  -9.65000037E-03  -1.16826925E-07
  -9.60000046E-03  -1.19905948E-07
  -9.54999961E-03  -1.23055912E-07
  -9.49999969E-03  -1.26278380E-07
  -9.44999978E-03  -1.29576861E-07
  -9.39999986E-03  -1.32955989E-07
  -9.34999995E-03  -1.36420226E-07
  -9.30000003E-03  -1.39972769E-07
  -9.25000012E-03  -1.43614869E-07
  -9.20000020E-03  -1.47346100E-07
  -9.15000029E-03  -1.51165395E-07
  -9.10000037E-03  -1.55072399E-07
  -9.05000046E-03  -1.59068563E-07
  -8.99999961E-03  -1.63157267E-07
  -8.94999970E-03  -1.67343430E-07
  -8.89999978E-03  -1.71632053E-07
  -8.84999987E-03  -1.76027143E-07
  -8.79999995E-03  -1.80530733E-07
  -8.75000004E-03  -1.85142994E-07
  -8.70000012E-03  -1.89863172E-07
  -8.65000021E-03  -1.94690898E-07
  -8.60000029E-03  -1.99627408E-07
  -8.55000038E-03  -2.04676056E-07
  -8.50000046E-03  -2.09841915E-07
  -8.44999962E-03  -2.15130584E-07
  -8.39999970E-03  -2.20546852E-07
  -8.34999979E-03  -2.26093690E-07
  -8.29999987E-03  -2.31772020E-07
  -8.24999996E-03  -2.37581503E-07
  -8.20000004E-03  -2.43521868E-07
  -8.15000013E-03  -2.49594251E-07
  -8.10000021E-03  -2.55801922E-07
  -8.05000030E-03  -2.62150024E-07
  -8.00000038E-03  -2.68644641E-07
  -7.95000046E-03  -2.75291342E-07
  -7.89999962E-03  -2.82093993E-07
  -7.84999970E-03  -2.89054356E-07
  -7.79999979E-03  -2.96172658E-07
  -7.74999987E-03  -3.03448729E-07
  -7.69999996E-03  -3.10883621E-07
  -7.65000004E-03  -3.18480346E-07
  -7.60000013E-03  -3.26244191E-07
  -7.55000021E-03  -3.34181493E-07
  -7.49999983E-03  -3.42298648E-07
  -7.44999992E-03  -3.50600459E-07
  -7.40000000E-03  -3.59089682E-07
  -7.35000009E-03  -3.67767257E-07
  -7.30000017E-03  -3.76633409E-07
  -7.24999979E-03  -3.85689162E-07
  -7.19999988E-03  -3.94937558E-07
  -7.14999996E-03  -4.04383741E-07
  -7.10000005E-03  -4.14034531E-07
  -7.05000013E-03  -4.23897006E-07
  -7.00000022E-03  -4.33976993E-07
  -6.94999984E-03  -4.44278299E-07
  -6.89999992E-03  -4.54802574E-07
  -6.85000001E-03  -4.65550642E-07
  -6.80000009E-03  -4.76523553E-07
  -6.75000018E-03  -4.87724208E-07
  -6.69999979E-03  -4.99157807E-07
  -6.64999988E-03  -5.10831228E-07
  -6.59999996E-03  -5.22752259E-07
  -6.55000005E-03  -5.34927665E-07
  -6.50000013E-03  -5.47362390E-07
  -6.45000022E-03  -5.60059163E-07
  -6.39999984E-03  -5.73019406E-07
  -6.34999992E-03  -5.86244425E-07
  -6.30000001E-03  -5.99737177E-07
  -6.25000009E-03  -6.13502664E-07
  -6.20000018E-03  -6.27548161E-07
  -6.14999980E-03  -6.41881911E-07
  -6.09999988E-03  -6.56511759E-07
  -6.04999997E-03  -6.71443900E-07
  -6.00000005E-03  -6.86682142E-07
  -5.95000014E-03  -7.02228704E-07
  -5.90000022E-03  -7.18085346E-07
  -5.84999984E-03  -7.34254968E-07
  -5.79999993E-03  -7.50742743E-07
  -5.75000001E-03  -7.67555889E-07
  -5.70000010E-03  -7.84703275E-07
  -5.65000018E-03  -8.02193597E-07
  -5.59999980E-03  -8.20034131E-07
  -5.54999989E-03  -8.38229994E-07
  -5.49999997E-03  -8.56784311E-07
  -5.45000006E-03  -8.75699300E-07
  -5.40000014E-03  -8.94978086E-07
  -5.35000023E-03  -9.14625616E-07
  -5.29999984E-03  -9.34649279E-07
  -5.24999993E-03  -9.55058454E-07
  -5.20000001E-03  -9.75862577E-07
  -5.15000010E-03  -9.97070060E-07
  -5.10000018E-03  -1.01868716E-06
  -5.04999980E-03  -1.04071819E-06
  -4.99999989E-03  -1.06316622E-06
  -4.94999997E-03  -1.08603422E-06
  -4.90000006E-03  -1.10932751E-06
  -4.85000014E-03  -1.13305362E-06
  -4.80000023E-03  -1.15722173E-06
  -4.74999985E-03  -1.18184244E-06
  -4.69999993E-03  -1.20692505E-06
  -4.65000002E-03  -1.23247696E-06
  -4.60000010E-03  -1.25850374E-06
  -4.55000019E-03  -1.28500903E-06
  -4.49999981E-03  -1.31199624E-06
  -4.44999989E-03  -1.33947049E-06
  -4.39999998E-03  -1.36743915E-06
  -4.35000006E-03  -1.39591145E-06
  -4.30000015E-03  -1.42489841E-06
  -4.25000023E-03  -1.45441038E-06
  -4.19999985E-03  -1.48445633E-06
  -4.14999994E-03  -1.51504253E-06
  -4.10000002E-03  -1.54617351E-06
  -4.05000011E-03  -1.57785325E-06
  -4.00000019E-03  -1.61008666E-06
  -3.94999981E-03  -1.64288099E-06
  -3.89999989E-03  -1.67624557E-06
  -3.84999998E-03  -1.71019155E-06
  -3.80000006E-03  -1.74473007E-06
  -3.74999992E-03  -1.77987090E-06
  -3.70000000E-03  -1.81562154E-06
  -3.65000009E-03  -1.85198758E-06
  -3.59999994E-03  -1.88897354E-06
  -3.55000002E-03  -1.92658399E-06
  -3.50000011E-03  -1.96482642E-06
  -3.44999996E-03  -2.00370937E-06
  -3.40000005E-03  -2.04324397E-06
  -3.34999990E-03  -2.08344204E-06
  -3.29999998E-03  -2.12431382E-06
  -3.25000007E-03  -2.16586841E-06
  -3.19999992E-03  -2.20811171E-06
  -3.15000000E-03  -2.25104895E-06
  -3.10000009E-03  -2.29468469E-06
  -3.04999994E-03  -2.33902551E-06
  -3.00000003E-03  -2.38407983E-06
  -2.95000011E-03  -2.42985880E-06
  -2.89999996E-03  -2.47637377E-06
  -2.85000005E-03  -2.52363657E-06
  -2.79999990E-03  -2.57165607E-06
  -2.74999999E-03  -2.62044023E-06
  -2.70000007E-03  -2.66999427E-06
  -2.64999992E-03  -2.72032321E-06
  -2.60000001E-03  -2.77143204E-06
  -2.55000009E-03  -2.82332894E-06
  -2.49999994E-03  -2.87602393E-06
  -2.45000003E-03  -2.92952927E-06
  -2.40000011E-03  -2.98385658E-06
  -2.34999997E-03  -3.03901629E-06
  -2.30000005E-03  -3.09501615E-06
  -2.24999990E-03  -3.15186207E-06
  -2.19999999E-03  -3.20955792E-06
  -2.15000007E-03  -3.26810869E-06
  -2.09999993E-03  -3.32752165E-06
  -2.05000001E-03  -3.38780592E-06
  -2.00000009E-03  -3.44897308E-06
  -1.94999995E-03  -3.51103472E-06
  -1.90000003E-03  -3.57400222E-06
  -1.85000000E-03  -3.63788331E-06
  -1.79999997E-03  -3.70268458E-06
  -1.75000005E-03  -3.76840899E-06
  -1.70000002E-03  -3.83506176E-06
  -1.64999999E-03  -3.90264904E-06
  -1.59999996E-03  -3.97117856E-06
  -1.55000004E-03  -4.04066031E-06
  -1.50000001E-03  -4.11110614E-06
  -1.44999998E-03  -4.18252694E-06
  -1.39999995E-03  -4.25493135E-06
  -1.35000004E-03  -4.32832576E-06
  -1.30000000E-03  -4.40271333E-06
  -1.24999997E-03  -4.47809816E-06
  -1.20000006E-03  -4.55448389E-06
  -1.15000003E-03  -4.63187689E-06
  -1.09999999E-03  -4.71028534E-06
  -1.04999996E-03  -4.78972152E-06
  -1.00000005E-03  -4.87019497E-06
  -9.50000016E-04  -4.95171435E-06
  -8.99999985E-04  -5.03428691E-06
  -8.50000011E-04  -5.11791541E-06
  -7.99999980E-04  -5.20260210E-06
  -7.50000007E-04  -5.28834835E-06
  -6.99999975E-04  -5.37515916E-06
  -6.50000002E-04  -5.46304091E-06
  -6.00000028E-04  -5.55200313E-06
  -5.49999997E-04  -5.64205584E-06
  -5.00000024E-04  -5.73320722E-06
  -4.49999992E-04  -5.82546272E-06
  -3.99999990E-04  -5.91882645E-06
  -3.49999988E-04  -6.01329930E-06
  -3.00000014E-04  -6.10888037E-06
  -2.50000012E-04  -6.20557103E-06
  -1.99999995E-04  -6.30337536E-06
  -1.50000007E-04  -6.40229973E-06
  -9.99999975E-05  -6.50235279E-06
  -4.99999987E-05  -6.60354317E-06
   0.00000000      -6.70587679E-06
   4.99999987E-05  -6.80935545E-06
   9.99999975E-05  -6.91397827E-06
   1.50000007E-04  -7.01974204E-06
   1.99999995E-04  -7.12664541E-06
   2.50000012E-04  -7.23468838E-06
   3.00000014E-04  -7.34387504E-06
   3.49999988E-04  -7.45421130E-06
   3.99999990E-04  -7.56570489E-06
   4.49999992E-04  -7.67835900E-06
   5.00000024E-04  -7.79217407E-06
   5.49999997E-04  -7.90714967E-06
   6.00000028E-04  -8.02328032E-06
   6.50000002E-04  -8.14055966E-06
   6.99999975E-04  -8.25898405E-06
   7.50000007E-04  -8.37855532E-06
   7.99999980E-04  -8.49927710E-06
   8.50000011E-04  -8.62115121E-06
   8.99999985E-04  -8.74418220E-06
   9.50000016E-04  -8.86836824E-06
   1.00000005E-03  -8.99370571E-06
   1.04999996E-03  -9.12018459E-06
   1.09999999E-03  -9.24779761E-06
   1.15000003E-03  -9.37653567E-06
   1.20000006E-03  -9.50639696E-06
   1.24999997E-03  -9.63737966E-06
   1.30000000E-03  -9.76948468E-06
   1.35000004E-03  -9.90271201E-06
   1.39999995E-03  -1.00370571E-05
   1.44999998E-03  -1.01725154E-05
   1.50000001E-03  -1.03090733E-05
   1.55000004E-03  -1.04467190E-05
   1.59999996E-03  -1.05854415E-05
   1.64999999E-03  -1.07252317E-05
   1.70000002E-03  -1.08660843E-05
   1.75000005E-03  -1.10079936E-05
   1.79999997E-03  -1.11509562E-05
   1.85000000E-03  -1.12949647E-05
   1.90000003E-03  -1.14400109E-05
   1.94999995E-03  -1.15860821E-05
   2.00000009E-03  -1.17331620E-05
   2.05000001E-03  -1.18812322E-05
   2.09999993E-03  -1.20302784E-05
   2.15000007E-03  -1.21802859E-05
   2.19999999E-03  -1.23312484E-05
   2.24999990E-03  -1.24831568E-05
   2.30000005E-03  -1.26360010E-05
   2.34999997E-03  -1.27897692E-05
   2.40000011E-03  -1.29444434E-05
   2.45000003E-03  -1.31000024E-05
   2.49999994E-03  -1.32564255E-05
   2.55000009E-03  -1.34136899E-05
   2.60000001E-03  -1.35717746E-05
   2.64999992E-03  -1.37306643E-05
   2.70000007E-03  -1.38903479E-05
   2.74999999E-03  -1.40508082E-05
   2.79999990E-03  -1.42120307E-05