  -3.99999991E-02   0.00000000    
  -3.99499983E-02   0.00000000    
  -3.99000011E-02   0.00000000    
  -3.98500003E-02   0.00000000    
  -3.97999994E-02   3.94706581E-20
  -3.97499986E-02   3.22485745E-19
  -3.97000015E-02   1.41647535E-18
  -3.96500006E-02   4.40790776E-18
  -3.95999998E-02   1.08471221E-17
  -3.95499989E-02   2.24194467E-17
  -3.95000018E-02   4.05067401E-17
  -3.94500010E-02   6.59596467E-17
  -3.94000001E-02   9.93054214E-17
  -3.93499993E-02   1.41304710E-16
  -3.92999984E-02   1.93495267E-16
  -3.92500013E-02   2.58365351E-16
  -3.92000005E-02   3.39095188E-16
  -3.91499996E-02   4.39167260E-16
  -3.90999988E-02   5.62301499E-16
  -3.90500017E-02   7.12979660E-16
  -3.90000008E-02   8.97340563E-16
  -3.89500000E-02   1.12370218E-15
  -3.88999991E-02   1.40178436E-15
  -3.88499983E-02   1.74022072E-15
  -3.88000011E-02   2.14312168E-15
  -3.87500003E-02   2.60766843E-15
  -3.86999995E-02   3.12498237E-15
  -3.86499986E-02   3.68515406E-15
  -3.86000015E-02   4.28476572E-15
  -3.85500006E-02   4.93286112E-15
  -3.84999998E-02   5.65081598E-15
  -3.84499989E-02   6.46371350E-15
  -3.84000018E-02   7.38506681E-15
  -3.83500010E-02   8.40113705E-15
  -3.83000001E-02   9.46327486E-15
  -3.82499993E-02   1.04948263E-14
  -3.81999984E-02   1.14130879E-14
  -3.81500013E-02   1.21587624E-14
  -3.81000005E-02   1.27194347E-14
  -3.80499996E-02   1.31336888E-14
  -3.79999988E-02   1.34698254E-14
  -3.79500017E-02   1.37851080E-14
  -3.79000008E-02   1.40820591E-14
  -3.78500000E-02   1.42821054E-14
  -3.77999991E-02   1.42309158E-14
  -3.77499983E-02   1.37362647E-14
  -3.77000012E-02   1.26239190E-14
  -3.76500003E-02   1.07870120E-14
  -3.75999995E-02   8.20524628E-15
  -3.75499986E-02   4.92267978E-15
  -3.75000015E-02   9.92200207E-16
  -3.74500006E-02  -3.58838393E-15
  -3.73999998E-02  -8.91799570E-15
  -3.73499990E-02  -1.51901315E-14
  -3.73000018E-02  -2.26449227E-14
  -3.72500010E-02  -3.14937150E-14
  -3.72000001E-02  -4.18459551E-14
  -3.71499993E-02  -5.36663338E-14
  -3.70999984E-02  -6.67771231E-14
  -3.70500013E-02  -8.09036404E-14
  -3.70000005E-02  -9.57465579E-14
  -3.69499996E-02  -1.11058657E-13
  -3.68999988E-02  -1.26706059E-13
  -3.68500017E-02  -1.42701199E-13
  -3.68000008E-02  -1.59200913E-13
  -3.67500000E-02  -1.76466453E-13
  -3.66999991E-02  -1.94783222E-13
  -3.66499983E-02  -2.14345807E-13
  -3.66000012E-02  -2.35129353E-13
  -3.65500003E-02  -2.56790113E-13
  -3.64999995E-02  -2.78647358E-13
  -3.64499986E-02  -2.99785208E-13
  -3.64000015E-02  -3.19265800E-13
  -3.63500006E-02  -3.36386247E-13
  -3.62999998E-02  -3.50864113E-13
  -3.62499990E-02  -3.62840237E-13
  -3.62000018E-02  -3.72647442E-13
  -3.61500010E-02  -3.80406888E-13
  -3.61000001E-02  -3.85624394E-13
  -3.60499993E-02  -3.87011305E-13
  -3.59999985E-02  -3.82699298E-13
  -3.59500013E-02  -3.70854199E-13
  -3.59000005E-02  -3.50476457E-13
  -3.58499996E-02  -3.22015689E-13
  -3.57999988E-02  -2.87424950E-13
  -3.57500017E-02  -2.49475950E-13
  -3.57000008E-02  -2.10499383E-13
  -3.56500000E-02  -1.71048587E-13
  -3.55999991E-02  -1.29139023E-13
  -3.55499983E-02  -8.05702280E-14
  -3.55000012E-02  -2.04009274E-14
  -3.54500003E-02   5.49138100E-14
  -3.53999995E-02   1.45643846E-13
  -3.53499986E-02   2.48133952E-13
  -3.53000015E-02   3.55921347E-13
  -3.52500007E-02   4.62374334E-13
  -3.51999998E-02   5.63797815E-13
  -3.51499990E-02   6.61534033E-13
  -3.51000018E-02   7.61834118E-13
  -3.50500010E-02   8.73185638E-13
  -3.50000001E-02   1.00199645E-12
  -3.49499993E-02   1.14850707E-12
  -3.48999985E-02   1.30499528E-12
  -3.48500013E-02   1.45754253E-12
  -3.48000005E-02   1.59107449E-12
  -3.47499996E-02   1.69573470E-12
  -3.46999988E-02   1.77169499E-12
  -3.46500017E-02   1.82983121E-12
  -3.46000008E-02   1.88734813E-12
  -3.45500000E-02   1.95975939E-12
  -3.44999991E-02   2.05262695E-12
  -3.44499983E-02   2.15702738E-12
  -3.44000012E-02   2.25144035E-12
  -3.43500003E-02   2.30997556E-12
  -3.42999995E-02   2.31375184E-12
  -3.42499986E-02   2.26029438E-12
  -3.42000015E-02   2.16612210E-12
  -3.41500007E-02   2.06040328E-12
  -3.40999998E-02   1.97164008E-12
  -3.40499990E-02   1.91299949E-12
  -3.40000018E-02   1.87327649E-12
  -3.39500010E-02   1.81861373E-12
  -3.39000002E-02   1.70550303E-12
  -3.38499993E-02   1.50019363E-12
  -3.37999985E-02   1.19592151E-12
  -3.37500013E-02   8.19416637E-13
  -3.37000005E-02   4.22306938E-13
  -3.36499996E-02   5.98044428E-14
  -3.35999988E-02  -2.34552232E-13
  -3.35500017E-02  -4.66452940E-13
  -3.35000008E-02  -6.81431745E-13
  -3.34500000E-02  -9.46433470E-13
  -3.33999991E-02  -1.31913686E-12
  -3.33499983E-02  -1.81844904E-12
  -3.33000012E-02  -2.41044402E-12
  -3.32500003E-02  -3.01810812E-12
  -3.31999995E-02  -3.55270349E-12
  -3.31499986E-02  -3.95397560E-12
  -3.31000015E-02  -4.22087625E-12
  -3.30500007E-02  -4.41716065E-12
  -3.29999998E-02  -4.64662510E-12
  -3.29499990E-02  -5.00673634E-12
  -3.29000019E-02  -5.54053938E-12
  -3.28500010E-02  -6.20949819E-12
  -3.28000002E-02  -6.90214118E-12
  -3.27499993E-02  -7.47777795E-12
  -3.26999985E-02  -7.82783647E-12
  -3.26500013E-02  -7.92741827E-12
  -3.26000005E-02  -7.85179907E-12
  -3.25499997E-02  -7.74703218E-12
  -3.24999988E-02  -7.76459019E-12
  -3.24500017E-02  -7.98796185E-12
  -3.24000008E-02  -8.38534190E-12
  -3.23500000E-02  -8.81317241E-12
  -3.22999991E-02  -9.07325950E-12
  -3.22499983E-02  -9.00104470E-12
  -3.22000012E-02  -8.54588362E-12
  -3.21500003E-02  -7.80462587E-12
  -3.20999995E-02  -6.98860371E-12
  -3.20499986E-02  -6.33395723E-12
  -3.20000015E-02  -5.99282039E-12
  -3.19500007E-02  -5.95504505E-12
  -3.18999998E-02  -6.03977545E-12
  -3.18499990E-02  -5.96645346E-12
  -3.18000019E-02  -5.47817521E-12
  -3.17500010E-02  -4.46358272E-12
  -3.17000002E-02  -3.01996058E-12
  -3.16499993E-02  -1.42347028E-12
  -3.15999985E-02  -1.35166680E-14
  -3.15500014E-02   9.60870923E-13
  -3.15000005E-02   1.46331981E-12
  -3.14499997E-02   1.70129839E-12
  -3.13999988E-02   2.04482850E-12
  -3.13500017E-02   2.86260577E-12
  -3.13000008E-02   4.34638436E-12
  -3.12500000E-02   6.40513424E-12
  -3.11999992E-02   8.68364408E-12
  -3.11500002E-02   1.07058416E-11
  -3.10999993E-02   1.20846935E-11
  -3.10500003E-02   1.27053481E-11
  -3.09999995E-02   1.27941668E-11
  -3.09500005E-02   1.28336569E-11
  -3.08999997E-02   1.33525196E-11
  -3.08500007E-02   1.46803281E-11
  -3.07999998E-02   1.67787607E-11
  -3.07500008E-02   1.92329815E-11
  -3.07000000E-02   2.14174616E-11
  -3.06499992E-02   2.27701261E-11
  -3.06000002E-02   2.30539234E-11
  -3.05499993E-02   2.24831213E-11
  -3.05000003E-02   2.16469672E-11
  -3.04499995E-02   2.12535666E-11
  -3.04000005E-02   2.18021677E-11
  -3.03499997E-02   2.33320221E-11
  -3.03000007E-02   2.53696734E-11
  -3.02499998E-02   2.71115578E-11
  -3.02000009E-02   2.77716530E-11
  -3.01500000E-02   2.69428993E-11
  -3.00999992E-02   2.48055621E-11
  -3.00500002E-02   2.20768907E-11
  -2.99999993E-02   1.97101432E-11
  -2.99500003E-02   1.84678956E-11
  -2.98999995E-02   1.85599591E-11
  -2.98500005E-02   1.95171795E-11
  -2.97999997E-02   2.03727955E-11
  -2.97500007E-02   2.00844653E-11
  -2.96999998E-02   1.80148934E-11
  -2.96500009E-02   1.42517101E-11
  -2.96000000E-02   9.60967590E-12
  -2.95499992E-02   5.29668757E-12
  -2.95000002E-02   2.37970082E-12
  -2.94499993E-02   1.28664386E-12
  -2.94000003E-02   1.57641511E-12
  -2.93499995E-02   2.09761006E-12
  -2.93000005E-02   1.48341864E-12
  -2.92499997E-02  -1.22784411E-12
  -2.92000007E-02  -6.12602200E-12
  -2.91499998E-02  -1.23390976E-11
  -2.91000009E-02  -1.83804118E-11
  -2.90500000E-02  -2.27951616E-11
  -2.89999992E-02  -2.48234454E-11
  -2.89500002E-02  -2.47755722E-11
  -2.88999993E-02  -2.39328869E-11
  -2.88500004E-02  -2.39969676E-11
  -2.87999995E-02  -2.63190095E-11
  -2.87500005E-02  -3.12536351E-11
  -2.86999997E-02  -3.79406055E-11
  -2.86500007E-02  -4.46352746E-11
  -2.85999998E-02  -4.94618964E-11
  -2.85500009E-02  -5.12634171E-11
  -2.85000000E-02  -5.01616457E-11
  -2.84499992E-02  -4.75568855E-11
  -2.84000002E-02  -4.55411542E-11
  -2.83499993E-02  -4.59671641E-11
  -2.83000004E-02  -4.95843436E-11
  -2.82499995E-02  -5.56410022E-11
  -2.82000005E-02  -6.21556001E-11
  -2.81499997E-02  -6.67626440E-11
  -2.81000007E-02  -6.77707196E-11
  -2.80499998E-02  -6.49577267E-11
  -2.80000009E-02  -5.97279101E-11
  -2.79500000E-02  -5.45316986E-11
  -2.78999992E-02  -5.17830188E-11
  -2.78500002E-02  -5.27484167E-11
  -2.77999993E-02  -5.69154862E-11
  -2.77500004E-02  -6.21497437E-11
  -2.76999995E-02  -6.56010454E-11
  -2.76500005E-02  -6.49762952E-11
  -2.75999997E-02  -5.96116004E-11
  -2.75500007E-02  -5.08457929E-11
  -2.74999999E-02  -4.14959317E-11
  -2.74500009E-02  -3.46378135E-11
  -2.74000000E-02  -3.22198240E-11
  -2.73499992E-02  -3.41354583E-11
  -2.73000002E-02  -3.81952213E-11
  -2.72499993E-02  -4.10453234E-11
  -2.72000004E-02  -3.96508069E-11
  -2.71499995E-02  -3.26887684E-11
  -2.71000005E-02  -2.12136107E-11
  -2.70499997E-02  -8.26417320E-12
  -2.70000007E-02   2.44744914E-12
  -2.69499999E-02   8.20188969E-12
  -2.69000009E-02   8.54724364E-12
  -2.68500000E-02   5.58737388E-12
  -2.67999992E-02   3.11609202E-12
  -2.67500002E-02   4.94902990E-12
  -2.66999993E-02   1.31831438E-11
  -2.66500004E-02   2.71731023E-11
  -2.65999995E-02   4.37159961E-11
  -2.65500005E-02   5.84036708E-11
  -2.64999997E-02   6.75695958E-11
  -2.64500007E-02   6.99667269E-11
  -2.63999999E-02   6.74050260E-11
  -2.63500009E-02   6.40231756E-11
  -2.63000000E-02   6.44784295E-11
  -2.62499992E-02   7.18394580E-11
  -2.62000002E-02   8.61284655E-11
  -2.61499994E-02   1.04196041E-10
  -2.61000004E-02   1.21030019E-10
  -2.60499995E-02   1.31952060E-10
  -2.60000005E-02   1.34734710E-10
  -2.59499997E-02   1.30675915E-10
  -2.59000007E-02   1.24109278E-10
  -2.58499999E-02   1.20521079E-10
  -2.58000009E-02   1.24082120E-10
  -2.57500000E-02   1.35694345E-10
  -2.56999992E-02   1.52453758E-10
  -2.56500002E-02   1.68818654E-10
  -2.55999994E-02   1.79008419E-10
  -2.55500004E-02   1.79586443E-10
  -2.54999995E-02   1.71064066E-10
  -2.54500005E-02   1.57770283E-10
  -2.53999997E-02   1.45993134E-10
  -2.53500007E-02   1.41181317E-10
  -2.52999999E-02   1.45443893E-10
  -2.52500009E-02   1.56487878E-10
  -2.52000000E-02   1.68517256E-10
  -2.51499992E-02   1.74744968E-10
  -2.51000002E-02   1.70429254E-10
  -2.50499994E-02   1.55076285E-10
  -2.50000004E-02   1.32788128E-10
  -2.49499995E-02   1.10543796E-10
  -2.49000005E-02   9.51296888E-11
  -2.48499997E-02   9.00671690E-11
  -2.48000007E-02   9.39254022E-11
  -2.47499999E-02   1.00821705E-10
  -2.47000009E-02   1.02945943E-10
  -2.46500000E-02   9.40269182E-11
  -2.45999992E-02   7.22024524E-11
  -2.45500002E-02   4.09811803E-11
  -2.44999994E-02   7.80961060E-12
  -2.44500004E-02  -1.91742785E-11
  -2.43999995E-02  -3.47846196E-11
  -2.43500005E-02  -3.91941653E-11
  -2.42999997E-02  -3.79836128E-11
  -2.42500007E-02  -3.97475698E-11
  -2.41999999E-02  -5.22719090E-11
  -2.41500009E-02  -7.89695878E-11
  -2.41000000E-02  -1.17190813E-10
  -2.40499992E-02  -1.59220692E-10
  -2.40000002E-02  -1.95586422E-10
  -2.39499994E-02  -2.19244053E-10
  -2.39000004E-02  -2.28780134E-10
  -2.38499995E-02  -2.29159414E-10
  -2.38000005E-02  -2.29617839E-10
  -2.37499997E-02  -2.39577358E-10
  -2.37000007E-02  -2.64372801E-10
  -2.36499999E-02  -3.02711634E-10
  -2.36000009E-02  -3.47053913E-10
  -2.35500000E-02  -3.86813970E-10
  -2.34999992E-02  -4.13009654E-10
  -2.34500002E-02  -4.22299751E-10
  -2.33999994E-02  -4.18574592E-10
  -2.33500004E-02  -4.11323586E-10
  -2.32999995E-02  -4.11437467E-10
  -2.32500006E-02  -4.26275654E-10
  -2.31999997E-02  -4.56204963E-10
  -2.31500007E-02  -4.94205510E-10
  -2.30999999E-02  -5.28794786E-10
  -2.30500009E-02  -5.49033208E-10
  -2.30000000E-02  -5.49404466E-10
  -2.29499992E-02  -5.32370592E-10
  -2.29000002E-02  -5.07396403E-10
  -2.28499994E-02  -4.86801321E-10
  -2.28000004E-02  -4.80234408E-10
  -2.27499995E-02  -4.90228580E-10
  -2.27000006E-02  -5.10860632E-10
  -2.26499997E-02  -5.30189892E-10
  -2.26000007E-02  -5.35460010E-10
  -2.25499999E-02  -5.18782683E-10
  -2.25000009E-02  -4.80752327E-10
  -2.24500000E-02  -4.30319030E-10
  -2.23999992E-02  -3.80894927E-10
  -2.23500002E-02  -3.44366369E-10
  -2.22999994E-02  -3.25664801E-10
  -2.22500004E-02  -3.20354465E-10
  -2.21999995E-02  -3.16389331E-10
  -2.21500006E-02  -2.99338526E-10
  -2.20999997E-02  -2.58801841E-10
  -2.20500007E-02  -1.93153188E-10
  -2.19999999E-02  -1.10444015E-10
  -2.19500009E-02  -2.49812046E-11
  -2.19000001E-02   4.89665496E-11
  -2.18499992E-02   1.03557968E-10
  -2.18000002E-02   1.40990178E-10
  -2.17499994E-02   1.72650699E-10
  -2.17000004E-02   2.14105664E-10
  -2.16499995E-02   2.78099821E-10
  -2.16000006E-02   3.68683112E-10
  -2.15499997E-02   4.79129847E-10
  -2.15000007E-02   5.94661154E-10
  -2.14499999E-02   6.98836322E-10
  -2.14000009E-02   7.80804088E-10
  -2.13500001E-02   8.40164993E-10
  -2.12999992E-02   8.87210916E-10
  -2.12500002E-02   9.38347622E-10
  -2.11999994E-02   1.00867237E-09
  -2.11500004E-02   1.10499643E-09
  -2.10999995E-02   1.22245991E-09
  -2.10500006E-02   1.34632605E-09
  -2.09999997E-02   1.45823775E-09
  -2.09500007E-02   1.54419577E-09
  -2.08999999E-02   1.60069846E-09
  -2.08500009E-02   1.63624703E-09
  -2.08000001E-02   1.66746228E-09
  -2.07499992E-02   1.71147474E-09
  -2.07000002E-02   1.77795356E-09
  -2.06499994E-02   1.86435978E-09
  -2.06000004E-02   1.95661998E-09
  -2.05499995E-02   2.03500150E-09
  -2.05000006E-02   2.08263162E-09
  -2.04499997E-02   2.09286410E-09
  -2.04000007E-02   2.07216111E-09
  -2.03499999E-02   2.03711581E-09
  -2.03000009E-02   2.00686778E-09
  -2.02500001E-02   1.99425454E-09
  -2.01999992E-02   1.99965844E-09
  -2.01500002E-02   2.01036032E-09
  -2.00999994E-02   2.00576977E-09
  -2.00500004E-02   1.96626271E-09
  -1.99999996E-02   1.88169791E-09
  -1.99500006E-02   1.75577530E-09
  -1.98999997E-02   1.60422020E-09
  -1.98500007E-02   1.44752477E-09
  -1.97999999E-02   1.30144928E-09
  -1.97500009E-02   1.16953180E-09
  -1.97000001E-02   1.04100917E-09
  -1.96499992E-02   8.95161056E-10
  -1.96000002E-02   7.10207226E-10
  -1.95499994E-02   4.72806683E-10
  -1.95000004E-02   1.83893165E-10
  -1.94499996E-02  -1.41829673E-10
  -1.94000006E-02  -4.82586748E-10
  -1.93499997E-02  -8.19481594E-10
  -1.93000007E-02  -1.14526055E-09
  -1.92499999E-02  -1.46793067E-09
  -1.92000009E-02  -1.80754733E-09
  -1.91500001E-02  -2.18753637E-09
  -1.90999992E-02  -2.62440669E-09
  -1.90500002E-02  -3.12046189E-09
  -1.89999994E-02  -3.66283182E-09
  -1.89500004E-02  -4.22932311E-09
  -1.88999996E-02  -4.79852202E-09
  -1.88500006E-02  -5.35964295E-09
  -1.87999997E-02  -5.91767124E-09
  -1.87500007E-02  -6.49144072E-09
  -1.86999999E-02  -7.10543269E-09
  -1.86500009E-02  -7.77893128E-09
  -1.86000001E-02  -8.51739568E-09
  -1.85499992E-02  -9.30995547E-09
  -1.85000002E-02  -1.01342232E-08
  -1.84499994E-02  -1.09663203E-08
  -1.84000004E-02  -1.17916530E-08
  -1.83499996E-02  -1.26115864E-08
  -1.83000006E-02  -1.34429863E-08
  -1.82499997E-02  -1.43107677E-08
  -1.82000007E-02  -1.52367594E-08
  -1.81499999E-02  -1.62298726E-08
  -1.81000009E-02  -1.72820158E-08
  -1.80500001E-02  -1.83716402E-08
  -1.79999992E-02  -1.94733740E-08
  -1.79500002E-02  -2.05694501E-08
  -1.78999994E-02  -2.16577778E-08
  -1.78500004E-02  -2.27529924E-08
  -1.77999996E-02  -2.38799718E-08
  -1.77500006E-02  -2.50626737E-08
  -1.76999997E-02  -2.63132982E-08
  -1.76500008E-02  -2.76266832E-08
  -1.75999999E-02  -2.89824662E-08
  -1.75500009E-02  -3.03541157E-08
  -1.75000001E-02  -3.17207949E-08
  -1.74499992E-02  -3.30767094E-08
  -1.74000002E-02  -3.44337749E-08
  -1.73499994E-02  -3.58162602E-08
  -1.73000004E-02  -3.72499258E-08
  -1.72499996E-02  -3.87504251E-08
  -1.72000006E-02  -4.03162517E-08
  -1.71499997E-02  -4.19294324E-08
  -1.71000008E-02  -4.35637268E-08
  -1.70499999E-02  -4.51965683E-08
  -1.70000009E-02  -4.68194870E-08
  -1.69500001E-02  -4.84421960E-08
  -1.68999992E-02  -5.00885626E-08
  -1.68500002E-02  -5.17861345E-08
  -1.67999994E-02  -5.35540323E-08
  -1.67500004E-02  -5.53946045E-08
  -1.66999996E-02  -5.72926311E-08
  -1.66500006E-02  -5.92224829E-08
  -1.65999997E-02  -6.11600441E-08
  -1.65500008E-02  -6.30939994E-08
  -1.64999999E-02  -6.50313723E-08
  -1.64500009E-02  -6.69948790E-08
  -1.64000001E-02  -6.90131969E-08
  -1.63499992E-02  -7.11085661E-08
  -1.63000003E-02  -7.32873104E-08
  -1.62499994E-02  -7.55376632E-08
  -1.62000004E-02  -7.78357148E-08
  -1.61499996E-02  -8.01570081E-08
  -1.61000006E-02  -8.24883912E-08
  -1.60499997E-02  -8.48348662E-08
  -1.60000008E-02  -8.72182255E-08
  -1.59499999E-02  -8.96681698E-08
  -1.59000009E-02  -9.22098025E-08
  -1.58500001E-02  -9.48532630E-08
  -1.57999992E-02  -9.75901386E-08
  -1.57500003E-02  -1.00398289E-07
  -1.56999994E-02  -1.03252930E-07
  -1.56500004E-02  -1.06138941E-07
  -1.55999996E-02  -1.09058810E-07
  -1.55499997E-02  -1.12032701E-07
  -1.54999997E-02  -1.15090472E-07
  -1.54499998E-02  -1.18259457E-07
  -1.53999999E-02  -1.21553356E-07
  -1.53500000E-02  -1.24967428E-07
  -1.53000001E-02  -1.28482171E-07
  -1.52500002E-02  -1.32073623E-07
  -1.52000003E-02  -1.35725884E-07
  -1.51500003E-02  -1.39440019E-07
  -1.51000004E-02  -1.43235141E-07
  -1.50499996E-02  -1.47141506E-07
  -1.49999997E-02  -1.51188473E-07
  -1.49499997E-02  -1.55392968E-07
  -1.48999998E-02  -1.59753512E-07
  -1.48499999E-02  -1.64252754E-07
  -1.48000000E-02  -1.68867217E-07
  -1.47500001E-02  -1.73579764E-07
  -1.47000002E-02  -1.78389286E-07
  -1.46500003E-02  -1.83313006E-07
  -1.46000003E-02  -1.88380568E-07
  -1.45500004E-02  -1.93622441E-07
  -1.44999996E-02  -1.99058036E-07
  -1.44499997E-02  -2.04688902E-07
  -1.43999998E-02  -2.10500147E-07
  -1.43499998E-02  -2.16469459E-07
  -1.42999999E-02  -2.22579473E-07
  -1.42500000E-02  -2.28827972E-07
  -1.42000001E-02  -2.35231113E-07
  -1.41500002E-02  -2.41818412E-07
  -1.41000003E-02  -2.48621632E-07
  -1.40500003E-02  -2.55662457E-07
  -1.40000004E-02  -2.62945264E-07
  -1.39499996E-02  -2.70457292E-07
  -1.38999997E-02  -2.78177197E-07
  -1.38499998E-02  -2.86086987E-07
  -1.37999998E-02  -2.94182911E-07
  -1.37499999E-02  -3.02479492E-07
  -1.37000000E-02  -3.11005351E-07
  -1.36500001E-02  -3.19792491E-07
  -1.36000002E-02  -3.28864246E-07
  -1.35500003E-02  -3.38227181E-07
  -1.35000004E-02  -3.47870554E-07
  -1.34500004E-02  -3.57774297E-07
  -1.33999996E-02  -3.67920705E-07
  -1.33499997E-02  -3.78305600E-07
  -1.32999998E-02  -3.88943050E-07
  -1.32499998E-02  -3.99861761E-07
  -1.31999999E-02  -4.11094902E-07
  -1.31500000E-02  -4.22667796E-07
  -1.31000001E-02  -4.34589339E-07
  -1.30500002E-02  -4.46850834E-07
  -1.30000003E-02  -4.59433267E-07
  -1.29500004E-02  -4.72318987E-07
  -1.29000004E-02  -4.85503108E-07
  -1.28499996E-02  -4.98998929E-07
  -1.27999997E-02  -5.12834958E-07
  -1.27499998E-02  -5.27044904E-07
  -1.26999998E-02  -5.41655766E-07
  -1.26499999E-02  -5.56678344E-07
  -1.26000000E-02  -5.72106046E-07
  -1.25500001E-02  -5.87921193E-07
  -1.25000002E-02  -6.04107242E-07
  -1.24500003E-02  -6.20659875E-07
  -1.24000004E-02  -6.37593075E-07
  -1.23500004E-02  -6.54936855E-07
  -1.22999996E-02  -6.72727140E-07
  -1.22499997E-02  -6.90993886E-07
  -1.21999998E-02  -7.09751134E-07
  -1.21499998E-02  -7.28995076E-07
  -1.20999999E-02  -7.48710420E-07
  -1.20500000E-02  -7.68881932E-07
  -1.20000001E-02  -7.89506259E-07
  -1.19500002E-02  -8.10598635E-07
  -1.19000003E-02  -8.32190210E-07
  -1.18500004E-02  -8.54318955E-07
  -1.18000004E-02  -8.77016930E-07
  -1.17499996E-02  -9.00300336E-07
  -1.16999997E-02  -9.24167068E-07
  -1.16499998E-02  -9.48603144E-07
  -1.15999999E-02  -9.73594183E-07
  -1.15499999E-02  -9.99138024E-07
  -1.15000000E-02  -1.02525144E-06
  -1.14500001E-02  -1.05196807E-06
  -1.14000002E-02  -1.07932942E-06
  -1.13500003E-02  -1.10737199E-06
  -1.13000004E-02  -1.13611623E-06
  -1.12500004E-02  -1.16556419E-06
  -1.11999996E-02  -1.19570495E-06
  -1.11499997E-02  -1.22652625E-06
  -1.10999998E-02  -1.25802796E-06
  -1.10499999E-02  -1.29022828E-06
  -1.09999999E-02  -1.32316313E-06
  -1.09500000E-02  -1.35687651E-06
  -1.09000001E-02  -1.39140730E-06
  -1.08500002E-02  -1.42677834E-06
  -1.08000003E-02  -1.46299283E-06
  -1.07500004E-02  -1.50004087E-06
  -1.07000005E-02  -1.53791075E-06
  -1.06499996E-02  -1.57660327E-06
  -1.05999997E-02  -1.61613912E-06
  -1.05499998E-02  -1.65655820E-06
  -1.04999999E-02  -1.69791008E-06
  -1.04499999E-02  -1.74023978E-06
  -1.04000000E-02  -1.78357618E-06
  -1.03500001E-02  -1.82792837E-06
  -1.03000002E-02  -1.87328999E-06
  -1.02500003E-02  -1.91965273E-06
  -1.02000004E-02  -1.96701944E-06
  -1.01500005E-02  -2.01541343E-06
  -1.00999996E-02  -2.06487789E-06
  -1.00499997E-02  -2.11546649E-06
  -9.99999978E-03  -2.16722765E-06
  -9.94999986E-03  -2.22019412E-06
  -9.89999995E-03  -2.27437658E-06
  -9.85000003E-03  -2.32976959E-06
  -9.80000012E-03  -2.38636517E-06
  -9.75000020E-03  -2.44416628E-06
  -9.70000029E-03  -2.50319727E-06
  -9.65000037E-03  -2.56350404E-06
  -9.60000046E-03  -2.62514459E-06
  -9.54999961E-03  -2.68817394E-06
  -9.49999969E-03  -2.75263005E-06
  -9.44999978E-03  -2.81852954E-06
  -9.39999986E-03  -2.88587148E-06
  -9.34999995E-03  -2.95465065E-06
  -9.30000003E-03  -3.02487410E-06
  -9.25000012E-03  -3.09657025E-06
  -9.20000020E-03  -3.16979072E-06
  -9.15000029E-03  -3.24460052E-06
  -9.10000037E-03  -3.32106083E-06
  -9.05000046E-03  -3.39921598E-06
  -8.99999961E-03  -3.47908667E-06
  -8.94999970E-03  -3.56067403E-06
  -8.89999978E-03  -3.64397306E-06
  -8.84999987E-03  -3.72899035E-06
  -8.79999995E-03  -3.81575410E-06
  -8.75000004E-03  -3.90431705E-06
  -8.70000012E-03  -3.99474675E-06
  -8.65000021E-03  -4.08710957E-06
  -8.60000029E-03  -4.18145419E-06
  -8.55000038E-03  -4.27780651E-06
  -8.50000046E-03  -4.37617064E-06
  -8.44999962E-03  -4.47654429E-06
  -8.39999970E-03  -4.57893566E-06
  -8.34999979E-03  -4.68337885E-06
  -8.29999987E-03  -4.78993070E-06
  -8.24999996E-03  -4.89866625E-06
  -8.20000004E-03  -5.00965916E-06
  -8.15000013E-03  -5.12296674E-06
  -8.10000021E-03  -5.23862082E-06
  -8.05000030E-03  -5.35663139E-06
  -8.00000038E-03  -5.47700074E-06
  -7.95000046E-03  -5.59973887E-06
  -7.89999962E-03  -5.72488034E-06
  -7.84999970E-03  -5.85248608E-06
  -7.79999979E-03  -5.98263523E-06
  -7.74999987E-03  -6.11540736E-06
  -7.69999996E-03  -6.25086614E-06
  -7.65000004E-03  -6.38904658E-06
  -7.60000013E-03  -6.52996277E-06
  -7.55000021E-03  -6.67361746E-06
  -7.49999983E-03  -6.82002201E-06
  -7.44999992E-03  -6.96921279E-06
  -7.40000000E-03  -7.12125257E-06
  -7.35000009E-03  -7.27622592E-06
  -7.30000017E-03  -7.43421833E-06
  -7.24999979E-03  -7.59529985E-06
  -7.19999988E-03  -7.75951321E-06
  -7.14999996E-03  -7.92687570E-06
  -7.10000005E-03  -8.09739413E-06
  -7.05000013E-03  -8.27108306E-06
  -7.00000022E-03  -8.44798069E-06
  -6.94999984E-03  -8.62815341E-06
  -6.89999992E-03  -8.81169217E-06
  -6.85000001E-03  -8.99868974E-06
  -6.80000009E-03  -9.18922251E-06
  -6.75000018E-03  -9.38333960E-06
  -6.69999979E-03  -9.58106284E-06
  -6.64999988E-03  -9.78240314E-06
  -6.59999996E-03  -9.98737505E-06
  -6.55000005E-03  -1.01960177E-05
  -6.50000013E-03  -1.04084011E-05
  -6.45000022E-03  -1.06246162E-05
  -6.39999984E-03  -1.08447612E-05
  -6.34999992E-03  -1.10689143E-05
  -6.30000001E-03  -1.12971284E-05
  -6.25000009E-03  -1.15294288E-05
  -6.20000018E-03  -1.17658237E-05
  -6.14999980E-03  -1.20063269E-05
  -6.09999988E-03  -1.22509764E-05
  -6.04999997E-03  -1.24998451E-05
  -6.00000005E-03  -1.27530284E-05
  -5.95000014E-03  -1.30106273E-05
  -5.90000022E-03  -1.32727291E-05
  -5.84999984E-03  -1.35393930E-05
  -5.79999993E-03  -1.38106443E-05
  -5.75000001E-03  -1.40864940E-05
  -5.70000010E-03  -1.43669577E-05
  -5.65000018E-03  -1.46520788E-05
  -5.59999980E-03  -1.49419302E-05
  -5.54999989E-03  -1.52366138E-05
  -5.49999997E-03  -1.55362359E-05
  -5.45000006E-03  -1.58408893E-05
  -5.40000014E-03  -1.61506323E-05
  -5.35000023E-03  -1.64654939E-05
  -5.29999984E-03  -1.67854778E-05
  -5.24999993E-03  -1.71106003E-05
  -5.20000001E-03  -1.74408979E-05
  -5.15000010E-03  -1.77764414E-05
  -5.10000018E-03  -1.81173345E-05
  -5.04999980E-03  -1.84636847E-05
  -4.99999989E-03  -1.88155827E-05
  -4.94999997E-03  -1.91730924E-05
  -4.90000006E-03  -1.95362336E-05
  -4.85000014E-03  -1.99050191E-05
  -4.80000023E-03  -2.02794563E-05
  -4.74999985E-03  -2.06595796E-05
  -4.69999993E-03  -2.10454709E-05
  -4.65000002E-03  -2.14372321E-05
  -4.60000010E-03  -2.18349833E-05
  -4.55000019E-03  -2.22388207E-05
  -4.49999981E-03  -2.26488082E-05
  -4.44999989E-03  -2.30649675E-05
  -4.39999998E-03  -2.34873023E-05
  -4.35000006E-03  -2.39158180E-05
  -4.30000015E-03  -2.43505419E-05
  -4.25000023E-03  -2.47915450E-05
  -4.19999985E-03  -2.52389364E-05
  -4.14999994E-03  -2.56928306E-05
  -4.10000002E-03  -2.61533241E-05
  -4.05000011E-03  -2.66204788E-05
  -4.00000019E-03  -2.70943110E-05
  -3.94999981E-03  -2.75748116E-05
  -3.89999989E-03  -2.80619752E-05
  -3.84999998E-03  -2.85558272E-05
  -3.80000006E-03  -2.90564349E-05
  -3.74999992E-03  -2.95639038E-05
  -3.70000000E-03  -3.00783558E-05
  -3.65000009E-03  -3.05998947E-05
  -3.59999994E-03  -3.11285839E-05
  -3.55000002E-03  -3.16644364E-05
  -3.50000011E-03  -3.22074411E-05
  -3.44999996E-03  -3.27575799E-05
  -3.40000005E-03  -3.33148637E-05
  -3.34999990E-03  -3.38793507E-05
  -3.29999998E-03  -3.44511536E-05
  -3.25000007E-03  -3.50303853E-05
  -3.19999992E-03  -3.56171586E-05
  -3.15000000E-03  -3.62115388E-05
  -3.10000009E-03  -3.68135334E-05
  -3.04999994E-03  -3.74231058E-05
  -3.00000003E-03  -3.80402234E-05
  -2.95000011E-03  -3.86648826E-05
  -2.89999996E-03  -3.92971269E-05
  -2.85000005E-03  -3.99370510E-05
  -2.79999990E-03  -4.05847932E-05
  -2.74999999E-03  -4.12404552E-05
  -2.70000007E-03  -4.19041025E-05
  -2.64999992E-03  -4.25757353E-05
  -2.60000001E-03  -4.32553024E-05
  -2.55000009E-03  -4.39427422E-05
  -2.49999994E-03  -4.46380363E-05
  -2.45000003E-03  -4.53412067E-05
  -2.40000011E-03  -4.60523588E-05
  -2.34999997E-03  -4.67716127E-05
  -2.30000005E-03  -4.74990848E-05
  -2.24999990E-03  -4.82348296E-05
  -2.19999999E-03  -4.89788436E-05
  -2.15000007E-03  -4.97310502E-05
  -2.09999993E-03  -5.04913696E-05
  -2.05000001E-03  -5.12597508E-05
  -2.00000009E-03  -5.20361937E-05
  -1.94999995E-03  -5.28207856E-05
  -1.90000003E-03  -5.36136467E-05
  -1.85000000E-03  -5.44148861E-05
  -1.79999997E-03  -5.52245692E-05
  -1.75000005E-03  -5.60426633E-05
  -1.70000002E-03  -5.68690775E-05
  -1.64999999E-03  -5.77036844E-05
  -1.59999996E-03  -5.85463895E-05
  -1.55000004E-03  -5.93971818E-05
  -1.50000001E-03  -6.02561158E-05
  -1.44999998E-03  -6.11233118E-05
  -1.39999995E-03  -6.19988641E-05
  -1.35000004E-03  -6.28828493E-05
  -1.30000000E-03  -6.37752164E-05
  -1.24999997E-03  -6.46758490E-05
  -1.20000006E-03  -6.55845797E-05
  -1.15000003E-03  -6.65012776E-05
  -1.09999999E-03  -6.74258845E-05
  -1.04999996E-03  -6.83584512E-05
  -1.00000005E-03  -6.92990725E-05
  -9.50000016E-04  -7.02478428E-05
  -8.99999985E-04  -7.12048422E-05
  -8.50000011E-04  -7.21700053E-05
  -7.99999980E-04  -7.31431719E-05
  -7.50000007E-04  -7.41241456E-05
  -6.99999975E-04  -7.51127300E-05
  -6.50000002E-04  -7.61088158E-05
  -6.00000028E-04  -7.71123960E-05
  -5.49999997E-04  -7.81235649E-05
  -5.00000024E-04  -7.91424100E-05
  -4.49999992E-04  -8.01689821E-05
  -3.99999990E-04  -8.12032013E-05
  -3.49999988E-04  -8.22449074E-05
  -3.00000014E-04  -8.32938313E-05
  -2.50000012E-04  -8.43497037E-05
  -1.99999995E-04  -8.54123791E-05
  -1.50000007E-04  -8.64817848E-05
  -9.99999975E-05  -8.75580008E-05
  -4.99999987E-05  -8.86410999E-05
   0.00000000      -8.97311402E-05
   4.99999987E-05  -9.08280344E-05
   9.99999975E-05  -9.19315644E-05
   1.50000007E-04  -9.30414390E-05
   1.99999995E-04  -9.41573162E-05
   2.50000012E-04  -9.52789705E-05
   3.00000014E-04  -9.64063001E-05
   3.49999988E-04  -9.75393050E-05
   3.99999990E-04  -9.86780651E-05
   4.49999992E-04  -9.98226242E-05
   5.00000024E-04  -1.00972858E-04
   5.49999997E-04  -1.02128535E-04
   6.00000028E-04  -1.03289283E-04
   6.50000002E-04  -1.04454710E-04
   6.99999975E-04  -1.05624495E-04
   7.50000007E-04  -1.06798456E-04
   7.99999980E-04  -1.07976557E-04
   8.50000011E-04  -1.09158835E-04
   8.99999985E-04  -1.10345332E-04
   9.50000016E-04  -1.11535926E-04
   1.00000005E-03  -1.12730333E-04
   1.04999996E-03  -1.13928159E-04
   1.09999999E-03  -1.15128918E-04
   1.15000003E-03  -1.16332216E-04
   1.20000006E-03  -1.17537777E-04
   1.24999997E-03  -1.18745505E-04
   1.30000000E-03  -1.19955424E-04
   1.35000004E-03  -1.21167519E-04
   1.39999995E-03  -1.22381694E-04
   1.44999998E-03  -1.23597623E-04
   1.50000001E-03  -1.24814847E-04
   1.55000004E-03  -1.26032814E-04
   1.59999996E-03  -1.27251013E-04
   1.64999999E-03  -1.28469095E-04
   1.70000002E-03  -1.29686887E-04
   1.75000005E-03  -1.30904358E-04
   1.79999997E-03  -1.32121466E-04
   1.85000000E-03  -1.33338079E-04
   1.90000003E-03  -1.34553877E-04
   1.94999995E-03  -1.35768350E-04
   2.00000009E-03  -1.36980845E-04
   2.05000001E-03  -1.38190793E-04
   2.09999993E-03  -1.39397715E-04
   2.15000007E-03  -1.40601376E-04
   2.19999999E-03  -1.41801676E-04
   2.24999990E-03  -1.42998542E-04
   2.30000005E-03  -1.44191858E-04
   2.34999997E-03  -1.45381258E-04
   2.40000011E-03  -1.46566192E-04
   2.45000003E-03  -1.47745930E-04
   2.49999994E-03  -1.48919789E-04
   2.55000009E-03  -1.50087188E-04
   2.60000001E-03  -1.51247776E-04
   2.64999992E-03  -1.52401422E-04
   2.70000007E-03  -1.53548026E-04
   2.74999999E-03  -1.54687426E-04
   2.79999990E-03  -1.55819289E-04