  -3.99999991E-02   0.00000000    
  -3.99499983E-02   0.00000000    
  -3.99000011E-02   0.00000000    
  -3.98500003E-02   0.00000000    
  -3.97999994E-02  -1.55163121E-19
  -3.97499986E-02  -1.37071944E-18
  -3.97000015E-02  -6.13013833E-18
  -3.96500006E-02  -1.82507592E-17
  -3.95999998E-02  -3.96146986E-17
  -3.95499989E-02  -6.32003443E-17
  -3.95000018E-02  -6.53446942E-17
  -3.94500010E-02  -4.25772526E-18
  -3.94000001E-02   1.67324371E-16
  -3.93499993E-02   4.73109935E-16
  -3.92999984E-02   8.77474253E-16
  -3.92500013E-02   1.26484741E-15
  -3.92000005E-02   1.45916259E-15
  -3.91499996E-02   1.29400048E-15
  -3.90999988E-02   7.13864915E-16
  -3.90500017E-02  -1.44645937E-16
  -3.90000008E-02  -9.53552528E-16
  -3.89500000E-02  -1.31049920E-15
  -3.88999991E-02  -9.45262829E-16
  -3.88499983E-02   7.67806779E-17
  -3.88000011E-02   1.27568519E-15
  -3.87500003E-02   1.88707590E-15
  -3.86999995E-02   1.18830527E-15
  -3.86499986E-02  -1.10898562E-15
  -3.86000015E-02  -4.60268005E-15
  -3.85500006E-02  -8.26098359E-15
  -3.84999998E-02  -1.08512264E-14
  -3.84499989E-02  -1.15947265E-14
  -3.84000018E-02  -1.07412655E-14
  -3.83500010E-02  -9.72256181E-15
  -3.83000001E-02  -1.06945939E-14
  -3.82499993E-02  -1.55732479E-14
  -3.81999984E-02  -2.49702568E-14
  -3.81500013E-02  -3.75757808E-14
  -3.81000005E-02  -5.04006864E-14
  -3.80499996E-02  -5.99122328E-14
  -3.79999988E-02  -6.36368061E-14
  -3.79500017E-02  -6.14930334E-14
  -3.79000008E-02  -5.61393583E-14
  -3.78500000E-02  -5.20092595E-14
  -3.77999991E-02  -5.33222521E-14
  -3.77499983E-02  -6.19201820E-14
  -3.77000012E-02  -7.59893315E-14
  -3.76500003E-02  -9.04235793E-14
  -3.75999995E-02  -9.88457092E-14
  -3.75499986E-02  -9.64644692E-14
  -3.75000015E-02  -8.24363906E-14
  -3.74500006E-02  -6.05264807E-14
  -3.73999998E-02  -3.76093843E-14
  -3.73499990E-02  -2.05809609E-14
  -3.73000018E-02  -1.30552053E-14
  -3.72500010E-02  -1.33928479E-14
  -3.72000001E-02  -1.50390632E-14
  -3.71499993E-02  -9.08712447E-15
  -3.70999984E-02   1.20666806E-14
  -3.70500013E-02   5.16335665E-14
  -3.70000005E-02   1.07279921E-13
  -3.69499996E-02   1.72317740E-13
  -3.68999988E-02   2.38499677E-13
  -3.68500017E-02   2.98981299E-13
  -3.68000008E-02   3.50131816E-13
  -3.67500000E-02   3.91699802E-13
  -3.66999991E-02   4.25827396E-13
  -3.66499983E-02   4.55917151E-13
  -3.66000012E-02   4.86083233E-13
  -3.65500003E-02   5.21093693E-13
  -3.64999995E-02   5.65957329E-13
  -3.64499986E-02   6.24260409E-13
  -3.64000015E-02   6.95230982E-13
  -3.63500006E-02   7.70876798E-13
  -3.62999998E-02   8.35502782E-13
  -3.62499990E-02   8.69543695E-13
  -3.62000018E-02   8.57645498E-13
  -3.61500010E-02   7.98026304E-13
  -3.61000001E-02   7.07974640E-13
  -3.60499993E-02   6.20634295E-13
  -3.59999985E-02   5.71704413E-13
  -3.59500013E-02   5.80237193E-13
  -3.59000005E-02   6.32582907E-13
  -3.58499996E-02   6.79578572E-13
  -3.57999988E-02   6.52580637E-13
  -3.57500017E-02   4.94948646E-13
  -3.57000008E-02   1.96025203E-13
  -3.56500000E-02  -1.90281994E-13
  -3.55999991E-02  -5.56571878E-13
  -3.55499983E-02  -7.84527391E-13
  -3.55000012E-02  -8.04287355E-13
  -3.54500003E-02  -6.43176051E-13
  -3.53999995E-02  -4.35328558E-13
  -3.53499986E-02  -3.77757721E-13
  -3.53000015E-02  -6.43349794E-13
  -3.52500007E-02  -1.28625409E-12
  -3.51999998E-02  -2.18685898E-12
  -3.51499990E-02  -3.07307912E-12
  -3.51000018E-02  -3.62294981E-12
  -3.50500010E-02  -3.61286391E-12
  -3.50000001E-02  -3.04547295E-12
  -3.49499993E-02  -2.18891398E-12
  -3.48999985E-02  -1.49113057E-12
  -3.48500013E-02  -1.38954885E-12
  -3.48000005E-02  -2.09284478E-12
  -3.47499996E-02  -3.43919186E-12
  -3.46999988E-02  -4.91497294E-12
  -3.46500017E-02  -5.85157270E-12
  -3.46000008E-02  -5.73138672E-12
  -3.45500000E-02  -4.46815284E-12
  -3.44999991E-02  -2.51776009E-12
  -3.44499983E-02  -7.37512156E-13
  -3.44000012E-02  -2.44663569E-14
  -3.43500003E-02  -8.78281226E-13
  -3.42999995E-02  -3.09385677E-12
  -3.42499986E-02  -5.75564466E-12
  -3.42000015E-02  -7.58149793E-12
  -3.41500007E-02  -7.49774721E-12
  -3.40999998E-02  -5.19532290E-12
  -3.40499990E-02  -1.38999391E-12
  -3.40000018E-02   2.38346734E-12
  -3.39500010E-02   4.40732997E-12
  -3.39000002E-02   3.59417704E-12
  -3.38499993E-02   1.02363457E-13
  -3.37999985E-02  -4.57502916E-12
  -3.37500013E-02  -8.16198845E-12
  -3.37000005E-02  -8.60713670E-12
  -3.36499996E-02  -5.11429874E-12
  -3.35999988E-02   1.30451151E-12
  -3.35500017E-02   8.08541949E-12
  -3.35000008E-02   1.21571702E-11
  -3.34500000E-02   1.13653106E-11
  -3.33999991E-02   5.63121815E-12
  -3.33499983E-02  -2.74982684E-12
  -3.33000012E-02  -9.92173444E-12
  -3.32500003E-02  -1.21327288E-11
  -3.31999995E-02  -7.54894931E-12
  -3.31499986E-02   2.64224103E-12
  -3.31000015E-02   1.44546181E-11
  -3.30500007E-02   2.26966206E-11
  -3.29999998E-02   2.33242696E-11
  -3.29499990E-02   1.55059680E-11
  -3.29000019E-02   2.37348422E-12
  -3.28500010E-02  -1.00468991E-11
  -3.28000002E-02  -1.54078000E-11
  -3.27499993E-02  -1.00446179E-11
  -3.26999985E-02   4.98673715E-12
  -3.26500013E-02   2.39191670E-11
  -3.26000005E-02   3.85417219E-11
  -3.25499997E-02   4.18733589E-11
  -3.24999988E-02   3.16279121E-11
  -3.24500017E-02   1.17891521E-11
  -3.24000008E-02  -8.65057678E-12
  -3.23500000E-02  -1.94714817E-11
  -3.22999991E-02  -1.39726546E-11
  -3.22499983E-02   7.48737444E-12
  -3.22000012E-02   3.69642164E-11
  -3.21500003E-02   6.19600690E-11
  -3.20999995E-02   7.09131434E-11
  -3.20499986E-02   5.87635912E-11
  -3.20000015E-02   2.99525613E-11
  -3.19500007E-02  -2.81502014E-12
  -3.18999998E-02  -2.38509976E-11
  -3.18499990E-02  -2.16716211E-11
  -3.18000019E-02   5.14870872E-12
  -3.17500010E-02   4.63608527E-11
  -3.17000002E-02   8.38144554E-11
  -3.16499993E-02   9.93182134E-11
  -3.15999985E-02   8.32270919E-11
  -3.15500014E-02   3.97536830E-11
  -3.15000005E-02  -1.37984849E-11
  -3.14499997E-02  -5.40475546E-11
  -3.13999988E-02  -6.20173496E-11
  -3.13500017E-02  -3.24387114E-11
  -3.13000008E-02   2.26222617E-11
  -3.12500000E-02   7.79962275E-11
  -3.11999992E-02   1.06161142E-10
  -3.11500002E-02   8.99816818E-11
  -3.10999993E-02   3.15990151E-11
  -3.10500003E-02  -4.70269240E-11
  -3.09999995E-02  -1.12848571E-10
  -3.09500005E-02  -1.36366460E-10
  -3.08999997E-02  -1.05753295E-10
  -3.08500007E-02  -3.37850824E-11
  -3.07999998E-02   4.62400847E-11
  -3.07500008E-02   9.45330411E-11
  -3.07000000E-02   8.29726149E-11
  -3.06499992E-02   9.18657945E-12
  -3.06000002E-02  -1.00360310E-10
  -3.05499993E-02  -2.00547662E-10
  -3.05000003E-02  -2.47271537E-10
  -3.04499995E-02  -2.18098192E-10
  -3.04000005E-02  -1.24303373E-10
  -3.03499997E-02  -8.03455653E-12
  -3.03000007E-02   7.51554166E-11
  -3.02499998E-02   8.12904397E-11
  -3.02000009E-02  -6.69365279E-13
  -3.01500000E-02  -1.41325923E-10
  -3.00999992E-02  -2.81679680E-10
  -3.00500002E-02  -3.58530955E-10
  -2.99999993E-02  -3.33607808E-10
  -2.99500003E-02  -2.13093376E-10
  -2.98999995E-02  -4.77898866E-11
  -2.98500005E-02   8.74787812E-11
  -2.97999997E-02   1.27040961E-10
  -2.97500007E-02   4.55322481E-11
  -2.96999998E-02  -1.27598002E-10
  -2.96500009E-02  -3.18079674E-10
  -2.96000000E-02  -4.38284131E-10
  -2.95499992E-02  -4.26945118E-10
  -2.95000002E-02  -2.79231555E-10
  -2.94499993E-02  -5.25958062E-11
  -2.94000003E-02   1.55862628E-10
  -2.93499995E-02   2.51826587E-10
  -2.93000005E-02   1.87562146E-10
  -2.92499997E-02  -1.31182495E-11
  -2.92000007E-02  -2.61459632E-10
  -2.91499998E-02  -4.40821130E-10
  -2.91000009E-02  -4.58894700E-10
  -2.90500000E-02  -2.91844826E-10
  -2.89999992E-02   5.36150117E-13
  -2.89500002E-02   2.97405101E-10
  -2.88999993E-02   4.68995232E-10
  -2.88500004E-02   4.35963210E-10
  -2.87999995E-02   2.08971687E-10
  -2.87500005E-02  -1.10922771E-10
  -2.86999997E-02  -3.73538339E-10
  -2.86500007E-02  -4.45865317E-10
  -2.85999998E-02  -2.74261586E-10
  -2.85500009E-02   8.63545208E-11
  -2.85000000E-02   4.91634677E-10
  -2.84499992E-02   7.69162400E-10
  -2.84000002E-02   7.96155308E-10
  -2.83499993E-02   5.58647906E-10
  -2.83000004E-02   1.63896910E-10
  -2.82499995E-02  -2.02274447E-10
  -2.82000005E-02  -3.56592894E-10
  -2.81499997E-02  -2.02718620E-10
  -2.81000007E-02   2.19705101E-10
  -2.80499998E-02   7.45773110E-10
  -2.80000009E-02   1.15409360E-09
  -2.79500000E-02   1.26514599E-09
  -2.78999992E-02   1.02566444E-09
  -2.78500002E-02   5.39609857E-10
  -2.77999993E-02   2.87364559E-11
  -2.77500004E-02  -2.62841887E-10
  -2.76999995E-02  -1.79265713E-10
  -2.76500005E-02   2.71145467E-10
  -2.75999997E-02   9.11183240E-10
  -2.75500007E-02   1.46702317E-09
  -2.74999999E-02   1.68830194E-09
  -2.74500009E-02   1.46348078E-09
  -2.74000000E-02   8.77516282E-10
  -2.73499992E-02   1.82614979E-10
  -2.73000002E-02  -3.08855469E-10
  -2.72499993E-02  -3.64198532E-10
  -2.72000004E-02   5.92984273E-11
  -2.71499995E-02   7.85376819E-10
  -2.71000005E-02   1.48832302E-09
  -2.70499997E-02   1.83402438E-09
  -2.70000007E-02   1.63166070E-09
  -2.69499999E-02   9.27369681E-10
  -2.69000009E-02  -5.56702471E-12
  -2.68500000E-02  -7.80438048E-10
  -2.67999992E-02  -1.06779419E-09
  -2.67500002E-02  -7.48038576E-10
  -2.66999993E-02   2.44148261E-11
  -2.66500004E-02   8.78725703E-10
  -2.65999995E-02   1.38636458E-09
  -2.65500005E-02   1.25342370E-09
  -2.64999997E-02   4.60546073E-10
  -2.64500007E-02  -7.15567494E-10
  -2.63999999E-02  -1.81423199E-09
  -2.63500009E-02  -2.39153186E-09
  -2.63000000E-02  -2.22250574E-09
  -2.62499992E-02  -1.41294743E-09
  -2.62000002E-02  -3.65975888E-10
  -2.61499994E-02   3.87931187E-10
  -2.61000004E-02   4.26341656E-10
  -2.60499995E-02  -3.68250458E-10
  -2.60000005E-02  -1.74112069E-09
  -2.59499997E-02  -3.16381921E-09
  -2.59000007E-02  -4.06106393E-09
  -2.58499999E-02  -4.06872536E-09
  -2.58000009E-02  -3.20728755E-09
  -2.57500000E-02  -1.88850668E-09
  -2.56999992E-02  -7.45080442E-10
  -2.56500002E-02  -3.52924245E-10
  -2.55999994E-02  -9.67306235E-10
  -2.55500004E-02  -2.39296361E-09
  -2.54999995E-02  -4.05272083E-09
  -2.54500005E-02  -5.23193666E-09
  -2.53999997E-02  -5.39552136E-09
  -2.53500007E-02  -4.43705872E-09
  -2.52999999E-02  -2.74443845E-09
  -2.52500009E-02  -1.04463405E-09
  -2.52000000E-02  -8.86716187E-11
  -2.51499992E-02  -3.12690152E-10
  -2.51000002E-02  -1.62742053E-09
  -2.50499994E-02  -3.43659545E-09
  -2.50000004E-02  -4.88536989E-09
  -2.49499995E-02  -5.23585131E-09
  -2.49000005E-02  -4.20515001E-09
  -2.48499997E-02  -2.11160844E-09
  -2.48000007E-02   2.44649079E-10
  -2.47499999E-02   1.92361282E-09
  -2.47000009E-02   2.26417241E-09
  -2.46500000E-02   1.19363874E-09
  -2.45999992E-02  -7.16239568E-10
  -2.45500002E-02  -2.48222487E-09
  -2.44999994E-02  -3.13779758E-09
  -2.44500004E-02  -2.17096963E-09
  -2.43999995E-02   2.25669219E-10
  -2.43500005E-02   3.21304250E-09
  -2.42999997E-02   5.65776581E-09
  -2.42500007E-02   6.63098598E-09
  -2.41999999E-02   5.83443027E-09
  -2.41500009E-02   3.75849085E-09
  -2.41000000E-02   1.49053125E-09
  -2.40499992E-02   2.46330512E-10
  -2.40000002E-02   8.25408242E-10
  -2.39499994E-02   3.23308735E-09
  -2.39000004E-02   6.64626976E-09
  -2.38499995E-02   9.75156933E-09
  -2.38000005E-02   1.13174892E-08
  -2.37499997E-02   1.07514273E-08
  -2.37000007E-02   8.38963476E-09
  -2.36499999E-02   5.37917400E-09
  -2.36000009E-02   3.18971427E-09
  -2.35500000E-02   2.96144487E-09
  -2.34999992E-02   4.97708541E-09
  -2.34500002E-02   8.50082760E-09
  -2.33999994E-02   1.20705783E-08
  -2.33500004E-02   1.41286005E-08
  -2.32999995E-02   1.37187328E-08
  -2.32500006E-02   1.09382183E-08
  -2.31999997E-02   6.93139457E-09
  -2.31500007E-02   3.41124728E-09
  -2.30999999E-02   1.90733251E-09
  -2.30500009E-02   3.06921044E-09
  -2.30000000E-02   6.34151487E-09
  -2.29499992E-02   1.01706412E-08
  -2.29000002E-02   1.26690507E-08
  -2.28499994E-02   1.24541115E-08
  -2.28000004E-02   9.28951227E-09
  -2.27499995E-02   4.23295710E-09
  -2.27000006E-02  -7.94051436E-10
  -2.26499997E-02  -3.84090093E-09
  -2.26000007E-02  -3.80502296E-09
  -2.25499999E-02  -9.57519952E-10
  -2.25000009E-02   3.13208814E-09
  -2.24500000E-02   6.25914209E-09
  -2.23999992E-02   6.55667920E-09
  -2.23500002E-02   3.35004580E-09
  -2.22999994E-02  -2.49603138E-09
  -2.22500004E-02  -8.91188812E-09
  -2.21999995E-02  -1.35115412E-08
  -2.21500006E-02  -1.46539181E-08
  -2.20999997E-02  -1.22042518E-08
  -2.20500007E-02  -7.64231345E-09
  -2.19999999E-02  -3.44663609E-09
  -2.19500009E-02  -2.00794004E-09
  -2.19000001E-02  -4.54573046E-09
  -2.18499992E-02  -1.05164819E-08
  -2.18000002E-02  -1.77965109E-08
  -2.17499994E-02  -2.35827766E-08
  -2.17000004E-02  -2.56293244E-08
  -2.16499995E-02  -2.32732322E-08
  -2.16000006E-02  -1.77808523E-08
  -2.15499997E-02  -1.18362697E-08
  -2.15000007E-02  -8.37473824E-09
  -2.14499999E-02  -9.26567978E-09
  -2.14000009E-02  -1.44338372E-08
  -2.13500001E-02  -2.18285550E-08
  -2.12999992E-02  -2.82819510E-08
  -2.12500002E-02  -3.08974037E-08
  -2.11999994E-02  -2.83594694E-08
  -2.11500004E-02  -2.15726192E-08
  -2.10999995E-02  -1.33202231E-08
  -2.10500006E-02  -7.06707093E-09
  -2.09999997E-02  -5.41861978E-09
  -2.09500007E-02  -8.92056651E-09
  -2.08999999E-02  -1.57499702E-08
  -2.08500009E-02  -2.24642100E-08
  -2.08000001E-02  -2.55024020E-08
  -2.07499992E-02  -2.27855992E-08
  -2.07000002E-02  -1.46979993E-08
  -2.06499994E-02  -3.98878308E-09
  -2.06000004E-02   5.39319744E-09
  -2.05499995E-02   1.00384874E-08
  -2.05000006E-02   8.62350458E-09
  -2.04499997E-02   2.56236343E-09
  -2.04000007E-02  -4.55535742E-09
  -2.03499999E-02  -8.52271764E-09
  -2.03000009E-02  -6.39635012E-09
  -2.02500001E-02   2.13750506E-09
  -2.01999992E-02   1.45415342E-08
  -2.01500002E-02   2.64824269E-08
  -2.00999994E-02   3.37233530E-08
  -2.00500004E-02   3.40252484E-08
  -1.99999996E-02   2.82013062E-08
  -1.99500006E-02   1.98266790E-08
  -1.98999997E-02   1.36972336E-08
  -1.98500007E-02   1.36969938E-08
  -1.97999999E-02   2.10180264E-08
  -1.97500009E-02   3.35434009E-08
  -1.97000001E-02   4.67020520E-08
  -1.96499992E-02   5.54501085E-08
  -1.96000002E-02   5.65170133E-08
  -1.95499994E-02   4.99129236E-08
  -1.95000004E-02   3.89999890E-08
  -1.94499996E-02   2.90582740E-08
  -1.94000006E-02   2.49527918E-08
  -1.93499997E-02   2.89280742E-08
  -1.93000007E-02   3.95256343E-08
  -1.92499999E-02   5.21396863E-08
  -1.92000009E-02   6.10024884E-08
  -1.91500001E-02   6.17421492E-08
  -1.90999992E-02   5.33768478E-08
  -1.90500002E-02   3.88348411E-08
  -1.89999994E-02   2.37302391E-08
  -1.89500004E-02   1.39024987E-08
  -1.88999996E-02   1.27959492E-08
  -1.88500006E-02   1.98537364E-08
  -1.87999997E-02   3.06724104E-08
  -1.87500007E-02   3.88896915E-08
  -1.86999999E-02   3.89978929E-08
  -1.86500009E-02   2.88402635E-08
  -1.86000001E-02   1.06610090E-08
  -1.85499992E-02  -9.79637260E-09
  -1.85000002E-02  -2.57821871E-08
  -1.84499994E-02  -3.25411413E-08
  -1.84000004E-02  -2.94837008E-08
  -1.83499996E-02  -2.05339372E-08
  -1.83000006E-02  -1.24566393E-08
  -1.82499997E-02  -1.18701866E-08
  -1.82000007E-02  -2.22579839E-08
  -1.81499999E-02  -4.23206181E-08
  -1.81000009E-02  -6.64383961E-08
  -1.80500001E-02  -8.70823911E-08
  -1.79999992E-02  -9.81331212E-08
  -1.79500002E-02  -9.76365087E-08
  -1.78999994E-02  -8.87476688E-08
  -1.78500004E-02  -7.84002836E-08
  -1.77999996E-02  -7.42517727E-08
  -1.77500006E-02  -8.12395911E-08
  -1.76999997E-02  -9.92860336E-08
  -1.76500008E-02  -1.23205893E-07
  -1.75999999E-02  -1.44903225E-07
  -1.75500009E-02  -1.56917537E-07
  -1.75000001E-02  -1.55755160E-07
  -1.74499992E-02  -1.43506981E-07
  -1.74000002E-02  -1.26992404E-07
  -1.73499994E-02  -1.14765257E-07
  -1.73000004E-02  -1.13283249E-07
  -1.72499996E-02  -1.23943309E-07
  -1.72000006E-02  -1.42329711E-07
  -1.71499997E-02  -1.60054512E-07
  -1.71000008E-02  -1.68414914E-07
  -1.70499999E-02  -1.62260690E-07
  -1.70000009E-02  -1.42342429E-07
  -1.69500001E-02  -1.15057766E-07
  -1.68999992E-02  -8.96625991E-08
  -1.68500002E-02  -7.41513730E-08
  -1.67999994E-02  -7.16280653E-08
  -1.67500004E-02  -7.88054706E-08
  -1.66999996E-02  -8.73436790E-08
  -1.66500006E-02  -8.74774955E-08
  -1.65999997E-02  -7.23488256E-08
  -1.65500008E-02  -4.11132888E-08
  -1.64999999E-02   5.92510208E-10
  -1.64500009E-02   4.30779075E-08
  -1.64000001E-02   7.68820314E-08
  -1.63499992E-02   9.70271259E-08
  -1.63000003E-02   1.05331964E-07
  -1.62499994E-02   1.09718513E-07
  -1.62000004E-02   1.20772100E-07
  -1.61499996E-02   1.47047359E-07
  -1.61000006E-02   1.91206013E-07
  -1.60499997E-02   2.48728497E-07
  -1.60000008E-02   3.09818518E-07
  -1.59499999E-02   3.63699996E-07
  -1.59000009E-02   4.03417999E-07
  -1.58500001E-02   4.29002426E-07
  -1.57999992E-02   4.47553333E-07
  -1.57500003E-02   4.70158852E-07
  -1.56999994E-02   5.06976221E-07
  -1.56500004E-02   5.62654691E-07
  -1.55999996E-02   6.34153878E-07
  -1.55499997E-02   7.11968539E-07
  -1.54999997E-02   7.84265183E-07
  -1.54499998E-02   8.42122006E-07
  -1.53999999E-02   8.83542782E-07
  -1.53500000E-02   9.14426266E-07
  -1.53000001E-02   9.46015746E-07
  -1.52500002E-02   9.89918590E-07
  -1.52000003E-02   1.05289166E-06
  -1.51500003E-02   1.13372244E-06
  -1.51000004E-02   1.22363133E-06
  -1.50499996E-02   1.31006743E-06
  -1.49999997E-02   1.38224550E-06
  -1.49499997E-02   1.43596719E-06
  -1.48999998E-02   1.47556250E-06
  -1.48499999E-02   1.51204063E-06
  -1.48000000E-02   1.55822636E-06
  -1.47500001E-02   1.62301967E-06
  -1.47000002E-02   1.70733904E-06
  -1.46500003E-02   1.80357949E-06
  -1.46000003E-02   1.89888465E-06
  -1.45500004E-02   1.98081193E-06
  -1.44999996E-02   2.04288449E-06
  -1.44499997E-02   2.08754955E-06
  -1.43999998E-02   2.12518194E-06
  -1.43499998E-02   2.16952822E-06
  -1.42999999E-02   2.23158895E-06
  -1.42500000E-02   2.31465924E-06
  -1.42000001E-02   2.41275507E-06
  -1.41500002E-02   2.51317238E-06
  -1.41000003E-02   2.60209504E-06
  -1.40500003E-02   2.67076257E-06
  -1.40000004E-02   2.71945100E-06
  -1.39499996E-02   2.75746083E-06
  -1.38999997E-02   2.79907226E-06
  -1.38499998E-02   2.85722899E-06
  -1.37999998E-02   2.93775088E-06
  -1.37499999E-02   3.03666934E-06
  -1.37000000E-02   3.14191630E-06
  -1.36500001E-02   3.23866288E-06
  -1.36000002E-02   3.31595356E-06
  -1.35500003E-02   3.37168603E-06
  -1.35000004E-02   3.41367149E-06
  -1.34500004E-02   3.45629314E-06
  -1.33999996E-02   3.51418271E-06
  -1.33499997E-02   3.59571504E-06
  -1.32999998E-02   3.69926283E-06
  -1.32499998E-02   3.81386531E-06
  -1.31999999E-02   3.92409174E-06
  -1.31500000E-02   4.01696707E-06
  -1.31000001E-02   4.08785490E-06
  -1.30500002E-02   4.14267561E-06
  -1.30000003E-02   4.19542857E-06
  -1.29500004E-02   4.26206725E-06
  -1.29000004E-02   4.35343873E-06
  -1.28499996E-02   4.47045841E-06
  -1.27999997E-02   4.60369029E-06
  -1.27499998E-02   4.73754289E-06
  -1.26999998E-02   4.85725923E-06
  -1.26499999E-02   4.95560653E-06
  -1.26000000E-02   5.03626597E-06
  -1.25500001E-02   5.11236385E-06
  -1.25000002E-02   5.20074946E-06
  -1.24500003E-02   5.31457590E-06
  -1.24000004E-02   5.45747753E-06
  -1.23500004E-02   5.62193691E-06
  -1.22999996E-02   5.79263678E-06
  -1.22499997E-02   5.95334404E-06
  -1.21999998E-02   6.09424751E-06
  -1.21499998E-02   6.21647405E-06
  -1.20999999E-02   6.33175432E-06
  -1.20500000E-02   6.45732962E-06
  -1.20000001E-02   6.60835849E-06
  -1.19500002E-02   6.79118602E-06
  -1.19000003E-02   7.00052669E-06
  -1.18500004E-02   7.22183040E-06
  -1.18000004E-02   7.43780402E-06
  -1.17499996E-02   7.63621665E-06
  -1.16999997E-02   7.81548442E-06
  -1.16499998E-02   7.98554629E-06
  -1.15999999E-02   8.16355987E-06
  -1.15499999E-02   8.36634899E-06
  -1.15000000E-02   8.60294585E-06
  -1.14500001E-02   8.87053739E-06
  -1.14000002E-02   9.15572400E-06
  -1.13500003E-02   9.44053045E-06
  -1.13000004E-02   9.71050122E-06
  -1.12500004E-02   9.96122162E-06
  -1.11999996E-02   1.02004478E-05
  -1.11499997E-02   1.04447481E-05
  -1.10999998E-02   1.07121987E-05
  -1.10499999E-02   1.10143947E-05
  -1.09999999E-02   1.13512415E-05
  -1.09500000E-02   1.17110185E-05
  -1.09000001E-02   1.20756440E-05
  -1.08500002E-02   1.24288144E-05
  -1.08000003E-02   1.27633921E-05
  -1.07500004E-02   1.30846756E-05
  -1.07000005E-02   1.34081856E-05
  -1.06499996E-02   1.37528523E-05
  -1.05999997E-02   1.41325600E-05
  -1.05499998E-02   1.45499716E-05
  -1.04999999E-02   1.49953712E-05
  -1.04499999E-02   1.54510162E-05
  -1.04000000E-02   1.58991097E-05
  -1.03500001E-02   1.63298682E-05
  -1.03000002E-02   1.67460221E-05
  -1.02500003E-02   1.71616794E-05
  -1.02000004E-02   1.75961559E-05
  -1.01500005E-02   1.80654115E-05
  -1.00999996E-02   1.85749614E-05
  -1.00499997E-02   1.91174204E-05
  -9.99999978E-03   1.96758956E-05
  -9.94999986E-03   2.02316387E-05
  -9.89999995E-03   2.07725043E-05
  -9.85000003E-03   2.12985615E-05
  -9.80000012E-03   2.18222158E-05
  -9.75000020E-03   2.23627885E-05
  -9.70000029E-03   2.29380239E-05
  -9.65000037E-03   2.35562056E-05
  -9.60000046E-03   2.42125880E-05
  -9.54999961E-03   2.48916112E-05
  -9.49999969E-03   2.55739851E-05
  -9.44999978E-03   2.62454905E-05
  -9.39999986E-03   2.69035208E-05
  -9.34999995E-03   2.75583589E-05
  -9.30000003E-03   2.82287874E-05
  -9.25000012E-03   2.89338586E-05
  -9.20000020E-03   2.96844482E-05
  -9.15000029E-03   3.04785171E-05
  -9.10000037E-03   3.13021628E-05
  -9.05000046E-03   3.21361222E-05
  -8.99999961E-03   3.29644645E-05
  -8.94999970E-03   3.37819147E-05
  -8.89999978E-03   3.45965309E-05
  -8.84999987E-03   3.54262884E-05
  -8.79999995E-03   3.62912360E-05
  -8.75000004E-03   3.72047034E-05
  -8.70000012E-03   3.81675745E-05
  -8.65000021E-03   3.91680660E-05
  -8.60000029E-03   4.01871512E-05
  -8.55000038E-03   4.12074114E-05
  -8.50000046E-03   4.22211815E-05
  -8.44999962E-03   4.32341621E-05
  -8.39999970E-03   4.42630444E-05
  -8.34999979E-03   4.53284774E-05
  -8.29999987E-03   4.64459954E-05
  -8.24999996E-03   4.76191199E-05
  -8.20000004E-03   4.88381884E-05
  -8.15000013E-03   5.00849164E-05
  -8.10000021E-03   5.13407758E-05
  -8.05000030E-03   5.25957257E-05
  -8.00000038E-03   5.38528875E-05
  -7.95000046E-03   5.51274024E-05
  -7.89999962E-03   5.64399306E-05
  -7.84999970E-03   5.78076106E-05
  -7.79999979E-03   5.92368197E-05
  -7.74999987E-03   6.07204238E-05
  -7.69999996E-03   6.22412408E-05
  -7.65000004E-03   6.37801786E-05
  -7.60000013E-03   6.53250681E-05
  -7.55000021E-03   6.68764405E-05
  -7.49999983E-03   6.84474508E-05
  -7.44999992E-03   7.00584715E-05
  -7.40000000E-03   7.17282819E-05
  -7.35000009E-03   7.34656642E-05
  -7.30000017E-03   7.52658307E-05
  -7.24999979E-03   7.71129780E-05
  -7.19999988E-03   7.89878468E-05
  -7.14999996E-03   8.08765035E-05
  -7.10000005E-03   8.27768672E-05
  -7.05000013E-03   8.47000701E-05
  -7.00000022E-03   8.66656046E-05
  -6.94999984E-03   8.86931375E-05
  -6.89999992E-03   9.07936264E-05
  -6.85000001E-03   9.29650705E-05
  -6.80000009E-03   9.51938200E-05
  -6.75000018E-03   9.74602008E-05
  -6.69999979E-03   9.97483949E-05
  -6.64999988E-03   1.02053993E-04
  -6.59999996E-03   1.04386098E-04
  -6.55000005E-03   1.06763160E-04
  -6.50000013E-03   1.09205270E-04
  -6.45000022E-03   1.11725662E-04
  -6.39999984E-03   1.14324954E-04
  -6.34999992E-03   1.16991119E-04
  -6.30000001E-03   1.19705328E-04
  -6.25000009E-03   1.22450670E-04
  -6.20000018E-03   1.25220336E-04
  -6.14999980E-03   1.28020940E-04
  -6.09999988E-03   1.30869463E-04
  -6.04999997E-03   1.33786598E-04
  -6.00000005E-03   1.36787668E-04
  -5.95000014E-03   1.39875672E-04
  -5.90000022E-03   1.43040685E-04
  -5.84999984E-03   1.46264516E-04
  -5.79999993E-03   1.49529369E-04
  -5.75000001E-03   1.52826789E-04
  -5.70000010E-03   1.56160808E-04
  -5.65000018E-03   1.59547009E-04
  -5.59999980E-03   1.63005854E-04
  -5.54999989E-03   1.66553713E-04
  -5.49999997E-03   1.70196334E-04
  -5.45000006E-03   1.73926237E-04
  -5.40000014E-03   1.77726630E-04
  -5.35000023E-03   1.81579599E-04
  -5.29999984E-03   1.85474302E-04
  -5.24999993E-03   1.89412080E-04
  -5.20000001E-03   1.93406537E-04
  -5.15000010E-03   1.97478104E-04
  -5.10000018E-03   2.01645060E-04
  -5.04999980E-03   2.05915770E-04
  -4.99999989E-03   2.10285245E-04
  -4.94999997E-03   2.14738029E-04
  -4.90000006E-03   2.19255424E-04
  -4.85000014E-03   2.23824900E-04
  -4.80000023E-03   2.28446312E-04
  -4.74999985E-03   2.33131505E-04
  -4.69999993E-03   2.37900225E-04
  -4.65000002E-03   2.42771275E-04
  -4.60000010E-03   2.47754389E-04
  -4.55000019E-03   2.52847211E-04
  -4.49999981E-03   2.58036831E-04
  -4.44999989E-03   2.63305788E-04
  -4.39999998E-03   2.68640462E-04
  -4.35000006E-03   2.74037215E-04
  -4.30000015E-03   2.79504515E-04
  -4.25000023E-03   2.85060494E-04
  -4.19999985E-03   2.90724915E-04
  -4.14999994E-03   2.96510523E-04
  -4.10000002E-03   3.02418543E-04
  -4.05000011E-03   3.08438553E-04
  -4.00000019E-03   3.14552890E-04
  -3.94999981E-03   3.20746331E-04
  -3.89999989E-03   3.27013171E-04
  -3.84999998E-03   3.33359872E-04
  -3.80000006E-03   3.39802878E-04
  -3.74999992E-03   3.46360990E-04
  -3.70000000E-03   3.53049079E-04
  -3.65000009E-03   3.59871425E-04
  -3.59999994E-03   3.66820721E-04
  -3.55000002E-03   3.73881601E-04
  -3.50000011E-03   3.81037011E-04
  -3.44999996E-03   3.88278218E-04
  -3.40000005E-03   3.95608891E-04
  -3.34999990E-03   4.03043639E-04
  -3.29999998E-03   4.10601060E-04
  -3.25000007E-03   4.18296637E-04
  -3.19999992E-03   4.26136889E-04
  -3.15000000E-03   4.34116984E-04
  -3.10000009E-03   4.42223274E-04
  -3.04999994E-03   4.50439169E-04
  -3.00000003E-03   4.58754570E-04
  -2.95000011E-03   4.67170146E-04
  -2.89999996E-03   4.75697278E-04
  -2.85000005E-03   4.84353804E-04
  -2.79999990E-03   4.93156433E-04
  -2.74999999E-03   5.02113602E-04
  -2.70000007E-03   5.11222635E-04
  -2.64999992E-03   5.20472706E-04
  -2.60000001E-03   5.29847690E-04
  -2.55000009E-03   5.39335248E-04
  -2.49999994E-03   5.48933691E-04
  -2.45000003E-03   5.58651111E-04
  -2.40000011E-03   5.68503572E-04
  -2.34999997E-03   5.78506966E-04
  -2.30000005E-03   5.88672236E-04
  -2.24999990E-03   5.99001418E-04
  -2.19999999E-03   6.09485316E-04
  -2.15000007E-03   6.20109320E-04
  -2.09999993E-03   6.30861497E-04
  -2.05000001E-03   6.41734747E-04
  -2.00000009E-03   6.52732095E-04
  -1.94999995E-03   6.63865183E-04
  -1.90000003E-03   6.75150834E-04
  -1.85000000E-03   6.86601619E-04
  -1.79999997E-03   6.98222255E-04
  -1.75000005E-03   7.10009830E-04
  -1.70000002E-03   7.21950491E-04
  -1.64999999E-03   7.34031899E-04
  -1.59999996E-03   7.46245729E-04
  -1.55000004E-03   7.58590584E-04
  -1.50000001E-03   7.71073741E-04
  -1.44999998E-03   7.83708296E-04
  -1.39999995E-03   7.96507811E-04
  -1.35000004E-03   8.09480785E-04
  -1.30000000E-03   8.22626927E-04
  -1.24999997E-03   8.35936866E-04
  -1.20000006E-03   8.49399657E-04
  -1.15000003E-03   8.63006106E-04
  -1.09999999E-03   8.76749284E-04
  -1.04999996E-03   8.90630123E-04
  -1.00000005E-03   9.04659159E-04
  -9.50000016E-04   9.18848964E-04
  -8.99999985E-04   9.33210540E-04
  -8.50000011E-04   9.47747496E-04
  -7.99999980E-04   9.62454244E-04
  -7.50000007E-04   9.77321411E-04
  -6.99999975E-04   9.92337940E-04
  -6.50000002E-04   1.00749405E-03
  -6.00000028E-04   1.02278660E-03
  -5.49999997E-04   1.03822036E-03
  -5.00000024E-04   1.05380605E-03
  -4.49999992E-04   1.06955820E-03
  -3.99999990E-04   1.08548382E-03
  -3.49999988E-04   1.10157963E-03
  -3.00000014E-04   1.11783925E-03
  -2.50000012E-04   1.13425381E-03
  -1.99999995E-04   1.15081144E-03
  -1.50000007E-04   1.16750295E-03
  -9.99999975E-05   1.18432473E-03
  -4.99999987E-05   1.20128214E-03
   0.00000000       1.21839135E-03
   4.99999987E-05   1.23566412E-03
   9.99999975E-05   1.25310756E-03
   1.50000007E-04   1.27071911E-03
   1.99999995E-04   1.28848688E-03
   2.50000012E-04   1.30639656E-03
   3.00000014E-04   1.32443011E-03
   3.49999988E-04   1.34257600E-03
   3.99999990E-04   1.36083341E-03
   4.49999992E-04   1.37921807E-03
   5.00000024E-04   1.39774953E-03
   5.49999997E-04   1.41643675E-03
   6.00000028E-04   1.43528753E-03
   6.50000002E-04   1.45429664E-03
   6.99999975E-04   1.47344510E-03
   7.50000007E-04   1.49270718E-03
   7.99999980E-04   1.51205959E-03
   8.50000011E-04   1.53149816E-03
   8.99999985E-04   1.55103218E-03
   9.50000016E-04   1.57068006E-03
   1.00000005E-03   1.59046543E-03
   1.04999996E-03   1.61040016E-03
   1.09999999E-03   1.63048075E-03
   1.15000003E-03   1.65069103E-03
   1.20000006E-03   1.67100271E-03
   1.24999997E-03   1.69138738E-03
   1.30000000E-03   1.71183248E-03
   1.35000004E-03   1.73234055E-03
   1.39999995E-03   1.75292382E-03
   1.44999998E-03   1.77360349E-03
   1.50000001E-03   1.79439981E-03
   1.55000004E-03   1.81531848E-03
   1.59999996E-03   1.83634972E-03
   1.64999999E-03   1.85746700E-03
   1.70000002E-03   1.87863340E-03
   1.75000005E-03   1.89982157E-03
   1.79999997E-03   1.92102022E-03
   1.85000000E-03   1.94224063E-03
   1.90000003E-03   1.96351367E-03
   1.94999995E-03   1.98486960E-03
   2.00000009E-03   2.00632541E-03
   2.05000001E-03   2.02787458E-03
   2.09999993E-03   2.04948522E-03
   2.15000007E-03   2.07111030E-03
   2.19999999E-03   2.09271233E-03
   2.24999990E-03   2.11427896E-03
   2.30000005E-03   2.13581184E-03
   2.34999997E-03   2.15733168E-03
   2.40000011E-03   2.17887620E-03
   2.45000003E-03   2.20047287E-03
   2.49999994E-03   2.22212542E-03
   2.55000009E-03   2.24381173E-03
   2.60000001E-03   2.26549013E-03
   2.64999992E-03   2.28710612E-03
   2.70000007E-03   2.30862200E-03
   2.74999999E-03   2.33003078E-03
   2.79999990E-03   2.35135504E-03