  -3.99999991E-02   0.00000000    
  -3.99499983E-02   0.00000000    
  -3.99000011E-02   0.00000000    
  -3.98500003E-02   0.00000000    
  -3.97999994E-02  -1.10449589E-19
  -3.97499986E-02  -6.59165548E-19
  -3.97000015E-02  -7.88245014E-19
  -3.96500006E-02   7.78732975E-18
  -3.95999998E-02   5.42646893E-17
  -3.95499989E-02   2.04938761E-16
  -3.95000018E-02   5.66202721E-16
  -3.94500010E-02   1.25223360E-15
  -3.94000001E-02   2.30682160E-15
  -3.93499993E-02   3.60228544E-15
  -3.92999984E-02   4.77871891E-15
  -3.92500013E-02   5.30198156E-15
  -3.92000005E-02   4.67909767E-15
  -3.91499996E-02   2.77389632E-15
  -3.90999988E-02   5.71917242E-17
  -3.90500017E-02  -2.41995471E-15
  -3.90000008E-02  -3.45894692E-15
  -3.89500000E-02  -2.46952202E-15
  -3.88999991E-02  -2.15710665E-16
  -3.88499983E-02   9.15439434E-16
  -3.88000011E-02  -2.52594839E-15
  -3.87500003E-02  -1.36928483E-14
  -3.86999995E-02  -3.38089101E-14
  -3.86499986E-02  -6.11380792E-14
  -3.86000015E-02  -9.13734217E-14
  -3.85500006E-02  -1.19704648E-13
  -3.84999998E-02  -1.43930955E-13
  -3.84499989E-02  -1.67168620E-13
  -3.84000018E-02  -1.98461446E-13
  -3.83500010E-02  -2.50260479E-13
  -3.83000001E-02  -3.33192702E-13
  -3.82499993E-02  -4.50176002E-13
  -3.81999984E-02  -5.92862131E-13
  -3.81500013E-02  -7.42895600E-13
  -3.81000005E-02  -8.78513733E-13
  -3.80499996E-02  -9.84338045E-13
  -3.79999988E-02  -1.06011489E-12
  -3.79500017E-02  -1.12384483E-12
  -3.79000008E-02  -1.20667267E-12
  -3.78500000E-02  -1.34051353E-12
  -3.77999991E-02  -1.54314766E-12
  -3.77499983E-02  -1.80757254E-12
  -3.77000012E-02  -2.10140022E-12
  -3.76500003E-02  -2.37798756E-12
  -3.75999995E-02  -2.59540696E-12
  -3.75499986E-02  -2.73494703E-12
  -3.75000015E-02  -2.81004950E-12
  -3.74500006E-02  -2.86025565E-12
  -3.73999998E-02  -2.93147256E-12
  -3.73499990E-02  -3.05058821E-12
  -3.73000018E-02  -3.20586483E-12
  -3.72500010E-02  -3.34280780E-12
  -3.72000001E-02  -3.37885622E-12
  -3.71499993E-02  -3.23192081E-12
  -3.70999984E-02  -2.85127260E-12
  -3.70500013E-02  -2.23764670E-12
  -3.70000005E-02  -1.44367970E-12
  -3.69499996E-02  -5.54170425E-13
  -3.68999988E-02   3.45816366E-13
  -3.68500017E-02   1.20233185E-12
  -3.68000008E-02   2.01192014E-12
  -3.67500000E-02   2.82338476E-12
  -3.66999991E-02   3.72349721E-12
  -3.66499983E-02   4.81311345E-12
  -3.66000012E-02   6.18130720E-12
  -3.65500003E-02   7.88340747E-12
  -3.64999995E-02   9.92653095E-12
  -3.64499986E-02   1.22651464E-11
  -3.64000015E-02   1.48092701E-11
  -3.63500006E-02   1.74473352E-11
  -3.62999998E-02   2.00822414E-11
  -3.62499990E-02   2.26718297E-11
  -3.62000018E-02   2.52568140E-11
  -3.61500010E-02   2.79555424E-11
  -3.61000001E-02   3.09123525E-11
  -3.60499993E-02   3.42061865E-11
  -3.59999985E-02   3.77526795E-11
  -3.59500013E-02   4.12518977E-11
  -3.59000005E-02   4.42302271E-11
  -3.58499996E-02   4.61913702E-11
  -3.57999988E-02   4.68365832E-11
  -3.57500017E-02   4.62622857E-11
  -3.57000008E-02   4.50241892E-11
  -3.56500000E-02   4.39919975E-11
  -3.55999991E-02   4.40049872E-11
  -3.55499983E-02   4.54450852E-11
  -3.55000012E-02   4.79192588E-11
  -3.54500003E-02   5.02387541E-11
  -3.53999995E-02   5.07796825E-11
  -3.53499986E-02   4.81362138E-11
  -3.53000015E-02   4.18079356E-11
  -3.52500007E-02   3.25862427E-11
  -3.51999998E-02   2.23829202E-11
  -3.51499990E-02   1.34706959E-11
  -3.51000018E-02   7.39597272E-12
  -3.50500010E-02   4.04336504E-12
  -3.50000001E-02   1.35202028E-12
  -3.49499993E-02  -4.04516785E-12
  -3.48999985E-02  -1.53982920E-11
  -3.48500013E-02  -3.41920138E-11
  -3.48000005E-02  -5.90499385E-11
  -3.47499996E-02  -8.58388569E-11
  -3.46999988E-02  -1.09140308E-10
  -3.46500017E-02  -1.24606228E-10
  -3.46000008E-02  -1.31191488E-10
  -3.45500000E-02  -1.32143310E-10
  -3.44999991E-02  -1.34054573E-10
  -3.44499983E-02  -1.44130027E-10
  -3.44000012E-02  -1.66721817E-10
  -3.43500003E-02  -2.00719233E-10
  -3.42999995E-02  -2.39207432E-10
  -3.42499986E-02  -2.71910688E-10
  -3.42000015E-02  -2.89644947E-10
  -3.41500007E-02  -2.88895186E-10
  -3.40999998E-02  -2.74287232E-10
  -3.40499990E-02  -2.57425581E-10
  -3.40000018E-02  -2.52128540E-10
  -3.39500010E-02  -2.67866646E-10
  -3.39000002E-02  -3.04353931E-10
  -3.38499993E-02  -3.50102392E-10
  -3.37999985E-02  -3.86211313E-10
  -3.37500013E-02  -3.94286825E-10
  -3.37000005E-02  -3.65223463E-10
  -3.36499996E-02  -3.04714504E-10
  -3.35999988E-02  -2.32389774E-10
  -3.35500017E-02  -1.74159326E-10
  -3.35000008E-02  -1.50576607E-10
  -3.34500000E-02  -1.66326133E-10
  -3.33999991E-02  -2.06043932E-10
  -3.33499983E-02  -2.39272935E-10
  -3.33000012E-02  -2.33289138E-10
  -3.32500003E-02  -1.68578485E-10
  -3.31999995E-02  -4.98297896E-11
  -3.31499986E-02   9.33860905E-11
  -3.31000015E-02   2.17801888E-10
  -3.30500007E-02   2.85524993E-10
  -3.29999998E-02   2.82756318E-10
  -3.29499990E-02   2.29132338E-10
  -3.29000019E-02   1.72139289E-10
  -3.28500010E-02   1.67582795E-10
  -3.28000002E-02   2.53891685E-10
  -3.27499993E-02   4.31851971E-10
  -3.26999985E-02   6.60036414E-10
  -3.26500013E-02   8.69794181E-10
  -3.26000005E-02   9.94724747E-10
  -3.25499997E-02   1.00210229E-09
  -3.24999988E-02   9.11471121E-10
  -3.24500017E-02   7.90232102E-10
  -3.24000008E-02   7.25979388E-10
  -3.23500000E-02   7.86421428E-10
  -3.22999991E-02   9.84737625E-10
  -3.22499983E-02   1.26742616E-09
  -3.22000012E-02   1.53267721E-09
  -3.21500003E-02   1.67355807E-09
  -3.20999995E-02   1.62792435E-09
  -3.20499986E-02   1.41200174E-09
  -3.20000015E-02   1.12012111E-09
  -3.19500007E-02   8.87482254E-10
  -3.18999998E-02   8.30078450E-10
  -3.18499990E-02   9.88066962E-10
  -3.18000019E-02   1.29968536E-09
  -3.17500010E-02   1.62084013E-09
  -3.17000002E-02   1.78526038E-09
  -3.16499993E-02   1.68046643E-09
  -3.15999985E-02   1.30512223E-09
  -3.15500014E-02   7.79093845E-10
  -3.15000005E-02   2.97364439E-10
  -3.14499997E-02   4.46851965E-11
  -3.13999988E-02   1.07824215E-10
  -3.13500017E-02   4.26548991E-10
  -3.13000008E-02   8.09692147E-10
  -3.12500000E-02   1.01418818E-09
  -3.11999992E-02   8.55134907E-10
  -3.11500002E-02   2.97681074E-10
  -3.10999993E-02  -5.13931009E-10
  -3.10500003E-02  -1.30890732E-09
  -3.09999995E-02  -1.80593351E-09
  -3.09500005E-02  -1.84334326E-09
  -3.08999997E-02  -1.46353041E-09
  -3.08500007E-02  -9.08491504E-10
  -3.07999998E-02  -5.21725108E-10
  -3.07500008E-02  -5.95241412E-10
  -3.07000000E-02  -1.22910782E-09
  -3.06499992E-02  -2.27016450E-09
  -3.06000002E-02  -3.36445893E-09
  -3.05499993E-02  -4.10727496E-09
  -3.05000003E-02  -4.22777102E-09
  -3.04499995E-02  -3.72446363E-09
  -3.04000005E-02  -2.88467850E-09
  -3.03499997E-02  -2.17053220E-09
  -3.03000007E-02  -2.01511141E-09
  -3.02499998E-02  -2.61757083E-09
  -3.02000009E-02  -3.83262799E-09
  -3.01500000E-02  -5.21259480E-09
  -3.00999992E-02  -6.19299456E-09
  -3.00500002E-02  -6.34528874E-09
  -2.99999993E-02  -5.58376279E-09
  -2.99500003E-02  -4.22730251E-09
  -2.98999995E-02  -2.87767765E-09
  -2.98500005E-02  -2.15870899E-09
  -2.97999997E-02  -2.42830089E-09
  -2.97500007E-02  -3.59522168E-09
  -2.96999998E-02  -5.13239096E-09
  -2.96500009E-02  -6.29309804E-09
  -2.96000000E-02  -6.44276454E-09
  -2.95499992E-02  -5.35975797E-09
  -2.95000002E-02  -3.36392136E-09
  -2.94499993E-02  -1.20256116E-09
  -2.94000003E-02   2.68303907E-10
  -2.93499995E-02   4.72489881E-10
  -2.93000005E-02  -6.03495753E-10
  -2.92499997E-02  -2.37042075E-09
  -2.92000007E-02  -3.87213106E-09
  -2.91499998E-02  -4.20464996E-09
  -2.91000009E-02  -2.93585711E-09
  -2.90500000E-02  -3.32132738E-10
  -2.89999992E-02   2.72370770E-09
  -2.89500002E-02   5.10295939E-09
  -2.88999993E-02   5.93560223E-09
  -2.88500004E-02   5.02389952E-09
  -2.87999995E-02   2.96938629E-09
  -2.87500005E-02   9.38891853E-10
  -2.86999997E-02   1.57472216E-10
  -2.86500007E-02   1.34674749E-09
  -2.85999998E-02   4.36417080E-09
  -2.85500009E-02   8.22002999E-09
  -2.85000000E-02   1.14846568E-08
  -2.84499992E-02   1.29194815E-08
  -2.84000002E-02   1.20538912E-08
  -2.83499993E-02   9.44010115E-09
  -2.83000004E-02   6.45228360E-09
  -2.82499995E-02   4.69848738E-09
  -2.82000005E-02   5.29510968E-09
  -2.81499997E-02   8.32946867E-09
  -2.81000007E-02   1.27661659E-08
  -2.80499998E-02   1.68623249E-08
  -2.80000009E-02   1.89268636E-08
  -2.79500000E-02   1.80932922E-08
  -2.78999992E-02   1.47531658E-08
  -2.78500002E-02   1.04355689E-08
  -2.77999993E-02   7.16110948E-09
  -2.77500004E-02   6.54058985E-09
  -2.76999995E-02   9.01810537E-09
  -2.76500005E-02   1.36111069E-08
  -2.75999997E-02   1.82894340E-08
  -2.75500007E-02   2.08501110E-08
  -2.74999999E-02   1.99118038E-08
  -2.74500009E-02   1.55809783E-08
  -2.74000000E-02   9.47116074E-09
  -2.73499992E-02   4.03725231E-09
  -2.73000002E-02   1.49734103E-09
  -2.72499993E-02   2.81447354E-09
  -2.72000004E-02   7.20433446E-09
  -2.71499995E-02   1.24158293E-08
  -2.71000005E-02   1.56905031E-08
  -2.70499997E-02   1.49938923E-08
  -2.70000007E-02   9.97076999E-09
  -2.69499999E-02   2.17848628E-09
  -2.69000009E-02  -5.53813395E-09
  -2.68500000E-02  -1.02825588E-08
  -2.67999992E-02  -1.04174589E-08
  -2.67500002E-02  -6.35885300E-09
  -2.66999993E-02  -4.71709727E-10
  -2.66500004E-02   3.92268129E-09
  -2.65999995E-02   4.01393629E-09
  -2.65500005E-02  -1.20122767E-09
  -2.64999997E-02  -1.03880202E-08
  -2.64500007E-02  -2.03791473E-08
  -2.63999999E-02  -2.75295289E-08
  -2.63500009E-02  -2.93408462E-08
  -2.63000000E-02  -2.56316959E-08
  -2.62499992E-02  -1.87063716E-08
  -2.62000002E-02  -1.24068693E-08
  -2.61499994E-02  -1.04333919E-08
  -2.61000004E-02  -1.46639536E-08
  -2.60499995E-02  -2.42320866E-08
  -2.60000005E-02  -3.58080072E-08
  -2.59499997E-02  -4.50019861E-08
  -2.59000007E-02  -4.82988760E-08
  -2.58499999E-02  -4.46709514E-08
  -2.58000009E-02  -3.61295420E-08
  -2.57500000E-02  -2.69271929E-08
  -2.56999992E-02  -2.17201404E-08
  -2.56500002E-02  -2.34807072E-08
  -2.55999994E-02  -3.20910338E-08
  -2.55500004E-02  -4.42762342E-08
  -2.54999995E-02  -5.49557804E-08
  -2.54500005E-02  -5.94560738E-08
  -2.53999997E-02  -5.56196333E-08
  -2.53500007E-02  -4.48584920E-08
  -2.52999999E-02  -3.16406918E-08
  -2.52500009E-02  -2.15855263E-08
  -2.52000000E-02  -1.89749514E-08
  -2.51499992E-02  -2.47794354E-08
  -2.51000002E-02  -3.61034793E-08
  -2.50499994E-02  -4.73493635E-08
  -2.50000004E-02  -5.26360360E-08
  -2.49499995E-02  -4.84301026E-08
  -2.49000005E-02  -3.52146721E-08
  -2.48499997E-02  -1.74137096E-08
  -2.48000007E-02  -1.54586144E-09
  -2.47499999E-02   6.62450184E-09
  -2.47000009E-02   4.69490313E-09
  -2.46500000E-02  -5.18672794E-09
  -2.45999992E-02  -1.71338161E-08
  -2.45500002E-02  -2.40366145E-08
  -2.44999994E-02  -2.07109991E-08
  -2.44500004E-02  -6.29065067E-09
  -2.43999995E-02   1.52347841E-08
  -2.43500005E-02   3.66384185E-08
  -2.42999997E-02   5.05779596E-08
  -2.42500007E-02   5.28719113E-08
  -2.41999999E-02   4.44677610E-08
  -2.41500009E-02   3.11773469E-08
  -2.41000000E-02   2.12244284E-08
  -2.40499992E-02   2.16307772E-08
  -2.40000002E-02   3.50205482E-08
  -2.39499994E-02   5.82871742E-08
  -2.39000004E-02   8.37803142E-08
  -2.38499995E-02   1.02563789E-07
  -2.38000005E-02   1.08354094E-07
  -2.37499997E-02   1.00399696E-07
  -2.37000007E-02   8.39791312E-08
  -2.36499999E-02   6.82186467E-08
  -2.36000009E-02   6.21196747E-08
  -2.35500000E-02   7.05155898E-08
  -2.34999992E-02   9.17635390E-08
  -2.34500002E-02   1.18258626E-07
  -2.33999994E-02   1.39629904E-07
  -2.33500004E-02   1.47273838E-07
  -2.32999995E-02   1.38240480E-07
  -2.32500006E-02   1.16714325E-07
  -2.31999997E-02   9.23524084E-08
  -2.31500007E-02   7.61241736E-08
  -2.30999999E-02   7.54350111E-08
  -2.30500009E-02   9.06914721E-08
  -2.30000000E-02   1.14888927E-07
  -2.29499992E-02   1.36500191E-07
  -2.29000002E-02   1.44476545E-07
  -2.28499994E-02   1.33191179E-07
  -2.28000004E-02   1.05113891E-07
  -2.27499995E-02   6.99517386E-08
  -2.27000006E-02   4.05313649E-08
  -2.26499997E-02   2.71638267E-08
  -2.26000007E-02   3.29642624E-08
  -2.25499999E-02   5.22476213E-08
  -2.25000009E-02   7.28111402E-08
  -2.24500000E-02   8.12007244E-08
  -2.23999992E-02   6.86971546E-08
  -2.23500002E-02   3.53681280E-08
  -2.22999994E-02  -9.68390523E-09
  -2.22500004E-02  -5.21029797E-08
  -2.21999995E-02  -7.85202374E-08
  -2.21500006E-02  -8.25377526E-08
  -2.20999997E-02  -6.77730583E-08
  -2.20500007E-02  -4.65162344E-08
  -2.19999999E-02  -3.44703253E-08
  -2.19500009E-02  -4.38107683E-08
  -2.19000001E-02  -7.76162139E-08
  -2.18499992E-02  -1.28200440E-07
  -2.18000002E-02  -1.80204040E-07
  -2.17499994E-02  -2.17201432E-07
  -2.17000004E-02  -2.28971032E-07
  -2.16499995E-02  -2.16197705E-07
  -2.16000006E-02  -1.90432090E-07
  -2.15499997E-02  -1.69190372E-07
  -2.15000007E-02  -1.68247965E-07
  -2.14499999E-02  -1.94493595E-07
  -2.14000009E-02  -2.42555330E-07
  -2.13500001E-02  -2.96812971E-07
  -2.12999992E-02  -3.38047670E-07
  -2.12500002E-02  -3.51884353E-07
  -2.11999994E-02  -3.35301735E-07
  -2.11500004E-02  -2.98246079E-07
  -2.10999995E-02  -2.59492424E-07
  -2.10500006E-02  -2.38448365E-07
  -2.09999997E-02  -2.46454533E-07
  -2.09500007E-02  -2.81458995E-07
  -2.08999999E-02  -3.28537936E-07
  -2.08500009E-02  -3.66185873E-07
  -2.08000001E-02  -3.75715501E-07
  -2.07499992E-02  -3.49646001E-07
  -2.07000002E-02  -2.95301788E-07
  -2.06499994E-02  -2.31887611E-07
  -2.06000004E-02  -1.82178809E-07
  -2.05499995E-02  -1.62404760E-07
  -2.05000006E-02  -1.74805081E-07
  -2.04499997E-02  -2.06256715E-07
  -2.04000007E-02  -2.33741360E-07
  -2.03499999E-02  -2.34381844E-07
  -2.03000009E-02  -1.95674644E-07
  -2.02500001E-02  -1.21346588E-07
  -2.01999992E-02  -3.01075929E-08
  -2.01500002E-02   5.23183559E-08
  -2.00999994E-02   1.04485935E-07
  -2.00500004E-02   1.18876549E-07
  -1.99999996E-02   1.05547088E-07
  -1.99500006E-02   8.80043487E-08
  -1.98999997E-02   9.29645481E-08
  -1.98500007E-02   1.38432370E-07
  -1.97999999E-02   2.25390650E-07
  -1.97500009E-02   3.36901053E-07
  -1.97000001E-02   4.45189301E-07
  -1.96499992E-02   5.23730534E-07
  -1.96000002E-02   5.59044565E-07
  -1.95499994E-02   5.56919531E-07
  -1.95000004E-02   5.40155497E-07
  -1.94499996E-02   5.38645963E-07
  -1.94000006E-02   5.76061439E-07
  -1.93499997E-02   6.59014120E-07
  -1.93000007E-02   7.73601812E-07
  -1.92499999E-02   8.91037246E-07
  -1.92000009E-02   9.80043637E-07
  -1.91500001E-02   1.02061938E-06
  -1.90999992E-02   1.01305022E-06
  -1.90500002E-02   9.78040589E-07
  -1.89999994E-02   9.47721048E-07
  -1.89500004E-02   9.51363575E-07
  -1.88999996E-02   1.00208092E-06
  -1.88500006E-02   1.09047630E-06
  -1.87999997E-02   1.18822118E-06
  -1.87500007E-02   1.26016312E-06
  -1.86999999E-02   1.27972157E-06
  -1.86500009E-02   1.24075757E-06
  -1.86000001E-02   1.16054309E-06
  -1.85499992E-02   1.07233132E-06
  -1.85000002E-02   1.01064404E-06
  -1.84499994E-02   9.95715141E-07
  -1.84000004E-02   1.02401964E-06
  -1.83499996E-02   1.06923449E-06
  -1.83000006E-02   1.09340033E-06
  -1.82499997E-02   1.06348591E-06
  -1.82000007E-02   9.66056973E-07
  -1.81499999E-02   8.13465931E-07
  -1.81000009E-02   6.38650249E-07
  -1.80500001E-02   4.80658343E-07
  -1.79999992E-02   3.67204507E-07
  -1.79500002E-02   3.01990809E-07
  -1.78999994E-02   2.62537441E-07
  -1.78500004E-02   2.09670674E-07
  -1.77999996E-02   1.04632413E-07
  -1.77500006E-02  -7.37011874E-08
  -1.76999997E-02  -3.19173211E-07
  -1.76500008E-02  -6.00705107E-07
  -1.75999999E-02  -8.75803380E-07
  -1.75500009E-02  -1.10936514E-06
  -1.75000001E-02  -1.28947750E-06
  -1.74499992E-02  -1.43311684E-06
  -1.74000002E-02  -1.57904628E-06
  -1.73499994E-02  -1.77087918E-06
  -1.73000004E-02  -2.03771515E-06
  -1.72499996E-02  -2.38094663E-06
  -1.72000006E-02  -2.77320987E-06
  -1.71499997E-02  -3.17013223E-06
  -1.71000008E-02  -3.52981874E-06
  -1.70499999E-02  -3.83150336E-06
  -1.70000009E-02  -4.08503320E-06
  -1.69500001E-02  -4.32682600E-06
  -1.68999992E-02  -4.60391584E-06
  -1.68500002E-02  -4.95303038E-06
  -1.67999994E-02  -5.38396444E-06
  -1.67500004E-02  -5.87471413E-06
  -1.66999996E-02  -6.38071151E-06
  -1.66500006E-02  -6.85422947E-06
  -1.65999997E-02  -7.26544386E-06
  -1.65500008E-02  -7.61579849E-06
  -1.64999999E-02  -7.93761228E-06
  -1.64500009E-02  -8.27992062E-06
  -1.64000001E-02  -8.68669940E-06
  -1.63499992E-02  -9.17706984E-06
  -1.63000003E-02  -9.73631995E-06
  -1.62499994E-02  -1.03218781E-05
  -1.62000004E-02  -1.08817658E-05
  -1.61499996E-02  -1.13774695E-05
  -1.61000006E-02  -1.18010594E-05
  -1.60499997E-02  -1.21789062E-05
  -1.60000008E-02  -1.25601700E-05
  -1.59499999E-02  -1.29950176E-05
  -1.59000009E-02  -1.35121472E-05
  -1.58500001E-02  -1.41056171E-05
  -1.57999992E-02  -1.47369610E-05
  -1.57500003E-02  -1.53518085E-05
  -1.56999994E-02  -1.59037718E-05
  -1.56500004E-02  -1.63750774E-05
  -1.55999996E-02  -1.67846556E-05
  -1.55499997E-02  -1.71800148E-05
  -1.54999997E-02  -1.76163594E-05
  -1.54499998E-02  -1.81320611E-05
  -1.53999999E-02  -1.87314054E-05
  -1.53500000E-02  -1.93823325E-05
  -1.53000001E-02  -2.00303839E-05
  -1.52500002E-02  -2.06227051E-05
  -1.52000003E-02  -2.11316128E-05
  -1.51500003E-02  -2.15671862E-05
  -1.51000004E-02  -2.19731864E-05
  -1.50499996E-02  -2.24079959E-05
  -1.49999997E-02  -2.29188554E-05
  -1.49499997E-02  -2.35208481E-05
  -1.48999998E-02  -2.41900616E-05
  -1.48499999E-02  -2.48740598E-05
  -1.48000000E-02  -2.55150808E-05
  -1.47500001E-02  -2.60758679E-05
  -1.47000002E-02  -2.65566650E-05
  -1.46500003E-02  -2.69956727E-05
  -1.46000003E-02  -2.74526119E-05
  -1.45500004E-02  -2.79826709E-05
  -1.44999996E-02  -2.86122668E-05
  -1.44499997E-02  -2.93274134E-05
  -1.43999998E-02  -3.00800220E-05
  -1.43499998E-02  -3.08094095E-05
  -1.42999999E-02  -3.14696081E-05
  -1.42500000E-02  -3.20503350E-05
  -1.42000001E-02  -3.25822803E-05
  -1.41500002E-02  -3.31241827E-05
  -1.41000003E-02  -3.37373640E-05
  -1.40500003E-02  -3.44590298E-05
  -1.40000004E-02  -3.52860479E-05
  -1.39499996E-02  -3.61765378E-05
  -1.38999997E-02  -3.70687776E-05
  -1.38499998E-02  -3.79091107E-05
  -1.37999998E-02  -3.86763932E-05
  -1.37499999E-02  -3.93921473E-05
  -1.37000000E-02  -4.01118741E-05
  -1.36500001E-02  -4.09011991E-05
  -1.36000002E-02  -4.18073505E-05
  -1.35500003E-02  -4.28386666E-05
  -1.35000004E-02  -4.39613832E-05
  -1.34500004E-02  -4.51150809E-05
  -1.33999996E-02  -4.62401149E-05
  -1.33499997E-02  -4.73047767E-05
  -1.32999998E-02  -4.83202093E-05
  -1.32499998E-02  -4.93363586E-05
  -1.31999999E-02  -5.04205891E-05
  -1.31500000E-02  -5.16284999E-05
  -1.31000001E-02  -5.29797435E-05
  -1.30500002E-02  -5.44497634E-05
  -1.30000003E-02  -5.59812397E-05
  -1.29500004E-02  -5.75100967E-05
  -1.29000004E-02  -5.89946394E-05
  -1.28499996E-02  -6.04348461E-05
  -1.27999997E-02  -6.18732884E-05
  -1.27499998E-02  -6.33770906E-05
  -1.26999998E-02  -6.50087313E-05
  -1.26499999E-02  -6.67988134E-05
  -1.26000000E-02  -6.87331485E-05
  -1.25500001E-02  -7.07596846E-05
  -1.25000002E-02  -7.28120940E-05
  -1.24500003E-02  -7.48399616E-05
  -1.24000004E-02  -7.68320679E-05
  -1.23500004E-02  -7.88220495E-05
  -1.22999996E-02  -8.08742552E-05
  -1.22499997E-02  -8.30558201E-05
  -1.21999998E-02  -8.54074606E-05
  -1.21499998E-02  -8.79260551E-05
  -1.20999999E-02  -9.05663765E-05
  -1.20500000E-02  -9.32617186E-05
  -1.20000001E-02  -9.59543977E-05
  -1.19500002E-02  -9.86220475E-05
  -1.19000003E-02  -1.01288024E-04
  -1.18500004E-02  -1.04011880E-04
  -1.18000004E-02  -1.06863554E-04
  -1.17499996E-02  -1.09892564E-04
  -1.16999997E-02  -1.13106667E-04
  -1.16499998E-02  -1.16468917E-04
  -1.15999999E-02  -1.19914890E-04
  -1.15499999E-02  -1.23381964E-04
  -1.15000000E-02  -1.26837942E-04
  -1.14500001E-02  -1.30296321E-04
  -1.14000002E-02  -1.33810885E-04
  -1.13500003E-02  -1.37452444E-04
  -1.13000004E-02  -1.41278215E-04
  -1.12500004E-02  -1.45306825E-04
  -1.11999996E-02  -1.49510772E-04
  -1.11499997E-02  -1.53829140E-04
  -1.10999998E-02  -1.58195617E-04
  -1.10499999E-02  -1.62568773E-04
  -1.09999999E-02  -1.66951184E-04
  -1.09500000E-02  -1.71388907E-04
  -1.09000001E-02  -1.75951762E-04
  -1.08500002E-02  -1.80703035E-04
  -1.08000003E-02  -1.85671830E-04
  -1.07500004E-02  -1.90841238E-04
  -1.07000005E-02  -1.96156703E-04
  -1.06499996E-02  -2.01551346E-04
  -1.05999997E-02  -2.06977362E-04
  -1.05499998E-02  -2.12428058E-04
  -1.04999999E-02  -2.17941590E-04
  -1.04499999E-02  -2.23585623E-04
  -1.04000000E-02  -2.29428057E-04
  -1.03500001E-02  -2.35507236E-04
  -1.03000002E-02  -2.41816291E-04
  -1.02500003E-02  -2.48307682E-04
  -1.02000004E-02  -2.54915009E-04
  -1.01500005E-02  -2.61584501E-04
  -1.00999996E-02  -2.68299744E-04
  -1.00499997E-02  -2.75089958E-04
  -9.99999978E-03  -2.82018707E-04
  -9.94999986E-03  -2.89156276E-04
  -9.89999995E-03  -2.96549726E-04
  -9.85000003E-03  -3.04203248E-04
  -9.80000012E-03  -3.12077347E-04
  -9.75000020E-03  -3.20108375E-04
  -9.70000029E-03  -3.28239141E-04
  -9.65000037E-03  -3.36445635E-04
  -9.60000046E-03  -3.44749307E-04
  -9.54999961E-03  -3.53209238E-04
  -9.49999969E-03  -3.61896789E-04
  -9.44999978E-03  -3.70866212E-04
  -9.39999986E-03  -3.80131649E-04
  -9.34999995E-03  -3.89662833E-04
  -9.30000003E-03  -3.99400597E-04
  -9.25000012E-03  -4.09285276E-04
  -9.20000020E-03  -4.19286051E-04
  -9.15000029E-03  -4.29415522E-04
  -9.10000037E-03  -4.39726224E-04
  -9.05000046E-03  -4.50288848E-04
  -8.99999961E-03  -4.61162097E-04
  -8.94999970E-03  -4.72368352E-04
  -8.89999978E-03  -4.83885466E-04
  -8.84999987E-03  -4.95659071E-04
  -8.79999995E-03  -5.07629826E-04
  -8.75000004E-03  -5.19761350E-04
  -8.70000012E-03  -5.32059348E-04
  -8.65000021E-03  -5.44570736E-04
  -8.60000029E-03  -5.57365129E-04
  -8.55000038E-03  -5.70505392E-04
  -8.50000046E-03  -5.84022084E-04
  -8.44999962E-03  -5.97901235E-04
  -8.39999970E-03  -6.12094183E-04
  -8.34999979E-03  -6.26543595E-04
  -8.29999987E-03  -6.41208841E-04
  -8.24999996E-03  -6.56087417E-04
  -8.20000004E-03  -6.71219779E-04
  -8.15000013E-03  -6.86673389E-04
  -8.10000021E-03  -7.02513149E-04
  -8.05000030E-03  -7.18775264E-04
  -8.00000038E-03  -7.35454902E-04
  -7.95000046E-03  -7.52509339E-04
  -7.89999962E-03  -7.69880426E-04
  -7.84999970E-03  -7.87524972E-04
  -7.79999979E-03  -8.05434713E-04
  -7.74999987E-03  -8.23642476E-04
  -7.69999996E-03  -8.42211710E-04
  -7.65000004E-03  -8.61209875E-04
  -7.60000013E-03  -8.80679989E-04
  -7.55000021E-03  -9.00623330E-04
  -7.49999983E-03  -9.21004044E-04
  -7.44999992E-03  -9.41768463E-04
  -7.40000000E-03  -9.62872116E-04
  -7.35000009E-03  -9.84302140E-04
  -7.30000017E-03  -1.00608473E-03
  -7.24999979E-03  -1.02827884E-03
  -7.19999988E-03  -1.05095259E-03
  -7.14999996E-03  -1.07415277E-03
  -7.10000005E-03  -1.09788799E-03
  -7.05000013E-03  -1.12212903E-03
  -7.00000022E-03  -1.14682538E-03
  -6.94999984E-03  -1.17193104E-03
  -6.89999992E-03  -1.19742600E-03
  -6.85000001E-03  -1.22333225E-03
  -6.80000009E-03  -1.24970428E-03
  -6.75000018E-03  -1.27660763E-03
  -6.69999979E-03  -1.30409631E-03
  -6.64999988E-03  -1.33218744E-03
  -6.59999996E-03  -1.36085821E-03
  -6.55000005E-03  -1.39005959E-03
  -6.50000013E-03  -1.41974189E-03
  -6.45000022E-03  -1.44988066E-03
  -6.39999984E-03  -1.48049393E-03
  -6.34999992E-03  -1.51163200E-03
  -6.30000001E-03  -1.54336169E-03
  -6.25000009E-03  -1.57574273E-03
  -6.20000018E-03  -1.60879700E-03
  -6.14999980E-03  -1.64251099E-03
  -6.09999988E-03  -1.67684199E-03
  -6.04999997E-03  -1.71173620E-03
  -6.00000005E-03  -1.74716127E-03
  -5.95000014E-03  -1.78312790E-03
  -5.90000022E-03  -1.81968778E-03
  -5.84999984E-03  -1.85691309E-03
  -5.79999993E-03  -1.89486402E-03
  -5.75000001E-03  -1.93356897E-03
  -5.70000010E-03  -1.97301735E-03
  -5.65000018E-03  -2.01316481E-03
  -5.59999980E-03  -2.05395906E-03
  -5.54999989E-03  -2.09536590E-03
  -5.49999997E-03  -2.13739183E-03
  -5.45000006E-03  -2.18007877E-03
  -5.40000014E-03  -2.22349563E-03
  -5.35000023E-03  -2.26771343E-03
  -5.29999984E-03  -2.31276755E-03
  -5.24999993E-03  -2.35865288E-03
  -5.20000001E-03  -2.40533403E-03
  -5.15000010E-03  -2.45275837E-03
  -5.10000018E-03  -2.50088354E-03
  -5.04999980E-03  -2.54970649E-03
  -4.99999989E-03  -2.59926729E-03
  -4.94999997E-03  -2.64963182E-03
  -4.90000006E-03  -2.70086876E-03
  -4.85000014E-03  -2.75302608E-03
  -4.80000023E-03  -2.80610914E-03
  -4.74999985E-03  -2.86008185E-03
  -4.69999993E-03  -2.91489274E-03
  -4.65000002E-03  -2.97049852E-03
  -4.60000010E-03  -3.02688312E-03
  -4.55000019E-03  -3.08407913E-03
  -4.49999981E-03  -3.14215221E-03
  -4.44999989E-03  -3.20116873E-03
  -4.39999998E-03  -3.26117780E-03
  -4.35000006E-03  -3.32219340E-03
  -4.30000015E-03  -3.38419224E-03
  -4.25000023E-03  -3.44712567E-03
  -4.19999985E-03  -3.51094780E-03
  -4.14999994E-03  -3.57563724E-03
  -4.10000002E-03  -3.64121119E-03
  -4.05000011E-03  -3.70772067E-03
  -4.00000019E-03  -3.77523317E-03
  -3.94999981E-03  -3.84380599E-03
  -3.89999989E-03  -3.91346868E-03
  -3.84999998E-03  -3.98420356E-03
  -3.80000006E-03  -4.05596290E-03
  -3.74999992E-03  -4.12870385E-03
  -3.70000000E-03  -4.20239195E-03
  -3.65000009E-03  -4.27702582E-03
  -3.59999994E-03  -4.35264967E-03
  -3.55000002E-03  -4.42933338E-03
  -3.50000011E-03  -4.50714445E-03
  -3.44999996E-03  -4.58611455E-03
  -3.40000005E-03  -4.66623111E-03
  -3.34999990E-03  -4.74744290E-03
  -3.29999998E-03  -4.82969265E-03
  -3.25000007E-03  -4.91294963E-03
  -3.19999992E-03  -4.99720266E-03
  -3.15000000E-03  -5.08249970E-03
  -3.10000009E-03  -5.16891200E-03
  -3.04999994E-03  -5.25648752E-03
  -3.00000003E-03  -5.34526212E-03
  -2.95000011E-03  -5.43523300E-03
  -2.89999996E-03  -5.52634895E-03
  -2.85000005E-03  -5.61856804E-03
  -2.79999990E-03  -5.71186375E-03
  -2.74999999E-03  -5.80621092E-03
  -2.70000007E-03  -5.90163376E-03
  -2.64999992E-03  -5.99818071E-03
  -2.60000001E-03  -6.09589741E-03
  -2.55000009E-03  -6.19482342E-03
  -2.49999994E-03  -6.29497599E-03
  -2.45000003E-03  -6.39634300E-03
  -2.40000011E-03  -6.49887463E-03
  -2.34999997E-03  -6.60251128E-03
  -2.30000005E-03  -6.70721335E-03
  -2.24999990E-03  -6.81297202E-03
  -2.19999999E-03  -6.91983243E-03
  -2.15000007E-03  -7.02786492E-03
  -2.09999993E-03  -7.13711232E-03
  -2.05000001E-03  -7.24759186E-03
  -2.00000009E-03  -7.35928444E-03
  -1.94999995E-03  -7.47215375E-03
  -1.90000003E-03  -7.58614996E-03
  -1.85000000E-03  -7.70121347E-03
  -1.79999997E-03  -7.81733729E-03
  -1.75000005E-03  -7.93456193E-03
  -1.70000002E-03  -8.05291999E-03
  -1.64999999E-03  -8.17244500E-03
  -1.59999996E-03  -8.29316769E-03
  -1.55000004E-03  -8.41507036E-03
  -1.50000001E-03  -8.53812043E-03
  -1.44999998E-03  -8.66228715E-03
  -1.39999995E-03  -8.78752768E-03
  -1.35000004E-03  -8.91380943E-03
  -1.30000000E-03  -9.04113799E-03
  -1.24999997E-03  -9.16951988E-03
  -1.20000006E-03  -9.29898396E-03
  -1.15000003E-03  -9.42954887E-03
  -1.09999999E-03  -9.56121925E-03
  -1.04999996E-03  -9.69401747E-03
  -1.00000005E-03  -9.82791558E-03
  -9.50000016E-04  -9.96285211E-03
  -8.99999985E-04  -1.00987889E-02
  -8.50000011E-04  -1.02356737E-02
  -7.99999980E-04  -1.03734741E-02
  -7.50000007E-04  -1.05122067E-02
  -6.99999975E-04  -1.06519228E-02
  -6.50000002E-04  -1.07926670E-02
  -6.00000028E-04  -1.09344507E-02
  -5.49999997E-04  -1.10772625E-02
  -5.00000024E-04  -1.12210391E-02
  -4.49999992E-04  -1.13656931E-02
  -3.99999990E-04  -1.15111675E-02
  -3.49999988E-04  -1.16574271E-02
  -3.00000014E-04  -1.18044578E-02
  -2.50000012E-04  -1.19523257E-02
  -1.99999995E-04  -1.21011194E-02
  -1.50000007E-04  -1.22508500E-02
  -9.99999975E-05  -1.24014486E-02
  -4.99999987E-05  -1.25528406E-02
   0.00000000      -1.27049219E-02
   4.99999987E-05  -1.28575861E-02
   9.99999975E-05  -1.30108334E-02
   1.50000007E-04  -1.31646851E-02
   1.99999995E-04  -1.33191962E-02
   2.50000012E-04  -1.34744272E-02
   3.00000014E-04  -1.36303920E-02
   3.49999988E-04  -1.37870535E-02
   3.99999990E-04  -1.39442943E-02
   4.49999992E-04  -1.41019886E-02
   5.00000024E-04  -1.42600555E-02
   5.49999997E-04  -1.44184846E-02
   6.00000028E-04  -1.45772891E-02
   6.50000002E-04  -1.47364875E-02
   6.99999975E-04  -1.48961153E-02
   7.50000007E-04  -1.50561789E-02
   7.99999980E-04  -1.52166812E-02
   8.50000011E-04  -1.53775634E-02
   8.99999985E-04  -1.55386841E-02
   9.50000016E-04  -1.56998709E-02
   1.00000005E-03  -1.58610530E-02
   1.04999996E-03  -1.60222333E-02
   1.09999999E-03  -1.61834024E-02
   1.15000003E-03  -1.63446125E-02
   1.20000006E-03  -1.65059343E-02
   1.24999997E-03  -1.66674051E-02
   1.30000000E-03  -1.68289766E-02
   1.35000004E-03  -1.69904642E-02
   1.39999995E-03  -1.71516594E-02
   1.44999998E-03  -1.73124447E-02
   1.50000001E-03  -1.74727943E-02
   1.55000004E-03  -1.76327433E-02
   1.59999996E-03  -1.77923366E-02
   1.64999999E-03  -1.79516021E-02
   1.70000002E-03  -1.81105901E-02
   1.75000005E-03  -1.82692390E-02
   1.79999997E-03  -1.84273403E-02
   1.85000000E-03  -1.85846929E-02
   1.90000003E-03  -1.87412202E-02
   1.94999995E-03  -1.88968629E-02
   2.00000009E-03  -1.90515704E-02
   2.05000001E-03  -1.92053784E-02
   2.09999993E-03  -1.93583146E-02
   2.15000007E-03  -1.95104498E-02
   2.19999999E-03  -1.96617488E-02
   2.24999990E-03  -1.98120642E-02
   2.30000005E-03  -1.99612584E-02
   2.34999997E-03  -2.01090984E-02
   2.40000011E-03  -2.02553999E-02
   2.45000003E-03  -2.04000864E-02
   2.49999994E-03  -2.05431934E-02
   2.55000009E-03  -2.06848104E-02
   2.60000001E-03  -2.08249856E-02
   2.64999992E-03  -2.09637545E-02
   2.70000007E-03  -2.11010259E-02
   2.74999999E-03  -2.12366469E-02
   2.79999990E-03  -2.13704109E-02