  -3.99999991E-02   0.00000000    
  -3.99499983E-02   0.00000000    
  -3.99000011E-02   6.73557867E-12
  -3.98500003E-02   3.25395544E-11
  -3.97999994E-02   7.63212757E-11
  -3.97499986E-02   1.19354540E-10
  -3.97000015E-02   1.52104010E-10
  -3.96500006E-02   1.96402186E-10
  -3.95999998E-02   2.80881041E-10
  -3.95499989E-02   3.90923821E-10
  -3.95000018E-02   4.64465577E-10
  -3.94500010E-02   4.58726918E-10
  -3.94000001E-02   4.14905610E-10
  -3.93499993E-02   4.30077696E-10
  -3.92999984E-02   5.51793111E-10
  -3.92500013E-02   7.17262472E-10
  -3.92000005E-02   8.19831925E-10
  -3.91499996E-02   8.31269387E-10
  -3.90999988E-02   8.29493141E-10
  -3.90500017E-02   8.90943541E-10
  -3.90000008E-02   9.80041381E-10
  -3.89500000E-02   9.82824933E-10
  -3.88999991E-02   8.53485060E-10
  -3.88499983E-02   6.88560431E-10
  -3.88000011E-02   6.19749918E-10
  -3.87500003E-02   6.44473808E-10
  -3.86999995E-02   6.08435691E-10
  -3.86499986E-02   3.79646370E-10
  -3.86000015E-02   1.09990671E-11
  -3.85500006E-02  -3.14794385E-10
  -3.84999998E-02  -5.05064712E-10
  -3.84499989E-02  -6.78496814E-10
  -3.84000018E-02  -1.03224373E-09
  -3.83500010E-02  -1.60755209E-09
  -3.83000001E-02  -2.23799801E-09
  -3.82499993E-02  -2.74625633E-09
  -3.81999984E-02  -3.14836557E-09
  -3.81500013E-02  -3.61168007E-09
  -3.81000005E-02  -4.22035829E-09
  -3.80499996E-02  -4.85119900E-09
  -3.79999988E-02  -5.33284572E-09
  -3.79500017E-02  -5.70059600E-09
  -3.79000008E-02  -6.21641361E-09
  -3.78500000E-02  -7.09450276E-09
  -3.77999991E-02  -8.23950685E-09
  -3.77499983E-02  -9.31314581E-09
  -3.77000012E-02  -1.00678008E-08
  -3.76500003E-02  -1.05705604E-08
  -3.75999995E-02  -1.10724887E-08
  -3.75499986E-02  -1.16992762E-08
  -3.75000015E-02  -1.23387842E-08
  -3.74500006E-02  -1.28377984E-08
  -3.73999998E-02  -1.32252147E-08
  -3.73499990E-02  -1.36492746E-08
  -3.73000018E-02  -1.40955354E-08
  -3.72500010E-02  -1.42651579E-08
  -3.72000001E-02  -1.38313050E-08
  -3.71499993E-02  -1.28287905E-08
  -3.70999984E-02  -1.17292780E-08
  -3.70500013E-02  -1.10770753E-08
  -3.70000005E-02  -1.10447322E-08
  -3.69499996E-02  -1.13475513E-08
  -3.68999988E-02  -1.15454215E-08
  -3.68500017E-02  -1.13531424E-08
  -3.68000008E-02  -1.06495719E-08
  -3.67500000E-02  -9.30289268E-09
  -3.66999991E-02  -7.16226900E-09
  -3.66499983E-02  -4.30957892E-09
  -3.66000012E-02  -1.24910637E-09
  -3.65500003E-02   1.31278444E-09
  -3.64999995E-02   3.00187186E-09
  -3.64499986E-02   4.12407752E-09
  -3.64000015E-02   5.45936185E-09
  -3.63500006E-02   7.68002018E-09
  -3.62999998E-02   1.09266605E-08
  -3.62499990E-02   1.48590766E-08
  -3.62000018E-02   1.89920808E-08
  -3.61500010E-02   2.29167085E-08
  -3.61000001E-02   2.62878714E-08
  -3.60499993E-02   2.88217752E-08
  -3.59999985E-02   3.05093764E-08
  -3.59500013E-02   3.18669429E-08
  -3.59000005E-02   3.38281900E-08
  -3.58499996E-02   3.71740292E-08
  -3.57999988E-02   4.19128590E-08
  -3.57500017E-02   4.71714330E-08
  -3.57000008E-02   5.17277634E-08
  -3.56500000E-02   5.47478471E-08
  -3.55999991E-02   5.61644491E-08
  -3.55499983E-02   5.65390259E-08
  -3.55000012E-02   5.66946063E-08
  -3.54500003E-02   5.74371022E-08
  -3.53999995E-02   5.93734732E-08
  -3.53499986E-02   6.26562695E-08
  -3.53000015E-02   6.66866313E-08
  -3.52500007E-02   7.01098699E-08
  -3.51999998E-02   7.13689445E-08
  -3.51499990E-02   6.95992313E-08
  -3.51000018E-02   6.52329391E-08
  -3.50500010E-02   5.98140630E-08
  -3.50000001E-02   5.51320092E-08
  -3.49499993E-02   5.22903569E-08
  -3.48999985E-02   5.12777589E-08
  -3.48500013E-02   5.11281293E-08
  -3.48000005E-02   5.03752347E-08
  -3.47499996E-02   4.75357815E-08
  -3.46999988E-02   4.15925250E-08
  -3.46500017E-02   3.24843725E-08
  -3.46000008E-02   2.13753992E-08
  -3.45500000E-02   1.03352287E-08
  -3.44999991E-02   1.35847611E-09
  -3.44499983E-02  -4.77753304E-09
  -3.44000012E-02  -9.03748987E-09
  -3.43500003E-02  -1.36257263E-08
  -3.42999995E-02  -2.07876738E-08
  -3.42499986E-02  -3.17040687E-08
  -3.42000015E-02  -4.60719995E-08
  -3.41500007E-02  -6.23922816E-08
  -3.40999998E-02  -7.86078900E-08
  -3.40499990E-02  -9.28067010E-08
  -3.40000018E-02  -1.03913045E-07
  -3.39500010E-02  -1.12256970E-07
  -3.39000002E-02  -1.19668869E-07
  -3.38499993E-02  -1.28749917E-07
  -3.37999985E-02  -1.41472015E-07
  -3.37500013E-02  -1.57904964E-07
  -3.37000005E-02  -1.75976680E-07
  -3.36499996E-02  -1.92506462E-07
  -3.35999988E-02  -2.04841385E-07
  -3.35500017E-02  -2.12070375E-07
  -3.35000008E-02  -2.15245919E-07
  -3.34500000E-02  -2.16777167E-07
  -3.33999991E-02  -2.19479162E-07
  -3.33499983E-02  -2.25576386E-07
  -3.33000012E-02  -2.35761746E-07
  -3.32500003E-02  -2.48575390E-07
  -3.31999995E-02  -2.60626280E-07
  -3.31499986E-02  -2.67954221E-07
  -3.31000015E-02  -2.68015214E-07
  -3.30500007E-02  -2.61082420E-07
  -3.29999998E-02  -2.50079268E-07
  -3.29499990E-02  -2.38940430E-07
  -3.29000019E-02  -2.30608961E-07
  -3.28500010E-02  -2.25834327E-07
  -3.28000002E-02  -2.23140887E-07
  -3.27499993E-02  -2.19580372E-07
  -3.26999985E-02  -2.11790422E-07
  -3.26500013E-02  -1.97199171E-07
  -3.26000005E-02  -1.75238398E-07
  -3.25499997E-02  -1.48016369E-07
  -3.24999988E-02  -1.19709355E-07
  -3.24500017E-02  -9.45740055E-08
  -3.24000008E-02  -7.46185620E-08
  -3.23500000E-02  -5.84770667E-08
  -3.22999991E-02  -4.22594759E-08
  -3.22499983E-02  -2.17200089E-08
  -3.22000012E-02   5.71225112E-09
  -3.21500003E-02   4.00538447E-08
  -3.20999995E-02   7.90245736E-08
  -3.20499986E-02   1.18911849E-07
  -3.20000015E-02   1.55760162E-07
  -3.19500007E-02   1.86873010E-07
  -3.18999998E-02   2.12260403E-07
  -3.18499990E-02   2.35076968E-07
  -3.18000019E-02   2.60274788E-07
  -3.17500010E-02   2.91903746E-07
  -3.17000002E-02   3.30710293E-07
  -3.16499993E-02   3.73647765E-07
  -3.15999985E-02   4.15521527E-07
  -3.15500014E-02   4.51513699E-07
  -3.15000005E-02   4.79059565E-07
  -3.14499997E-02   4.98459485E-07
  -3.13999988E-02   5.12536019E-07
  -3.13500017E-02   5.25699647E-07
  -3.13000008E-02   5.42403143E-07
  -3.12500000E-02   5.65094695E-07
  -3.11999992E-02   5.92552396E-07
  -3.11500002E-02   6.19921082E-07
  -3.10999993E-02   6.40927908E-07
  -3.10500003E-02   6.51117830E-07
  -3.09999995E-02   6.50048889E-07
  -3.09500005E-02   6.41132658E-07
  -3.08999997E-02   6.29564397E-07
  -3.08500007E-02   6.19885668E-07
  -3.07999998E-02   6.14370151E-07
  -3.07500008E-02   6.12422355E-07
  -3.07000000E-02   6.10720576E-07
  -3.06499992E-02   6.04152717E-07
  -3.06000002E-02   5.87757654E-07
  -3.05499993E-02   5.59188436E-07
  -3.05000003E-02   5.20276558E-07
  -3.04499995E-02   4.76338016E-07
  -3.04000005E-02   4.33340659E-07
  -3.03499997E-02   3.94710383E-07
  -3.03000007E-02   3.59808354E-07
  -3.02499998E-02   3.24747077E-07
  -3.02000009E-02   2.84582569E-07
  -3.01500000E-02   2.35443906E-07
  -3.00999992E-02   1.75883102E-07
  -3.00500002E-02   1.07477469E-07
  -2.99999993E-02   3.46560221E-08
  -2.99500003E-02  -3.66253765E-08
  -2.98999995E-02  -1.01402641E-07
  -2.98500005E-02  -1.58353700E-07
  -2.97999997E-02  -2.10814605E-07
  -2.97500007E-02  -2.65165681E-07
  -2.96999998E-02  -3.27429575E-07
  -2.96500009E-02  -4.00210553E-07
  -2.96000000E-02  -4.81686868E-07
  -2.95499992E-02  -5.66778056E-07
  -2.95000002E-02  -6.49348010E-07
  -2.94499993E-02  -7.24312883E-07
  -2.94000003E-02  -7.89229944E-07
  -2.93499995E-02  -8.45228556E-07
  -2.93000005E-02  -8.96833171E-07
  -2.92499997E-02  -9.50155140E-07
  -2.92000007E-02  -1.00981538E-06
  -2.91499998E-02  -1.07618951E-06
  -2.91000009E-02  -1.14482737E-06
  -2.90500000E-02  -1.20858454E-06
  -2.89999992E-02  -1.26113093E-06
  -2.89500002E-02  -1.29969794E-06
  -2.88999993E-02  -1.32575110E-06
  -2.88500004E-02  -1.34380787E-06
  -2.87999995E-02  -1.35941286E-06
  -2.87500005E-02  -1.37707809E-06
  -2.86999997E-02  -1.39851420E-06
  -2.86500007E-02  -1.42154124E-06
  -2.85999998E-02  -1.44045976E-06
  -2.85500009E-02  -1.44831631E-06
  -2.85000000E-02  -1.44028002E-06
  -2.84499992E-02  -1.41621456E-06
  -2.84000002E-02  -1.38071323E-06
  -2.83499993E-02  -1.34052766E-06
  -2.83000004E-02  -1.30105923E-06
  -2.82499995E-02  -1.26397117E-06
  -2.82000005E-02  -1.22688709E-06
  -2.81499997E-02  -1.18473872E-06
  -2.81000007E-02  -1.13183569E-06
  -2.80499998E-02  -1.06402922E-06
  -2.80000009E-02  -9.80595701E-07
  -2.79500000E-02  -8.85201132E-07
  -2.78999992E-02  -7.85008353E-07
  -2.78500002E-02  -6.87690317E-07
  -2.77999993E-02  -5.97648750E-07
  -2.77500004E-02  -5.13680277E-07
  -2.76999995E-02  -4.29679545E-07
  -2.76500005E-02  -3.37951406E-07
  -2.75999997E-02  -2.33055715E-07
  -2.75500007E-02  -1.14137720E-07
  -2.74999999E-02   1.49678545E-08
  -2.74500009E-02   1.47281696E-07
  -2.74000000E-02   2.75012241E-07
  -2.73499992E-02   3.92173035E-07
  -2.73000002E-02   4.96981386E-07
  -2.72499993E-02   5.92957917E-07
  -2.72000004E-02   6.87557019E-07
  -2.71499995E-02   7.88415662E-07
  -2.71000005E-02   8.99086956E-07
  -2.70499997E-02   1.01686612E-06
  -2.70000007E-02   1.13411181E-06
  -2.69499999E-02   1.24204007E-06
  -2.69000009E-02   1.33454500E-06
  -2.68500000E-02   1.41016972E-06
  -2.67999992E-02   1.47192429E-06
  -2.67500002E-02   1.52572159E-06
  -2.66999993E-02   1.57803834E-06
  -2.66500004E-02   1.63308448E-06
  -2.65999995E-02   1.69025191E-06
  -2.65500005E-02   1.74336708E-06
  -2.64999997E-02   1.78297887E-06
  -2.64500007E-02   1.80098993E-06
  -2.63999999E-02   1.79495498E-06
  -2.63500009E-02   1.76925039E-06
  -2.63000000E-02   1.73245633E-06
  -2.62499992E-02   1.69284590E-06
  -2.62000002E-02   1.65467827E-06
  -2.61499994E-02   1.61683283E-06
  -2.61000004E-02   1.57349734E-06
  -2.60499995E-02   1.51615495E-06
  -2.60000005E-02   1.43656814E-06
  -2.59499997E-02   1.33030062E-06
  -2.59000007E-02   1.19943479E-06
  -2.58499999E-02   1.05243123E-06
  -2.58000009E-02   9.00262080E-07
  -2.57500000E-02   7.50630136E-07
  -2.56999992E-02   6.03895501E-07
  -2.56500002E-02   4.53190069E-07
  -2.55999994E-02   2.88313601E-07
  -2.55500004E-02   1.00745048E-07
  -2.54999995E-02  -1.12932270E-07
  -2.54500005E-02  -3.49986607E-07
  -2.53999997E-02  -6.02482316E-07
  -2.53500007E-02  -8.59773820E-07
  -2.52999999E-02  -1.11239694E-06
  -2.52500009E-02  -1.35641403E-06
  -2.52000000E-02  -1.59590218E-06
  -2.51499992E-02  -1.84140936E-06
  -2.51000002E-02  -2.10449184E-06
  -2.50499994E-02  -2.39143219E-06
  -2.50000004E-02  -2.70005944E-06
  -2.49499995E-02  -3.02130729E-06
  -2.49000005E-02  -3.34398032E-06
  -2.48499997E-02  -3.65961660E-06
  -2.48000007E-02  -3.96530959E-06
  -2.47499999E-02  -4.26428232E-06
  -2.47000009E-02  -4.56455928E-06
  -2.46500000E-02  -4.87581610E-06
  -2.45999992E-02  -5.20479989E-06
  -2.45500002E-02  -5.55099768E-06
  -2.44999994E-02  -5.90554919E-06
  -2.44500004E-02  -6.25499706E-06
  -2.43999995E-02  -6.58804584E-06
  -2.43500005E-02  -6.90147499E-06
  -2.42999997E-02  -7.20140133E-06
  -2.42500007E-02  -7.49961055E-06
  -2.41999999E-02  -7.80772461E-06
  -2.41500009E-02  -8.13230145E-06
  -2.41000000E-02  -8.47255069E-06
  -2.40499992E-02  -8.82048334E-06
  -2.40000002E-02  -9.16336739E-06
  -2.39499994E-02  -9.48852266E-06
  -2.39000004E-02  -9.78921889E-06
  -2.38499995E-02  -1.00685429E-05
  -2.38000005E-02  -1.03385082E-05
  -2.37499997E-02  -1.06142252E-05
  -2.37000007E-02  -1.09060647E-05
  -2.36499999E-02  -1.12146845E-05
  -2.36000009E-02  -1.15313132E-05
  -2.35500000E-02  -1.18424941E-05
  -2.34999992E-02  -1.21364146E-05
  -2.34500002E-02  -1.24077815E-05
  -2.33999994E-02  -1.26596351E-05
  -2.33500004E-02  -1.29022910E-05
  -2.32999995E-02  -1.31497027E-05
  -2.32500006E-02  -1.34134953E-05
  -2.31999997E-02  -1.36973049E-05
  -2.31500007E-02  -1.39943368E-05
  -2.30999999E-02  -1.42901745E-05
  -2.30500009E-02  -1.45703498E-05
  -2.30000000E-02  -1.48280014E-05
  -2.29499992E-02  -1.50671740E-05
  -2.29000002E-02  -1.53005858E-05
  -2.28499994E-02  -1.55434554E-05
  -2.28000004E-02  -1.58067742E-05
  -2.27499995E-02  -1.60934324E-05
  -2.27000006E-02  -1.63973400E-05
  -2.26499997E-02  -1.67057351E-05
  -2.26000007E-02  -1.70044241E-05
  -2.25499999E-02  -1.72846212E-05
  -2.25000009E-02  -1.75480709E-05
  -2.24500000E-02  -1.78071350E-05
  -2.23999992E-02  -1.80795996E-05
  -2.23500002E-02  -1.83795910E-05
  -2.22999994E-02  -1.87103487E-05
  -2.22500004E-02  -1.90632309E-05
  -2.21999995E-02  -1.94226632E-05
  -2.21500006E-02  -1.97734753E-05
  -2.20999997E-02  -2.01072817E-05
  -2.20500007E-02  -2.04260050E-05
  -2.19999999E-02  -2.07412158E-05
  -2.19500009E-02  -2.10700873E-05
  -2.19000001E-02  -2.14290558E-05
  -2.18499992E-02  -2.18259665E-05
  -2.18000002E-02  -2.22554390E-05
  -2.17499994E-02  -2.27012133E-05
  -2.17000004E-02  -2.31440827E-05
  -2.16499995E-02  -2.35712214E-05
  -2.16000006E-02  -2.39823894E-05
  -2.15499997E-02  -2.43891755E-05
  -2.15000007E-02  -2.48087199E-05
  -2.14499999E-02  -2.52559948E-05
  -2.14000009E-02  -2.57376614E-05
  -2.13500001E-02  -2.62499489E-05
  -2.12999992E-02  -2.67801024E-05
  -2.12500002E-02  -2.73119931E-05
  -2.11999994E-02  -2.78333009E-05
  -2.11500004E-02  -2.83419413E-05
  -2.10999995E-02  -2.88484953E-05
  -2.10500006E-02  -2.93721059E-05
  -2.09999997E-02  -2.99311505E-05
  -2.09500007E-02  -3.05337235E-05
  -2.08999999E-02  -3.11736949E-05
  -2.08500009E-02  -3.18344864E-05
  -2.08000001E-02  -3.24977264E-05
  -2.07499992E-02  -3.31511001E-05
  -2.07000002E-02  -3.37929923E-05
  -2.06499994E-02  -3.44335604E-05
  -2.06000004E-02  -3.50913324E-05
  -2.05499995E-02  -3.57857607E-05
  -2.05000006E-02  -3.65294945E-05
  -2.04499997E-02  -3.73218099E-05
  -2.04000007E-02  -3.81486971E-05
  -2.03499999E-02  -3.89898014E-05
  -2.03000009E-02  -3.98292177E-05
  -2.02500001E-02  -4.06643667E-05
  -2.01999992E-02  -4.15067698E-05
  -2.01500002E-02  -4.23767997E-05
  -2.00999994E-02  -4.32949455E-05
  -2.00500004E-02  -4.42737728E-05
  -1.99999996E-02  -4.53129687E-05
  -1.99500006E-02  -4.64006262E-05
  -1.98999997E-02  -4.75191555E-05
  -1.98500007E-02  -4.86524586E-05
  -1.97999999E-02  -4.97939545E-05
  -1.97500009E-02  -5.09515921E-05
  -1.97000001E-02  -5.21462680E-05
  -1.96499992E-02  -5.34028477E-05
  -1.96000002E-02  -5.47388045E-05
  -1.95499994E-02  -5.61566994E-05
  -1.95000004E-02  -5.76445855E-05
  -1.94499996E-02  -5.91843745E-05
  -1.94000006E-02  -6.07611037E-05
  -1.93499997E-02  -6.23706292E-05
  -1.93000007E-02  -6.40209182E-05
  -1.92499999E-02  -6.57293131E-05
  -1.92000009E-02  -6.75174524E-05
  -1.91500001E-02  -6.94028204E-05
  -1.90999992E-02  -7.13921399E-05
  -1.90500002E-02  -7.34772257E-05
  -1.89999994E-02  -7.56382942E-05
  -1.89500004E-02  -7.78572212E-05
  -1.88999996E-02  -8.01284987E-05
  -1.88500006E-02  -8.24624294E-05
  -1.87999997E-02  -8.48808122E-05
  -1.87500007E-02  -8.74085745E-05
  -1.86999999E-02  -9.00639643E-05
  -1.86500009E-02  -9.28520021E-05
  -1.86000001E-02  -9.57637094E-05
  -1.85499992E-02  -9.87816529E-05
  -1.85000002E-02  -1.01888116E-04
  -1.84499994E-02  -1.05071318E-04
  -1.84000004E-02  -1.08332453E-04
  -1.83499996E-02  -1.11689376E-04
  -1.83000006E-02  -1.15171475E-04
  -1.82499997E-02  -1.18804208E-04
  -1.82000007E-02  -1.22595840E-04
  -1.81499999E-02  -1.26537358E-04
  -1.81000009E-02  -1.30610380E-04
  -1.80500001E-02  -1.34797418E-04
  -1.79999992E-02  -1.39089039E-04
  -1.79500002E-02  -1.43487618E-04
  -1.78999994E-02  -1.48006060E-04
  -1.78500004E-02  -1.52665481E-04
  -1.77999996E-02  -1.57487419E-04
  -1.77500006E-02  -1.62482916E-04
  -1.76999997E-02  -1.67648614E-04
  -1.76500008E-02  -1.72966626E-04
  -1.75999999E-02  -1.78412345E-04
  -1.75500009E-02  -1.83969998E-04
  -1.75000001E-02  -1.89642669E-04
  -1.74499992E-02  -1.95449611E-04
  -1.74000002E-02  -2.01416522E-04
  -1.73499994E-02  -2.07561214E-04
  -1.73000004E-02  -2.13888561E-04
  -1.72499996E-02  -2.20396309E-04
  -1.72000006E-02  -2.27072946E-04
  -1.71499997E-02  -2.33899205E-04
  -1.71000008E-02  -2.40856927E-04
  -1.70499999E-02  -2.47935473E-04
  -1.70000009E-02  -2.55146646E-04
  -1.69500001E-02  -2.62520887E-04
  -1.68999992E-02  -2.70082819E-04
  -1.68500002E-02  -2.77839106E-04
  -1.67999994E-02  -2.85782065E-04
  -1.67500004E-02  -2.93894031E-04
  -1.66999996E-02  -3.02153057E-04
  -1.66500006E-02  -3.10546195E-04
  -1.65999997E-02  -3.19074170E-04
  -1.65500008E-02  -3.27745860E-04
  -1.64999999E-02  -3.36578756E-04
  -1.64500009E-02  -3.45597102E-04
  -1.64000001E-02  -3.54821328E-04
  -1.63499992E-02  -3.64257576E-04
  -1.63000003E-02  -3.73886549E-04
  -1.62499994E-02  -3.83674836E-04
  -1.62000004E-02  -3.93601164E-04
  -1.61499996E-02  -4.03669255E-04
  -1.61000006E-02  -4.13894712E-04
  -1.60499997E-02  -4.24291880E-04
  -1.60000008E-02  -4.34873888E-04
  -1.59499999E-02  -4.45656071E-04
  -1.59000009E-02  -4.56649461E-04
  -1.58500001E-02  -4.67845704E-04
  -1.57999992E-02  -4.79225302E-04
  -1.57500003E-02  -4.90770151E-04
  -1.56999994E-02  -5.02469658E-04
  -1.56500004E-02  -5.14333369E-04
  -1.55999996E-02  -5.26389456E-04
  -1.55499997E-02  -5.38664986E-04
  -1.54999997E-02  -5.51173405E-04
  -1.54499998E-02  -5.63913025E-04
  -1.53999999E-02  -5.76870632E-04
  -1.53500000E-02  -5.90024865E-04
  -1.53000001E-02  -6.03361288E-04
  -1.52500002E-02  -6.16880890E-04
  -1.52000003E-02  -6.30594150E-04
  -1.51500003E-02  -6.44518586E-04
  -1.51000004E-02  -6.58677367E-04
  -1.50499996E-02  -6.73096743E-04
  -1.49999997E-02  -6.87785388E-04
  -1.49499997E-02  -7.02727877E-04
  -1.48999998E-02  -7.17908610E-04
  -1.48499999E-02  -7.33312743E-04
  -1.48000000E-02  -7.48935679E-04
  -1.47500001E-02  -7.64787779E-04
  -1.47000002E-02  -7.80894421E-04
  -1.46500003E-02  -7.97279587E-04
  -1.46000003E-02  -8.13948514E-04
  -1.45500004E-02  -8.30912730E-04
  -1.44999996E-02  -8.48179101E-04
  -1.44499997E-02  -8.65733484E-04
  -1.43999998E-02  -8.83551547E-04
  -1.43499998E-02  -9.01629508E-04
  -1.42999999E-02  -9.19988728E-04
  -1.42500000E-02  -9.38652956E-04
  -1.42000001E-02  -9.57640819E-04
  -1.41500002E-02  -9.76965996E-04
  -1.41000003E-02  -9.96646821E-04
  -1.40500003E-02  -1.01669121E-03
  -1.40000004E-02  -1.03708182E-03
  -1.39499996E-02  -1.05779269E-03
  -1.38999997E-02  -1.07881613E-03
  -1.38499998E-02  -1.10018079E-03
  -1.37999998E-02  -1.12191390E-03
  -1.37499999E-02  -1.14402571E-03
  -1.37000000E-02  -1.16653647E-03
  -1.36500001E-02  -1.18945295E-03
  -1.36000002E-02  -1.21277838E-03
  -1.35500003E-02  -1.23652164E-03
  -1.35000004E-02  -1.26066152E-03
  -1.34500004E-02  -1.28517498E-03
  -1.33999996E-02  -1.31007959E-03
  -1.33499997E-02  -1.33542519E-03
  -1.32999998E-02  -1.36125006E-03
  -1.32499998E-02  -1.38755667E-03
  -1.31999999E-02  -1.41433429E-03
  -1.31500000E-02  -1.44159223E-03
  -1.31000001E-02  -1.46933773E-03
  -1.30500002E-02  -1.49756030E-03
  -1.30000003E-02  -1.52624666E-03
  -1.29500004E-02  -1.55538344E-03
  -1.29000004E-02  -1.58498751E-03
  -1.28499996E-02  -1.61512627E-03
  -1.27999997E-02  -1.64585735E-03
  -1.27499998E-02  -1.67715864E-03
  -1.26999998E-02  -1.70899753E-03
  -1.26499999E-02  -1.74138776E-03
  -1.26000000E-02  -1.77435798E-03
  -1.25500001E-02  -1.80793356E-03
  -1.25000002E-02  -1.84209365E-03
  -1.24500003E-02  -1.87681196E-03
  -1.24000004E-02  -1.91212585E-03
  -1.23500004E-02  -1.94810354E-03
  -1.22999996E-02  -1.98475877E-03
  -1.22499997E-02  -2.02205172E-03
  -1.21999998E-02  -2.05994886E-03
  -1.21499998E-02  -2.09844741E-03
  -1.20999999E-02  -2.13760952E-03
  -1.20500000E-02  -2.17747362E-03
  -1.20000001E-02  -2.21800711E-03
  -1.19500002E-02  -2.25923373E-03
  -1.19000003E-02  -2.30124383E-03
  -1.18500004E-02  -2.34408607E-03
  -1.18000004E-02  -2.38775252E-03
  -1.17499996E-02  -2.43219826E-03
  -1.16999997E-02  -2.47737253E-03
  -1.16499998E-02  -2.52329139E-03
  -1.15999999E-02  -2.57000001E-03
  -1.15499999E-02  -2.61752075E-03
  -1.15000000E-02  -2.66585313E-03
  -1.14500001E-02  -2.71496945E-03
  -1.14000002E-02  -2.76488555E-03
  -1.13500003E-02  -2.81565241E-03
  -1.13000004E-02  -2.86727562E-03
  -1.12500004E-02  -2.91974423E-03
  -1.11999996E-02  -2.97308667E-03
  -1.11499997E-02  -3.02736624E-03
  -1.10999998E-02  -3.08264676E-03
  -1.10499999E-02  -3.13894614E-03
  -1.09999999E-02  -3.19624715E-03
  -1.09500000E-02  -3.25460336E-03
  -1.09000001E-02  -3.31406831E-03
  -1.08500002E-02  -3.37460707E-03
  -1.08000003E-02  -3.43613653E-03
  -1.07500004E-02  -3.49858217E-03
  -1.07000005E-02  -3.56193702E-03
  -1.06499996E-02  -3.62628070E-03
  -1.05999997E-02  -3.69167398E-03
  -1.05499998E-02  -3.75814177E-03
  -1.04999999E-02  -3.82568175E-03
  -1.04499999E-02  -3.89426202E-03
  -1.04000000E-02  -3.96391237E-03
  -1.03500001E-02  -4.03471198E-03
  -1.03000002E-02  -4.10672510E-03
  -1.02500003E-02  -4.17990424E-03
  -1.02000004E-02  -4.25420329E-03
  -1.01500005E-02  -4.32971213E-03
  -1.00999996E-02  -4.40654391E-03
  -1.00499997E-02  -4.48474428E-03
  -9.99999978E-03  -4.56426525E-03
  -9.94999986E-03  -4.64497926E-03
  -9.89999995E-03  -4.72690910E-03
  -9.85000003E-03  -4.81015537E-03
  -9.80000012E-03  -4.89471527E-03
  -9.75000020E-03  -4.98052081E-03
  -9.70000029E-03  -5.06755477E-03
  -9.65000037E-03  -5.15591633E-03
  -9.60000046E-03  -5.24566509E-03
  -9.54999961E-03  -5.33677312E-03
  -9.49999969E-03  -5.42922178E-03
  -9.44999978E-03  -5.52298361E-03
  -9.39999986E-03  -5.61795570E-03
  -9.34999995E-03  -5.71414921E-03
  -9.30000003E-03  -5.81173925E-03
  -9.25000012E-03  -5.91083290E-03
  -9.20000020E-03  -6.01142598E-03
  -9.15000029E-03  -6.11340348E-03
  -9.10000037E-03  -6.21677795E-03
  -9.05000046E-03  -6.32172683E-03
  -8.99999961E-03  -6.42838236E-03
  -8.94999970E-03  -6.53653499E-03
  -8.89999978E-03  -6.64597051E-03
  -8.84999987E-03  -6.75689382E-03
  -8.79999995E-03  -6.86951121E-03
  -8.75000004E-03  -6.98382547E-03
  -8.70000012E-03  -7.09965406E-03
  -8.65000021E-03  -7.21694529E-03
  -8.60000029E-03  -7.33588682E-03
  -8.55000038E-03  -7.45649589E-03
  -8.50000046E-03  -7.57855969E-03
  -8.44999962E-03  -7.70200649E-03
  -8.39999970E-03  -7.82696158E-03
  -8.34999979E-03  -7.95357581E-03
  -8.29999987E-03  -8.08189437E-03
  -8.24999996E-03  -8.21178965E-03
  -8.20000004E-03  -8.34321044E-03
  -8.15000013E-03  -8.47625174E-03
  -8.10000021E-03  -8.61106161E-03
  -8.05000030E-03  -8.74769036E-03
  -8.00000038E-03  -8.88598710E-03
  -7.95000046E-03  -9.02574696E-03
  -7.89999962E-03  -9.16700717E-03
  -7.84999970E-03  -9.31006577E-03
  -7.79999979E-03  -9.45516303E-03
  -7.74999987E-03  -9.60224308E-03
  -7.69999996E-03  -9.75099020E-03
  -7.65000004E-03  -9.90120042E-03
  -7.60000013E-03  -1.00530526E-02
  -7.55000021E-03  -1.02068707E-02
  -7.49999983E-03  -1.03627592E-02
  -7.44999992E-03  -1.05203819E-02
  -7.40000000E-03  -1.06794657E-02
  -7.35000009E-03  -1.08402492E-02
  -7.30000017E-03  -1.10031487E-02
  -7.24999979E-03  -1.11682387E-02
  -7.19999988E-03  -1.13351857E-02
  -7.14999996E-03  -1.15036964E-02
  -7.10000005E-03  -1.16736684E-02
  -7.05000013E-03  -1.18453791E-02
  -7.00000022E-03  -1.20191872E-02
  -6.94999984E-03  -1.21951355E-02
  -6.89999992E-03  -1.23729007E-02
  -6.85000001E-03  -1.25521328E-02
  -6.80000009E-03  -1.27329826E-02
  -6.75000018E-03  -1.29160881E-02
  -6.69999979E-03  -1.31016150E-02
  -6.64999988E-03  -1.32890008E-02
  -6.59999996E-03  -1.34776924E-02
  -6.55000005E-03  -1.36679616E-02
  -6.50000013E-03  -1.38605600E-02
  -6.45000022E-03  -1.40557420E-02
  -6.39999984E-03  -1.42531050E-02
  -6.34999992E-03  -1.44522069E-02
  -6.30000001E-03  -1.46530783E-02
  -6.25000009E-03  -1.48558961E-02
  -6.20000018E-03  -1.50609072E-02
  -6.14999980E-03  -1.52680827E-02
  -6.09999988E-03  -1.54770119E-02
  -6.04999997E-03  -1.56874824E-02
  -6.00000005E-03  -1.58997569E-02
  -5.95000014E-03  -1.61141362E-02
  -5.90000022E-03  -1.63307022E-02
  -5.84999984E-03  -1.65493432E-02
  -5.79999993E-03  -1.67697854E-02
  -5.75000001E-03  -1.69918202E-02
  -5.70000010E-03  -1.72156580E-02
  -5.65000018E-03  -1.74414944E-02
  -5.59999980E-03  -1.76693685E-02
  -5.54999989E-03  -1.78992879E-02
  -5.49999997E-03  -1.81312766E-02
  -5.45000006E-03  -1.83654409E-02
  -5.40000014E-03  -1.86016168E-02
  -5.35000023E-03  -1.88397560E-02
  -5.29999984E-03  -1.90798901E-02
  -5.24999993E-03  -1.93221383E-02
  -5.20000001E-03  -1.95662528E-02
  -5.15000010E-03  -1.98117122E-02
  -5.10000018E-03  -2.00590007E-02
  -5.04999980E-03  -2.03087572E-02
  -4.99999989E-03  -2.05607824E-02
  -4.94999997E-03  -2.08144207E-02
  -4.90000006E-03  -2.10692845E-02
  -4.85000014E-03  -2.13257000E-02
  -4.80000023E-03  -2.15840917E-02
  -4.74999985E-03  -2.18443312E-02
  -4.69999993E-03  -2.21060216E-02
  -4.65000002E-03  -2.23689154E-02
  -4.60000010E-03  -2.26332080E-02
  -4.55000019E-03  -2.28996407E-02
  -4.49999981E-03  -2.31685434E-02
  -4.44999989E-03  -2.34393626E-02
  -4.39999998E-03  -2.37113815E-02
  -4.35000006E-03  -2.39846595E-02
  -4.30000015E-03  -2.42596809E-02
  -4.25000023E-03  -2.45365743E-02
  -4.19999985E-03  -2.48149149E-02
  -4.14999994E-03  -2.50945538E-02
  -4.10000002E-03  -2.53758822E-02
  -4.05000011E-03  -2.56589036E-02
  -4.00000019E-03  -2.59435046E-02
  -3.94999981E-03  -2.62292475E-02
  -3.89999989E-03  -2.65155695E-02
  -3.84999998E-03  -2.68026609E-02
  -3.80000006E-03  -2.70910766E-02
  -3.74999992E-03  -2.73808744E-02
  -3.70000000E-03  -2.76720729E-02
  -3.65000009E-03  -2.79642735E-02
  -3.59999994E-03  -2.82570962E-02
  -3.55000002E-03  -2.85508875E-02
  -3.50000011E-03  -2.88458578E-02
  -3.44999996E-03  -2.91419197E-02
  -3.40000005E-03  -2.94384994E-02
  -3.34999990E-03  -2.97354590E-02
  -3.29999998E-03  -3.00329681E-02
  -3.25000007E-03  -3.03310305E-02
  -3.19999992E-03  -3.06301620E-02
  -3.15000000E-03  -3.09303310E-02
  -3.10000009E-03  -3.12308036E-02
  -3.04999994E-03  -3.15310843E-02
  -3.00000003E-03  -3.18312831E-02
  -2.95000011E-03  -3.21319215E-02
  -2.89999996E-03  -3.24331261E-02
  -2.85000005E-03  -3.27342898E-02
  -2.79999990E-03  -3.30348089E-02
  -2.74999999E-03  -3.33352797E-02
  -2.70000007E-03  -3.36364284E-02
  -2.64999992E-03  -3.39375436E-02
  -2.60000001E-03  -3.42379063E-02
  -2.55000009E-03  -3.45372818E-02
  -2.49999994E-03  -3.48355137E-02
  -2.45000003E-03  -3.51329073E-02
  -2.40000011E-03  -3.54298726E-02
  -2.34999997E-03  -3.57264727E-02
  -2.30000005E-03  -3.60220633E-02
  -2.24999990E-03  -3.63161899E-02
  -2.19999999E-03  -3.66089195E-02
  -2.15000007E-03  -3.69004197E-02
  -2.09999993E-03  -3.71909216E-02
  -2.05000001E-03  -3.74798588E-02
  -2.00000009E-03  -3.77664864E-02
  -1.94999995E-03  -3.80510390E-02
  -1.90000003E-03  -3.83340344E-02
  -1.85000000E-03  -3.86155434E-02
  -1.79999997E-03  -3.88950855E-02
  -1.75000005E-03  -3.91726904E-02
  -1.70000002E-03  -3.94481383E-02
  -1.64999999E-03  -3.97202112E-02
  -1.59999996E-03  -3.99886630E-02
  -1.55000004E-03  -4.02540863E-02
  -1.50000001E-03  -4.05171253E-02
  -1.44999998E-03  -4.07777615E-02
  -1.39999995E-03  -4.10344787E-02
  -1.35000004E-03  -4.12866659E-02
  -1.30000000E-03  -4.15349603E-02
  -1.24999997E-03  -4.17798758E-02
  -1.20000006E-03  -4.20219600E-02
  -1.15000003E-03  -4.22599129E-02
  -1.09999999E-03  -4.24907953E-02
  -1.04999996E-03  -4.27148007E-02
  -1.00000005E-03  -4.29357700E-02
  -9.50000016E-04  -4.31555510E-02
  -8.99999985E-04  -4.33716513E-02
  -8.50000011E-04  -4.35801558E-02
  -7.99999980E-04  -4.37795781E-02
  -7.50000007E-04  -4.39731404E-02
  -6.99999975E-04  -4.41638827E-02
  -6.50000002E-04  -4.43503261E-02
  -6.00000028E-04  -4.45283614E-02
  -5.49999997E-04  -4.46959995E-02
  -5.00000024E-04  -4.48563695E-02
  -4.49999992E-04  -4.50134687E-02
  -3.99999990E-04  -4.51662615E-02
  -3.49999988E-04  -4.53103110E-02
  -3.00000014E-04  -4.54428010E-02
  -2.50000012E-04  -4.55651507E-02
  -1.99999995E-04  -4.56811227E-02
  -1.50000007E-04  -4.57914583E-02
  -9.99999975E-05  -4.58931364E-02
  -4.99999987E-05  -4.59831208E-02
   0.00000000      -4.60617281E-02
   4.99999987E-05  -4.61321212E-02
   9.99999975E-05  -4.61960584E-02
   1.50000007E-04  -4.62507494E-02
   1.99999995E-04  -4.62919809E-02
   2.50000012E-04  -4.63188291E-02
   3.00000014E-04  -4.63344008E-02
   3.49999988E-04  -4.63421158E-02
   3.99999990E-04  -4.63410579E-02
   4.49999992E-04  -4.63271029E-02
   5.00000024E-04  -4.62978408E-02
   5.49999997E-04  -4.62547466E-02
   6.00000028E-04  -4.62008640E-02
   6.50000002E-04  -4.61366661E-02
   6.99999975E-04  -4.60592508E-02
   7.50000007E-04  -4.59653102E-02
   7.99999980E-04  -4.58541289E-02
   8.50000011E-04  -4.57286239E-02
   8.99999985E-04  -4.55914848E-02
   9.50000016E-04  -4.54412997E-02
   1.00000005E-03  -4.52738330E-02
   1.04999996E-03  -4.50865999E-02
   1.09999999E-03  -4.48815227E-02
   1.15000003E-03  -4.46624495E-02
   1.20000006E-03  -4.44301106E-02
   1.24999997E-03  -4.41798717E-02
   1.30000000E-03  -4.39078659E-02
   1.35000004E-03  -4.36158776E-02
   1.39999995E-03  -4.33079153E-02
   1.44999998E-03  -4.29847874E-02
   1.50000001E-03  -4.26426306E-02
   1.55000004E-03  -4.22774591E-02
   1.59999996E-03  -4.18897904E-02
   1.64999999E-03  -4.14822958E-02
   1.70000002E-03  -4.10566926E-02
   1.75000005E-03  -4.06114459E-02
   1.79999997E-03  -4.01425920E-02
   1.85000000E-03  -3.96487266E-02
   1.90000003E-03  -3.91312242E-02
   1.94999995E-03  -3.85931171E-02
   2.00000009E-03  -3.80349718E-02
   2.05000001E-03  -3.74518335E-02
   2.09999993E-03  -3.68406661E-02
   2.15000007E-03  -3.62026617E-02
   2.19999999E-03  -3.55407484E-02
   2.24999990E-03  -3.48565541E-02
   2.30000005E-03  -3.41476053E-02
   2.34999997E-03  -3.34093198E-02
   2.40000011E-03  -3.26404087E-02
   2.45000003E-03  -3.18445191E-02
   2.49999994E-03  -3.10243443E-02
   2.55000009E-03  -3.01776249E-02
   2.60000001E-03  -2.92993076E-02
   2.64999992E-03  -2.83881966E-02
   2.70000007E-03  -2.74475254E-02
   2.74999999E-03  -2.64804512E-02
   2.79999990E-03  -2.54852250E-02