  -3.99999991E-02   0.00000000    
  -3.99499983E-02   0.00000000    
  -3.99000011E-02   0.00000000    
  -3.98500003E-02   0.00000000    
  -3.97999994E-02  -1.24587276E-18
  -3.97499986E-02  -1.42151782E-17
  -3.97000015E-02  -8.45892828E-17
  -3.96500006E-02  -3.48026065E-16
  -3.95999998E-02  -1.10739679E-15
  -3.95499989E-02  -2.89112462E-15
  -3.95000018E-02  -6.41792714E-15
  -3.94500010E-02  -1.23988480E-14
  -3.94000001E-02  -2.11833707E-14
  -3.93499993E-02  -3.23934876E-14
  -3.92999984E-02  -4.48157645E-14
  -3.92500013E-02  -5.68211995E-14
  -3.92000005E-02  -6.73689349E-14
  -3.91499996E-02  -7.72585595E-14
  -3.90999988E-02  -8.99278549E-14
  -3.90500017E-02  -1.11037962E-13
  -3.90000008E-02  -1.46534423E-13
  -3.89500000E-02  -1.99719934E-13
  -3.88999991E-02  -2.68705658E-13
  -3.88499983E-02  -3.45873856E-13
  -3.88000011E-02  -4.20341740E-13
  -3.87500003E-02  -4.82986481E-13
  -3.86999995E-02  -5.31984504E-13
  -3.86499986E-02  -5.75903041E-13
  -3.86000015E-02  -6.31869015E-13
  -3.85500006E-02  -7.18354358E-13
  -3.84999998E-02  -8.44974373E-13
  -3.84499989E-02  -1.00401827E-12
  -3.84000018E-02  -1.16874067E-12
  -3.83500010E-02  -1.30100911E-12
  -3.83000001E-02  -1.36643583E-12
  -3.82499993E-02  -1.35072379E-12
  -3.81999984E-02  -1.26910787E-12
  -3.81500013E-02  -1.16294604E-12
  -3.81000005E-02  -1.08313879E-12
  -3.80499996E-02  -1.06657543E-12
  -3.79999988E-02  -1.11602329E-12
  -3.79500017E-02  -1.19338448E-12
  -3.79000008E-02  -1.23086014E-12
  -3.78500000E-02  -1.15640906E-12
  -3.77999991E-02  -9.22645424E-13
  -3.77499983E-02  -5.25752673E-13
  -3.77000012E-02  -4.87300045E-15
  -3.76500003E-02   5.78573485E-13
  -3.75999995E-02   1.17230260E-12
  -3.75499986E-02   1.76042351E-12
  -3.75000015E-02   2.37354992E-12
  -3.74500006E-02   3.07718304E-12
  -3.73999998E-02   3.94418135E-12
  -3.73499990E-02   5.02400205E-12
  -3.73000018E-02   6.32154095E-12
  -3.72500010E-02   7.79255740E-12
  -3.72000001E-02   9.35460910E-12
  -3.71499993E-02   1.09067035E-11
  -3.70999984E-02   1.23500862E-11
  -3.70500013E-02   1.36062758E-11
  -3.70000005E-02   1.46330968E-11
  -3.69499996E-02   1.54407927E-11
  -3.68999988E-02   1.61060262E-11
  -3.68500017E-02   1.67738774E-11
  -3.68000008E-02   1.76335023E-11
  -3.67500000E-02   1.88590636E-11
  -3.66999991E-02   2.05255500E-11
  -3.66499983E-02   2.25315981E-11
  -3.66000012E-02   2.45743096E-11
  -3.65500003E-02   2.62105823E-11
  -3.64999995E-02   2.70039876E-11
  -3.64499986E-02   2.67082918E-11
  -3.64000015E-02   2.54032559E-11
  -3.63500006E-02   2.34989944E-11
  -3.62999998E-02   2.15726239E-11
  -3.62499990E-02   2.00808432E-11
  -3.62000018E-02   1.90706721E-11
  -3.61500010E-02   1.80436534E-11
  -3.61000001E-02   1.60856970E-11
  -3.60499993E-02   1.22594886E-11
  -3.59999985E-02   6.11344872E-12
  -3.59500013E-02  -1.93717243E-12
  -3.59000005E-02  -1.05911608E-11
  -3.58499996E-02  -1.80999833E-11
  -3.57999988E-02  -2.30406302E-11
  -3.57500017E-02  -2.50978457E-11
  -3.57000008E-02  -2.54576239E-11
  -3.56500000E-02  -2.65316727E-11
  -3.55999991E-02  -3.10175705E-11
  -3.55499983E-02  -4.06369417E-11
  -3.55000012E-02  -5.51219556E-11
  -3.54500003E-02  -7.20004473E-11
  -3.53999995E-02  -8.74269962E-11
  -3.53499986E-02  -9.78234993E-11
  -3.53000015E-02  -1.01644672E-10
  -3.52500007E-02  -1.00406169E-10
  -3.51999998E-02  -9.83423690E-11
  -3.51499990E-02  -1.00646977E-10
  -3.51000018E-02  -1.10952164E-10
  -3.50500010E-02  -1.29184399E-10
  -3.50000001E-02  -1.50922705E-10
  -3.49499993E-02  -1.68810910E-10
  -3.48999985E-02  -1.75639364E-10
  -3.48500013E-02  -1.67829209E-10
  -3.48000005E-02  -1.47666643E-10
  -3.47499996E-02  -1.23011698E-10
  -3.46999988E-02  -1.04268164E-10
  -3.46500017E-02  -9.97178104E-11
  -3.46000008E-02  -1.11272755E-10
  -3.45500000E-02  -1.32768352E-10
  -3.44999991E-02  -1.51949536E-10
  -3.44499983E-02  -1.55645108E-10
  -3.44000012E-02  -1.36005401E-10
  -3.43500003E-02  -9.48987486E-11
  -3.42999995E-02  -4.41065205E-11
  -3.42499986E-02  -7.20277245E-13
  -3.42000015E-02   2.05879844E-11
  -3.41500007E-02   1.50280777E-11
  -3.40999998E-02  -8.78074002E-12
  -3.40499990E-02  -3.13983041E-11
  -3.40000018E-02  -3.07273859E-11
  -3.39500010E-02   7.56255562E-12
  -3.39000002E-02   8.21425913E-11
  -3.38499993E-02   1.74765286E-10
  -3.37999985E-02   2.56984850E-10
  -3.37500013E-02   3.02493364E-10
  -3.37000005E-02   2.99746977E-10
  -3.36499996E-02   2.58849386E-10
  -3.35999988E-02   2.08794176E-10
  -3.35500017E-02   1.85400126E-10
  -3.35000008E-02   2.14784621E-10
  -3.34500000E-02   2.99854391E-10
  -3.33999991E-02   4.16596008E-10
  -3.33499983E-02   5.22914434E-10
  -3.33000012E-02   5.77008885E-10
  -3.32500003E-02   5.57401514E-10
  -3.31999995E-02   4.75181450E-10
  -3.31499986E-02   3.71855463E-10
  -3.31000015E-02   3.02459113E-10
  -3.30500007E-02   3.10601128E-10
  -3.29999998E-02   4.06583850E-10
  -3.29499990E-02   5.59295110E-10
  -3.29000019E-02   7.06975645E-10
  -3.28500010E-02   7.83436149E-10
  -3.28000002E-02   7.48642703E-10
  -3.27499993E-02   6.09547912E-10
  -3.26999985E-02   4.20470103E-10
  -3.26500013E-02   2.61131700E-10
  -3.26000005E-02   2.00929190E-10
  -3.25499997E-02   2.65257288E-10
  -3.24999988E-02   4.20028540E-10
  -3.24500017E-02   5.83200710E-10
  -3.24000008E-02   6.60008936E-10
  -3.23500000E-02   5.87084936E-10
  -3.22999991E-02   3.65245056E-10
  -3.22499983E-02   6.44983372E-11
  -3.22000012E-02  -2.03307662E-10
  -3.21500003E-02  -3.33813088E-10
  -3.20999995E-02  -2.79845008E-10
  -3.20499986E-02  -7.80495391E-11
  -3.20000015E-02   1.61874403E-10
  -3.19500007E-02   3.03083281E-10
  -3.18999998E-02   2.43633613E-10
  -3.18499990E-02  -3.33536185E-11
  -3.18000019E-02  -4.45854187E-10
  -3.17500010E-02  -8.44515013E-10
  -3.17000002E-02  -1.07798825E-09
  -3.16499993E-02  -1.06365838E-09
  -3.15999985E-02  -8.30884528E-10
  -3.15500014E-02  -5.14536413E-10
  -3.15000005E-02  -2.98467140E-10
  -3.14499997E-02  -3.32086691E-10
  -3.13999988E-02  -6.57424282E-10
  -3.13500017E-02  -1.18166188E-09
  -3.13000008E-02  -1.71109049E-09
  -3.12500000E-02  -2.03465667E-09
  -3.11999992E-02  -2.02121231E-09
  -3.11500002E-02  -1.68581926E-09
  -3.10999993E-02  -1.19208332E-09
  -3.10500003E-02  -7.85341903E-10
  -3.09999995E-02  -6.83564316E-10
  -3.09500005E-02  -9.74280212E-10
  -3.08999997E-02  -1.56600100E-09
  -3.08500007E-02  -2.22008900E-09
  -3.07999998E-02  -2.65300826E-09
  -3.07500008E-02  -2.66539502E-09
  -3.07000000E-02  -2.23929852E-09
  -3.06499992E-02  -1.55636437E-09
  -3.06000002E-02  -9.23913501E-10
  -3.05499993E-02  -6.38136433E-10
  -3.05000003E-02  -8.44659398E-10
  -3.04499995E-02  -1.46141599E-09
  -3.04000005E-02  -2.20334440E-09
  -3.03499997E-02  -2.70318301E-09
  -3.03000007E-02  -2.67749733E-09
  -3.02499998E-02  -2.06316786E-09
  -3.02000009E-02  -1.05919473E-09
  -3.01500000E-02  -4.91818947E-11
  -3.00999992E-02   5.65941238E-10
  -3.00500002E-02   5.52079660E-10
  -2.99999993E-02  -4.15940650E-11
  -2.99500003E-02  -8.91510477E-10
  -2.98999995E-02  -1.53621271E-09
  -2.98500005E-02  -1.58367375E-09
  -2.97999997E-02  -8.96793695E-10
  -2.97500007E-02   3.30108219E-10
  -2.96999998E-02   1.64477110E-09
  -2.96500009E-02   2.53381693E-09
  -2.96000000E-02   2.65776312E-09
  -2.95499992E-02   2.01711803E-09
  -2.95000002E-02   9.69149538E-10
  -2.94499993E-02   8.02490296E-11
  -2.94000003E-02  -1.25754143E-10
  -2.93499995E-02   5.88145921E-10
  -2.93000005E-02   2.04863104E-09
  -2.92499997E-02   3.73211639E-09
  -2.92000007E-02   4.98915975E-09
  -2.91499998E-02   5.33710054E-09
  -2.91000009E-02   4.68888262E-09
  -2.90500000E-02   3.40954709E-09
  -2.89999992E-02   2.16667573E-09
  -2.89500002E-02   1.63475877E-09
  -2.88999993E-02   2.18364615E-09
  -2.88500004E-02   3.69426201E-09
  -2.87999995E-02   5.59218094E-09
  -2.87500005E-02   7.09300085E-09
  -2.86999997E-02   7.55530305E-09
  -2.86500007E-02   6.78282452E-09
  -2.85999998E-02   5.13421838E-09
  -2.85500009E-02   3.38151773E-09
  -2.85000000E-02   2.37195907E-09
  -2.84499992E-02   2.64081912E-09
  -2.84000002E-02   4.15162882E-09
  -2.83499993E-02   6.28865937E-09
  -2.83000004E-02   8.11546297E-09
  -2.82499995E-02   8.79117668E-09
  -2.82000005E-02   7.95932298E-09
  -2.81499997E-02   5.92912253E-09
  -2.81000007E-02   3.55778651E-09
  -2.80499998E-02   1.87632443E-09
  -2.80000009E-02   1.62118796E-09
  -2.79500000E-02   2.88369684E-09
  -2.78999992E-02   5.04312059E-09
  -2.78500002E-02   7.02508274E-09
  -2.77999993E-02   7.77877140E-09
  -2.77500004E-02   6.76168588E-09
  -2.76999995E-02   4.20921964E-09
  -2.76500005E-02   1.05694598E-09
  -2.75999997E-02  -1.46175427E-09
  -2.75500007E-02  -2.36998710E-09
  -2.74999999E-02  -1.40460676E-09
  -2.74500009E-02   8.37101721E-10
  -2.74000000E-02   3.13988413E-09
  -2.73499992E-02   4.20483381E-09
  -2.73000002E-02   3.24076677E-09
  -2.72499993E-02   3.43314432E-10
  -2.72000004E-02  -3.51960416E-09
  -2.71499995E-02  -6.92281521E-09
  -2.71000005E-02  -8.62265637E-09
  -2.70499997E-02  -8.13385981E-09
  -2.70000007E-02  -5.97754823E-09
  -2.69499999E-02  -3.47521989E-09
  -2.69000009E-02  -2.16781348E-09
  -2.68500000E-02  -3.11384829E-09
  -2.67999992E-02  -6.38473985E-09
  -2.67500002E-02  -1.09957172E-08
  -2.66999993E-02  -1.53188022E-08
  -2.66500004E-02  -1.78045898E-08
  -2.65999995E-02  -1.76920363E-08
  -2.65500005E-02  -1.53802517E-08
  -2.64999997E-02  -1.22806449E-08
  -2.64500007E-02  -1.02002566E-08
  -2.63999999E-02  -1.05238636E-08
  -2.63500009E-02  -1.35634322E-08
  -2.63000000E-02  -1.83786888E-08
  -2.62499992E-02  -2.31661303E-08
  -2.62000002E-02  -2.60561333E-08
  -2.61499994E-02  -2.59654360E-08
  -2.61000004E-02  -2.31155770E-08
  -2.60499995E-02  -1.89687661E-08
  -2.60000005E-02  -1.55921640E-08
  -2.59499997E-02  -1.47243080E-08
  -2.59000007E-02  -1.69626553E-08
  -2.58499999E-02  -2.14490328E-08
  -2.58000009E-02  -2.62129465E-08
  -2.57500000E-02  -2.90359363E-08
  -2.56999992E-02  -2.84568014E-08
  -2.56500002E-02  -2.44610519E-08
  -2.55999994E-02  -1.85287341E-08
  -2.55500004E-02  -1.29991591E-08
  -2.54999995E-02  -1.00231858E-08
  -2.54500005E-02  -1.05712532E-08
  -2.53999997E-02  -1.39539162E-08
  -2.53500007E-02  -1.80903310E-08
  -2.52999999E-02  -2.04237622E-08
  -2.52500009E-02  -1.90831031E-08
  -2.52000000E-02  -1.37643079E-08
  -2.51499992E-02  -5.91848925E-09
  -2.51000002E-02   1.86044113E-09
  -2.50499994E-02   6.99131997E-09
  -2.50000004E-02   8.08991629E-09
  -2.49499995E-02   5.63858871E-09
  -2.49000005E-02   1.81844328E-09
  -2.48499997E-02  -4.43947601E-10
  -2.48000007E-02   1.19936283E-09
  -2.47499999E-02   7.42005701E-09
  -2.47000009E-02   1.68531855E-08
  -2.46500000E-02   2.66612243E-08
  -2.45999992E-02   3.37901547E-08
  -2.45500002E-02   3.63603405E-08
  -2.44999994E-02   3.45566029E-08
  -2.44500004E-02   3.05934904E-08
  -2.43999995E-02   2.77449459E-08
  -2.43500005E-02   2.88577198E-08
  -2.42999997E-02   3.50176066E-08
  -2.42500007E-02   4.49870399E-08
  -2.41999999E-02   5.56957751E-08
  -2.41500009E-02   6.35897877E-08
  -2.41000000E-02   6.62427126E-08
  -2.40499992E-02   6.34959250E-08
  -2.40000002E-02   5.75884478E-08
  -2.39499994E-02   5.21874846E-08
  -2.39000004E-02   5.07336999E-08
  -2.38499995E-02   5.48432411E-08
  -2.38000005E-02   6.35037765E-08
  -2.37499997E-02   7.34576489E-08
  -2.37000007E-02   8.06296399E-08
  -2.36499999E-02   8.19716988E-08
  -2.36000009E-02   7.68864439E-08
  -2.35500000E-02   6.75613094E-08
  -2.34999992E-02   5.80281245E-08
  -2.34500002E-02   5.23452819E-08
  -2.33999994E-02   5.27157304E-08
  -2.33500004E-02   5.84074407E-08
  -2.32999995E-02   6.59979378E-08
  -2.32500006E-02   7.08687082E-08
  -2.31999997E-02   6.92965330E-08
  -2.31500007E-02   6.01938481E-08
  -2.30999999E-02   4.56852227E-08
  -2.30500009E-02   3.02198870E-08
  -2.30000000E-02   1.85874551E-08
  -2.29499992E-02   1.37209684E-08
  -2.29000002E-02   1.52951873E-08
  -2.28499994E-02   1.97900718E-08
  -2.28000004E-02   2.20324701E-08
  -2.27499995E-02   1.75466290E-08
  -2.27000006E-02   4.65068739E-09
  -2.26499997E-02  -1.46765284E-08
  -2.26000007E-02  -3.55950718E-08
  -2.25499999E-02  -5.25486143E-08
  -2.25000009E-02  -6.18018206E-08
  -2.24500000E-02  -6.32089368E-08
  -2.23999992E-02  -6.03730541E-08
  -2.23500002E-02  -5.90748286E-08
  -2.22999994E-02  -6.46460734E-08
  -2.22500004E-02  -7.94708512E-08
  -2.21999995E-02  -1.01773182E-07
  -2.21500006E-02  -1.26289606E-07
  -2.20999997E-02  -1.46570486E-07
  -2.20500007E-02  -1.57894206E-07
  -2.19999999E-02  -1.59465401E-07
  -2.19500009E-02  -1.54860103E-07
  -2.19000001E-02  -1.50460423E-07
  -2.18499992E-02  -1.52545098E-07
  -2.18000002E-02  -1.64342325E-07
  -2.17499994E-02  -1.84407170E-07
  -2.17000004E-02  -2.07113956E-07
  -2.16499995E-02  -2.25097509E-07
  -2.16000006E-02  -2.32572205E-07
  -2.15499997E-02  -2.28019132E-07
  -2.15000007E-02  -2.14979863E-07
  -2.14499999E-02  -2.00533648E-07
  -2.14000009E-02  -1.92094390E-07
  -2.13500001E-02  -1.93959053E-07
  -2.12999992E-02  -2.05196400E-07
  -2.12500002E-02  -2.19891746E-07
  -2.11999994E-02  -2.29704256E-07
  -2.11500004E-02  -2.27621669E-07
  -2.10999995E-02  -2.11211770E-07
  -2.10500006E-02  -1.83852578E-07
  -2.09999997E-02  -1.53313195E-07
  -2.09500007E-02  -1.28265000E-07
  -2.08999999E-02  -1.14276631E-07
  -2.08500009E-02  -1.11130419E-07
  -2.08000001E-02  -1.12740757E-07
  -2.07499992E-02  -1.09789667E-07
  -2.07000002E-02  -9.39408906E-08
  -2.06499994E-02  -6.17317113E-08
  -2.06000004E-02  -1.63331073E-08
  -2.05499995E-02   3.36981287E-08
  -2.05000006E-02   7.81870639E-08
  -2.04499997E-02   1.09962251E-07
  -2.04000007E-02   1.28222140E-07
  -2.03499999E-02   1.39054322E-07
  -2.03000009E-02   1.52784949E-07
  -2.02500001E-02   1.79290566E-07
  -2.01999992E-02   2.23378095E-07
  -2.01500002E-02   2.82367779E-07
  -2.00999994E-02   3.47058176E-07
  -2.00500004E-02   4.05725672E-07
  -1.99999996E-02   4.49398556E-07
  -1.99500006E-02   4.76006846E-07
  -1.98999997E-02   4.91460526E-07
  -1.98500007E-02   5.07068023E-07
  -1.97999999E-02   5.34381400E-07
  -1.97500009E-02   5.79772063E-07
  -1.97000001E-02   6.41230940E-07
  -1.96499992E-02   7.08933442E-07
  -1.96000002E-02   7.69417511E-07
  -1.95499994E-02   8.11552070E-07
  -1.95000004E-02   8.31598413E-07
  -1.94499996E-02   8.35005437E-07
  -1.94000006E-02   8.34021535E-07
  -1.93499997E-02   8.42106601E-07
  -1.93000007E-02   8.67628557E-07
  -1.92499999E-02   9.09727021E-07
  -1.92000009E-02   9.58310011E-07
  -1.91500001E-02   9.98301516E-07
  -1.90999992E-02   1.01630201E-06
  -1.90500002E-02   1.00666068E-06
  -1.89999994E-02   9.74149998E-07
  -1.89500004E-02   9.31916304E-07
  -1.88999996E-02   8.95518895E-07
  -1.88500006E-02   8.75690262E-07
  -1.87999997E-02   8.73113720E-07
  -1.87500007E-02   8.77674950E-07
  -1.86999999E-02   8.72655164E-07
  -1.86500009E-02   8.42074996E-07
  -1.86000001E-02   7.77901107E-07
  -1.85499992E-02   6.83803592E-07
  -1.85000002E-02   5.73645309E-07
  -1.84499994E-02   4.65260001E-07
  -1.84000004E-02   3.72246490E-07
  -1.83499996E-02   2.97495717E-07
  -1.83000006E-02   2.31470210E-07
  -1.82499997E-02   1.56147081E-07
  -1.82000007E-02   5.29669251E-08
  -1.81499999E-02  -8.87542413E-08
  -1.81000009E-02  -2.66796121E-07
  -1.80500001E-02  -4.66785053E-07
  -1.79999992E-02  -6.68527377E-07
  -1.79500002E-02  -8.55171265E-07
  -1.78999994E-02  -1.02107163E-06
  -1.78500004E-02  -1.17471723E-06
  -1.77999996E-02  -1.33525248E-06
  -1.77500006E-02  -1.52402879E-06
  -1.76999997E-02  -1.75491732E-06
  -1.76500008E-02  -2.02779711E-06
  -1.75999999E-02  -2.32827665E-06
  -1.75500009E-02  -2.63391394E-06
  -1.75000001E-02  -2.92427035E-06
  -1.74499992E-02  -3.19028118E-06
  -1.74000002E-02  -3.43864599E-06
  -1.73499994E-02  -3.68909809E-06
  -1.73000004E-02  -3.96563519E-06
  -1.72499996E-02  -4.28557541E-06
  -1.72000006E-02  -4.65138282E-06
  -1.71499997E-02  -5.04907666E-06
  -1.71000008E-02  -5.45411240E-06
  -1.70499999E-02  -5.84222062E-06
  -1.70000009E-02  -6.20038008E-06
  -1.69500001E-02  -6.53291136E-06
  -1.68999992E-02  -6.85980467E-06
  -1.68500002E-02  -7.20785238E-06
  -1.67999994E-02  -7.59846580E-06
  -1.67500004E-02  -8.03766579E-06
  -1.66999996E-02  -8.51286586E-06
  -1.66500006E-02  -8.99806400E-06
  -1.65999997E-02  -9.46525142E-06
  -1.65500008E-02  -9.89702039E-06
  -1.64999999E-02  -1.02946024E-05
  -1.64500009E-02  -1.06775860E-05
  -1.64000001E-02  -1.10752871E-05
  -1.63499992E-02  -1.15134553E-05
  -1.63000003E-02  -1.20023187E-05
  -1.62499994E-02  -1.25314509E-05
  -1.62000004E-02  -1.30739181E-05
  -1.61499996E-02  -1.35980581E-05
  -1.61000006E-02  -1.40816719E-05
  -1.60499997E-02  -1.45222284E-05
  -1.60000008E-02  -1.49383695E-05
  -1.59499999E-02  -1.53618221E-05
  -1.59000009E-02  -1.58231796E-05
  -1.58500001E-02  -1.63379245E-05
  -1.57999992E-02  -1.68990591E-05
  -1.57500003E-02  -1.74797806E-05
  -1.56999994E-02  -1.80452607E-05
  -1.56500004E-02  -1.85683639E-05
  -1.55999996E-02  -1.90421397E-05
  -1.55499997E-02  -1.94834029E-05
  -1.54999997E-02  -1.99256338E-05
  -1.54499998E-02  -2.04041353E-05
  -1.53999999E-02  -2.09400860E-05
  -1.53500000E-02  -2.15306954E-05
  -1.53000001E-02  -2.21500813E-05
  -1.52500002E-02  -2.27606361E-05
  -1.52000003E-02  -2.33300343E-05
  -1.51500003E-02  -2.38461762E-05
  -1.51000004E-02  -2.43232225E-05
  -1.50499996E-02  -2.47958978E-05
  -1.49999997E-02  -2.53043672E-05
  -1.49499997E-02  -2.58763484E-05
  -1.48999998E-02  -2.65145882E-05
  -1.48499999E-02  -2.71954286E-05
  -1.48000000E-02  -2.78793505E-05
  -1.47500001E-02  -2.85289480E-05
  -1.47000002E-02  -2.91263059E-05
  -1.46500003E-02  -2.96818671E-05
  -1.46000003E-02  -3.02305452E-05
  -1.45500004E-02  -3.08167473E-05
  -1.44999996E-02  -3.14748031E-05
  -1.44499997E-02  -3.22135784E-05
  -1.43999998E-02  -3.30124531E-05
  -1.43499998E-02  -3.38305545E-05
  -1.42999999E-02  -3.46253582E-05
  -1.42500000E-02  -3.53724499E-05
  -1.42000001E-02  -3.60774393E-05
  -1.41500002E-02  -3.67743669E-05
  -1.41000003E-02  -3.75113232E-05
  -1.40500003E-02  -3.83295082E-05
  -1.40000004E-02  -3.92449438E-05
  -1.39499996E-02  -4.02413571E-05
  -1.38999997E-02  -4.12776499E-05
  -1.38499998E-02  -4.23067431E-05
  -1.37999998E-02  -4.32973866E-05
  -1.37499999E-02  -4.42491801E-05
  -1.37000000E-02  -4.51939814E-05
  -1.36500001E-02  -4.61825548E-05
  -1.36000002E-02  -4.72624815E-05
  -1.35500003E-02  -4.84571319E-05
  -1.35000004E-02  -4.97553556E-05
  -1.34500004E-02  -5.11165854E-05
  -1.33999996E-02  -5.24893767E-05
  -1.33499997E-02  -5.38352142E-05
  -1.32999998E-02  -5.51467783E-05
  -1.32499998E-02  -5.64523543E-05
  -1.31999999E-02  -5.78042273E-05
  -1.31500000E-02  -5.92560609E-05
  -1.31000001E-02  -6.08392329E-05
  -1.30500002E-02  -6.25489483E-05
  -1.30000003E-02  -6.43465901E-05
  -1.29500004E-02  -6.61774102E-05
  -1.29000004E-02  -6.79957157E-05
  -1.28499996E-02  -6.97864452E-05
  -1.27999997E-02  -7.15730785E-05
  -1.27499998E-02  -7.34082932E-05
  -1.26999998E-02  -7.53511049E-05
  -1.26499999E-02  -7.74406944E-05
  -1.26000000E-02  -7.96792083E-05
  -1.25500001E-02  -8.20308560E-05
  -1.25000002E-02  -8.44382157E-05
  -1.24500003E-02  -8.68486604E-05
  -1.24000004E-02  -8.92387252E-05
  -1.23500004E-02  -9.16257195E-05
  -1.22999996E-02  -9.40611135E-05
  -1.22499997E-02  -9.66081570E-05
  -1.21999998E-02  -9.93141221E-05
  -1.21499998E-02  -1.02189420E-04
  -1.20999999E-02  -1.05202962E-04
  -1.20500000E-02  -1.08296270E-04
  -1.20000001E-02  -1.11410496E-04
  -1.19500002E-02  -1.14513859E-04
  -1.19000003E-02  -1.17617012E-04
  -1.18500004E-02  -1.20769451E-04
  -1.18000004E-02  -1.24038270E-04
  -1.17499996E-02  -1.27478605E-04
  -1.16999997E-02  -1.31109322E-04
  -1.16499998E-02  -1.34904578E-04
  -1.15999999E-02  -1.38805932E-04
  -1.15499999E-02  -1.42748991E-04
  -1.15000000E-02  -1.46693012E-04
  -1.14500001E-02  -1.50640844E-04
  -1.14000002E-02  -1.54638357E-04
  -1.13500003E-02  -1.58754992E-04
  -1.13000004E-02  -1.63053584E-04
  -1.12500004E-02  -1.67562481E-04
  -1.11999996E-02  -1.72263331E-04
  -1.11499997E-02  -1.77099573E-04
  -1.10999998E-02  -1.82002812E-04
  -1.10499999E-02  -1.86924823E-04
  -1.09999999E-02  -1.91860367E-04
  -1.09500000E-02  -1.96851237E-04
  -1.09000001E-02  -2.01968840E-04
  -1.08500002E-02  -2.07283010E-04
  -1.08000003E-02  -2.12831364E-04
  -1.07500004E-02  -2.18602945E-04
  -1.07000005E-02  -2.24543794E-04
  -1.06499996E-02  -2.30581645E-04
  -1.05999997E-02  -2.36660082E-04
  -1.05499998E-02  -2.42765222E-04
  -1.04999999E-02  -2.48932862E-04
  -1.04499999E-02  -2.55234540E-04
  -1.04000000E-02  -2.61746492E-04
  -1.03500001E-02  -2.68515869E-04
  -1.03000002E-02  -2.75541068E-04
  -1.02500003E-02  -2.82773544E-04
  -1.02000004E-02  -2.90140131E-04
  -1.01500005E-02  -2.97578255E-04
  -1.00999996E-02  -3.05065565E-04
  -1.00499997E-02  -3.12631426E-04
  -9.99999978E-03  -3.20346269E-04
  -9.94999986E-03  -3.28291644E-04
  -9.89999995E-03  -3.36524914E-04
  -9.85000003E-03  -3.45054432E-04
  -9.80000012E-03  -3.53836833E-04
  -9.75000020E-03  -3.62798135E-04
  -9.70000029E-03  -3.71869450E-04
  -9.65000037E-03  -3.81018734E-04
  -9.60000046E-03  -3.90267844E-04
  -9.54999961E-03  -3.99684795E-04
  -9.49999969E-03  -4.09354281E-04
  -9.44999978E-03  -4.19341843E-04
  -9.39999986E-03  -4.29665030E-04
  -9.34999995E-03  -4.40287171E-04
  -9.30000003E-03  -4.51135682E-04
  -9.25000012E-03  -4.62136668E-04
  -9.20000020E-03  -4.73250839E-04
  -9.15000029E-03  -4.84493416E-04
  -9.10000037E-03  -4.95929911E-04
  -9.05000046E-03  -5.07648510E-04
  -8.99999961E-03  -5.19722293E-04
  -8.94999970E-03  -5.32179314E-04
  -8.89999978E-03  -5.44991053E-04
  -8.84999987E-03  -5.58087369E-04
  -8.79999995E-03  -5.71391953E-04
  -8.75000004E-03  -5.84857480E-04
  -8.70000012E-03  -5.98490355E-04
  -8.65000021E-03  -6.12350763E-04
  -8.60000029E-03  -6.26526889E-04
  -8.55000038E-03  -6.41098537E-04
  -8.50000046E-03  -6.56102377E-04
  -8.44999962E-03  -6.71515998E-04
  -8.39999970E-03  -6.87271648E-04
  -8.34999979E-03  -7.03290629E-04
  -8.29999987E-03  -7.19519274E-04
  -8.24999996E-03  -7.35955080E-04
  -8.20000004E-03  -7.52653053E-04
  -8.15000013E-03  -7.69703125E-04
  -8.10000021E-03  -7.87190220E-04
  -8.05000030E-03  -8.05159856E-04
  -8.00000038E-03  -8.23600392E-04
  -7.95000046E-03  -8.42449663E-04
  -7.89999962E-03  -8.61626468E-04
  -7.84999970E-03  -8.81071610E-04
  -7.79999979E-03  -9.00776766E-04
  -7.74999987E-03  -9.20790539E-04
  -7.69999996E-03  -9.41202044E-04
  -7.65000004E-03  -9.62102320E-04
  -7.60000013E-03  -9.83544393E-04
  -7.55000021E-03  -1.00552244E-03
  -7.49999983E-03  -1.02797837E-03
  -7.44999992E-03  -1.05083059E-03
  -7.40000000E-03  -1.07401423E-03
  -7.35000009E-03  -1.09751360E-03
  -7.30000017E-03  -1.12137257E-03
  -7.24999979E-03  -1.14567869E-03
  -7.19999988E-03  -1.17052672E-03
  -7.14999996E-03  -1.19597604E-03
  -7.10000005E-03  -1.22202805E-03
  -7.05000013E-03  -1.24862941E-03
  -7.00000022E-03  -1.27569912E-03
  -6.94999984E-03  -1.30316860E-03
  -6.89999992E-03  -1.33101409E-03
  -6.85000001E-03  -1.35927578E-03
  -6.80000009E-03  -1.38804014E-03
  -6.75000018E-03  -1.41740311E-03
  -6.69999979E-03  -1.44743396E-03
  -6.64999988E-03  -1.47814455E-03
  -6.59999996E-03  -1.50948740E-03
  -6.55000005E-03  -1.54138147E-03
  -6.50000013E-03  -1.57375191E-03
  -6.45000022E-03  -1.60656788E-03
  -6.39999984E-03  -1.63986476E-03
  -6.34999992E-03  -1.67372741E-03
  -6.30000001E-03  -1.70825608E-03
  -6.25000009E-03  -1.74352853E-03
  -6.20000018E-03  -1.77956058E-03
  -6.14999980E-03  -1.81631022E-03
  -6.09999988E-03  -1.85369677E-03
  -6.04999997E-03  -1.89163873E-03
  -6.00000005E-03  -1.93009933E-03
  -5.95000014E-03  -1.96910556E-03
  -5.90000022E-03  -2.00874102E-03
  -5.84999984E-03  -2.04911432E-03
  -5.79999993E-03  -2.09030625E-03
  -5.75000001E-03  -2.13234266E-03
  -5.70000010E-03  -2.17518606E-03
  -5.65000018E-03  -2.21875217E-03
  -5.59999980E-03  -2.26295413E-03
  -5.54999989E-03  -2.30774796E-03
  -5.49999997E-03  -2.35316018E-03
  -5.45000006E-03  -2.39927182E-03
  -5.40000014E-03  -2.44619208E-03
  -5.35000023E-03  -2.49401527E-03
  -5.29999984E-03  -2.54277186E-03
  -5.24999993E-03  -2.59242603E-03
  -5.20000001E-03  -2.64290045E-03
  -5.15000010E-03  -2.69410759E-03
  -5.10000018E-03  -2.74599413E-03
  -5.04999980E-03  -2.79857242E-03
  -4.99999989E-03  -2.85192020E-03
  -4.94999997E-03  -2.90614692E-03
  -4.90000006E-03  -2.96134735E-03
  -4.85000014E-03  -3.01756500E-03
  -4.80000023E-03  -3.07477335E-03
  -4.74999985E-03  -3.13288602E-03
  -4.69999993E-03  -3.19181057E-03
  -4.65000002E-03  -3.25149228E-03
  -4.60000010E-03  -3.31193209E-03
  -4.55000019E-03  -3.37320496E-03
  -4.49999981E-03  -3.43542546E-03
  -4.44999989E-03  -3.49869230E-03
  -4.39999998E-03  -3.56305460E-03
  -4.35000006E-03  -3.62849282E-03
  -4.30000015E-03  -3.69493128E-03
  -4.25000023E-03  -3.76226963E-03
  -4.19999985E-03  -3.83044151E-03
  -4.14999994E-03  -3.89944506E-03
  -4.10000002E-03  -3.96934384E-03
  -4.05000011E-03  -4.04025195E-03
  -4.00000019E-03  -4.11227718E-03
  -3.94999981E-03  -4.18547401E-03
  -3.89999989E-03  -4.25983034E-03
  -3.84999998E-03  -4.33525955E-03
  -3.80000006E-03  -4.41165641E-03
  -3.74999992E-03  -4.48895199E-03
  -3.70000000E-03  -4.56712954E-03
  -3.65000009E-03  -4.64624632E-03
  -3.59999994E-03  -4.72641271E-03
  -3.55000002E-03  -4.80773905E-03
  -3.50000011E-03  -4.89029801E-03
  -3.44999996E-03  -4.97408630E-03
  -3.40000005E-03  -5.05902478E-03
  -3.34999990E-03  -5.14499657E-03
  -3.29999998E-03  -5.23190713E-03
  -3.25000007E-03  -5.31973131E-03
  -3.19999992E-03  -5.40851755E-03
  -3.15000000E-03  -5.49838832E-03
  -3.10000009E-03  -5.58947818E-03
  -3.04999994E-03  -5.68185421E-03
  -3.00000003E-03  -5.77551220E-03
  -2.95000011E-03  -5.87037113E-03
  -2.89999996E-03  -5.96629595E-03
  -2.85000005E-03  -6.06319122E-03
  -2.79999990E-03  -6.16103318E-03
  -2.74999999E-03  -6.25986001E-03
  -2.70000007E-03  -6.35978347E-03
  -2.64999992E-03  -6.46093022E-03
  -2.60000001E-03  -6.56337338E-03
  -2.55000009E-03  -6.66711107E-03
  -2.49999994E-03  -6.77208137E-03
  -2.45000003E-03  -6.87817344E-03
  -2.40000011E-03  -6.98526483E-03
  -2.34999997E-03  -7.09329033E-03
  -2.30000005E-03  -7.20227230E-03
  -2.24999990E-03  -7.31231086E-03
  -2.19999999E-03  -7.42354989E-03
  -2.15000007E-03  -7.53609790E-03
  -2.09999993E-03  -7.64997350E-03
  -2.05000001E-03  -7.76509894E-03
  -2.00000009E-03  -7.88133126E-03
  -1.94999995E-03  -7.99854659E-03
  -1.90000003E-03  -8.11666716E-03
  -1.85000000E-03  -8.23569484E-03
  -1.79999997E-03  -8.35575443E-03
  -1.75000005E-03  -8.47699866E-03
  -1.70000002E-03  -8.59952345E-03
  -1.64999999E-03  -8.72335024E-03
  -1.59999996E-03  -8.84840731E-03
  -1.55000004E-03  -8.97453353E-03
  -1.50000001E-03  -9.10157524E-03
  -1.44999998E-03  -9.22945607E-03
  -1.39999995E-03  -9.35819093E-03
  -1.35000004E-03  -9.48789157E-03
  -1.30000000E-03  -9.61870980E-03
  -1.24999997E-03  -9.75075085E-03
  -1.20000006E-03  -9.88402870E-03
  -1.15000003E-03  -1.00184502E-02
  -1.09999999E-03  -1.01538496E-02
  -1.04999996E-03  -1.02900891E-02
  -1.00000005E-03  -1.04270745E-02
  -9.50000016E-04  -1.05648069E-02
  -8.99999985E-04  -1.07034044E-02
  -8.50000011E-04  -1.08430013E-02
  -7.99999980E-04  -1.09836990E-02
  -7.50000007E-04  -1.11255255E-02
  -6.99999975E-04  -1.12684052E-02
  -6.50000002E-04  -1.14121856E-02
  -6.00000028E-04  -1.15566868E-02
  -5.49999997E-04  -1.17017953E-02
  -5.00000024E-04  -1.18474998E-02
  -4.49999992E-04  -1.19938841E-02
  -3.99999990E-04  -1.21410899E-02
  -3.49999988E-04  -1.22892382E-02
  -3.00000014E-04  -1.24383662E-02
  -2.50000012E-04  -1.25884227E-02
  -1.99999995E-04  -1.27392849E-02
  -1.50000007E-04  -1.28907440E-02
  -9.99999975E-05  -1.30425971E-02
  -4.99999987E-05  -1.31947696E-02
   0.00000000      -1.33473156E-02
   4.99999987E-05  -1.35003850E-02
   9.99999975E-05  -1.36541631E-02
   1.50000007E-04  -1.38087440E-02
   1.99999995E-04  -1.39641128E-02
   2.50000012E-04  -1.41201112E-02
   3.00000014E-04  -1.42765027E-02
   3.49999988E-04  -1.44330626E-02
   3.99999990E-04  -1.45896534E-02
   4.49999992E-04  -1.47462944E-02
   5.00000024E-04  -1.49031440E-02
   5.49999997E-04  -1.50604341E-02
   6.00000028E-04  -1.52182961E-02
   6.50000002E-04  -1.53766992E-02
   6.99999975E-04  -1.55354729E-02
   7.50000007E-04  -1.56943426E-02
   7.99999980E-04  -1.58530604E-02
   8.50000011E-04  -1.60114802E-02
   8.99999985E-04  -1.61696021E-02
   9.50000016E-04  -1.63275357E-02
   1.00000005E-03  -1.64854955E-02
   1.04999996E-03  -1.66436527E-02
   1.09999999E-03  -1.68019887E-02
   1.15000003E-03  -1.69603415E-02
   1.20000006E-03  -1.71184465E-02
   1.24999997E-03  -1.72760505E-02
   1.30000000E-03  -1.74329914E-02
   1.35000004E-03  -1.75891835E-02
   1.39999995E-03  -1.77447256E-02
   1.44999998E-03  -1.78998224E-02
   1.50000001E-03  -1.80546604E-02
   1.55000004E-03  -1.82093028E-02
   1.59999996E-03  -1.83635913E-02
   1.64999999E-03  -1.85172092E-02
   1.70000002E-03  -1.86698753E-02
   1.75000005E-03  -1.88213475E-02
   1.79999997E-03  -1.89715195E-02
   1.85000000E-03  -1.91204716E-02
   1.90000003E-03  -1.92684475E-02
   1.94999995E-03  -1.94156710E-02
   2.00000009E-03  -1.95621829E-02
   2.05000001E-03  -1.97078269E-02
   2.09999993E-03  -1.98522843E-02
   2.15000007E-03  -1.99952461E-02
   2.19999999E-03  -2.01364476E-02
   2.24999990E-03  -2.02757567E-02
   2.30000005E-03  -2.04133056E-02
   2.34999997E-03  -2.05492694E-02
   2.40000011E-03  -2.06837896E-02
   2.45000003E-03  -2.08169129E-02
   2.49999994E-03  -2.09485572E-02
   2.55000009E-03  -2.10784450E-02
   2.60000001E-03  -2.12061908E-02
   2.64999992E-03  -2.13315412E-02
   2.70000007E-03  -2.14543715E-02
   2.74999999E-03  -2.15747431E-02
   2.79999990E-03  -2.16928702E-02