  -3.99999991E-02   0.00000000    
  -3.99499983E-02   0.00000000    
  -3.99000011E-02   0.00000000    
  -3.98500003E-02   0.00000000    
  -3.97999994E-02   2.88321151E-23
  -3.97499986E-02  -1.81036099E-23
  -3.97000015E-02  -1.23450315E-21
  -3.96500006E-02  -7.36987472E-21
  -3.95999998E-02  -2.59924205E-20
  -3.95499989E-02  -6.61612594E-20
  -3.95000018E-02  -1.29683373E-19
  -3.94500010E-02  -1.96564971E-19
  -3.94000001E-02  -2.11723288E-19
  -3.93499993E-02  -8.55516848E-20
  -3.92999984E-02   2.80153459E-19
  -3.92500013E-02   9.40714460E-19
  -3.92000005E-02   1.85026985E-18
  -3.91499996E-02   2.83164665E-18
  -3.90999988E-02   3.60928266E-18
  -3.90500017E-02   3.91519969E-18
  -3.90000008E-02   3.63451415E-18
  -3.89500000E-02   2.91718643E-18
  -3.88999991E-02   2.17530634E-18
  -3.88499983E-02   1.92686016E-18
  -3.88000011E-02   2.52666557E-18
  -3.87500003E-02   3.90426313E-18
  -3.86999995E-02   5.45857686E-18
  -3.86499986E-02   6.20975694E-18
  -3.86000015E-02   5.18890564E-18
  -3.85500006E-02   1.90730086E-18
  -3.84999998E-02  -3.33818931E-18
  -3.84499989E-02  -9.53665379E-18
  -3.84000018E-02  -1.54672187E-17
  -3.83500010E-02  -2.04630984E-17
  -3.83000001E-02  -2.50767744E-17
  -3.82499993E-02  -3.12596318E-17
  -3.81999984E-02  -4.18514248E-17
  -3.81500013E-02  -5.95071152E-17
  -3.81000005E-02  -8.55130185E-17
  -3.80499996E-02  -1.19081000E-16
  -3.79999988E-02  -1.57556519E-16
  -3.79500017E-02  -1.97573254E-16
  -3.79000008E-02  -2.36710266E-16
  -3.78500000E-02  -2.74890461E-16
  -3.77999991E-02  -3.14785925E-16
  -3.77499983E-02  -3.60897551E-16
  -3.77000012E-02  -4.17604660E-16
  -3.76500003E-02  -4.87036798E-16
  -3.75999995E-02  -5.67809701E-16
  -3.75499986E-02  -6.55336739E-16
  -3.75000015E-02  -7.43700539E-16
  -3.74500006E-02  -8.28280802E-16
  -3.73999998E-02  -9.07903276E-16
  -3.73499990E-02  -9.85435060E-16
  -3.73000018E-02  -1.06646117E-15
  -3.72500010E-02  -1.15658664E-15
  -3.72000001E-02  -1.25858572E-15
  -3.71499993E-02  -1.37071509E-15
  -3.70999984E-02  -1.48696179E-15
  -3.70500013E-02  -1.59907422E-15
  -3.70000005E-02  -1.69937287E-15
  -3.69499996E-02  -1.78300859E-15
  -3.68999988E-02  -1.84871209E-15
  -3.68500017E-02  -1.89794228E-15
  -3.68000008E-02  -1.93319981E-15
  -3.67500000E-02  -1.95659719E-15
  -3.66999991E-02  -1.96940031E-15
  -3.66499983E-02  -1.97242167E-15
  -3.66000012E-02  -1.96645560E-15
  -3.65500003E-02  -1.95187371E-15
  -3.64999995E-02  -1.92719943E-15
  -3.64499986E-02  -1.88749857E-15
  -3.64000015E-02  -1.82410832E-15
  -3.63500006E-02  -1.72694094E-15
  -3.62999998E-02  -1.58924186E-15
  -3.62499990E-02  -1.41286493E-15
  -3.62000018E-02  -1.21089416E-15
  -3.61500010E-02  -1.00486981E-15
  -3.61000001E-02  -8.16220377E-16
  -3.60499993E-02  -6.54929581E-16
  -3.59999985E-02  -5.11137215E-16
  -3.59500013E-02  -3.55417725E-16
  -3.59000005E-02  -1.50130978E-16
  -3.58499996E-02   1.31441937E-16
  -3.57999988E-02   4.86774747E-16
  -3.57500017E-02   8.76997744E-16
  -3.57000008E-02   1.23790117E-15
  -3.56500000E-02   1.50769779E-15
  -3.55999991E-02   1.66072784E-15
  -3.55499983E-02   1.73042743E-15
  -3.55000012E-02   1.80665965E-15
  -3.54500003E-02   2.00273656E-15
  -3.53999995E-02   2.40251155E-15
  -3.53499986E-02   3.01080699E-15
  -3.53000015E-02   3.73377375E-15
  -3.52500007E-02   4.40581181E-15
  -3.51999998E-02   4.85899984E-15
  -3.51499990E-02   5.00829999E-15
  -3.51000018E-02   4.91253233E-15
  -3.50500010E-02   4.77584238E-15
  -3.50000001E-02   4.87793061E-15
  -3.49499993E-02   5.45505100E-15
  -3.48999985E-02   6.58233877E-15
  -3.48500013E-02   8.11603168E-15
  -3.48000005E-02   9.73406960E-15
  -3.47499996E-02   1.10707562E-14
  -3.46999988E-02   1.18935911E-14
  -3.46500017E-02   1.22411516E-14
  -3.46000008E-02   1.24476735E-14
  -3.45500000E-02   1.30249146E-14
  -3.44999991E-02   1.44382068E-14
  -3.44499983E-02   1.68714631E-14
  -3.44000012E-02   2.00951096E-14
  -3.43500003E-02   2.35166670E-14
  -3.42999995E-02   2.64149749E-14
  -3.42499986E-02   2.82689724E-14
  -3.42000015E-02   2.90330978E-14
  -3.41500007E-02   2.92172733E-14
  -3.40999998E-02   2.97060960E-14
  -3.40499990E-02   3.13707122E-14
  -3.40000018E-02   3.46355635E-14
  -3.39500010E-02   3.92051097E-14
  -3.39000002E-02   4.41039959E-14
  -3.38499993E-02   4.80506815E-14
  -3.37999985E-02   5.00245563E-14
  -3.37500013E-02   4.97750577E-14
  -3.37000005E-02   4.80186129E-14
  -3.36499996E-02   4.61897840E-14
  -3.35999988E-02   4.58131729E-14
  -3.35500017E-02   4.77543928E-14
  -3.35000008E-02   5.16977818E-14
  -3.34500000E-02   5.61297936E-14
  -3.33999991E-02   5.88955086E-14
  -3.33499983E-02   5.81270126E-14
  -3.33000012E-02   5.31406516E-14
  -3.32500003E-02   4.48699136E-14
  -3.31999995E-02   3.55758039E-14
  -3.31499986E-02   2.78948990E-14
  -3.31000015E-02   2.36090766E-14
  -3.30500007E-02   2.26947333E-14
  -3.29999998E-02   2.31344129E-14
  -3.29499990E-02   2.16594829E-14
  -3.29000019E-02   1.51654524E-14
  -3.28500010E-02   2.19415521E-15
  -3.28000002E-02  -1.62156140E-14
  -3.27499993E-02  -3.67760123E-14
  -3.26999985E-02  -5.52862809E-14
  -3.26500013E-02  -6.85276895E-14
  -3.26000005E-02  -7.58707604E-14
  -3.25499997E-02  -7.98042256E-14
  -3.24999988E-02  -8.50323569E-14
  -3.24500017E-02  -9.64340709E-14
  -3.24000008E-02  -1.16744396E-13
  -3.23500000E-02  -1.45029876E-13
  -3.22999991E-02  -1.76751436E-13
  -3.22499983E-02  -2.05528221E-13
  -3.22000012E-02  -2.25921658E-13
  -3.21500003E-02  -2.36016014E-13
  -3.20999995E-02  -2.38560338E-13
  -3.20499986E-02  -2.40009239E-13
  -3.20000015E-02  -2.47734315E-13
  -3.19500007E-02  -2.66566202E-13
  -3.18999998E-02  -2.96239812E-13
  -3.18499990E-02  -3.31024542E-13
  -3.18000019E-02  -3.61896629E-13
  -3.17500010E-02  -3.80444537E-13
  -3.17000002E-02  -3.82815253E-13
  -3.16499993E-02  -3.71850689E-13
  -3.15999985E-02  -3.56263901E-13
  -3.15500014E-02  -3.47001263E-13
  -3.15000005E-02  -3.52268778E-13
  -3.14499997E-02  -3.73444195E-13
  -3.13999988E-02  -4.03855335E-13
  -3.13500017E-02  -4.31217480E-13
  -3.13000008E-02  -4.42871000E-13
  -3.12500000E-02  -4.31586732E-13
  -3.11999992E-02  -3.99273171E-13
  -3.11500002E-02  -3.56701485E-13
  -3.10999993E-02  -3.19084467E-13
  -3.10500003E-02  -2.99268938E-13
  -3.09999995E-02  -3.01540965E-13
  -3.09500005E-02  -3.18974393E-13
  -3.08999997E-02  -3.35810156E-13
  -3.08500007E-02  -3.34115575E-13
  -3.07999998E-02  -3.01927510E-13
  -3.07500008E-02  -2.39196439E-13
  -3.07000000E-02  -1.58617274E-13
  -3.06499992E-02  -8.06090356E-14
  -3.06000002E-02  -2.43751349E-14
  -3.05499993E-02   1.07354269E-15
  -3.05000003E-02   1.77315357E-15
  -3.04499995E-02  -2.98432005E-15
  -3.04000005E-02   1.13049261E-14
  -3.03499997E-02   6.33766179E-14
  -3.03000007E-02   1.57174770E-13
  -3.02499998E-02   2.79084698E-13
  -3.02000009E-02   4.03100459E-13
  -3.01500000E-02   5.02038190E-13
  -3.00999992E-02   5.59990043E-13
  -3.00500002E-02   5.80338674E-13
  -2.99999993E-02   5.85352188E-13
  -2.99500003E-02   6.07023329E-13
  -2.98999995E-02   6.72841611E-13
  -2.98500005E-02   7.92751010E-13
  -2.97999997E-02   9.53376592E-13
  -2.97500007E-02   1.12261882E-12
  -2.96999998E-02   1.26311754E-12
  -2.96500009E-02   1.34891685E-12
  -2.96000000E-02   1.37785150E-12
  -2.95499992E-02   1.37371256E-12
  -2.95000002E-02   1.37660521E-12
  -2.94499993E-02   1.42525217E-12
  -2.94000003E-02   1.53890746E-12
  -2.93499995E-02   1.70716121E-12
  -2.93000005E-02   1.89275115E-12
  -2.92499997E-02   2.04681281E-12
  -2.92000007E-02   2.13026190E-12
  -2.91499998E-02   2.13184201E-12
  -2.91000009E-02   2.07439209E-12
  -2.90500000E-02   2.00582259E-12
  -2.89999992E-02   1.97812014E-12
  -2.89500002E-02   2.02334915E-12
  -2.88999993E-02   2.13747553E-12
  -2.88500004E-02   2.27982715E-12
  -2.87999995E-02   2.38925850E-12
  -2.87500005E-02   2.41050691E-12
  -2.86999997E-02   2.31923226E-12
  -2.86500007E-02   2.13424569E-12
  -2.85999998E-02   1.91070467E-12
  -2.85500009E-02   1.71642269E-12
  -2.85000000E-02   1.60126643E-12
  -2.84499992E-02   1.57325541E-12
  -2.84000002E-02   1.59260051E-12
  -2.83499993E-02   1.58728651E-12
  -2.83000004E-02   1.48415611E-12
  -2.82499995E-02   1.24209345E-12
  -2.82000005E-02   8.72299032E-13
  -2.81499997E-02   4.35800647E-13
  -2.81000007E-02   1.82422470E-14
  -2.80499998E-02  -3.07665948E-13
  -2.80000009E-02  -5.15542958E-13
  -2.79500000E-02  -6.39195999E-13
  -2.78999992E-02  -7.59722472E-13
  -2.78500002E-02  -9.70457222E-13
  -2.77999993E-02  -1.33464745E-12
  -2.77500004E-02  -1.85472688E-12
  -2.76999995E-02  -2.46765737E-12
  -2.76500005E-02  -3.06963764E-12
  -2.75999997E-02  -3.56030158E-12
  -2.75500007E-02  -3.88724946E-12
  -2.74999999E-02  -4.07074721E-12
  -2.74500009E-02  -4.19652594E-12
  -2.74000000E-02  -4.37854007E-12
  -2.73499992E-02  -4.70723937E-12
  -2.73000002E-02  -5.20614541E-12
  -2.72499993E-02  -5.81677154E-12
  -2.72000004E-02  -6.41994400E-12
  -2.71499995E-02  -6.88546225E-12
  -2.71000005E-02  -7.12886954E-12
  -2.70499997E-02  -7.14997202E-12
  -2.70000007E-02  -7.03492733E-12
  -2.69499999E-02  -6.91943508E-12
  -2.69000009E-02  -6.92802022E-12
  -2.68500000E-02  -7.11585218E-12
  -2.67999992E-02  -7.43948653E-12
  -2.67500002E-02  -7.77093841E-12
  -2.66999993E-02  -7.95053086E-12
  -2.66500004E-02  -7.85626338E-12
  -2.65999995E-02  -7.45906722E-12
  -2.65500005E-02  -6.83846209E-12
  -2.64999997E-02  -6.14995468E-12
  -2.64500007E-02  -5.55695767E-12
  -2.63999999E-02  -5.15652668E-12
  -2.63500009E-02  -4.93218097E-12
  -2.63000000E-02  -4.75617462E-12
  -2.62499992E-02  -4.44219141E-12
  -2.62000002E-02  -3.82672279E-12
  -2.61499994E-02  -2.84361532E-12
  -2.61000004E-02  -1.55793943E-12
  -2.60499995E-02  -1.42343331E-13
  -2.60000005E-02   1.19570207E-12
  -2.59499997E-02   2.30491277E-12
  -2.59000007E-02   3.15919361E-12
  -2.58499999E-02   3.87273243E-12
  -2.58000009E-02   4.65232583E-12
  -2.57500000E-02   5.70599817E-12
  -2.56999992E-02   7.14736213E-12
  -2.56500002E-02   8.93857124E-12
  -2.55999994E-02   1.08989831E-11
  -2.55500004E-02   1.27780885E-11
  -2.54999995E-02   1.43623230E-11
  -2.54500005E-02   1.55689975E-11
  -2.53999997E-02   1.64846435E-11
  -2.53500007E-02   1.73284980E-11
  -2.52999999E-02   1.83547812E-11
  -2.52500009E-02   1.97354511E-11
  -2.52000000E-02   2.14753857E-11
  -2.51499992E-02   2.33993033E-11
  -2.51000002E-02   2.52188652E-11
  -2.50499994E-02   2.66527495E-11
  -2.50000004E-02   2.75476447E-11
  -2.49499995E-02   2.79459286E-11
  -2.49000005E-02   2.80677703E-11
  -2.48499997E-02   2.82126753E-11
  -2.48000007E-02   2.86219277E-11
  -2.47499999E-02   2.93623216E-11
  -2.47000009E-02   3.02841467E-11
  -2.46500000E-02   3.10749343E-11
  -2.45999992E-02   3.13881247E-11
  -2.45500002E-02   3.09915947E-11
  -2.44999994E-02   2.98700162E-11
  -2.44500004E-02   2.82336151E-11
  -2.43999995E-02   2.64262293E-11
  -2.43500005E-02   2.47705086E-11
  -2.42999997E-02   2.34176463E-11
  -2.42500007E-02   2.22692437E-11
  -2.41999999E-02   2.10087954E-11
  -2.41500009E-02   1.92324177E-11
  -2.41000000E-02   1.66235099E-11
  -2.40499992E-02   1.30945211E-11
  -2.40000002E-02   8.83125777E-12
  -2.39499994E-02   4.21668256E-12
  -2.39000004E-02  -3.35452098E-13
  -2.38499995E-02  -4.56544871E-12
  -2.38000005E-02  -8.48864729E-12
  -2.37499997E-02  -1.23962229E-11
  -2.37000007E-02  -1.67315380E-11
  -2.36499999E-02  -2.18934870E-11
  -2.36000009E-02  -2.80526175E-11
  -2.35500000E-02  -3.50627964E-11
  -2.34999992E-02  -4.25109843E-11
  -2.34500002E-02  -4.98870771E-11
  -2.33999994E-02  -5.68014420E-11
  -2.33500004E-02  -6.31541069E-11
  -2.32999995E-02  -6.91783505E-11
  -2.32500006E-02  -7.53353421E-11
  -2.31999997E-02  -8.21024082E-11
  -2.31500007E-02  -8.97466823E-11
  -2.30999999E-02  -9.81849810E-11
  -2.30500009E-02  -1.06995211E-10
  -2.30000000E-02  -1.15578686E-10
  -2.29499992E-02  -1.23405064E-10
  -2.29000002E-02  -1.30232700E-10
  -2.28499994E-02  -1.36204853E-10
  -2.28000004E-02  -1.41775341E-10
  -2.27499995E-02  -1.47491810E-10
  -2.27000006E-02  -1.53729751E-10
  -2.26499997E-02  -1.60494923E-10
  -2.26000007E-02  -1.67384745E-10
  -2.25499999E-02  -1.73730169E-10
  -2.25000009E-02  -1.78860080E-10
  -2.24500000E-02  -1.82372908E-10
  -2.23999992E-02  -1.84294330E-10
  -2.23500002E-02  -1.85047574E-10
  -2.22999994E-02  -1.85244167E-10
  -2.22500004E-02  -1.85384347E-10
  -2.21999995E-02  -1.85598550E-10
  -2.21500006E-02  -1.85546842E-10
  -2.20999997E-02  -1.84525603E-10
  -2.20500007E-02  -1.81739165E-10
  -2.19999999E-02  -1.76619427E-10
  -2.19500009E-02  -1.69051592E-10
  -2.19000001E-02  -1.59402894E-10
  -2.18499992E-02  -1.48336454E-10
  -2.18000002E-02  -1.36487890E-10
  -2.17499994E-02  -1.24146110E-10
  -2.17000004E-02  -1.11081006E-10
  -2.16499995E-02  -9.65988470E-11
  -2.16000006E-02  -7.98064531E-11
  -2.15499997E-02  -5.99711600E-11
  -2.15000007E-02  -3.68182672E-11
  -2.14499999E-02  -1.06315373E-11
  -2.14000009E-02   1.78926665E-11
  -2.13500001E-02   4.79784511E-11
  -2.12999992E-02   7.91459884E-11
  -2.12500002E-02   1.11462978E-10
  -2.11999994E-02   1.45556678E-10
  -2.11500004E-02   1.82375545E-10
  -2.10999995E-02   2.22801208E-10
  -2.10500006E-02   2.67280642E-10
  -2.09999997E-02   3.15643123E-10
  -2.09500007E-02   3.67188030E-10
  -2.08999999E-02   4.21009894E-10
  -2.08500009E-02   4.76421291E-10
  -2.08000001E-02   5.33286471E-10
  -2.07499992E-02   5.92115079E-10
  -2.07000002E-02   6.53869237E-10
  -2.06499994E-02   7.19563187E-10
  -2.06000004E-02   7.89830479E-10
  -2.05499995E-02   8.64650962E-10
  -2.05000006E-02   9.43362166E-10
  -2.04499997E-02   1.02495668E-09
  -2.04000007E-02   1.10853793E-09
  -2.03499999E-02   1.19373489E-09
  -2.03000009E-02   1.28088984E-09
  -2.02500001E-02   1.37093104E-09
  -2.01999992E-02   1.46498047E-09
  -2.01500002E-02   1.56386737E-09
  -2.00999994E-02   1.66776182E-09
  -2.00500004E-02   1.77609405E-09
  -1.99999996E-02   1.88780147E-09
  -1.99500006E-02   2.00179961E-09
  -1.98999997E-02   2.11747087E-09
  -1.98500007E-02   2.23495400E-09
  -1.97999999E-02   2.35510345E-09
  -1.97500009E-02   2.47912690E-09
  -1.97000001E-02   2.60806243E-09
  -1.96499992E-02   2.74231904E-09
  -1.96000002E-02   2.88149171E-09
  -1.95499994E-02   3.02453351E-09
  -1.95000004E-02   3.17021942E-09
  -1.94499996E-02   3.31769567E-09
  -1.94000006E-02   3.46687390E-09
  -1.93499997E-02   3.61849439E-09
  -1.93000007E-02   3.77382126E-09
  -1.92499999E-02   3.93410104E-09
  -1.92000009E-02   4.10002432E-09
  -1.91500001E-02   4.27142188E-09
  -1.90999992E-02   4.44734871E-09
  -1.90500002E-02   4.62650629E-09
  -1.89999994E-02   4.80783857E-09
  -1.89500004E-02   4.99102715E-09
  -1.88999996E-02   5.17666976E-09
  -1.88500006E-02   5.36605782E-09
  -1.87999997E-02   5.56064350E-09
  -1.87500007E-02   5.76143400E-09
  -1.86999999E-02   5.96857319E-09
  -1.86500009E-02   6.18130747E-09
  -1.86000001E-02   6.39834985E-09
  -1.85499992E-02   6.61849109E-09
  -1.85000002E-02   6.84118673E-09
  -1.84499994E-02   7.06686176E-09
  -1.84000004E-02   7.29679117E-09
  -1.83499996E-02   7.53260743E-09
  -1.83000006E-02   7.77564502E-09
  -1.82499997E-02   8.02641420E-09
  -1.82000007E-02   8.28443447E-09
  -1.81499999E-02   8.54851212E-09
  -1.81000009E-02   8.81734241E-09
  -1.80500001E-02   9.09016595E-09
  -1.79999992E-02   9.36720479E-09
  -1.79500002E-02   9.64966418E-09
  -1.78999994E-02   9.93931248E-09
  -1.78500004E-02   1.02378017E-08
  -1.77999996E-02   1.05460431E-08
  -1.77500006E-02   1.08639053E-08
  -1.76999997E-02   1.11903731E-08
  -1.76500008E-02   1.15241088E-08
  -1.75999999E-02   1.18641585E-08
  -1.75500009E-02   1.22105090E-08
  -1.75000001E-02   1.25642314E-08
  -1.74499992E-02   1.29271536E-08
  -1.74000002E-02   1.33012028E-08
  -1.73499994E-02   1.36876910E-08
  -1.73000004E-02   1.40868819E-08
  -1.72499996E-02   1.44980135E-08
  -1.72000006E-02   1.49197810E-08
  -1.71499997E-02   1.53510697E-08
  -1.71000008E-02   1.57916080E-08
  -1.70499999E-02   1.62422715E-08
  -1.70000009E-02   1.67048686E-08
  -1.69500001E-02   1.71815326E-08
  -1.68999992E-02   1.76739618E-08
  -1.68500002E-02   1.81828455E-08
  -1.67999994E-02   1.87077447E-08
  -1.67500004E-02   1.92474623E-08
  -1.66999996E-02   1.98007601E-08
  -1.66500006E-02   2.03671124E-08
  -1.65999997E-02   2.09471303E-08
  -1.65500008E-02   2.15425171E-08
  -1.64999999E-02   2.21555325E-08
  -1.64500009E-02   2.27882069E-08
  -1.64000001E-02   2.34416646E-08
  -1.63499992E-02   2.41158400E-08
  -1.63000003E-02   2.48097134E-08
  -1.62499994E-02   2.55219916E-08
  -1.62000004E-02   2.62518984E-08
  -1.61499996E-02   2.69997464E-08
  -1.61000006E-02   2.77670527E-08
  -1.60499997E-02   2.85561139E-08
  -1.60000008E-02   2.93692448E-08
  -1.59499999E-02   3.02079961E-08
  -1.59000009E-02   3.10727373E-08
  -1.58500001E-02   3.19627240E-08
  -1.57999992E-02   3.28766809E-08
  -1.57500003E-02   3.38136417E-08
  -1.56999994E-02   3.47736062E-08
  -1.56500004E-02   3.57578429E-08
  -1.55999996E-02   3.67686006E-08
  -1.55499997E-02   3.78083982E-08
  -1.54999997E-02   3.88792039E-08
  -1.54499998E-02   3.99818560E-08
  -1.53999999E-02   4.11159711E-08
  -1.53500000E-02   4.22804121E-08
  -1.53000001E-02   4.34740706E-08
  -1.52500002E-02   4.46966766E-08
  -1.52000003E-02   4.59492142E-08
  -1.51500003E-02   4.72338151E-08
  -1.51000004E-02   4.85531473E-08
  -1.50499996E-02   4.99095698E-08
  -1.49999997E-02   5.13044327E-08
  -1.49499997E-02   5.27378141E-08
  -1.48999998E-02   5.42088330E-08
  -1.48499999E-02   5.57163844E-08
  -1.48000000E-02   5.72599852E-08
  -1.47500001E-02   5.88403388E-08
  -1.47000002E-02   6.04594277E-08
  -1.46500003E-02   6.21200016E-08
  -1.46000003E-02   6.38247784E-08
  -1.45500004E-02   6.55756480E-08
  -1.44999996E-02   6.73732359E-08
  -1.44499997E-02   6.92170303E-08
  -1.43999998E-02   7.11060792E-08
  -1.43499998E-02   7.30397645E-08
  -1.42999999E-02   7.50185833E-08
  -1.42500000E-02   7.70443194E-08
  -1.42000001E-02   7.91197792E-08
  -1.41500002E-02   8.12480039E-08
  -1.41000003E-02   8.34314093E-08
  -1.40500003E-02   8.56712745E-08
  -1.40000004E-02   8.79676350E-08
  -1.39499996E-02   9.03198014E-08
  -1.38999997E-02   9.27272055E-08
  -1.38499998E-02   9.51901598E-08
  -1.37999998E-02   9.77102985E-08
  -1.37499999E-02   1.00290414E-07
  -1.37000000E-02   1.02933811E-07
  -1.36500001E-02   1.05643451E-07
  -1.36000002E-02   1.08421283E-07
  -1.35500003E-02   1.11268001E-07
  -1.35000004E-02   1.14183379E-07
  -1.34500004E-02   1.17166984E-07
  -1.33999996E-02   1.20219084E-07
  -1.33499997E-02   1.23341124E-07
  -1.32999998E-02   1.26535852E-07
  -1.32499998E-02   1.29806793E-07
  -1.31999999E-02   1.33157442E-07
  -1.31500000E-02   1.36590415E-07
  -1.31000001E-02   1.40107190E-07
  -1.30500002E-02   1.43708050E-07
  -1.30000003E-02   1.47392939E-07
  -1.29500004E-02   1.51162126E-07
  -1.29000004E-02   1.55017005E-07
  -1.28499996E-02   1.58960248E-07
  -1.27999997E-02   1.62995519E-07
  -1.27499998E-02   1.67126700E-07
  -1.26999998E-02   1.71357129E-07
  -1.26499999E-02   1.75689024E-07
  -1.26000000E-02   1.80123422E-07
  -1.25500001E-02   1.84660678E-07
  -1.25000002E-02   1.89301261E-07
  -1.24500003E-02   1.94046493E-07
  -1.24000004E-02   1.98898988E-07
  -1.23500004E-02   2.03862484E-07
  -1.22999996E-02   2.08941231E-07
  -1.22499997E-02   2.14139234E-07
  -1.21999998E-02   2.19459508E-07
  -1.21499998E-02   2.24903900E-07
  -1.20999999E-02   2.30473333E-07
  -1.20500000E-02   2.36168560E-07
  -1.20000001E-02   2.41990932E-07
  -1.19500002E-02   2.47943007E-07
  -1.19000003E-02   2.54028549E-07
  -1.18500004E-02   2.60252023E-07
  -1.18000004E-02   2.66617974E-07
  -1.17499996E-02   2.73130269E-07
  -1.16999997E-02   2.79791578E-07
  -1.16499998E-02   2.86603580E-07
  -1.15999999E-02   2.93567467E-07
  -1.15499999E-02   3.00684803E-07
  -1.15000000E-02   3.07958061E-07
  -1.14500001E-02   3.15391020E-07
  -1.14000002E-02   3.22988342E-07
  -1.13500003E-02   3.30755086E-07
  -1.13000004E-02   3.38695827E-07
  -1.12500004E-02   3.46814090E-07
  -1.11999996E-02   3.55112320E-07
  -1.11499997E-02   3.63592221E-07
  -1.10999998E-02   3.72255556E-07
  -1.10499999E-02   3.81104854E-07
  -1.09999999E-02   3.90143839E-07
  -1.09500000E-02   3.99377257E-07
  -1.09000001E-02   4.08810564E-07
  -1.08500002E-02   4.18448991E-07
  -1.08000003E-02   4.28296971E-07
  -1.07500004E-02   4.38357915E-07
  -1.07000005E-02   4.48634324E-07
  -1.06499996E-02   4.59128387E-07
  -1.05999997E-02   4.69842746E-07
  -1.05499998E-02   4.80781125E-07
  -1.04999999E-02   4.91948470E-07
  -1.04499999E-02   5.03350293E-07
  -1.04000000E-02   5.14992507E-07
  -1.03500001E-02   5.26880285E-07
  -1.03000002E-02   5.39017947E-07
  -1.02500003E-02   5.51408732E-07
  -1.02000004E-02   5.64055256E-07
  -1.01500005E-02   5.76960360E-07
  -1.00999996E-02   5.90127797E-07
  -1.00499997E-02   6.03562341E-07
  -9.99999978E-03   6.17269961E-07
  -9.94999986E-03   6.31256910E-07
  -9.89999995E-03   6.45529269E-07
  -9.85000003E-03   6.60092155E-07
  -9.80000012E-03   6.74949717E-07
  -9.75000020E-03   6.90105367E-07
  -9.70000029E-03   7.05562343E-07
  -9.65000037E-03   7.21324454E-07
  -9.60000046E-03   7.37396761E-07
  -9.54999961E-03   7.53785173E-07
  -9.49999969E-03   7.70496513E-07
  -9.44999978E-03   7.87537545E-07
  -9.39999986E-03   8.04914293E-07
  -9.34999995E-03   8.22631819E-07
  -9.30000003E-03   8.40694270E-07
  -9.25000012E-03   8.59105171E-07
  -9.20000020E-03   8.77868729E-07
  -9.15000029E-03   8.96989548E-07
  -9.10000037E-03   9.16473823E-07
  -9.05000046E-03   9.36328263E-07
  -8.99999961E-03   9.56560143E-07
  -8.94999970E-03   9.77176455E-07
  -8.89999978E-03   9.98182941E-07
  -8.84999987E-03   1.01958472E-06
  -8.79999995E-03   1.04138587E-06
  -8.75000004E-03   1.06359096E-06
  -8.70000012E-03   1.08620452E-06
  -8.65000021E-03   1.10923293E-06
  -8.60000029E-03   1.13268300E-06
  -8.55000038E-03   1.15656269E-06
  -8.50000046E-03   1.18087962E-06
  -8.44999962E-03   1.20564073E-06
  -8.39999970E-03   1.23085158E-06
  -8.34999979E-03   1.25651741E-06
  -8.29999987E-03   1.28264253E-06
  -8.24999996E-03   1.30923206E-06
  -8.20000004E-03   1.33629192E-06
  -8.15000013E-03   1.36382926E-06
  -8.10000021E-03   1.39185192E-06
  -8.05000030E-03   1.42036799E-06
  -8.00000038E-03   1.44938485E-06
  -7.95000046E-03   1.47890921E-06
  -7.89999962E-03   1.50894653E-06
  -7.84999970E-03   1.53950168E-06
  -7.79999979E-03   1.57057957E-06
  -7.74999987E-03   1.60218599E-06
  -7.69999996E-03   1.63432787E-06
  -7.65000004E-03   1.66701318E-06
  -7.60000013E-03   1.70025044E-06
  -7.55000021E-03   1.73404794E-06
  -7.49999983E-03   1.76841297E-06
  -7.44999992E-03   1.80335189E-06
  -7.40000000E-03   1.83887005E-06
  -7.35000009E-03   1.87497267E-06
  -7.30000017E-03   1.91166509E-06
  -7.24999979E-03   1.94895415E-06
  -7.19999988E-03   1.98684734E-06
  -7.14999996E-03   2.02535398E-06
  -7.10000005E-03   2.06448249E-06
  -7.05000013E-03   2.10424128E-06
  -7.00000022E-03   2.14463671E-06
  -6.94999984E-03   2.18567470E-06
  -6.89999992E-03   2.22736003E-06
  -6.85000001E-03   2.26969769E-06
  -6.80000009E-03   2.31269451E-06
  -6.75000018E-03   2.35635730E-06
  -6.69999979E-03   2.40069471E-06
  -6.64999988E-03   2.44571629E-06
  -6.59999996E-03   2.49143000E-06
  -6.55000005E-03   2.53784310E-06
  -6.50000013E-03   2.58496198E-06
  -6.45000022E-03   2.63279117E-06
  -6.39999984E-03   2.68133545E-06
  -6.34999992E-03   2.73060118E-06
  -6.30000001E-03   2.78059497E-06
  -6.25000009E-03   2.83132522E-06
  -6.20000018E-03   2.88280125E-06
  -6.14999980E-03   2.93503149E-06
  -6.09999988E-03   2.98802365E-06
  -6.04999997E-03   3.04178411E-06
  -6.00000005E-03   3.09631719E-06
  -5.95000014E-03   3.15162788E-06
  -5.90000022E-03   3.20772074E-06
  -5.84999984E-03   3.26460258E-06
  -5.79999993E-03   3.32228069E-06
  -5.75000001E-03   3.38076416E-06
  -5.70000010E-03   3.44006116E-06
  -5.65000018E-03   3.50017945E-06
  -5.59999980E-03   3.56112491E-06
  -5.54999989E-03   3.62290166E-06
  -5.49999997E-03   3.68551400E-06
  -5.45000006E-03   3.74896581E-06
  -5.40000014E-03   3.81326231E-06
  -5.35000023E-03   3.87841055E-06
  -5.29999984E-03   3.94441849E-06
  -5.24999993E-03   4.01129500E-06
  -5.20000001E-03   4.07904690E-06
  -5.15000010E-03   4.14768010E-06
  -5.10000018E-03   4.21719778E-06
  -5.04999980E-03   4.28760359E-06
  -4.99999989E-03   4.35890024E-06
  -4.94999997E-03   4.43109275E-06
  -4.90000006E-03   4.50418611E-06
  -4.85000014E-03   4.57818805E-06
  -4.80000023E-03   4.65310541E-06
  -4.74999985E-03   4.72894499E-06
  -4.69999993E-03   4.80571134E-06
  -4.65000002E-03   4.88340856E-06
  -4.60000010E-03   4.96203666E-06
  -4.55000019E-03   5.04159834E-06
  -4.49999981E-03   5.12209544E-06
  -4.44999989E-03   5.20353251E-06
  -4.39999998E-03   5.28591454E-06
  -4.35000006E-03   5.36924790E-06
  -4.30000015E-03   5.45353851E-06
  -4.25000023E-03   5.53878954E-06
  -4.19999985E-03   5.62500327E-06
  -4.14999994E-03   5.71217925E-06
  -4.10000002E-03   5.80031701E-06
  -4.05000011E-03   5.88941748E-06
  -4.00000019E-03   5.97948292E-06
  -3.94999981E-03   6.07051561E-06
  -3.89999989E-03   6.16252100E-06
  -3.84999998E-03   6.25550274E-06
  -3.80000006E-03   6.34946400E-06
  -3.74999992E-03   6.44440433E-06
  -3.70000000E-03   6.54032146E-06
  -3.65000009E-03   6.63721175E-06
  -3.59999994E-03   6.73507384E-06
  -3.55000002E-03   6.83390635E-06
  -3.50000011E-03   6.93371112E-06
  -3.44999996E-03   7.03448950E-06
  -3.40000005E-03   7.13624286E-06
  -3.34999990E-03   7.23897210E-06
  -3.29999998E-03   7.34267496E-06
  -3.25000007E-03   7.44734552E-06
  -3.19999992E-03   7.55297879E-06
  -3.15000000E-03   7.65956793E-06
  -3.10000009E-03   7.76711022E-06
  -3.04999994E-03   7.87560293E-06
  -3.00000003E-03   7.98504425E-06
  -2.95000011E-03   8.09543508E-06
  -2.89999996E-03   8.20677087E-06
  -2.85000005E-03   8.31904708E-06
  -2.79999990E-03   8.43225462E-06
  -2.74999999E-03   8.54638711E-06
  -2.70000007E-03   8.66143273E-06
  -2.64999992E-03   8.77738239E-06
  -2.60000001E-03   8.89423154E-06
  -2.55000009E-03   9.01197473E-06
  -2.49999994E-03   9.13060740E-06
  -2.45000003E-03   9.25012500E-06
  -2.40000011E-03   9.37051755E-06
  -2.34999997E-03   9.49177411E-06
  -2.30000005E-03   9.61388014E-06
  -2.24999990E-03   9.73682108E-06
  -2.19999999E-03   9.86058330E-06
  -2.15000007E-03   9.98515588E-06
  -2.09999993E-03   1.01105306E-05
  -2.05000001E-03   1.02366994E-05
  -2.00000009E-03   1.03636503E-05
  -1.94999995E-03   1.04913724E-05
  -1.90000003E-03   1.06198486E-05
  -1.85000000E-03   1.07490596E-05
  -1.79999997E-03   1.08789854E-05
  -1.75000005E-03   1.10096080E-05
  -1.70000002E-03   1.11409108E-05
  -1.64999999E-03   1.12728794E-05
  -1.59999996E-03   1.14055010E-05
  -1.55000004E-03   1.15387602E-05
  -1.50000001E-03   1.16726396E-05
  -1.44999998E-03   1.18071202E-05
  -1.39999995E-03   1.19421766E-05
  -1.35000004E-03   1.20777822E-05
  -1.30000000E-03   1.22139118E-05
  -1.24999997E-03   1.23505415E-05
  -1.20000006E-03   1.24876506E-05
  -1.15000003E-03   1.26252207E-05
  -1.09999999E-03   1.27632320E-05
  -1.04999996E-03   1.29016626E-05
  -1.00000005E-03   1.30404887E-05
  -9.50000016E-04   1.31796778E-05
  -8.99999985E-04   1.33191961E-05
  -8.50000011E-04   1.34590082E-05
  -7.99999980E-04   1.35990867E-05
  -7.50000007E-04   1.37394036E-05
  -6.99999975E-04   1.38799332E-05
  -6.50000002E-04   1.40206512E-05
  -6.00000028E-04   1.41615301E-05
  -5.49999997E-04   1.43025381E-05
  -5.00000024E-04   1.44436390E-05
  -4.49999992E-04   1.45847907E-05
  -3.99999990E-04   1.47259543E-05
  -3.49999988E-04   1.48670861E-05
  -3.00000014E-04   1.50081542E-05
  -2.50000012E-04   1.51491249E-05
  -1.99999995E-04   1.52899684E-05
  -1.50000007E-04   1.54306526E-05
  -9.99999975E-05   1.55711368E-05
  -4.99999987E-05   1.57113791E-05
   0.00000000       1.58513285E-05
   4.99999987E-05   1.59909396E-05
   9.99999975E-05   1.61301614E-05
   1.50000007E-04   1.62689503E-05
   1.99999995E-04   1.64072662E-05
   2.50000012E-04   1.65450710E-05
   3.00000014E-04   1.66823229E-05
   3.49999988E-04   1.68189799E-05
   3.99999990E-04   1.69549894E-05
   4.49999992E-04   1.70902968E-05
   5.00000024E-04   1.72248456E-05
   5.49999997E-04   1.73585759E-05
   6.00000028E-04   1.74914330E-05
   6.50000002E-04   1.76233698E-05
   6.99999975E-04   1.77543388E-05
   7.50000007E-04   1.78842929E-05
   7.99999980E-04   1.80131829E-05
   8.50000011E-04   1.81409505E-05
   8.99999985E-04   1.82675340E-05
   9.50000016E-04   1.83928623E-05
   1.00000005E-03   1.85168738E-05
   1.04999996E-03   1.86394973E-05
   1.09999999E-03   1.87606820E-05
   1.15000003E-03   1.88803660E-05
   1.20000006E-03   1.89985003E-05
   1.24999997E-03   1.91150284E-05
   1.30000000E-03   1.92298830E-05
   1.35000004E-03   1.93429951E-05
   1.39999995E-03   1.94542845E-05
   1.44999998E-03   1.95636749E-05
   1.50000001E-03   1.96710916E-05
   1.55000004E-03   1.97764693E-05
   1.59999996E-03   1.98797388E-05
   1.64999999E-03   1.99808455E-05
   1.70000002E-03   2.00797203E-05
   1.75000005E-03   2.01762978E-05
   1.79999997E-03   2.02704960E-05
   1.85000000E-03   2.03622312E-05
   1.90000003E-03   2.04514145E-05
   1.94999995E-03   2.05379602E-05
   2.00000009E-03   2.06217883E-05
   2.05000001E-03   2.07028261E-05
   2.09999993E-03   2.07810117E-05
   2.15000007E-03   2.08562687E-05
   2.19999999E-03   2.09285263E-05
   2.24999990E-03   2.09976934E-05
   2.30000005E-03   2.10636790E-05
   2.34999997E-03   2.11263850E-05
   2.40000011E-03   2.11857132E-05
   2.45000003E-03   2.12415780E-05
   2.49999994E-03   2.12938976E-05
   2.55000009E-03   2.13425938E-05
   2.60000001E-03   2.13875956E-05
   2.64999992E-03   2.14288193E-05
   2.70000007E-03   2.14661741E-05
   2.74999999E-03   2.14995525E-05
   2.79999990E-03   2.15288492E-05