  -3.99999991E-02   0.00000000    
  -3.99499983E-02   0.00000000    
  -3.99000011E-02   0.00000000    
  -3.98500003E-02   0.00000000    
  -3.97999994E-02  -3.88432369E-17
  -3.97499986E-02  -2.98651271E-16
  -3.97000015E-02  -1.15608096E-15
  -3.96500006E-02  -3.04374767E-15
  -3.95999998E-02  -6.27263473E-15
  -3.95499989E-02  -1.11401900E-14
  -3.95000018E-02  -1.82052588E-14
  -3.94500010E-02  -2.79977593E-14
  -3.94000001E-02  -3.98036232E-14
  -3.93499993E-02  -5.06274066E-14
  -3.92999984E-02  -5.61919014E-14
  -3.92500013E-02  -5.41877131E-14
  -3.92000005E-02  -4.71106986E-14
  -3.91499996E-02  -4.14161910E-14
  -3.90999988E-02  -4.29490021E-14
  -3.90500017E-02  -5.25387635E-14
  -3.90000008E-02  -6.55523677E-14
  -3.89500000E-02  -7.48087302E-14
  -3.88999991E-02  -7.28936090E-14
  -3.88499983E-02  -5.20355142E-14
  -3.88000011E-02  -4.59802815E-15
  -3.87500003E-02   7.23493937E-14
  -3.86999995E-02   1.71122326E-13
  -3.86499986E-02   2.74340419E-13
  -3.86000015E-02   3.66771744E-13
  -3.85500006E-02   4.50597377E-13
  -3.84999998E-02   5.50142776E-13
  -3.84499989E-02   6.99913760E-13
  -3.84000018E-02   9.25061243E-13
  -3.83500010E-02   1.22977171E-12
  -3.83000001E-02   1.59954114E-12
  -3.82499993E-02   2.00939157E-12
  -3.81999984E-02   2.42840188E-12
  -3.81500013E-02   2.82226087E-12
  -3.81000005E-02   3.16325677E-12
  -3.80499996E-02   3.44826836E-12
  -3.79999988E-02   3.70923865E-12
  -3.79500017E-02   3.99950299E-12
  -3.79000008E-02   4.36015373E-12
  -3.78500000E-02   4.79263938E-12
  -3.77999991E-02   5.26090933E-12
  -3.77499983E-02   5.71861482E-12
  -3.77000012E-02   6.13382912E-12
  -3.76500003E-02   6.49083391E-12
  -3.75999995E-02   6.77664305E-12
  -3.75499986E-02   6.97540289E-12
  -3.75000015E-02   7.07850618E-12
  -3.74500006E-02   7.09277862E-12
  -3.73999998E-02   7.02717008E-12
  -3.73499990E-02   6.86475529E-12
  -3.73000018E-02   6.54895582E-12
  -3.72500010E-02   6.00073246E-12
  -3.72000001E-02   5.14935967E-12
  -3.71499993E-02   3.94481453E-12
  -3.70999984E-02   2.34569569E-12
  -3.70500013E-02   3.13275447E-13
  -3.70000005E-02  -2.15821219E-12
  -3.69499996E-02  -4.98893158E-12
  -3.68999988E-02  -7.99313827E-12
  -3.68500017E-02  -1.09328787E-11
  -3.68000008E-02  -1.36269754E-11
  -3.67500000E-02  -1.60485167E-11
  -3.66999991E-02  -1.83534282E-11
  -3.66499983E-02  -2.08331668E-11
  -3.66000012E-02  -2.38218716E-11
  -3.65500003E-02  -2.75864089E-11
  -3.64999995E-02  -3.22159383E-11
  -3.64499986E-02  -3.75425906E-11
  -3.64000015E-02  -4.31534912E-11
  -3.63500006E-02  -4.85394017E-11
  -3.62999998E-02  -5.33403217E-11
  -3.62499990E-02  -5.75501730E-11
  -3.62000018E-02  -6.15289070E-11
  -3.61500010E-02  -6.57764745E-11
  -3.61000001E-02  -7.05783071E-11
  -3.60499993E-02  -7.57203467E-11
  -3.59999985E-02  -8.04357900E-11
  -3.59500013E-02  -8.36289024E-11
  -3.59000005E-02  -8.43029604E-11
  -3.58499996E-02  -8.20392435E-11
  -3.57999988E-02  -7.73306350E-11
  -3.57500017E-02  -7.15709297E-11
  -3.57000008E-02  -6.65923011E-11
  -3.56500000E-02  -6.38495853E-11
  -3.55999991E-02  -6.35936442E-11
  -3.55499983E-02  -6.44866452E-11
  -3.55000012E-02  -6.39572423E-11
  -3.54500003E-02  -5.92276020E-11
  -3.53999995E-02  -4.85711124E-11
  -3.53499986E-02  -3.22031360E-11
  -3.53000015E-02  -1.23527829E-11
  -3.52500007E-02   7.58761023E-12
  -3.51999998E-02   2.45429753E-11
  -3.51499990E-02   3.72722998E-11
  -3.51000018E-02   4.72236208E-11
  -3.50500010E-02   5.82053017E-11
  -3.50000001E-02   7.48232934E-11
  -3.49499993E-02   1.00257434E-10
  -3.48999985E-02   1.34413355E-10
  -3.48500013E-02   1.73462883E-10
  -3.48000005E-02   2.11191439E-10
  -3.47499996E-02   2.41675097E-10
  -3.46999988E-02   2.62086297E-10
  -3.46500017E-02   2.74269024E-10
  -3.46000008E-02   2.84216567E-10
  -3.45500000E-02   2.99503367E-10
  -3.44999991E-02   3.25669630E-10
  -3.44499983E-02   3.63150982E-10
  -3.44000012E-02   4.06298828E-10
  -3.43500003E-02   4.45256387E-10
  -3.42999995E-02   4.70167516E-10
  -3.42499986E-02   4.75937456E-10
  -3.42000015E-02   4.65219058E-10
  -3.41500007E-02   4.47895582E-10
  -3.40999998E-02   4.36911618E-10
  -3.40499990E-02   4.42128639E-10
  -3.40000018E-02   4.65020050E-10
  -3.39500010E-02   4.96849895E-10
  -3.39000002E-02   5.21530263E-10
  -3.38499993E-02   5.22256072E-10
  -3.37999985E-02   4.89181751E-10
  -3.37500013E-02   4.24638213E-10
  -3.37000005E-02   3.43153950E-10
  -3.36499996E-02   2.65689637E-10
  -3.35999988E-02   2.10217926E-10
  -3.35500017E-02   1.82835108E-10
  -3.35000008E-02   1.73789552E-10
  -3.34500000E-02   1.60827768E-10
  -3.33999991E-02   1.18877214E-10
  -3.33499983E-02   3.19115047E-11
  -3.33000012E-02  -9.85216908E-11
  -3.32500003E-02  -2.52426413E-10
  -3.31999995E-02  -3.99137473E-10
  -3.31499986E-02  -5.10782860E-10
  -3.31000015E-02  -5.75568815E-10
  -3.30500007E-02  -6.04595096E-10
  -3.29999998E-02  -6.28383401E-10
  -3.29499990E-02  -6.83824330E-10
  -3.29000019E-02  -7.96944788E-10
  -3.28500010E-02  -9.69430647E-10
  -3.28000002E-02  -1.17570786E-09
  -3.27499993E-02  -1.37282075E-09
  -3.26999985E-02  -1.51927793E-09
  -3.26500013E-02  -1.59444746E-09
  -3.26000005E-02  -1.60930003E-09
  -3.25499997E-02  -1.60281044E-09
  -3.24999988E-02  -1.62473268E-09
  -3.24500017E-02  -1.71191539E-09
  -3.24000008E-02  -1.86887905E-09
  -3.23500000E-02  -2.06222706E-09
  -3.22999991E-02  -2.23270136E-09
  -3.22499983E-02  -2.32061881E-09
  -3.22000012E-02  -2.29363195E-09
  -3.21500003E-02  -2.16370744E-09
  -3.20999995E-02  -1.98439554E-09
  -3.20499986E-02  -1.82828508E-09
  -3.20000015E-02  -1.75403392E-09
  -3.19500007E-02  -1.77784976E-09
  -3.18999998E-02  -1.86307325E-09
  -3.18499990E-02  -1.93381910E-09
  -3.18000019E-02  -1.90774885E-09
  -3.17500010E-02  -1.73391124E-09
  -3.17000002E-02  -1.41830891E-09
  -3.16499993E-02  -1.02444153E-09
  -3.15999985E-02  -6.46935228E-10
  -3.15500014E-02  -3.68978958E-10
  -3.15000005E-02  -2.22688770E-10
  -3.14499997E-02  -1.71344480E-10
  -3.13999988E-02  -1.23168059E-10
  -3.13500017E-02   2.81237464E-11
  -3.13000008E-02   3.53701513E-10
  -3.12500000E-02   8.53796034E-10
  -3.11999992E-02   1.45309420E-09
  -3.11500002E-02   2.03111616E-09
  -3.10999993E-02   2.47522070E-09
  -3.10500003E-02   2.73274581E-09
  -3.09999995E-02   2.83790658E-09
  -3.09500005E-02   2.89945201E-09
  -3.08999997E-02   3.05263681E-09
  -3.08500007E-02   3.39613204E-09
  -3.07999998E-02   3.94282784E-09
  -3.07500008E-02   4.60842786E-09
  -3.07000000E-02   5.24507282E-09
  -3.06499992E-02   5.70633496E-09
  -3.06000002E-02   5.91453597E-09
  -3.05499993E-02   5.89909188E-09
  -3.05000003E-02   5.78671688E-09
  -3.04499995E-02   5.74581449E-09
  -3.04000005E-02   5.90873528E-09
  -3.03499997E-02   6.30689589E-09
  -3.03000007E-02   6.84953783E-09
  -3.02499998E-02   7.35819761E-09
  -3.02000009E-02   7.64361197E-09
  -3.01500000E-02   7.59125385E-09
  -3.00999992E-02   7.21603399E-09
  -3.00500002E-02   6.65940547E-09
  -2.99999993E-02   6.12797635E-09
  -2.99500003E-02   5.79994230E-09
  -2.98999995E-02   5.74146997E-09
  -2.98500005E-02   5.87190918E-09
  -2.97999997E-02   5.99558669E-09
  -2.97500007E-02   5.88789373E-09
  -2.96999998E-02   5.39803047E-09
  -2.96500009E-02   4.52173765E-09
  -2.96000000E-02   3.40925288E-09
  -2.95499992E-02   2.30234698E-09
  -2.95000002E-02   1.42686152E-09
  -2.94499993E-02   8.89006924E-10
  -2.94000003E-02   6.23546326E-10
  -2.93499995E-02   4.19433738E-10
  -2.93000005E-02   1.34681597E-11
  -2.92499997E-02  -7.89336652E-10
  -2.92000007E-02  -2.02334061E-09
  -2.91499998E-02  -3.54088425E-09
  -2.91000009E-02  -5.07363396E-09
  -2.90500000E-02  -6.35092423E-09
  -2.89999992E-02  -7.22251103E-09
  -2.89500002E-02  -7.72948994E-09
  -2.88999993E-02  -8.08902900E-09
  -2.88500004E-02  -8.59714877E-09
  -2.87999995E-02  -9.49187573E-09
  -2.87500005E-02  -1.08387717E-08
  -2.86999997E-02  -1.24922996E-08
  -2.86500007E-02  -1.41527758E-08
  -2.85999998E-02  -1.54952371E-08
  -2.85500009E-02  -1.63131695E-08
  -2.85000000E-02  -1.66120593E-08
  -2.84499992E-02  -1.66092526E-08
  -2.84000002E-02  -1.66379195E-08
  -2.83499993E-02  -1.69963208E-08
  -2.83000004E-02  -1.78092563E-08
  -2.82499995E-02  -1.89649096E-08
  -2.82000005E-02  -2.01574206E-08
  -2.81499997E-02  -2.10182929E-08
  -2.81000007E-02  -2.12788311E-08
  -2.80499998E-02  -2.08902353E-08
  -2.80000009E-02  -2.00463894E-08
  -2.79500000E-02  -1.90973797E-08
  -2.78999992E-02  -1.83914910E-08
  -2.78500002E-02  -1.81160402E-08
  -2.77999993E-02  -1.82084463E-08
  -2.77500004E-02  -1.83785165E-08
  -2.76999995E-02  -1.82335782E-08
  -2.76500005E-02  -1.74522015E-08
  -2.75999997E-02  -1.59292739E-08
  -2.75500007E-02  -1.38264422E-08
  -2.74999999E-02  -1.15038121E-08
  -2.74500009E-02  -9.36196809E-09
  -2.74000000E-02  -7.66433850E-09
  -2.73499992E-02  -6.41951248E-09
  -2.73000002E-02  -5.37699085E-09
  -2.72499993E-02  -4.13913082E-09
  -2.72000004E-02  -2.34021313E-09
  -2.71499995E-02   1.86377552E-10
  -2.71000005E-02   3.32741701E-09
  -2.70499997E-02   6.73239064E-09
  -2.70000007E-02   9.96206584E-09
  -2.69499999E-02   1.26785382E-08
  -2.69000009E-02   1.47925725E-08
  -2.68500000E-02   1.65021792E-08
  -2.67999992E-02   1.82035311E-08
  -2.67500002E-02   2.03121058E-08
  -2.66999993E-02   2.30726940E-08
  -2.66500004E-02   2.64423043E-08
  -2.65999995E-02   3.00981569E-08
  -2.65500005E-02   3.35682770E-08
  -2.64999997E-02   3.64287658E-08
  -2.64500007E-02   3.84823480E-08
  -2.63999999E-02   3.98400033E-08
  -2.63500009E-02   4.08690184E-08
  -2.63000000E-02   4.20286490E-08
  -2.62499992E-02   4.36633556E-08
  -2.62000002E-02   4.58433433E-08
  -2.61499994E-02   4.83230593E-08
  -2.61000004E-02   5.06371762E-08
  -2.60499995E-02   5.22937107E-08
  -2.60000005E-02   5.29811324E-08
  -2.59499997E-02   5.26997290E-08
  -2.59000007E-02   5.17597201E-08
  -2.58499999E-02   5.06454718E-08
  -2.58000009E-02   4.98030452E-08
  -2.57500000E-02   4.94419297E-08
  -2.56999992E-02   4.94366645E-08
  -2.56500002E-02   4.93722325E-08
  -2.55999994E-02   4.87167959E-08
  -2.55500004E-02   4.70490775E-08
  -2.54999995E-02   4.42422703E-08
  -2.54500005E-02   4.05243981E-08
  -2.53999997E-02   3.63856003E-08
  -2.53500007E-02   3.23695062E-08
  -2.52999999E-02   2.88381763E-08
  -2.52500009E-02   2.58120796E-08
  -2.52000000E-02   2.29570958E-08
  -2.51499992E-02   1.97267394E-08
  -2.51000002E-02   1.56020370E-08
  -2.50499994E-02   1.03284599E-08
  -2.50000004E-02   4.04591871E-09
  -2.49499995E-02  -2.74845946E-09
  -2.49000005E-02  -9.39557321E-09
  -2.48499997E-02  -1.53476147E-08
  -2.48000007E-02  -2.04018722E-08
  -2.47499999E-02  -2.47909693E-08
  -2.47000009E-02  -2.90844344E-08
  -2.46500000E-02  -3.39386190E-08
  -2.45999992E-02  -3.97995663E-08
  -2.45500002E-02  -4.66873011E-08
  -2.44999994E-02  -5.41593188E-08
  -2.44500004E-02  -6.14757880E-08
  -2.43999995E-02  -6.79019934E-08
  -2.43500005E-02  -7.30202245E-08
  -2.42999997E-02  -7.69137856E-08
  -2.42500007E-02  -8.01358127E-08
  -2.41999999E-02  -8.34671354E-08
  -2.41500009E-02  -8.75624409E-08
  -2.41000000E-02  -9.26378334E-08
  -2.40499992E-02  -9.83418573E-08
  -2.40000002E-02  -1.03875472E-07
  -2.39499994E-02  -1.08316648E-07
  -2.39000004E-02  -1.11012412E-07
  -2.38499995E-02  -1.11866584E-07
  -2.38000005E-02  -1.11391046E-07
  -2.37499997E-02  -1.10487683E-07
  -2.37000007E-02  -1.10048049E-07
  -2.36499999E-02  -1.10542388E-07
  -2.36000009E-02  -1.11782974E-07
  -2.35500000E-02  -1.12977887E-07
  -2.34999992E-02  -1.13062150E-07
  -2.34500002E-02  -1.11166905E-07
  -2.33999994E-02  -1.07018764E-07
  -2.33500004E-02  -1.01084559E-07
  -2.32999995E-02  -9.43858041E-08
  -2.32500006E-02  -8.80551525E-08
  -2.31999997E-02  -8.28265811E-08
  -2.31500007E-02  -7.86877123E-08
  -2.30999999E-02  -7.48592726E-08
  -2.30500009E-02  -7.01261911E-08
  -2.30000000E-02  -6.33832968E-08
  -2.29499992E-02  -5.41549028E-08
  -2.29000002E-02  -4.28501039E-08
  -2.28499994E-02  -3.06237204E-08
  -2.28000004E-02  -1.88913489E-08
  -2.27499995E-02  -8.70809824E-09
  -2.27000006E-02  -2.89832103E-10
  -2.26499997E-02   7.09679027E-09
  -2.26000007E-02   1.48129491E-08
  -2.25499999E-02   2.42266509E-08
  -2.25000009E-02   3.60632519E-08
  -2.24500000E-02   5.00255304E-08
  -2.23999992E-02   6.48674359E-08
  -2.23500002E-02   7.89036392E-08
  -2.22999994E-02   9.07387090E-08
  -2.22500004E-02   9.98887018E-08
  -2.21999995E-02   1.07005384E-07
  -2.21500006E-02   1.13587006E-07
  -2.20999997E-02   1.21290512E-07
  -2.20500007E-02   1.31150074E-07
  -2.19999999E-02   1.43059452E-07
  -2.19500009E-02   1.55763360E-07
  -2.19000001E-02   1.67376854E-07
  -2.18499992E-02   1.76209511E-07
  -2.18000002E-02   1.81524484E-07
  -2.17499994E-02   1.83881298E-07
  -2.17000004E-02   1.84891533E-07
  -2.16499995E-02   1.86482069E-07
  -2.16000006E-02   1.89991766E-07
  -2.15499997E-02   1.95514332E-07
  -2.15000007E-02   2.01801228E-07
  -2.14499999E-02   2.06785330E-07
  -2.14000009E-02   2.08500822E-07
  -2.13500001E-02   2.05985017E-07
  -2.12999992E-02   1.99742644E-07
  -2.12500002E-02   1.91547770E-07
  -2.11999994E-02   1.83656013E-07
  -2.11500004E-02   1.77774879E-07
  -2.10999995E-02   1.74261800E-07
  -2.10500006E-02   1.71927383E-07
  -2.09999997E-02   1.68551836E-07
  -2.09500007E-02   1.61893780E-07
  -2.08999999E-02   1.50739083E-07
  -2.08500009E-02   1.35506042E-07
  -2.08000001E-02   1.18111025E-07
  -2.07499992E-02   1.01138305E-07
  -2.07000002E-02   8.66840679E-08
  -2.06499994E-02   7.53993845E-08
  -2.06000004E-02   6.61816202E-08
  -2.05499995E-02   5.66723060E-08
  -2.05000006E-02   4.43486492E-08
  -2.04499997E-02   2.77188850E-08
  -2.04000007E-02   7.07288406E-09
  -2.03499999E-02  -1.55709579E-08
  -2.03000009E-02  -3.73165392E-08
  -2.02500001E-02  -5.56632429E-08
  -2.01999992E-02  -6.96241784E-08
  -2.01500002E-02  -8.01659610E-08
  -2.00999994E-02  -8.97530654E-08
  -2.00500004E-02  -1.01192029E-07
  -1.99999996E-02  -1.16297301E-07
  -1.99500006E-02  -1.34993471E-07
  -1.98999997E-02  -1.55278698E-07
  -1.98500007E-02  -1.74079688E-07
  -1.97999999E-02  -1.88620106E-07
  -1.97500009E-02  -1.97679555E-07
  -1.97000001E-02  -2.02155960E-07
  -1.96499992E-02  -2.04656388E-07
  -1.96000002E-02  -2.08286366E-07
  -1.95499994E-02  -2.15185821E-07
  -1.95000004E-02  -2.25485721E-07
  -1.94499996E-02  -2.37179037E-07
  -1.94000006E-02  -2.46985962E-07
  -1.93499997E-02  -2.51828283E-07
  -1.93000007E-02  -2.50239339E-07
  -1.92499999E-02  -2.43056661E-07
  -1.92000009E-02  -2.33065578E-07
  -1.91500001E-02  -2.23737018E-07
  -1.90999992E-02  -2.17627985E-07
  -1.90500002E-02  -2.15179824E-07
  -1.89999994E-02  -2.14478860E-07
  -1.89500004E-02  -2.12107665E-07
  -1.88999996E-02  -2.04711824E-07
  -1.88500006E-02  -1.90570987E-07
  -1.87999997E-02  -1.70446484E-07
  -1.87500007E-02  -1.47299943E-07
  -1.86999999E-02  -1.24995523E-07
  -1.86500009E-02  -1.06568883E-07
  -1.86000001E-02  -9.28562898E-08
  -1.85499992E-02  -8.21227957E-08
  -1.85000002E-02  -7.08749042E-08
  -1.84499994E-02  -5.54989370E-08
  -1.84000004E-02  -3.39799797E-08
  -1.83499996E-02  -6.91179025E-09
  -1.83000006E-02   2.26813412E-08
  -1.82499997E-02   5.06450775E-08
  -1.82000007E-02   7.35346646E-08
  -1.81499999E-02   9.01469335E-08
  -1.81000009E-02   1.02033560E-07
  -1.80500001E-02   1.12745767E-07
  -1.79999992E-02   1.26142652E-07
  -1.79500002E-02   1.44528784E-07
  -1.78999994E-02   1.67478902E-07
  -1.78500004E-02   1.91913088E-07
  -1.77999996E-02   2.13399900E-07
  -1.77500006E-02   2.28096440E-07
  -1.76999997E-02   2.34441487E-07
  -1.76500008E-02   2.33825006E-07
  -1.75999999E-02   2.29906917E-07
  -1.75500009E-02   2.26881994E-07
  -1.75000001E-02   2.27472398E-07
  -1.74499992E-02   2.31573893E-07
  -1.74000002E-02   2.36191255E-07
  -1.73499994E-02   2.36713987E-07
  -1.73000004E-02   2.28961284E-07
  -1.72499996E-02   2.11055834E-07
  -1.72000006E-02   1.84269382E-07
  -1.71499997E-02   1.52431880E-07
  -1.71000008E-02   1.20163008E-07
  -1.70499999E-02   9.07212652E-08
  -1.70000009E-02   6.44432134E-08
  -1.69500001E-02   3.85016605E-08
  -1.68999992E-02   8.11878742E-09
  -1.68500002E-02  -3.12969419E-08
  -1.67999994E-02  -8.20710326E-08
  -1.67500004E-02  -1.43196644E-07
  -1.66999996E-02  -2.10776534E-07
  -1.66500006E-02  -2.79775008E-07
  -1.65999997E-02  -3.46297327E-07
  -1.65500008E-02  -4.09375417E-07
  -1.64999999E-02  -4.71429985E-07
  -1.64500009E-02  -5.37174458E-07
  -1.64000001E-02  -6.11453004E-07
  -1.63499992E-02  -6.96981317E-07
  -1.63000003E-02  -7.93038851E-07
  -1.62499994E-02  -8.95724497E-07
  -1.62000004E-02  -9.99661893E-07
  -1.61499996E-02  -1.10041049E-06
  -1.61000006E-02  -1.19644858E-06
  -1.60499997E-02  -1.28983413E-06
  -1.60000008E-02  -1.38526934E-06
  -1.59499999E-02  -1.48793902E-06
  -1.59000009E-02  -1.60107288E-06
  -1.58500001E-02  -1.72434943E-06
  -1.57999992E-02  -1.85391832E-06
  -1.57500003E-02  -1.98404200E-06
  -1.56999994E-02  -2.10963231E-06
  -1.56500004E-02  -2.22852032E-06
  -1.55999996E-02  -2.34237336E-06
  -1.55499997E-02  -2.45587239E-06
  -1.54999997E-02  -2.57458146E-06
  -1.54499998E-02  -2.70239707E-06
  -1.53999999E-02  -2.83964005E-06
  -1.53500000E-02  -2.98277405E-06
  -1.53000001E-02  -3.12589555E-06
  -1.52500002E-02  -3.26333952E-06
  -1.52000003E-02  -3.39223175E-06
  -1.51500003E-02  -3.51377184E-06
  -1.51000004E-02  -3.63268600E-06
  -1.50499996E-02  -3.75508216E-06
  -1.49999997E-02  -3.88567560E-06
  -1.49499997E-02  -4.02563001E-06
  -1.48999998E-02  -4.17198316E-06
  -1.48499999E-02  -4.31888657E-06
  -1.48000000E-02  -4.46017975E-06
  -1.47500001E-02  -4.59216380E-06
  -1.47000002E-02  -4.71533440E-06
  -1.46500003E-02  -4.83421127E-06
  -1.46000003E-02  -4.95536460E-06
  -1.45500004E-02  -5.08445692E-06
  -1.44999996E-02  -5.22364053E-06
  -1.44499997E-02  -5.37059032E-06
  -1.43999998E-02  -5.51958237E-06
  -1.43499998E-02  -5.66410245E-06
  -1.42999999E-02  -5.79980497E-06
  -1.42500000E-02  -5.92653123E-06
  -1.42000001E-02  -6.04848947E-06
  -1.41500002E-02  -6.17258820E-06
  -1.41000003E-02  -6.30536351E-06
  -1.40500003E-02  -6.45007367E-06
  -1.40000004E-02  -6.60531077E-06
  -1.39499996E-02  -6.76561513E-06
  -1.38999997E-02  -6.92405820E-06
  -1.38499998E-02  -7.07546405E-06
  -1.37999998E-02  -7.21886727E-06
  -1.37499999E-02  -7.35812137E-06
  -1.37000000E-02  -7.50040954E-06
  -1.36500001E-02  -7.65320783E-06
  -1.36000002E-02  -7.82091138E-06
  -1.35500003E-02  -8.00285670E-06
  -1.35000004E-02  -8.19380148E-06
  -1.34500004E-02  -8.38645610E-06
  -1.33999996E-02  -8.57459509E-06
  -1.33499997E-02  -8.75606929E-06
  -1.32999998E-02  -8.93408196E-06
  -1.32499998E-02  -9.11591997E-06
  -1.31999999E-02  -9.31003706E-06
  -1.31500000E-02  -9.52227401E-06
  -1.31000001E-02  -9.75318835E-06
  -1.30500002E-02  -9.99805616E-06
  -1.30000003E-02  -1.02490503E-05
  -1.29500004E-02  -1.04988221E-05
  -1.29000004E-02  -1.07440155E-05
  -1.28499996E-02  -1.09868379E-05
  -1.27999997E-02  -1.12341204E-05
  -1.27499998E-02  -1.14944633E-05
  -1.26999998E-02  -1.17748505E-05
  -1.26499999E-02  -1.20774012E-05
  -1.26000000E-02  -1.23981963E-05
  -1.25500001E-02  -1.27293069E-05
  -1.25000002E-02  -1.30624121E-05
  -1.24500003E-02  -1.33927524E-05
  -1.24000004E-02  -1.37214547E-05
  -1.23500004E-02  -1.40550046E-05
  -1.22999996E-02  -1.44025671E-05
  -1.22499997E-02  -1.47717692E-05
  -1.21999998E-02  -1.51651602E-05
  -1.21499998E-02  -1.55791895E-05
  -1.20999999E-02  -1.60057862E-05
  -1.20500000E-02  -1.64358862E-05
  -1.20000001E-02  -1.68634069E-05
  -1.19500002E-02  -1.72883265E-05
  -1.19000003E-02  -1.77172242E-05
  -1.18500004E-02  -1.81606283E-05
  -1.18000004E-02  -1.86284524E-05
  -1.17499996E-02  -1.91255331E-05
  -1.16999997E-02  -1.96495548E-05
  -1.16499998E-02  -2.01922339E-05
  -1.15999999E-02  -2.07428475E-05
  -1.15499999E-02  -2.12931136E-05
  -1.15000000E-02  -2.18406221E-05
  -1.14500001E-02  -2.23895149E-05
  -1.14000002E-02  -2.29489087E-05
  -1.13500003E-02  -2.35286570E-05
  -1.13000004E-02  -2.41349189E-05
  -1.12500004E-02  -2.47674197E-05
  -1.11999996E-02  -2.54192182E-05
  -1.11499997E-02  -2.60805609E-05
  -1.10999998E-02  -2.67439609E-05
  -1.10499999E-02  -2.74082031E-05
  -1.09999999E-02  -2.80789955E-05
  -1.09500000E-02  -2.87670100E-05
  -1.09000001E-02  -2.94839883E-05
  -1.08500002E-02  -3.02373955E-05
  -1.08000003E-02  -3.10273099E-05
  -1.07500004E-02  -3.18460479E-05
  -1.07000005E-02  -3.26809568E-05
  -1.06499996E-02  -3.35197874E-05
  -1.05999997E-02  -3.43566608E-05
  -1.05499998E-02  -3.51949566E-05
  -1.04999999E-02  -3.60450977E-05
  -1.04499999E-02  -3.69198278E-05
  -1.04000000E-02  -3.78289333E-05
  -1.03500001E-02  -3.87757864E-05
  -1.03000002E-02  -3.97567783E-05
  -1.02500003E-02  -4.07627849E-05
  -1.02000004E-02  -4.17833580E-05
  -1.01500005E-02  -4.28129060E-05
  -1.00999996E-02  -4.38543575E-05
  -1.00499997E-02  -4.49180152E-05
  -9.99999978E-03  -4.60178089E-05
  -9.94999986E-03  -4.71650383E-05
  -9.89999995E-03  -4.83626318E-05
  -9.85000003E-03  -4.96051980E-05
  -9.80000012E-03  -5.08828125E-05
  -9.75000020E-03  -5.21842376E-05
  -9.70000029E-03  -5.35020008E-05
  -9.65000037E-03  -5.48373355E-05
  -9.60000046E-03  -5.61996967E-05
  -9.54999961E-03  -5.76030761E-05
  -9.49999969E-03  -5.90607306E-05
  -9.44999978E-03  -6.05786336E-05
  -9.39999986E-03  -6.21525978E-05
  -9.34999995E-03  -6.37714402E-05
  -9.30000003E-03  -6.54217802E-05
  -9.25000012E-03  -6.70946320E-05
  -9.20000020E-03  -6.87901484E-05
  -9.15000029E-03  -7.05176353E-05
  -9.10000037E-03  -7.22923651E-05
  -9.05000046E-03  -7.41285985E-05
  -8.99999961E-03  -7.60345865E-05
  -8.94999970E-03  -7.80103946E-05
  -8.89999978E-03  -8.00479829E-05
  -8.84999987E-03  -8.21351423E-05
  -8.79999995E-03  -8.42616355E-05
  -8.75000004E-03  -8.64247777E-05
  -8.70000012E-03  -8.86319904E-05
  -8.65000021E-03  -9.08984221E-05
  -8.60000029E-03  -9.32397888E-05
  -8.55000038E-03  -9.56654767E-05
  -8.50000046E-03  -9.81734847E-05
  -8.44999962E-03  -1.00753023E-04
  -8.39999970E-03  -1.03391445E-04
  -8.34999979E-03  -1.06078696E-04
  -8.29999987E-03  -1.08811073E-04
  -8.24999996E-03  -1.11593283E-04
  -8.20000004E-03  -1.14438022E-04
  -8.15000013E-03  -1.17361145E-04
  -8.10000021E-03  -1.20372904E-04
  -8.05000030E-03  -1.23474718E-04
  -8.00000038E-03  -1.26658721E-04
  -7.95000046E-03  -1.29909735E-04
  -7.89999962E-03  -1.33215042E-04
  -7.84999970E-03  -1.36572300E-04
  -7.79999979E-03  -1.39987271E-04
  -7.74999987E-03  -1.43471974E-04
  -7.69999996E-03  -1.47043174E-04
  -7.65000004E-03  -1.50713851E-04
  -7.60000013E-03  -1.54488458E-04
  -7.55000021E-03  -1.58359588E-04
  -7.49999983E-03  -1.62312397E-04
  -7.44999992E-03  -1.66332684E-04
  -7.40000000E-03  -1.70414452E-04
  -7.35000009E-03  -1.74562520E-04
  -7.30000017E-03  -1.78789851E-04
  -7.24999979E-03  -1.83111144E-04
  -7.19999988E-03  -1.87536760E-04
  -7.14999996E-03  -1.92070787E-04
  -7.10000005E-03  -1.96708061E-04
  -7.05000013E-03  -2.01436269E-04
  -7.00000022E-03  -2.06241151E-04
  -6.94999984E-03  -2.11113555E-04
  -6.89999992E-03  -2.16053377E-04
  -6.85000001E-03  -2.21073497E-04
  -6.80000009E-03  -2.26192351E-04
  -6.75000018E-03  -2.31422833E-04
  -6.69999979E-03  -2.36768465E-04
  -6.64999988E-03  -2.42222959E-04
  -6.59999996E-03  -2.47775228E-04
  -6.55000005E-03  -2.53414182E-04
  -6.50000013E-03  -2.59131368E-04
  -6.45000022E-03  -2.64925882E-04
  -6.39999984E-03  -2.70811055E-04
  -6.34999992E-03  -2.76806939E-04
  -6.30000001E-03  -2.82926281E-04
  -6.25000009E-03  -2.89172312E-04
  -6.20000018E-03  -2.95542501E-04
  -6.14999980E-03  -3.02027824E-04
  -6.09999988E-03  -3.08612536E-04
  -6.04999997E-03  -3.15288897E-04
  -6.00000005E-03  -3.22058797E-04
  -5.95000014E-03  -3.28928436E-04
  -5.90000022E-03  -3.35912657E-04
  -5.84999984E-03  -3.43028776E-04
  -5.79999993E-03  -3.50287039E-04
  -5.75000001E-03  -3.57682235E-04
  -5.70000010E-03  -3.65196902E-04
  -5.65000018E-03  -3.72816139E-04
  -5.59999980E-03  -3.80533806E-04
  -5.54999989E-03  -3.88355751E-04
  -5.49999997E-03  -3.96293239E-04
  -5.45000006E-03  -4.04354418E-04
  -5.40000014E-03  -4.12552676E-04
  -5.35000023E-03  -4.20903554E-04
  -5.29999984E-03  -4.29411564E-04
  -5.24999993E-03  -4.38067509E-04
  -5.20000001E-03  -4.46856720E-04
  -5.15000010E-03  -4.55767702E-04
  -5.10000018E-03  -4.64798650E-04
  -5.04999980E-03  -4.73963621E-04
  -4.99999989E-03  -4.83280863E-04
  -4.94999997E-03  -4.92766383E-04
  -4.90000006E-03  -5.02427400E-04
  -4.85000014E-03  -5.12255647E-04
  -4.80000023E-03  -5.22237853E-04
  -4.74999985E-03  -5.32366161E-04
  -4.69999993E-03  -5.42642199E-04
  -4.65000002E-03  -5.53060498E-04
  -4.60000010E-03  -5.63619018E-04
  -4.55000019E-03  -5.74335165E-04
  -4.49999981E-03  -5.85234375E-04
  -4.44999989E-03  -5.96330152E-04
  -4.39999998E-03  -6.07616093E-04
  -4.35000006E-03  -6.19078870E-04
  -4.30000015E-03  -6.30703929E-04
  -4.25000023E-03  -6.42490166E-04
  -4.19999985E-03  -6.54446310E-04
  -4.14999994E-03  -6.66578184E-04
  -4.10000002E-03  -6.78895973E-04
  -4.05000011E-03  -6.91412657E-04
  -4.00000019E-03  -7.04141450E-04
  -3.94999981E-03  -7.17089395E-04
  -3.89999989E-03  -7.30253174E-04
  -3.84999998E-03  -7.43618468E-04
  -3.80000006E-03  -7.57165893E-04
  -3.74999992E-03  -7.70892075E-04
  -3.70000000E-03  -7.84819713E-04
  -3.65000009E-03  -7.98975641E-04
  -3.59999994E-03  -8.13369697E-04
  -3.55000002E-03  -8.27999786E-04
  -3.50000011E-03  -8.42861773E-04
  -3.44999996E-03  -8.57958163E-04
  -3.40000005E-03  -8.73277953E-04
  -3.34999990E-03  -8.88808339E-04
  -3.29999998E-03  -9.04544431E-04
  -3.25000007E-03  -9.20488557E-04
  -3.19999992E-03  -9.36663360E-04
  -3.15000000E-03  -9.53097071E-04
  -3.10000009E-03  -9.69802612E-04
  -3.04999994E-03  -9.86766536E-04
  -3.00000003E-03  -1.00398308E-03
  -2.95000011E-03  -1.02144619E-03
  -2.89999996E-03  -1.03914342E-03
  -2.85000005E-03  -1.05709105E-03
  -2.79999990E-03  -1.07530260E-03
  -2.74999999E-03  -1.09377969E-03
  -2.70000007E-03  -1.11253955E-03
  -2.64999992E-03  -1.13160745E-03
  -2.60000001E-03  -1.15099631E-03
  -2.55000009E-03  -1.17068400E-03
  -2.49999994E-03  -1.19063619E-03
  -2.45000003E-03  -1.21084321E-03
  -2.40000011E-03  -1.23131520E-03
  -2.34999997E-03  -1.25207868E-03
  -2.30000005E-03  -1.27313915E-03
  -2.24999990E-03  -1.29449926E-03
  -2.19999999E-03  -1.31616893E-03
  -2.15000007E-03  -1.33814965E-03
  -2.09999993E-03  -1.36045844E-03
  -2.05000001E-03  -1.38308248E-03
  -2.00000009E-03  -1.40598114E-03
  -1.94999995E-03  -1.42913882E-03
  -1.90000003E-03  -1.45258475E-03
  -1.85000000E-03  -1.47636654E-03
  -1.79999997E-03  -1.50051643E-03
  -1.75000005E-03  -1.52503641E-03
  -1.70000002E-03  -1.54989737E-03
  -1.64999999E-03  -1.57508440E-03
  -1.59999996E-03  -1.60059717E-03
  -1.55000004E-03  -1.62642053E-03
  -1.50000001E-03  -1.65255158E-03
  -1.44999998E-03  -1.67901046E-03
  -1.39999995E-03  -1.70581334E-03
  -1.35000004E-03  -1.73296058E-03
  -1.30000000E-03  -1.76048756E-03
  -1.24999997E-03  -1.78841839E-03
  -1.20000006E-03  -1.81670475E-03
  -1.15000003E-03  -1.84529589E-03
  -1.09999999E-03  -1.87417970E-03
  -1.04999996E-03  -1.90338911E-03
  -1.00000005E-03  -1.93295127E-03
  -9.50000016E-04  -1.96287781E-03
  -8.99999985E-04  -1.99315557E-03
  -8.50000011E-04  -2.02377583E-03
  -7.99999980E-04  -2.05479329E-03
  -7.50000007E-04  -2.08621402E-03
  -6.99999975E-04  -2.11798190E-03
  -6.50000002E-04  -2.15004920E-03
  -6.00000028E-04  -2.18239613E-03
  -5.49999997E-04  -2.21504830E-03
  -5.00000024E-04  -2.24808115E-03
  -4.49999992E-04  -2.28153425E-03
  -3.99999990E-04  -2.31537293E-03
  -3.49999988E-04  -2.34957761E-03
  -3.00000014E-04  -2.38413224E-03
  -2.50000012E-04  -2.41902354E-03
  -1.99999995E-04  -2.45428411E-03
  -1.50000007E-04  -2.48988974E-03
  -9.99999975E-05  -2.52576871E-03
  -4.99999987E-05  -2.56190193E-03
   0.00000000      -2.59837112E-03
   4.99999987E-05  -2.63530132E-03
   9.99999975E-05  -2.67268252E-03
   1.50000007E-04  -2.71038432E-03
   1.99999995E-04  -2.74829054E-03
   2.50000012E-04  -2.78641935E-03
   3.00000014E-04  -2.82488181E-03
   3.49999988E-04  -2.86370376E-03
   3.99999990E-04  -2.90282350E-03
   4.49999992E-04  -2.94220471E-03
   5.00000024E-04  -2.98187323E-03
   5.49999997E-04  -3.02190869E-03
   6.00000028E-04  -3.06234788E-03
   6.50000002E-04  -3.10311210E-03
   6.99999975E-04  -3.14410962E-03
   7.50000007E-04  -3.18530551E-03
   7.99999980E-04  -3.22675379E-03
   8.50000011E-04  -3.26852826E-03
   8.99999985E-04  -3.31061566E-03
   9.50000016E-04  -3.35297105E-03
   1.00000005E-03  -3.39560909E-03
   1.04999996E-03  -3.43859382E-03
   1.09999999E-03  -3.48187587E-03
   1.15000003E-03  -3.52532999E-03
   1.20000006E-03  -3.56891169E-03
   1.24999997E-03  -3.61269480E-03
   1.30000000E-03  -3.65673937E-03
   1.35000004E-03  -3.70102702E-03
   1.39999995E-03  -3.74555285E-03
   1.44999998E-03  -3.79032642E-03
   1.50000001E-03  -3.83534166E-03
   1.55000004E-03  -3.88056040E-03
   1.59999996E-03  -3.92594282E-03
   1.64999999E-03  -3.97144118E-03
   1.70000002E-03  -4.01710300E-03
   1.75000005E-03  -4.06297250E-03
   1.79999997E-03  -4.10903292E-03
   1.85000000E-03  -4.15532570E-03
   1.90000003E-03  -4.20184014E-03
   1.94999995E-03  -4.24852502E-03
   2.00000009E-03  -4.29535750E-03
   2.05000001E-03  -4.34232503E-03
   2.09999993E-03  -4.38937545E-03
   2.15000007E-03  -4.43649059E-03
   2.19999999E-03  -4.48371377E-03
   2.24999990E-03  -4.53107618E-03
   2.30000005E-03  -4.57857689E-03
   2.34999997E-03  -4.62627178E-03
   2.40000011E-03  -4.67416644E-03
   2.45000003E-03  -4.72209137E-03
   2.49999994E-03  -4.76994226E-03
   2.55000009E-03  -4.81783319E-03
   2.60000001E-03  -4.86590248E-03
   2.64999992E-03  -4.91409423E-03
   2.70000007E-03  -4.96223057E-03
   2.74999999E-03  -5.01030497E-03
   2.79999990E-03  -5.05852094E-03