  -3.99999991E-02   0.00000000    
  -3.99499983E-02   0.00000000    
  -3.99000011E-02   0.00000000    
  -3.98500003E-02   1.31936311E-18
  -3.97999994E-02   7.35421964E-18
  -3.97499986E-02   2.10265424E-17
  -3.97000015E-02   3.78942424E-17
  -3.96500006E-02   3.83353943E-17
  -3.95999998E-02  -1.37790092E-17
  -3.95499989E-02  -1.59754662E-16
  -3.95000018E-02  -4.23836334E-16
  -3.94500010E-02  -7.91522590E-16
  -3.94000001E-02  -1.20350465E-15
  -3.93499993E-02  -1.57381305E-15
  -3.92999984E-02  -1.82756210E-15
  -3.92500013E-02  -1.94158925E-15
  -3.92000005E-02  -1.96681770E-15
  -3.91499996E-02  -2.01672975E-15
  -3.90999988E-02  -2.22054325E-15
  -3.90500017E-02  -2.65795360E-15
  -3.90000008E-02  -3.30628469E-15
  -3.89500000E-02  -4.03078543E-15
  -3.88999991E-02  -4.63019846E-15
  -3.88499983E-02  -4.92010522E-15
  -3.88000011E-02  -4.81309405E-15
  -3.87500003E-02  -4.35305351E-15
  -3.86999995E-02  -3.68295262E-15
  -3.86499986E-02  -2.95886947E-15
  -3.86000015E-02  -2.25012397E-15
  -3.85500006E-02  -1.47386020E-15
  -3.84999998E-02  -3.99112766E-16
  -3.84499989E-02   1.27527555E-15
  -3.84000018E-02   3.80128354E-15
  -3.83500010E-02   7.27888869E-15
  -3.83000001E-02   1.16249411E-14
  -3.82499993E-02   1.66333977E-14
  -3.81999984E-02   2.20957286E-14
  -3.81500013E-02   2.79151312E-14
  -3.81000005E-02   3.41518839E-14
  -3.80499996E-02   4.09773364E-14
  -3.79999988E-02   4.85650135E-14
  -3.79500017E-02   5.69797979E-14
  -3.79000008E-02   6.61256260E-14
  -3.78500000E-02   7.57813002E-14
  -3.77999991E-02   8.57077403E-14
  -3.77499983E-02   9.57675711E-14
  -3.77000012E-02   1.05982036E-13
  -3.76500003E-02   1.16477290E-13
  -3.75999995E-02   1.27336401E-13
  -3.75499986E-02   1.38441138E-13
  -3.75000015E-02   1.49409876E-13
  -3.74500006E-02   1.59691284E-13
  -3.73999998E-02   1.68778809E-13
  -3.73499990E-02   1.76427896E-13
  -3.73000018E-02   1.82739972E-13
  -3.72500010E-02   1.88038726E-13
  -3.72000001E-02   1.92575136E-13
  -3.71499993E-02   1.96201752E-13
  -3.70999984E-02   1.98202850E-13
  -3.70500013E-02   1.97421411E-13
  -3.70000005E-02   1.92689221E-13
  -3.69499996E-02   1.83391686E-13
  -3.68999988E-02   1.69874897E-13
  -3.68500017E-02   1.53420367E-13
  -3.68000008E-02   1.35699665E-13
  -3.67500000E-02   1.17901010E-13
  -3.66999991E-02   9.99438230E-14
  -3.66499983E-02   8.02258989E-14
  -3.66000012E-02   5.61399851E-14
  -3.65500003E-02   2.52343854E-14
  -3.64999995E-02  -1.34587437E-14
  -3.64499986E-02  -5.85704309E-14
  -3.64000015E-02  -1.06534769E-13
  -3.63500006E-02  -1.52833326E-13
  -3.62999998E-02  -1.93916457E-13
  -3.62499990E-02  -2.28952138E-13
  -3.62000018E-02  -2.60493070E-13
  -3.61500010E-02  -2.93556764E-13
  -3.61000001E-02  -3.33345249E-13
  -3.60499993E-02  -3.82550437E-13
  -3.59999985E-02  -4.39524936E-13
  -3.59500013E-02  -4.98328971E-13
  -3.59000005E-02  -5.50867457E-13
  -3.58499996E-02  -5.90337458E-13
  -3.57999988E-02  -6.14473424E-13
  -3.57500017E-02  -6.26984738E-13
  -3.57000008E-02  -6.36254179E-13
  -3.56500000E-02  -6.51588538E-13
  -3.55999991E-02  -6.78559314E-13
  -3.55499983E-02  -7.15621627E-13
  -3.55000012E-02  -7.53841542E-13
  -3.54500003E-02  -7.80245985E-13
  -3.53999995E-02  -7.83582455E-13
  -3.53499986E-02  -7.59961050E-13
  -3.53000015E-02  -7.15629270E-13
  -3.52500007E-02  -6.65221567E-13
  -3.51999998E-02  -6.25823720E-13
  -3.51499990E-02  -6.09234776E-13
  -3.51000018E-02  -6.15937856E-13
  -3.50500010E-02  -6.33855869E-13
  -3.50000001E-02  -6.43008650E-13
  -3.49499993E-02  -6.24465540E-13
  -3.48999985E-02  -5.69740435E-13
  -3.48500013E-02  -4.86159453E-13
  -3.48000005E-02  -3.95217306E-13
  -3.47499996E-02  -3.24012491E-13
  -3.46999988E-02  -2.93172875E-13
  -3.46500017E-02  -3.06673957E-13
  -3.46000008E-02  -3.48554356E-13
  -3.45500000E-02  -3.88728194E-13
  -3.44999991E-02  -3.95997959E-13
  -3.44499983E-02  -3.52793261E-13
  -3.44000012E-02  -2.64835734E-13
  -3.43500003E-02  -1.60704715E-13
  -3.42999995E-02  -8.05979158E-14
  -3.42499986E-02  -5.86318646E-14
  -3.42000015E-02  -1.06460014E-13
  -3.41500007E-02  -2.06015137E-13
  -3.40999998E-02  -3.15516059E-13
  -3.40499990E-02  -3.86965769E-13
  -3.40000018E-02  -3.87832236E-13
  -3.39500010E-02  -3.17078422E-13
  -3.39000002E-02  -2.07598817E-13
  -3.38499993E-02  -1.12877779E-13
  -3.37999985E-02  -8.29099633E-14
  -3.37500013E-02  -1.39853678E-13
  -3.37000005E-02  -2.64822832E-13
  -3.36499996E-02  -4.02872858E-13
  -3.35999988E-02  -4.85228502E-13
  -3.35500017E-02  -4.59639488E-13
  -3.35000008E-02  -3.15271409E-13
  -3.34500000E-02  -9.01215680E-14
  -3.33999991E-02   1.43737940E-13
  -3.33499983E-02   3.11766346E-13
  -3.33000012E-02   3.71866464E-13
  -3.32500003E-02   3.36585225E-13
  -3.31999995E-02   2.71392744E-13
  -3.31499986E-02   2.68186759E-13
  -3.31000015E-02   4.04633927E-13
  -3.30500007E-02   7.07270451E-13
  -3.29999998E-02   1.13574319E-12
  -3.29499990E-02   1.59690338E-12
  -3.29000019E-02   1.98416695E-12
  -3.28500010E-02   2.22553226E-12
  -3.28000002E-02   2.31857047E-12
  -3.27499993E-02   2.33538254E-12
  -3.26999985E-02   2.39334572E-12
  -3.26500013E-02   2.60303107E-12
  -3.26000005E-02   3.01590068E-12
  -3.25499997E-02   3.59586991E-12
  -3.24999988E-02   4.22926104E-12
  -3.24500017E-02   4.77084865E-12
  -3.24000008E-02   5.10693397E-12
  -3.23500000E-02   5.20743951E-12
  -3.22999991E-02   5.14246761E-12
  -3.22499983E-02   5.05374171E-12
  -3.22000012E-02   5.09159295E-12
  -3.21500003E-02   5.34456724E-12
  -3.20999995E-02   5.79361992E-12
  -3.20499986E-02   6.31326501E-12
  -3.20000015E-02   6.72168397E-12
  -3.19500007E-02   6.85942796E-12
  -3.18999998E-02   6.66214219E-12
  -3.18499990E-02   6.19367274E-12
  -3.18000019E-02   5.62232249E-12
  -3.17500010E-02   5.14819394E-12
  -3.17000002E-02   4.91237910E-12
  -3.16499993E-02   4.92864343E-12
  -3.15999985E-02   5.06999998E-12
  -3.15500014E-02   5.11907140E-12
  -3.15000005E-02   4.86238307E-12
  -3.14499997E-02   4.18767321E-12
  -3.13999988E-02   3.13993232E-12
  -3.13500017E-02   1.90861996E-12
  -3.13000008E-02   7.48607665E-13
  -3.12500000E-02  -1.32226966E-13
  -3.11999992E-02  -6.69070051E-13
  -3.11500002E-02  -9.75337866E-13
  -3.10999993E-02  -1.29806658E-12
  -3.10500003E-02  -1.91012961E-12
  -3.09999995E-02  -2.98542549E-12
  -3.09500005E-02  -4.51305313E-12
  -3.08999997E-02  -6.29128780E-12
  -3.08500007E-02  -8.00772296E-12
  -3.07999998E-02  -9.37304401E-12
  -3.07500008E-02  -1.02501263E-11
  -3.07000000E-02  -1.07197393E-11
  -3.06499992E-02  -1.10504019E-11
  -3.06000002E-02  -1.15820305E-11
  -3.05499993E-02  -1.25724734E-11
  -3.05000003E-02  -1.40749088E-11
  -3.04499995E-02  -1.59028485E-11
  -3.04000005E-02  -1.77021731E-11
  -3.03499997E-02  -1.91019076E-11
  -3.03000007E-02  -1.98786855E-11
  -3.02499998E-02  -2.00610206E-11
  -3.02000009E-02  -1.99238195E-11
  -3.01500000E-02  -1.98713251E-11
  -3.00999992E-02  -2.02570582E-11
  -3.00500002E-02  -2.12197187E-11
  -2.99999993E-02  -2.26098185E-11
  -2.99500003E-02  -2.40436889E-11
  -2.98999995E-02  -2.50653456E-11
  -2.98500005E-02  -2.53472816E-11
  -2.97999997E-02  -2.48411049E-11
  -2.97500007E-02  -2.38082470E-11
  -2.96999998E-02  -2.27124708E-11
  -2.96500009E-02  -2.20175701E-11
  -2.96000000E-02  -2.19779802E-11
  -2.95499992E-02  -2.25164748E-11
  -2.95000002E-02  -2.32471264E-11
  -2.94499993E-02  -2.36384367E-11
  -2.94000003E-02  -2.32480962E-11
  -2.93499995E-02  -2.19261987E-11
  -2.93000005E-02  -1.98943119E-11
  -2.92499997E-02  -1.76604408E-11
  -2.92000007E-02  -1.58023612E-11
  -2.91499998E-02  -1.47120979E-11
  -2.91000009E-02  -1.44150334E-11
  -2.90500000E-02  -1.45474691E-11
  -2.89999992E-02  -1.45081724E-11
  -2.89500002E-02  -1.37217772E-11
  -2.88999993E-02  -1.18996254E-11
  -2.88500004E-02  -9.18093119E-12
  -2.87999995E-02  -6.08710174E-12
  -2.87500005E-02  -3.30363688E-12
  -2.86999997E-02  -1.38184657E-12
  -2.86500007E-02  -4.91484891E-13
  -2.85999998E-02  -3.36673126E-13
  -2.85500009E-02  -2.77913597E-13
  -2.85000000E-02   3.88095345E-13
  -2.84499992E-02   2.11129031E-12
  -2.84000002E-02   4.87466100E-12
  -2.83499993E-02   8.18317983E-12
  -2.83000004E-02   1.12664652E-11
  -2.82499995E-02   1.34109755E-11
  -2.82000005E-02   1.42770309E-11
  -2.81499997E-02   1.40583526E-11
  -2.81000007E-02   1.34081227E-11
  -2.80499998E-02   1.31577830E-11
  -2.80000009E-02   1.39482453E-11
  -2.79500000E-02   1.59358568E-11
  -2.78999992E-02   1.87067445E-11
  -2.78500002E-02   2.14437686E-11
  -2.77999993E-02   2.32788181E-11
  -2.77500004E-02   2.36781948E-11
  -2.76999995E-02   2.26898274E-11
  -2.76500005E-02   2.09379424E-11
  -2.75999997E-02   1.93605201E-11
  -2.75500007E-02   1.87996858E-11
  -2.74999999E-02   1.96240350E-11
  -2.74500009E-02   2.15525185E-11
  -2.74000000E-02   2.37641417E-11
  -2.73499992E-02   2.52524043E-11
  -2.73000002E-02   2.52729990E-11
  -2.72499993E-02   2.36877237E-11
  -2.72000004E-02   2.10481545E-11
  -2.71499995E-02   1.83750324E-11
  -2.71000005E-02   1.67233345E-11
  -2.70499997E-02   1.67213812E-11
  -2.70000007E-02   1.82884246E-11
  -2.69499999E-02   2.06613251E-11
  -2.69000009E-02   2.27259322E-11
  -2.68500000E-02   2.35134030E-11
  -2.67999992E-02   2.26441591E-11
  -2.67500002E-02   2.05206199E-11
  -2.66999993E-02   1.81765141E-11
  -2.66500004E-02   1.68413946E-11
  -2.65999995E-02   1.74073048E-11
  -2.65500005E-02   2.00321877E-11
  -2.64999997E-02   2.40603995E-11
  -2.64500007E-02   2.83025200E-11
  -2.63999999E-02   3.15585960E-11
  -2.63500009E-02   3.31577231E-11
  -2.63000000E-02   3.32738975E-11
  -2.62499992E-02   3.28726456E-11
  -2.62000002E-02   3.33035474E-11
  -2.61499994E-02   3.57120028E-11
  -2.61000004E-02   4.05271129E-11
  -2.60499995E-02   4.72554045E-11
  -2.60000005E-02   5.46783660E-11
  -2.59499997E-02   6.13748011E-11
  -2.59000007E-02   6.63419042E-11
  -2.58499999E-02   6.94419869E-11
  -2.58000009E-02   7.14721476E-11
  -2.57500000E-02   7.38169664E-11
  -2.56999992E-02   7.78309847E-11
  -2.56500002E-02   8.42188264E-11
  -2.55999994E-02   9.26882807E-11
  -2.55500004E-02   1.02036796E-10
  -2.54999995E-02   1.10641135E-10
  -2.54500005E-02   1.17141005E-10
  -2.53999997E-02   1.21017987E-10
  -2.53500007E-02   1.22809776E-10
  -2.52999999E-02   1.23858701E-10
  -2.52500009E-02   1.25695745E-10
  -2.52000000E-02   1.29327424E-10
  -2.51499992E-02   1.34738928E-10
  -2.51000002E-02   1.40838563E-10
  -2.50499994E-02   1.45875423E-10
  -2.50000004E-02   1.48154711E-10
  -2.49499995E-02   1.46739190E-10
  -2.49000005E-02   1.41824330E-10
  -2.48499997E-02   1.34617498E-10
  -2.48000007E-02   1.26764335E-10
  -2.47499999E-02   1.19570201E-10
  -2.47000009E-02   1.13355436E-10
  -2.46500000E-02   1.07235734E-10
  -2.45999992E-02   9.94284863E-11
  -2.45500002E-02   8.79608539E-11
  -2.44999994E-02   7.14724668E-11
  -2.44500004E-02   4.97585376E-11
  -2.43999995E-02   2.38112394E-11
  -2.43500005E-02  -4.66792924E-12
  -2.42999997E-02  -3.40766582E-11
  -2.42500007E-02  -6.36880063E-11
  -2.41999999E-02  -9.40521896E-11
  -2.41500009E-02  -1.26839483E-10
  -2.41000000E-02  -1.64186081E-10
  -2.40499992E-02  -2.07824993E-10
  -2.40000002E-02  -2.58382288E-10
  -2.39499994E-02  -3.15152460E-10
  -2.39000004E-02  -3.76457227E-10
  -2.38499995E-02  -4.40437603E-10
  -2.38000005E-02  -5.05937070E-10
  -2.37499997E-02  -5.73084746E-10
  -2.37000007E-02  -6.43319176E-10
  -2.36499999E-02  -7.18832827E-10
  -2.36000009E-02  -8.01676392E-10
  -2.35500000E-02  -8.92912466E-10
  -2.34999992E-02  -9.92190552E-10
  -2.34500002E-02  -1.09793774E-09
  -2.33999994E-02  -1.20808841E-09
  -2.33500004E-02  -1.32103417E-09
  -2.32999995E-02  -1.43638457E-09
  -2.32500006E-02  -1.55519653E-09
  -2.31999997E-02  -1.67956948E-09
  -2.31500007E-02  -1.81177362E-09
  -2.30999999E-02  -1.95329264E-09
  -2.30500009E-02  -2.10419859E-09
  -2.30000000E-02  -2.26313990E-09
  -2.29499992E-02  -2.42794806E-09
  -2.29000002E-02  -2.59661115E-09
  -2.28499994E-02  -2.76818546E-09
  -2.28000004E-02  -2.94324520E-09
  -2.27499995E-02  -3.12367021E-09
  -2.27000006E-02  -3.31186056E-09
  -2.26499997E-02  -3.50970897E-09
  -2.26000007E-02  -3.71778852E-09
  -2.25499999E-02  -3.93511135E-09
  -2.25000009E-02  -4.15956203E-09
  -2.24500000E-02  -4.38883108E-09
  -2.23999992E-02  -4.62144145E-09
  -2.23500002E-02  -4.85741314E-09
  -2.22999994E-02  -5.09828313E-09
  -2.22500004E-02  -5.34645972E-09
  -2.21999995E-02  -5.60418911E-09
  -2.21500006E-02  -5.87259175E-09
  -2.20999997E-02  -6.15117690E-09
  -2.20500007E-02  -6.43806297E-09
  -2.19999999E-02  -6.73080702E-09
  -2.19500009E-02  -7.02749148E-09
  -2.19000001E-02  -7.32758565E-09
  -2.18499992E-02  -7.63221664E-09
  -2.18000002E-02  -7.94371857E-09
  -2.17499994E-02  -8.26465918E-09
  -2.17000004E-02  -8.59675886E-09
  -2.16499995E-02  -8.94017305E-09
  -2.16000006E-02  -9.29346289E-09
  -2.15499997E-02  -9.65425961E-09
  -2.15000007E-02  -1.00203383E-08
  -2.14499999E-02  -1.03906510E-08
  -2.14000009E-02  -1.07658504E-08
  -2.13500001E-02  -1.11480922E-08
  -2.12999992E-02  -1.15401750E-08
  -2.12500002E-02  -1.19444126E-08
  -2.11999994E-02  -1.23617108E-08
  -2.11500004E-02  -1.27912552E-08
  -2.10999995E-02  -1.32309550E-08
  -2.10500006E-02  -1.36784459E-08
  -2.09999997E-02  -1.41322252E-08
  -2.09500007E-02  -1.45924339E-08
  -2.08999999E-02  -1.50609285E-08
  -2.08500009E-02  -1.55406248E-08
  -2.08000001E-02  -1.60343916E-08
  -2.07499992E-02  -1.65439502E-08
  -2.07000002E-02  -1.70692847E-08
  -2.06499994E-02  -1.76088015E-08
  -2.06000004E-02  -1.81601880E-08
  -2.05499995E-02  -1.87215736E-08
  -2.05000006E-02  -1.92925445E-08
  -2.04499997E-02  -1.98745127E-08
  -2.04000007E-02  -2.04703152E-08
  -2.03499999E-02  -2.10832081E-08
  -2.03000009E-02  -2.17156586E-08
  -2.02500001E-02  -2.23685053E-08
  -2.01999992E-02  -2.30408119E-08
  -2.01500002E-02  -2.37304789E-08
  -2.00999994E-02  -2.44353977E-08
  -2.00500004E-02  -2.51545842E-08
  -1.99999996E-02  -2.58888875E-08
  -1.99500006E-02  -2.66408726E-08
  -1.98999997E-02  -2.74140017E-08
  -1.98500007E-02  -2.82113977E-08
  -1.97999999E-02  -2.90347959E-08
  -1.97500009E-02  -2.98840384E-08
  -1.97000001E-02  -3.07574268E-08
  -1.96499992E-02  -3.16527249E-08
  -1.96000002E-02  -3.25684368E-08
  -1.95499994E-02  -3.35047261E-08
  -1.95000004E-02  -3.44636923E-08
  -1.94499996E-02  -3.54487604E-08
  -1.94000006E-02  -3.64635540E-08
  -1.93499997E-02  -3.75106453E-08
  -1.93000007E-02  -3.85907661E-08
  -1.92499999E-02  -3.97027762E-08
  -1.92000009E-02  -4.08445082E-08
  -1.91500001E-02  -4.20140118E-08
  -1.90999992E-02  -4.32107328E-08
  -1.90500002E-02  -4.44361241E-08
  -1.89999994E-02  -4.56933904E-08
  -1.89500004E-02  -4.69864894E-08
  -1.88999996E-02  -4.83187854E-08
  -1.88500006E-02  -4.96919732E-08
  -1.87999997E-02  -5.11057152E-08
  -1.87500007E-02  -5.25581356E-08
  -1.86999999E-02  -5.40469998E-08
  -1.86500009E-02  -5.55710677E-08
  -1.86000001E-02  -5.71310288E-08
  -1.85499992E-02  -5.87296363E-08
  -1.85000002E-02  -6.03709509E-08
  -1.84499994E-02  -6.20590299E-08
  -1.84000004E-02  -6.37965769E-08
  -1.83499996E-02  -6.55842030E-08
  -1.83000006E-02  -6.74206220E-08
  -1.82499997E-02  -6.93035460E-08
  -1.82000007E-02  -7.12311703E-08
  -1.81499999E-02  -7.32034096E-08
  -1.81000009E-02  -7.52224310E-08
  -1.80500001E-02  -7.72922277E-08
  -1.79999992E-02  -7.94173900E-08
  -1.79500002E-02  -8.16016836E-08
  -1.78999994E-02  -8.38468921E-08
  -1.78500004E-02  -8.61525535E-08
  -1.77999996E-02  -8.85166926E-08
  -1.77500006E-02  -9.09371920E-08
  -1.76999997E-02  -9.34132700E-08
  -1.76500008E-02  -9.59464472E-08
  -1.75999999E-02  -9.85404611E-08
  -1.75500009E-02  -1.01200378E-07
  -1.75000001E-02  -1.03930951E-07
  -1.74499992E-02  -1.06735285E-07
  -1.74000002E-02  -1.09614085E-07
  -1.73499994E-02  -1.12565985E-07
  -1.73000004E-02  -1.15588840E-07
  -1.72499996E-02  -1.18681257E-07
  -1.72000006E-02  -1.21844081E-07
  -1.71499997E-02  -1.25080746E-07
  -1.71000008E-02  -1.28396564E-07
  -1.70499999E-02  -1.31797322E-07
  -1.70000009E-02  -1.35287578E-07
  -1.69500001E-02  -1.38869439E-07
  -1.68999992E-02  -1.42542575E-07
  -1.68500002E-02  -1.46305112E-07
  -1.67999994E-02  -1.50155444E-07
  -1.67500004E-02  -1.54093769E-07
  -1.66999996E-02  -1.58123001E-07
  -1.66500006E-02  -1.62248625E-07
  -1.65999997E-02  -1.66477207E-07
  -1.65500008E-02  -1.70814744E-07
  -1.64999999E-02  -1.75265015E-07
  -1.64500009E-02  -1.79828973E-07
  -1.64000001E-02  -1.84505495E-07
  -1.63499992E-02  -1.89292820E-07
  -1.63000003E-02  -1.94190662E-07
  -1.62499994E-02  -1.99201352E-07
  -1.62000004E-02  -2.04330206E-07
  -1.61499996E-02  -2.09584485E-07
  -1.61000006E-02  -2.14971507E-07
  -1.60499997E-02  -2.20496830E-07
  -1.60000008E-02  -2.26163010E-07
  -1.59499999E-02  -2.31969963E-07
  -1.59000009E-02  -2.37916140E-07
  -1.58500001E-02  -2.44000773E-07
  -1.57999992E-02  -2.50225582E-07
  -1.57500003E-02  -2.56595541E-07
  -1.56999994E-02  -2.63118267E-07
  -1.56500004E-02  -2.69802229E-07
  -1.55999996E-02  -2.76654703E-07
  -1.55499997E-02  -2.83680009E-07
  -1.54999997E-02  -2.90879285E-07
  -1.54499998E-02  -2.98251507E-07
  -1.53999999E-02  -3.05795510E-07
  -1.53500000E-02  -3.13512317E-07
  -1.53000001E-02  -3.21406418E-07
  -1.52500002E-02  -3.29485459E-07
  -1.52000003E-02  -3.37758905E-07
  -1.51500003E-02  -3.46235623E-07
  -1.51000004E-02  -3.54921809E-07
  -1.50499996E-02  -3.63820050E-07
  -1.49999997E-02  -3.72930032E-07
  -1.49499997E-02  -3.82250505E-07
  -1.48999998E-02  -3.91781754E-07
  -1.48499999E-02  -4.01527558E-07
  -1.48000000E-02  -4.11495364E-07
  -1.47500001E-02  -4.21695290E-07
  -1.47000002E-02  -4.32137512E-07
  -1.46500003E-02  -4.42830043E-07
  -1.46000003E-02  -4.53777176E-07
  -1.45500004E-02  -4.64979706E-07
  -1.44999996E-02  -4.76436583E-07
  -1.44499997E-02  -4.88147407E-07
  -1.43999998E-02  -5.00115220E-07
  -1.43499998E-02  -5.12347071E-07
  -1.42999999E-02  -5.24853135E-07
  -1.42500000E-02  -5.37644951E-07
  -1.42000001E-02  -5.50732182E-07
  -1.41500002E-02  -5.64121081E-07
  -1.41000003E-02  -5.77813751E-07
  -1.40500003E-02  -5.91809680E-07
  -1.40000004E-02  -6.06108301E-07
  -1.39499996E-02  -6.20711546E-07
  -1.38999997E-02  -6.35625838E-07
  -1.38499998E-02  -6.50861409E-07
  -1.37999998E-02  -6.66430708E-07
  -1.37499999E-02  -6.82345217E-07
  -1.37000000E-02  -6.98612894E-07
  -1.36500001E-02  -7.15237718E-07
  -1.36000002E-02  -7.32219860E-07
  -1.35500003E-02  -7.49558694E-07
  -1.35000004E-02  -7.67255415E-07
  -1.34500004E-02  -7.85315649E-07
  -1.33999996E-02  -8.03749344E-07
  -1.33499997E-02  -8.22569746E-07
  -1.32999998E-02  -8.41789927E-07
  -1.32499998E-02  -8.61420119E-07
  -1.31999999E-02  -8.81465780E-07
  -1.31500000E-02  -9.01928388E-07
  -1.31000001E-02  -9.22807601E-07
  -1.30500002E-02  -9.44104158E-07
  -1.30000003E-02  -9.65822665E-07
  -1.29500004E-02  -9.87972840E-07
  -1.29000004E-02  -1.01056844E-06
  -1.28499996E-02  -1.03362390E-06
  -1.27999997E-02  -1.05715151E-06
  -1.27499998E-02  -1.08115910E-06
  -1.26999998E-02  -1.10564963E-06
  -1.26499999E-02  -1.13062310E-06
  -1.26000000E-02  -1.15608009E-06
  -1.25500001E-02  -1.18202456E-06
  -1.25000002E-02  -1.20846585E-06
  -1.24500003E-02  -1.23541770E-06
  -1.24000004E-02  -1.26289592E-06
  -1.23500004E-02  -1.29091461E-06
  -1.22999996E-02  -1.31948366E-06
  -1.22499997E-02  -1.34860818E-06
  -1.21999998E-02  -1.37828931E-06
  -1.21499998E-02  -1.40852762E-06
  -1.20999999E-02  -1.43932675E-06
  -1.20500000E-02  -1.47069534E-06
  -1.20000001E-02  -1.50264748E-06
  -1.19500002E-02  -1.53519954E-06
  -1.19000003E-02  -1.56836779E-06
  -1.18500004E-02  -1.60216473E-06
  -1.18000004E-02  -1.63659718E-06
  -1.17499996E-02  -1.67166706E-06
  -1.16999997E-02  -1.70737565E-06
  -1.16499998E-02  -1.74372565E-06
  -1.15999999E-02  -1.78072469E-06
  -1.15499999E-02  -1.81838686E-06
  -1.15000000E-02  -1.85672957E-06
  -1.14500001E-02  -1.89577077E-06
  -1.14000002E-02  -1.93552501E-06
  -1.13500003E-02  -1.97600161E-06
  -1.13000004E-02  -2.01720468E-06
  -1.12500004E-02  -2.05913625E-06
  -1.11999996E-02  -2.10179837E-06
  -1.11499997E-02  -2.14519810E-06
  -1.10999998E-02  -2.18934929E-06
  -1.10499999E-02  -2.23426923E-06
  -1.09999999E-02  -2.27997725E-06
  -1.09500000E-02  -2.32648995E-06
  -1.09000001E-02  -2.37381801E-06
  -1.08500002E-02  -2.42196757E-06
  -1.08000003E-02  -2.47094022E-06
  -1.07500004E-02  -2.52073846E-06
  -1.07000005E-02  -2.57136867E-06
  -1.06499996E-02  -2.62284311E-06
  -1.05999997E-02  -2.67517953E-06
  -1.05499998E-02  -2.72839839E-06
  -1.04999999E-02  -2.78251810E-06
  -1.04499999E-02  -2.83755253E-06
  -1.04000000E-02  -2.89350896E-06
  -1.03500001E-02  -2.95039035E-06
  -1.03000002E-02  -3.00819920E-06
  -1.02500003E-02  -3.06694028E-06
  -1.02000004E-02  -3.12662542E-06
  -1.01500005E-02  -3.18727211E-06
  -1.00999996E-02  -3.24890038E-06
  -1.00499997E-02  -3.31153046E-06
  -9.99999978E-03  -3.37517736E-06
  -9.94999986E-03  -3.43984993E-06
  -9.89999995E-03  -3.50555274E-06
  -9.85000003E-03  -3.57228737E-06
  -9.80000012E-03  -3.64005746E-06
  -9.75000020E-03  -3.70887369E-06
  -9.70000029E-03  -3.77875131E-06
  -9.65000037E-03  -3.84971145E-06
  -9.60000046E-03  -3.92177435E-06
  -9.54999961E-03  -3.99495730E-06
  -9.49999969E-03  -4.06926983E-06
  -9.44999978E-03  -4.14471833E-06
  -9.39999986E-03  -4.22130279E-06
  -9.34999995E-03  -4.29902866E-06
  -9.30000003E-03  -4.37790231E-06
  -9.25000012E-03  -4.45793967E-06
  -9.20000020E-03  -4.53916118E-06
  -9.15000029E-03  -4.62158823E-06
  -9.10000037E-03  -4.70523855E-06
  -9.05000046E-03  -4.79012351E-06
  -8.99999961E-03  -4.87624766E-06
  -8.94999970E-03  -4.96361190E-06
  -8.89999978E-03  -5.05221851E-06
  -8.84999987E-03  -5.14207341E-06
  -8.79999995E-03  -5.23318931E-06
  -8.75000004E-03  -5.32558488E-06
  -8.70000012E-03  -5.41928193E-06
  -8.65000021E-03  -5.51429912E-06
  -8.60000029E-03  -5.61064644E-06
  -8.55000038E-03  -5.70832981E-06
  -8.50000046E-03  -5.80734832E-06
  -8.44999962E-03  -5.90770242E-06
  -8.39999970E-03  -6.00939620E-06
  -8.34999979E-03  -6.11244150E-06
  -8.29999987E-03  -6.21685422E-06
  -8.24999996E-03  -6.32265483E-06
  -8.20000004E-03  -6.42986060E-06
  -8.15000013E-03  -6.53848429E-06
  -8.10000021E-03  -6.64853133E-06
  -8.05000030E-03  -6.75999991E-06
  -8.00000038E-03  -6.87288821E-06
  -7.95000046E-03  -6.98719714E-06
  -7.89999962E-03  -7.10293443E-06
  -7.84999970E-03  -7.22011237E-06
  -7.79999979E-03  -7.33875004E-06
  -7.74999987E-03  -7.45886382E-06
  -7.69999996E-03  -7.58046463E-06
  -7.65000004E-03  -7.70355655E-06
  -7.60000013E-03  -7.82813731E-06
  -7.55000021E-03  -7.95420146E-06
  -7.49999983E-03  -8.08174536E-06
  -7.44999992E-03  -8.21077083E-06
  -7.40000000E-03  -8.34128696E-06
  -7.35000009E-03  -8.47331194E-06
  -7.30000017E-03  -8.60685941E-06
  -7.24999979E-03  -8.74193938E-06
  -7.19999988E-03  -8.87855549E-06
  -7.14999996E-03  -9.01670137E-06
  -7.10000005E-03  -9.15636610E-06
  -7.05000013E-03  -9.29754515E-06
  -7.00000022E-03  -9.44023486E-06
  -6.94999984E-03  -9.58443889E-06
  -6.89999992E-03  -9.73016813E-06
  -6.85000001E-03  -9.87743533E-06
  -6.80000009E-03  -1.00262487E-05
  -6.75000018E-03  -1.01766091E-05
  -6.69999979E-03  -1.03285065E-05
  -6.64999988E-03  -1.04819301E-05
  -6.59999996E-03  -1.06368643E-05
  -6.55000005E-03  -1.07933001E-05
  -6.50000013E-03  -1.09512348E-05
  -6.45000022E-03  -1.11106738E-05
  -6.39999984E-03  -1.12716234E-05
  -6.34999992E-03  -1.14340901E-05
  -6.30000001E-03  -1.15980720E-05
  -6.25000009E-03  -1.17635545E-05
  -6.20000018E-03  -1.19305187E-05
  -6.14999980E-03  -1.20989444E-05
  -6.09999988E-03  -1.22688143E-05
  -6.04999997E-03  -1.24401176E-05
  -6.00000005E-03  -1.26128562E-05
  -5.95000014E-03  -1.27870298E-05
  -5.90000022E-03  -1.29626396E-05
  -5.84999984E-03  -1.31396764E-05
  -5.79999993E-03  -1.33181247E-05
  -5.75000001E-03  -1.34979573E-05
  -5.70000010E-03  -1.36791487E-05
  -5.65000018E-03  -1.38616715E-05
  -5.59999980E-03  -1.40455086E-05
  -5.54999989E-03  -1.42306508E-05
  -5.49999997E-03  -1.44170908E-05
  -5.45000006E-03  -1.46048224E-05
  -5.40000014E-03  -1.47938326E-05
  -5.35000023E-03  -1.49840980E-05
  -5.29999984E-03  -1.51755848E-05
  -5.24999993E-03  -1.53682577E-05
  -5.20000001E-03  -1.55620837E-05
  -5.15000010E-03  -1.57570303E-05
  -5.10000018E-03  -1.59530773E-05
  -5.04999980E-03  -1.61502139E-05
  -4.99999989E-03  -1.63484201E-05
  -4.94999997E-03  -1.65476813E-05
  -4.90000006E-03  -1.67479629E-05
  -4.85000014E-03  -1.69492287E-05
  -4.80000023E-03  -1.71514312E-05
  -4.74999985E-03  -1.73545268E-05
  -4.69999993E-03  -1.75584737E-05
  -4.65000002E-03  -1.77632428E-05
  -4.60000010E-03  -1.79688068E-05
  -4.55000019E-03  -1.81751402E-05
  -4.49999981E-03  -1.83822140E-05
  -4.44999989E-03  -1.85899898E-05
  -4.39999998E-03  -1.87984224E-05
  -4.35000006E-03  -1.90074570E-05
  -4.30000015E-03  -1.92170337E-05
  -4.25000023E-03  -1.94270979E-05
  -4.19999985E-03  -1.96376059E-05
  -4.14999994E-03  -1.98485195E-05
  -4.10000002E-03  -2.00598042E-05
  -4.05000011E-03  -2.02714200E-05
  -4.00000019E-03  -2.04833195E-05
  -3.94999981E-03  -2.06954464E-05
  -3.89999989E-03  -2.09077298E-05
  -3.84999998E-03  -2.11201004E-05
  -3.80000006E-03  -2.13324911E-05
  -3.74999992E-03  -2.15448435E-05
  -3.70000000E-03  -2.17571069E-05
  -3.65000009E-03  -2.19692356E-05
  -3.59999994E-03  -2.21811770E-05
  -3.55000002E-03  -2.23928728E-05
  -3.50000011E-03  -2.26042521E-05
  -3.44999996E-03  -2.28152348E-05
  -3.40000005E-03  -2.30257410E-05
  -3.34999990E-03  -2.32356888E-05
  -3.29999998E-03  -2.34450017E-05
  -3.25000007E-03  -2.36536143E-05
  -3.19999992E-03  -2.38614630E-05
  -3.15000000E-03  -2.40684785E-05
  -3.10000009E-03  -2.42745955E-05
  -3.04999994E-03  -2.44797302E-05
  -3.00000003E-03  -2.46837917E-05
  -2.95000011E-03  -2.48866818E-05
  -2.89999996E-03  -2.50883022E-05
  -2.85000005E-03  -2.52885584E-05
  -2.79999990E-03  -2.54873648E-05
  -2.74999999E-03  -2.56846452E-05
  -2.70000007E-03  -2.58803193E-05
  -2.64999992E-03  -2.60743054E-05
  -2.60000001E-03  -2.62665108E-05
  -2.55000009E-03  -2.64568298E-05
  -2.49999994E-03  -2.66451461E-05
  -2.45000003E-03  -2.68313433E-05
  -2.40000011E-03  -2.70153087E-05
  -2.34999997E-03  -2.71969420E-05
  -2.30000005E-03  -2.73761452E-05
  -2.24999990E-03  -2.75528309E-05
  -2.19999999E-03  -2.77269010E-05
  -2.15000007E-03  -2.78982461E-05
  -2.09999993E-03  -2.80667500E-05
  -2.05000001E-03  -2.82322781E-05
  -2.00000009E-03  -2.83946938E-05
  -1.94999995E-03  -2.85538626E-05
  -1.90000003E-03  -2.87096609E-05
  -1.85000000E-03  -2.88619758E-05
  -1.79999997E-03  -2.90107018E-05
  -1.75000005E-03  -2.91557280E-05
  -1.70000002E-03  -2.92969289E-05
  -1.64999999E-03  -2.94341680E-05
  -1.59999996E-03  -2.95672962E-05
  -1.55000004E-03  -2.96961607E-05
  -1.50000001E-03  -2.98206105E-05
  -1.44999998E-03  -2.99404983E-05
  -1.39999995E-03  -3.00556931E-05
  -1.35000004E-03  -3.01660693E-05
  -1.30000000E-03  -3.02714980E-05
  -1.24999997E-03  -3.03718480E-05
  -1.20000006E-03  -3.04669647E-05
  -1.15000003E-03  -3.05566864E-05
  -1.09999999E-03  -3.06408365E-05
  -1.04999996E-03  -3.07192495E-05
  -1.00000005E-03  -3.07917544E-05
  -9.50000016E-04  -3.08582021E-05
  -8.99999985E-04  -3.09184397E-05
  -8.50000011E-04  -3.09723291E-05
  -7.99999980E-04  -3.10197138E-05
  -7.50000007E-04  -3.10604228E-05
  -6.99999975E-04  -3.10942851E-05
  -6.50000002E-04  -3.11211079E-05
  -6.00000028E-04  -3.11407020E-05
  -5.49999997E-04  -3.11528747E-05
  -5.00000024E-04  -3.11574622E-05
  -4.49999992E-04  -3.11542899E-05
  -3.99999990E-04  -3.11431977E-05
  -3.49999988E-04  -3.11240146E-05
  -3.00000014E-04  -3.10965661E-05
  -2.50000012E-04  -3.10606556E-05
  -1.99999995E-04  -3.10160904E-05
  -1.50000007E-04  -3.09626485E-05
  -9.99999975E-05  -3.09001261E-05
  -4.99999987E-05  -3.08283270E-05
   0.00000000      -3.07470727E-05
   4.99999987E-05  -3.06561815E-05
   9.99999975E-05  -3.05554640E-05
   1.50000007E-04  -3.04447331E-05
   1.99999995E-04  -3.03237812E-05
   2.50000012E-04  -3.01923938E-05
   3.00000014E-04  -3.00503416E-05
   3.49999988E-04  -2.98974028E-05
   3.99999990E-04  -2.97333572E-05
   4.49999992E-04  -2.95579957E-05
   5.00000024E-04  -2.93711273E-05
   5.49999997E-04  -2.91725573E-05
   6.00000028E-04  -2.89620803E-05
   6.50000002E-04  -2.87394851E-05
   6.99999975E-04  -2.85045353E-05
   7.50000007E-04  -2.82569908E-05
   7.99999980E-04  -2.79966098E-05
   8.50000011E-04  -2.77231575E-05
   8.99999985E-04  -2.74364120E-05
   9.50000016E-04  -2.71361641E-05
   1.00000005E-03  -2.68222084E-05
   1.04999996E-03  -2.64943301E-05
   1.09999999E-03  -2.61523110E-05
   1.15000003E-03  -2.57959036E-05
   1.20000006E-03  -2.54248589E-05
   1.24999997E-03  -2.50389221E-05
   1.30000000E-03  -2.46378459E-05
   1.35000004E-03  -2.42213864E-05
   1.39999995E-03  -2.37893237E-05
   1.44999998E-03  -2.33414430E-05
   1.50000001E-03  -2.28775261E-05
   1.55000004E-03  -2.23973384E-05
   1.59999996E-03  -2.19006379E-05
   1.64999999E-03  -2.13871645E-05
   1.70000002E-03  -2.08566562E-05
   1.75000005E-03  -2.03088439E-05
   1.79999997E-03  -1.97434802E-05
   1.85000000E-03  -1.91603231E-05
   1.90000003E-03  -1.85591598E-05
   1.94999995E-03  -1.79397666E-05
   2.00000009E-03  -1.73019180E-05
   2.05000001E-03  -1.66453628E-05
   2.09999993E-03  -1.59698393E-05
   2.15000007E-03  -1.52750781E-05
   2.19999999E-03  -1.45608064E-05
   2.24999990E-03  -1.38267633E-05
   2.30000005E-03  -1.30727130E-05
   2.34999997E-03  -1.22984293E-05
   2.40000011E-03  -1.15036928E-05
   2.45000003E-03  -1.06882808E-05
   2.49999994E-03  -9.85194856E-06
   2.55000009E-03  -8.99443512E-06
   2.60000001E-03  -8.11546397E-06
   2.64999992E-03  -7.21476226E-06
   2.70000007E-03  -6.29207216E-06
   2.74999999E-03  -5.34714809E-06
   2.79999990E-03  -4.37977133E-06