  -3.99999991E-02   0.00000000    
  -3.99499983E-02   0.00000000    
  -3.99000011E-02   0.00000000    
  -3.98500003E-02   8.98919856E-16
  -3.97999994E-02   4.34258969E-15
  -3.97499986E-02   1.10841105E-14
  -3.97000015E-02   2.02699474E-14
  -3.96500006E-02   3.13808461E-14
  -3.95999998E-02   4.64774906E-14
  -3.95499989E-02   6.88619422E-14
  -3.95000018E-02   9.86438578E-14
  -3.94500010E-02   1.30842602E-13
  -3.94000001E-02   1.59860352E-13
  -3.93499993E-02   1.86216345E-13
  -3.92999984E-02   2.17266946E-13
  -3.92500013E-02   2.59872148E-13
  -3.92000005E-02   3.13003746E-13
  -3.91499996E-02   3.69288774E-13
  -3.90999988E-02   4.23938120E-13
  -3.90500017E-02   4.79985030E-13
  -3.90000008E-02   5.42844253E-13
  -3.89500000E-02   6.10798521E-13
  -3.88999991E-02   6.74052827E-13
  -3.88499983E-02   7.24779449E-13
  -3.88000011E-02   7.66069012E-13
  -3.87500003E-02   8.07664591E-13
  -3.86999995E-02   8.52303850E-13
  -3.86499986E-02   8.89138427E-13
  -3.86000015E-02   9.03306943E-13
  -3.85500006E-02   8.91041147E-13
  -3.84999998E-02   8.61871230E-13
  -3.84499989E-02   8.24384018E-13
  -3.84000018E-02   7.72252704E-13
  -3.83500010E-02   6.87748957E-13
  -3.83000001E-02   5.59054972E-13
  -3.82499993E-02   3.90665880E-13
  -3.81999984E-02   1.94426655E-13
  -3.81500013E-02  -2.73192249E-14
  -3.81000005E-02  -2.85062393E-13
  -3.80499996E-02  -5.87674820E-13
  -3.79999988E-02  -9.29190318E-13
  -3.79500017E-02  -1.29561748E-12
  -3.79000008E-02  -1.68571992E-12
  -3.78500000E-02  -2.12046960E-12
  -3.77999991E-02  -2.62718601E-12
  -3.77499983E-02  -3.21407549E-12
  -3.77000012E-02  -3.86330594E-12
  -3.76500003E-02  -4.55008036E-12
  -3.75999995E-02  -5.26558094E-12
  -3.75499986E-02  -6.01854330E-12
  -3.75000015E-02  -6.81690164E-12
  -3.74500006E-02  -7.65438928E-12
  -3.73999998E-02  -8.51847932E-12
  -3.73499990E-02  -9.40677224E-12
  -3.73000018E-02  -1.03265417E-11
  -3.72500010E-02  -1.12734752E-11
  -3.72000001E-02  -1.22150024E-11
  -3.71499993E-02  -1.31032719E-11
  -3.70999984E-02  -1.39104370E-11
  -3.70500013E-02  -1.46515942E-11
  -3.70000005E-02  -1.53714229E-11
  -3.69499996E-02  -1.61078668E-11
  -3.68999988E-02  -1.68674883E-11
  -3.68500017E-02  -1.76295298E-11
  -3.68000008E-02  -1.83626708E-11
  -3.67500000E-02  -1.90302201E-11
  -3.66999991E-02  -1.95834755E-11
  -3.66499983E-02  -1.99657426E-11
  -3.66000012E-02  -2.01392653E-11
  -3.65500003E-02  -2.01145368E-11
  -3.64999995E-02  -1.99478246E-11
  -3.64499986E-02  -1.96992665E-11
  -3.64000015E-02  -1.93841384E-11
  -3.63500006E-02  -1.89586142E-11
  -3.62999998E-02  -1.83486178E-11
  -3.62499990E-02  -1.74919957E-11
  -3.62000018E-02  -1.63603419E-11
  -3.61500010E-02  -1.49561960E-11
  -3.61000001E-02  -1.33054063E-11
  -3.60499993E-02  -1.14561485E-11
  -3.59999985E-02  -9.47180875E-12
  -3.59500013E-02  -7.40164700E-12
  -3.59000005E-02  -5.24033638E-12
  -3.58499996E-02  -2.91301076E-12
  -3.57999988E-02  -3.10754921E-13
  -3.57500017E-02   2.64193680E-12
  -3.57000008E-02   5.93742980E-12
  -3.56500000E-02   9.48872491E-12
  -3.55999991E-02   1.31778087E-11
  -3.55499983E-02   1.69095137E-11
  -3.55000012E-02   2.06410358E-11
  -3.54500003E-02   2.43866437E-11
  -3.53999995E-02   2.82102050E-11
  -3.53499986E-02   3.22060122E-11
  -3.53000015E-02   3.64576529E-11
  -3.52500007E-02   4.09795080E-11
  -3.51999998E-02   4.56751477E-11
  -3.51499990E-02   5.03525173E-11
  -3.51000018E-02   5.48012295E-11
  -3.50500010E-02   5.88877558E-11
  -3.50000001E-02   6.26075095E-11
  -3.49499993E-02   6.60645080E-11
  -3.48999985E-02   6.93997498E-11
  -3.48500013E-02   7.27144872E-11
  -3.48000005E-02   7.60206550E-11
  -3.47499996E-02   7.92249114E-11
  -3.46999988E-02   8.21431395E-11
  -3.46500017E-02   8.45482087E-11
  -3.46000008E-02   8.62490773E-11
  -3.45500000E-02   8.71739209E-11
  -3.44999991E-02   8.74065403E-11
  -3.44499983E-02   8.71391570E-11
  -3.44000012E-02   8.65574071E-11
  -3.43500003E-02   8.57241361E-11
  -3.42999995E-02   8.45319578E-11
  -3.42499986E-02   8.27466151E-11
  -3.42000015E-02   8.01059843E-11
  -3.41500007E-02   7.64179831E-11
  -3.40999998E-02   7.16204249E-11
  -3.40499990E-02   6.57937732E-11
  -3.40000018E-02   5.91281468E-11
  -3.39500010E-02   5.18450630E-11
  -3.39000002E-02   4.40895896E-11
  -3.38499993E-02   3.58401121E-11
  -3.37999985E-02   2.68975155E-11
  -3.37500013E-02   1.69806044E-11
  -3.37000005E-02   5.88346646E-12
  -3.36499996E-02  -6.39852581E-12
  -3.35999988E-02  -1.96495441E-11
  -3.35500017E-02  -3.35245859E-11
  -3.35000008E-02  -4.76903274E-11
  -3.34500000E-02  -6.19440957E-11
  -3.33999991E-02  -7.62728422E-11
  -3.33499983E-02  -9.08458100E-11
  -3.33000012E-02  -1.05942193E-10
  -3.32500003E-02  -1.21820276E-10
  -3.31999995E-02  -1.38563883E-10
  -3.31499986E-02  -1.55981617E-10
  -3.31000015E-02  -1.73634301E-10
  -3.30500007E-02  -1.90996968E-10
  -3.29999998E-02  -2.07670645E-10
  -3.29499990E-02  -2.23520466E-10
  -3.29000019E-02  -2.38668640E-10
  -3.28500010E-02  -2.53367299E-10
  -3.28000002E-02  -2.67833977E-10
  -3.27499993E-02  -2.82122686E-10
  -3.26999985E-02  -2.96060537E-10
  -3.26500013E-02  -3.09258896E-10
  -3.26000005E-02  -3.21208421E-10
  -3.25499997E-02  -3.31449340E-10
  -3.24999988E-02  -3.39754225E-10
  -3.24500017E-02  -3.46216750E-10
  -3.24000008E-02  -3.51170953E-10
  -3.23500000E-02  -3.54972385E-10
  -3.22999991E-02  -3.57770258E-10
  -3.22499983E-02  -3.59403785E-10
  -3.22000012E-02  -3.59462821E-10
  -3.21500003E-02  -3.57451957E-10
  -3.20999995E-02  -3.52964713E-10
  -3.20499986E-02  -3.45810741E-10
  -3.20000015E-02  -3.36074418E-10
  -3.19500007E-02  -3.24085397E-10
  -3.18999998E-02  -3.10280190E-10
  -3.18499990E-02  -2.94982955E-10
  -3.18000019E-02  -2.78210760E-10
  -3.17500010E-02  -2.59633953E-10
  -3.17000002E-02  -2.38738890E-10
  -3.16499993E-02  -2.15104032E-10
  -3.15999985E-02  -1.88624255E-10
  -3.15500014E-02  -1.59566110E-10
  -3.15000005E-02  -1.28457120E-10
  -3.14499997E-02  -9.58953403E-11
  -3.13999988E-02  -6.23615257E-11
  -3.13500017E-02  -2.80771396E-11
  -3.13000008E-02   7.05902350E-12
  -3.12500000E-02   4.34097064E-11
  -3.11999992E-02   8.13937667E-11
  -3.11500002E-02   1.21207044E-10
  -3.10999993E-02   1.62624303E-10
  -3.10500003E-02   2.05014866E-10
  -3.09999995E-02   2.47572240E-10
  -3.09500005E-02   2.89616969E-10
  -3.08999997E-02   3.30800554E-10
  -3.08500007E-02   3.71131403E-10
  -3.07999998E-02   4.10856488E-10
  -3.07500008E-02   4.50277288E-10
  -3.07000000E-02   4.89556506E-10
  -3.06499992E-02   5.28555255E-10
  -3.06000002E-02   5.66764247E-10
  -3.05499993E-02   6.03396222E-10
  -3.05000003E-02   6.37640551E-10
  -3.04499995E-02   6.68959721E-10
  -3.04000005E-02   6.97248870E-10
  -3.03499997E-02   7.22756410E-10
  -3.03000007E-02   7.45822404E-10
  -3.02499998E-02   7.66602559E-10
  -3.02000009E-02   7.84919574E-10
  -3.01500000E-02   8.00279676E-10
  -3.00999992E-02   8.12004131E-10
  -3.00500002E-02   8.19419255E-10
  -2.99999993E-02   8.22063029E-10
  -2.99500003E-02   8.19849688E-10
  -2.98999995E-02   8.13100920E-10
  -2.98500005E-02   8.02378719E-10
  -2.97999997E-02   7.88169752E-10
  -2.97500007E-02   7.70587871E-10
  -2.96999998E-02   7.49275753E-10
  -2.96500009E-02   7.23559102E-10
  -2.96000000E-02   6.92749358E-10
  -2.95499992E-02   6.56425025E-10
  -2.95000002E-02   6.14574280E-10
  -2.94499993E-02   5.67582703E-10
  -2.94000003E-02   5.16099719E-10
  -2.93499995E-02   4.60821270E-10
  -2.93000005E-02   4.02238159E-10
  -2.92499997E-02   3.40445061E-10
  -2.92000007E-02   2.75128892E-10
  -2.91499998E-02   2.05783487E-10
  -2.91000009E-02   1.32057865E-10
  -2.90500000E-02   5.40418821E-11
  -2.89999992E-02  -2.76721059E-11
  -2.89500002E-02  -1.12168316E-10
  -2.88999993E-02  -1.98504935E-10
  -2.88500004E-02  -2.85974855E-10
  -2.87999995E-02  -3.74240527E-10
  -2.87500005E-02  -4.63325378E-10
  -2.86999997E-02  -5.53478929E-10
  -2.86500007E-02  -6.44939713E-10
  -2.85999998E-02  -7.37661321E-10
  -2.85500009E-02  -8.31128777E-10
  -2.85000000E-02  -9.24385790E-10
  -2.84499992E-02  -1.01629494E-09
  -2.84000002E-02  -1.10590004E-09
  -2.83499993E-02  -1.19268351E-09
  -2.83000004E-02  -1.27658328E-09
  -2.82499995E-02  -1.35778633E-09
  -2.82000005E-02  -1.43643575E-09
  -2.81499997E-02  -1.51239277E-09
  -2.81000007E-02  -1.58512836E-09
  -2.80499998E-02  -1.65376113E-09
  -2.80000009E-02  -1.71723125E-09
  -2.79500000E-02  -1.77458181E-09
  -2.78999992E-02  -1.82525262E-09
  -2.78500002E-02  -1.86923788E-09
  -2.77999993E-02  -1.90698368E-09
  -2.77500004E-02  -1.93904848E-09
  -2.76999995E-02  -1.96569983E-09
  -2.76500005E-02  -1.98667771E-09
  -2.75999997E-02  -2.00123562E-09
  -2.75500007E-02  -2.00841144E-09
  -2.74999999E-02  -2.00736960E-09
  -2.74500009E-02  -1.99767425E-09
  -2.74000000E-02  -1.97941996E-09
  -2.73499992E-02  -1.95319272E-09
  -2.73000002E-02  -1.91985783E-09
  -2.72499993E-02  -1.88021354E-09
  -2.72000004E-02  -1.83464055E-09
  -2.71499995E-02  -1.78294457E-09
  -2.71000005E-02  -1.72450643E-09
  -2.70499997E-02  -1.65868330E-09
  -2.70000007E-02  -1.58523594E-09
  -2.69499999E-02  -1.50454404E-09
  -2.69000009E-02  -1.41752277E-09
  -2.68500000E-02  -1.32533517E-09
  -2.67999992E-02  -1.22905741E-09
  -2.67500002E-02  -1.12942855E-09
  -2.66999993E-02  -1.02673148E-09
  -2.66500004E-02  -9.20854171E-10
  -2.65999995E-02  -8.11542167E-10
  -2.65500005E-02  -6.98785863E-10
  -2.64999997E-02  -5.83160964E-10
  -2.64500007E-02  -4.65904371E-10
  -2.63999999E-02  -3.48637841E-10
  -2.63500009E-02  -2.32884073E-10
  -2.63000000E-02  -1.19649957E-10
  -2.62499992E-02  -9.30228984E-12
  -2.62000002E-02   9.82427334E-11
  -2.61499994E-02   2.03158518E-10
  -2.61000004E-02   3.05351966E-10
  -2.60499995E-02   4.04208417E-10
  -2.60000005E-02   4.98510400E-10
  -2.59499997E-02   5.86577564E-10
  -2.59000007E-02   6.66643962E-10
  -2.58499999E-02   7.37346906E-10
  -2.58000009E-02   7.98068167E-10
  -2.57500000E-02   8.48900894E-10
  -2.56999992E-02   8.90223784E-10
  -2.56500002E-02   9.22140198E-10
  -2.55999994E-02   9.44088807E-10
  -2.55500004E-02   9.54814117E-10
  -2.54999995E-02   9.52648960E-10
  -2.54500005E-02   9.35928890E-10
  -2.53999997E-02   9.03394470E-10
  -2.53500007E-02   8.54464277E-10
  -2.52999999E-02   7.89292853E-10
  -2.52500009E-02   7.08528458E-10
  -2.52000000E-02   6.12807083E-10
  -2.51499992E-02   5.02197284E-10
  -2.51000002E-02   3.75915077E-10
  -2.50499994E-02   2.32507277E-10
  -2.50000004E-02   7.03968411E-11
  -2.49499995E-02  -1.11531902E-10
  -2.49000005E-02  -3.13616522E-10
  -2.48499997E-02  -5.35482159E-10
  -2.48000007E-02  -7.76371412E-10
  -2.47499999E-02  -1.03557096E-09
  -2.47000009E-02  -1.31279732E-09
  -2.46500000E-02  -1.60842795E-09
  -2.45999992E-02  -1.92345873E-09
  -2.45500002E-02  -2.25912888E-09
  -2.44999994E-02  -2.61631761E-09
  -2.44500004E-02  -2.99505065E-09
  -2.43999995E-02  -3.39441408E-09
  -2.43500005E-02  -3.81296106E-09
  -2.42999997E-02  -4.24940438E-09
  -2.42500007E-02  -4.70317163E-09
  -2.41999999E-02  -5.17457543E-09
  -2.41500009E-02  -5.66458169E-09
  -2.41000000E-02  -6.17433749E-09
  -2.40499992E-02  -6.70465417E-09
  -2.40000002E-02  -7.25557658E-09
  -2.39499994E-02  -7.82621079E-09
  -2.39000004E-02  -8.41494074E-09
  -2.38499995E-02  -9.02003450E-09
  -2.38000005E-02  -9.64034985E-09
  -2.37499997E-02  -1.02758024E-08
  -2.37000007E-02  -1.09272671E-08
  -2.36499999E-02  -1.15960024E-08
  -2.36000009E-02  -1.22829134E-08
  -2.35500000E-02  -1.29880373E-08
  -2.34999992E-02  -1.37104754E-08
  -2.34500002E-02  -1.44487116E-08
  -2.33999994E-02  -1.52011950E-08
  -2.33500004E-02  -1.59668758E-08
  -2.32999995E-02  -1.67456200E-08
  -2.32500006E-02  -1.75382482E-08
  -2.31999997E-02  -1.83461530E-08
  -2.31500007E-02  -1.91705798E-08
  -2.30999999E-02  -2.00119477E-08
  -2.30500009E-02  -2.08695532E-08
  -2.30000000E-02  -2.17418989E-08
  -2.29499992E-02  -2.26274182E-08
  -2.29000002E-02  -2.35252156E-08
  -2.28499994E-02  -2.44354688E-08
  -2.28000004E-02  -2.53593164E-08
  -2.27499995E-02  -2.62983608E-08
  -2.27000006E-02  -2.72540710E-08
  -2.26499997E-02  -2.82271770E-08
  -2.26000007E-02  -2.92174107E-08
  -2.25499999E-02  -3.02236138E-08
  -2.25000009E-02  -3.12443831E-08
  -2.24500000E-02  -3.22788516E-08
  -2.23999992E-02  -3.33273036E-08
  -2.23500002E-02  -3.43912632E-08
  -2.22999994E-02  -3.54728691E-08
  -2.22500004E-02  -3.65740078E-08
  -2.21999995E-02  -3.76955924E-08
  -2.21500006E-02  -3.88373849E-08
  -2.20999997E-02  -3.99982838E-08
  -2.20500007E-02  -4.11769676E-08
  -2.19999999E-02  -4.23726441E-08
  -2.19500009E-02  -4.35855760E-08
  -2.19000001E-02  -4.48172806E-08
  -2.18499992E-02  -4.60701948E-08
  -2.18000002E-02  -4.73468162E-08
  -2.17499994E-02  -4.86487863E-08
  -2.17000004E-02  -4.99763608E-08
  -2.16499995E-02  -5.13286231E-08
  -2.16000006E-02  -5.27041486E-08
  -2.15499997E-02  -5.41020420E-08
  -2.15000007E-02  -5.55224773E-08
  -2.14499999E-02  -5.69668543E-08
  -2.14000009E-02  -5.84373403E-08
  -2.13500001E-02  -5.99361698E-08
  -2.12999992E-02  -6.14649309E-08
  -2.12500002E-02  -6.30241104E-08
  -2.11999994E-02  -6.46131326E-08
  -2.11500004E-02  -6.62308324E-08
  -2.10999995E-02  -6.78763996E-08
  -2.10500006E-02  -6.95501541E-08
  -2.09999997E-02  -7.12538579E-08
  -2.09500007E-02  -7.29902609E-08
  -2.08999999E-02  -7.47621627E-08
  -2.08500009E-02  -7.65713892E-08
  -2.08000001E-02  -7.84184948E-08
  -2.07499992E-02  -8.03028755E-08
  -2.07000002E-02  -8.22234441E-08
  -2.06499994E-02  -8.41793977E-08
  -2.06000004E-02  -8.61710276E-08
  -2.05499995E-02  -8.82000819E-08
  -2.05000006E-02  -9.02694097E-08
  -2.04499997E-02  -9.23824075E-08
  -2.04000007E-02  -9.45417611E-08
  -2.03499999E-02  -9.67489058E-08
  -2.03000009E-02  -9.90038274E-08
  -2.02500001E-02  -1.01305822E-07
  -2.01999992E-02  -1.03654564E-07
  -2.01500002E-02  -1.06050948E-07
  -2.00999994E-02  -1.08497360E-07
  -2.00500004E-02  -1.10997412E-07
  -1.99999996E-02  -1.13555124E-07
  -1.99500006E-02  -1.16174029E-07
  -1.98999997E-02  -1.18856491E-07
  -1.98500007E-02  -1.21603634E-07
  -1.97999999E-02  -1.24415649E-07
  -1.97500009E-02  -1.27292822E-07
  -1.97000001E-02  -1.30236458E-07
  -1.96499992E-02  -1.33249614E-07
  -1.96000002E-02  -1.36336922E-07
  -1.95499994E-02  -1.39503726E-07
  -1.95000004E-02  -1.42754899E-07
  -1.94499996E-02  -1.46094109E-07
  -1.94000006E-02  -1.49523814E-07
  -1.93499997E-02  -1.53045661E-07
  -1.93000007E-02  -1.56661542E-07
  -1.92499999E-02  -1.60374157E-07
  -1.92000009E-02  -1.64187654E-07
  -1.91500001E-02  -1.68107647E-07
  -1.90999992E-02  -1.72140616E-07
  -1.90500002E-02  -1.76293028E-07
  -1.89999994E-02  -1.80570140E-07
  -1.89500004E-02  -1.84975647E-07
  -1.88999996E-02  -1.89512392E-07
  -1.88500006E-02  -1.94183400E-07
  -1.87999997E-02  -1.98992893E-07
  -1.87500007E-02  -2.03946684E-07
  -1.86999999E-02  -2.09052274E-07
  -1.86500009E-02  -2.14317865E-07
  -1.86000001E-02  -2.19751584E-07
  -1.85499992E-02  -2.25360381E-07
  -1.85000002E-02  -2.31149968E-07
  -1.84499994E-02  -2.37124851E-07
  -1.84000004E-02  -2.43289037E-07
  -1.83499996E-02  -2.49647258E-07
  -1.83000006E-02  -2.56206022E-07
  -1.82499997E-02  -2.62973884E-07
  -1.82000007E-02  -2.69960623E-07
  -1.81499999E-02  -2.77175786E-07
  -1.81000009E-02  -2.84627788E-07
  -1.80500001E-02  -2.92323790E-07
  -1.79999992E-02  -3.00269846E-07
  -1.79500002E-02  -3.08471755E-07
  -1.78999994E-02  -3.16935797E-07
  -1.78500004E-02  -3.25669419E-07
  -1.77999996E-02  -3.34681744E-07
  -1.77500006E-02  -3.43983032E-07
  -1.76999997E-02  -3.53583943E-07
  -1.76500008E-02  -3.63494138E-07
  -1.75999999E-02  -3.73721662E-07
  -1.75500009E-02  -3.84272852E-07
  -1.75000001E-02  -3.95153648E-07
  -1.74499992E-02  -4.06370845E-07
  -1.74000002E-02  -4.17932910E-07
  -1.73499994E-02  -4.29849905E-07
  -1.73000004E-02  -4.42132574E-07
  -1.72499996E-02  -4.54791689E-07
  -1.72000006E-02  -4.67837623E-07
  -1.71499997E-02  -4.81279585E-07
  -1.71000008E-02  -4.95125221E-07
  -1.70499999E-02  -5.09381152E-07
  -1.70000009E-02  -5.24053632E-07
  -1.69500001E-02  -5.39150847E-07
  -1.68999992E-02  -5.54683254E-07
  -1.68500002E-02  -5.70662223E-07
  -1.67999994E-02  -5.87098782E-07
  -1.67500004E-02  -6.04003333E-07
  -1.66999996E-02  -6.21384515E-07
  -1.66500006E-02  -6.39249720E-07
  -1.65999997E-02  -6.57605995E-07
  -1.65500008E-02  -6.76460672E-07
  -1.64999999E-02  -6.95821825E-07
  -1.64500009E-02  -7.15699116E-07
  -1.64000001E-02  -7.36103914E-07
  -1.63499992E-02  -7.57048554E-07
  -1.63000003E-02  -7.78545086E-07
  -1.62499994E-02  -8.00603232E-07
  -1.62000004E-02  -8.23230437E-07
  -1.61499996E-02  -8.46433636E-07
  -1.61000006E-02  -8.70220845E-07
  -1.60499997E-02  -8.94600930E-07
  -1.60000008E-02  -9.19583726E-07
  -1.59499999E-02  -9.45179863E-07
  -1.59000009E-02  -9.71401050E-07
  -1.58500001E-02  -9.98259452E-07
  -1.57999992E-02  -1.02576598E-06
  -1.57500003E-02  -1.05392985E-06
  -1.56999994E-02  -1.08275913E-06
  -1.56500004E-02  -1.11226166E-06
  -1.55999996E-02  -1.14244699E-06
  -1.55499997E-02  -1.17332706E-06
  -1.54999997E-02  -1.20491472E-06
  -1.54499998E-02  -1.23722305E-06
  -1.53999999E-02  -1.27026465E-06
  -1.53500000E-02  -1.30405124E-06
  -1.53000001E-02  -1.33859282E-06
  -1.52500002E-02  -1.37389918E-06
  -1.52000003E-02  -1.40998020E-06
  -1.51500003E-02  -1.44684623E-06
  -1.51000004E-02  -1.48450931E-06
  -1.50499996E-02  -1.52298367E-06
  -1.49999997E-02  -1.56228498E-06
  -1.49499997E-02  -1.60242860E-06
  -1.48999998E-02  -1.64342748E-06
  -1.48499999E-02  -1.68529459E-06
  -1.48000000E-02  -1.72804107E-06
  -1.47500001E-02  -1.77167942E-06
  -1.47000002E-02  -1.81622272E-06
  -1.46500003E-02  -1.86168597E-06
  -1.46000003E-02  -1.90808464E-06
  -1.45500004E-02  -1.95543498E-06
  -1.44999996E-02  -2.00375484E-06
  -1.44499997E-02  -2.05306128E-06
  -1.43999998E-02  -2.10336930E-06
  -1.43499998E-02  -2.15469208E-06
  -1.42999999E-02  -2.20704442E-06
  -1.42500000E-02  -2.26044290E-06
  -1.42000001E-02  -2.31490503E-06
  -1.41500002E-02  -2.37045015E-06
  -1.41000003E-02  -2.42709712E-06
  -1.40500003E-02  -2.48486640E-06
  -1.40000004E-02  -2.54377937E-06
  -1.39499996E-02  -2.60385491E-06
  -1.38999997E-02  -2.66510938E-06
  -1.38499998E-02  -2.72756074E-06
  -1.37999998E-02  -2.79122878E-06
  -1.37499999E-02  -2.85613419E-06
  -1.37000000E-02  -2.92229925E-06
  -1.36500001E-02  -2.98974805E-06
  -1.36000002E-02  -3.05850244E-06
  -1.35500003E-02  -3.12858583E-06
  -1.35000004E-02  -3.20002209E-06
  -1.34500004E-02  -3.27283237E-06
  -1.33999996E-02  -3.34703759E-06
  -1.33499997E-02  -3.42266094E-06
  -1.32999998E-02  -3.49972811E-06
  -1.32499998E-02  -3.57826684E-06
  -1.31999999E-02  -3.65830488E-06
  -1.31500000E-02  -3.73986882E-06
  -1.31000001E-02  -3.82298731E-06
  -1.30500002E-02  -3.90768673E-06
  -1.30000003E-02  -3.99399278E-06
  -1.29500004E-02  -4.08193137E-06
  -1.29000004E-02  -4.17152751E-06
  -1.28499996E-02  -4.26280894E-06
  -1.27999997E-02  -4.35580887E-06
  -1.27499998E-02  -4.45056094E-06
  -1.26999998E-02  -4.54709561E-06
  -1.26499999E-02  -4.64544337E-06
  -1.26000000E-02  -4.74563740E-06
  -1.25500001E-02  -4.84771135E-06
  -1.25000002E-02  -4.95169888E-06
  -1.24500003E-02  -5.05763137E-06
  -1.24000004E-02  -5.16554019E-06
  -1.23500004E-02  -5.27546126E-06
  -1.22999996E-02  -5.38743461E-06
  -1.22499997E-02  -5.50149753E-06
  -1.21999998E-02  -5.61768411E-06
  -1.21499998E-02  -5.73602892E-06
  -1.20999999E-02  -5.85656380E-06
  -1.20500000E-02  -5.97933149E-06
  -1.20000001E-02  -6.10437019E-06
  -1.19500002E-02  -6.23171536E-06
  -1.19000003E-02  -6.36140931E-06
  -1.18500004E-02  -6.49350022E-06
  -1.18000004E-02  -6.62803541E-06
  -1.17499996E-02  -6.76506306E-06
  -1.16999997E-02  -6.90462366E-06
  -1.16499998E-02  -7.04675722E-06
  -1.15999999E-02  -7.19150694E-06
  -1.15499999E-02  -7.33891875E-06
  -1.15000000E-02  -7.48903858E-06
  -1.14500001E-02  -7.64191009E-06
  -1.14000002E-02  -7.79757647E-06
  -1.13500003E-02  -7.95608594E-06
  -1.13000004E-02  -8.11748669E-06
  -1.12500004E-02  -8.28182783E-06
  -1.11999996E-02  -8.44915394E-06
  -1.11499997E-02  -8.61951867E-06
  -1.10999998E-02  -8.79297477E-06
  -1.10499999E-02  -8.96958227E-06
  -1.09999999E-02  -9.14939938E-06
  -1.09500000E-02  -9.33248157E-06
  -1.09000001E-02  -9.51889433E-06
  -1.08500002E-02  -9.70869860E-06
  -1.08000003E-02  -9.90195440E-06
  -1.07500004E-02  -1.00987127E-05
  -1.07000005E-02  -1.02990225E-05
  -1.06499996E-02  -1.05029358E-05
  -1.05999997E-02  -1.07105134E-05
  -1.05499998E-02  -1.09218090E-05
  -1.04999999E-02  -1.11368872E-05
  -1.04499999E-02  -1.13558044E-05
  -1.04000000E-02  -1.15786215E-05
  -1.03500001E-02  -1.18053995E-05
  -1.03000002E-02  -1.20362056E-05
  -1.02500003E-02  -1.22711081E-05
  -1.02000004E-02  -1.25101687E-05
  -1.01500005E-02  -1.27534504E-05
  -1.00999996E-02  -1.30010294E-05
  -1.00499997E-02  -1.32529813E-05
  -9.99999978E-03  -1.35093815E-05
  -9.94999986E-03  -1.37703037E-05
  -9.89999995E-03  -1.40358079E-05
  -9.85000003E-03  -1.43059688E-05
  -9.80000012E-03  -1.45808599E-05
  -9.75000020E-03  -1.48605550E-05
  -9.70000029E-03  -1.51451186E-05
  -9.65000037E-03  -1.54346199E-05
  -9.60000046E-03  -1.57291361E-05
  -9.54999961E-03  -1.60287473E-05
  -9.49999969E-03  -1.63335244E-05
  -9.44999978E-03  -1.66435457E-05
  -9.39999986E-03  -1.69588784E-05
  -9.34999995E-03  -1.72795808E-05
  -9.30000003E-03  -1.76057292E-05
  -9.25000012E-03  -1.79374056E-05
  -9.20000020E-03  -1.82746971E-05
  -9.15000029E-03  -1.86176821E-05
  -9.10000037E-03  -1.89664297E-05
  -9.05000046E-03  -1.93210271E-05
  -8.99999961E-03  -1.96815654E-05
  -8.94999970E-03  -2.00481500E-05
  -8.89999978E-03  -2.04208391E-05
  -8.84999987E-03  -2.07997055E-05
  -8.79999995E-03  -2.11848437E-05
  -8.75000004E-03  -2.15763521E-05
  -8.70000012E-03  -2.19743215E-05
  -8.65000021E-03  -2.23788284E-05
  -8.60000029E-03  -2.27899527E-05
  -8.55000038E-03  -2.32077928E-05
  -8.50000046E-03  -2.36324377E-05
  -8.44999962E-03  -2.40639602E-05
  -8.39999970E-03  -2.45024294E-05
  -8.34999979E-03  -2.49479363E-05
  -8.29999987E-03  -2.54005772E-05
  -8.24999996E-03  -2.58604414E-05
  -8.20000004E-03  -2.63276124E-05
  -8.15000013E-03  -2.68021777E-05
  -8.10000021E-03  -2.72842244E-05
  -8.05000030E-03  -2.77738545E-05
  -8.00000038E-03  -2.82711644E-05
  -7.95000046E-03  -2.87762396E-05
  -7.89999962E-03  -2.92891546E-05
  -7.84999970E-03  -2.98099967E-05
  -7.79999979E-03  -3.03388733E-05
  -7.74999987E-03  -3.08759045E-05
  -7.69999996E-03  -3.14211902E-05
  -7.65000004E-03  -3.19748178E-05
  -7.60000013E-03  -3.25368492E-05
  -7.55000021E-03  -3.31073898E-05
  -7.49999983E-03  -3.36865560E-05
  -7.44999992E-03  -3.42744643E-05
  -7.40000000E-03  -3.48711874E-05
  -7.35000009E-03  -3.54768017E-05
  -7.30000017E-03  -3.60914091E-05
  -7.24999979E-03  -3.67151442E-05
  -7.19999988E-03  -3.73481162E-05
  -7.14999996E-03  -3.79904159E-05
  -7.10000005E-03  -3.86421161E-05
  -7.05000013E-03  -3.93032933E-05
  -7.00000022E-03  -3.99740566E-05
  -6.94999984E-03  -4.06545259E-05
  -6.89999992E-03  -4.13448070E-05
  -6.85000001E-03  -4.20449942E-05
  -6.80000009E-03  -4.27551531E-05
  -6.75000018E-03  -4.34753856E-05
  -6.69999979E-03  -4.42058408E-05
  -6.64999988E-03  -4.49466243E-05
  -6.59999996E-03  -4.56978269E-05
  -6.55000005E-03  -4.64594996E-05
  -6.50000013E-03  -4.72317552E-05
  -6.45000022E-03  -4.80147391E-05
  -6.39999984E-03  -4.88085825E-05
  -6.34999992E-03  -4.96133871E-05
  -6.30000001E-03  -5.04292402E-05
  -6.25000009E-03  -5.12562547E-05
  -6.20000018E-03  -5.20945287E-05
  -6.14999980E-03  -5.29441750E-05
  -6.09999988E-03  -5.38053064E-05
  -6.04999997E-03  -5.46779993E-05
  -6.00000005E-03  -5.55623446E-05
  -5.95000014E-03  -5.64584516E-05
  -5.90000022E-03  -5.73664256E-05
  -5.84999984E-03  -5.82863722E-05
  -5.79999993E-03  -5.92184078E-05
  -5.75000001E-03  -6.01626198E-05
  -5.70000010E-03  -6.11190990E-05
  -5.65000018E-03  -6.20879291E-05
  -5.59999980E-03  -6.30692084E-05
  -5.54999989E-03  -6.40630533E-05
  -5.49999997E-03  -6.50695874E-05
  -5.45000006E-03  -6.60889200E-05
  -5.40000014E-03  -6.71211601E-05
  -5.35000023E-03  -6.81663951E-05
  -5.29999984E-03  -6.92247268E-05
  -5.24999993E-03  -7.02962716E-05
  -5.20000001E-03  -7.13811678E-05
  -5.15000010E-03  -7.24794736E-05
  -5.10000018E-03  -7.35912399E-05
  -5.04999980E-03  -7.47165832E-05
  -4.99999989E-03  -7.58556416E-05
  -4.94999997E-03  -7.70085389E-05
  -4.90000006E-03  -7.81753333E-05
  -4.85000014E-03  -7.93560685E-05
  -4.80000023E-03  -8.05508098E-05
  -4.74999985E-03  -8.17596883E-05
  -4.69999993E-03  -8.29827841E-05
  -4.65000002E-03  -8.42201771E-05
  -4.60000010E-03  -8.54719110E-05
  -4.55000019E-03  -8.67380295E-05
  -4.49999981E-03  -8.80186853E-05
  -4.44999989E-03  -8.93140241E-05
  -4.39999998E-03  -9.06241185E-05
  -4.35000006E-03  -9.19489976E-05
  -4.30000015E-03  -9.32887269E-05
  -4.25000023E-03  -9.46433865E-05
  -4.19999985E-03  -9.60130928E-05
  -4.14999994E-03  -9.73979040E-05
  -4.10000002E-03  -9.87978929E-05
  -4.05000011E-03  -1.00213132E-04
  -4.00000019E-03  -1.01643673E-04
  -3.94999981E-03  -1.03089609E-04
  -3.89999989E-03  -1.04550993E-04
  -3.84999998E-03  -1.06027830E-04
  -3.80000006E-03  -1.07520144E-04
  -3.74999992E-03  -1.09027969E-04
  -3.70000000E-03  -1.10551380E-04
  -3.65000009E-03  -1.12090471E-04
  -3.59999994E-03  -1.13645285E-04
  -3.55000002E-03  -1.15215822E-04
  -3.50000011E-03  -1.16802083E-04
  -3.44999996E-03  -1.18404125E-04
  -3.40000005E-03  -1.20022029E-04
  -3.34999990E-03  -1.21655779E-04
  -3.29999998E-03  -1.23305392E-04
  -3.25000007E-03  -1.24970858E-04
  -3.19999992E-03  -1.26652172E-04
  -3.15000000E-03  -1.28349406E-04
  -3.10000009E-03  -1.30062632E-04
  -3.04999994E-03  -1.31791821E-04
  -3.00000003E-03  -1.33536902E-04
  -2.95000011E-03  -1.35297858E-04
  -2.89999996E-03  -1.37074676E-04
  -2.85000005E-03  -1.38867428E-04
  -2.79999990E-03  -1.40676057E-04
  -2.74999999E-03  -1.42500488E-04
  -2.70000007E-03  -1.44340724E-04
  -2.64999992E-03  -1.46196748E-04
  -2.60000001E-03  -1.48068531E-04
  -2.55000009E-03  -1.49956017E-04
  -2.49999994E-03  -1.51859145E-04
  -2.45000003E-03  -1.53777772E-04
  -2.40000011E-03  -1.55711823E-04
  -2.34999997E-03  -1.57661270E-04
  -2.30000005E-03  -1.59626099E-04
  -2.24999990E-03  -1.61606207E-04
  -2.19999999E-03  -1.63601479E-04
  -2.15000007E-03  -1.65611767E-04
  -2.09999993E-03  -1.67636987E-04
  -2.05000001E-03  -1.69677121E-04
  -2.00000009E-03  -1.71731983E-04
  -1.94999995E-03  -1.73801411E-04
  -1.90000003E-03  -1.75885260E-04
  -1.85000000E-03  -1.77983442E-04
  -1.79999997E-03  -1.80095842E-04
  -1.75000005E-03  -1.82222313E-04
  -1.70000002E-03  -1.84362725E-04
  -1.64999999E-03  -1.86516932E-04
  -1.59999996E-03  -1.88684600E-04
  -1.55000004E-03  -1.90865569E-04
  -1.50000001E-03  -1.93059619E-04
  -1.44999998E-03  -1.95266621E-04
  -1.39999995E-03  -1.97486384E-04
  -1.35000004E-03  -1.99718561E-04
  -1.30000000E-03  -2.01962961E-04
  -1.24999997E-03  -2.04219294E-04
  -1.20000006E-03  -2.06487355E-04
  -1.15000003E-03  -2.08766971E-04
  -1.09999999E-03  -2.11057806E-04
  -1.04999996E-03  -2.13359323E-04
  -1.00000005E-03  -2.15671185E-04
  -9.50000016E-04  -2.17993336E-04
  -8.99999985E-04  -2.20325644E-04
  -8.50000011E-04  -2.22667732E-04
  -7.99999980E-04  -2.25019030E-04
  -7.50000007E-04  -2.27379016E-04
  -6.99999975E-04  -2.29747500E-04
  -6.50000002E-04  -2.32124323E-04
  -6.00000028E-04  -2.34509062E-04
  -5.49999997E-04  -2.36901076E-04
  -5.00000024E-04  -2.39299770E-04
  -4.49999992E-04  -2.41704824E-04
  -3.99999990E-04  -2.44116134E-04
  -3.49999988E-04  -2.46533280E-04
  -3.00000014E-04  -2.48955534E-04
  -2.50000012E-04  -2.51382240E-04
  -1.99999995E-04  -2.53812876E-04
  -1.50000007E-04  -2.56247149E-04
  -9.99999975E-05  -2.58684653E-04
  -4.99999987E-05  -2.61124689E-04
   0.00000000      -2.63566559E-04
   4.99999987E-05  -2.66009622E-04
   9.99999975E-05  -2.68453499E-04
   1.50000007E-04  -2.70897785E-04
   1.99999995E-04  -2.73341750E-04
   2.50000012E-04  -2.75784463E-04
   3.00000014E-04  -2.78225169E-04
   3.49999988E-04  -2.80663284E-04
   3.99999990E-04  -2.83098430E-04
   4.49999992E-04  -2.85529881E-04
   5.00000024E-04  -2.87956762E-04
   5.49999997E-04  -2.90378201E-04
   6.00000028E-04  -2.92793469E-04
   6.50000002E-04  -2.95201899E-04
   6.99999975E-04  -2.97602877E-04
   7.50000007E-04  -2.99995503E-04
   7.99999980E-04  -3.02378729E-04
   8.50000011E-04  -3.04751535E-04
   8.99999985E-04  -3.07113252E-04
   9.50000016E-04  -3.09463154E-04
   1.00000005E-03  -3.11800337E-04
   1.04999996E-03  -3.14123638E-04
   1.09999999E-03  -3.16431950E-04
   1.15000003E-03  -3.18724284E-04
   1.20000006E-03  -3.20999941E-04
   1.24999997E-03  -3.23258049E-04
   1.30000000E-03  -3.25497356E-04
   1.35000004E-03  -3.27716552E-04
   1.39999995E-03  -3.29914619E-04
   1.44999998E-03  -3.32090654E-04
   1.50000001E-03  -3.34243785E-04
   1.55000004E-03  -3.36372643E-04
   1.59999996E-03  -3.38475860E-04
   1.64999999E-03  -3.40552186E-04
   1.70000002E-03  -3.42600542E-04
   1.75000005E-03  -3.44619941E-04
   1.79999997E-03  -3.46609042E-04
   1.85000000E-03  -3.48566391E-04
   1.90000003E-03  -3.50490474E-04
   1.94999995E-03  -3.52379982E-04
   2.00000009E-03  -3.54233955E-04
   2.05000001E-03  -3.56051052E-04
   2.09999993E-03  -3.57829616E-04
   2.15000007E-03  -3.59567988E-04
   2.19999999E-03  -3.61264712E-04
   2.24999990E-03  -3.62918508E-04
   2.30000005E-03  -3.64528096E-04
   2.34999997E-03  -3.66091903E-04
   2.40000011E-03  -3.67608038E-04
   2.45000003E-03  -3.69074754E-04
   2.49999994E-03  -3.70490714E-04
   2.55000009E-03  -3.71854519E-04
   2.60000001E-03  -3.73164483E-04
   2.64999992E-03  -3.74418683E-04
   2.70000007E-03  -3.75615258E-04
   2.74999999E-03  -3.76752490E-04
   2.79999990E-03  -3.77829012E-04