  -3.99999991E-02   0.00000000    
  -3.99499983E-02   0.00000000    
  -3.99000011E-02   0.00000000    
  -3.98500003E-02   0.00000000    
  -3.97999994E-02   1.67452472E-20
  -3.97499986E-02   1.48040062E-19
  -3.97000015E-02   6.62910918E-19
  -3.96500006E-02   1.97796441E-18
  -3.95999998E-02   4.31046133E-18
  -3.95499989E-02   6.93375587E-18
  -3.95000018E-02   7.34316767E-18
  -3.94500010E-02   1.07357817E-18
  -3.94000001E-02  -1.69990397E-17
  -3.93499993E-02  -4.96355583E-17
  -3.92999984E-02  -9.34975812E-17
  -3.92500013E-02  -1.36977854E-16
  -3.92000005E-02  -1.62167224E-16
  -3.91499996E-02  -1.52026466E-16
  -3.90999988E-02  -1.00709756E-16
  -3.90500017E-02  -2.17759515E-17
  -3.90000008E-02   5.19602038E-17
  -3.89500000E-02   8.02885392E-17
  -3.88999991E-02   3.62847606E-17
  -3.88499983E-02  -7.36044764E-17
  -3.88000011E-02  -2.02131456E-16
  -3.87500003E-02  -2.74546010E-16
  -3.86999995E-02  -2.20828782E-16
  -3.86499986E-02  -1.37078907E-17
  -3.86000015E-02   3.07388468E-16
  -3.85500006E-02   6.43468642E-16
  -3.84999998E-02   8.78148173E-16
  -3.84499989E-02   9.40181690E-16
  -3.84000018E-02   8.56591979E-16
  -3.83500010E-02   7.64608806E-16
  -3.83000001E-02   8.66157257E-16
  -3.82499993E-02   1.33694770E-15
  -3.81999984E-02   2.22974372E-15
  -3.81500013E-02   3.42220432E-15
  -3.81000005E-02   4.64471279E-15
  -3.80499996E-02   5.58710259E-15
  -3.79999988E-02   6.04183858E-15
  -3.79500017E-02   6.01623023E-15
  -3.79000008E-02   5.75258191E-15
  -3.78500000E-02   5.63350009E-15
  -3.77999991E-02   6.00472752E-15
  -3.77499983E-02   6.99409250E-15
  -3.77000012E-02   8.41722644E-15
  -3.76500003E-02   9.82742872E-15
  -3.75999995E-02   1.06996702E-14
  -3.75499986E-02   1.06690288E-14
  -3.75000015E-02   9.70900081E-15
  -3.74500006E-02   8.15716360E-15
  -3.73999998E-02   6.56679106E-15
  -3.73499990E-02   5.44843398E-15
  -3.73000018E-02   5.02189275E-15
  -3.72500010E-02   5.09657310E-15
  -3.72000001E-02   5.13786977E-15
  -3.71499993E-02   4.48776055E-15
  -3.70999984E-02   2.63332824E-15
  -3.70500013E-02  -6.03524845E-16
  -3.70000005E-02  -5.03732569E-15
  -3.69499996E-02  -1.02458816E-14
  -3.68999988E-02  -1.57657311E-14
  -3.68500017E-02  -2.12423124E-14
  -3.68000008E-02  -2.64653869E-14
  -3.67500000E-02  -3.13080352E-14
  -3.66999991E-02  -3.56589758E-14
  -3.66499983E-02  -3.94406899E-14
  -3.66000012E-02  -4.27317077E-14
  -3.65500003E-02  -4.59060754E-14
  -3.64999995E-02  -4.96406301E-14
  -3.64499986E-02  -5.46785890E-14
  -3.64000015E-02  -6.13768612E-14
  -3.63500006E-02  -6.92391972E-14
  -3.62999998E-02  -7.67395994E-14
  -3.62499990E-02  -8.16785875E-14
  -3.62000018E-02  -8.20717192E-14
  -3.61500010E-02  -7.72396944E-14
  -3.61000001E-02  -6.85309895E-14
  -3.60499993E-02  -5.91389324E-14
  -3.59999985E-02  -5.28389486E-14
  -3.59500013E-02  -5.20452313E-14
  -3.59000005E-02  -5.60847518E-14
  -3.58499996E-02  -6.07052996E-14
  -3.57999988E-02  -5.94101659E-14
  -3.57500017E-02  -4.63519197E-14
  -3.57000008E-02  -1.96020653E-14
  -3.56500000E-02   1.68743092E-14
  -3.55999991E-02   5.39065490E-14
  -3.55499983E-02   8.07228226E-14
  -3.55000012E-02   9.02249263E-14
  -3.54500003E-02   8.35187632E-14
  -3.53999995E-02   7.11470610E-14
  -3.53499986E-02   6.96626255E-14
  -3.53000015E-02   9.43385791E-14
  -3.52500007E-02   1.50989749E-13
  -3.51999998E-02   2.30932976E-13
  -3.51499990E-02   3.12278957E-13
  -3.51000018E-02   3.68108674E-13
  -3.50500010E-02   3.78682274E-13
  -3.50000001E-02   3.42267311E-13
  -3.49499993E-02   2.78908678E-13
  -3.48999985E-02   2.24036826E-13
  -3.48500013E-02   2.13392157E-13
  -3.48000005E-02   2.65348914E-13
  -3.47499996E-02   3.69023605E-13
  -3.46999988E-02   4.85004777E-13
  -3.46500017E-02   5.60308852E-13
  -3.46000008E-02   5.52314975E-13
  -3.45500000E-02   4.51168508E-13
  -3.44999991E-02   2.89334827E-13
  -3.44499983E-02   1.31703472E-13
  -3.44000012E-02   4.83286981E-14
  -3.43500003E-02   8.07728992E-14
  -3.42999995E-02   2.17727217E-13
  -3.42499986E-02   3.93189387E-13
  -3.42000015E-02   5.11187880E-13
  -3.41500007E-02   4.88516129E-13
  -3.40999998E-02   2.96935734E-13
  -3.40499990E-02  -1.58907718E-14
  -3.40000018E-02  -3.39740822E-13
  -3.39500010E-02  -5.47315014E-13
  -3.39000002E-02  -5.53719126E-13
  -3.38499993E-02  -3.62669665E-13
  -3.37999985E-02  -7.52553334E-14
  -3.37500013E-02   1.47603650E-13
  -3.37000005E-02   1.56355519E-13
  -3.36499996E-02  -1.12893974E-13
  -3.35999988E-02  -5.96724059E-13
  -3.35500017E-02  -1.11946249E-12
  -3.35000008E-02  -1.46433744E-12
  -3.34500000E-02  -1.47280528E-12
  -3.33999991E-02  -1.12728544E-12
  -3.33499983E-02  -5.75481991E-13
  -3.33000012E-02  -7.80193103E-14
  -3.32500003E-02   1.03885257E-13
  -3.31999995E-02  -1.66746432E-13
  -3.31499986E-02  -8.23895260E-13
  -3.31000015E-02  -1.60851616E-12
  -3.30500007E-02  -2.17174542E-12
  -3.29999998E-02  -2.23157799E-12
  -3.29499990E-02  -1.71354001E-12
  -3.29000019E-02  -8.06517450E-13
  -3.28500010E-02   1.01381143E-13
  -3.28000002E-02   5.88111753E-13
  -3.27499993E-02   3.95104115E-13
  -3.26999985E-02  -4.34254846E-13
  -3.26500013E-02  -1.54671480E-12
  -3.26000005E-02  -2.41792849E-12
  -3.25499997E-02  -2.58555699E-12
  -3.24999988E-02  -1.87455195E-12
  -3.24500017E-02  -5.06797241E-13
  -3.24000008E-02   9.67468835E-13
  -3.23500000E-02   1.89992510E-12
  -3.22999991E-02   1.84130901E-12
  -3.22499983E-02   7.70457916E-13
  -3.22000012E-02  -8.59173193E-13
  -3.21500003E-02  -2.29326193E-12
  -3.20999995E-02  -2.80719870E-12
  -3.20499986E-02  -2.05034492E-12
  -3.20000015E-02  -2.42340978E-13
  -3.19500007E-02   1.88360503E-12
  -3.18999998E-02   3.38447543E-12
  -3.18499990E-02   3.53499413E-12
  -3.18000019E-02   2.18725970E-12
  -3.17500010E-02  -1.12628819E-13
  -3.17000002E-02  -2.32530813E-12
  -3.16499993E-02  -3.36685649E-12
  -3.15999985E-02  -2.61385640E-12
  -3.15500014E-02  -2.31796732E-13
  -3.15000005E-02   2.84100131E-12
  -3.14499997E-02   5.27259573E-12
  -3.13999988E-02   5.92927834E-12
  -3.13500017E-02   4.41859960E-12
  -3.13000008E-02   1.32576318E-12
  -3.12500000E-02  -1.98941536E-12
  -3.11999992E-02  -3.97152970E-12
  -3.11500002E-02  -3.58060174E-12
  -3.10999993E-02  -8.12239544E-13
  -3.10500003E-02   3.22913961E-12
  -3.09999995E-02   6.76890271E-12
  -3.09500005E-02   8.14285618E-12
  -3.08999997E-02   6.57902509E-12
  -3.08500007E-02   2.61632643E-12
  -3.07999998E-02  -2.05899555E-12
  -3.07500008E-02  -5.32122003E-12
  -3.07000000E-02  -5.56330763E-12
  -3.06499992E-02  -2.47601267E-12
  -3.06000002E-02   2.72561964E-12
  -3.05499993E-02   7.76845688E-12
  -3.05000003E-02   1.03070399E-11
  -3.04499995E-02   9.00370750E-12
  -3.04000005E-02   4.20809308E-12
  -3.03499997E-02  -2.10322905E-12
  -3.03000007E-02  -7.14334147E-12
  -3.02499998E-02  -8.55455203E-12
  -3.02000009E-02  -5.52204723E-12
  -3.01500000E-02   7.61037717E-13
  -3.00999992E-02   7.52988037E-12
  -3.00500002E-02   1.16356690E-11
  -2.99999993E-02   1.09787023E-11
  -2.99500003E-02   5.53892088E-12
  -2.98999995E-02  -2.49455079E-12
  -2.98500005E-02  -9.60483776E-12
  -2.97999997E-02  -1.24892926E-11
  -2.97500007E-02  -9.58782099E-12
  -2.96999998E-02  -1.89319892E-12
  -2.96500009E-02   7.36788408E-12
  -2.96000000E-02   1.40962554E-11
  -2.95499992E-02   1.51533508E-11
  -2.95000002E-02   9.84853865E-12
  -2.94499993E-02   3.80327009E-13
  -2.94000003E-02  -9.02414862E-12
  -2.93499995E-02  -1.39422753E-11
  -2.93000005E-02  -1.17699097E-11
  -2.92499997E-02  -3.00254331E-12
  -2.92000007E-02   8.83875785E-12
  -2.91499998E-02   1.86683030E-11
  -2.91000009E-02   2.20816716E-11
  -2.90500000E-02   1.73968496E-11
  -2.89999992E-02   6.54813139E-12
  -2.89500002E-02  -5.62912390E-12
  -2.88999993E-02  -1.34708295E-11
  -2.88500004E-02  -1.30300970E-11
  -2.87999995E-02  -3.95699489E-12
  -2.87500005E-02   1.01746554E-11
  -2.86999997E-02   2.33113789E-11
  -2.86500007E-02   2.95556322E-11
  -2.85999998E-02   2.58449546E-11
  -2.85500009E-02   1.34575207E-11
  -2.85000000E-02  -2.39079806E-12
  -2.84499992E-02  -1.47556134E-11
  -2.84000002E-02  -1.80513868E-11
  -2.83499993E-02  -1.06504016E-11
  -2.83000004E-02   4.20720533E-12
  -2.82499995E-02   1.96754505E-11
  -2.82000005E-02   2.82531568E-11
  -2.81499997E-02   2.51534852E-11
  -2.81000007E-02   1.05814931E-11
  -2.80499998E-02  -1.01564286E-11
  -2.80000009E-02  -2.88473672E-11
  -2.79500000E-02  -3.79685970E-11
  -2.78999992E-02  -3.41138472E-11
  -2.78500002E-02  -1.96927214E-11
  -2.77999993E-02  -2.06833509E-12
  -2.77500004E-02   9.57587135E-12
  -2.76999995E-02   8.31153202E-12
  -2.76500005E-02  -7.32068399E-12
  -2.75999997E-02  -3.24406717E-11
  -2.75500007E-02  -5.77810126E-11
  -2.74999999E-02  -7.36849956E-11
  -2.74500009E-02  -7.44232037E-11
  -2.74000000E-02  -6.08952680E-11
  -2.73499992E-02  -4.04420317E-11
  -2.73000002E-02  -2.37491415E-11
  -2.72499993E-02  -2.01332562E-11
  -2.72000004E-02  -3.32746920E-11
  -2.71499995E-02  -5.93319144E-11
  -2.71000005E-02  -8.83693743E-11
  -2.70499997E-02  -1.08572380E-10
  -2.70000007E-02  -1.11451459E-10
  -2.69499999E-02  -9.57331228E-11
  -2.69000009E-02  -6.81466203E-11
  -2.68500000E-02  -4.06490223E-11
  -2.67999992E-02  -2.52153055E-11
  -2.67500002E-02  -2.84499022E-11
  -2.66999993E-02  -4.84311133E-11
  -2.66500004E-02  -7.52770069E-11
  -2.65999995E-02  -9.53004620E-11
  -2.65500005E-02  -9.70076727E-11
  -2.64999997E-02  -7.63108396E-11
  -2.64500007E-02  -3.85927575E-11
  -2.63999999E-02   3.40222880E-12
  -2.63500009E-02   3.50395234E-11
  -2.63000000E-02   4.62844763E-11
  -2.62499992E-02   3.63363749E-11
  -2.62000002E-02   1.42710010E-11
  -2.61499994E-02  -4.72223779E-12
  -2.61000004E-02  -5.96406388E-12
  -2.60499995E-02   1.81046688E-11
  -2.60000005E-02   6.42844805E-11
  -2.59499997E-02   1.19670662E-10
  -2.59000007E-02   1.67072634E-10
  -2.58499999E-02   1.92509536E-10
  -2.58000009E-02   1.91493932E-10
  -2.57500000E-02   1.71257702E-10
  -2.56999992E-02   1.47802617E-10
  -2.56500002E-02   1.38939291E-10
  -2.55999994E-02   1.56307189E-10
  -2.55500004E-02   1.99913919E-10
  -2.54999995E-02   2.57711075E-10
  -2.54500005E-02   3.10545256E-10
  -2.53999997E-02   3.40429629E-10
  -2.53500007E-02   3.38535061E-10
  -2.52999999E-02   3.09321707E-10
  -2.52500009E-02   2.68852857E-10
  -2.52000000E-02   2.37877801E-10
  -2.51499992E-02   2.32627792E-10
  -2.51000002E-02   2.57375316E-10
  -2.50499994E-02   3.02132624E-10
  -2.50000004E-02   3.46663170E-10
  -2.49499995E-02   3.69185960E-10
  -2.49000005E-02   3.56010665E-10
  -2.48499997E-02   3.07819353E-10
  -2.48000007E-02   2.39695735E-10
  -2.47499999E-02   1.74721293E-10
  -2.47000009E-02   1.33833361E-10
  -2.46500000E-02   1.26388788E-10
  -2.45999992E-02   1.45674903E-10
  -2.45500002E-02   1.71509945E-10
  -2.44999994E-02   1.78951950E-10
  -2.44500004E-02   1.49374901E-10
  -2.43999995E-02   7.90099583E-11
  -2.43500005E-02  -1.89386527E-11
  -2.42999997E-02  -1.19713642E-10
  -2.42500007E-02  -1.97719355E-10
  -2.41999999E-02  -2.37859343E-10
  -2.41500009E-02  -2.42431131E-10
  -2.41000000E-02  -2.30378730E-10
  -2.40499992E-02  -2.29058550E-10
  -2.40000002E-02  -2.62035921E-10
  -2.39499994E-02  -3.38296252E-10
  -2.39000004E-02  -4.47745591E-10
  -2.38499995E-02  -5.65161029E-10
  -2.38000005E-02  -6.61006305E-10
  -2.37499997E-02  -7.14411308E-10
  -2.37000007E-02  -7.22528481E-10
  -2.36499999E-02  -7.01988301E-10
  -2.36000009E-02  -6.81634693E-10
  -2.35500000E-02  -6.89626967E-10
  -2.34999992E-02  -7.40591810E-10
  -2.34500002E-02  -8.28605962E-10
  -2.33999994E-02  -9.29278932E-10
  -2.33500004E-02  -1.01017505E-09
  -2.32999995E-02  -1.04504227E-09
  -2.32500006E-02  -1.02551412E-09
  -2.31999997E-02  -9.64975100E-10
  -2.31500007E-02  -8.92715568E-10
  -2.30999999E-02  -8.40850334E-10
  -2.30500009E-02  -8.29778524E-10
  -2.30000000E-02  -8.58720872E-10
  -2.29499992E-02  -9.05680808E-10
  -2.29000002E-02  -9.36989708E-10
  -2.28499994E-02  -9.22263321E-10
  -2.28000004E-02  -8.48091264E-10
  -2.27499995E-02  -7.24258431E-10
  -2.27000006E-02  -5.79584214E-10
  -2.26499997E-02  -4.49131426E-10
  -2.26000007E-02  -3.58470559E-10
  -2.25499999E-02  -3.12090159E-10
  -2.25000009E-02  -2.91250468E-10
  -2.24500000E-02  -2.62357830E-10
  -2.23999992E-02  -1.92171154E-10
  -2.23500002E-02  -6.30072314E-11
  -2.22999994E-02   1.18955484E-10
  -2.22500004E-02   3.26106558E-10
  -2.21999995E-02   5.21549637E-10
  -2.21500006E-02   6.75509648E-10
  -2.20999997E-02   7.78563713E-10
  -2.20500007E-02   8.45645831E-10
  -2.19999999E-02   9.08945641E-10
  -2.19500009E-02   1.00288478E-09
  -2.19000001E-02   1.14799270E-09
  -2.18499992E-02   1.34105516E-09
  -2.18000002E-02   1.55607349E-09
  -2.17499994E-02   1.75562886E-09
  -2.17000004E-02   1.90747951E-09
  -2.16499995E-02   1.99878447E-09
  -2.16000006E-02   2.04141082E-09
  -2.15499997E-02   2.06588258E-09
  -2.15000007E-02   2.10674722E-09
  -2.14499999E-02   2.18611373E-09
  -2.14000009E-02   2.30297581E-09
  -2.13500001E-02   2.43326270E-09
  -2.12999992E-02   2.54058197E-09
  -2.12500002E-02   2.59266097E-09
  -2.11999994E-02   2.57581889E-09
  -2.11500004E-02   2.50073473E-09
  -2.10999995E-02   2.39682718E-09
  -2.10500006E-02   2.29791364E-09
  -2.09999997E-02   2.22590524E-09
  -2.09500007E-02   2.18022356E-09
  -2.08999999E-02   2.13792828E-09
  -2.08500009E-02   2.06449591E-09
  -2.08000001E-02   1.93012206E-09
  -2.07499992E-02   1.72379477E-09
  -2.07000002E-02   1.45842305E-09
  -2.06499994E-02   1.16456322E-09
  -2.06000004E-02   8.75732431E-10
  -2.05499995E-02   6.12364659E-10
  -2.05000006E-02   3.72159442E-10
  -2.04499997E-02   1.31543360E-10
  -2.04000007E-02  -1.42387990E-10
  -2.03499999E-02  -4.75183448E-10
  -2.03000009E-02  -8.71725858E-10
  -2.02500001E-02  -1.31287603E-09
  -2.01999992E-02  -1.76388137E-09
  -2.01500002E-02  -2.19060436E-09
  -2.00999994E-02  -2.57568789E-09
  -2.00500004E-02  -2.92663560E-09
  -1.99999996E-02  -3.27157967E-09
  -1.99500006E-02  -3.64450403E-09
  -1.98999997E-02  -4.06698142E-09
  -1.98500007E-02  -4.53544402E-09
  -1.97999999E-02  -5.02056574E-09
  -1.97500009E-02  -5.47954926E-09
  -1.97000001E-02  -5.87568882E-09
  -1.96499992E-02  -6.19571328E-09
  -1.96000002E-02  -6.45612808E-09
  -1.95499994E-02  -6.69482869E-09
  -1.95000004E-02  -6.95144253E-09
  -1.94499996E-02  -7.24564098E-09
  -1.94000006E-02  -7.56420349E-09
  -1.93499997E-02  -7.86379761E-09
  -1.93000007E-02  -8.08904499E-09
  -1.92499999E-02  -8.19782020E-09
  -1.92000009E-02  -8.18166868E-09
  -1.91500001E-02  -8.07089595E-09
  -1.90999992E-02  -7.92081867E-09
  -1.90500002E-02  -7.78477105E-09
  -1.89999994E-02  -7.68628450E-09
  -1.89500004E-02  -7.60409424E-09
  -1.88999996E-02  -7.47822160E-09
  -1.88500006E-02  -7.23559657E-09
  -1.87999997E-02  -6.82401913E-09
  -1.87500007E-02  -6.23848395E-09
  -1.86999999E-02  -5.52656187E-09
  -1.86500009E-02  -4.76876227E-09
  -1.86000001E-02  -4.04174827E-09
  -1.85499992E-02  -3.38097461E-09
  -1.85000002E-02  -2.76073897E-09
  -1.84499994E-02  -2.10249085E-09
  -1.84000004E-02  -1.30925581E-09
  -1.83499996E-02  -3.11472820E-10
  -1.83000006E-02   8.96919761E-10
  -1.82499997E-02   2.25004348E-09
  -1.82000007E-02   3.63509778E-09
  -1.81499999E-02   4.94110575E-09
  -1.81000009E-02   6.10978246E-09
  -1.80500001E-02   7.16455739E-09
  -1.79999992E-02   8.20256219E-09
  -1.79500002E-02   9.35109146E-09
  -1.78999994E-02   1.07068825E-08
  -1.78500004E-02   1.22857031E-08
  -1.77999996E-02   1.40067105E-08
  -1.77500006E-02   1.57209961E-08
  -1.76999997E-02   1.72735657E-08
  -1.76500008E-02   1.85717735E-08
  -1.75999999E-02   1.96285335E-08
  -1.75500009E-02   2.05586019E-08
  -1.75000001E-02   2.15268781E-08
  -1.74499992E-02   2.26701591E-08
  -1.74000002E-02   2.40273472E-08
  -1.73499994E-02   2.55110351E-08
  -1.73000004E-02   2.69360072E-08
  -1.72499996E-02   2.80946946E-08
  -1.72000006E-02   2.88470421E-08
  -1.71499997E-02   2.91839584E-08
  -1.71000008E-02   2.92336022E-08
  -1.70499999E-02   2.92044131E-08
  -1.70000009E-02   2.92880227E-08
  -1.69500001E-02   2.95646192E-08
  -1.68999992E-02   2.99548333E-08
  -1.68500002E-02   3.02428624E-08
  -1.67999994E-02   3.01634877E-08
  -1.67500004E-02   2.95164693E-08
  -1.66999996E-02   2.82569719E-08
  -1.66500006E-02   2.65192295E-08
  -1.65999997E-02   2.45593252E-08
  -1.65500008E-02   2.26393819E-08
  -1.64999999E-02   2.09033360E-08
  -1.64500009E-02   1.93011225E-08
  -1.64000001E-02   1.75984169E-08
  -1.63499992E-02   1.54711408E-08
  -1.63000003E-02   1.26460877E-08
  -1.62499994E-02   9.02498165E-09
  -1.62000004E-02   4.73439954E-09
  -1.61499996E-02   7.59370483E-11
  -1.61000006E-02  -4.60567717E-09
  -1.60499997E-02  -9.07991193E-09
  -1.60000008E-02  -1.33424134E-08
  -1.59499999E-02  -1.76285138E-08
  -1.59000009E-02  -2.23175345E-08
  -1.58500001E-02  -2.77669461E-08
  -1.57999992E-02  -3.41490178E-08
  -1.57500003E-02  -4.13643804E-08
  -1.56999994E-02  -4.90748029E-08
  -1.56500004E-02  -5.68458596E-08
  -1.55999996E-02  -6.43391331E-08
  -1.55499997E-02  -7.14681221E-08
  -1.54999997E-02  -7.84461562E-08
  -1.54499998E-02  -8.56996820E-08
  -1.53999999E-02  -9.36810878E-08
  -1.53500000E-02  -1.02661431E-07
  -1.53000001E-02  -1.12597128E-07
  -1.52500002E-02  -1.23133447E-07
  -1.52000003E-02  -1.33748870E-07
  -1.51500003E-02  -1.43980600E-07
  -1.51000004E-02  -1.53632300E-07
  -1.50499996E-02  -1.62868943E-07
  -1.49999997E-02  -1.72151104E-07
  -1.49499997E-02  -1.82033574E-07
  -1.48999998E-02  -1.92912751E-07
  -1.48499999E-02  -2.04836311E-07
  -1.48000000E-02  -2.17462954E-07
  -1.47500001E-02  -2.30196150E-07
  -1.47000002E-02  -2.42438830E-07
  -1.46500003E-02  -2.53857024E-07
  -1.46000003E-02  -2.64534975E-07
  -1.45500004E-02  -2.74946899E-07
  -1.44999996E-02  -2.85751895E-07
  -1.44499997E-02  -2.97498644E-07
  -1.43999998E-02  -3.10368023E-07
  -1.43499998E-02  -3.24073397E-07
  -1.42999999E-02  -3.37968999E-07
  -1.42500000E-02  -3.51324360E-07
  -1.42000001E-02  -3.63645398E-07
  -1.41500002E-02  -3.74901020E-07
  -1.41000003E-02  -3.85550862E-07
  -1.40500003E-02  -3.96351112E-07
  -1.40000004E-02  -4.08021322E-07
  -1.39499996E-02  -4.20916678E-07
  -1.38999997E-02  -4.34854343E-07
  -1.38499998E-02  -4.49175928E-07
  -1.37999998E-02  -4.63026765E-07
  -1.37499999E-02  -4.75733117E-07
  -1.37000000E-02  -4.87109844E-07
  -1.36500001E-02  -4.97561018E-07
  -1.36000002E-02  -5.07919083E-07
  -1.35500003E-02  -5.19085916E-07
  -1.35000004E-02  -5.31629837E-07
  -1.34500004E-02  -5.45524756E-07
  -1.33999996E-02  -5.60144713E-07
  -1.33499997E-02  -5.74529906E-07
  -1.32999998E-02  -5.87813986E-07
  -1.32499998E-02  -5.99618943E-07
  -1.31999999E-02  -6.10245991E-07
  -1.31500000E-02  -6.20569836E-07
  -1.31000001E-02  -6.31670162E-07
  -1.30500002E-02  -6.44358806E-07
  -1.30000003E-02  -6.58816930E-07
  -1.29500004E-02  -6.74504520E-07
  -1.29000004E-02  -6.90387992E-07
  -1.28499996E-02  -7.05400168E-07
  -1.27999997E-02  -7.18928561E-07
  -1.27499998E-02  -7.31112834E-07
  -1.26999998E-02  -7.42816383E-07
  -1.26499999E-02  -7.55272481E-07
  -1.26000000E-02  -7.69554845E-07
  -1.25500001E-02  -7.86105147E-07
  -1.25000002E-02  -8.04528895E-07
  -1.24500003E-02  -8.23761923E-07
  -1.24000004E-02  -8.42544807E-07
  -1.23500004E-02  -8.59992610E-07
  -1.22999996E-02  -8.76017168E-07
  -1.22499997E-02  -8.91406387E-07
  -1.21999998E-02  -9.07508365E-07
  -1.21499998E-02  -9.25657673E-07
  -1.20999999E-02  -9.46592991E-07
  -1.20500000E-02  -9.70127076E-07
  -1.20000001E-02  -9.95222535E-07
  -1.19500002E-02  -1.02044760E-06
  -1.19000003E-02  -1.04462254E-06
  -1.18500004E-02  -1.06736979E-06
  -1.18000004E-02  -1.08931977E-06
  -1.17499996E-02  -1.11187410E-06
  -1.16999997E-02  -1.13661315E-06
  -1.16499998E-02  -1.16460546E-06
  -1.15999999E-02  -1.19593631E-06
  -1.15499999E-02  -1.22966037E-06
  -1.15000000E-02  -1.26421162E-06
  -1.14500001E-02  -1.29809860E-06
  -1.14000002E-02  -1.33058904E-06
  -1.13500003E-02  -1.36207234E-06
  -1.13000004E-02  -1.39392910E-06
  -1.12500004E-02  -1.42795011E-06
  -1.11999996E-02  -1.46556602E-06
  -1.11499997E-02  -1.50720427E-06
  -1.10999998E-02  -1.55209227E-06
  -1.10499999E-02  -1.59859292E-06
  -1.09999999E-02  -1.64491871E-06
  -1.09500000E-02  -1.68994484E-06
  -1.09000001E-02  -1.73373417E-06
  -1.08500002E-02  -1.77755783E-06
  -1.08000003E-02  -1.82336657E-06
  -1.07500004E-02  -1.87293585E-06
  -1.07000005E-02  -1.92708399E-06
  -1.06499996E-02  -1.98530392E-06
  -1.05999997E-02  -2.04596199E-06
  -1.05499998E-02  -2.10700387E-06
  -1.04999999E-02  -2.16688204E-06
  -1.04499999E-02  -2.22527206E-06
  -1.04000000E-02  -2.28324416E-06
  -1.03500001E-02  -2.34283425E-06
  -1.03000002E-02  -2.40617464E-06
  -1.02500003E-02  -2.47454295E-06
  -1.02000004E-02  -2.54779388E-06
  -1.01500005E-02  -2.62440813E-06
  -1.00999996E-02  -2.70214150E-06
  -1.00499997E-02  -2.77901972E-06
  -9.99999978E-03  -2.85425244E-06
  -9.94999986E-03  -2.92861955E-06
  -9.89999995E-03  -3.00415331E-06
  -9.85000003E-03  -3.08328072E-06
  -9.80000012E-03  -3.16776845E-06
  -9.75000020E-03  -3.25791848E-06
  -9.70000029E-03  -3.35243135E-06
  -9.65000037E-03  -3.44895943E-06
  -9.60000046E-03  -3.54513668E-06
  -9.54999961E-03  -3.63965955E-06
  -9.49999969E-03  -3.73289618E-06
  -9.44999978E-03  -3.82678536E-06
  -9.39999986E-03  -3.92402262E-06
  -9.34999995E-03  -4.02687101E-06
  -9.30000003E-03  -4.13618272E-06
  -9.25000012E-03  -4.25100006E-06
  -9.20000020E-03  -4.36897926E-06
  -9.15000029E-03  -4.48743231E-06
  -9.10000037E-03  -4.60453339E-06
  -9.05000046E-03  -4.72018792E-06
  -8.99999961E-03  -4.83611711E-06
  -8.94999970E-03  -4.95515451E-06
  -8.89999978E-03  -5.08005132E-06
  -8.84999987E-03  -5.21226002E-06
  -8.79999995E-03  -5.35128311E-06
  -8.75000004E-03  -5.49490005E-06
  -8.70000012E-03  -5.64015409E-06
  -8.65000021E-03  -5.78469189E-06
  -8.60000029E-03  -5.92783954E-06
  -8.55000038E-03  -6.07097036E-06
  -8.50000046E-03  -6.21696881E-06
  -8.44999962E-03  -6.36898721E-06
  -8.39999970E-03  -6.52909648E-06
  -8.34999979E-03  -6.69740302E-06
  -8.29999987E-03  -6.87199690E-06
  -8.24999996E-03  -7.04976719E-06
  -8.20000004E-03  -7.22784716E-06
  -8.15000013E-03  -7.40496262E-06
  -8.10000021E-03  -7.58200986E-06
  -8.05000030E-03  -7.76176603E-06
  -8.00000038E-03  -7.94773860E-06
  -7.95000046E-03  -8.14264968E-06
  -7.89999962E-03  -8.34725688E-06
  -7.84999970E-03  -8.56005136E-06
  -7.79999979E-03  -8.77795446E-06
  -7.74999987E-03  -8.99766019E-06
  -7.69999996E-03  -9.21718583E-06
  -7.65000004E-03  -9.43681516E-06
  -7.60000013E-03  -9.65905474E-06
  -7.55000021E-03  -9.88760894E-06
  -7.49999983E-03  -1.01257619E-05
  -7.44999992E-03  -1.03750008E-05
  -7.40000000E-03  -1.06343869E-05
  -7.35000009E-03  -1.09009752E-05
  -7.30000017E-03  -1.11711061E-05
  -7.24999979E-03  -1.14420882E-05
  -7.19999988E-03  -1.17135251E-05
  -7.14999996E-03  -1.19875131E-05
  -7.10000005E-03  -1.22677993E-05
  -7.05000013E-03  -1.25582264E-05
  -7.00000022E-03  -1.28610673E-05
  -6.94999984E-03  -1.31760553E-05
  -6.89999992E-03  -1.35004902E-05
  -6.85000001E-03  -1.38305240E-05
  -6.80000009E-03  -1.41629189E-05
  -6.75000018E-03  -1.44964306E-05
  -6.69999979E-03  -1.48325471E-05
  -6.64999988E-03  -1.51749309E-05
  -6.59999996E-03  -1.55278049E-05
  -6.55000005E-03  -1.58941475E-05
  -6.50000013E-03  -1.62744309E-05
  -6.45000022E-03  -1.66664468E-05
  -6.39999984E-03  -1.70663279E-05
  -6.34999992E-03  -1.74702127E-05
  -6.30000001E-03  -1.78760783E-05
  -6.25000009E-03  -1.82846779E-05
  -6.20000018E-03  -1.86992820E-05
  -6.14999980E-03  -1.91244199E-05
  -6.09999988E-03  -1.95638095E-05
  -6.04999997E-03  -2.00188206E-05
  -6.00000005E-03  -2.04879289E-05
  -5.95000014E-03  -2.09672962E-05
  -5.90000022E-03  -2.14525535E-05
  -5.84999984E-03  -2.19407902E-05
  -5.79999993E-03  -2.24319556E-05
  -5.75000001E-03  -2.29290144E-05
  -5.70000010E-03  -2.34365980E-05
  -5.65000018E-03  -2.39590645E-05
  -5.59999980E-03  -2.44986895E-05
  -5.54999989E-03  -2.50546182E-05
  -5.49999997E-03  -2.56233361E-05
  -5.45000006E-03  -2.62002777E-05
  -5.40000014E-03  -2.67817395E-05
  -5.35000023E-03  -2.73667629E-05
  -5.29999984E-03  -2.79576216E-05
  -5.24999993E-03  -2.85587739E-05
  -5.20000001E-03  -2.91750621E-05
  -5.15000010E-03  -2.98096802E-05
  -5.10000018E-03  -3.04626919E-05
  -5.04999980E-03  -3.11311342E-05
  -4.99999989E-03  -3.18103703E-05
  -4.94999997E-03  -3.24960602E-05
  -4.90000006E-03  -3.31861847E-05
  -4.85000014E-03  -3.38821847E-05
  -4.80000023E-03  -3.45883382E-05
  -4.74999985E-03  -3.53098440E-05
  -4.69999993E-03  -3.60507838E-05
  -4.65000002E-03  -3.68122783E-05
  -4.60000010E-03  -3.75920135E-05
  -4.55000019E-03  -3.83854458E-05
  -4.49999981E-03  -3.91877802E-05
  -4.44999989E-03  -3.99962009E-05
  -4.39999998E-03  -4.08111991E-05
  -4.35000006E-03  -4.16363255E-05
  -4.30000015E-03  -4.24769351E-05
  -4.25000023E-03  -4.33377609E-05
  -4.19999985E-03  -4.42209166E-05
  -4.14999994E-03  -4.51251726E-05
  -4.10000002E-03  -4.60463998E-05
  -4.05000011E-03  -4.69795450E-05
  -4.00000019E-03  -4.79208502E-05
  -3.94999981E-03  -4.88696169E-05
  -3.89999989E-03  -4.98285845E-05
  -3.84999998E-03  -5.08031080E-05
  -3.80000006E-03  -5.17986155E-05
  -3.74999992E-03  -5.28181954E-05
  -3.70000000E-03  -5.38615677E-05
  -3.65000009E-03  -5.49252291E-05
  -3.59999994E-03  -5.60042645E-05
  -3.55000002E-03  -5.70941847E-05
  -3.50000011E-03  -5.81930653E-05
  -3.44999996E-03  -5.93027835E-05
  -3.40000005E-03  -6.04282504E-05
  -3.34999990E-03  -6.15752942E-05
  -3.29999998E-03  -6.27478876E-05
  -3.25000007E-03  -6.39469654E-05
  -3.19999992E-03  -6.51697919E-05
  -3.15000000E-03  -6.64113468E-05
  -3.10000009E-03  -6.76668569E-05
  -3.04999994E-03  -6.89334920E-05
  -3.00000003E-03  -7.02119796E-05
  -2.95000011E-03  -7.15063943E-05
  -2.89999996E-03  -7.28225205E-05
  -2.85000005E-03  -7.41654367E-05
  -2.79999990E-03  -7.55372093E-05
  -2.74999999E-03  -7.69360777E-05
  -2.70000007E-03  -7.83573705E-05
  -2.64999992E-03  -7.97957691E-05
  -2.60000001E-03  -8.12473954E-05
  -2.55000009E-03  -8.27116164E-05
  -2.49999994E-03  -8.41919682E-05
  -2.45000003E-03  -8.56942352E-05
  -2.40000011E-03  -8.72241435E-05
  -2.34999997E-03  -8.87847418E-05
  -2.30000005E-03  -9.03756081E-05
  -2.24999990E-03  -9.19929080E-05
  -2.19999999E-03  -9.36307188E-05
  -2.15000007E-03  -9.52845585E-05
  -2.09999993E-03  -9.69528992E-05
  -2.05000001E-03  -9.86376690E-05
  -2.00000009E-03  -1.00343816E-04
  -1.94999995E-03  -1.02077232E-04
  -1.90000003E-03  -1.03842329E-04
  -1.85000000E-03  -1.05639687E-04
  -1.79999997E-03  -1.07466454E-04
  -1.75000005E-03  -1.09317618E-04
  -1.70000002E-03  -1.11187561E-04
  -1.64999999E-03  -1.13073656E-04
  -1.59999996E-03  -1.14976843E-04
  -1.55000004E-03  -1.16901123E-04
  -1.50000001E-03  -1.18852346E-04
  -1.44999998E-03  -1.20835364E-04
  -1.39999995E-03  -1.22851765E-04
  -1.35000004E-03  -1.24899656E-04
  -1.30000000E-03  -1.26974614E-04
  -1.24999997E-03  -1.29071064E-04
  -1.20000006E-03  -1.31185370E-04
  -1.15000003E-03  -1.33317662E-04
  -1.09999999E-03  -1.35470924E-04
  -1.04999996E-03  -1.37650146E-04
  -1.00000005E-03  -1.39860655E-04
  -9.50000016E-04  -1.42105360E-04
  -8.99999985E-04  -1.44383157E-04
  -8.50000011E-04  -1.46690116E-04
  -7.99999980E-04  -1.49021114E-04
  -7.50000007E-04  -1.51371511E-04
  -6.99999975E-04  -1.53739820E-04
  -6.50000002E-04  -1.56128066E-04
  -6.00000028E-04  -1.58540803E-04
  -5.49999997E-04  -1.60983574E-04
  -5.00000024E-04  -1.63460136E-04
  -4.49999992E-04  -1.65971302E-04
  -3.99999990E-04  -1.68513434E-04
  -3.49999988E-04  -1.71080261E-04
  -3.00000014E-04  -1.73667053E-04
  -2.50000012E-04  -1.76272049E-04
  -1.99999995E-04  -1.78896036E-04
  -1.50000007E-04  -1.81542870E-04
  -9.99999975E-05  -1.84217890E-04
  -4.99999987E-05  -1.86924954E-04
   0.00000000      -1.89665894E-04
   4.99999987E-05  -1.92438325E-04
   9.99999975E-05  -1.95237313E-04
   1.50000007E-04  -1.98057751E-04
   1.99999995E-04  -2.00896029E-04
   2.50000012E-04  -2.03752468E-04
   3.00000014E-04  -2.06629295E-04
   3.49999988E-04  -2.09530263E-04
   3.99999990E-04  -2.12459359E-04
   4.49999992E-04  -2.15419626E-04
   5.00000024E-04  -2.18410962E-04
   5.49999997E-04  -2.21428971E-04
   6.00000028E-04  -2.24469084E-04
   6.50000002E-04  -2.27527664E-04
   6.99999975E-04  -2.30603066E-04
   7.50000007E-04  -2.33695449E-04
   7.99999980E-04  -2.36807115E-04
   8.50000011E-04  -2.39943256E-04
   8.99999985E-04  -2.43107803E-04
   9.50000016E-04  -2.46300624E-04
   1.00000005E-03  -2.49519246E-04
   1.04999996E-03  -2.52758648E-04
   1.09999999E-03  -2.56013183E-04
   1.15000003E-03  -2.59280758E-04
   1.20000006E-03  -2.62561749E-04
   1.24999997E-03  -2.65858689E-04
   1.30000000E-03  -2.69176700E-04
   1.35000004E-03  -2.72519945E-04
   1.39999995E-03  -2.75888859E-04
   1.44999998E-03  -2.79279891E-04
   1.50000001E-03  -2.82687659E-04
   1.55000004E-03  -2.86106340E-04
   1.59999996E-03  -2.89533345E-04
   1.64999999E-03  -2.92969315E-04
   1.70000002E-03  -2.96416314E-04
   1.75000005E-03  -2.99878593E-04
   1.79999997E-03  -3.03359877E-04
   1.85000000E-03  -3.06861155E-04
   1.90000003E-03  -3.10379313E-04
   1.94999995E-03  -3.13909841E-04
   2.00000009E-03  -3.17447702E-04
   2.05000001E-03  -3.20989348E-04
   2.09999993E-03  -3.24535300E-04
   2.15000007E-03  -3.28086637E-04
   2.19999999E-03  -3.31645278E-04
   2.24999990E-03  -3.35214776E-04
   2.30000005E-03  -3.38795158E-04
   2.34999997E-03  -3.42384476E-04
   2.40000011E-03  -3.45979875E-04
   2.45000003E-03  -3.49576847E-04
   2.49999994E-03  -3.53172043E-04
   2.55000009E-03  -3.56765202E-04
   2.60000001E-03  -3.60357517E-04
   2.64999992E-03  -3.63950152E-04
   2.70000007E-03  -3.67544679E-04
   2.74999999E-03  -3.71140690E-04
   2.79999990E-03  -3.74737370E-04