  -3.99999991E-02   0.00000000    
  -3.99499983E-02   0.00000000    
  -3.99000011E-02   0.00000000    
  -3.98500003E-02   0.00000000    
  -3.97999994E-02   1.00206256E-17
  -3.97499986E-02   1.12898573E-16
  -3.97000015E-02   6.64386968E-16
  -3.96500006E-02   2.70757067E-15
  -3.95999998E-02   8.54673354E-15
  -3.95499989E-02   2.21675485E-14
  -3.95000018E-02   4.89537915E-14
  -3.94500010E-02   9.42041177E-14
  -3.94000001E-02   1.60513692E-13
  -3.93499993E-02   2.45080757E-13
  -3.92999984E-02   3.38908399E-13
  -3.92500013E-02   4.29871904E-13
  -3.92000005E-02   5.10085951E-13
  -3.91499996E-02   5.85177631E-13
  -3.90999988E-02   6.80377629E-13
  -3.90500017E-02   8.37865313E-13
  -3.90000008E-02   1.10292905E-12
  -3.89500000E-02   1.50257682E-12
  -3.88999991E-02   2.02632572E-12
  -3.88499983E-02   2.62107350E-12
  -3.88000011E-02   3.20767935E-12
  -3.87500003E-02   3.71681982E-12
  -3.86999995E-02   4.13001057E-12
  -3.86499986E-02   4.50454301E-12
  -3.86000015E-02   4.96369742E-12
  -3.85500006E-02   5.64730554E-12
  -3.84999998E-02   6.63812755E-12
  -3.84499989E-02   7.89702158E-12
  -3.84000018E-02   9.24376894E-12
  -3.83500010E-02   1.04048107E-11
  -3.83000001E-02   1.11181247E-11
  -3.82499993E-02   1.12533463E-11
  -3.81999984E-02   1.08894742E-11
  -3.81500013E-02   1.03046096E-11
  -3.81000005E-02   9.86940477E-12
  -3.80499996E-02   9.88202055E-12
  -3.79999988E-02   1.04151930E-11
  -3.79500017E-02   1.12478906E-11
  -3.79000008E-02   1.19213571E-11
  -3.78500000E-02   1.19043803E-11
  -3.77999991E-02   1.07995245E-11
  -3.77499983E-02   8.49744494E-12
  -3.77000012E-02   5.20521343E-12
  -3.76500003E-02   1.33128458E-12
  -3.75999995E-02  -2.72207755E-12
  -3.75499986E-02  -6.76338673E-12
  -3.75000015E-02  -1.09204668E-11
  -3.74500006E-02  -1.56070816E-11
  -3.73999998E-02  -2.13676056E-11
  -3.73499990E-02  -2.86695043E-11
  -3.73000018E-02  -3.77250835E-11
  -3.72500010E-02  -4.83989793E-11
  -3.72000001E-02  -6.02162070E-11
  -3.71499993E-02  -7.24515656E-11
  -3.70999984E-02  -8.42707709E-11
  -3.70500013E-02  -9.49033213E-11
  -3.70000005E-02  -1.03839153E-10
  -3.69499996E-02  -1.11033557E-10
  -3.68999988E-02  -1.17068730E-10
  -3.68500017E-02  -1.23174582E-10
  -3.68000008E-02  -1.30999794E-10
  -3.67500000E-02  -1.42091089E-10
  -3.66999991E-02  -1.57184765E-10
  -3.66499983E-02  -1.75580592E-10
  -3.66000012E-02  -1.94949251E-10
  -3.65500003E-02  -2.11829443E-10
  -3.64999995E-02  -2.22791632E-10
  -3.64499986E-02  -2.25881758E-10
  -3.64000015E-02  -2.21693955E-10
  -3.63500006E-02  -2.13430648E-10
  -3.62999998E-02  -2.05665304E-10
  -3.62499990E-02  -2.02126899E-10
  -3.62000018E-02  -2.03422612E-10
  -3.61500010E-02  -2.05880535E-10
  -3.61000001E-02  -2.02395670E-10
  -3.60499993E-02  -1.85317234E-10
  -3.59999985E-02  -1.50341947E-10
  -3.59500013E-02  -9.96032770E-11
  -3.59000005E-02  -4.21544744E-11
  -3.58499996E-02   8.99369901E-12
  -3.57999988E-02   4.25149083E-11
  -3.57500017E-02   5.47819845E-11
  -3.57000008E-02   5.32851055E-11
  -3.56500000E-02   5.52116131E-11
  -3.55999991E-02   8.09524531E-11
  -3.55499983E-02   1.44808165E-10
  -3.55000012E-02   2.46997006E-10
  -3.54500003E-02   3.71163406E-10
  -3.53999995E-02   4.89577434E-10
  -3.53499986E-02   5.74747971E-10
  -3.53000015E-02   6.12747353E-10
  -3.52500007E-02   6.11910911E-10
  -3.51999998E-02   6.01855177E-10
  -3.51499990E-02   6.21773744E-10
  -3.51000018E-02   7.02133518E-10
  -3.50500010E-02   8.47797388E-10
  -3.50000001E-02   1.03111319E-09
  -3.49499993E-02   1.19987686E-09
  -3.48999985E-02   1.29848843E-09
  -3.48500013E-02   1.29389599E-09
  -3.48000005E-02   1.19436239E-09
  -3.47499996E-02   1.05090647E-09
  -3.46999988E-02   9.38333189E-10
  -3.46500017E-02   9.22311894E-10
  -3.46000008E-02   1.02663278E-09
  -3.45500000E-02   1.21651955E-09
  -3.44999991E-02   1.40809209E-09
  -3.44499983E-02   1.50262125E-09
  -3.44000012E-02   1.43202072E-09
  -3.43500003E-02   1.19491683E-09
  -3.42999995E-02   8.64721517E-10
  -3.42499986E-02   5.62491442E-10
  -3.42000015E-02   4.03570427E-10
  -3.41500007E-02   4.40778719E-10
  -3.40999998E-02   6.31253272E-10
  -3.40499990E-02   8.45729820E-10
  -3.40000018E-02   9.20670040E-10
  -3.39500010E-02   7.32960193E-10
  -3.39000002E-02   2.63733285E-10
  -3.38499993E-02  -3.80591725E-10
  -3.37999985E-02  -1.00483344E-09
  -3.37500013E-02  -1.40781675E-09
  -3.37000005E-02  -1.47666868E-09
  -3.36499996E-02  -1.24874955E-09
  -3.35999988E-02  -9.08286668E-10
  -3.35500017E-02  -7.12676418E-10
  -3.35000008E-02  -8.76569317E-10
  -3.34500000E-02  -1.46490453E-09
  -3.33999991E-02  -2.34686248E-09
  -3.33499983E-02  -3.23869465E-09
  -3.33000012E-02  -3.82363341E-09
  -3.32500003E-02  -3.89910637E-09
  -3.31999995E-02  -3.48369755E-09
  -3.31499986E-02  -2.82910606E-09
  -3.31000015E-02  -2.32247954E-09
  -3.30500007E-02  -2.31532038E-09
  -3.29999998E-02  -2.95336688E-09
  -3.29499990E-02  -4.08812584E-09
  -3.29000019E-02  -5.31922684E-09
  -3.28500010E-02  -6.15911944E-09
  -3.28000002E-02  -6.25292396E-09
  -3.27499993E-02  -5.55434942E-09
  -3.26999985E-02  -4.37093695E-09
  -3.26500013E-02  -3.24643468E-09
  -3.26000005E-02  -2.72251222E-09
  -3.25499997E-02  -3.08254022E-09
  -3.24999988E-02  -4.19699520E-09
  -3.24500017E-02  -5.55163160E-09
  -3.24000008E-02  -6.45968345E-09
  -3.23500000E-02  -6.37251407E-09
  -3.22999991E-02  -5.14989207E-09
  -3.22499983E-02  -3.15920623E-09
  -3.22000012E-02  -1.14342735E-09
  -3.21500003E-02   9.79889087E-11
  -3.20999995E-02   7.95319713E-11
  -3.20499986E-02  -1.11887122E-09
  -3.20000015E-02  -2.84646129E-09
  -3.19500007E-02  -4.14323953E-09
  -3.18999998E-02  -4.16550039E-09
  -3.18499990E-02  -2.58773247E-09
  -3.18000019E-02   2.09096990E-10
  -3.17500010E-02   3.26618976E-09
  -3.17000002E-02   5.45448708E-09
  -3.16499993E-02   5.98973537E-09
  -3.15999985E-02   4.82136064E-09
  -3.15500014E-02   2.70449108E-09
  -3.15000005E-02   8.99813501E-10
  -3.14499997E-02   6.16459717E-10
  -3.13999988E-02   2.44120968E-09
  -3.13500017E-02   6.01994854E-09
  -3.13000008E-02   1.01570237E-08
  -3.12500000E-02   1.33136906E-08
  -3.11999992E-02   1.42991690E-08
  -3.11500002E-02   1.28445983E-08
  -3.10999993E-02   9.78500747E-09
  -3.10500003E-02   6.73978295E-09
  -3.09999995E-02   5.40895106E-09
  -3.09500005E-02   6.78876955E-09
  -3.08999997E-02   1.06663345E-08
  -3.08500007E-02   1.56448579E-08
  -3.07999998E-02   1.97195202E-08
  -3.07500008E-02   2.11689439E-08
  -3.07000000E-02   1.93665564E-08
  -3.06499992E-02   1.51303574E-08
  -3.06000002E-02   1.04220179E-08
  -3.05499993E-02   7.49781126E-09
  -3.05000003E-02   7.87448684E-09
  -3.04499995E-02   1.15797452E-08
  -3.04000005E-02   1.70513470E-08
  -3.03499997E-02   2.17681286E-08
  -3.03000007E-02   2.33612720E-08
  -3.02499998E-02   2.07175077E-08
  -3.02000009E-02   1.45628682E-08
  -3.01500000E-02   7.22846849E-09
  -3.00999992E-02   1.66255032E-09
  -3.00500002E-02   1.05462805E-10
  -2.99999993E-02   3.02223291E-09
  -2.99500003E-02   8.79954332E-09
  -2.98999995E-02   1.43864760E-08
  -2.98500005E-02   1.66314127E-08
  -2.97999997E-02   1.37329748E-08
  -2.97500007E-02   6.14065376E-09
  -2.96999998E-02  -3.53816465E-09
  -2.96500009E-02  -1.16315197E-08
  -2.96000000E-02  -1.50416657E-08
  -2.95499992E-02  -1.27002266E-08
  -2.95000002E-02  -6.15972873E-09
  -2.94499993E-02   9.93257698E-10
  -2.94000003E-02   4.69003680E-09
  -2.93499995E-02   2.22848273E-09
  -2.93000005E-02  -6.41825881E-09
  -2.92499997E-02  -1.84603479E-08
  -2.92000007E-02  -2.94362774E-08
  -2.91499998E-02  -3.51771412E-08
  -2.91000009E-02  -3.37247030E-08
  -2.90500000E-02  -2.63201745E-08
  -2.89999992E-02  -1.69682952E-08
  -2.89500002E-02  -1.07140794E-08
  -2.88999993E-02  -1.13674066E-08
  -2.88500004E-02  -1.96962606E-08
  -2.87999995E-02  -3.29385941E-08
  -2.87500005E-02  -4.59137723E-08
  -2.86999997E-02  -5.32919522E-08
  -2.86500007E-02  -5.20292929E-08
  -2.85999998E-02  -4.28586553E-08
  -2.85500009E-02  -3.01122256E-08
  -2.85000000E-02  -1.98873611E-08
  -2.84499992E-02  -1.73273538E-08
  -2.84000002E-02  -2.42261979E-08
  -2.83499993E-02  -3.80673839E-08
  -2.83000004E-02  -5.29950341E-08
  -2.82499995E-02  -6.23505372E-08
  -2.82000005E-02  -6.16766300E-08
  -2.81499997E-02  -5.08334388E-08
  -2.81000007E-02  -3.42241613E-08
  -2.80499998E-02  -1.89537772E-08
  -2.80000009E-02  -1.16832162E-08
  -2.79500000E-02  -1.55672399E-08
  -2.78999992E-02  -2.86790769E-08
  -2.78500002E-02  -4.46982007E-08
  -2.77999993E-02  -5.56324231E-08
  -2.77500004E-02  -5.54069750E-08
  -2.76999995E-02  -4.27137046E-08
  -2.76500005E-02  -2.17918306E-08
  -2.75999997E-02  -7.07173431E-10
  -2.75500007E-02   1.21770025E-08
  -2.74999999E-02   1.19940813E-08
  -2.74500009E-02  -2.87225355E-10
  -2.74000000E-02  -1.80975359E-08
  -2.73499992E-02  -3.20590132E-08
  -2.73000002E-02  -3.41529507E-08
  -2.72499993E-02  -2.14122249E-08
  -2.72000004E-02   2.55908983E-09
  -2.71499995E-02   2.90049229E-08
  -2.71000005E-02   4.78283972E-08
  -2.70499997E-02   5.21400061E-08
  -2.70000007E-02   4.14964809E-08
  -2.69499999E-02   2.23119123E-08
  -2.69000009E-02   5.15993515E-09
  -2.68500000E-02   9.21127966E-11
  -2.67999992E-02   1.20379537E-08
  -2.67500002E-02   3.83825736E-08
  -2.66999993E-02   6.98954921E-08
  -2.66500004E-02   9.46970644E-08
  -2.65999995E-02   1.03556964E-07
  -2.65500005E-02   9.41584020E-08
  -2.64999997E-02   7.23568689E-08
  -2.64500007E-02   4.97665162E-08
  -2.63999999E-02   3.86557950E-08
  -2.63500009E-02   4.63878749E-08
  -2.63000000E-02   7.19173840E-08
  -2.62499992E-02   1.05998168E-07
  -2.62000002E-02   1.35121070E-07
  -2.61499994E-02   1.47506725E-07
  -2.61000004E-02   1.38493505E-07
  -2.60499995E-02   1.12855325E-07
  -2.60000005E-02   8.29043856E-08
  -2.59499997E-02   6.31144417E-08
  -2.59000007E-02   6.36022293E-08
  -2.58499999E-02   8.53924291E-08
  -2.58000009E-02   1.19668229E-07
  -2.57500000E-02   1.51464320E-07
  -2.56999992E-02   1.66256669E-07
  -2.56500002E-02   1.56543777E-07
  -2.55999994E-02   1.25434539E-07
  -2.55500004E-02   8.55306155E-08
  -2.54999995E-02   5.34772688E-08
  -2.54500005E-02   4.25317914E-08
  -2.53999997E-02   5.64639038E-08
  -2.53500007E-02   8.75906991E-08
  -2.52999999E-02   1.19950613E-07
  -2.52500009E-02   1.36317780E-07
  -2.52000000E-02   1.25980449E-07
  -2.51499992E-02   8.97769254E-08
  -2.51000002E-02   4.00311286E-08
  -2.50499994E-02  -4.72060480E-09
  -2.50000004E-02  -2.79605921E-08
  -2.49499995E-02  -2.27263968E-08
  -2.49000005E-02   4.98233321E-09
  -2.48499997E-02   3.85803993E-08
  -2.48000007E-02   5.81326951E-08
  -2.47499999E-02   4.92966841E-08
  -2.47000009E-02   9.96404204E-09
  -2.46500000E-02  -4.84671183E-08
  -2.45999992E-02  -1.05903311E-07
  -2.45500002E-02  -1.42424014E-07
  -2.44999994E-02  -1.47290152E-07
  -2.44500004E-02  -1.24013624E-07
  -2.43999995E-02  -8.90915217E-08
  -2.43500005E-02  -6.48206750E-08
  -2.42999997E-02  -6.93030273E-08
  -2.42500007E-02  -1.08103507E-07
  -2.41999999E-02  -1.71383476E-07
  -2.41500009E-02  -2.37945045E-07
  -2.41000000E-02  -2.84523452E-07
  -2.40499992E-02  -2.96244195E-07
  -2.40000002E-02  -2.73533772E-07
  -2.39499994E-02  -2.32266075E-07
  -2.39000004E-02  -1.96914911E-07
  -2.38499995E-02  -1.89649001E-07
  -2.38000005E-02  -2.20213806E-07
  -2.37499997E-02  -2.81203256E-07
  -2.37000007E-02  -3.50988529E-07
  -2.36499999E-02  -4.03153649E-07
  -2.36000009E-02  -4.18311174E-07
  -2.35500000E-02  -3.92997748E-07
  -2.34999992E-02  -3.41550617E-07
  -2.34500002E-02  -2.89957342E-07
  -2.33999994E-02  -2.64286655E-07
  -2.33500004E-02  -2.78825183E-07
  -2.32999995E-02  -3.29293812E-07
  -2.32500006E-02  -3.94333796E-07
  -2.31999997E-02  -4.44770933E-07
  -2.31500007E-02  -4.56628953E-07
  -2.30999999E-02  -4.22073839E-07
  -2.30500009E-02  -3.53280541E-07
  -2.30000000E-02  -2.77315110E-07
  -2.29499992E-02  -2.24160729E-07
  -2.29000002E-02  -2.13171219E-07
  -2.28499994E-02  -2.44061511E-07
  -2.28000004E-02  -2.96616832E-07
  -2.27499995E-02  -3.39434365E-07
  -2.27000006E-02  -3.43918430E-07
  -2.26499997E-02  -2.97288580E-07
  -2.26000007E-02  -2.08676795E-07
  -2.25499999E-02  -1.05406627E-07
  -2.25000009E-02  -2.09440394E-08
  -2.24500000E-02   2.01789518E-08
  -2.23999992E-02   1.36846801E-08
  -2.23500002E-02  -2.21016592E-08
  -2.22999994E-02  -5.41229177E-08
  -2.22500004E-02  -4.93109731E-08
  -2.21999995E-02   1.03877369E-08
  -2.21500006E-02   1.19496022E-07
  -2.20999997E-02   2.50994134E-07
  -2.20500007E-02   3.68111444E-07
  -2.19999999E-02   4.40756963E-07
  -2.19500009E-02   4.59217574E-07
  -2.19000001E-02   4.38852766E-07
  -2.18499992E-02   4.13485282E-07
  -2.18000002E-02   4.20280372E-07
  -2.17499994E-02   4.82824646E-07
  -2.17000004E-02   6.00059764E-07
  -2.16499995E-02   7.46206183E-07
  -2.16000006E-02   8.81912570E-07
  -2.15499997E-02   9.71769282E-07
  -2.15000007E-02   1.00034060E-06
  -2.14499999E-02   9.79403126E-07
  -2.14000009E-02   9.42941938E-07
  -2.13500001E-02   9.31959789E-07
  -2.12999992E-02   9.75825742E-07
  -2.12500002E-02   1.07858023E-06
  -2.11999994E-02   1.21650589E-06
  -2.11500004E-02   1.34826712E-06
  -2.10999995E-02   1.43321768E-06
  -2.10500006E-02   1.44969363E-06
  -2.09999997E-02   1.40497275E-06
  -2.09500007E-02   1.33223273E-06
  -2.08999999E-02   1.27567614E-06
  -2.08500009E-02   1.27039743E-06
  -2.08000001E-02   1.32606840E-06
  -2.07499992E-02   1.42193312E-06
  -2.07000002E-02   1.51557413E-06
  -2.06499994E-02   1.56169131E-06
  -2.06000004E-02   1.53250198E-06
  -2.05499995E-02   1.43050272E-06
  -2.05000006E-02   1.28765714E-06
  -2.04499997E-02   1.15115881E-06
  -2.04000007E-02   1.06203618E-06
  -2.03499999E-02   1.03622415E-06
  -2.03000009E-02   1.05676122E-06
  -2.02500001E-02   1.08083680E-06
  -2.01999992E-02   1.05871152E-06
  -2.01500002E-02   9.56078793E-07
  -2.00999994E-02   7.69734470E-07
  -2.00500004E-02   5.29316480E-07
  -1.99999996E-02   2.84119011E-07
  -1.99500006E-02   8.07654743E-08
  -1.98999997E-02  -5.82182409E-08
  -1.98500007E-02  -1.45147411E-07
  -1.97999999E-02  -2.22177974E-07
  -1.97500009E-02  -3.42607990E-07
  -1.97000001E-02  -5.46806803E-07
  -1.96499992E-02  -8.43661780E-07
  -1.96000002E-02  -1.20609184E-06
  -1.95499994E-02  -1.58287787E-06
  -1.95000004E-02  -1.92165567E-06
  -1.94499996E-02  -2.19275398E-06
  -1.94000006E-02  -2.40301688E-06
  -1.93499997E-02  -2.59316244E-06
  -1.93000007E-02  -2.81965390E-06
  -1.92499999E-02  -3.12913448E-06
  -1.92000009E-02  -3.53698783E-06
  -1.91500001E-02  -4.01985244E-06
  -1.90999992E-02  -4.52571112E-06
  -1.90500002E-02  -4.99718817E-06
  -1.89999994E-02  -5.39759458E-06
  -1.89500004E-02  -5.72787485E-06
  -1.88999996E-02  -6.02657565E-06
  -1.88500006E-02  -6.35262677E-06
  -1.87999997E-02  -6.75854335E-06
  -1.87500007E-02  -7.26617873E-06
  -1.86999999E-02  -7.85612065E-06
  -1.86500009E-02  -8.47577303E-06
  -1.86000001E-02  -9.06269725E-06
  -1.85499992E-02  -9.57275734E-06
  -1.85000002E-02  -1.00002953E-05
  -1.84499994E-02  -1.03809989E-05
  -1.84000004E-02  -1.07759288E-05
  -1.83499996E-02  -1.12437365E-05
  -1.83000006E-02  -1.18136313E-05
  -1.82499997E-02  -1.24714397E-05
  -1.82000007E-02  -1.31653132E-05
  -1.81499999E-02  -1.38287323E-05
  -1.81000009E-02  -1.44105306E-05
  -1.80500001E-02  -1.48982872E-05
  -1.79999992E-02  -1.53243418E-05
  -1.79500002E-02  -1.57513987E-05
  -1.78999994E-02  -1.62440410E-05
  -1.78500004E-02  -1.68390361E-05
  -1.77999996E-02  -1.75279183E-05
  -1.77500006E-02  -1.82600397E-05
  -1.76999997E-02  -1.89649400E-05
  -1.76500008E-02  -1.95841276E-05
  -1.75999999E-02  -2.00977884E-05
  -1.75500009E-02  -2.05341785E-05
  -1.75000001E-02  -2.09572027E-05
  -1.74499992E-02  -2.14375559E-05
  -1.74000002E-02  -2.20204038E-05
  -1.73499994E-02  -2.27043456E-05
  -1.73000004E-02  -2.34414892E-05
  -1.72499996E-02  -2.41587986E-05
  -1.72000006E-02  -2.47912794E-05
  -1.71499997E-02  -2.53120106E-05
  -1.71000008E-02  -2.57451138E-05
  -1.70499999E-02  -2.61555560E-05
  -1.70000009E-02  -2.66201732E-05
  -1.69500001E-02  -2.71928620E-05
  -1.68999992E-02  -2.78797888E-05
  -1.68500002E-02  -2.86361319E-05
  -1.67999994E-02  -2.93861376E-05
  -1.67500004E-02  -3.00576066E-05
  -1.66999996E-02  -3.06152251E-05
  -1.66500006E-02  -3.10775249E-05
  -1.65999997E-02  -3.15094694E-05
  -1.65500008E-02  -3.19936662E-05
  -1.64999999E-02  -3.25932197E-05
  -1.64500009E-02  -3.33230491E-05
  -1.64000001E-02  -3.41428604E-05
  -1.63499992E-02  -3.49754046E-05
  -1.63000003E-02  -3.57419667E-05
  -1.62499994E-02  -3.63990112E-05
  -1.62000004E-02  -3.69592126E-05
  -1.61499996E-02  -3.74871452E-05
  -1.61000006E-02  -3.80710735E-05
  -1.60499997E-02  -3.87835753E-05
  -1.60000008E-02  -3.96487667E-05
  -1.59499999E-02  -4.06312975E-05
  -1.59000009E-02  -4.16523180E-05
  -1.58500001E-02  -4.26256775E-05
  -1.57999992E-02  -4.34979811E-05
  -1.57500003E-02  -4.42741475E-05
  -1.56999994E-02  -4.50166044E-05
  -1.56500004E-02  -4.58182949E-05
  -1.55999996E-02  -4.67613791E-05
  -1.55499997E-02  -4.78802176E-05
  -1.54999997E-02  -4.91458159E-05
  -1.54499998E-02  -5.04791933E-05
  -1.53999999E-02  -5.17877488E-05
  -1.53500000E-02  -5.30084435E-05
  -1.53000001E-02  -5.41379741E-05
  -1.52500002E-02  -5.52361525E-05
  -1.52000003E-02  -5.64003494E-05
  -1.51500003E-02  -5.77223109E-05
  -1.51000004E-02  -5.92469369E-05
  -1.50499996E-02  -6.09520248E-05
  -1.49999997E-02  -6.27582995E-05
  -1.49499997E-02  -6.45656255E-05
  -1.48999998E-02  -6.62993771E-05
  -1.48499999E-02  -6.79456134E-05
  -1.48000000E-02  -6.95591370E-05
  -1.47500001E-02  -7.12400724E-05
  -1.47000002E-02  -7.30893080E-05
  -1.46500003E-02  -7.51632833E-05
  -1.46000003E-02  -7.74484215E-05
  -1.45500004E-02  -7.98669498E-05
  -1.44999996E-02  -8.23124865E-05
  -1.44499997E-02  -8.46991970E-05
  -1.43999998E-02  -8.70021831E-05
  -1.43499998E-02  -8.92704193E-05
  -1.42999999E-02  -9.16061254E-05
  -1.42500000E-02  -9.41196340E-05
  -1.42000001E-02  -9.68797394E-05
  -1.41500002E-02  -9.98822798E-05
  -1.41000003E-02  -1.03051803E-04
  -1.40500003E-02  -1.06275795E-04
  -1.40000004E-02  -1.09456058E-04
  -1.39499996E-02  -1.12554408E-04
  -1.38999997E-02  -1.15611445E-04
  -1.38499998E-02  -1.18729622E-04
  -1.37999998E-02  -1.22027581E-04
  -1.37499999E-02  -1.25586856E-04
  -1.37000000E-02  -1.29414548E-04
  -1.36500001E-02  -1.33439535E-04
  -1.36000002E-02  -1.37544906E-04
  -1.35500003E-02  -1.41621233E-04
  -1.35000004E-02  -1.45617349E-04
  -1.34500004E-02  -1.49565036E-04
  -1.33999996E-02  -1.53566303E-04
  -1.33499997E-02  -1.57748378E-04
  -1.32999998E-02  -1.62206401E-04
  -1.32499998E-02  -1.66960497E-04
  -1.31999999E-02  -1.71945940E-04
  -1.31500000E-02  -1.77042442E-04
  -1.31000001E-02  -1.82129064E-04
  -1.30500002E-02  -1.87139900E-04
  -1.30000003E-02  -1.92095322E-04
  -1.29500004E-02  -1.97094545E-04
  -1.29000004E-02  -2.02271913E-04
  -1.28499996E-02  -2.07736448E-04
  -1.27999997E-02  -2.13522493E-04
  -1.27499998E-02  -2.19573994E-04
  -1.26999998E-02  -2.25769880E-04
  -1.26499999E-02  -2.31979357E-04
  -1.26000000E-02  -2.38122622E-04
  -1.25500001E-02  -2.44208612E-04
  -1.25000002E-02  -2.50333193E-04
  -1.24500003E-02  -2.56637810E-04
  -1.24000004E-02  -2.63246329E-04
  -1.23500004E-02  -2.70209508E-04
  -1.22999996E-02  -2.77482584E-04
  -1.22499997E-02  -2.84945680E-04
  -1.21999998E-02  -2.92458892E-04
  -1.21499998E-02  -2.99927895E-04
  -1.20999999E-02  -3.07348324E-04
  -1.20500000E-02  -3.14809993E-04
  -1.20000001E-02  -3.22458451E-04
  -1.19500002E-02  -3.30430426E-04
  -1.19000003E-02  -3.38792714E-04
  -1.18500004E-02  -3.47512832E-04
  -1.18000004E-02  -3.56473349E-04
  -1.17499996E-02  -3.65526823E-04
  -1.16999997E-02  -3.74565076E-04
  -1.16499998E-02  -3.83569888E-04
  -1.15999999E-02  -3.92623973E-04
  -1.15499999E-02  -4.01876692E-04
  -1.15000000E-02  -4.11478191E-04
  -1.14500001E-02  -4.21514036E-04
  -1.14000002E-02  -4.31967288E-04
  -1.13500003E-02  -4.42727236E-04
  -1.13000004E-02  -4.53642453E-04
  -1.12500004E-02  -4.64591256E-04
  -1.11999996E-02  -4.75539593E-04
  -1.11499997E-02  -4.86559176E-04
  -1.10999998E-02  -4.97798144E-04
  -1.10499999E-02  -5.09416452E-04
  -1.09999999E-02  -5.21515205E-04
  -1.09500000E-02  -5.34091843E-04
  -1.09000001E-02  -5.47043048E-04
  -1.08500002E-02  -5.60213404E-04
  -1.08000003E-02  -5.73468162E-04
  -1.07500004E-02  -5.86757378E-04
  -1.07000005E-02  -6.00141997E-04
  -1.06499996E-02  -6.13769866E-04
  -1.05999997E-02  -6.27812347E-04
  -1.05499998E-02  -6.42389758E-04
  -1.04999999E-02  -6.57518511E-04
  -1.04499999E-02  -6.73106697E-04
  -1.04000000E-02  -6.88998669E-04
  -1.03500001E-02  -7.05047802E-04
  -1.03000002E-02  -7.21186865E-04
  -1.02500003E-02  -7.37462775E-04
  -1.02000004E-02  -7.54019013E-04
  -1.01500005E-02  -7.71032646E-04
  -1.00999996E-02  -7.88637495E-04
  -1.00499997E-02  -8.06865108E-04
  -9.99999978E-03  -8.25632305E-04
  -9.94999986E-03  -8.44782393E-04
  -9.89999995E-03  -8.64158268E-04
  -9.85000003E-03  -8.83677742E-04
  -9.80000012E-03  -9.03373177E-04
  -9.75000020E-03  -9.23380197E-04
  -9.70000029E-03  -9.43881460E-04
  -9.65000037E-03  -9.65024985E-04
  -9.60000046E-03  -9.86861298E-04
  -9.54999961E-03  -1.00932270E-03
  -9.49999969E-03  -1.03225687E-03
  -9.44999978E-03  -1.05550024E-03
  -9.39999986E-03  -1.07895525E-03
  -9.34999995E-03  -1.10263913E-03
  -9.30000003E-03  -1.12668111E-03
  -9.25000012E-03  -1.15126779E-03
  -9.20000020E-03  -1.17656135E-03
  -9.15000029E-03  -1.20262813E-03
  -9.10000037E-03  -1.22941157E-03
  -9.05000046E-03  -1.25676207E-03
  -8.99999961E-03  -1.28450594E-03
  -8.94999970E-03  -1.31252955E-03
  -8.89999978E-03  -1.34083466E-03
  -8.84999987E-03  -1.36953883E-03
  -8.79999995E-03  -1.39882904E-03
  -8.75000004E-03  -1.42887747E-03
  -8.70000012E-03  -1.45976478E-03
  -8.65000021E-03  -1.49144907E-03
  -8.60000029E-03  -1.52378832E-03
  -8.55000038E-03  -1.55660533E-03
  -8.50000046E-03  -1.58977497E-03
  -8.44999962E-03  -1.62328687E-03
  -8.39999970E-03  -1.65725243E-03
  -8.34999979E-03  -1.69185677E-03
  -8.29999987E-03  -1.72728044E-03
  -8.24999996E-03  -1.76361843E-03
  -8.20000004E-03  -1.80084165E-03
  -8.15000013E-03  -1.83881703E-03
  -8.10000021E-03  -1.87737029E-03
  -8.05000030E-03  -1.91636803E-03
  -8.00000038E-03  -1.95578346E-03
  -7.95000046E-03  -1.99571322E-03
  -7.89999962E-03  -2.03633914E-03
  -7.84999970E-03  -2.07784865E-03
  -7.79999979E-03  -2.12035142E-03
  -7.74999987E-03  -2.16383277E-03
  -7.69999996E-03  -2.20816745E-03
  -7.65000004E-03  -2.25317967E-03
  -7.60000013E-03  -2.29872693E-03
  -7.55000021E-03  -2.34476756E-03
  -7.49999983E-03  -2.39138468E-03
  -7.44999992E-03  -2.43875058E-03
  -7.40000000E-03  -2.48705386E-03
  -7.35000009E-03  -2.53641861E-03
  -7.30000017E-03  -2.58685136E-03
  -7.24999979E-03  -2.63823662E-03
  -7.19999988E-03  -2.69040023E-03
  -7.14999996E-03  -2.74319248E-03
  -7.10000005E-03  -2.79655540E-03
  -7.05000013E-03  -2.85056327E-03
  -7.00000022E-03  -2.90538510E-03
  -6.94999984E-03  -2.96121277E-03
  -6.89999992E-03  -3.01818107E-03
  -6.85000001E-03  -3.07630957E-03
  -6.80000009E-03  -3.13549815E-03
  -6.75000018E-03  -3.19557637E-03
  -6.69999979E-03  -3.25638917E-03
  -6.64999988E-03  -3.31786973E-03
  -6.59999996E-03  -3.38007184E-03
  -6.55000005E-03  -3.44315358E-03
  -6.50000013E-03  -3.50730680E-03
  -6.45000022E-03  -3.57267051E-03
  -6.39999984E-03  -3.63927288E-03
  -6.34999992E-03  -3.70702194E-03
  -6.30000001E-03  -3.77575215E-03
  -6.25000009E-03  -3.84529703E-03
  -6.20000018E-03  -3.91557114E-03
  -6.14999980E-03  -3.98661476E-03
  -6.09999988E-03  -4.05858317E-03
  -6.04999997E-03  -4.13167803E-03
  -6.00000005E-03  -4.20605438E-03
  -5.95000014E-03  -4.28174390E-03
  -5.90000022E-03  -4.35865717E-03
  -5.84999984E-03  -4.43662889E-03
  -5.79999993E-03  -4.51548677E-03
  -5.75000001E-03  -4.59515024E-03
  -5.70000010E-03  -4.67567425E-03
  -5.65000018E-03  -4.75720316E-03
  -5.59999980E-03  -4.83991951E-03
  -5.54999989E-03  -4.92397463E-03
  -5.49999997E-03  -5.00941696E-03
  -5.45000006E-03  -5.09616639E-03
  -5.40000014E-03  -5.18403575E-03
  -5.35000023E-03  -5.27284341E-03
  -5.29999984E-03  -5.36249764E-03
  -5.24999993E-03  -5.45303151E-03
  -5.20000001E-03  -5.54459309E-03
  -5.15000010E-03  -5.63737843E-03
  -5.10000018E-03  -5.73154353E-03
  -5.04999980E-03  -5.82711259E-03
  -4.99999989E-03  -5.92399761E-03
  -4.94999997E-03  -6.02203002E-03
  -4.90000006E-03  -6.12103147E-03
  -4.85000014E-03  -6.22090744E-03
  -4.80000023E-03  -6.32168725E-03
  -4.74999985E-03  -6.42351573E-03
  -4.69999993E-03  -6.52659917E-03
  -4.65000002E-03  -6.63110567E-03
  -4.60000010E-03  -6.73707481E-03
  -4.55000019E-03  -6.84441021E-03
  -4.49999981E-03  -6.95292279E-03
  -4.44999989E-03  -7.06242444E-03
  -4.39999998E-03  -7.17279781E-03
  -4.35000006E-03  -7.28405546E-03
  -4.30000015E-03  -7.39634875E-03
  -4.25000023E-03  -7.50988210E-03
  -4.19999985E-03  -7.62481987E-03
  -4.14999994E-03  -7.74121284E-03
  -4.10000002E-03  -7.85895996E-03
  -4.05000011E-03  -7.97786564E-03
  -4.00000019E-03  -8.09772871E-03
  -3.94999981E-03  -8.21842160E-03
  -3.89999989E-03  -8.33996013E-03
  -3.84999998E-03  -8.46248679E-03
  -3.80000006E-03  -8.58620647E-03
  -3.74999992E-03  -8.71129613E-03
  -3.70000000E-03  -8.83782189E-03
  -3.65000009E-03  -8.96569807E-03
  -3.59999994E-03  -9.09471698E-03
  -3.55000002E-03  -9.22464859E-03
  -3.50000011E-03  -9.35534574E-03
  -3.44999996E-03  -9.48681030E-03
  -3.40000005E-03  -9.61918384E-03
  -3.34999990E-03  -9.75270290E-03
  -3.29999998E-03  -9.88757052E-03
  -3.25000007E-03  -1.00238305E-02
  -3.19999992E-03  -1.01613970E-02
  -3.15000000E-03  -1.03000579E-02
  -3.10000009E-03  -1.04395561E-02
  -3.04999994E-03  -1.05797071E-02
  -3.00000003E-03  -1.07204895E-02
  -2.95000011E-03  -1.08620441E-02
  -2.89999996E-03  -1.10046053E-02
  -2.85000005E-03  -1.11484155E-02
  -2.79999990E-03  -1.12935537E-02
  -2.74999999E-03  -1.14399223E-02
  -2.70000007E-03  -1.15872631E-02
  -2.64999992E-03  -1.17352856E-02
  -2.60000001E-03  -1.18837906E-02
  -2.55000009E-03  -1.20327426E-02
  -2.49999994E-03  -1.21823121E-02
  -2.45000003E-03  -1.23327821E-02
  -2.40000011E-03  -1.24843912E-02
  -2.34999997E-03  -1.26372101E-02
  -2.30000005E-03  -1.27911158E-02
  -2.24999990E-03  -1.29458504E-02
  -2.19999999E-03  -1.31011019E-02
  -2.15000007E-03  -1.32566327E-02
  -2.09999993E-03  -1.34124104E-02
  -2.05000001E-03  -1.35685774E-02
  -2.00000009E-03  -1.37254195E-02
  -1.94999995E-03  -1.38832033E-02
  -1.90000003E-03  -1.40419994E-02
  -1.85000000E-03  -1.42016960E-02
  -1.79999997E-03  -1.43620195E-02
  -1.75000005E-03  -1.45226046E-02
  -1.70000002E-03  -1.46831656E-02
  -1.64999999E-03  -1.48436408E-02
  -1.59999996E-03  -1.50041990E-02
  -1.55000004E-03  -1.51651287E-02
  -1.50000001E-03  -1.53267086E-02
  -1.44999998E-03  -1.54890558E-02
  -1.39999995E-03  -1.56520624E-02
  -1.35000004E-03  -1.58154443E-02
  -1.30000000E-03  -1.59787964E-02
  -1.24999997E-03  -1.61417872E-02
  -1.20000006E-03  -1.63043160E-02
  -1.15000003E-03  -1.64665468E-02
  -1.09999999E-03  -1.66287590E-02
  -1.04999996E-03  -1.67912487E-02
  -1.00000005E-03  -1.69541482E-02
  -9.50000016E-04  -1.71173923E-02
  -8.99999985E-04  -1.72807015E-02
  -8.50000011E-04  -1.74436197E-02
  -7.99999980E-04  -1.76057629E-02
  -7.50000007E-04  -1.77669581E-02
  -6.99999975E-04  -1.79273244E-02
  -6.50000002E-04  -1.80871580E-02
  -6.00000028E-04  -1.82467774E-02
  -5.49999997E-04  -1.84063576E-02
  -5.00000024E-04  -1.85658839E-02
  -4.49999992E-04  -1.87250394E-02
  -3.99999990E-04  -1.88833177E-02
  -3.49999988E-04  -1.90402735E-02
  -3.00000014E-04  -1.91956852E-02
  -2.50000012E-04  -1.93496086E-02
  -1.99999995E-04  -1.95023604E-02
  -1.50000007E-04  -1.96543746E-02
  -9.99999975E-05  -1.98059119E-02
  -4.99999987E-05  -1.99568793E-02
   0.00000000      -2.01068912E-02
   4.99999987E-05  -2.02554911E-02
   9.99999975E-05  -2.04021614E-02
   1.50000007E-04  -2.05465872E-02
   1.99999995E-04  -2.06888169E-02
   2.50000012E-04  -2.08291970E-02
   3.00000014E-04  -2.09681652E-02
   3.49999988E-04  -2.11060029E-02
   3.99999990E-04  -2.12427489E-02
   4.49999992E-04  -2.13780496E-02
   5.00000024E-04  -2.15112530E-02
   5.49999997E-04  -2.16417182E-02
   6.00000028E-04  -2.17690580E-02
   6.50000002E-04  -2.18932685E-02
   6.99999975E-04  -2.20147390E-02
   7.50000007E-04  -2.21340116E-02
   7.99999980E-04  -2.22514383E-02
   8.50000011E-04  -2.23670434E-02
   8.99999985E-04  -2.24804599E-02
   9.50000016E-04  -2.25910749E-02
   1.00000005E-03  -2.26982292E-02
   1.04999996E-03  -2.28013992E-02
   1.09999999E-03  -2.29005385E-02
   1.15000003E-03  -2.29960158E-02
   1.20000006E-03  -2.30883360E-02
   1.24999997E-03  -2.31779553E-02
   1.30000000E-03  -2.32650302E-02
   1.35000004E-03  -2.33492143E-02
   1.39999995E-03  -2.34298296E-02
   1.44999998E-03  -2.35060491E-02
   1.50000001E-03  -2.35772263E-02
   1.55000004E-03  -2.36433148E-02
   1.59999996E-03  -2.37046257E-02
   1.64999999E-03  -2.37617157E-02
   1.70000002E-03  -2.38151420E-02
   1.75000005E-03  -2.38650814E-02
   1.79999997E-03  -2.39112768E-02
   1.85000000E-03  -2.39530578E-02
   1.90000003E-03  -2.39895042E-02
   1.94999995E-03  -2.40199678E-02
   2.00000009E-03  -2.40442660E-02
   2.05000001E-03  -2.40626279E-02
   2.09999993E-03  -2.40756348E-02
   2.15000007E-03  -2.40839142E-02
   2.19999999E-03  -2.40876991E-02
   2.24999990E-03  -2.40867473E-02
   2.30000005E-03  -2.40803976E-02
   2.34999997E-03  -2.40677875E-02
   2.40000011E-03  -2.40481216E-02
   2.45000003E-03  -2.40210164E-02
   2.49999994E-03  -2.39867270E-02
   2.55000009E-03  -2.39458419E-02
   2.60000001E-03  -2.38990411E-02
   2.64999992E-03  -2.38467418E-02
   2.70000007E-03  -2.37888638E-02
   2.74999999E-03  -2.37246845E-02
   2.79999990E-03  -2.36531273E-02