  -3.99999991E-02   0.00000000    
  -3.99499983E-02   0.00000000    
  -3.99000011E-02   0.00000000    
  -3.98500003E-02   0.00000000    
  -3.97999994E-02   4.19886669E-20
  -3.97499986E-02   1.56240614E-19
  -3.97000015E-02  -5.35368301E-19
  -3.96500006E-02  -6.56798239E-18
  -3.95999998E-02  -3.07917718E-17
  -3.95499989E-02  -9.98568266E-17
  -3.95000018E-02  -2.60411756E-16
  -3.94500010E-02  -5.88136003E-16
  -3.94000001E-02  -1.19911585E-15
  -3.93499993E-02  -2.25171681E-15
  -3.92999984E-02  -3.91698697E-15
  -3.92500013E-02  -6.30786918E-15
  -3.92000005E-02  -9.39898929E-15
  -3.91499996E-02  -1.30089184E-14
  -3.90999988E-02  -1.69044313E-14
  -3.90500017E-02  -2.10059004E-14
  -3.90000008E-02  -2.55801053E-14
  -3.89500000E-02  -3.12864968E-14
  -3.88999991E-02  -3.90210325E-14
  -3.88499983E-02  -4.96110890E-14
  -3.88000011E-02  -6.34713365E-14
  -3.87500003E-02  -8.03316018E-14
  -3.86999995E-02  -9.91597483E-14
  -3.86499986E-02  -1.18432485E-13
  -3.86000015E-02  -1.36837915E-13
  -3.85500006E-02  -1.54218028E-13
  -3.84999998E-02  -1.72203790E-13
  -3.84499989E-02  -1.93909694E-13
  -3.84000018E-02  -2.22491364E-13
  -3.83500010E-02  -2.59130526E-13
  -3.83000001E-02  -3.01530258E-13
  -3.82499993E-02  -3.43834905E-13
  -3.81999984E-02  -3.78156762E-13
  -3.81500013E-02  -3.97133579E-13
  -3.81000005E-02  -3.96589527E-13
  -3.80499996E-02  -3.77361011E-13
  -3.79999988E-02  -3.45443563E-13
  -3.79500017E-02  -3.09907292E-13
  -3.79000008E-02  -2.78834085E-13
  -3.78500000E-02  -2.54803584E-13
  -3.77999991E-02  -2.32344065E-13
  -3.77499983E-02  -1.99194136E-13
  -3.77000012E-02  -1.41127087E-13
  -3.76500003E-02  -4.78293417E-14
  -3.75999995E-02   8.33352959E-14
  -3.75499986E-02   2.47467059E-13
  -3.75000015E-02   4.35743076E-13
  -3.74500006E-02   6.40638530E-13
  -3.73999998E-02   8.60760302E-13
  -3.73499990E-02   1.10365634E-12
  -3.73000018E-02   1.38522136E-12
  -3.72500010E-02   1.72494495E-12
  -3.72000001E-02   2.13798705E-12
  -3.71499993E-02   2.62734322E-12
  -3.70999984E-02   3.18018767E-12
  -3.70500013E-02   3.77044186E-12
  -3.70000005E-02   4.36592039E-12
  -3.69499996E-02   4.93613917E-12
  -3.68999988E-02   5.45789065E-12
  -3.68500017E-02   5.91854907E-12
  -3.68000008E-02   6.31851082E-12
  -3.67500000E-02   6.67267934E-12
  -3.66999991E-02   7.00858642E-12
  -3.66499983E-02   7.35898929E-12
  -3.66000012E-02   7.74995866E-12
  -3.65500003E-02   8.18901023E-12
  -3.64999995E-02   8.65846370E-12
  -3.64499986E-02   9.11686265E-12
  -3.64000015E-02   9.50857448E-12
  -3.63500006E-02   9.77961982E-12
  -3.62999998E-02   9.89560951E-12
  -3.62499990E-02   9.85404813E-12
  -3.62000018E-02   9.68084640E-12
  -3.61500010E-02   9.40551716E-12
  -3.61000001E-02   9.02190128E-12
  -3.60499993E-02   8.45542993E-12
  -3.59999985E-02   7.56238908E-12
  -3.59500013E-02   6.17437568E-12
  -3.59000005E-02   4.17695696E-12
  -3.58499996E-02   1.58885763E-12
  -3.57999988E-02  -1.39982026E-12
  -3.57500017E-02  -4.46007033E-12
  -3.57000008E-02  -7.23058072E-12
  -3.56500000E-02  -9.46812420E-12
  -3.55999991E-02  -1.11826104E-11
  -3.55499983E-02  -1.26881552E-11
  -3.55000012E-02  -1.45229523E-11
  -3.54500003E-02  -1.72452851E-11
  -3.53999995E-02  -2.11797541E-11
  -3.53499986E-02  -2.62311874E-11
  -3.53000015E-02  -3.18718905E-11
  -3.52500007E-02  -3.73362209E-11
  -3.51999998E-02  -4.19558242E-11
  -3.51499990E-02  -4.54892235E-11
  -3.51000018E-02  -4.82825169E-11
  -3.50500010E-02  -5.11573353E-11
  -3.50000001E-02  -5.50386126E-11
  -3.49499993E-02  -6.04632663E-11
  -3.48999985E-02  -6.71952424E-11
  -3.48500013E-02  -7.41620862E-11
  -3.48000005E-02  -7.98056343E-11
  -3.47499996E-02  -8.27441518E-11
  -3.46999988E-02  -8.24617874E-11
  -3.46500017E-02  -7.96783195E-11
  -3.46000008E-02  -7.61616464E-11
  -3.45500000E-02  -7.39915837E-11
  -3.44999991E-02  -7.45630641E-11
  -3.44499983E-02  -7.77826900E-11
  -3.44000012E-02  -8.18788440E-11
  -3.43500003E-02  -8.40063574E-11
  -3.42999995E-02  -8.14636622E-11
  -3.42499986E-02  -7.30162389E-11
  -3.42000015E-02  -5.96912103E-11
  -3.41500007E-02  -4.45707186E-11
  -3.40999998E-02  -3.15372034E-11
  -3.40499990E-02  -2.34425656E-11
  -3.40000018E-02  -2.05291166E-11
  -3.39500010E-02  -1.99179076E-11
  -3.39000002E-02  -1.65600589E-11
  -3.38499993E-02  -5.37706858E-12
  -3.37999985E-02   1.63023952E-11
  -3.37500013E-02   4.71499749E-11
  -3.37000005E-02   8.19555396E-11
  -3.36499996E-02   1.13602863E-10
  -3.35999988E-02   1.36176084E-10
  -3.35500017E-02   1.47839602E-10
  -3.35000008E-02   1.52076254E-10
  -3.34500000E-02   1.56493110E-10
  -3.33999991E-02   1.69495695E-10
  -3.33499983E-02   1.96209979E-10
  -3.33000012E-02   2.35558323E-10
  -3.32500003E-02   2.80041518E-10
  -3.31999995E-02   3.18621934E-10
  -3.31499986E-02   3.41633416E-10
  -3.31000015E-02   3.45553114E-10
  -3.30500007E-02   3.35315248E-10
  -3.29999998E-02   3.22793403E-10
  -3.29499990E-02   3.21774246E-10
  -3.29000019E-02   3.41464523E-10
  -3.28500010E-02   3.81500498E-10
  -3.28000002E-02   4.31019553E-10
  -3.27499993E-02   4.72666295E-10
  -3.26999985E-02   4.90106344E-10
  -3.26500013E-02   4.75778306E-10
  -3.26000005E-02   4.35170427E-10
  -3.25499997E-02   3.85229043E-10
  -3.24999988E-02   3.47116141E-10
  -3.24500017E-02   3.36278672E-10
  -3.24000008E-02   3.54343360E-10
  -3.23500000E-02   3.86888105E-10
  -3.22999991E-02   4.08711703E-10
  -3.22499983E-02   3.94788063E-10
  -3.22000012E-02   3.32208955E-10
  -3.21500003E-02   2.27507208E-10
  -3.20999995E-02   1.05430595E-10
  -3.20499986E-02  -1.05207954E-12
  -3.20000015E-02  -6.55396223E-11
  -3.19500007E-02  -8.11481993E-11
  -3.18999998E-02  -6.52991550E-11
  -3.18499990E-02  -5.34008462E-11
  -3.18000019E-02  -8.35172903E-11
  -3.17500010E-02  -1.78552034E-10
  -3.17000002E-02  -3.34176686E-10
  -3.16499993E-02  -5.18654286E-10
  -3.15999985E-02  -6.85562884E-10
  -3.15500014E-02  -7.94406929E-10
  -3.15000005E-02  -8.29975699E-10
  -3.14499997E-02  -8.11163747E-10
  -3.13999988E-02  -7.84234400E-10
  -3.13500017E-02  -8.02537925E-10
  -3.13000008E-02  -9.01302588E-10
  -3.12500000E-02  -1.07911324E-09
  -3.11999992E-02  -1.29538247E-09
  -3.11500002E-02  -1.48620372E-09
  -3.10999993E-02  -1.59243074E-09
  -3.10500003E-02  -1.58761215E-09
  -3.09999995E-02  -1.49259627E-09
  -3.09500005E-02  -1.36895839E-09
  -3.08999997E-02  -1.29281841E-09
  -3.08500007E-02  -1.31997302E-09
  -3.07999998E-02  -1.45813872E-09
  -3.07500008E-02  -1.65988312E-09
  -3.07000000E-02  -1.84100346E-09
  -3.06499992E-02  -1.91742733E-09
  -3.06000002E-02  -1.84447568E-09
  -3.05499993E-02  -1.64015634E-09
  -3.05000003E-02  -1.38049117E-09
  -3.04499995E-02  -1.16723808E-09
  -3.04000005E-02  -1.08142817E-09
  -3.03499997E-02  -1.14360588E-09
  -3.03000007E-02  -1.29982036E-09
  -3.02499998E-02  -1.44160051E-09
  -3.02000009E-02  -1.45275103E-09
  -3.01500000E-02  -1.26276145E-09
  -3.00999992E-02  -8.82286466E-10
  -3.00500002E-02  -4.03038519E-10
  -2.99999993E-02   3.99838287E-11
  -2.99500003E-02   3.28506389E-10
  -2.98999995E-02   4.16483098E-10
  -2.98500005E-02   3.54919233E-10
  -2.97999997E-02   2.72715378E-10
  -2.97500007E-02   3.20111271E-10
  -2.96999998E-02   5.99064964E-10
  -2.96500009E-02   1.11228504E-09
  -2.96000000E-02   1.75573323E-09
  -2.95499992E-02   2.36044095E-09
  -2.95000002E-02   2.76683676E-09
  -2.94499993E-02   2.89874880E-09
  -2.94000003E-02   2.80261281E-09
  -2.93499995E-02   2.63174038E-09
  -2.93000005E-02   2.58006416E-09
  -2.92499997E-02   2.79358847E-09
  -2.92000007E-02   3.29958860E-09
  -2.91499998E-02   3.98732825E-09
  -2.91000009E-02   4.65178518E-09
  -2.90500000E-02   5.08316189E-09
  -2.89999992E-02   5.16291143E-09
  -2.89500002E-02   4.92212848E-09
  -2.88999993E-02   4.53346960E-09
  -2.88500004E-02   4.23718838E-09
  -2.87999995E-02   4.23236024E-09
  -2.87500005E-02   4.58200233E-09
  -2.86999997E-02   5.17666399E-09
  -2.86500007E-02   5.77607029E-09
  -2.85999998E-02   6.11315931E-09
  -2.85500009E-02   6.01524786E-09
  -2.85000000E-02   5.48712809E-09
  -2.84499992E-02   4.71617012E-09
  -2.84000002E-02   3.99375732E-09
  -2.83499993E-02   3.58564756E-09
  -2.83000004E-02   3.60869157E-09
  -2.82499995E-02   3.97075128E-09
  -2.82000005E-02   4.40404957E-09
  -2.81499997E-02   4.58034810E-09
  -2.81000007E-02   4.25842561E-09
  -2.80499998E-02   3.39747541E-09
  -2.80000009E-02   2.18298069E-09
  -2.79500000E-02   9.50050816E-10
  -2.78999992E-02   3.55203297E-11
  -2.78500002E-02  -3.75929399E-10
  -2.77999993E-02  -3.41234208E-10
  -2.77500004E-02  -1.40753173E-10
  -2.76999995E-02  -1.56858956E-10
  -2.76500005E-02  -7.01254443E-10
  -2.75999997E-02  -1.86817672E-09
  -2.75500007E-02  -3.48140183E-09
  -2.74999999E-02  -5.16263610E-09
  -2.74500009E-02  -6.49439036E-09
  -2.74000000E-02  -7.20634663E-09
  -2.73499992E-02  -7.30104377E-09
  -2.73000002E-02  -7.05943437E-09
  -2.72499993E-02  -6.91992685E-09
  -2.72000004E-02  -7.28201455E-09
  -2.71499995E-02  -8.32145552E-09
  -2.71000005E-02  -9.90137305E-09
  -2.70499997E-02  -1.16225474E-08
  -2.70000007E-02  -1.29942652E-08
  -2.69499999E-02  -1.36519454E-08
  -2.69000009E-02  -1.35243612E-08
  -2.68500000E-02  -1.28730901E-08
  -2.67999992E-02  -1.21824559E-08
  -2.67500002E-02  -1.19452439E-08
  -2.66999993E-02  -1.24381758E-08
  -2.66500004E-02  -1.35884486E-08
  -2.65999995E-02  -1.49942085E-08
  -2.65500005E-02  -1.60940044E-08
  -2.64999997E-02  -1.64128586E-08
  -2.64500007E-02  -1.57761626E-08
  -2.63999999E-02  -1.43945336E-08
  -2.63500009E-02  -1.27782318E-08
  -2.63000000E-02  -1.15150653E-08
  -2.62499992E-02  -1.10081606E-08
  -2.62000002E-02  -1.12902576E-08
  -2.61499994E-02  -1.19997390E-08
  -2.61000004E-02  -1.25331834E-08
  -2.60499995E-02  -1.23102311E-08
  -2.60000005E-02  -1.10348441E-08
  -2.59499997E-02  -8.83554030E-09
  -2.59000007E-02  -6.21905416E-09
  -2.58499999E-02  -3.85398602E-09
  -2.58000009E-02  -2.27712826E-09
  -2.57500000E-02  -1.65181469E-09
  -2.56999992E-02  -1.68726000E-09
  -2.56500002E-02  -1.75877690E-09
  -2.55999994E-02  -1.17985155E-09
  -2.55500004E-02   4.91397867E-10
  -2.54999995E-02   3.24714389E-09
  -2.54500005E-02   6.61982025E-09
  -2.53999997E-02   9.87599780E-09
  -2.53500007E-02   1.23325705E-08
  -2.52999999E-02   1.36572105E-08
  -2.52500009E-02   1.40195535E-08
  -2.52000000E-02   1.40229748E-08
  -2.51499992E-02   1.44420236E-08
  -2.51000002E-02   1.58772231E-08
  -2.50499994E-02   1.84784419E-08
  -2.50000004E-02   2.18609877E-08
  -2.49499995E-02   2.52564316E-08
  -2.49000005E-02   2.78370962E-08
  -2.48499997E-02   2.90749185E-08
  -2.48000007E-02   2.89772206E-08
  -2.47499999E-02   2.80926251E-08
  -2.47000009E-02   2.72790928E-08
  -2.46500000E-02   2.73305591E-08
  -2.45999992E-02   2.86230293E-08
  -2.45500002E-02   3.09363735E-08
  -2.44999994E-02   3.35343344E-08
  -2.44500004E-02   3.54738212E-08
  -2.43999995E-02   3.60131622E-08
  -2.43500005E-02   3.49418592E-08
  -2.42999997E-02   3.26849694E-08
  -2.42500007E-02   3.01305647E-08
  -2.41999999E-02   2.82489747E-08
  -2.41500009E-02   2.76660010E-08
  -2.41000000E-02   2.83766255E-08
  -2.40499992E-02   2.97287084E-08
  -2.40000002E-02   3.06913890E-08
  -2.39499994E-02   3.02981000E-08
  -2.39000004E-02   2.80742629E-08
  -2.38499995E-02   2.42610660E-08
  -2.38000005E-02   1.97311323E-08
  -2.37499997E-02   1.56243853E-08
  -2.37000007E-02   1.28557902E-08
  -2.36499999E-02   1.17084227E-08
  -2.36000009E-02   1.16930767E-08
  -2.35500000E-02   1.17440262E-08
  -2.34999992E-02   1.06759463E-08
  -2.34500002E-02   7.70808573E-09
  -2.33999994E-02   2.82660739E-09
  -2.33500004E-02  -3.17986459E-09
  -2.32999995E-02  -9.03769770E-09
  -2.32500006E-02  -1.35301210E-08
  -2.31999997E-02  -1.60320894E-08
  -2.31500007E-02  -1.68009695E-08
  -2.30999999E-02  -1.68861245E-08
  -2.30500009E-02  -1.76844512E-08
  -2.30000000E-02  -2.03265138E-08
  -2.29499992E-02  -2.51587853E-08
  -2.29000002E-02  -3.15540980E-08
  -2.28499994E-02  -3.81464176E-08
  -2.28000004E-02  -4.34010659E-08
  -2.27499995E-02  -4.62796699E-08
  -2.27000006E-02  -4.67084114E-08
  -2.26499997E-02  -4.56348772E-08
  -2.26000007E-02  -4.46339463E-08
  -2.25499999E-02  -4.52217357E-08
  -2.25000009E-02  -4.81723639E-08
  -2.24500000E-02  -5.31414273E-08
  -2.23999992E-02  -5.87744999E-08
  -2.23500002E-02  -6.32696810E-08
  -2.22999994E-02  -6.51601084E-08
  -2.22500004E-02  -6.39757261E-08
  -2.21999995E-02  -6.04847727E-08
  -2.21500006E-02  -5.63921070E-08
  -2.20999997E-02  -5.36090958E-08
  -2.20500007E-02  -5.34061755E-08
  -2.19999999E-02  -5.58226851E-08
  -2.19500009E-02  -5.96067835E-08
  -2.19000001E-02  -6.27311749E-08
  -2.18499992E-02  -6.32736672E-08
  -2.18000002E-02  -6.02815717E-08
  -2.17499994E-02  -5.42320748E-08
  -2.17000004E-02  -4.68680454E-08
  -2.16499995E-02  -4.04617033E-08
  -2.16000006E-02  -3.68158730E-08
  -2.15499997E-02  -3.64418504E-08
  -2.15000007E-02  -3.82904730E-08
  -2.14499999E-02  -4.01768681E-08
  -2.14000009E-02  -3.97306792E-08
  -2.13500001E-02  -3.54632022E-08
  -2.12999992E-02  -2.74758793E-08
  -2.12500002E-02  -1.74779693E-08
  -2.11999994E-02  -8.08219891E-09
  -2.11500004E-02  -1.67085712E-09
  -2.10999995E-02   6.72391032E-10
  -2.10500006E-02  -3.18280818E-10
  -2.09999997E-02  -2.37213649E-09
  -2.09500007E-02  -2.66260147E-09
  -2.08999999E-02   9.30340638E-10
  -2.08500009E-02   8.83567086E-09
  -2.08000001E-02   1.95375307E-08
  -2.07499992E-02   3.01898559E-08
  -2.07000002E-02   3.78490057E-08
  -2.06499994E-02   4.07868264E-08
  -2.06000004E-02   3.92951094E-08
  -2.05499995E-02   3.56028949E-08
  -2.05000006E-02   3.29174199E-08
  -2.04499997E-02   3.39961304E-08
  -2.04000007E-02   3.98797688E-08
  -2.03499999E-02   4.93626757E-08
  -2.03000009E-02   5.94615521E-08
  -2.02500001E-02   6.67001174E-08
  -2.01999992E-02   6.86534705E-08
  -2.01500002E-02   6.50625438E-08
  -2.00999994E-02   5.80034687E-08
  -2.00500004E-02   5.10102254E-08
  -1.99999996E-02   4.75188422E-08
  -1.99500006E-02   4.93180252E-08
  -1.98999997E-02   5.57063586E-08
  -1.98500007E-02   6.37544488E-08
  -1.97999999E-02   6.95809206E-08
  -1.97500009E-02   7.00911045E-08
  -1.97000001E-02   6.44045386E-08
  -1.96499992E-02   5.43176384E-08
  -1.96000002E-02   4.35682566E-08
  -1.95499994E-02   3.62042876E-08
  -1.95000004E-02   3.47717020E-08
  -1.94499996E-02   3.91377668E-08
  -1.94000006E-02   4.64962078E-08
  -1.93499997E-02   5.25804431E-08
  -1.93000007E-02   5.35643565E-08
  -1.92499999E-02   4.78066866E-08
  -1.92000009E-02   3.66489061E-08
  -1.91500001E-02   2.38861784E-08
  -1.90999992E-02   1.41206504E-08
  -1.90500002E-02   1.07165326E-08
  -1.89999994E-02   1.42713308E-08
  -1.89500004E-02   2.23039720E-08
  -1.88999996E-02   3.03261842E-08
  -1.88500006E-02   3.38413706E-08
  -1.87999997E-02   3.03860332E-08
  -1.87500007E-02   2.06926405E-08
  -1.86999999E-02   8.43246184E-09
  -1.86500009E-02  -1.37254397E-09
  -1.86000001E-02  -4.57710181E-09
  -1.85499992E-02   2.13938478E-10
  -1.85000002E-02   1.09769500E-08
  -1.84499994E-02   2.31278623E-08
  -1.84000004E-02   3.15461293E-08
  -1.83499996E-02   3.28726948E-08
  -1.83000006E-02   2.70518132E-08
  -1.82499997E-02   1.74080323E-08
  -1.82000007E-02   9.20032761E-09
  -1.81499999E-02   7.28180138E-09
  -1.81000009E-02   1.39067700E-08
  -1.80500001E-02   2.76758314E-08
  -1.79999992E-02   4.41111823E-08
  -1.79500002E-02   5.76256554E-08
  -1.78999994E-02   6.40154383E-08
  -1.78500004E-02   6.23616145E-08
  -1.77999996E-02   5.54764057E-08
  -1.77500006E-02   4.86724119E-08
  -1.76999997E-02   4.73851642E-08
  -1.76500008E-02   5.47046604E-08
  -1.75999999E-02   6.99265996E-08
  -1.75500009E-02   8.87868623E-08
  -1.75000001E-02   1.05298149E-07
  -1.74499992E-02   1.14382196E-07
  -1.74000002E-02   1.14121939E-07
  -1.73499994E-02   1.06615310E-07
  -1.73000004E-02   9.70321423E-08
  -1.72499996E-02   9.12840292E-08
  -1.72000006E-02   9.33357782E-08
  -1.71499997E-02   1.03362851E-07
  -1.71000008E-02   1.17591703E-07
  -1.70499999E-02   1.29910120E-07
  -1.70000009E-02   1.34543583E-07
  -1.69500001E-02   1.28608022E-07
  -1.68999992E-02   1.13389817E-07
  -1.68500002E-02   9.37633402E-08
  -1.67999994E-02   7.59926237E-08
  -1.67500004E-02   6.48933423E-08
  -1.66999996E-02   6.16199713E-08
  -1.66500006E-02   6.30730099E-08
  -1.65999997E-02   6.32058175E-08
  -1.65500008E-02   5.56615660E-08
  -1.64999999E-02   3.65655417E-08
  -1.64500009E-02   6.22623642E-09
  -1.64000001E-02  -3.10191801E-08
  -1.63499992E-02  -6.87642654E-08
  -1.63000003E-02  -1.01423240E-07
  -1.62499994E-02  -1.26764505E-07
  -1.62000004E-02  -1.46956481E-07
  -1.61499996E-02  -1.67641346E-07
  -1.61000006E-02  -1.95448550E-07
  -1.60499997E-02  -2.35050408E-07
  -1.60000008E-02  -2.87075068E-07
  -1.59499999E-02  -3.47822464E-07
  -1.59000009E-02  -4.10911099E-07
  -1.58500001E-02  -4.70124689E-07
  -1.57999992E-02  -5.22201105E-07
  -1.57500003E-02  -5.68316864E-07
  -1.56999994E-02  -6.13584575E-07
  -1.56500004E-02  -6.64789184E-07
  -1.55999996E-02  -7.27366000E-07
  -1.55499997E-02  -8.02964792E-07
  -1.54999997E-02  -8.88693933E-07
  -1.54499998E-02  -9.78375965E-07
  -1.53999999E-02  -1.06526295E-06
  -1.53500000E-02  -1.14501427E-06
  -1.53000001E-02  -1.21760411E-06
  -1.52500002E-02  -1.28729994E-06
  -1.52000003E-02  -1.36072049E-06
  -1.51500003E-02  -1.44383262E-06
  -1.51000004E-02  -1.53923804E-06
  -1.50499996E-02  -1.64495123E-06
  -1.49999997E-02  -1.75521006E-06
  -1.49499997E-02  -1.86296802E-06
  -1.48999998E-02  -1.96296082E-06
  -1.48499999E-02  -2.05399897E-06
  -1.48000000E-02  -2.13943872E-06
  -1.47500001E-02  -2.22564108E-06
  -1.47000002E-02  -2.31909667E-06
  -1.46500003E-02  -2.42349188E-06
  -1.46000003E-02  -2.53802000E-06
  -1.45500004E-02  -2.65769245E-06
  -1.44999996E-02  -2.77551544E-06
  -1.44499997E-02  -2.88556043E-06
  -1.43999998E-02  -2.98554482E-06
  -1.43499998E-02  -3.07778259E-06
  -1.42999999E-02  -3.16811065E-06
  -1.42500000E-02  -3.26324403E-06
  -1.42000001E-02  -3.36774656E-06
  -1.41500002E-02  -3.48195908E-06
  -1.41000003E-02  -3.60179683E-06
  -1.40500003E-02  -3.72054092E-06
  -1.40000004E-02  -3.83177030E-06
  -1.39499996E-02  -3.93220898E-06
  -1.38999997E-02  -4.02317437E-06
  -1.38499998E-02  -4.10995654E-06
  -1.37999998E-02  -4.19946628E-06
  -1.37499999E-02  -4.29714100E-06
  -1.37000000E-02  -4.40456824E-06
  -1.36500001E-02  -4.51880578E-06
  -1.36000002E-02  -4.63372453E-06
  -1.35500003E-02  -4.74274202E-06
  -1.35000004E-02  -4.84177326E-06
  -1.34500004E-02  -4.93111838E-06
  -1.33999996E-02  -5.01534805E-06
  -1.33499997E-02  -5.10133714E-06
  -1.32999998E-02  -5.19524838E-06
  -1.32499998E-02  -5.29985118E-06
  -1.31999999E-02  -5.41331519E-06
  -1.31500000E-02  -5.53009932E-06
  -1.31000001E-02  -5.64354468E-06
  -1.30500002E-02  -5.74887645E-06
  -1.30000003E-02  -5.84537565E-06
  -1.29500004E-02  -5.93679670E-06
  -1.29000004E-02  -6.02986574E-06
  -1.28499996E-02  -6.13139537E-06
  -1.27999997E-02  -6.24543918E-06
  -1.27499998E-02  -6.37163430E-06
  -1.26999998E-02  -6.50551056E-06
  -1.26499999E-02  -6.64063464E-06
  -1.26000000E-02  -6.77158823E-06
  -1.25500001E-02  -6.89659009E-06
  -1.25000002E-02  -7.01836461E-06
  -1.24500003E-02  -7.14298994E-06
  -1.24000004E-02  -7.27726274E-06
  -1.23500004E-02  -7.42584507E-06
  -1.22999996E-02  -7.58947317E-06
  -1.22499997E-02  -7.76473553E-06
  -1.21999998E-02  -7.94574498E-06
  -1.21499998E-02  -8.12698363E-06
  -1.20999999E-02  -8.30598856E-06
  -1.20500000E-02  -8.48480067E-06
  -1.20000001E-02  -8.66922710E-06
  -1.19500002E-02  -8.86626549E-06
  -1.19000003E-02  -9.08104448E-06
  -1.18500004E-02  -9.31469731E-06
  -1.18000004E-02  -9.56405347E-06
  -1.17499996E-02  -9.82305846E-06
  -1.16999997E-02  -1.00853313E-05
  -1.16499998E-02  -1.03469465E-05
  -1.15999999E-02  -1.06082452E-05
  -1.15499999E-02  -1.08739614E-05
  -1.15000000E-02  -1.11514446E-05
  -1.14500001E-02  -1.14473778E-05
  -1.14000002E-02  -1.17650407E-05
  -1.13500003E-02  -1.21032817E-05
  -1.13000004E-02  -1.24575554E-05
  -1.12500004E-02  -1.28223583E-05
  -1.11999996E-02  -1.31938859E-05
  -1.11499997E-02  -1.35717246E-05
  -1.10999998E-02  -1.39588046E-05
  -1.10499999E-02  -1.43600737E-05
  -1.09999999E-02  -1.47802539E-05
  -1.09500000E-02  -1.52214061E-05
  -1.09000001E-02  -1.56813057E-05
  -1.08500002E-02  -1.61541502E-05
  -1.08000003E-02  -1.66330883E-05
  -1.07500004E-02  -1.71133761E-05
  -1.07000005E-02  -1.75946843E-05
  -1.06499996E-02  -1.80812167E-05
  -1.05999997E-02  -1.85801673E-05
  -1.05499998E-02  -1.90990177E-05
  -1.04999999E-02  -1.96428009E-05
  -1.04499999E-02  -2.02126703E-05
  -1.04000000E-02  -2.08057445E-05
  -1.03500001E-02  -2.14164193E-05
  -1.03000002E-02  -2.20390284E-05
  -1.02500003E-02  -2.26704997E-05
  -1.02000004E-02  -2.33115752E-05
  -1.01500005E-02  -2.39662713E-05
  -1.00999996E-02  -2.46392337E-05
  -1.00499997E-02  -2.53329072E-05
  -9.99999978E-03  -2.60464039E-05
  -9.94999986E-03  -2.67757132E-05
  -9.89999995E-03  -2.75152852E-05
  -9.85000003E-03  -2.82603032E-05
  -9.80000012E-03  -2.90087319E-05
  -9.75000020E-03  -2.97622737E-05
  -9.70000029E-03  -3.05262984E-05
  -9.65000037E-03  -3.13078563E-05
  -9.60000046E-03  -3.21125117E-05
  -9.54999961E-03  -3.29422292E-05
  -9.49999969E-03  -3.37948441E-05
  -9.44999978E-03  -3.46660891E-05
  -9.39999986E-03  -3.55523080E-05
  -9.34999995E-03  -3.64521075E-05
  -9.30000003E-03  -3.73670482E-05
  -9.25000012E-03  -3.83012448E-05
  -9.20000020E-03  -3.92602960E-05
  -9.15000029E-03  -4.02491132E-05
  -9.10000037E-03  -4.12698246E-05
  -9.05000046E-03  -4.23200545E-05
  -8.99999961E-03  -4.33937530E-05
  -8.94999970E-03  -4.44846992E-05
  -8.89999978E-03  -4.55894842E-05
  -8.84999987E-03  -4.67084428E-05
  -8.79999995E-03  -4.78447728E-05
  -8.75000004E-03  -4.90029597E-05
  -8.70000012E-03  -5.01871873E-05
  -8.65000021E-03  -5.14000567E-05
  -8.60000029E-03  -5.26416152E-05
  -8.55000038E-03  -5.39100547E-05
  -8.50000046E-03  -5.52025303E-05
  -8.44999962E-03  -5.65170703E-05
  -8.39999970E-03  -5.78553772E-05
  -8.34999979E-03  -5.92229881E-05
  -8.29999987E-03  -6.06271205E-05
  -8.24999996E-03  -6.20739083E-05
  -8.20000004E-03  -6.35660690E-05
  -8.15000013E-03  -6.51033697E-05
  -8.10000021E-03  -6.66839114E-05
  -8.05000030E-03  -6.83049875E-05
  -8.00000038E-03  -6.99640732E-05
  -7.95000046E-03  -7.16605646E-05
  -7.89999962E-03  -7.33975176E-05
  -7.84999970E-03  -7.51796833E-05
  -7.79999979E-03  -7.70112310E-05
  -7.74999987E-03  -7.88938778E-05
  -7.69999996E-03  -8.08256518E-05
  -7.65000004E-03  -8.28028060E-05
  -7.60000013E-03  -8.48224008E-05
  -7.55000021E-03  -8.68826464E-05
  -7.49999983E-03  -8.89839866E-05
  -7.44999992E-03  -9.11294919E-05
  -7.40000000E-03  -9.33246702E-05
  -7.35000009E-03  -9.55752548E-05
  -7.30000017E-03  -9.78853786E-05
  -7.24999979E-03  -1.00257377E-04
  -7.19999988E-03  -1.02690676E-04
  -7.14999996E-03  -1.05182939E-04
  -7.10000005E-03  -1.07732834E-04
  -7.05000013E-03  -1.10342524E-04
  -7.00000022E-03  -1.13017028E-04
  -6.94999984E-03  -1.15760697E-04
  -6.89999992E-03  -1.18576034E-04
  -6.85000001E-03  -1.21464742E-04
  -6.80000009E-03  -1.24427519E-04
  -6.75000018E-03  -1.27463863E-04
  -6.69999979E-03  -1.30570799E-04
  -6.64999988E-03  -1.33744164E-04
  -6.59999996E-03  -1.36982839E-04
  -6.55000005E-03  -1.40289878E-04
  -6.50000013E-03  -1.43669400E-04
  -6.45000022E-03  -1.47123705E-04
  -6.39999984E-03  -1.50652864E-04
  -6.34999992E-03  -1.54257068E-04
  -6.30000001E-03  -1.57935705E-04
  -6.25000009E-03  -1.61686650E-04
  -6.20000018E-03  -1.65509366E-04
  -6.14999980E-03  -1.69405568E-04
  -6.09999988E-03  -1.73378983E-04
  -6.04999997E-03  -1.77434646E-04
  -6.00000005E-03  -1.81576848E-04
  -5.95000014E-03  -1.85806319E-04
  -5.90000022E-03  -1.90122330E-04
  -5.84999984E-03  -1.94527252E-04
  -5.79999993E-03  -1.99023460E-04
  -5.75000001E-03  -2.03609990E-04
  -5.70000010E-03  -2.08284022E-04
  -5.65000018E-03  -2.13045452E-04
  -5.59999980E-03  -2.17899855E-04
  -5.54999989E-03  -2.22853268E-04
  -5.49999997E-03  -2.27906115E-04
  -5.45000006E-03  -2.33051702E-04
  -5.40000014E-03  -2.38283828E-04
  -5.35000023E-03  -2.43604998E-04
  -5.29999984E-03  -2.49019766E-04
  -5.24999993E-03  -2.54526298E-04
  -5.20000001E-03  -2.60120112E-04
  -5.15000010E-03  -2.65800860E-04
  -5.10000018E-03  -2.71575758E-04
  -5.04999980E-03  -2.77452113E-04
  -4.99999989E-03  -2.83428497E-04
  -4.94999997E-03  -2.89500807E-04
  -4.90000006E-03  -2.95669888E-04
  -4.85000014E-03  -3.01941298E-04
  -4.80000023E-03  -3.08323331E-04
  -4.74999985E-03  -3.14821635E-04
  -4.69999993E-03  -3.21437779E-04
  -4.65000002E-03  -3.28171242E-04
  -4.60000010E-03  -3.35021323E-04
  -4.55000019E-03  -3.41988401E-04
  -4.49999981E-03  -3.49071866E-04
  -4.44999989E-03  -3.56270641E-04
  -4.39999998E-03  -3.63583153E-04
  -4.35000006E-03  -3.71008617E-04
  -4.30000015E-03  -3.78549536E-04
  -4.25000023E-03  -3.86211846E-04
  -4.19999985E-03  -3.93996481E-04
  -4.14999994E-03  -4.01897560E-04
  -4.10000002E-03  -4.09910892E-04
  -4.05000011E-03  -4.18036914E-04
  -4.00000019E-03  -4.26280109E-04
  -3.94999981E-03  -4.34645248E-04
  -3.89999989E-03  -4.43138037E-04
  -3.84999998E-03  -4.51767788E-04
  -3.80000006E-03  -4.60538547E-04
  -3.74999992E-03  -4.69447667E-04
  -3.70000000E-03  -4.78493195E-04
  -3.65000009E-03  -4.87678335E-04
  -3.59999994E-03  -4.97006869E-04
  -3.55000002E-03  -5.06480224E-04
  -3.50000011E-03  -5.16097702E-04
  -3.44999996E-03  -5.25860640E-04
  -3.40000005E-03  -5.35779458E-04
  -3.34999990E-03  -5.45860676E-04
  -3.29999998E-03  -5.56103420E-04
  -3.25000007E-03  -5.66503848E-04
  -3.19999992E-03  -5.77051484E-04
  -3.15000000E-03  -5.87740098E-04
  -3.10000009E-03  -5.98571321E-04
  -3.04999994E-03  -6.09557668E-04
  -3.00000003E-03  -6.20716426E-04
  -2.95000011E-03  -6.32052484E-04
  -2.89999996E-03  -6.43552456E-04
  -2.85000005E-03  -6.55215059E-04
  -2.79999990E-03  -6.67050423E-04
  -2.74999999E-03  -6.79052726E-04
  -2.70000007E-03  -6.91215042E-04
  -2.64999992E-03  -7.03531899E-04
  -2.60000001E-03  -7.16011447E-04
  -2.55000009E-03  -7.28674000E-04
  -2.49999994E-03  -7.41531549E-04
  -2.45000003E-03  -7.54590030E-04
  -2.40000011E-03  -7.67851481E-04
  -2.34999997E-03  -7.81307463E-04
  -2.30000005E-03  -7.94949359E-04
  -2.24999990E-03  -8.08775425E-04
  -2.19999999E-03  -8.22786766E-04
  -2.15000007E-03  -8.36990483E-04
  -2.09999993E-03  -8.51405435E-04
  -2.05000001E-03  -8.66038667E-04
  -2.00000009E-03  -8.80883192E-04
  -1.94999995E-03  -8.95938952E-04
  -1.90000003E-03  -9.11204785E-04
  -1.85000000E-03  -9.26668406E-04
  -1.79999997E-03  -9.42319515E-04
  -1.75000005E-03  -9.58158576E-04
  -1.70000002E-03  -9.74183262E-04
  -1.64999999E-03  -9.90401721E-04
  -1.59999996E-03  -1.00684399E-03
  -1.55000004E-03  -1.02353422E-03
  -1.50000001E-03  -1.04047358E-03
  -1.44999998E-03  -1.05764647E-03
  -1.39999995E-03  -1.07502483E-03
  -1.35000004E-03  -1.09260064E-03
  -1.30000000E-03  -1.11040473E-03
  -1.24999997E-03  -1.12845690E-03
  -1.20000006E-03  -1.14675227E-03
  -1.15000003E-03  -1.16528268E-03
  -1.09999999E-03  -1.18406245E-03
  -1.04999996E-03  -1.20312185E-03
  -1.00000005E-03  -1.22246845E-03
  -9.50000016E-04  -1.24206801E-03
  -8.99999985E-04  -1.26187154E-03
  -8.50000011E-04  -1.28185679E-03
  -7.99999980E-04  -1.30204798E-03
  -7.50000007E-04  -1.32249726E-03
  -6.99999975E-04  -1.34323922E-03
  -6.50000002E-04  -1.36425672E-03
  -6.00000028E-04  -1.38552173E-03
  -5.49999997E-04  -1.40704494E-03
  -5.00000024E-04  -1.42884091E-03
  -4.49999992E-04  -1.45089859E-03
  -3.99999990E-04  -1.47319434E-03
  -3.49999988E-04  -1.49570371E-03
  -3.00000014E-04  -1.51843124E-03
  -2.50000012E-04  -1.54143118E-03
  -1.99999995E-04  -1.56476873E-03
  -1.50000007E-04  -1.58845878E-03
  -9.99999975E-05  -1.61245058E-03
  -4.99999987E-05  -1.63667335E-03
   0.00000000      -1.66112080E-03
   4.99999987E-05  -1.68583868E-03
   9.99999975E-05  -1.71083829E-03
   1.50000007E-04  -1.73610053E-03
   1.99999995E-04  -1.76160526E-03
   2.50000012E-04  -1.78738718E-03
   3.00000014E-04  -1.81351649E-03
   3.49999988E-04  -1.84000167E-03
   3.99999990E-04  -1.86678546E-03
   4.49999992E-04  -1.89379079E-03
   5.00000024E-04  -1.92097877E-03
   5.49999997E-04  -1.94838992E-03
   6.00000028E-04  -1.97609654E-03
   6.50000002E-04  -2.00413633E-03
   6.99999975E-04  -2.03248858E-03
   7.50000007E-04  -2.06110859E-03
   7.99999980E-04  -2.09000194E-03
   8.50000011E-04  -2.11920426E-03
   8.99999985E-04  -2.14870996E-03
   9.50000016E-04  -2.17844872E-03
   1.00000005E-03  -2.20836350E-03
   1.04999996E-03  -2.23847921E-03
   1.09999999E-03  -2.26888270E-03
   1.15000003E-03  -2.29966198E-03
   1.20000006E-03  -2.33081402E-03
   1.24999997E-03  -2.36225710E-03
   1.30000000E-03  -2.39391904E-03
   1.35000004E-03  -2.42578844E-03
   1.39999995E-03  -2.45790998E-03
   1.44999998E-03  -2.49029649E-03
   1.50000001E-03  -2.52289325E-03
   1.55000004E-03  -2.55566975E-03
   1.59999996E-03  -2.58867070E-03
   1.64999999E-03  -2.62199924E-03
   1.70000002E-03  -2.65568797E-03
   1.75000005E-03  -2.68965773E-03
   1.79999997E-03  -2.72378861E-03
   1.85000000E-03  -2.75801332E-03
   1.90000003E-03  -2.79239262E-03
   1.94999995E-03  -2.82700779E-03
   2.00000009E-03  -2.86187837E-03
   2.05000001E-03  -2.89697200E-03
   2.09999993E-03  -2.93229544E-03
   2.15000007E-03  -2.96789664E-03
   2.19999999E-03  -3.00378306E-03
   2.24999990E-03  -3.03987903E-03
   2.30000005E-03  -3.07605811E-03
   2.34999997E-03  -3.11232009E-03
   2.40000011E-03  -3.14873620E-03
   2.45000003E-03  -3.18535022E-03
   2.49999994E-03  -3.22217704E-03
   2.55000009E-03  -3.25920386E-03
   2.60000001E-03  -3.29646235E-03
   2.64999992E-03  -3.33394110E-03
   2.70000007E-03  -3.37152905E-03
   2.74999999E-03  -3.40914959E-03
   2.79999990E-03  -3.44680436E-03