  -3.99999991E-02   0.00000000    
  -3.99499983E-02   0.00000000    
  -3.99000011E-02   0.00000000    
  -3.98500003E-02   1.95270656E-15
  -3.97999994E-02   1.47825105E-14
  -3.97499986E-02   5.81758627E-14
  -3.97000015E-02   1.60160771E-13
  -3.96500006E-02   3.51555780E-13
  -3.95999998E-02   6.68166098E-13
  -3.95499989E-02   1.16304308E-12
  -3.95000018E-02   1.90811841E-12
  -3.94500010E-02   2.95837855E-12
  -3.94000001E-02   4.28911464E-12
  -3.93499993E-02   5.77012179E-12
  -3.92999984E-02   7.23863027E-12
  -3.92500013E-02   8.64595201E-12
  -3.92000005E-02   1.01577982E-11
  -3.91499996E-02   1.21024501E-11
  -3.90999988E-02   1.47968547E-11
  -3.90500017E-02   1.83995839E-11
  -3.90000008E-02   2.28988582E-11
  -3.89500000E-02   2.81840939E-11
  -3.88999991E-02   3.40700107E-11
  -3.88499983E-02   4.02562116E-11
  -3.88000011E-02   4.63681697E-11
  -3.87500003E-02   5.21875355E-11
  -3.86999995E-02   5.79249045E-11
  -3.86499986E-02   6.42168749E-11
  -3.86000015E-02   7.17187143E-11
  -3.85500006E-02   8.05813472E-11
  -3.84999998E-02   9.02807690E-11
  -3.84499989E-02   9.99510960E-11
  -3.84000018E-02   1.08866666E-10
  -3.83500010E-02   1.16603033E-10
  -3.83000001E-02   1.22831897E-10
  -3.82499993E-02   1.27163655E-10
  -3.81999984E-02   1.29366684E-10
  -3.81500013E-02   1.29743064E-10
  -3.81000005E-02   1.29116856E-10
  -3.80499996E-02   1.28265884E-10
  -3.79999988E-02   1.27308789E-10
  -3.79500017E-02   1.25685462E-10
  -3.79000008E-02   1.22703459E-10
  -3.78500000E-02   1.17937396E-10
  -3.77999991E-02   1.10940715E-10
  -3.77499983E-02   1.00649857E-10
  -3.77000012E-02   8.54159174E-11
  -3.76500003E-02   6.39837142E-11
  -3.75999995E-02   3.65586728E-11
  -3.75499986E-02   4.75376119E-12
  -3.75000015E-02  -2.97739194E-11
  -3.74500006E-02  -6.68371261E-11
  -3.73999998E-02  -1.08053094E-10
  -3.73499990E-02  -1.55855245E-10
  -3.73000018E-02  -2.12193152E-10
  -3.72500010E-02  -2.77783574E-10
  -3.72000001E-02  -3.51730423E-10
  -3.71499993E-02  -4.30941643E-10
  -3.70999984E-02  -5.09702947E-10
  -3.70500013E-02  -5.80769988E-10
  -3.70000005E-02  -6.38654019E-10
  -3.69499996E-02  -6.83567869E-10
  -3.68999988E-02  -7.22997884E-10
  -3.68500017E-02  -7.69019959E-10
  -3.68000008E-02  -8.32580560E-10
  -3.67500000E-02  -9.18166820E-10
  -3.66999991E-02  -1.02168063E-09
  -3.66499983E-02  -1.13188636E-09
  -3.66000012E-02  -1.23409249E-09
  -3.65500003E-02  -1.31483857E-09
  -3.64999995E-02  -1.36689127E-09
  -3.64499986E-02  -1.39309364E-09
  -3.64000015E-02  -1.40636947E-09
  -3.63500006E-02  -1.42392098E-09
  -3.62999998E-02  -1.45730095E-09
  -3.62499990E-02  -1.50400947E-09
  -3.62000018E-02  -1.54649327E-09
  -3.61500010E-02  -1.55994073E-09
  -3.61000001E-02  -1.52444812E-09
  -3.60499993E-02  -1.43476719E-09
  -3.59999985E-02  -1.30315281E-09
  -3.59500013E-02  -1.15487719E-09
  -3.59000005E-02  -1.01851449E-09
  -3.58499996E-02  -9.13814913E-10
  -3.57999988E-02  -8.40931880E-10
  -3.57500017E-02  -7.76252229E-10
  -3.57000008E-02  -6.79491408E-10
  -3.56500000E-02  -5.11580722E-10
  -3.55999991E-02  -2.55298949E-10
  -3.55499983E-02   7.32512453E-11
  -3.55000012E-02   4.30088853E-10
  -3.54500003E-02   7.63588692E-10
  -3.53999995E-02   1.03892139E-09
  -3.53499986E-02   1.25485122E-09
  -3.53000015E-02   1.44596879E-09
  -3.52500007E-02   1.66999636E-09
  -3.51999998E-02   1.98444638E-09
  -3.51499990E-02   2.42017162E-09
  -3.51000018E-02   2.96234459E-09
  -3.50500010E-02   3.54963636E-09
  -3.50000001E-02   4.09625667E-09
  -3.49499993E-02   4.52941729E-09
  -3.48999985E-02   4.82397455E-09
  -3.48500013E-02   5.01523401E-09
  -3.48000005E-02   5.18232834E-09
  -3.47499996E-02   5.41060396E-09
  -3.46999988E-02   5.75147041E-09
  -3.46500017E-02   6.19758422E-09
  -3.46000008E-02   6.68287603E-09
  -3.45500000E-02   7.10727077E-09
  -3.44999991E-02   7.37779482E-09
  -3.44499983E-02   7.45080531E-09
  -3.44000012E-02   7.35619876E-09
  -3.43500003E-02   7.18847604E-09
  -3.42999995E-02   7.06405867E-09
  -3.42499986E-02   7.06347159E-09
  -3.42000015E-02   7.18798354E-09
  -3.41500007E-02   7.35400496E-09
  -3.40999998E-02   7.42840811E-09
  -3.40499990E-02   7.28690530E-09
  -3.40000018E-02   6.86808921E-09
  -3.39500010E-02   6.20041840E-09
  -3.39000002E-02   5.39153788E-09
  -3.38499993E-02   4.58308813E-09
  -3.37999985E-02   3.88731403E-09
  -3.37500013E-02   3.33137318E-09
  -3.37000005E-02   2.83685542E-09
  -3.36499996E-02   2.24987362E-09
  -3.35999988E-02   1.41231615E-09
  -3.35500017E-02   2.40776427E-10
  -3.35000008E-02  -1.22716071E-09
  -3.34500000E-02  -2.84335089E-09
  -3.33999991E-02  -4.41087522E-09
  -3.33499983E-02  -5.76757930E-09
  -3.33000012E-02  -6.85479451E-09
  -3.32500003E-02  -7.74369280E-09
  -3.31999995E-02  -8.60839577E-09
  -3.31499986E-02  -9.65404734E-09
  -3.31000015E-02  -1.10261889E-08
  -3.30500007E-02  -1.27395490E-08
  -3.29999998E-02  -1.46618921E-08
  -3.29499990E-02  -1.65659717E-08
  -3.29000019E-02  -1.82280129E-08
  -3.28500010E-02  -1.95251424E-08
  -3.28000002E-02  -2.04842667E-08
  -3.27499993E-02  -2.12606519E-08
  -3.26999985E-02  -2.20598331E-08
  -3.26500013E-02  -2.30405295E-08
  -3.26000005E-02  -2.42391973E-08
  -3.25499997E-02  -2.55455710E-08
  -3.24999988E-02  -2.67399933E-08
  -3.24500017E-02  -2.75808034E-08
  -3.24000008E-02  -2.79080137E-08
  -3.23500000E-02  -2.77165384E-08
  -3.22999991E-02  -2.71605050E-08
  -3.22499983E-02  -2.64819064E-08
  -3.22000012E-02  -2.58965525E-08
  -3.21500003E-02  -2.54937849E-08
  -3.20999995E-02  -2.51973766E-08
  -3.20499986E-02  -2.48016487E-08
  -3.20000015E-02  -2.40620555E-08
  -3.19500007E-02  -2.27991102E-08
  -3.18999998E-02  -2.09749516E-08
  -3.18499990E-02  -1.87132425E-08
  -3.18000019E-02  -1.62517075E-08
  -3.17500010E-02  -1.38415910E-08
  -3.17000002E-02  -1.16338361E-08
  -3.16499993E-02  -9.60553770E-09
  -3.15999985E-02  -7.56580842E-09
  -3.15500014E-02  -5.24215649E-09
  -3.15000005E-02  -2.40587861E-09
  -3.14499997E-02   1.02385833E-09
  -3.13999988E-02   4.94230390E-09
  -3.13500017E-02   9.09765419E-09
  -3.13000008E-02   1.31843487E-08
  -3.12500000E-02   1.69543313E-08
  -3.11999992E-02   2.03073451E-08
  -3.11500002E-02   2.33268427E-08
  -3.10999993E-02   2.62415902E-08
  -3.10500003E-02   2.93217148E-08
  -3.09999995E-02   3.27512382E-08
  -3.09500005E-02   3.65371342E-08
  -3.08999997E-02   4.04994971E-08
  -3.08500007E-02   4.43453310E-08
  -3.07999998E-02   4.77868802E-08
  -3.07500008E-02   5.06502680E-08
  -3.07000000E-02   5.29334656E-08
  -3.06499992E-02   5.47982530E-08
  -3.06000002E-02   5.65028735E-08
  -3.05499993E-02   5.82963580E-08
  -3.05000003E-02   6.03096311E-08
  -3.04499995E-02   6.24865208E-08
  -3.04000005E-02   6.45914824E-08
  -3.03499997E-02   6.62998687E-08
  -3.03000007E-02   6.73311504E-08
  -3.02499998E-02   6.75614444E-08
  -3.02000009E-02   6.70623521E-08
  -3.01500000E-02   6.60558470E-08
  -3.00999992E-02   6.48139888E-08
  -3.00500002E-02   6.35441850E-08
  -2.99999993E-02   6.23011545E-08
  -2.99500003E-02   6.09546760E-08
  -2.98999995E-02   5.92295315E-08
  -2.98500005E-02   5.68155407E-08
  -2.97999997E-02   5.35107141E-08
  -2.97500007E-02   4.93321721E-08
  -2.96999998E-02   4.45336177E-08
  -2.96500009E-02   3.95103825E-08
  -2.96000000E-02   3.46361446E-08
  -2.95499992E-02   3.01078877E-08
  -2.95000002E-02   2.58646615E-08
  -2.94499993E-02   2.16098659E-08
  -2.94000003E-02   1.69234973E-08
  -2.93499995E-02   1.14267298E-08
  -2.93000005E-02   4.94506791E-09
  -2.92499997E-02  -2.39416997E-09
  -2.92000007E-02  -1.01834914E-08
  -2.91499998E-02  -1.78870412E-08
  -2.91000009E-02  -2.50655994E-08
  -2.90500000E-02  -3.15700994E-08
  -2.89999992E-02  -3.76059006E-08
  -2.89500002E-02  -4.36353780E-08
  -2.88999993E-02  -5.01676602E-08
  -2.88500004E-02  -5.75298422E-08
  -2.87999995E-02  -6.57119728E-08
  -2.87500005E-02  -7.43427790E-08
  -2.86999997E-02  -8.28097058E-08
  -2.86500007E-02  -9.04889745E-08
  -2.85999998E-02  -9.70019727E-08
  -2.85500009E-02  -1.02386963E-07
  -2.85000000E-02  -1.07092340E-07
  -2.84499992E-02  -1.11777680E-07
  -2.84000002E-02  -1.17008810E-07
  -2.83499993E-02  -1.22990841E-07
  -2.83000004E-02  -1.29466500E-07
  -2.82499995E-02  -1.35820869E-07
  -2.82000005E-02  -1.41337182E-07
  -2.81499997E-02  -1.45490091E-07
  -2.81000007E-02  -1.48161050E-07
  -2.80499998E-02  -1.49690266E-07
  -2.80000009E-02  -1.50730116E-07
  -2.79500000E-02  -1.51948839E-07
  -2.78999992E-02  -1.53702771E-07
  -2.78500002E-02  -1.55832367E-07
  -2.77999993E-02  -1.57698338E-07
  -2.77500004E-02  -1.58452195E-07
  -2.76999995E-02  -1.57414931E-07
  -2.76500005E-02  -1.54382775E-07
  -2.75999997E-02  -1.49720563E-07
  -2.75500007E-02  -1.44206695E-07
  -2.74999999E-02  -1.38701594E-07
  -2.74500009E-02  -1.33779793E-07
  -2.74000000E-02  -1.29473364E-07
  -2.73499992E-02  -1.25235402E-07
  -2.73000002E-02  -1.20153288E-07
  -2.72499993E-02  -1.13343809E-07
  -2.72000004E-02  -1.04365647E-07
  -2.71499995E-02  -9.34474400E-08
  -2.71000005E-02  -8.14088352E-08
  -2.70499997E-02  -6.93067932E-08
  -2.70000007E-02  -5.79759103E-08
  -2.69499999E-02  -4.76752540E-08
  -2.69000009E-02  -3.79901941E-08
  -2.68500000E-02  -2.80161370E-08
  -2.67999992E-02  -1.67422201E-08
  -2.67500002E-02  -3.48117757E-09
  -2.66999993E-02   1.18228467E-08
  -2.66500004E-02   2.85402528E-08
  -2.65999995E-02   4.55976625E-08
  -2.65500005E-02   6.19255829E-08
  -2.64999997E-02   7.69129116E-08
  -2.64500007E-02   9.06490172E-08
  -2.63999999E-02   1.03840620E-07
  -2.63500009E-02   1.17451691E-07
  -2.63000000E-02   1.32247266E-07
  -2.62499992E-02   1.48453040E-07
  -2.62000002E-02   1.65658008E-07
  -2.61499994E-02   1.82980358E-07
  -2.61000004E-02   1.99427262E-07
  -2.60499995E-02   2.14306965E-07
  -2.60000005E-02   2.27524325E-07
  -2.59499997E-02   2.39624057E-07
  -2.59000007E-02   2.51547277E-07
  -2.58499999E-02   2.64193972E-07
  -2.58000009E-02   2.77995611E-07
  -2.57500000E-02   2.92712741E-07
  -2.56999992E-02   3.07540489E-07
  -2.56500002E-02   3.21455389E-07
  -2.55999994E-02   3.33628122E-07
  -2.55500004E-02   3.43734484E-07
  -2.54999995E-02   3.52056162E-07
  -2.54500005E-02   3.59342806E-07
  -2.53999997E-02   3.66484954E-07
  -2.53500007E-02   3.74115615E-07
  -2.52999999E-02   3.82308627E-07
  -2.52500009E-02   3.90508774E-07
  -2.52000000E-02   3.97743463E-07
  -2.51499992E-02   4.03035017E-07
  -2.51000002E-02   4.05812045E-07
  -2.50499994E-02   4.06132898E-07
  -2.50000004E-02   4.04642037E-07
  -2.49499995E-02   4.02299094E-07
  -2.49000005E-02   4.00005774E-07
  -2.48499997E-02   3.98265598E-07
  -2.48000007E-02   3.96983808E-07
  -2.47499999E-02   3.95475155E-07
  -2.47000009E-02   3.92694545E-07
  -2.46500000E-02   3.87625505E-07
  -2.45999992E-02   3.79671178E-07
  -2.45500002E-02   3.68876130E-07
  -2.44999994E-02   3.55878882E-07
  -2.44500004E-02   3.41612008E-07
  -2.43999995E-02   3.26900420E-07
  -2.43500005E-02   3.12132130E-07
  -2.42999997E-02   2.97108187E-07
  -2.42500007E-02   2.81101876E-07
  -2.41999999E-02   2.63102748E-07
  -2.41500009E-02   2.42181500E-07
  -2.41000000E-02   2.17854861E-07
  -2.40499992E-02   1.90304078E-07
  -2.40000002E-02   1.60320923E-07
  -2.39499994E-02   1.28970228E-07
  -2.39000004E-02   9.71168461E-08
  -2.38499995E-02   6.50319620E-08
  -2.38000005E-02   3.22613971E-08
  -2.37499997E-02  -2.19927543E-09
  -2.37000007E-02  -3.95184649E-08
  -2.36499999E-02  -8.05708709E-08
  -2.36000009E-02  -1.25575426E-07
  -2.35500000E-02  -1.73971245E-07
  -2.34999992E-02  -2.24607589E-07
  -2.34500002E-02  -2.76222096E-07
  -2.33999994E-02  -3.28028563E-07
  -2.33500004E-02  -3.80144627E-07
  -2.32999995E-02  -4.33618226E-07
  -2.32500006E-02  -4.90015054E-07
  -2.31999997E-02  -5.50746506E-07
  -2.31500007E-02  -6.16434534E-07
  -2.30999999E-02  -6.86594944E-07
  -2.30500009E-02  -7.59773059E-07
  -2.30000000E-02  -8.34092077E-07
  -2.29499992E-02  -9.08004097E-07
  -2.29000002E-02  -9.80963250E-07
  -2.28499994E-02  -1.05373147E-06
  -2.28000004E-02  -1.12813495E-06
  -2.27499995E-02  -1.20629750E-06
  -2.27000006E-02  -1.28968088E-06
  -2.26499997E-02  -1.37836878E-06
  -2.26000007E-02  -1.47094329E-06
  -2.25499999E-02  -1.56505030E-06
  -2.25000009E-02  -1.65839447E-06
  -2.24500000E-02  -1.74970955E-06
  -2.23999992E-02  -1.83930786E-06
  -2.23500002E-02  -1.92899574E-06
  -2.22999994E-02  -2.02133810E-06
  -2.22500004E-02  -2.11855240E-06
  -2.21999995E-02  -2.22148310E-06
  -2.21500006E-02  -2.32909792E-06
  -2.20999997E-02  -2.43882459E-06
  -2.20500007E-02  -2.54762585E-06
  -2.19999999E-02  -2.65330209E-06
  -2.19500009E-02  -2.75543698E-06
  -2.19000001E-02  -2.85555120E-06
  -2.18499992E-02  -2.95638301E-06
  -2.18000002E-02  -3.06064749E-06
  -2.17499994E-02  -3.16980049E-06
  -2.17000004E-02  -3.28332112E-06
  -2.16499995E-02  -3.39886856E-06
  -2.16000006E-02  -3.51324320E-06
  -2.15499997E-02  -3.62376704E-06
  -2.15000007E-02  -3.72951013E-06
  -2.14499999E-02  -3.83178076E-06
  -2.14000009E-02  -3.93357413E-06
  -2.13500001E-02  -4.03817830E-06
  -2.12999992E-02  -4.14758142E-06
  -2.12500002E-02  -4.26149336E-06
  -2.11999994E-02  -4.37739709E-06
  -2.11500004E-02  -4.49157915E-06
  -2.10999995E-02  -4.60069850E-06
  -2.10500006E-02  -4.70324085E-06
  -2.09999997E-02  -4.80024937E-06
  -2.09500007E-02  -4.89495642E-06
  -2.08999999E-02  -4.99142789E-06
  -2.08500009E-02  -5.09276833E-06
  -2.08000001E-02  -5.19970581E-06
  -2.07499992E-02  -5.31021396E-06
  -2.07000002E-02  -5.42040789E-06
  -2.06499994E-02  -5.52628217E-06
  -2.06000004E-02  -5.62552486E-06
  -2.05499995E-02  -5.71863393E-06
  -2.05000006E-02  -5.80876622E-06
  -2.04499997E-02  -5.90040327E-06
  -2.04000007E-02  -5.99748000E-06
  -2.03499999E-02  -6.10177403E-06
  -2.03000009E-02  -6.21214531E-06
  -2.02500001E-02  -6.32508181E-06
  -2.01999992E-02  -6.43629619E-06
  -2.01500002E-02  -6.54273208E-06
  -2.00999994E-02  -6.64403433E-06
  -2.00500004E-02  -6.74284638E-06
  -1.99999996E-02  -6.84376892E-06
  -1.99500006E-02  -6.95139943E-06
  -1.98999997E-02  -7.06846185E-06
  -1.98500007E-02  -7.19483842E-06
  -1.97999999E-02  -7.32782792E-06
  -1.97500009E-02  -7.46348906E-06
  -1.97000001E-02  -7.59868772E-06
  -1.96499992E-02  -7.73276133E-06
  -1.96000002E-02  -7.86795499E-06
  -1.95499994E-02  -8.00868020E-06
  -1.95000004E-02  -8.15984095E-06
  -1.94499996E-02  -8.32485694E-06
  -1.94000006E-02  -8.50438028E-06
  -1.93499997E-02  -8.69615087E-06
  -1.93000007E-02  -8.89626244E-06
  -1.92499999E-02  -9.10125254E-06
  -1.92000009E-02  -9.30983242E-06
  -1.91500001E-02  -9.52373102E-06
  -1.90999992E-02  -9.74728846E-06
  -1.90500002E-02  -9.98568248E-06
  -1.89999994E-02  -1.02428612E-05
  -1.89500004E-02  -1.05201607E-05
  -1.88999996E-02  -1.08159838E-05
  -1.88500006E-02  -1.11267636E-05
  -1.87999997E-02  -1.14486274E-05
  -1.87500007E-02  -1.17793879E-05
  -1.86999999E-02  -1.21198273E-05
  -1.86500009E-02  -1.24736671E-05
  -1.86000001E-02  -1.28463244E-05
  -1.85499992E-02  -1.32427085E-05
  -1.85000002E-02  -1.36652761E-05
  -1.84499994E-02  -1.41133969E-05
  -1.84000004E-02  -1.45838731E-05
  -1.83499996E-02  -1.50725846E-05
  -1.83000006E-02  -1.55764665E-05
  -1.82499997E-02  -1.60947366E-05
  -1.82000007E-02  -1.66294558E-05
  -1.81499999E-02  -1.71846586E-05
  -1.81000009E-02  -1.77648253E-05
  -1.80500001E-02  -1.83731354E-05
  -1.79999992E-02  -1.90101491E-05
  -1.79500002E-02  -1.96736619E-05
  -1.78999994E-02  -2.03599448E-05
  -1.78500004E-02  -2.10658400E-05
  -1.77999996E-02  -2.17902016E-05
  -1.77500006E-02  -2.25342319E-05
  -1.76999997E-02  -2.33009559E-05
  -1.76500008E-02  -2.40942172E-05
  -1.75999999E-02  -2.49172826E-05
  -1.75500009E-02  -2.57715146E-05
  -1.75000001E-02  -2.66555689E-05
  -1.74499992E-02  -2.75659440E-05
  -1.74000002E-02  -2.84988218E-05
  -1.73499994E-02  -2.94519232E-05
  -1.73000004E-02  -3.04255245E-05
  -1.72499996E-02  -3.14219724E-05
  -1.72000006E-02  -3.24445245E-05
  -1.71499997E-02  -3.34961333E-05
  -1.71000008E-02  -3.45781882E-05
  -1.70499999E-02  -3.56900528E-05
  -1.70000009E-02  -3.68290603E-05
  -1.69500001E-02  -3.79915982E-05
  -1.68999992E-02  -3.91747490E-05
  -1.68500002E-02  -4.03773956E-05
  -1.67999994E-02  -4.16008224E-05
  -1.67500004E-02  -4.28483036E-05
  -1.66999996E-02  -4.41237644E-05
  -1.66500006E-02  -4.54297515E-05
  -1.65999997E-02  -4.67663449E-05
  -1.65500008E-02  -4.81319039E-05
  -1.64999999E-02  -4.95232889E-05
  -1.64500009E-02  -5.09367637E-05
  -1.64000001E-02  -5.23697272E-05
  -1.63499992E-02  -5.38219028E-05
  -1.63000003E-02  -5.52956990E-05
  -1.62499994E-02  -5.67946590E-05
  -1.62000004E-02  -5.83222281E-05
  -1.61499996E-02  -5.98806764E-05
  -1.61000006E-02  -6.14698947E-05
  -1.60499997E-02  -6.30876311E-05
  -1.60000008E-02  -6.47309207E-05
  -1.59499999E-02  -6.63976389E-05
  -1.59000009E-02  -6.80866942E-05
  -1.58500001E-02  -6.97984724E-05
  -1.57999992E-02  -7.15356218E-05
  -1.57500003E-02  -7.33022316E-05
  -1.56999994E-02  -7.51016996E-05
  -1.56500004E-02  -7.69354519E-05
  -1.55999996E-02  -7.88028992E-05
  -1.55499997E-02  -8.07023753E-05
  -1.54999997E-02  -8.26318937E-05
  -1.54499998E-02  -8.45903705E-05
  -1.53999999E-02  -8.65781185E-05
  -1.53500000E-02  -8.85970076E-05
  -1.53000001E-02  -9.06509085E-05
  -1.52500002E-02  -9.27446963E-05
  -1.52000003E-02  -9.48817978E-05
  -1.51500003E-02  -9.70620604E-05
  -1.51000004E-02  -9.92834466E-05
  -1.50499996E-02  -1.01544763E-04
  -1.49999997E-02  -1.03845508E-04
  -1.49499997E-02  -1.06186548E-04
  -1.48999998E-02  -1.08570232E-04
  -1.48499999E-02  -1.11000467E-04
  -1.48000000E-02  -1.13482129E-04
  -1.47500001E-02  -1.16020477E-04
  -1.47000002E-02  -1.18619355E-04
  -1.46500003E-02  -1.21278666E-04
  -1.46000003E-02  -1.23995967E-04
  -1.45500004E-02  -1.26768413E-04
  -1.44999996E-02  -1.29596010E-04
  -1.44499997E-02  -1.32482222E-04
  -1.43999998E-02  -1.35431517E-04
  -1.43499998E-02  -1.38448304E-04
  -1.42999999E-02  -1.41537399E-04
  -1.42500000E-02  -1.44703765E-04
  -1.42000001E-02  -1.47952014E-04
  -1.41500002E-02  -1.51282817E-04
  -1.41000003E-02  -1.54692374E-04
  -1.40500003E-02  -1.58177616E-04
  -1.40000004E-02  -1.61739124E-04
  -1.39499996E-02  -1.65382662E-04
  -1.38999997E-02  -1.69116422E-04
  -1.38499998E-02  -1.72946136E-04
  -1.37999998E-02  -1.76874470E-04
  -1.37499999E-02  -1.80904171E-04
  -1.37000000E-02  -1.85039855E-04
  -1.36500001E-02  -1.89284037E-04
  -1.36000002E-02  -1.93634332E-04
  -1.35500003E-02  -1.98086535E-04
  -1.35000004E-02  -2.02639683E-04
  -1.34500004E-02  -2.07301506E-04
  -1.33999996E-02  -2.12082843E-04
  -1.33499997E-02  -2.16989152E-04
  -1.32999998E-02  -2.22021728E-04
  -1.32499998E-02  -2.27181416E-04
  -1.31999999E-02  -2.32470062E-04
  -1.31500000E-02  -2.37890417E-04
  -1.31000001E-02  -2.43444403E-04
  -1.30500002E-02  -2.49130855E-04
  -1.30000003E-02  -2.54950632E-04
  -1.29500004E-02  -2.60912144E-04
  -1.29000004E-02  -2.67027091E-04
  -1.28499996E-02  -2.73301033E-04
  -1.27999997E-02  -2.79731408E-04
  -1.27499998E-02  -2.86314753E-04
  -1.26999998E-02  -2.93052057E-04
  -1.26499999E-02  -2.99947773E-04
  -1.26000000E-02  -3.07004084E-04
  -1.25500001E-02  -3.14219738E-04
  -1.25000002E-02  -3.21599917E-04
  -1.24500003E-02  -3.29156930E-04
  -1.24000004E-02  -3.36904108E-04
  -1.23500004E-02  -3.44848697E-04
  -1.22999996E-02  -3.52988718E-04
  -1.22499997E-02  -3.61315382E-04
  -1.21999998E-02  -3.69821966E-04
  -1.21499998E-02  -3.78509809E-04
  -1.20999999E-02  -3.87382606E-04
  -1.20500000E-02  -3.96441494E-04
  -1.20000001E-02  -4.05686005E-04
  -1.19500002E-02  -4.15123912E-04
  -1.19000003E-02  -4.24770144E-04
  -1.18500004E-02  -4.34641930E-04
  -1.18000004E-02  -4.44745267E-04
  -1.17499996E-02  -4.55074303E-04
  -1.16999997E-02  -4.65629855E-04
  -1.16499998E-02  -4.76421526E-04
  -1.15999999E-02  -4.87460231E-04
  -1.15499999E-02  -4.98748384E-04
  -1.15000000E-02  -5.10279846E-04
  -1.14500001E-02  -5.22045651E-04
  -1.14000002E-02  -5.34042949E-04
  -1.13500003E-02  -5.46273484E-04
  -1.13000004E-02  -5.58728818E-04
  -1.12500004E-02  -5.71395503E-04
  -1.11999996E-02  -5.84271736E-04
  -1.11499997E-02  -5.97368809E-04
  -1.10999998E-02  -6.10712392E-04
  -1.10499999E-02  -6.24330540E-04
  -1.09999999E-02  -6.38242229E-04
  -1.09500000E-02  -6.52464223E-04
  -1.09000001E-02  -6.67010783E-04
  -1.08500002E-02  -6.81890699E-04
  -1.08000003E-02  -6.97101816E-04
  -1.07500004E-02  -7.12627487E-04
  -1.07000005E-02  -7.28451821E-04
  -1.06499996E-02  -7.44565448E-04
  -1.05999997E-02  -7.60953408E-04
  -1.05499998E-02  -7.77607493E-04
  -1.04999999E-02  -7.94521242E-04
  -1.04499999E-02  -8.11691221E-04
  -1.04000000E-02  -8.29125696E-04
  -1.03500001E-02  -8.46831885E-04
  -1.03000002E-02  -8.64821079E-04
  -1.02500003E-02  -8.83110100E-04
  -1.02000004E-02  -9.01724445E-04
  -1.01500005E-02  -9.20691004E-04
  -1.00999996E-02  -9.40032012E-04
  -1.00499997E-02  -9.59765690E-04
  -9.99999978E-03  -9.79897333E-04
  -9.94999986E-03  -1.00042194E-03
  -9.89999995E-03  -1.02132314E-03
  -9.85000003E-03  -1.04258943E-03
  -9.80000012E-03  -1.06421369E-03
  -9.75000020E-03  -1.08618138E-03
  -9.70000029E-03  -1.10848492E-03
  -9.65000037E-03  -1.13113294E-03
  -9.60000046E-03  -1.15412916E-03
  -9.54999961E-03  -1.17748359E-03
  -9.49999969E-03  -1.20120193E-03
  -9.44999978E-03  -1.22527732E-03
  -9.39999986E-03  -1.24971010E-03
  -9.34999995E-03  -1.27450190E-03
  -9.30000003E-03  -1.29965786E-03
  -9.25000012E-03  -1.32517808E-03
  -9.20000020E-03  -1.35106710E-03
  -9.15000029E-03  -1.37734821E-03
  -9.10000037E-03  -1.40404294E-03
  -9.05000046E-03  -1.43116328E-03
  -8.99999961E-03  -1.45871693E-03
  -8.94999970E-03  -1.48670014E-03
  -8.89999978E-03  -1.51510478E-03
  -8.84999987E-03  -1.54394971E-03
  -8.79999995E-03  -1.57326029E-03
  -8.75000004E-03  -1.60303514E-03
  -8.70000012E-03  -1.63326296E-03
  -8.65000021E-03  -1.66394038E-03
  -8.60000029E-03  -1.69505354E-03
  -8.55000038E-03  -1.72659988E-03
  -8.50000046E-03  -1.75858452E-03
  -8.44999962E-03  -1.79098581E-03
  -8.39999970E-03  -1.82378606E-03
  -8.34999979E-03  -1.85699121E-03
  -8.29999987E-03  -1.89062429E-03
  -8.24999996E-03  -1.92470453E-03
  -8.20000004E-03  -1.95925101E-03
  -8.15000013E-03  -1.99427223E-03
  -8.10000021E-03  -2.02976959E-03
  -8.05000030E-03  -2.06572167E-03
  -8.00000038E-03  -2.10212870E-03
  -7.95000046E-03  -2.13901652E-03
  -7.89999962E-03  -2.17640819E-03
  -7.84999970E-03  -2.21431255E-03
  -7.79999979E-03  -2.25271378E-03
  -7.74999987E-03  -2.29162397E-03
  -7.69999996E-03  -2.33109063E-03
  -7.65000004E-03  -2.37113610E-03
  -7.60000013E-03  -2.41173944E-03
  -7.55000021E-03  -2.45287875E-03
  -7.49999983E-03  -2.49455008E-03
  -7.44999992E-03  -2.53676134E-03
  -7.40000000E-03  -2.57952907E-03
  -7.35000009E-03  -2.62286817E-03
  -7.30000017E-03  -2.66675628E-03
  -7.24999979E-03  -2.71115359E-03
  -7.19999988E-03  -2.75607337E-03
  -7.14999996E-03  -2.80156475E-03
  -7.10000005E-03  -2.84763938E-03
  -7.05000013E-03  -2.89425906E-03
  -7.00000022E-03  -2.94139888E-03
  -6.94999984E-03  -2.98907910E-03
  -6.89999992E-03  -3.03736795E-03
  -6.85000001E-03  -3.08633386E-03
  -6.80000009E-03  -3.13596451E-03
  -6.75000018E-03  -3.18618515E-03
  -6.69999979E-03  -3.23697855E-03
  -6.64999988E-03  -3.28841479E-03
  -6.59999996E-03  -3.34060309E-03
  -6.55000005E-03  -3.39353434E-03
  -6.50000013E-03  -3.44709959E-03
  -6.45000022E-03  -3.50128999E-03
  -6.39999984E-03  -3.55616864E-03
  -6.34999992E-03  -3.61179677E-03
  -6.30000001E-03  -3.66821140E-03
  -6.25000009E-03  -3.72538948E-03
  -6.20000018E-03  -3.78324650E-03
  -6.14999980E-03  -3.84173635E-03
  -6.09999988E-03  -3.90092982E-03
  -6.04999997E-03  -3.96089768E-03
  -6.00000005E-03  -4.02160827E-03
  -5.95000014E-03  -4.08300944E-03
  -5.90000022E-03  -4.14511096E-03
  -5.84999984E-03  -4.20796545E-03
  -5.79999993E-03  -4.27161949E-03
  -5.75000001E-03  -4.33609262E-03
  -5.70000010E-03  -4.40134807E-03
  -5.65000018E-03  -4.46735043E-03
  -5.59999980E-03  -4.53412673E-03
  -5.54999989E-03  -4.60177893E-03
  -5.49999997E-03  -4.67038201E-03
  -5.45000006E-03  -4.73985728E-03
  -5.40000014E-03  -4.81013628E-03
  -5.35000023E-03  -4.88126464E-03
  -5.29999984E-03  -4.95332107E-03
  -5.24999993E-03  -5.02634468E-03
  -5.20000001E-03  -5.10032009E-03
  -5.15000010E-03  -5.17518492E-03
  -5.10000018E-03  -5.25094289E-03
  -5.04999980E-03  -5.32764103E-03
  -4.99999989E-03  -5.40529285E-03
  -4.94999997E-03  -5.48389740E-03
  -4.90000006E-03  -5.56340674E-03
  -4.85000014E-03  -5.64378314E-03
  -4.80000023E-03  -5.72504057E-03
  -4.74999985E-03  -5.80718834E-03
  -4.69999993E-03  -5.89027908E-03
  -4.65000002E-03  -5.97434537E-03
  -4.60000010E-03  -6.05937280E-03
  -4.55000019E-03  -6.14537485E-03
  -4.49999981E-03  -6.23240601E-03
  -4.44999989E-03  -6.32052589E-03
  -4.39999998E-03  -6.40976243E-03
  -4.35000006E-03  -6.50005881E-03
  -4.30000015E-03  -6.59136428E-03
  -4.25000023E-03  -6.68369839E-03
  -4.19999985E-03  -6.77717198E-03
  -4.14999994E-03  -6.87186467E-03
  -4.10000002E-03  -6.96767634E-03
  -4.05000011E-03  -7.06451712E-03
  -4.00000019E-03  -7.16235116E-03
  -3.94999981E-03  -7.26124598E-03
  -3.89999989E-03  -7.36129377E-03
  -3.84999998E-03  -7.46247312E-03
  -3.80000006E-03  -7.56470719E-03
  -3.74999992E-03  -7.66786700E-03
  -3.70000000E-03  -7.77205871E-03
  -3.65000009E-03  -7.87752867E-03
  -3.59999994E-03  -7.98424799E-03
  -3.55000002E-03  -8.09201598E-03
  -3.50000011E-03  -8.20075627E-03
  -3.44999996E-03  -8.31066724E-03
  -3.40000005E-03  -8.42189603E-03
  -3.34999990E-03  -8.53434391E-03
  -3.29999998E-03  -8.64785165E-03
  -3.25000007E-03  -8.76242761E-03
  -3.19999992E-03  -8.87823198E-03
  -3.15000000E-03  -8.99542123E-03
  -3.10000009E-03  -9.11401957E-03
  -3.04999994E-03  -9.23382770E-03
  -3.00000003E-03  -9.35462583E-03
  -2.95000011E-03  -9.47653316E-03
  -2.89999996E-03  -9.59973317E-03
  -2.85000005E-03  -9.72425006E-03
  -2.79999990E-03  -9.85004753E-03
  -2.74999999E-03  -9.97697469E-03
  -2.70000007E-03  -1.01050138E-02
  -2.64999992E-03  -1.02343783E-02
  -2.60000001E-03  -1.03651658E-02
  -2.55000009E-03  -1.04972264E-02
  -2.49999994E-03  -1.06303478E-02
  -2.45000003E-03  -1.07644964E-02
  -2.40000011E-03  -1.08999340E-02
  -2.34999997E-03  -1.10368785E-02
  -2.30000005E-03  -1.11751156E-02
  -2.24999990E-03  -1.13143884E-02
  -2.19999999E-03  -1.14547163E-02
  -2.15000007E-03  -1.15963789E-02
  -2.09999993E-03  -1.17396228E-02
  -2.05000001E-03  -1.18843103E-02
  -2.00000009E-03  -1.20301880E-02
  -1.94999995E-03  -1.21771907E-02
  -1.90000003E-03  -1.23254936E-02
  -1.85000000E-03  -1.24752317E-02
  -1.79999997E-03  -1.26264291E-02
  -1.75000005E-03  -1.27790831E-02
  -1.70000002E-03  -1.29329832E-02
  -1.64999999E-03  -1.30880624E-02
  -1.59999996E-03  -1.32444873E-02
  -1.55000004E-03  -1.34022990E-02
  -1.50000001E-03  -1.35613875E-02
  -1.44999998E-03  -1.37216700E-02
  -1.39999995E-03  -1.38830617E-02
  -1.35000004E-03  -1.40457135E-02
  -1.30000000E-03  -1.42099140E-02
  -1.24999997E-03  -1.43755469E-02
  -1.20000006E-03  -1.45424865E-02
  -1.15000003E-03  -1.47106405E-02
  -1.09999999E-03  -1.48799792E-02
  -1.04999996E-03  -1.50506431E-02
  -1.00000005E-03  -1.52227180E-02
  -9.50000016E-04  -1.53961498E-02
  -8.99999985E-04  -1.55710224E-02
  -8.50000011E-04  -1.57474522E-02
  -7.99999980E-04  -1.59253292E-02
  -7.50000007E-04  -1.61044560E-02
  -6.99999975E-04  -1.62849296E-02
  -6.50000002E-04  -1.64667591E-02
  -6.00000028E-04  -1.66498739E-02
  -5.49999997E-04  -1.68343671E-02
  -5.00000024E-04  -1.70200728E-02
  -4.49999992E-04  -1.72069389E-02
  -3.99999990E-04  -1.73954479E-02
  -3.49999988E-04  -1.75857134E-02
  -3.00000014E-04  -1.77772380E-02
  -2.50000012E-04  -1.79697275E-02
  -1.99999995E-04  -1.81631632E-02
  -1.50000007E-04  -1.83580425E-02
  -9.99999975E-05  -1.85546745E-02
  -4.99999987E-05  -1.87526774E-02
   0.00000000      -1.89515557E-02
   4.99999987E-05  -1.91515367E-02
   9.99999975E-05  -1.93532575E-02
   1.50000007E-04  -1.95570290E-02
   1.99999995E-04  -1.97624005E-02
   2.50000012E-04  -1.99684072E-02
   3.00000014E-04  -2.01749951E-02
   3.49999988E-04  -2.03829110E-02
   3.99999990E-04  -2.05929857E-02
   4.49999992E-04  -2.08051596E-02
   5.00000024E-04  -2.10182257E-02
   5.49999997E-04  -2.12317426E-02
   6.00000028E-04  -2.14465186E-02
   6.50000002E-04  -2.16632485E-02
   6.99999975E-04  -2.18819398E-02
   7.50000007E-04  -2.21018344E-02
   7.99999980E-04  -2.23222468E-02
   8.50000011E-04  -2.25434359E-02
   8.99999985E-04  -2.27660891E-02
   9.50000016E-04  -2.29906701E-02
   1.00000005E-03  -2.32168380E-02
   1.04999996E-03  -2.34439578E-02
   1.09999999E-03  -2.36719232E-02
   1.15000003E-03  -2.39010025E-02
   1.20000006E-03  -2.41315272E-02
   1.24999997E-03  -2.43637860E-02
   1.30000000E-03  -2.45975517E-02
   1.35000004E-03  -2.48320159E-02
   1.39999995E-03  -2.50669550E-02
   1.44999998E-03  -2.53031421E-02
   1.50000001E-03  -2.55415197E-02
   1.55000004E-03  -2.57819444E-02
   1.59999996E-03  -2.60233842E-02
   1.64999999E-03  -2.62649022E-02
   1.70000002E-03  -2.65072100E-02
   1.75000005E-03  -2.67514028E-02
   1.79999997E-03  -2.69973315E-02
   1.85000000E-03  -2.72445586E-02
   1.90000003E-03  -2.74923258E-02
   1.94999995E-03  -2.77404245E-02
   2.00000009E-03  -2.79896222E-02
   2.05000001E-03  -2.82406695E-02
   2.09999993E-03  -2.84931678E-02
   2.15000007E-03  -2.87459958E-02
   2.19999999E-03  -2.89988276E-02
   2.24999990E-03  -2.92524230E-02
   2.30000005E-03  -2.95077786E-02
   2.34999997E-03  -2.97649652E-02
   2.40000011E-03  -3.00231092E-02
   2.45000003E-03  -3.02816313E-02
   2.49999994E-03  -3.05405408E-02
   2.55000009E-03  -3.08004394E-02
   2.60000001E-03  -3.10616978E-02
   2.64999992E-03  -3.13238129E-02
   2.70000007E-03  -3.15863490E-02
   2.74999999E-03  -3.18493582E-02
   2.79999990E-03  -3.21132280E-02