  -3.99999991E-02   0.00000000    
  -3.99499983E-02   0.00000000    
  -3.99000011E-02   0.00000000    
  -3.98500003E-02   0.00000000    
  -3.97999994E-02   0.00000000    
  -3.97499986E-02  -1.85252952E-22
  -3.97000015E-02  -2.11456021E-21
  -3.96500006E-02  -1.27725362E-20
  -3.95999998E-02  -5.39168505E-20
  -3.95499989E-02  -1.77639428E-19
  -3.95000018E-02  -4.84407203E-19
  -3.94500010E-02  -1.13336048E-18
  -3.94000001E-02  -2.33082353E-18
  -3.93499993E-02  -4.28781726E-18
  -3.92999984E-02  -7.15399395E-18
  -3.92500013E-02  -1.09590744E-17
  -3.92000005E-02  -1.56094573E-17
  -3.91499996E-02  -2.09793997E-17
  -3.90999988E-02  -2.70943804E-17
  -3.90500017E-02  -3.43411277E-17
  -3.90000008E-02  -4.35888184E-17
  -3.89500000E-02  -5.61095932E-17
  -3.88999991E-02  -7.32629567E-17
  -3.88499983E-02  -9.60363772E-17
  -3.88000011E-02  -1.24650216E-16
  -3.87500003E-02  -1.58466722E-16
  -3.86999995E-02  -1.96345387E-16
  -3.86499986E-02  -2.37378178E-16
  -3.86000015E-02  -2.81704841E-16
  -3.85500006E-02  -3.30972936E-16
  -3.84999998E-02  -3.88074921E-16
  -3.84499989E-02  -4.56085685E-16
  -3.84000018E-02  -5.36737303E-16
  -3.83500010E-02  -6.29105664E-16
  -3.83000001E-02  -7.29231099E-16
  -3.82499993E-02  -8.31066164E-16
  -3.81999984E-02  -9.28535304E-16
  -3.81500013E-02  -1.01788701E-15
  -3.81000005E-02  -1.09923711E-15
  -3.80499996E-02  -1.17643834E-15
  -3.79999988E-02  -1.25510388E-15
  -3.79500017E-02  -1.33947832E-15
  -3.79000008E-02  -1.42946350E-15
  -3.78500000E-02  -1.51916884E-15
  -3.77999991E-02  -1.59774883E-15
  -3.77499983E-02  -1.65227096E-15
  -3.77000012E-02  -1.67137229E-15
  -3.76500003E-02  -1.64802214E-15
  -3.75999995E-02  -1.58007485E-15
  -3.75499986E-02  -1.46833013E-15
  -3.75000015E-02  -1.31301245E-15
  -3.74500006E-02  -1.11033176E-15
  -3.73999998E-02  -8.50717223E-16
  -3.73499990E-02  -5.19506588E-16
  -3.73000018E-02  -9.97884287E-17
  -3.72500010E-02   4.23748402E-16
  -3.72000001E-02   1.06130507E-15
  -3.71499993E-02   1.81578453E-15
  -3.70999984E-02   2.68224947E-15
  -3.70500013E-02   3.64886674E-15
  -3.70000005E-02   4.69906689E-15
  -3.69499996E-02   5.81486382E-15
  -3.68999988E-02   6.98137642E-15
  -3.68500017E-02   8.19218757E-15
  -3.68000008E-02   9.45410149E-15
  -3.67500000E-02   1.07888357E-14
  -3.66999991E-02   1.22289797E-14
  -3.66499983E-02   1.38071732E-14
  -3.66000012E-02   1.55406473E-14
  -3.65500003E-02   1.74167457E-14
  -3.64999995E-02   1.93866987E-14
  -3.64499986E-02   2.13730621E-14
  -3.64000015E-02   2.32907853E-14
  -3.63500006E-02   2.50747655E-14
  -3.62999998E-02   2.67013923E-14
  -3.62499990E-02   2.81916231E-14
  -3.62000018E-02   2.95896662E-14
  -3.61500010E-02   3.09230655E-14
  -3.61000001E-02   3.21614141E-14
  -3.60499993E-02   3.31960750E-14
  -3.59999985E-02   3.38575535E-14
  -3.59500013E-02   3.39710255E-14
  -3.59000005E-02   3.34301848E-14
  -3.58499996E-02   3.22550926E-14
  -3.57999988E-02   3.06001799E-14
  -3.57500017E-02   2.86966936E-14
  -3.57000008E-02   2.67443521E-14
  -3.56500000E-02   2.47958307E-14
  -3.55999991E-02   2.26903660E-14
  -3.55499983E-02   2.00790549E-14
  -3.55000012E-02   1.65466446E-14
  -3.54500003E-02   1.17872741E-14
  -3.53999995E-02   5.75710125E-15
  -3.53499986E-02  -1.27519106E-15
  -3.53000015E-02  -8.82111885E-15
  -3.52500007E-02  -1.63848630E-14
  -3.51999998E-02  -2.37079626E-14
  -3.51499990E-02  -3.09288219E-14
  -3.51000018E-02  -3.85634213E-14
  -3.50500010E-02  -4.72884332E-14
  -3.50000001E-02  -5.76033158E-14
  -3.49499993E-02  -6.95201343E-14
  -3.48999985E-02  -8.24390401E-14
  -3.48500013E-02  -9.52994872E-14
  -3.48000005E-02  -1.06975057E-13
  -3.47499996E-02  -1.16755414E-13
  -3.46999988E-02  -1.24693861E-13
  -3.46500017E-02  -1.31633690E-13
  -3.46000008E-02  -1.38858434E-13
  -3.45500000E-02  -1.47486298E-13
  -3.44999991E-02  -1.57870163E-13
  -3.44499983E-02  -1.69293860E-13
  -3.44000012E-02  -1.80147848E-13
  -3.43500003E-02  -1.88556392E-13
  -3.42999995E-02  -1.93204908E-13
  -3.42499986E-02  -1.93989437E-13
  -3.42000015E-02  -1.92150590E-13
  -3.41500007E-02  -1.89766307E-13
  -3.40999998E-02  -1.88774804E-13
  -3.40499990E-02  -1.89948385E-13
  -3.40000018E-02  -1.92312258E-13
  -3.39500010E-02  -1.93343998E-13
  -3.39000002E-02  -1.89948995E-13
  -3.38499993E-02  -1.79831519E-13
  -3.37999985E-02  -1.62646209E-13
  -3.37500013E-02  -1.40353969E-13
  -3.37000005E-02  -1.16525780E-13
  -3.36499996E-02  -9.48166581E-14
  -3.35999988E-02  -7.72537077E-14
  -3.35500017E-02  -6.31381747E-14
  -3.35000008E-02  -4.91479416E-14
  -3.34500000E-02  -3.07099655E-14
  -3.33999991E-02  -4.11077625E-15
  -3.33499983E-02   3.15955995E-14
  -3.33000012E-02   7.38170579E-14
  -3.32500003E-02   1.17271305E-13
  -3.31999995E-02   1.56203338E-13
  -3.31499986E-02   1.87044106E-13
  -3.31000015E-02   2.10281188E-13
  -3.30500007E-02   2.30573319E-13
  -3.29999998E-02   2.54886390E-13
  -3.29499990E-02   2.89352337E-13
  -3.29000019E-02   3.36222505E-13
  -3.28500010E-02   3.92366640E-13
  -3.28000002E-02   4.50163832E-13
  -3.27499993E-02   5.00569150E-13
  -3.26999985E-02   5.37091422E-13
  -3.26500013E-02   5.58877814E-13
  -3.26000005E-02   5.71374708E-13
  -3.25499997E-02   5.84058843E-13
  -3.24999988E-02   6.06081049E-13
  -3.24500017E-02   6.41724521E-13
  -3.24000008E-02   6.87819105E-13
  -3.23500000E-02   7.34498833E-13
  -3.22999991E-02   7.69211897E-13
  -3.22499983E-02   7.82344946E-13
  -3.22000012E-02   7.71925601E-13
  -3.21500003E-02   7.45103848E-13
  -3.20999995E-02   7.15455364E-13
  -3.20499986E-02   6.97050978E-13
  -3.20000015E-02   6.97834423E-13
  -3.19500007E-02   7.15371989E-13
  -3.18999998E-02   7.37147431E-13
  -3.18499990E-02   7.45597811E-13
  -3.18000019E-02   7.25866470E-13
  -3.17500010E-02   6.72829088E-13
  -3.17000002E-02   5.94045592E-13
  -3.16499993E-02   5.06972068E-13
  -3.15999985E-02   4.31351298E-13
  -3.15500014E-02   3.80029639E-13
  -3.15000005E-02   3.52414170E-13
  -3.14499997E-02   3.33824467E-13
  -3.13999988E-02   3.01450081E-13
  -3.13500017E-02   2.34562586E-13
  -3.13000008E-02   1.24476221E-13
  -3.12500000E-02  -2.04323287E-14
  -3.11999992E-02  -1.77331728E-13
  -3.11500002E-02  -3.18454627E-13
  -3.10999993E-02  -4.23532466E-13
  -3.10500003E-02  -4.89528557E-13
  -3.09999995E-02  -5.32959798E-13
  -3.09500005E-02  -5.83260057E-13
  -3.08999997E-02  -6.69734396E-13
  -3.08500007E-02  -8.07787810E-13
  -3.07999998E-02  -9.90805419E-13
  -3.07500008E-02  -1.19179157E-12
  -3.07000000E-02  -1.37456702E-12
  -3.06499992E-02  -1.50985485E-12
  -3.06000002E-02  -1.58902275E-12
  -3.05499993E-02  -1.62893939E-12
  -3.05000003E-02  -1.66516464E-12
  -3.04499995E-02  -1.73598701E-12
  -3.04000005E-02  -1.86423533E-12
  -3.03499997E-02  -2.04522076E-12
  -3.03000007E-02  -2.24678587E-12
  -3.02499998E-02  -2.42212869E-12
  -3.02000009E-02  -2.53016184E-12
  -3.01500000E-02  -2.55437295E-12
  -3.00999992E-02  -2.51135354E-12
  -3.00500002E-02  -2.44449101E-12
  -2.99999993E-02  -2.40496577E-12
  -2.99500003E-02  -2.42820521E-12
  -2.98999995E-02  -2.51647791E-12
  -2.98500005E-02  -2.63600686E-12
  -2.97999997E-02  -2.73067484E-12
  -2.97500007E-02  -2.74679021E-12
  -2.96999998E-02  -2.65797670E-12
  -2.96500009E-02  -2.47864251E-12
  -2.96000000E-02  -2.25920801E-12
  -2.95499992E-02  -2.06439531E-12
  -2.95000002E-02  -1.94379907E-12
  -2.94499993E-02  -1.90799698E-12
  -2.94000003E-02  -1.92153108E-12
  -2.93499995E-02  -1.91683453E-12
  -2.93000005E-02  -1.82368010E-12
  -2.92499997E-02  -1.60129223E-12
  -2.92000007E-02  -1.25842414E-12
  -2.91499998E-02  -8.51587843E-13
  -2.91000009E-02  -4.61268231E-13
  -2.90500000E-02  -1.56107196E-13
  -2.89999992E-02   3.89458905E-14
  -2.89500002E-02   1.55658282E-13
  -2.88999993E-02   2.69876948E-13
  -2.88500004E-02   4.67970010E-13
  -2.87999995E-02   8.06931074E-13
  -2.87500005E-02   1.28630787E-12
  -2.86999997E-02   1.84543353E-12
  -2.86500007E-02   2.38832673E-12
  -2.85999998E-02   2.82596711E-12
  -2.85500009E-02   3.11718186E-12
  -2.85000000E-02   3.28922805E-12
  -2.84499992E-02   3.42771688E-12
  -2.84000002E-02   3.63922954E-12
  -2.83499993E-02   4.00269054E-12
  -2.83000004E-02   4.53140260E-12
  -2.82499995E-02   5.16363471E-12
  -2.82000005E-02   5.78721663E-12
  -2.81499997E-02   6.28818568E-12
  -2.81000007E-02   6.60204313E-12
  -2.80499998E-02   6.74416642E-12
  -2.80000009E-02   6.80458771E-12
  -2.79500000E-02   6.90818756E-12
  -2.78999992E-02   7.15731380E-12
  -2.78500002E-02   7.58256912E-12
  -2.77999993E-02   8.12473960E-12
  -2.77500004E-02   8.65739251E-12
  -2.76999995E-02   9.04129202E-12
  -2.76500005E-02   9.18685527E-12
  -2.75999997E-02   9.09622811E-12
  -2.75500007E-02   8.86490881E-12
  -2.74999999E-02   8.64062988E-12
  -2.74500009E-02   8.55679676E-12
  -2.74000000E-02   8.67008548E-12
  -2.73499992E-02   8.93092891E-12
  -2.73000002E-02   9.20160476E-12
  -2.72499993E-02   9.31528292E-12
  -2.72000004E-02   9.15037750E-12
  -2.71499995E-02   8.68663041E-12
  -2.71000005E-02   8.01659607E-12
  -2.70499997E-02   7.30573674E-12
  -2.70000007E-02   6.71775222E-12
  -2.69499999E-02   6.33822985E-12
  -2.69000009E-02   6.13167503E-12
  -2.68500000E-02   5.95278601E-12
  -2.67999992E-02   5.60868366E-12
  -2.67500002E-02   4.94530588E-12
  -2.66999993E-02   3.91913238E-12
  -2.66500004E-02   2.62087964E-12
  -2.65999995E-02   1.23868916E-12
  -2.65500005E-02  -2.43363509E-14
  -2.64999997E-02  -1.04193152E-12
  -2.64500007E-02  -1.82403658E-12
  -2.63999999E-02  -2.51549996E-12
  -2.63500009E-02  -3.33272255E-12
  -2.63000000E-02  -4.46533912E-12
  -2.62499992E-02  -5.98688677E-12
  -2.62000002E-02  -7.81569080E-12
  -2.61499994E-02  -9.74549955E-12
  -2.61000004E-02  -1.15339882E-11
  -2.60499995E-02  -1.30103792E-11
  -2.60000005E-02  -1.41533408E-11
  -2.59499997E-02  -1.51025234E-11
  -2.59000007E-02  -1.60963048E-11
  -2.58499999E-02  -1.73619886E-11
  -2.58000009E-02  -1.90073339E-11
  -2.57500000E-02  -2.09631947E-11
  -2.56999992E-02  -2.30051846E-11
  -2.56500002E-02  -2.48469266E-11
  -2.55999994E-02  -2.62643240E-11
  -2.55500004E-02  -2.71949442E-11
  -2.54999995E-02  -2.77662112E-11
  -2.54500005E-02  -2.82374176E-11
  -2.53999997E-02  -2.88796521E-11
  -2.53500007E-02  -2.98468576E-11
  -2.52999999E-02  -3.10970347E-11
  -2.52500009E-02  -3.24011790E-11
  -2.52000000E-02  -3.34385401E-11
  -2.51499992E-02  -3.39369748E-11
  -2.51000002E-02  -3.37953415E-11
  -2.50499994E-02  -3.31311784E-11
  -2.50000004E-02  -3.22295766E-11
  -2.49499995E-02  -3.14137327E-11
  -2.49000005E-02  -3.08943843E-11
  -2.48499997E-02  -3.06665839E-11
  -2.48000007E-02  -3.05026594E-11
  -2.47499999E-02  -3.00473986E-11
  -2.47000009E-02  -2.89747670E-11
  -2.46500000E-02  -2.71360868E-11
  -2.45999992E-02  -2.46313196E-11
  -2.45500002E-02  -2.17686563E-11
  -2.44999994E-02  -1.89278263E-11
  -2.44500004E-02  -1.63872284E-11
  -2.43999995E-02  -1.41934849E-11
  -2.43500005E-02  -1.21345677E-11
  -2.42999997E-02  -9.83199806E-12
  -2.42500007E-02  -6.91305997E-12
  -2.41999999E-02  -3.18617572E-12
  -2.41500009E-02   1.26122517E-12
  -2.41000000E-02   6.08963227E-12
  -2.40499992E-02   1.08504638E-11
  -2.40000002E-02   1.51827544E-11
  -2.39499994E-02   1.89746083E-11
  -2.39000004E-02   2.24141591E-11
  -2.38499995E-02   2.59034391E-11
  -2.38000005E-02   2.98709148E-11
  -2.37499997E-02   3.45660792E-11
  -2.37000007E-02   3.99301391E-11
  -2.36499999E-02   4.56044404E-11
  -2.36000009E-02   5.10766533E-11
  -2.35500000E-02   5.59011656E-11
  -2.34999992E-02   5.98942493E-11
  -2.34500002E-02   6.32133512E-11
  -2.33999994E-02   6.62805991E-11
  -2.33500004E-02   6.95815836E-11
  -2.32999995E-02   7.34285341E-11
  -2.32500006E-02   7.77963804E-11
  -2.31999997E-02   8.23093746E-11
  -2.31500007E-02   8.63889793E-11
  -2.30999999E-02   8.94994426E-11
  -2.30500009E-02   9.13808265E-11
  -2.30000000E-02   9.21616047E-11
  -2.29499992E-02   9.22957544E-11
  -2.29000002E-02   9.23483234E-11
  -2.28499994E-02   9.27243698E-11
  -2.28000004E-02   9.34647845E-11
  -2.27499995E-02   9.42051992E-11
  -2.27000006E-02   9.43216963E-11
  -2.26499997E-02   9.32011968E-11
  -2.26000007E-02   9.05154424E-11
  -2.25499999E-02   8.63717986E-11
  -2.25000009E-02   8.12680132E-11
  -2.24500000E-02   7.58660773E-11
  -2.23999992E-02   7.06846387E-11
  -2.23500002E-02   6.58499991E-11
  -2.22999994E-02   6.10223538E-11
  -2.22500004E-02   5.55368772E-11
  -2.21999995E-02   4.87006199E-11
  -2.21500006E-02   4.01127777E-11
  -2.20999997E-02   2.98611656E-11
  -2.20500007E-02   1.85007530E-11
  -2.19999999E-02   6.81805046E-12
  -2.19500009E-02  -4.51568297E-12
  -2.19000001E-02  -1.52453224E-11
  -2.18499992E-02  -2.56461762E-11
  -2.18000002E-02  -3.63936693E-11
  -2.17499994E-02  -4.82415566E-11
  -2.17000004E-02  -6.16520932E-11
  -2.16499995E-02  -7.65478653E-11
  -2.16000006E-02  -9.23036786E-11
  -2.15499997E-02  -1.07989298E-10
  -2.15000007E-02  -1.22758068E-10
  -2.14499999E-02  -1.36206185E-10
  -2.14000009E-02  -1.48535406E-10
  -2.13500001E-02  -1.60438718E-10
  -2.12999992E-02  -1.72753589E-10
  -2.12500002E-02  -1.86036755E-10
  -2.11999994E-02  -2.00254632E-10
  -2.11500004E-02  -2.14736201E-10
  -2.10999995E-02  -2.28417521E-10
  -2.10500006E-02  -2.40273385E-10
  -2.09999997E-02  -2.49742088E-10
  -2.09500007E-02  -2.56946686E-10
  -2.08999999E-02  -2.62604938E-10
  -2.08500009E-02  -2.67660810E-10
  -2.08000001E-02  -2.72800588E-10
  -2.07499992E-02  -2.78073731E-10
  -2.07000002E-02  -2.82798146E-10
  -2.06499994E-02  -2.85801521E-10
  -2.06000004E-02  -2.85898055E-10
  -2.05499995E-02  -2.82387003E-10
  -2.05000006E-02  -2.75343748E-10
  -2.04499997E-02  -2.65563682E-10
  -2.04000007E-02  -2.54174320E-10
  -2.03499999E-02  -2.42086240E-10
  -2.03000009E-02  -2.29531436E-10
  -2.02500001E-02  -2.15905266E-10
  -2.01999992E-02  -1.99993883E-10
  -2.01500002E-02  -1.80492871E-10
  -2.00999994E-02  -1.56586660E-10
  -2.00500004E-02  -1.28322714E-10
  -1.99999996E-02  -9.66023650E-11
  -1.99500006E-02  -6.27823210E-11
  -1.98999997E-02  -2.80594888E-11
  -1.98500007E-02   7.08208969E-12
  -1.97999999E-02   4.31047940E-11
  -1.97500009E-02   8.12143686E-11
  -1.97000001E-02   1.22800700E-10
  -1.96499992E-02   1.68770192E-10
  -1.96000002E-02   2.19073829E-10
  -1.95499994E-02   2.72653705E-10
  -1.95000004E-02   3.27844613E-10
  -1.94499996E-02   3.83057391E-10
  -1.94000006E-02   4.37437975E-10
  -1.93499997E-02   4.91196694E-10
  -1.93000007E-02   5.45447854E-10
  -1.92499999E-02   6.01620198E-10
  -1.92000009E-02   6.60697164E-10
  -1.91500001E-02   7.22633064E-10
  -1.90999992E-02   7.86218979E-10
  -1.90500002E-02   8.49471660E-10
  -1.89999994E-02   9.10381992E-10
  -1.89500004E-02   9.67686820E-10
  -1.88999996E-02   1.02131092E-09
  -1.88500006E-02   1.07226539E-09
  -1.87999997E-02   1.12203558E-09
  -1.87500007E-02   1.17172438E-09
  -1.86999999E-02   1.22133992E-09
  -1.86500009E-02   1.26955824E-09
  -1.86000001E-02   1.31408273E-09
  -1.85499992E-02   1.35245215E-09
  -1.85000002E-02   1.38293788E-09
  -1.84499994E-02   1.40512113E-09
  -1.84000004E-02   1.41987855E-09
  -1.83499996E-02   1.42876455E-09
  -1.83000006E-02   1.43306333E-09
  -1.82499997E-02   1.43293333E-09
  -1.82000007E-02   1.42704348E-09
  -1.81499999E-02   1.41287837E-09
  -1.81000009E-02   1.38759249E-09
  -1.80500001E-02   1.34903566E-09
  -1.79999992E-02   1.29648325E-09
  -1.79500002E-02   1.23073063E-09
  -1.78999994E-02   1.15349108E-09
  -1.78500004E-02   1.06635756E-09
  -1.77999996E-02   9.69790026E-10
  -1.77500006E-02   8.62597938E-10
  -1.76999997E-02   7.42163164E-10
  -1.76500008E-02   6.05324180E-10
  -1.75999999E-02   4.49530052E-10
  -1.75500009E-02   2.73745471E-10
  -1.75000001E-02   7.86888055E-11
  -1.74499992E-02  -1.33726488E-10
  -1.74000002E-02  -3.61503022E-10
  -1.73499994E-02  -6.03735006E-10
  -1.73000004E-02  -8.61303528E-10
  -1.72499996E-02  -1.13676879E-09
  -1.72000006E-02  -1.43347978E-09
  -1.71499997E-02  -1.75429682E-09
  -1.71000008E-02  -2.10049800E-09
  -1.70499999E-02  -2.47137244E-09
  -1.70000009E-02  -2.86470558E-09
  -1.69500001E-02  -3.27795302E-09
  -1.68999992E-02  -3.70958353E-09
  -1.68500002E-02  -4.15998525E-09
  -1.67999994E-02  -4.63150629E-09
  -1.67500004E-02  -5.12759479E-09
  -1.66999996E-02  -5.65140867E-09
  -1.66500006E-02  -6.20452090E-09
  -1.65999997E-02  -6.78630796E-09
  -1.65500008E-02  -7.39431538E-09
  -1.64999999E-02  -8.02547007E-09
  -1.64500009E-02  -8.67757599E-09
  -1.64000001E-02  -9.35045019E-09
  -1.63499992E-02  -1.00461541E-08
  -1.63000003E-02  -1.07681926E-08
  -1.62499994E-02  -1.15200347E-08
  -1.62000004E-02  -1.23036097E-08
  -1.61499996E-02  -1.31184610E-08
  -1.61000006E-02  -1.39619711E-08
  -1.60499997E-02  -1.48305546E-08
  -1.60000008E-02  -1.57213265E-08
  -1.59499999E-02  -1.66334786E-08
  -1.59000009E-02  -1.75687411E-08
  -1.58500001E-02  -1.85306934E-08
  -1.57999992E-02  -1.95232257E-08
  -1.57500003E-02  -2.05488178E-08
  -1.56999994E-02  -2.16074341E-08
  -1.56500004E-02  -2.26965398E-08
  -1.55999996E-02  -2.38122659E-08
  -1.55499997E-02  -2.49511967E-08
  -1.54999997E-02  -2.61119908E-08
  -1.54499998E-02  -2.72961085E-08
  -1.53999999E-02  -2.85072783E-08
  -1.53500000E-02  -2.97499181E-08
  -1.53000001E-02  -3.10272341E-08
  -1.52500002E-02  -3.23398339E-08
  -1.52000003E-02  -3.36854917E-08
  -1.51500003E-02  -3.50602214E-08
  -1.51000004E-02  -3.64601895E-08
  -1.50499996E-02  -3.78835701E-08
  -1.49999997E-02  -3.93315993E-08
  -1.49499997E-02  -4.08082279E-08
  -1.48999998E-02  -4.23185718E-08
  -1.48499999E-02  -4.38668195E-08
  -1.48000000E-02  -4.54545592E-08
  -1.47500001E-02  -4.70802490E-08
  -1.47000002E-02  -4.87401302E-08
  -1.46500003E-02  -5.04302200E-08
  -1.46000003E-02  -5.21484154E-08
  -1.45500004E-02  -5.38958354E-08
  -1.44999996E-02  -5.56767539E-08
  -1.44499997E-02  -5.74971075E-08
  -1.43999998E-02  -5.93622467E-08
  -1.43499998E-02  -6.12749815E-08
  -1.42999999E-02  -6.32346939E-08
  -1.42500000E-02  -6.52380905E-08
  -1.42000001E-02  -6.72811709E-08
  -1.41500002E-02  -6.93616187E-08
  -1.41000003E-02  -7.14804358E-08
  -1.40500003E-02  -7.36422194E-08
  -1.40000004E-02  -7.58537482E-08
  -1.39499996E-02  -7.81217082E-08
  -1.38999997E-02  -8.04503202E-08
  -1.38499998E-02  -8.28402023E-08
  -1.37999998E-02  -8.52888249E-08
  -1.37499999E-02  -8.77924222E-08
  -1.37000000E-02  -9.03485855E-08
  -1.36500001E-02  -9.29582740E-08
  -1.36000002E-02  -9.56263762E-08
  -1.35500003E-02  -9.83605517E-08
  -1.35000004E-02  -1.01168801E-07
  -1.34500004E-02  -1.04056902E-07
  -1.33999996E-02  -1.07026821E-07
  -1.33499997E-02  -1.10076911E-07
  -1.32999998E-02  -1.13203718E-07
  -1.32499998E-02  -1.16404728E-07
  -1.31999999E-02  -1.19680749E-07
  -1.31500000E-02  -1.23036813E-07
  -1.31000001E-02  -1.26481282E-07
  -1.30500002E-02  -1.30023466E-07
  -1.30000003E-02  -1.33670710E-07
  -1.29500004E-02  -1.37426468E-07
  -1.29000004E-02  -1.41290187E-07
  -1.28499996E-02  -1.45258852E-07
  -1.27999997E-02  -1.49329978E-07
  -1.27499998E-02  -1.53504146E-07
  -1.26999998E-02  -1.57786459E-07
  -1.26499999E-02  -1.62185913E-07
  -1.26000000E-02  -1.66712979E-07
  -1.25500001E-02  -1.71376584E-07
  -1.25000002E-02  -1.76181729E-07
  -1.24500003E-02  -1.81128939E-07
  -1.24000004E-02  -1.86215800E-07
  -1.23500004E-02  -1.91439668E-07
  -1.22999996E-02  -1.96800883E-07
  -1.22499997E-02  -2.02304392E-07
  -1.21999998E-02  -2.07959488E-07
  -1.21499998E-02  -2.13777625E-07
  -1.20999999E-02  -2.19769206E-07
  -1.20500000E-02  -2.25940852E-07
  -1.20000001E-02  -2.32294383E-07
  -1.19500002E-02  -2.38828051E-07
  -1.19000003E-02  -2.45539383E-07
  -1.18500004E-02  -2.52428464E-07
  -1.18000004E-02  -2.59500126E-07
  -1.17499996E-02  -2.66764033E-07
  -1.16999997E-02  -2.74232718E-07
  -1.16499998E-02  -2.81918091E-07
  -1.15999999E-02  -2.89828535E-07
  -1.15499999E-02  -2.97967375E-07
  -1.15000000E-02  -3.06333703E-07
  -1.14500001E-02  -3.14925302E-07
  -1.14000002E-02  -3.23742057E-07
  -1.13500003E-02  -3.32788574E-07
  -1.13000004E-02  -3.42074713E-07
  -1.12500004E-02  -3.51613920E-07
  -1.11999996E-02  -3.61419580E-07
  -1.11499997E-02  -3.71502097E-07
  -1.10999998E-02  -3.81866414E-07
  -1.10499999E-02  -3.92512959E-07
  -1.09999999E-02  -4.03440140E-07
  -1.09500000E-02  -4.14648099E-07
  -1.09000001E-02  -4.26141497E-07
  -1.08500002E-02  -4.37930737E-07
  -1.08000003E-02  -4.50030399E-07
  -1.07500004E-02  -4.62455716E-07
  -1.07000005E-02  -4.75219053E-07
  -1.06499996E-02  -4.88327601E-07
  -1.05999997E-02  -5.01783290E-07
  -1.05499998E-02  -5.15585441E-07
  -1.04999999E-02  -5.29734393E-07
  -1.04499999E-02  -5.44234922E-07
  -1.04000000E-02  -5.59097884E-07
  -1.03500001E-02  -5.74338742E-07
  -1.03000002E-02  -5.89974604E-07
  -1.02500003E-02  -6.06020080E-07
  -1.02000004E-02  -6.22484777E-07
  -1.01500005E-02  -6.39372672E-07
  -1.00999996E-02  -6.56684676E-07
  -1.00499997E-02  -6.74421869E-07
  -9.99999978E-03  -6.92589879E-07
  -9.94999986E-03  -7.11200130E-07
  -9.89999995E-03  -7.30269619E-07
  -9.85000003E-03  -7.49817673E-07
  -9.80000012E-03  -7.69861686E-07
  -9.75000020E-03  -7.90414106E-07
  -9.70000029E-03  -8.11481584E-07
  -9.65000037E-03  -8.33066565E-07
  -9.60000046E-03  -8.55171550E-07
  -9.54999961E-03  -8.77802790E-07
  -9.49999969E-03  -9.00972793E-07
  -9.44999978E-03  -9.24699862E-07
  -9.39999986E-03  -9.49005255E-07
  -9.34999995E-03  -9.73909096E-07
  -9.30000003E-03  -9.99426675E-07
  -9.25000012E-03  -1.02556714E-06
  -9.20000020E-03  -1.05233539E-06
  -9.15000029E-03  -1.07973528E-06
  -9.10000037E-03  -1.10777444E-06
  -9.05000046E-03  -1.13646649E-06
  -8.99999961E-03  -1.16583158E-06
  -8.94999970E-03  -1.19589356E-06
  -8.89999978E-03  -1.22667564E-06
  -8.84999987E-03  -1.25819668E-06
  -8.79999995E-03  -1.29046907E-06
  -8.75000004E-03  -1.32350090E-06
  -8.70000012E-03  -1.35729817E-06
  -8.65000021E-03  -1.39187023E-06
  -8.60000029E-03  -1.42723241E-06
  -8.55000038E-03  -1.46340665E-06
  -8.50000046E-03  -1.50041922E-06
  -8.44999962E-03  -1.53829626E-06
  -8.39999970E-03  -1.57706006E-06
  -8.34999979E-03  -1.61672654E-06
  -8.29999987E-03  -1.65730603E-06
  -8.24999996E-03  -1.69880730E-06
  -8.20000004E-03  -1.74124091E-06
  -8.15000013E-03  -1.78462403E-06
  -8.10000021E-03  -1.82898066E-06
  -8.05000030E-03  -1.87433932E-06
  -8.00000038E-03  -1.92072935E-06
  -7.95000046E-03  -1.96817723E-06
  -7.89999962E-03  -2.01670218E-06
  -7.84999970E-03  -2.06631853E-06
  -7.79999979E-03  -2.11703718E-06
  -7.74999987E-03  -2.16887247E-06
  -7.69999996E-03  -2.22184258E-06
  -7.65000004E-03  -2.27597434E-06
  -7.60000013E-03  -2.33129936E-06
  -7.55000021E-03  -2.38785128E-06
  -7.49999983E-03  -2.44565922E-06
  -7.44999992E-03  -2.50474750E-06
  -7.40000000E-03  -2.56513340E-06
  -7.35000009E-03  -2.62683125E-06
  -7.30000017E-03  -2.68985741E-06
  -7.24999979E-03  -2.75423326E-06
  -7.19999988E-03  -2.81998791E-06
  -7.14999996E-03  -2.88715614E-06
  -7.10000005E-03  -2.95577456E-06
  -7.05000013E-03  -3.02587659E-06
  -7.00000022E-03  -3.09749043E-06
  -6.94999984E-03  -3.17063768E-06
  -6.89999992E-03  -3.24533585E-06
  -6.85000001E-03  -3.32160403E-06
  -6.80000009E-03  -3.39946655E-06
  -6.75000018E-03  -3.47895548E-06
  -6.69999979E-03  -3.56010833E-06
  -6.64999988E-03  -3.64296625E-06
  -6.59999996E-03  -3.72756722E-06
  -6.55000005E-03  -3.81394398E-06
  -6.50000013E-03  -3.90212244E-06
  -6.45000022E-03  -3.99212513E-06
  -6.39999984E-03  -4.08397364E-06
  -6.34999992E-03  -4.17769525E-06
  -6.30000001E-03  -4.27332589E-06
  -6.25000009E-03  -4.37090694E-06
  -6.20000018E-03  -4.47048342E-06
  -6.14999980E-03  -4.57209853E-06
  -6.09999988E-03  -4.67579002E-06
  -6.04999997E-03  -4.78158790E-06
  -6.00000005E-03  -4.88951900E-06
  -5.95000014E-03  -4.99960788E-06
  -5.90000022E-03  -5.11188591E-06
  -5.84999984E-03  -5.22639084E-06
  -5.79999993E-03  -5.34316860E-06
  -5.75000001E-03  -5.46226875E-06
  -5.70000010E-03  -5.58373949E-06
  -5.65000018E-03  -5.70762313E-06
  -5.59999980E-03  -5.83395513E-06
  -5.54999989E-03  -5.96276413E-06
  -5.49999997E-03  -6.09408062E-06
  -5.45000006E-03  -6.22793823E-06
  -5.40000014E-03  -6.36437926E-06
  -5.35000023E-03  -6.50345237E-06
  -5.29999984E-03  -6.64521349E-06
  -5.24999993E-03  -6.78971446E-06
  -5.20000001E-03  -6.93700304E-06
  -5.15000010E-03  -7.08712014E-06
  -5.10000018E-03  -7.24010033E-06
  -5.04999980E-03  -7.39597726E-06
  -4.99999989E-03  -7.55478823E-06
  -4.94999997E-03  -7.71657778E-06
  -4.90000006E-03  -7.88140005E-06
  -4.85000014E-03  -8.04931278E-06
  -4.80000023E-03  -8.22037418E-06
  -4.74999985E-03  -8.39463610E-06
  -4.69999993E-03  -8.57214400E-06
  -4.65000002E-03  -8.75293608E-06
  -4.60000010E-03  -8.93705055E-06
  -4.55000019E-03  -9.12452469E-06
  -4.49999981E-03  -9.31540944E-06
  -4.44999989E-03  -9.50976028E-06
  -4.39999998E-03  -9.70763904E-06
  -4.35000006E-03  -9.90910939E-06
  -4.30000015E-03  -1.01142268E-05
  -4.25000023E-03  -1.03230432E-05
  -4.19999985E-03  -1.05355994E-05
  -4.14999994E-03  -1.07519372E-05
  -4.10000002E-03  -1.09720995E-05
  -4.05000011E-03  -1.11961372E-05
  -4.00000019E-03  -1.14241093E-05
  -3.94999981E-03  -1.16560823E-05
  -3.89999989E-03  -1.18921207E-05
  -3.84999998E-03  -1.21322901E-05
  -3.80000006E-03  -1.23766395E-05
  -3.74999992E-03  -1.26252171E-05
  -3.70000000E-03  -1.28780675E-05
  -3.65000009E-03  -1.31352326E-05
  -3.59999994E-03  -1.33967660E-05
  -3.55000002E-03  -1.36627268E-05
  -3.50000011E-03  -1.39331833E-05
  -3.44999996E-03  -1.42082063E-05
  -3.40000005E-03  -1.44878613E-05
  -3.34999990E-03  -1.47722058E-05
  -3.29999998E-03  -1.50612877E-05
  -3.25000007E-03  -1.53551500E-05
  -3.19999992E-03  -1.56538390E-05
  -3.15000000E-03  -1.59574065E-05
  -3.10000009E-03  -1.62659144E-05
  -3.04999994E-03  -1.65794354E-05
  -3.00000003E-03  -1.68980387E-05
  -2.95000011E-03  -1.72217951E-05
  -2.89999996E-03  -1.75507648E-05
  -2.85000005E-03  -1.78849950E-05
  -2.79999990E-03  -1.82245312E-05
  -2.74999999E-03  -1.85694171E-05
  -2.70000007E-03  -1.89197053E-05
  -2.64999992E-03  -1.92754615E-05
  -2.60000001E-03  -1.96367509E-05
  -2.55000009E-03  -2.00036484E-05
  -2.49999994E-03  -2.03762193E-05
  -2.45000003E-03  -2.07545309E-05
  -2.40000011E-03  -2.11386323E-05
  -2.34999997E-03  -2.15285654E-05
  -2.30000005E-03  -2.19243757E-05
  -2.24999990E-03  -2.23261122E-05
  -2.19999999E-03  -2.27338296E-05
  -2.15000007E-03  -2.31475988E-05
  -2.09999993E-03  -2.35674943E-05
  -2.05000001E-03  -2.39935871E-05
  -2.00000009E-03  -2.44259354E-05
  -1.94999995E-03  -2.48645920E-05
  -1.90000003E-03  -2.53095968E-05
  -1.85000000E-03  -2.57609918E-05
  -1.79999997E-03  -2.62188187E-05
  -1.75000005E-03  -2.66831303E-05
  -1.70000002E-03  -2.71540011E-05
  -1.64999999E-03  -2.76314986E-05
  -1.59999996E-03  -2.81156917E-05
  -1.55000004E-03  -2.86066424E-05
  -1.50000001E-03  -2.91043907E-05
  -1.44999998E-03  -2.96089784E-05
  -1.39999995E-03  -3.01204400E-05
  -1.35000004E-03  -3.06388138E-05
  -1.30000000E-03  -3.11641525E-05
  -1.24999997E-03  -3.16965197E-05
  -1.20000006E-03  -3.22359738E-05
  -1.15000003E-03  -3.27825874E-05
  -1.09999999E-03  -3.33364114E-05
  -1.04999996E-03  -3.38974860E-05
  -1.00000005E-03  -3.44658474E-05
  -9.50000016E-04  -3.50415175E-05
  -8.99999985E-04  -3.56245328E-05
  -8.50000011E-04  -3.62149331E-05
  -7.99999980E-04  -3.68127803E-05
  -7.50000007E-04  -3.74181254E-05
  -6.99999975E-04  -3.80310266E-05
  -6.50000002E-04  -3.86515349E-05
  -6.00000028E-04  -3.92796901E-05
  -5.49999997E-04  -3.99155069E-05
  -5.00000024E-04  -4.05590072E-05
  -4.49999992E-04  -4.12102163E-05
  -3.99999990E-04  -4.18691670E-05
  -3.49999988E-04  -4.25358958E-05
  -3.00000014E-04  -4.32104571E-05
  -2.50000012E-04  -4.38929019E-05
  -1.99999995E-04  -4.45832629E-05
  -1.50000007E-04  -4.52815839E-05
  -9.99999975E-05  -4.59878684E-05
  -4.99999987E-05  -4.67021273E-05
   0.00000000      -4.74243570E-05
   4.99999987E-05  -4.81545721E-05
   9.99999975E-05  -4.88928017E-05
   1.50000007E-04  -4.96390821E-05
   1.99999995E-04  -5.03934534E-05
   2.50000012E-04  -5.11559483E-05
   3.00000014E-04  -5.19265814E-05
   3.49999988E-04  -5.27053598E-05
   3.99999990E-04  -5.34922692E-05
   4.49999992E-04  -5.42872949E-05
   5.00000024E-04  -5.50904333E-05
   5.49999997E-04  -5.59016917E-05
   6.00000028E-04  -5.67210955E-05
   6.50000002E-04  -5.75486665E-05
   6.99999975E-04  -5.83844267E-05
   7.50000007E-04  -5.92283723E-05
   7.99999980E-04  -6.00804888E-05
   8.50000011E-04  -6.09407507E-05
   8.99999985E-04  -6.18091217E-05
   9.50000016E-04  -6.26855763E-05
   1.00000005E-03  -6.35700926E-05
   1.04999996E-03  -6.44626707E-05
   1.09999999E-03  -6.53633178E-05
   1.15000003E-03  -6.62720267E-05
   1.20000006E-03  -6.71887901E-05
   1.24999997E-03  -6.81135643E-05
   1.30000000E-03  -6.90462984E-05
   1.35000004E-03  -6.99869342E-05
   1.39999995E-03  -7.09354281E-05
   1.44999998E-03  -7.18917217E-05
   1.50000001E-03  -7.28557934E-05
   1.55000004E-03  -7.38276212E-05
   1.59999996E-03  -7.48071834E-05
   1.64999999E-03  -7.57944508E-05
   1.70000002E-03  -7.67893507E-05
   1.75000005E-03  -7.77918031E-05
   1.79999997E-03  -7.88017351E-05
   1.85000000E-03  -7.98190449E-05
   1.90000003E-03  -8.08436598E-05
   1.94999995E-03  -8.18755143E-05
   2.00000009E-03  -8.29145793E-05
   2.05000001E-03  -8.39607965E-05
   2.09999993E-03  -8.50140932E-05
   2.15000007E-03  -8.60743894E-05
   2.19999999E-03  -8.71415614E-05
   2.24999990E-03  -8.82155000E-05
   2.30000005E-03  -8.92960670E-05
   2.34999997E-03  -9.03831678E-05
   2.40000011E-03  -9.14767152E-05
   2.45000003E-03  -9.25766071E-05
   2.49999994E-03  -9.36827637E-05
   2.55000009E-03  -9.47950975E-05
   2.60000001E-03  -9.59134704E-05
   2.64999992E-03  -9.70377296E-05
   2.70000007E-03  -9.81677294E-05
   2.74999999E-03  -9.93033173E-05
   2.79999990E-03  -1.00444333E-04