  -3.99999991E-02   0.00000000    
  -3.99499983E-02   0.00000000    
  -3.99000011E-02   0.00000000    
  -3.98500003E-02   0.00000000    
  -3.97999994E-02   0.00000000    
  -3.97499986E-02   5.17432769E-23
  -3.97000015E-02   3.78553548E-22
  -3.96500006E-02   1.38512272E-21
  -3.95999998E-02   3.29172264E-21
  -3.95499989E-02   5.38987454E-21
  -3.95000018E-02   5.17113818E-21
  -3.94500010E-02  -2.80403908E-21
  -3.94000001E-02  -2.91745600E-20
  -3.93499993E-02  -9.36942827E-20
  -3.92999984E-02  -2.28969177E-19
  -3.92500013E-02  -4.79737148E-19
  -3.92000005E-02  -8.94480441E-19
  -3.91499996E-02  -1.51198597E-18
  -3.90999988E-02  -2.35192284E-18
  -3.90500017E-02  -3.41900362E-18
  -3.90000008E-02  -4.72268514E-18
  -3.89500000E-02  -6.30420856E-18
  -3.88999991E-02  -8.25812869E-18
  -3.88499983E-02  -1.07384413E-17
  -3.88000011E-02  -1.39449036E-17
  -3.87500003E-02  -1.80886980E-17
  -3.86999995E-02  -2.33417531E-17
  -3.86499986E-02  -2.97863636E-17
  -3.86000015E-02  -3.73969877E-17
  -3.85500006E-02  -4.60855903E-17
  -3.84999998E-02  -5.58110406E-17
  -3.84499989E-02  -6.67037189E-17
  -3.84000018E-02  -7.91250269E-17
  -3.83500010E-02  -9.36011376E-17
  -3.83000001E-02  -1.10634977E-16
  -3.82499993E-02  -1.30468458E-16
  -3.81999984E-02  -1.52895337E-16
  -3.81500013E-02  -1.77206082E-16
  -3.81000005E-02  -2.02300254E-16
  -3.80499996E-02  -2.26951626E-16
  -3.79999988E-02  -2.50153737E-16
  -3.79500017E-02  -2.71414158E-16
  -3.79000008E-02  -2.90841865E-16
  -3.78500000E-02  -3.08930227E-16
  -3.77999991E-02  -3.26088124E-16
  -3.77499983E-02  -3.42130319E-16
  -3.77000012E-02  -3.55988360E-16
  -3.76500003E-02  -3.65790199E-16
  -3.75999995E-02  -3.69254590E-16
  -3.75499986E-02  -3.64190233E-16
  -3.75000015E-02  -3.48865872E-16
  -3.74500006E-02  -3.22102463E-16
  -3.73999998E-02  -2.83048182E-16
  -3.73499990E-02  -2.30695141E-16
  -3.73000018E-02  -1.63296028E-16
  -3.72500010E-02  -7.79338140E-17
  -3.72000001E-02   2.94896340E-17
  -3.71499993E-02   1.63728266E-16
  -3.70999984E-02   3.29281041E-16
  -3.70500013E-02   5.29458802E-16
  -3.70000005E-02   7.65779829E-16
  -3.69499996E-02   1.03783029E-15
  -3.68999988E-02   1.34350119E-15
  -3.68500017E-02   1.67946855E-15
  -3.68000008E-02   2.04187710E-15
  -3.67500000E-02   2.42723263E-15
  -3.66999991E-02   2.83337434E-15
  -3.66499983E-02   3.26018534E-15
  -3.66000012E-02   3.70964940E-15
  -3.65500003E-02   4.18506782E-15
  -3.64999995E-02   4.68961062E-15
  -3.64499986E-02   5.22463178E-15
  -3.64000015E-02   5.78829282E-15
  -3.63500006E-02   6.37500459E-15
  -3.62999998E-02   6.97606467E-15
  -3.62499990E-02   7.58146919E-15
  -3.62000018E-02   8.18221884E-15
  -3.61500010E-02   8.77174615E-15
  -3.61000001E-02   9.34506717E-15
  -3.60499993E-02   9.89523710E-15
  -3.59999985E-02   1.04083730E-14
  -3.59500013E-02   1.08599661E-14
  -3.59000005E-02   1.12153346E-14
  -3.58499996E-02   1.14355707E-14
  -3.57999988E-02   1.14877361E-14
  -3.57500017E-02   1.13556083E-14
  -3.57000008E-02   1.10460847E-14
  -3.56500000E-02   1.05870030E-14
  -3.55999991E-02   1.00151338E-14
  -3.55499983E-02   9.35738219E-15
  -3.55000012E-02   8.61244212E-15
  -3.54500003E-02   7.74174561E-15
  -3.53999995E-02   6.67602104E-15
  -3.53499986E-02   5.33715248E-15
  -3.53000015E-02   3.66732274E-15
  -3.52500007E-02   1.65237885E-15
  -3.51999998E-02  -6.72657874E-16
  -3.51499990E-02  -3.24087109E-15
  -3.51000018E-02  -5.98791604E-15
  -3.50500010E-02  -8.88886285E-15
  -3.50000001E-02  -1.19791855E-14
  -3.49499993E-02  -1.53465396E-14
  -3.48999985E-02  -1.90921819E-14
  -3.48500013E-02  -2.32760029E-14
  -3.48000005E-02  -2.78701978E-14
  -3.47499996E-02  -3.27466935E-14
  -3.46999988E-02  -3.77107776E-14
  -3.46500017E-02  -4.25717133E-14
  -3.46000008E-02  -4.72209010E-14
  -3.45500000E-02  -5.16798891E-14
  -3.44999991E-02  -5.60899932E-14
  -3.44499983E-02  -6.06405185E-14
  -3.44000012E-02  -6.54618029E-14
  -3.43500003E-02  -7.05305904E-14
  -3.42999995E-02  -7.56357257E-14
  -3.42499986E-02  -8.04297086E-14
  -3.42000015E-02  -8.45533021E-14
  -3.41500007E-02  -8.77823137E-14
  -3.40999998E-02  -9.01271448E-14
  -3.40499990E-02  -9.18288611E-14
  -3.40000018E-02  -9.32392184E-14
  -3.39500010E-02  -9.46277900E-14
  -3.39000002E-02  -9.60012031E-14
  -3.38499993E-02  -9.70246019E-14
  -3.37999985E-02  -9.70970673E-14
  -3.37500013E-02  -9.55644187E-14
  -3.37000005E-02  -9.19846339E-14
  -3.36499996E-02  -8.63260540E-14
  -3.35999988E-02  -7.89962917E-14
  -3.35500017E-02  -7.06690565E-14
  -3.35000008E-02  -6.19694386E-14
  -3.34500000E-02  -5.31536654E-14
  -3.33999991E-02  -4.39380012E-14
  -3.33499983E-02  -3.35760608E-14
  -3.33000012E-02  -2.11740568E-14
  -3.32500003E-02  -6.11587476E-15
  -3.31999995E-02   1.15970923E-14
  -3.31499986E-02   3.12655582E-14
  -3.31000015E-02   5.17377889E-14
  -3.30500007E-02   7.18968884E-14
  -3.29999998E-02   9.11804405E-14
  -3.29499990E-02   1.09885591E-13
  -3.29000019E-02   1.29089597E-13
  -3.28500010E-02   1.50182425E-13
  -3.28000002E-02   1.74195063E-13
  -3.27499993E-02   2.01223993E-13
  -3.26999985E-02   2.30237894E-13
  -3.26500013E-02   2.59395939E-13
  -3.26000005E-02   2.86773968E-13
  -3.25499997E-02   3.11188006E-13
  -3.24999988E-02   3.32727932E-13
  -3.24500017E-02   3.52719020E-13
  -3.24000008E-02   3.73077410E-13
  -3.23500000E-02   3.95312418E-13
  -3.22999991E-02   4.19622128E-13
  -3.22499983E-02   4.44524653E-13
  -3.22000012E-02   4.67254599E-13
  -3.21500003E-02   4.84809133E-13
  -3.20999995E-02   4.95207282E-13
  -3.20499986E-02   4.98384916E-13
  -3.20000015E-02   4.96265680E-13
  -3.19500007E-02   4.91902905E-13
  -3.18999998E-02   4.88021136E-13
  -3.18499990E-02   4.85598757E-13
  -3.18000019E-02   4.83164398E-13
  -3.17500010E-02   4.77197492E-13
  -3.17000002E-02   4.63531123E-13
  -3.16499993E-02   4.39173735E-13
  -3.15999985E-02   4.03723658E-13
  -3.15500014E-02   3.59678677E-13
  -3.15000005E-02   3.11411541E-13
  -3.14499997E-02   2.63196420E-13
  -3.13999988E-02   2.17152427E-13
  -3.13500017E-02   1.72077481E-13
  -3.13000008E-02   1.23794719E-13
  -3.12500000E-02   6.69622168E-14
  -3.11999992E-02  -2.40341491E-15
  -3.11500002E-02  -8.48331347E-14
  -3.10999993E-02  -1.76765070E-13
  -3.10500003E-02  -2.71768095E-13
  -3.09999995E-02  -3.63190489E-13
  -3.09500005E-02  -4.47091203E-13
  -3.08999997E-02  -5.24095958E-13
  -3.08500007E-02  -5.99230301E-13
  -3.07999998E-02  -6.79665146E-13
  -3.07500008E-02  -7.71291288E-13
  -3.07000000E-02  -8.75653770E-13
  -3.06499992E-02  -9.88711175E-13
  -3.06000002E-02  -1.10212631E-12
  -3.05499993E-02  -1.20664199E-12
  -3.05000003E-02  -1.29609268E-12
  -3.04499995E-02  -1.37020462E-12
  -3.04000005E-02  -1.43478740E-12
  -3.03499997E-02  -1.49906313E-12
  -3.03000007E-02  -1.57119717E-12
  -3.02499998E-02  -1.65400777E-12
  -3.02000009E-02  -1.74287538E-12
  -3.01500000E-02  -1.82697369E-12
  -3.00999992E-02  -1.89345241E-12
  -3.00500002E-02  -1.93281198E-12
  -2.99999993E-02  -1.94303774E-12
  -2.99500003E-02  -1.93050372E-12
  -2.98999995E-02  -1.90704700E-12
  -2.98500005E-02  -1.88436961E-12
  -2.97999997E-02  -1.86823603E-12
  -2.97500007E-02  -1.85516619E-12
  -2.96999998E-02  -1.83330087E-12
  -2.96500009E-02  -1.78726424E-12
  -2.96000000E-02  -1.70497958E-12
  -2.95499992E-02  -1.58336321E-12
  -2.95000002E-02  -1.43018898E-12
  -2.94499993E-02  -1.26104552E-12
  -2.94000003E-02  -1.09253893E-12
  -2.93499995E-02  -9.34700017E-13
  -2.93000005E-02  -7.86087937E-13
  -2.92499997E-02  -6.34005760E-13
  -2.92000007E-02  -4.59986595E-13
  -2.91499998E-02  -2.48268203E-13
  -2.91000009E-02   6.52532033E-15
  -2.90500000E-02   2.96091764E-13
  -2.89999992E-02   6.01283075E-13
  -2.89500002E-02   9.00043007E-13
  -2.88999993E-02   1.17701790E-12
  -2.88500004E-02   1.43047390E-12
  -2.87999995E-02   1.67319045E-12
  -2.87500005E-02   1.92663246E-12
  -2.86999997E-02   2.21078125E-12
  -2.86500007E-02   2.53412655E-12
  -2.85999998E-02   2.88845120E-12
  -2.85500009E-02   3.25104245E-12
  -2.85000000E-02   3.59363667E-12
  -2.84499992E-02   3.89427943E-12
  -2.84000002E-02   4.14677364E-12
  -2.83499993E-02   4.36327363E-12
  -2.83000004E-02   4.56855083E-12
  -2.82499995E-02   4.78822103E-12
  -2.82000005E-02   5.03607876E-12
  -2.81499997E-02   5.30632439E-12
  -2.81000007E-02   5.57442374E-12
  -2.80499998E-02   5.80656096E-12
  -2.80000009E-02   5.97367425E-12
  -2.79500000E-02   6.06381612E-12
  -2.78999992E-02   6.08713340E-12
  -2.78500002E-02   6.07091677E-12
  -2.77999993E-02   6.04665320E-12
  -2.77500004E-02   6.03473348E-12
  -2.76999995E-02   6.03375379E-12
  -2.76500005E-02   6.01948049E-12
  -2.75999997E-02   5.95430909E-12
  -2.75500007E-02   5.80328407E-12
  -2.74999999E-02   5.54961415E-12
  -2.74500009E-02   5.20258489E-12
  -2.74000000E-02   4.79401805E-12
  -2.73499992E-02   4.36447883E-12
  -2.73000002E-02   3.94519009E-12
  -2.72499993E-02   3.54374039E-12
  -2.72000004E-02   3.14020728E-12
  -2.71499995E-02   2.69578500E-12
  -2.71000005E-02   2.17037499E-12
  -2.70499997E-02   1.54143094E-12
  -2.70000007E-02   8.15541319E-13
  -2.69499999E-02   2.72810542E-14
  -2.69000009E-02  -7.74543190E-13
  -2.68500000E-02  -1.54740738E-12
  -2.67999992E-02  -2.27325884E-12
  -2.67500002E-02  -2.96607248E-12
  -2.66999993E-02  -3.66503659E-12
  -2.66500004E-02  -4.41602484E-12
  -2.65999995E-02  -5.24939163E-12
  -2.65500005E-02  -6.16399726E-12
  -2.64999997E-02  -7.12483978E-12
  -2.64500007E-02  -8.07572845E-12
  -2.63999999E-02  -8.96170811E-12
  -2.63500009E-02  -9.75143577E-12
  -2.63000000E-02  -1.04494894E-11
  -2.62499992E-02  -1.10928280E-11
  -2.62000002E-02  -1.17326244E-11
  -2.61499994E-02  -1.24092733E-11
  -2.61000004E-02  -1.31316052E-11
  -2.60499995E-02  -1.38697673E-11
  -2.60000005E-02  -1.45652847E-11
  -2.59499997E-02  -1.51542338E-11
  -2.59000007E-02  -1.55934467E-11
  -2.58499999E-02  -1.58781321E-11
  -2.58000009E-02  -1.60428164E-11
  -2.57500000E-02  -1.61448441E-11
  -2.56999992E-02  -1.62373639E-11
  -2.56500002E-02  -1.63436053E-11
  -2.55999994E-02  -1.64439885E-11
  -2.55500004E-02  -1.64820952E-11
  -2.54999995E-02  -1.63873186E-11
  -2.54500005E-02  -1.61045257E-11
  -2.53999997E-02  -1.56177068E-11
  -2.53500007E-02  -1.49569818E-11
  -2.52999999E-02  -1.41855017E-11
  -2.52500009E-02  -1.33716345E-11
  -2.52000000E-02  -1.25584699E-11
  -2.51499992E-02  -1.17440875E-11
  -2.51000002E-02  -1.08816524E-11
  -2.50499994E-02  -9.89976590E-12
  -2.50000004E-02  -8.73456776E-12
  -2.49499995E-02  -7.35967016E-12
  -2.49000005E-02  -5.80060392E-12
  -2.48499997E-02  -4.12699996E-12
  -2.48000007E-02  -2.42540384E-12
  -2.47499999E-02  -7.64211123E-13
  -2.47000009E-02   8.34047078E-13
  -2.46500000E-02   2.40070789E-12
  -2.45999992E-02   4.00529349E-12
  -2.45500002E-02   5.72248195E-12
  -2.44999994E-02   7.59587272E-12
  -2.44500004E-02   9.61440129E-12
  -2.43999995E-02   1.17121235E-11
  -2.43500005E-02   1.37920560E-11
  -2.42999997E-02   1.57641764E-11
  -2.42500007E-02   1.75812333E-11
  -2.41999999E-02   1.92565616E-11
  -2.41500009E-02   2.08555759E-11
  -2.41000000E-02   2.24640237E-11
  -2.40499992E-02   2.41463412E-11
  -2.40000002E-02   2.59121648E-11
  -2.39499994E-02   2.77060111E-11
  -2.39000004E-02   2.94253372E-11
  -2.38499995E-02   3.09598805E-11
  -2.38000005E-02   3.22355614E-11
  -2.37499997E-02   3.32438556E-11
  -2.37000007E-02   3.40432300E-11
  -2.36499999E-02   3.47312595E-11
  -2.36000009E-02   3.53988679E-11
  -2.35500000E-02   3.60862659E-11
  -2.34999992E-02   3.67601886E-11
  -2.34500002E-02   3.73230891E-11
  -2.33999994E-02   3.76513230E-11
  -2.33500004E-02   3.76463201E-11
  -2.32999995E-02   3.72766713E-11
  -2.32500006E-02   3.65921564E-11
  -2.31999997E-02   3.57026596E-11
  -2.31500007E-02   3.47300522E-11
  -2.30999999E-02   3.37535278E-11
  -2.30500009E-02   3.27723230E-11
  -2.30000000E-02   3.17030048E-11
  -2.29499992E-02   3.04137028E-11
  -2.29000002E-02   2.87814807E-11
  -2.28499994E-02   2.67483136E-11
  -2.28000004E-02   2.43507523E-11
  -2.27499995E-02   2.17092542E-11
  -2.27000006E-02   1.89804578E-11
  -2.26499997E-02   1.62922956E-11
  -2.26000007E-02   1.36901167E-11
  -2.25499999E-02   1.11181203E-11
  -2.25000009E-02   8.44556022E-12
  -2.24500000E-02   5.52760875E-12
  -2.23999992E-02   2.27494607E-12
  -2.23500002E-02  -1.29860055E-12
  -2.22999994E-02  -5.07242815E-12
  -2.22500004E-02  -8.86276556E-12
  -2.21999995E-02  -1.24957883E-11
  -2.21500006E-02  -1.58787081E-11
  -2.20999997E-02  -1.90370636E-11
  -2.20500007E-02  -2.21003493E-11
  -2.19999999E-02  -2.52406498E-11
  -2.19500009E-02  -2.85901268E-11
  -2.19000001E-02  -3.21734757E-11
  -2.18499992E-02  -3.58862419E-11
  -2.18000002E-02  -3.95301500E-11
  -2.17499994E-02  -4.28917561E-11
  -2.17000004E-02  -4.58305893E-11
  -2.16499995E-02  -4.83376360E-11
  -2.16000006E-02  -5.05369704E-11
  -2.15499997E-02  -5.26278569E-11
  -2.15000007E-02  -5.47912549E-11
  -2.14499999E-02  -5.71017469E-11
  -2.14000009E-02  -5.94846741E-11
  -2.13500001E-02  -6.17393289E-11
  -2.12999992E-02  -6.36201439E-11
  -2.12500002E-02  -6.49413440E-11
  -2.11999994E-02  -6.56587562E-11
  -2.11500004E-02  -6.58912924E-11
  -2.10999995E-02  -6.58703786E-11
  -2.10500006E-02  -6.58376617E-11
  -2.09999997E-02  -6.59354724E-11
  -2.09500007E-02  -6.61389415E-11
  -2.08999999E-02  -6.62616836E-11
  -2.08500009E-02  -6.60348443E-11
  -2.08000001E-02  -6.52262133E-11
  -2.07499992E-02  -6.37470216E-11
  -2.07000002E-02  -6.16977164E-11
  -2.06499994E-02  -5.93304988E-11
  -2.06000004E-02  -5.69429122E-11
  -2.05499995E-02  -5.47484037E-11
  -2.05000006E-02  -5.27817338E-11
  -2.04499997E-02  -5.08827980E-11
  -2.04000007E-02  -4.87684858E-11
  -2.03499999E-02  -4.61627403E-11
  -2.03000009E-02  -4.29277794E-11
  -2.02500001E-02  -3.91372663E-11
  -2.01999992E-02  -3.50567457E-11
  -2.01500002E-02  -3.10374816E-11
  -2.00999994E-02  -2.73691503E-11
  -2.00500004E-02  -2.41567200E-11
  -1.99999996E-02  -2.12775058E-11
  -1.99500006E-02  -1.84397810E-11
  -1.98999997E-02  -1.53189232E-11
  -1.98500007E-02  -1.17113879E-11
  -1.97999999E-02  -7.63736990E-12
  -1.97500009E-02  -3.34440418E-12
  -1.97000001E-02   7.92191616E-13
  -1.96499992E-02   4.42965976E-12
  -1.96000002E-02   7.40788854E-12
  -1.95499994E-02   9.82120375E-12
  -1.95000004E-02   1.19773557E-11
  -1.94499996E-02   1.42596169E-11
  -1.94000006E-02   1.69519329E-11
  -1.93499997E-02   2.01053219E-11
  -1.93000007E-02   2.35068510E-11
  -1.92499999E-02   2.67675378E-11
  -1.92000009E-02   2.94920269E-11
  -1.91500001E-02   3.14554181E-11
  -1.90999992E-02   3.27076109E-11
  -1.90500002E-02   3.35565777E-11
  -1.89999994E-02   3.44355967E-11
  -1.89500004E-02   3.57120410E-11
  -1.88999996E-02   3.75228286E-11
  -1.88500006E-02   3.97113488E-11
  -1.87999997E-02   4.18964273E-11
  -1.87500007E-02   4.36445949E-11
  -1.86999999E-02   4.46699622E-11
  -1.86500009E-02   4.49718804E-11
  -1.86000001E-02   4.48472093E-11
  -1.85499992E-02   4.47692335E-11
  -1.85000002E-02   4.51854908E-11
  -1.84499994E-02   4.63240800E-11
  -1.84000004E-02   4.80958086E-11
  -1.83499996E-02   5.01377134E-11
  -1.83000006E-02   5.19806420E-11
  -1.82499997E-02   5.32673766E-11
  -1.82000007E-02   5.39236225E-11
  -1.81499999E-02   5.42040857E-11
  -1.81000009E-02   5.45909602E-11
  -1.80500001E-02   5.55883811E-11
  -1.79999992E-02   5.75039495E-11
  -1.79500002E-02   6.03155928E-11
  -1.78999994E-02   6.36848907E-11
  -1.78500004E-02   6.71124753E-11
  -1.77999996E-02   7.01675176E-11
  -1.77500006E-02   7.26887023E-11
  -1.76999997E-02   7.48655790E-11
  -1.76500008E-02   7.71618741E-11
  -1.75999999E-02   8.01129024E-11
  -1.75500009E-02   8.40866057E-11
  -1.75000001E-02   8.91148197E-11
  -1.74499992E-02   9.48717493E-11
  -1.74000002E-02   1.00810776E-10
  -1.73499994E-02   1.06399826E-10
  -1.73000004E-02   1.11350353E-10
  -1.72499996E-02   1.15736962E-10
  -1.72000006E-02   1.19953006E-10
  -1.71499997E-02   1.24520200E-10
  -1.71000008E-02   1.29836530E-10
  -1.70499999E-02   1.35974731E-10
  -1.70000009E-02   1.42622636E-10
  -1.69500001E-02   1.49193338E-10
  -1.68999992E-02   1.55057717E-10
  -1.68500002E-02   1.59795788E-10
  -1.67999994E-02   1.63353997E-10
  -1.67500004E-02   1.66037378E-10
  -1.66999996E-02   1.68338676E-10
  -1.66500006E-02   1.70679568E-10
  -1.65999997E-02   1.73179235E-10
  -1.65500008E-02   1.75554155E-10
  -1.64999999E-02   1.77194870E-10
  -1.64500009E-02   1.77386550E-10
  -1.64000001E-02   1.75575610E-10
  -1.63499992E-02   1.71563708E-10
  -1.63000003E-02   1.65541442E-10
  -1.62499994E-02   1.57946947E-10
  -1.62000004E-02   1.49211088E-10
  -1.61499996E-02   1.39503506E-10
  -1.61000006E-02   1.28593441E-10
  -1.60499997E-02   1.15887980E-10
  -1.60000008E-02   1.00632211E-10
  -1.59499999E-02   8.21821916E-11
  -1.59000009E-02   6.02287109E-11
  -1.58500001E-02   3.48720081E-11
  -1.57999992E-02   6.51364856E-12
  -1.57500003E-02  -2.43875493E-11
  -1.56999994E-02  -5.75867791E-11
  -1.56500004E-02  -9.32296879E-11
  -1.55999996E-02  -1.31855485E-10
  -1.55499997E-02  -1.74223747E-10
  -1.54999997E-02  -2.21042060E-10
  -1.54499998E-02  -2.72715073E-10
  -1.53999999E-02  -3.29226368E-10
  -1.53500000E-02  -3.90206145E-10
  -1.53000001E-02  -4.55154886E-10
  -1.52500002E-02  -5.23723342E-10
  -1.52000003E-02  -5.95923200E-10
  -1.51500003E-02  -6.72174649E-10
  -1.51000004E-02  -7.53167417E-10
  -1.50499996E-02  -8.39600167E-10
  -1.49999997E-02  -9.31910216E-10
  -1.49499997E-02  -1.03011688E-09
  -1.48999998E-02  -1.13384568E-09
  -1.48499999E-02  -1.24252519E-09
  -1.48000000E-02  -1.35566924E-09
  -1.47500001E-02  -1.47311718E-09
  -1.47000002E-02  -1.59512803E-09
  -1.46500003E-02  -1.72228365E-09
  -1.46000003E-02  -1.85524796E-09
  -1.45500004E-02  -1.99448458E-09
  -1.44999996E-02  -2.14006346E-09
  -1.44499997E-02  -2.29163821E-09
  -1.43999998E-02  -2.44860976E-09
  -1.43499998E-02  -2.61039546E-09
  -1.42999999E-02  -2.77668954E-09
  -1.42500000E-02  -2.94759905E-09
  -1.42000001E-02  -3.12359139E-09
  -1.41500002E-02  -3.30528160E-09
  -1.41000003E-02  -3.49314933E-09
  -1.40500003E-02  -3.68731534E-09
  -1.40000004E-02  -3.88747745E-09
  -1.39499996E-02  -4.09302636E-09
  -1.38999997E-02  -4.30330749E-09
  -1.38499998E-02  -4.51789495E-09
  -1.37999998E-02  -4.73676476E-09
  -1.37499999E-02  -4.96029084E-09
  -1.37000000E-02  -5.18906162E-09
  -1.36500001E-02  -5.42360601E-09
  -1.36000002E-02  -5.66414426E-09
  -1.35500003E-02  -5.91048499E-09
  -1.35000004E-02  -6.16209528E-09
  -1.34500004E-02  -6.41833653E-09
  -1.33999996E-02  -6.67874378E-09
  -1.33499997E-02  -6.94323088E-09
  -1.32999998E-02  -7.21213267E-09
  -1.32499998E-02  -7.48606155E-09
  -1.31999999E-02  -7.76564324E-09
  -1.31500000E-02  -8.05124500E-09
  -1.31000001E-02  -8.34283398E-09
  -1.30500002E-02  -8.64000604E-09
  -1.30000003E-02  -8.94220076E-09
  -1.29500004E-02  -9.24896248E-09
  -1.29000004E-02  -9.56019353E-09
  -1.28499996E-02  -9.87622961E-09
  -1.27999997E-02  -1.01977466E-08
  -1.27499998E-02  -1.05255218E-08
  -1.26999998E-02  -1.08601501E-08
  -1.26499999E-02  -1.12018643E-08
  -1.26000000E-02  -1.15505099E-08
  -1.25500001E-02  -1.19057075E-08
  -1.25000002E-02  -1.22671295E-08
  -1.24500003E-02  -1.26347439E-08
  -1.24000004E-02  -1.30089424E-08
  -1.23500004E-02  -1.33904710E-08
  -1.22999996E-02  -1.37802321E-08
  -1.22499997E-02  -1.41790171E-08
  -1.21999998E-02  -1.45872976E-08
  -1.21499998E-02  -1.50051722E-08
  -1.20999999E-02  -1.54324855E-08
  -1.20500000E-02  -1.58690785E-08
  -1.20000001E-02  -1.63150702E-08
  -1.19500002E-02  -1.67709917E-08
  -1.19000003E-02  -1.72377650E-08
  -1.18500004E-02  -1.77164949E-08
  -1.18000004E-02  -1.82081870E-08
  -1.17499996E-02  -1.87135303E-08
  -1.16999997E-02  -1.92328109E-08
  -1.16499998E-02  -1.97659844E-08
  -1.15999999E-02  -2.03129105E-08
  -1.15499999E-02  -2.08736246E-08
  -1.15000000E-02  -2.14485620E-08
  -1.14500001E-02  -2.20386216E-08
  -1.14000002E-02  -2.26449899E-08
  -1.13500003E-02  -2.32688979E-08
  -1.13000004E-02  -2.39113565E-08
  -1.12500004E-02  -2.45730405E-08
  -1.11999996E-02  -2.52543160E-08
  -1.11499997E-02  -2.59554334E-08
  -1.10999998E-02  -2.66767533E-08
  -1.10499999E-02  -2.74188956E-08
  -1.09999999E-02  -2.81827983E-08
  -1.09500000E-02  -2.89696089E-08
  -1.09000001E-02  -2.97804661E-08
  -1.08500002E-02  -3.06162100E-08
  -1.08000003E-02  -3.14772670E-08
  -1.07500004E-02  -3.23636833E-08
  -1.07000005E-02  -3.32753629E-08
  -1.06499996E-02  -3.42123556E-08
  -1.05999997E-02  -3.51750913E-08
  -1.05499998E-02  -3.61644865E-08
  -1.04999999E-02  -3.71818381E-08
  -1.04499999E-02  -3.82285990E-08
  -1.04000000E-02  -3.93061406E-08
  -1.03500001E-02  -4.04155358E-08
  -1.03000002E-02  -4.15574810E-08
  -1.02500003E-02  -4.27324025E-08
  -1.02000004E-02  -4.39406804E-08
  -1.01500005E-02  -4.51828654E-08
  -1.00999996E-02  -4.64598244E-08
  -1.00499997E-02  -4.77726516E-08
  -9.99999978E-03  -4.91224661E-08
  -9.94999986E-03  -5.05102058E-08
  -9.89999995E-03  -5.19364853E-08
  -9.85000003E-03  -5.34015676E-08
  -9.80000012E-03  -5.49055308E-08
  -9.75000020E-03  -5.64484353E-08
  -9.70000029E-03  -5.80306079E-08
  -9.65000037E-03  -5.96527912E-08
  -9.60000046E-03  -6.13161220E-08
  -9.54999961E-03  -6.30219574E-08
  -9.49999969E-03  -6.47716263E-08
  -9.44999978E-03  -6.65661730E-08
  -9.39999986E-03  -6.84064005E-08
  -9.34999995E-03  -7.02929128E-08
  -9.30000003E-03  -7.22263849E-08
  -9.25000012E-03  -7.42076622E-08
  -9.20000020E-03  -7.62379315E-08
  -9.15000029E-03  -7.83187133E-08
  -9.10000037E-03  -8.04517200E-08
  -9.05000046E-03  -8.26386710E-08
  -8.99999961E-03  -8.48809378E-08
  -8.94999970E-03  -8.71794867E-08
  -8.89999978E-03  -8.95349785E-08
  -8.84999987E-03  -9.19480030E-08
  -8.79999995E-03  -9.44192848E-08
  -8.75000004E-03  -9.69498402E-08
  -8.70000012E-03  -9.95409479E-08
  -8.65000021E-03  -1.02194100E-07
  -8.60000029E-03  -1.04910860E-07
  -8.55000038E-03  -1.07692642E-07
  -8.50000046E-03  -1.10540739E-07
  -8.44999962E-03  -1.13456245E-07
  -8.39999970E-03  -1.16440233E-07
  -8.34999979E-03  -1.19494032E-07
  -8.29999987E-03  -1.22619383E-07
  -8.24999996E-03  -1.25818502E-07
  -8.20000004E-03  -1.29093834E-07
  -8.15000013E-03  -1.32447866E-07
  -8.10000021E-03  -1.35882942E-07
  -8.05000030E-03  -1.39401266E-07
  -8.00000038E-03  -1.43004840E-07
  -7.95000046E-03  -1.46695555E-07
  -7.89999962E-03  -1.50475373E-07
  -7.84999970E-03  -1.54346580E-07
  -7.79999979E-03  -1.58311721E-07
  -7.74999987E-03  -1.62373567E-07
  -7.69999996E-03  -1.66534832E-07
  -7.65000004E-03  -1.70798003E-07
  -7.60000013E-03  -1.75165312E-07
  -7.55000021E-03  -1.79638803E-07
  -7.49999983E-03  -1.84220525E-07
  -7.44999992E-03  -1.88912637E-07
  -7.40000000E-03  -1.93717511E-07
  -7.35000009E-03  -1.98638020E-07
  -7.30000017E-03  -2.03677232E-07
  -7.24999979E-03  -2.08838443E-07
  -7.19999988E-03  -2.14124952E-07
  -7.14999996E-03  -2.19539928E-07
  -7.10000005E-03  -2.25086339E-07
  -7.05000013E-03  -2.30767156E-07
  -7.00000022E-03  -2.36585620E-07
  -6.94999984E-03  -2.42545269E-07
  -6.89999992E-03  -2.48649911E-07
  -6.85000001E-03  -2.54903426E-07
  -6.80000009E-03  -2.61309765E-07
  -6.75000018E-03  -2.67872849E-07
  -6.69999979E-03  -2.74596459E-07
  -6.64999988E-03  -2.81484120E-07
  -6.59999996E-03  -2.88539127E-07
  -6.55000005E-03  -2.95764863E-07
  -6.50000013E-03  -3.03164967E-07
  -6.45000022E-03  -3.10743360E-07
  -6.39999984E-03  -3.18503965E-07
  -6.34999992E-03  -3.26450674E-07
  -6.30000001E-03  -3.34587469E-07
  -6.25000009E-03  -3.42918128E-07
  -6.20000018E-03  -3.51446204E-07
  -6.14999980E-03  -3.60175420E-07
  -6.09999988E-03  -3.69109557E-07
  -6.04999997E-03  -3.78252736E-07
  -6.00000005E-03  -3.87609390E-07
  -5.95000014E-03  -3.97184152E-07
  -5.90000022E-03  -4.06981570E-07
  -5.84999984E-03  -4.17006135E-07
  -5.79999993E-03  -4.27262592E-07
  -5.75000001E-03  -4.37755688E-07
  -5.70000010E-03  -4.48489970E-07
  -5.65000018E-03  -4.59469845E-07
  -5.59999980E-03  -4.70699803E-07
  -5.54999989E-03  -4.82184817E-07
  -5.49999997E-03  -4.93930315E-07
  -5.45000006E-03  -5.05941330E-07
  -5.40000014E-03  -5.18222350E-07
  -5.35000023E-03  -5.30777697E-07
  -5.29999984E-03  -5.43612089E-07
  -5.24999993E-03  -5.56730356E-07
  -5.20000001E-03  -5.70136933E-07
  -5.15000010E-03  -5.83836140E-07
  -5.10000018E-03  -5.97832411E-07
  -5.04999980E-03  -6.12130805E-07
  -4.99999989E-03  -6.26736721E-07
  -4.94999997E-03  -6.41655163E-07
  -4.90000006E-03  -6.56890904E-07
  -4.85000014E-03  -6.72449119E-07
  -4.80000023E-03  -6.88334978E-07
  -4.74999985E-03  -7.04554566E-07
  -4.69999993E-03  -7.21113850E-07
  -4.65000002E-03  -7.38018912E-07
  -4.60000010E-03  -7.55275835E-07
  -4.55000019E-03  -7.72890587E-07
  -4.49999981E-03  -7.90869251E-07
  -4.44999989E-03  -8.09217795E-07
  -4.39999998E-03  -8.27941960E-07
  -4.35000006E-03  -8.47047659E-07
  -4.30000015E-03  -8.66540347E-07
  -4.25000023E-03  -8.86426164E-07
  -4.19999985E-03  -9.06711477E-07
  -4.14999994E-03  -9.27402311E-07
  -4.10000002E-03  -9.48504294E-07
  -4.05000011E-03  -9.70023166E-07
  -4.00000019E-03  -9.91964612E-07
  -3.94999981E-03  -1.01433500E-06
  -3.89999989E-03  -1.03714035E-06
  -3.84999998E-03  -1.06038749E-06
  -3.80000006E-03  -1.08408358E-06
  -3.74999992E-03  -1.10823589E-06
  -3.70000000E-03  -1.13285137E-06
  -3.65000009E-03  -1.15793705E-06
  -3.59999994E-03  -1.18350010E-06
  -3.55000002E-03  -1.20954815E-06
  -3.50000011E-03  -1.23608856E-06
  -3.44999996E-03  -1.26312852E-06
  -3.40000005E-03  -1.29067587E-06
  -3.34999990E-03  -1.31873867E-06
  -3.29999998E-03  -1.34732534E-06
  -3.25000007E-03  -1.37644417E-06
  -3.19999992E-03  -1.40610291E-06
  -3.15000000E-03  -1.43630882E-06
  -3.10000009E-03  -1.46706907E-06
  -3.04999994E-03  -1.49839093E-06
  -3.00000003E-03  -1.53028270E-06
  -2.95000011E-03  -1.56275371E-06
  -2.89999996E-03  -1.59581305E-06
  -2.85000005E-03  -1.62946810E-06
  -2.79999990E-03  -1.66372797E-06
  -2.74999999E-03  -1.69860118E-06
  -2.70000007E-03  -1.73409614E-06
  -2.64999992E-03  -1.77022071E-06
  -2.60000001E-03  -1.80698282E-06
  -2.55000009E-03  -1.84439079E-06
  -2.49999994E-03  -1.88245485E-06
  -2.45000003E-03  -1.92118500E-06
  -2.40000011E-03  -1.96059182E-06
  -2.34999997E-03  -2.00068598E-06
  -2.30000005E-03  -2.04147659E-06
  -2.24999990E-03  -2.08297320E-06
  -2.19999999E-03  -2.12518512E-06
  -2.15000007E-03  -2.16812168E-06
  -2.09999993E-03  -2.21179357E-06
  -2.05000001E-03  -2.25621193E-06
  -2.00000009E-03  -2.30138767E-06
  -1.94999995E-03  -2.34733125E-06
  -1.90000003E-03  -2.39405404E-06
  -1.85000000E-03  -2.44156627E-06
  -1.79999997E-03  -2.48987749E-06
  -1.75000005E-03  -2.53899680E-06
  -1.70000002E-03  -2.58893397E-06
  -1.64999999E-03  -2.63969832E-06
  -1.59999996E-03  -2.69129987E-06
  -1.55000004E-03  -2.74375134E-06
  -1.50000001E-03  -2.79706569E-06
  -1.44999998E-03  -2.85125543E-06
  -1.39999995E-03  -2.90633216E-06
  -1.35000004E-03  -2.96230496E-06
  -1.30000000E-03  -3.01918408E-06
  -1.24999997E-03  -3.07698269E-06
  -1.20000006E-03  -3.13571331E-06
  -1.15000003E-03  -3.19538822E-06
  -1.09999999E-03  -3.25601968E-06
  -1.04999996E-03  -3.31762135E-06
  -1.00000005E-03  -3.38020777E-06
  -9.50000016E-04  -3.44379350E-06
  -8.99999985E-04  -3.50838968E-06
  -8.50000011E-04  -3.57400631E-06
  -7.99999980E-04  -3.64065136E-06
  -7.50000007E-04  -3.70833664E-06
  -6.99999975E-04  -3.77707647E-06
  -6.50000002E-04  -3.84688701E-06
  -6.00000028E-04  -3.91778076E-06
  -5.49999997E-04  -3.98977090E-06
  -5.00000024E-04  -4.06286972E-06
  -4.49999992E-04  -4.13709222E-06
  -3.99999990E-04  -4.21245022E-06
  -3.49999988E-04  -4.28895555E-06
  -3.00000014E-04  -4.36661867E-06
  -2.50000012E-04  -4.44545094E-06
  -1.99999995E-04  -4.52546783E-06
  -1.50000007E-04  -4.60668889E-06
  -9.99999975E-05  -4.68913186E-06
  -4.99999987E-05  -4.77281083E-06
   0.00000000      -4.85773444E-06
   4.99999987E-05  -4.94391497E-06
   9.99999975E-05  -5.03136744E-06
   1.50000007E-04  -5.12010547E-06
   1.99999995E-04  -5.21014226E-06
   2.50000012E-04  -5.30149055E-06
   3.00000014E-04  -5.39416533E-06
   3.49999988E-04  -5.48818662E-06
   3.99999990E-04  -5.58357078E-06
   4.49999992E-04  -5.68033238E-06
   5.00000024E-04  -5.77847959E-06
   5.49999997E-04  -5.87802151E-06
   6.00000028E-04  -5.97896951E-06
   6.50000002E-04  -6.08134178E-06
   6.99999975E-04  -6.18515514E-06
   7.50000007E-04  -6.29042552E-06
   7.99999980E-04  -6.39716473E-06
   8.50000011E-04  -6.50538823E-06
   8.99999985E-04  -6.61511058E-06
   9.50000016E-04  -6.72634769E-06
   1.00000005E-03  -6.83910730E-06
   1.04999996E-03  -6.95339850E-06
   1.09999999E-03  -7.06923174E-06
   1.15000003E-03  -7.18662523E-06
   1.20000006E-03  -7.30559987E-06
   1.24999997E-03  -7.42617294E-06
   1.30000000E-03  -7.54835810E-06
   1.35000004E-03  -7.67216352E-06
   1.39999995E-03  -7.79759921E-06
   1.44999998E-03  -7.92468018E-06
   1.50000001E-03  -8.05341733E-06
   1.55000004E-03  -8.18381977E-06
   1.59999996E-03  -8.31589659E-06
   1.64999999E-03  -8.44966144E-06
   1.70000002E-03  -8.58513431E-06
   1.75000005E-03  -8.72233159E-06
   1.79999997E-03  -8.86126509E-06
   1.85000000E-03  -9.00193663E-06
   1.90000003E-03  -9.14435259E-06
   1.94999995E-03  -9.28852114E-06
   2.00000009E-03  -9.43445593E-06
   2.05000001E-03  -9.58216970E-06
   2.09999993E-03  -9.73167153E-06
   2.15000007E-03  -9.88297597E-06
   2.19999999E-03  -1.00360967E-05
   2.24999990E-03  -1.01910491E-05
   2.30000005E-03  -1.03478369E-05
   2.34999997E-03  -1.05064619E-05
   2.40000011E-03  -1.06669295E-05
   2.45000003E-03  -1.08292479E-05
   2.49999994E-03  -1.09934281E-05
   2.55000009E-03  -1.11594800E-05
   2.60000001E-03  -1.13274145E-05
   2.64999992E-03  -1.14972436E-05
   2.70000007E-03  -1.16689753E-05
   2.74999999E-03  -1.18426124E-05
   2.79999990E-03  -1.20181539E-05