  -3.99999991E-02   0.00000000    
  -3.99499983E-02   0.00000000    
  -3.99000011E-02   1.90667286E-14
  -3.98500003E-02   1.06339803E-13
  -3.97999994E-02   2.85299372E-13
  -3.97499986E-02   4.43474955E-13
  -3.97000015E-02   2.56157617E-13
  -3.96500006E-02  -7.34487287E-13
  -3.95999998E-02  -2.84534657E-12
  -3.95499989E-02  -5.91500807E-12
  -3.95000018E-02  -9.15594336E-12
  -3.94500010E-02  -1.13862765E-11
  -3.94000001E-02  -1.15979223E-11
  -3.93499993E-02  -9.57753234E-12
  -3.92999984E-02  -6.21923606E-12
  -3.92500013E-02  -3.29759202E-12
  -3.92000005E-02  -2.72407596E-12
  -3.91499996E-02  -5.57475940E-12
  -3.90999988E-02  -1.13502402E-11
  -3.90500017E-02  -1.79156880E-11
  -3.90000008E-02  -2.23015825E-11
  -3.89500000E-02  -2.20855400E-11
  -3.88999991E-02  -1.66688365E-11
  -3.88499983E-02  -7.71023002E-12
  -3.88000011E-02   1.61123003E-12
  -3.87500003E-02   8.18742036E-12
  -3.86999995E-02   1.06286577E-11
  -3.86499986E-02   1.01275715E-11
  -3.86000015E-02   1.00783886E-11
  -3.85500006E-02   1.45702252E-11
  -3.84999998E-02   2.64079123E-11
  -3.84499989E-02   4.56062930E-11
  -3.84000018E-02   6.91898899E-11
  -3.83500010E-02   9.25468938E-11
  -3.83000001E-02   1.11734295E-10
  -3.82499993E-02   1.25496960E-10
  -3.81999984E-02   1.35827904E-10
  -3.81500013E-02   1.46713128E-10
  -3.81000005E-02   1.61772290E-10
  -3.80499996E-02   1.82132837E-10
  -3.79999988E-02   2.05699957E-10
  -3.79500017E-02   2.28195643E-10
  -3.79000008E-02   2.45423376E-10
  -3.78500000E-02   2.55590549E-10
  -3.77999991E-02   2.60410637E-10
  -3.77499983E-02   2.64197719E-10
  -3.77000012E-02   2.71186351E-10
  -3.76500003E-02   2.82451451E-10
  -3.75999995E-02   2.94350017E-10
  -3.75499986E-02   2.99773179E-10
  -3.75000015E-02   2.91846741E-10
  -3.74500006E-02   2.68051747E-10
  -3.73999998E-02   2.32218966E-10
  -3.73499990E-02   1.92919278E-10
  -3.73000018E-02   1.58791175E-10
  -3.72500010E-02   1.33133685E-10
  -3.72000001E-02   1.10720787E-10
  -3.71499993E-02   7.89775190E-11
  -3.70999984E-02   2.36959671E-11
  -3.70500013E-02  -6.29447744E-11
  -3.70000005E-02  -1.76100343E-10
  -3.69499996E-02  -2.97776803E-10
  -3.68999988E-02  -4.03785616E-10
  -3.68500017E-02  -4.75746387E-10
  -3.68000008E-02  -5.12255904E-10
  -3.67500000E-02  -5.32729583E-10
  -3.66999991E-02  -5.70509029E-10
  -3.66499983E-02  -6.57233601E-10
  -3.66000012E-02  -8.05372324E-10
  -3.65500003E-02  -9.97651517E-10
  -3.64999995E-02  -1.18982713E-09
  -3.64499986E-02  -1.32757760E-09
  -3.64000015E-02  -1.37140788E-09
  -3.63500006E-02  -1.31836597E-09
  -3.62999998E-02  -1.20897259E-09
  -3.62499990E-02  -1.11332021E-09
  -3.62000018E-02  -1.10012877E-09
  -3.61500010E-02  -1.20203836E-09
  -3.61000001E-02  -1.39426581E-09
  -3.60499993E-02  -1.59907410E-09
  -3.59999985E-02  -1.71690306E-09
  -3.59500013E-02  -1.67187253E-09
  -3.59000005E-02  -1.45108625E-09
  -3.58499996E-02  -1.11797371E-09
  -3.57999988E-02  -7.90188692E-10
  -3.57500017E-02  -5.88534776E-10
  -3.57000008E-02  -5.78291359E-10
  -3.56500000E-02  -7.30843275E-10
  -3.55999991E-02  -9.27093791E-10
  -3.55499983E-02  -1.00601782E-09
  -3.55000012E-02  -8.39535941E-10
  -3.54500003E-02  -3.99644179E-10
  -3.53999995E-02   2.15974100E-10
  -3.53499986E-02   8.16565593E-10
  -3.53000015E-02   1.19917232E-09
  -3.52500007E-02   1.24363131E-09
  -3.51999998E-02   9.77620540E-10
  -3.51499990E-02   5.77611681E-10
  -3.51000018E-02   2.98653380E-10
  -3.50500010E-02   3.59251351E-10
  -3.50000001E-02   8.32071412E-10
  -3.49499993E-02   1.59380531E-09
  -3.48999985E-02   2.36437581E-09
  -3.48500013E-02   2.82525159E-09
  -3.48000005E-02   2.76734080E-09
  -3.47499996E-02   2.20024221E-09
  -3.46999988E-02   1.36733269E-09
  -3.46500017E-02   6.51408205E-10
  -3.46000008E-02   4.06121553E-10
  -3.45500000E-02   7.86386178E-10
  -3.44999991E-02   1.65763403E-09
  -3.44499983E-02   2.63365507E-09
  -3.44000012E-02   3.23646354E-09
  -3.43500003E-02   3.11328496E-09
  -3.42999995E-02   2.21292629E-09
  -3.42499986E-02   8.34756209E-10
  -3.42000015E-02  -4.83052653E-10
  -3.41500007E-02  -1.19572385E-09
  -3.40999998E-02  -1.00425324E-09
  -3.40499990E-02  -1.09656633E-11
  -3.40000018E-02   1.30154099E-09
  -3.39500010E-02   2.27081887E-09
  -3.39000002E-02   2.35352471E-09
  -3.38499993E-02   1.39023248E-09
  -3.37999985E-02  -2.90312913E-10
  -3.37500013E-02  -1.98809458E-09
  -3.37000005E-02  -2.93117597E-09
  -3.36499996E-02  -2.63020805E-09
  -3.35999988E-02  -1.12569343E-09
  -3.35500017E-02   9.95305727E-10
  -3.35000008E-02   2.83639201E-09
  -3.34500000E-02   3.58891916E-09
  -3.33999991E-02   2.91410296E-09
  -3.33499983E-02   1.13120180E-09
  -3.33000012E-02  -8.88255025E-10
  -3.32500003E-02  -2.08997197E-09
  -3.31999995E-02  -1.71544923E-09
  -3.31499986E-02   3.25766608E-10
  -3.31000015E-02   3.37004114E-09
  -3.30500007E-02   6.25814778E-09
  -3.29999998E-02   7.83988785E-09
  -3.29499990E-02   7.50560059E-09
  -3.29000019E-02   5.49932011E-09
  -3.28500010E-02   2.85513879E-09
  -3.28000002E-02   9.63954694E-10
  -3.27499993E-02   9.49486934E-10
  -3.26999985E-02   3.13087978E-09
  -3.26500013E-02   6.82494372E-09
  -3.26000005E-02   1.05986580E-08
  -3.25499997E-02   1.28811566E-08
  -3.24999988E-02   1.26734960E-08
  -3.24500017E-02   1.00346922E-08
  -3.24000008E-02   6.10778272E-09
  -3.23500000E-02   2.64893796E-09
  -3.22999991E-02   1.24990984E-09
  -3.22499983E-02   2.59575494E-09
  -3.22000012E-02   6.10130479E-09
  -3.21500003E-02   1.01130713E-08
  -3.20999995E-02   1.26124826E-08
  -3.20499986E-02   1.21226149E-08
  -3.20000015E-02   8.41226644E-09
  -3.19500007E-02   2.66416245E-09
  -3.18999998E-02  -2.99637981E-09
  -3.18499990E-02  -6.42761888E-09
  -3.18000019E-02  -6.44985176E-09
  -3.17500010E-02  -3.43006401E-09
  -3.17000002E-02   8.14281476E-10
  -3.16499993E-02   3.78070197E-09
  -3.15999985E-02   3.39720896E-09
  -3.15500014E-02  -1.00678343E-09
  -3.15000005E-02  -8.32541591E-09
  -3.14499997E-02  -1.60961129E-08
  -3.13999988E-02  -2.15580815E-08
  -3.13500017E-02  -2.28942874E-08
  -3.13000008E-02  -2.00974117E-08
  -3.12500000E-02  -1.50473909E-08
  -3.11999992E-02  -1.07301794E-08
  -3.11500002E-02  -9.91654492E-09
  -3.10999993E-02  -1.38802481E-08
  -3.10500003E-02  -2.17422986E-08
  -3.09999995E-02  -3.07677972E-08
  -3.09500005E-02  -3.75212181E-08
  -3.08999997E-02  -3.93904358E-08
  -3.08500007E-02  -3.58009444E-08
  -3.07999998E-02  -2.85546093E-08
  -3.07500008E-02  -2.11029221E-08
  -3.07000000E-02  -1.70420922E-08
  -3.06499992E-02  -1.84827353E-08
  -3.06000002E-02  -2.50297703E-08
  -3.05499993E-02  -3.38596919E-08
  -3.05000003E-02  -4.09029823E-08
  -3.04499995E-02  -4.26378293E-08
  -3.04000005E-02  -3.77047229E-08
  -3.03499997E-02  -2.76022316E-08
  -3.03000007E-02  -1.61131712E-08
  -3.02499998E-02  -7.67353381E-09
  -3.02000009E-02  -5.38475176E-09
  -3.01500000E-02  -9.55797219E-09
  -3.00999992E-02  -1.74701853E-08
  -3.00500002E-02  -2.44869565E-08
  -2.99999993E-02  -2.60923532E-08
  -2.99500003E-02  -1.99392876E-08
  -2.98999995E-02  -6.99289426E-09
  -2.98500005E-02   8.78253381E-09
  -2.97999997E-02   2.21028369E-08
  -2.97500007E-02   2.86978032E-08
  -2.96999998E-02   2.72665535E-08
  -2.96500009E-02   2.01565822E-08
  -2.96000000E-02   1.24150628E-08
  -2.95499992E-02   9.58598623E-09
  -2.95000002E-02   1.52073252E-08
  -2.94499993E-02   2.91303461E-08
  -2.94000003E-02   4.74485020E-08
  -2.93499995E-02   6.41214370E-08
  -2.93000005E-02   7.36165404E-08
  -2.92499997E-02   7.34088488E-08
  -2.92000007E-02   6.52063505E-08
  -2.91499998E-02   5.43057936E-08
  -2.91000009E-02   4.73084008E-08
  -2.90500000E-02   4.91723142E-08
  -2.89999992E-02   6.09099757E-08
  -2.89500002E-02   7.89898849E-08
  -2.88999993E-02   9.67665841E-08
  -2.88500004E-02   1.07357785E-07
  -2.87999995E-02   1.06716563E-07
  -2.87500005E-02   9.55206971E-08
  -2.86999997E-02   7.89929331E-08
  -2.86500007E-02   6.46712124E-08
  -2.85999998E-02   5.90716560E-08
  -2.85500009E-02   6.47128999E-08
  -2.85000000E-02   7.88519188E-08
  -2.84499992E-02   9.45509697E-08
  -2.84000002E-02   1.03664881E-07
  -2.83499993E-02   1.00460561E-07
  -2.83000004E-02   8.42582821E-08
  -2.82499995E-02   5.98778627E-08
  -2.82000005E-02   3.56264387E-08
  -2.81499997E-02   1.96641636E-08
  -2.81000007E-02   1.63369247E-08
  -2.80499998E-02   2.41236915E-08
  -2.80000009E-02   3.61653569E-08
  -2.79500000E-02   4.32081926E-08
  -2.78999992E-02   3.77051173E-08
  -2.78500002E-02   1.72636696E-08
  -2.77999993E-02  -1.41267629E-08
  -2.77500004E-02  -4.77003574E-08
  -2.76999995E-02  -7.37077031E-08
  -2.76500005E-02  -8.57496332E-08
  -2.75999997E-02  -8.37178789E-08
  -2.75500007E-02  -7.39836423E-08
  -2.74999999E-02  -6.66773587E-08
  -2.74500009E-02  -7.12056405E-08
  -2.74000000E-02  -9.19734617E-08
  -2.73499992E-02  -1.26237623E-07
  -2.73000002E-02  -1.65109313E-07
  -2.72499993E-02  -1.97337243E-07
  -2.72000004E-02  -2.14245105E-07
  -2.71499995E-02  -2.13637193E-07
  -2.71000005E-02  -2.00893837E-07
  -2.70499997E-02  -1.86694862E-07
  -2.70000007E-02  -1.82309506E-07
  -2.69499999E-02  -1.94506782E-07
  -2.69000009E-02  -2.22360683E-07
  -2.68500000E-02  -2.57429065E-07
  -2.67999992E-02  -2.87305937E-07
  -2.67500002E-02  -3.01034362E-07
  -2.66999993E-02  -2.93996379E-07
  -2.66500004E-02  -2.70077066E-07
  -2.65999995E-02  -2.40069681E-07
  -2.65500005E-02  -2.16948962E-07
  -2.64999997E-02  -2.10059753E-07
  -2.64500007E-02  -2.20802178E-07
  -2.63999999E-02  -2.41779645E-07
  -2.63500009E-02  -2.59870262E-07
  -2.63000000E-02  -2.61932030E-07
  -2.62499992E-02  -2.40641555E-07
  -2.62000002E-02  -1.97854817E-07
  -2.61499994E-02  -1.43930848E-07
  -2.61000004E-02  -9.32362454E-08
  -2.60499995E-02  -5.77641117E-08
  -2.60000005E-02  -4.16872581E-08
  -2.59499997E-02  -3.93066308E-08
  -2.59000007E-02  -3.73837423E-08
  -2.58499999E-02  -2.09013287E-08
  -2.58000009E-02   2.02565893E-08
  -2.57500000E-02   8.66792575E-08
  -2.56999992E-02   1.68974296E-07
  -2.56500002E-02   2.51770729E-07
  -2.55999994E-02   3.20477540E-07
  -2.55500004E-02   3.67823020E-07
  -2.54999995E-02   3.97241365E-07
  -2.54500005E-02   4.21530075E-07
  -2.53999997E-02   4.57291264E-07
  -2.53500007E-02   5.17561432E-07
  -2.52999999E-02   6.05892978E-07
  -2.52500009E-02   7.14568273E-07
  -2.52000000E-02   8.27818610E-07
  -2.51499992E-02   9.28699365E-07
  -2.51000002E-02   1.00661362E-06
  -2.50499994E-02   1.06212644E-06
  -2.50000004E-02   1.10686915E-06
  -2.49499995E-02   1.15848741E-06
  -2.49000005E-02   1.23281131E-06
  -2.48499997E-02   1.33670005E-06
  -2.48000007E-02   1.46477453E-06
  -2.47499999E-02   1.60156389E-06
  -2.47000009E-02   1.72820125E-06
  -2.46500000E-02   1.83074349E-06
  -2.45999992E-02   1.90642186E-06
  -2.45500002E-02   1.96500787E-06
  -2.44999994E-02   2.02459410E-06
  -2.44500004E-02   2.10359485E-06
  -2.43999995E-02   2.21248206E-06
  -2.43500005E-02   2.34894833E-06
  -2.42999997E-02   2.49870777E-06
  -2.42500007E-02   2.64166238E-06
  -2.41999999E-02   2.76075639E-06
  -2.41500009E-02   2.84959856E-06
  -2.41000000E-02   2.91542551E-06
  -2.40499992E-02   2.97601605E-06
  -2.40000002E-02   3.05186586E-06
  -2.39499994E-02   3.15703323E-06
  -2.39000004E-02   3.29273939E-06
  -2.38499995E-02   3.44662749E-06
  -2.38000005E-02   3.59807177E-06
  -2.37499997E-02   3.72725708E-06
  -2.37000007E-02   3.82402050E-06
  -2.36499999E-02   3.89249863E-06
  -2.36000009E-02   3.94945391E-06
  -2.35500000E-02   4.01695297E-06
  -2.34999992E-02   4.11258861E-06
  -2.34500002E-02   4.24158407E-06
  -2.33999994E-02   4.39433734E-06
  -2.33500004E-02   4.55054897E-06
  -2.32999995E-02   4.68817825E-06
  -2.32500006E-02   4.79328173E-06
  -2.31999997E-02   4.86635417E-06
  -2.31500007E-02   4.92230220E-06
  -2.30999999E-02   4.98399413E-06
  -2.30500009E-02   5.07219647E-06
  -2.30000000E-02   5.19635341E-06
  -2.29499992E-02   5.35031677E-06
  -2.29000002E-02   5.51497487E-06
  -2.28499994E-02   5.66671179E-06
  -2.28000004E-02   5.78794970E-06
  -2.27499995E-02   5.87508157E-06
  -2.27000006E-02   5.94027870E-06
  -2.26499997E-02   6.00628573E-06
  -2.26000007E-02   6.09645213E-06
  -2.25499999E-02   6.22443849E-06
  -2.25000009E-02   6.38814026E-06
  -2.24500000E-02   6.57059445E-06
  -2.23999992E-02   6.74751209E-06
  -2.23500002E-02   6.89813760E-06
  -2.22999994E-02   7.01461795E-06
  -2.22500004E-02   7.10569657E-06
  -2.21999995E-02   7.19304671E-06
  -2.21500006E-02   7.30181227E-06
  -2.20999997E-02   7.44955787E-06
  -2.20500007E-02   7.63851949E-06
  -2.19999999E-02   7.85461179E-06
  -2.19500009E-02   8.07369543E-06
  -2.19000001E-02   8.27235726E-06
  -2.18499992E-02   8.43844464E-06
  -2.18000002E-02   8.57662417E-06
  -2.17499994E-02   8.70651365E-06
  -2.17000004E-02   8.85415284E-06
  -2.16499995E-02   9.04056287E-06
  -2.16000006E-02   9.27247220E-06
  -2.15499997E-02   9.53937251E-06
  -2.15000007E-02   9.81823541E-06
  -2.14499999E-02   1.00837860E-05
  -2.14000009E-02   1.03198481E-05
  -2.13500001E-02   1.05266718E-05
  -2.12999992E-02   1.07210053E-05
  -2.12500002E-02   1.09288594E-05
  -2.11999994E-02   1.11740947E-05
  -2.11500004E-02   1.14679115E-05
  -2.10999995E-02   1.18039379E-05
  -2.10500006E-02   1.21611884E-05
  -2.09999997E-02   1.25133729E-05
  -2.09500007E-02   1.28406127E-05
  -2.08999999E-02   1.31384559E-05
  -2.08500009E-02   1.34199372E-05
  -2.08000001E-02   1.37099460E-05
  -2.07499992E-02   1.40343082E-05
  -2.07000002E-02   1.44084452E-05
  -2.06499994E-02   1.48306735E-05
  -2.06000004E-02   1.52830326E-05
  -2.05499995E-02   1.57393551E-05
  -2.05000006E-02   1.61769876E-05
  -2.04499997E-02   1.65869787E-05
  -2.04000007E-02   1.69781724E-05
  -2.03499999E-02   1.73734115E-05
  -2.03000009E-02   1.77995262E-05
  -2.02500001E-02   1.82755866E-05
  -2.01999992E-02   1.88046197E-05
  -2.01500002E-02   1.93723881E-05
  -2.00999994E-02   1.99538081E-05
  -2.00500004E-02   2.05242613E-05
  -1.99999996E-02   2.10706276E-05
  -1.99500006E-02   2.15972068E-05
  -1.98999997E-02   2.21239297E-05
  -1.98500007E-02   2.26776592E-05
  -1.97999999E-02   2.32804414E-05
  -1.97500009E-02   2.39399160E-05
  -1.97000001E-02   2.46461168E-05
  -1.96499992E-02   2.53760791E-05
  -1.96000002E-02   2.61042187E-05
  -1.95499994E-02   2.68138083E-05
  -1.95000004E-02   2.75045804E-05
  -1.94499996E-02   2.81929078E-05
  -1.94000006E-02   2.89046420E-05
  -1.93499997E-02   2.96639500E-05
  -1.93000007E-02   3.04827881E-05
  -1.92499999E-02   3.13558157E-05
  -1.92000009E-02   3.22630403E-05
  -1.91500001E-02   3.31789051E-05
  -1.90999992E-02   3.40837651E-05
  -1.90500002E-02   3.49727889E-05
  -1.89999994E-02   3.58581383E-05
  -1.89500004E-02   3.67637404E-05
  -1.88999996E-02   3.77149336E-05
  -1.88500006E-02   3.87274122E-05
  -1.87999997E-02   3.98005868E-05
  -1.87500007E-02   4.09181412E-05
  -1.86999999E-02   4.20556316E-05
  -1.86500009E-02   4.31915832E-05
  -1.86000001E-02   4.43170902E-05
  -1.85499992E-02   4.54398032E-05
  -1.85000002E-02   4.65807425E-05
  -1.84499994E-02   4.77652611E-05
  -1.84000004E-02   4.90119382E-05
  -1.83499996E-02   5.03246956E-05
  -1.83000006E-02   5.16915716E-05
  -1.82499997E-02   5.30902798E-05
  -1.82000007E-02   5.44983741E-05
  -1.81499999E-02   5.59034852E-05
  -1.81000009E-02   5.73089237E-05
  -1.80500001E-02   5.87321847E-05
  -1.79999992E-02   6.01974243E-05
  -1.79500002E-02   6.17251280E-05
  -1.78999994E-02   6.33233431E-05
  -1.78500004E-02   6.49844369E-05
  -1.77999996E-02   6.66890191E-05
  -1.77500006E-02   6.84147089E-05
  -1.76999997E-02   7.01464160E-05
  -1.76500008E-02   7.18832307E-05
  -1.75999999E-02   7.36386719E-05
  -1.75500009E-02   7.54350185E-05
  -1.75000001E-02   7.72938147E-05
  -1.74499992E-02   7.92265637E-05
  -1.74000002E-02   8.12302096E-05
  -1.73499994E-02   8.32889054E-05
  -1.73000004E-02   8.53815000E-05
  -1.72499996E-02   8.74911566E-05
  -1.72000006E-02   8.96128404E-05
  -1.71499997E-02   9.17559955E-05
  -1.71000008E-02   9.39403035E-05
  -1.70499999E-02   9.61871410E-05
  -1.70000009E-02   9.85104853E-05
  -1.69500001E-02   1.00911369E-04
  -1.68999992E-02   1.03377955E-04
  -1.68500002E-02   1.05891100E-04
  -1.67999994E-02   1.08433313E-04
  -1.67500004E-02   1.10996589E-04
  -1.66999996E-02   1.13586175E-04
  -1.66500006E-02   1.16218318E-04
  -1.65999997E-02   1.18913253E-04
  -1.65500008E-02   1.21686695E-04
  -1.64999999E-02   1.24543512E-04
  -1.64500009E-02   1.27476189E-04
  -1.64000001E-02   1.30468587E-04
  -1.63499992E-02   1.33503665E-04
  -1.63000003E-02   1.36571325E-04
  -1.62499994E-02   1.39672775E-04
  -1.62000004E-02   1.42820296E-04
  -1.61499996E-02   1.46032078E-04
  -1.61000006E-02   1.49324507E-04
  -1.60499997E-02   1.52705368E-04
  -1.60000008E-02   1.56170980E-04
  -1.59499999E-02   1.59708841E-04
  -1.59000009E-02   1.63303848E-04
  -1.58500001E-02   1.66944563E-04
  -1.57999992E-02   1.70628642E-04
  -1.57500003E-02   1.74364715E-04
  -1.56999994E-02   1.78168499E-04
  -1.56500004E-02   1.82055781E-04
  -1.55999996E-02   1.86036385E-04
  -1.55499997E-02   1.90110528E-04
  -1.54999997E-02   1.94269451E-04
  -1.54499998E-02   1.98500231E-04
  -1.53999999E-02   2.02791343E-04
  -1.53500000E-02   2.07138335E-04
  -1.53000001E-02   2.11545994E-04
  -1.52500002E-02   2.16026368E-04
  -1.52000003E-02   2.20593603E-04
  -1.51500003E-02   2.25258802E-04
  -1.51000004E-02   2.30025820E-04
  -1.50499996E-02   2.34890220E-04
  -1.49999997E-02   2.39842033E-04
  -1.49499997E-02   2.44870200E-04
  -1.48999998E-02   2.49968463E-04
  -1.48499999E-02   2.55138235E-04
  -1.48000000E-02   2.60387955E-04
  -1.47500001E-02   2.65730603E-04
  -1.47000002E-02   2.71177239E-04
  -1.46500003E-02   2.76732957E-04
  -1.46000003E-02   2.82396941E-04
  -1.45500004E-02   2.88162584E-04
  -1.44999996E-02   2.94020312E-04
  -1.44499997E-02   2.99963198E-04
  -1.43999998E-02   3.05990310E-04
  -1.43499998E-02   3.12107033E-04
  -1.42999999E-02   3.18323000E-04
  -1.42500000E-02   3.24649154E-04
  -1.42000001E-02   3.31093004E-04
  -1.41500002E-02   3.37656151E-04
  -1.41000003E-02   3.44335189E-04
  -1.40500003E-02   3.51122551E-04
  -1.40000004E-02   3.58011195E-04
  -1.39499996E-02   3.64998210E-04
  -1.38999997E-02   3.72085924E-04
  -1.38499998E-02   3.79281410E-04
  -1.37999998E-02   3.86594125E-04
  -1.37499999E-02   3.94032133E-04
  -1.37000000E-02   4.01599420E-04
  -1.36500001E-02   4.09295142E-04
  -1.36000002E-02   4.17114468E-04
  -1.35500003E-02   4.25051869E-04
  -1.35000004E-02   4.33103880E-04
  -1.34500004E-02   4.41269774E-04
  -1.33999996E-02   4.49552579E-04
  -1.33499997E-02   4.57958871E-04
  -1.32999998E-02   4.66496567E-04
  -1.32499998E-02   4.75172565E-04
  -1.31999999E-02   4.83989628E-04
  -1.31500000E-02   4.92946303E-04
  -1.31000001E-02   5.02038049E-04
  -1.30500002E-02   5.11260703E-04
  -1.30000003E-02   5.20610891E-04
  -1.29500004E-02   5.30087214E-04
  -1.29000004E-02   5.39693283E-04
  -1.28499996E-02   5.49436721E-04
  -1.27999997E-02   5.59324573E-04
  -1.27499998E-02   5.69362717E-04
  -1.26999998E-02   5.79554646E-04
  -1.26499999E-02   5.89899078E-04
  -1.26000000E-02   6.00390951E-04
  -1.25500001E-02   6.11024152E-04
  -1.25000002E-02   6.21794665E-04
  -1.24500003E-02   6.32702373E-04
  -1.24000004E-02   6.43750886E-04
  -1.23500004E-02   6.54948759E-04
  -1.22999996E-02   6.66304550E-04
  -1.22499997E-02   6.77822914E-04
  -1.21999998E-02   6.89506240E-04
  -1.21499998E-02   7.01351557E-04
  -1.20999999E-02   7.13350659E-04
  -1.20500000E-02   7.25494698E-04
  -1.20000001E-02   7.37780414E-04
  -1.19500002E-02   7.50210194E-04
  -1.19000003E-02   7.62791955E-04
  -1.18500004E-02   7.75537919E-04
  -1.18000004E-02   7.88457925E-04
  -1.17499996E-02   8.01554939E-04
  -1.16999997E-02   8.14824714E-04
  -1.16499998E-02   8.28258286E-04
  -1.15999999E-02   8.41845002E-04
  -1.15499999E-02   8.55576131E-04
  -1.15000000E-02   8.69450450E-04
  -1.14500001E-02   8.83475703E-04
  -1.14000002E-02   8.97663587E-04
  -1.13500003E-02   9.12025396E-04
  -1.13000004E-02   9.26567707E-04
  -1.12500004E-02   9.41289007E-04
  -1.11999996E-02   9.56180855E-04
  -1.11499997E-02   9.71229514E-04
  -1.10999998E-02   9.86422412E-04
  -1.10499999E-02   1.00175606E-03
  -1.09999999E-02   1.01723662E-03
  -1.09500000E-02   1.03287573E-03
  -1.09000001E-02   1.04868494E-03
  -1.08500002E-02   1.06467388E-03
  -1.08000003E-02   1.08084572E-03
  -1.07500004E-02   1.09719415E-03
  -1.07000005E-02   1.11370347E-03
  -1.06499996E-02   1.13035669E-03
  -1.05999997E-02   1.14714087E-03
  -1.05499998E-02   1.16405485E-03
  -1.04999999E-02   1.18110760E-03
  -1.04499999E-02   1.19831506E-03
  -1.04000000E-02   1.21569389E-03
  -1.03500001E-02   1.23324979E-03
  -1.03000002E-02   1.25097588E-03
  -1.02500003E-02   1.26885343E-03
  -1.02000004E-02   1.28686230E-03
  -1.01500005E-02   1.30498817E-03
  -1.00999996E-02   1.32322568E-03
  -1.00499997E-02   1.34158239E-03
  -9.99999978E-03   1.36007438E-03
  -9.94999986E-03   1.37871818E-03
  -9.89999995E-03   1.39752298E-03
  -9.85000003E-03   1.41648401E-03
  -9.80000012E-03   1.43558532E-03
  -9.75000020E-03   1.45480316E-03
  -9.70000029E-03   1.47411786E-03
  -9.65000037E-03   1.49351987E-03
  -9.60000046E-03   1.51300966E-03
  -9.54999961E-03   1.53260608E-03
  -9.49999969E-03   1.55232940E-03
  -9.44999978E-03   1.57218718E-03
  -9.39999986E-03   1.59217406E-03
  -9.34999995E-03   1.61227176E-03
  -9.30000003E-03   1.63245213E-03
  -9.25000012E-03   1.65268907E-03
  -9.20000020E-03   1.67297001E-03
  -9.15000029E-03   1.69329869E-03
  -9.10000037E-03   1.71369326E-03
  -9.05000046E-03   1.73417164E-03
  -8.99999961E-03   1.75474631E-03
  -8.94999970E-03   1.77541329E-03
  -8.89999978E-03   1.79615046E-03
  -8.84999987E-03   1.81692827E-03
  -8.79999995E-03   1.83771807E-03
  -8.75000004E-03   1.85850612E-03
  -8.70000012E-03   1.87929370E-03
  -8.65000021E-03   1.90009573E-03
  -8.60000029E-03   1.92093232E-03
  -8.55000038E-03   1.94182061E-03
  -8.50000046E-03   1.96275674E-03
  -8.44999962E-03   1.98371592E-03
  -8.39999970E-03   2.00466556E-03
  -8.34999979E-03   2.02557188E-03
  -8.29999987E-03   2.04640767E-03
  -8.24999996E-03   2.06716242E-03
  -8.20000004E-03   2.08784943E-03
  -8.15000013E-03   2.10849685E-03
  -8.10000021E-03   2.12912401E-03
  -8.05000030E-03   2.14973325E-03
  -8.00000038E-03   2.17031012E-03
  -7.95000046E-03   2.19081156E-03
  -7.89999962E-03   2.21119402E-03
  -7.84999970E-03   2.23142467E-03
  -7.79999979E-03   2.25148839E-03
  -7.74999987E-03   2.27140030E-03
  -7.69999996E-03   2.29118369E-03
  -7.65000004E-03   2.31086323E-03
  -7.60000013E-03   2.33044731E-03
  -7.55000021E-03   2.34991778E-03
  -7.49999983E-03   2.36923527E-03
  -7.44999992E-03   2.38835509E-03
  -7.40000000E-03   2.40723300E-03
  -7.35000009E-03   2.42584338E-03
  -7.30000017E-03   2.44419486E-03
  -7.24999979E-03   2.46231048E-03
  -7.19999988E-03   2.48021749E-03
  -7.14999996E-03   2.49792822E-03
  -7.10000005E-03   2.51542754E-03
  -7.05000013E-03   2.53267586E-03
  -7.00000022E-03   2.54961336E-03
  -6.94999984E-03   2.56618951E-03
  -6.89999992E-03   2.58238148E-03
  -6.85000001E-03   2.59818323E-03
  -6.80000009E-03   2.61361874E-03
  -6.75000018E-03   2.62872176E-03
  -6.69999979E-03   2.64350697E-03
  -6.64999988E-03   2.65796320E-03
  -6.59999996E-03   2.67205108E-03
  -6.55000005E-03   2.68570450E-03
  -6.50000013E-03   2.69885827E-03
  -6.45000022E-03   2.71147909E-03
  -6.39999984E-03   2.72356789E-03
  -6.34999992E-03   2.73515983E-03
  -6.30000001E-03   2.74629286E-03
  -6.25000009E-03   2.75697536E-03
  -6.20000018E-03   2.76718405E-03
  -6.14999980E-03   2.77687656E-03
  -6.09999988E-03   2.78598373E-03
  -6.04999997E-03   2.79443385E-03
  -6.00000005E-03   2.80219014E-03
  -5.95000014E-03   2.80924933E-03
  -5.90000022E-03   2.81563564E-03
  -5.84999984E-03   2.82138702E-03
  -5.79999993E-03   2.82652490E-03
  -5.75000001E-03   2.83103599E-03
  -5.70000010E-03   2.83487514E-03
  -5.65000018E-03   2.83795944E-03
  -5.59999980E-03   2.84020463E-03
  -5.54999989E-03   2.84155528E-03
  -5.49999997E-03   2.84200395E-03
  -5.45000006E-03   2.84158089E-03
  -5.40000014E-03   2.84033269E-03
  -5.35000023E-03   2.83829798E-03
  -5.29999984E-03   2.83546629E-03
  -5.24999993E-03   2.83178268E-03
  -5.20000001E-03   2.82715890E-03
  -5.15000010E-03   2.82151019E-03
  -5.10000018E-03   2.81477813E-03
  -5.04999980E-03   2.80693732E-03
  -4.99999989E-03   2.79801222E-03
  -4.94999997E-03   2.78804428E-03
  -4.90000006E-03   2.77705886E-03
  -4.85000014E-03   2.76505528E-03
  -4.80000023E-03   2.75198976E-03
  -4.74999985E-03   2.73778103E-03
  -4.69999993E-03   2.72233225E-03
  -4.65000002E-03   2.70556123E-03
  -4.60000010E-03   2.68743280E-03
  -4.55000019E-03   2.66796048E-03
  -4.49999981E-03   2.64719594E-03
  -4.44999989E-03   2.62518856E-03
  -4.39999998E-03   2.60195066E-03
  -4.35000006E-03   2.57744570E-03
  -4.30000015E-03   2.55157985E-03
  -4.25000023E-03   2.52423133E-03
  -4.19999985E-03   2.49530538E-03
  -4.14999994E-03   2.46476452E-03
  -4.10000002E-03   2.43262760E-03
  -4.05000011E-03   2.39894842E-03
  -4.00000019E-03   2.36377306E-03
  -3.94999981E-03   2.32711202E-03
  -3.89999989E-03   2.28893850E-03
  -3.84999998E-03   2.24915612E-03
  -3.80000006E-03   2.20763916E-03
  -3.74999992E-03   2.16429005E-03
  -3.70000000E-03   2.11905199E-03
  -3.65000009E-03   2.07192590E-03
  -3.59999994E-03   2.02295161E-03
  -3.55000002E-03   1.97219127E-03
  -3.50000011E-03   1.91969005E-03
  -3.44999996E-03   1.86543155E-03
  -3.40000005E-03   1.80931785E-03
  -3.34999990E-03   1.75121648E-03
  -3.29999998E-03   1.69100543E-03
  -3.25000007E-03   1.62859145E-03
  -3.19999992E-03   1.56396662E-03
  -3.15000000E-03   1.49719382E-03
  -3.10000009E-03   1.42835395E-03
  -3.04999994E-03   1.35750463E-03
  -3.00000003E-03   1.28462759E-03
  -2.95000011E-03   1.20963040E-03
  -2.89999996E-03   1.13237719E-03
  -2.85000005E-03   1.05272757E-03
  -2.79999990E-03   9.70582769E-04
  -2.74999999E-03   8.85922927E-04
  -2.70000007E-03   7.98805209E-04
  -2.64999992E-03   7.09315587E-04
  -2.60000001E-03   6.17510348E-04
  -2.55000009E-03   5.23393916E-04
  -2.49999994E-03   4.26890794E-04
  -2.45000003E-03   3.27864022E-04
  -2.40000011E-03   2.26154370E-04
  -2.34999997E-03   1.21639590E-04
  -2.30000005E-03   1.42829895E-05
  -2.24999990E-03  -9.58749297E-05
  -2.19999999E-03  -2.08735641E-04
  -2.15000007E-03  -3.24212160E-04
  -2.09999993E-03  -4.42271237E-04
  -2.05000001E-03  -5.62969828E-04
  -2.00000009E-03  -6.86451735E-04
  -1.94999995E-03  -8.12888669E-04
  -1.90000003E-03  -9.42415441E-04
  -1.85000000E-03  -1.07509352E-03
  -1.79999997E-03  -1.21089804E-03
  -1.75000005E-03  -1.34972774E-03
  -1.70000002E-03  -1.49148144E-03
  -1.64999999E-03  -1.63610023E-03
  -1.59999996E-03  -1.78361626E-03
  -1.55000004E-03  -1.93417154E-03
  -1.50000001E-03  -2.08793906E-03
  -1.44999998E-03  -2.24506902E-03
  -1.39999995E-03  -2.40564230E-03
  -1.35000004E-03  -2.56965589E-03
  -1.30000000E-03  -2.73702247E-03
  -1.24999997E-03  -2.90762144E-03
  -1.20000006E-03  -3.08136572E-03
  -1.15000003E-03  -3.25825205E-03
  -1.09999999E-03  -3.43839102E-03
  -1.04999996E-03  -3.62196565E-03
  -1.00000005E-03  -3.80915799E-03
  -9.50000016E-04  -4.00007796E-03
  -8.99999985E-04  -4.19472810E-03
  -8.50000011E-04  -4.39301506E-03
  -7.99999980E-04  -4.59481543E-03
  -7.50000007E-04  -4.80002817E-03
  -6.99999975E-04  -5.00862161E-03
  -6.50000002E-04  -5.22066886E-03
  -6.00000028E-04  -5.43633802E-03
  -5.49999997E-04  -5.65581722E-03
  -5.00000024E-04  -5.87924104E-03
  -4.49999992E-04  -6.10664161E-03
  -3.99999990E-04  -6.33795606E-03
  -3.49999988E-04  -6.57305773E-03
  -3.00000014E-04  -6.81179762E-03
  -2.50000012E-04  -7.05411751E-03
  -1.99999995E-04  -7.30007142E-03
  -1.50000007E-04  -7.54977949E-03
  -9.99999975E-05  -7.80342286E-03
  -4.99999987E-05  -8.06117430E-03
   0.00000000      -8.32311530E-03
   4.99999987E-05  -8.58920254E-03
   9.99999975E-05  -8.85931682E-03
   1.50000007E-04  -9.13329422E-03
   1.99999995E-04  -9.41099972E-03
   2.50000012E-04  -9.69243515E-03
   3.00000014E-04  -9.97771602E-03
   3.49999988E-04  -1.02670295E-02
   3.99999990E-04  -1.05605554E-02
   4.49999992E-04  -1.08584026E-02
   5.00000024E-04  -1.11605581E-02
   5.49999997E-04  -1.14668962E-02
   6.00000028E-04  -1.17772380E-02
   6.50000002E-04  -1.20914206E-02
   6.99999975E-04  -1.24093750E-02
   7.50000007E-04  -1.27311535E-02
   7.99999980E-04  -1.30569274E-02
   8.50000011E-04  -1.33869201E-02
   8.99999985E-04  -1.37212900E-02
   9.50000016E-04  -1.40600791E-02
   1.00000005E-03  -1.44031849E-02
   1.04999996E-03  -1.47504155E-02
   1.09999999E-03  -1.51015595E-02
   1.15000003E-03  -1.54564725E-02
   1.20000006E-03  -1.58151388E-02
   1.24999997E-03  -1.61777083E-02
   1.30000000E-03  -1.65444184E-02
   1.35000004E-03  -1.69154610E-02
   1.39999995E-03  -1.72909368E-02
   1.44999998E-03  -1.76707469E-02
   1.50000001E-03  -1.80546585E-02
   1.55000004E-03  -1.84424464E-02
   1.59999996E-03  -1.88339353E-02
   1.64999999E-03  -1.92290563E-02
   1.70000002E-03  -1.96279027E-02
   1.75000005E-03  -2.00306624E-02
   1.79999997E-03  -2.04375610E-02
   1.85000000E-03  -2.08487455E-02
   1.90000003E-03  -2.12641843E-02
   1.94999995E-03  -2.16836836E-02
   2.00000009E-03  -2.21069567E-02
   2.05000001E-03  -2.25337557E-02
   2.09999993E-03  -2.29639653E-02
   2.15000007E-03  -2.33976152E-02
   2.19999999E-03  -2.38348395E-02
   2.24999990E-03  -2.42758859E-02
   2.30000005E-03  -2.47209575E-02
   2.34999997E-03  -2.51701102E-02
   2.40000011E-03  -2.56231967E-02
   2.45000003E-03  -2.60798894E-02
   2.49999994E-03  -2.65398156E-02
   2.55000009E-03  -2.70027351E-02
   2.60000001E-03  -2.74686459E-02
   2.64999992E-03  -2.79377140E-02
   2.70000007E-03  -2.84101926E-02
   2.74999999E-03  -2.88863461E-02
   2.79999990E-03  -2.93662343E-02