  -3.99999991E-02   0.00000000    
  -3.99499983E-02   0.00000000    
  -3.99000011E-02   0.00000000    
  -3.98500003E-02   0.00000000    
  -3.97999994E-02   7.46067540E-20
  -3.97499986E-02   6.59075282E-19
  -3.97000015E-02   2.94749082E-18
  -3.96500006E-02   8.77520426E-18
  -3.95999998E-02   1.90468676E-17
  -3.95499989E-02   3.03857420E-17
  -3.95000018E-02   3.14134179E-17
  -3.94500010E-02   2.03620785E-18
  -3.94000001E-02  -8.04691954E-17
  -3.93499993E-02  -2.27494997E-16
  -3.92999984E-02  -4.21896788E-16
  -3.92500013E-02  -6.08081776E-16
  -3.92000005E-02  -7.01364244E-16
  -3.91499996E-02  -6.21703866E-16
  -3.90999988E-02  -3.42417489E-16
  -3.90500017E-02   7.07793767E-17
  -3.90000008E-02   4.60118673E-16
  -3.89500000E-02   6.32066361E-16
  -3.88999991E-02   4.56665055E-16
  -3.88499983E-02  -3.45865886E-17
  -3.88000011E-02  -6.10747919E-16
  -3.87500003E-02  -9.04056582E-16
  -3.86999995E-02  -5.66856471E-16
  -3.86499986E-02   5.39522771E-16
  -3.86000015E-02   2.22150378E-15
  -3.85500006E-02   3.98253250E-15
  -3.84999998E-02   5.22943784E-15
  -3.84499989E-02   5.58757947E-15
  -3.84000018E-02   5.17731482E-15
  -3.83500010E-02   4.68784837E-15
  -3.83000001E-02   5.15693479E-15
  -3.82499993E-02   7.50668973E-15
  -3.81999984E-02   1.20313771E-14
  -3.81500013E-02   1.81001776E-14
  -3.81000005E-02   2.42738094E-14
  -3.80499996E-02   2.88512940E-14
  -3.79999988E-02   3.06416235E-14
  -3.79500017E-02   2.96056684E-14
  -3.79000008E-02   2.70235985E-14
  -3.78500000E-02   2.50303792E-14
  -3.77999991E-02   2.56579697E-14
  -3.77499983E-02   2.97933336E-14
  -3.77000012E-02   3.65629598E-14
  -3.76500003E-02   4.35077016E-14
  -3.75999995E-02   4.75562718E-14
  -3.75499986E-02   4.64014101E-14
  -3.75000015E-02   3.96375573E-14
  -3.74500006E-02   2.90790917E-14
  -3.73999998E-02   1.80381985E-14
  -3.73499990E-02   9.83671728E-15
  -3.73000018E-02   6.21462610E-15
  -3.72500010E-02   6.38026593E-15
  -3.72000001E-02   7.17345173E-15
  -3.71499993E-02   4.30162125E-15
  -3.70999984E-02  -5.89827031E-15
  -3.70500013E-02  -2.49706312E-14
  -3.70000005E-02  -5.17864018E-14
  -3.69499996E-02  -8.31183063E-14
  -3.68999988E-02  -1.14989859E-13
  -3.68500017E-02  -1.44104726E-13
  -3.68000008E-02  -1.68719287E-13
  -3.67500000E-02  -1.88720391E-13
  -3.66999991E-02  -2.05146027E-13
  -3.66499983E-02  -2.19634844E-13
  -3.66000012E-02  -2.34159724E-13
  -3.65500003E-02  -2.51002127E-13
  -3.64999995E-02  -2.72559780E-13
  -3.64499986E-02  -3.00553988E-13
  -3.64000015E-02  -3.34621626E-13
  -3.63500006E-02  -3.70936409E-13
  -3.62999998E-02  -4.01969067E-13
  -3.62499990E-02  -4.18320679E-13
  -3.62000018E-02  -4.12603003E-13
  -3.61500010E-02  -3.83941712E-13
  -3.61000001E-02  -3.40629895E-13
  -3.60499993E-02  -2.98594130E-13
  -3.59999985E-02  -2.75005957E-13
  -3.59500013E-02  -2.79045043E-13
  -3.59000005E-02  -3.04165710E-13
  -3.58499996E-02  -3.26728689E-13
  -3.57999988E-02  -3.13702786E-13
  -3.57500017E-02  -2.37812266E-13
  -3.57000008E-02  -9.39006631E-14
  -3.56500000E-02   9.21030830E-14
  -3.55999991E-02   2.68491148E-13
  -3.55499983E-02   3.78260493E-13
  -3.55000012E-02   3.87703270E-13
  -3.54500003E-02   3.09898130E-13
  -3.53999995E-02   2.09385677E-13
  -3.53499986E-02   1.81048332E-13
  -3.53000015E-02   3.08222740E-13
  -3.52500007E-02   6.17110692E-13
  -3.51999998E-02   1.05022273E-12
  -3.51499990E-02   1.47656529E-12
  -3.51000018E-02   1.74101315E-12
  -3.50500010E-02   1.73571422E-12
  -3.50000001E-02   1.46175823E-12
  -3.49499993E-02   1.04816611E-12
  -3.48999985E-02   7.10703089E-13
  -3.48500013E-02   6.60230551E-13
  -3.48000005E-02   9.97532352E-13
  -3.47499996E-02   1.64491402E-12
  -3.46999988E-02   2.35508531E-12
  -3.46500017E-02   2.80587728E-12
  -3.46000008E-02   2.74767513E-12
  -3.45500000E-02   2.13859312E-12
  -3.44999991E-02   1.19804221E-12
  -3.44499983E-02   3.39083145E-13
  -3.44000012E-02  -5.76840660E-15
  -3.43500003E-02   4.04738634E-13
  -3.42999995E-02   1.47227987E-12
  -3.42499986E-02   2.75596538E-12
  -3.42000015E-02   3.63786995E-12
  -3.41500007E-02   3.60016422E-12
  -3.40999998E-02   2.49331740E-12
  -3.40499990E-02   6.61836525E-13
  -3.40000018E-02  -1.15463672E-12
  -3.39500010E-02  -2.12774438E-12
  -3.39000002E-02  -1.73252461E-12
  -3.38499993E-02  -4.44209421E-14
  -3.37999985E-02   2.21738968E-12
  -3.37500013E-02   3.95564310E-12
  -3.37000005E-02   4.18064671E-12
  -3.36499996E-02   2.50738796E-12
  -3.35999988E-02  -5.77319117E-13
  -3.35500017E-02  -3.83783456E-12
  -3.35000008E-02  -5.79294165E-12
  -3.34500000E-02  -5.40261499E-12
  -3.33999991E-02  -2.62740827E-12
  -3.33499983E-02   1.42703742E-12
  -3.33000012E-02   4.90138399E-12
  -3.32500003E-02   5.98530383E-12
  -3.31999995E-02   3.79240563E-12
  -3.31499986E-02  -1.10683966E-12
  -3.31000015E-02  -6.79132531E-12
  -3.30500007E-02  -1.07571304E-11
  -3.29999998E-02  -1.10522910E-11
  -3.29499990E-02  -7.27340887E-12
  -3.29000019E-02  -9.29093824E-13
  -3.28500010E-02   5.07439360E-12
  -3.28000002E-02   7.67384507E-12
  -3.27499993E-02   5.09843123E-12
  -3.26999985E-02  -2.14610101E-12
  -3.26500013E-02  -1.12803092E-11
  -3.26000005E-02  -1.83435819E-11
  -3.25499997E-02  -1.99661364E-11
  -3.24999988E-02  -1.50415774E-11
  -3.24500017E-02  -5.48856230E-12
  -3.24000008E-02   4.35584034E-12
  -3.23500000E-02   9.55935244E-12
  -3.22999991E-02   6.88482951E-12
  -3.22499983E-02  -3.49974216E-12
  -3.22000012E-02  -1.77648243E-11
  -3.21500003E-02  -2.98805251E-11
  -3.20999995E-02  -3.42647924E-11
  -3.20499986E-02  -2.84703996E-11
  -3.20000015E-02  -1.46347604E-11
  -3.19500007E-02   1.11422091E-12
  -3.18999998E-02   1.12045867E-11
  -3.18499990E-02   1.00892081E-11
  -3.18000019E-02  -2.92682957E-12
  -3.17500010E-02  -2.29025045E-11
  -3.17000002E-02  -4.10788868E-11
  -3.16499993E-02  -4.86715182E-11
  -3.15999985E-02  -4.10164021E-11
  -3.15500014E-02  -2.01372530E-11
  -3.15000005E-02   5.62027031E-12
  -3.14499997E-02   2.49703626E-11
  -3.13999988E-02   2.87474367E-11
  -3.13500017E-02   1.43988207E-11
  -3.13000008E-02  -1.22589040E-11
  -3.12500000E-02  -3.90781366E-11
  -3.11999992E-02  -5.27676410E-11
  -3.11500002E-02  -4.50438888E-11
  -3.10999993E-02  -1.69273085E-11
  -3.10500003E-02   2.09899355E-11
  -3.09999995E-02   5.27546548E-11
  -3.09500005E-02   6.41177805E-11
  -3.08999997E-02   4.93569179E-11
  -3.08500007E-02   1.46291954E-11
  -3.07999998E-02  -2.39928112E-11
  -3.07500008E-02  -4.72921563E-11
  -3.07000000E-02  -4.16767905E-11
  -3.06499992E-02  -5.98433325E-12
  -3.06000002E-02   4.70190033E-11
  -3.05499993E-02   9.55483678E-11
  -3.05000003E-02   1.18297899E-10
  -3.04499995E-02   1.04418182E-10
  -3.04000005E-02   5.93380553E-11
  -3.03499997E-02   3.40279931E-12
  -3.03000007E-02  -3.65558313E-11
  -3.02499998E-02  -3.92852730E-11
  -3.02000009E-02   5.65441465E-13
  -3.01500000E-02   6.88128027E-11
  -3.00999992E-02   1.36964190E-10
  -3.00500002E-02   1.74483344E-10
  -2.99999993E-02   1.62862945E-10
  -2.99500003E-02   1.05066018E-10
  -2.98999995E-02   2.56159226E-11
  -2.98500005E-02  -3.93455477E-11
  -2.97999997E-02  -5.80824312E-11
  -2.97500007E-02  -1.83214745E-11
  -2.96999998E-02   6.57287419E-11
  -2.96500009E-02   1.58194416E-10
  -2.96000000E-02   2.16730689E-10
  -2.95499992E-02   2.11714174E-10
  -2.95000002E-02   1.40781720E-10
  -2.94499993E-02   3.16686122E-11
  -2.94000003E-02  -6.87184268E-11
  -2.93499995E-02  -1.14799066E-10
  -2.93000005E-02  -8.34888478E-11
  -2.92499997E-02   1.37268885E-11
  -2.92000007E-02   1.33971348E-10
  -2.91499998E-02   2.20874916E-10
  -2.91000009E-02   2.29809366E-10
  -2.90500000E-02   1.49226756E-10
  -2.89999992E-02   7.99634404E-12
  -2.89500002E-02  -1.35494699E-10
  -2.88999993E-02  -2.18528404E-10
  -2.88500004E-02  -2.02741532E-10
  -2.87999995E-02  -9.32666167E-11
  -2.87500005E-02   6.10681089E-11
  -2.86999997E-02   1.87675486E-10
  -2.86500007E-02   2.22252036E-10
  -2.85999998E-02   1.38846393E-10
  -2.85500009E-02  -3.60187991E-11
  -2.85000000E-02  -2.32582634E-10
  -2.84499992E-02  -3.67500974E-10
  -2.84000002E-02  -3.81408405E-10
  -2.83499993E-02  -2.67535161E-10
  -2.83000004E-02  -7.77141129E-11
  -2.82499995E-02   9.82311732E-11
  -2.82000005E-02   1.71698197E-10
  -2.81499997E-02   9.61032504E-11
  -2.81000007E-02  -1.09397935E-10
  -2.80499998E-02  -3.65085462E-10
  -2.80000009E-02  -5.63920965E-10
  -2.79500000E-02  -6.19101104E-10
  -2.78999992E-02  -5.04859154E-10
  -2.78500002E-02  -2.71444978E-10
  -2.77999993E-02  -2.60630146E-11
  -2.77500004E-02   1.13269186E-10
  -2.76999995E-02   7.12054998E-11
  -2.76500005E-02  -1.48216286E-10
  -2.75999997E-02  -4.59296795E-10
  -2.75500007E-02  -7.29622418E-10
  -2.74999999E-02  -8.38128789E-10
  -2.74500009E-02  -7.30883853E-10
  -2.74000000E-02  -4.48970666E-10
  -2.73499992E-02  -1.14339725E-10
  -2.73000002E-02   1.21981147E-10
  -2.72499993E-02   1.47506340E-10
  -2.72000004E-02  -5.83690388E-11
  -2.71499995E-02  -4.10363743E-10
  -2.71000005E-02  -7.50941698E-10
  -2.70499997E-02  -9.18534082E-10
  -2.70000007E-02  -8.20893409E-10
  -2.69499999E-02  -4.80374185E-10
  -2.69000009E-02  -2.91630019E-11
  -2.68500000E-02   3.45734330E-10
  -2.67999992E-02   4.85048612E-10
  -2.67500002E-02   3.31028954E-10
  -2.66999993E-02  -4.15590583E-11
  -2.66500004E-02  -4.53317467E-10
  -2.65999995E-02  -6.97010338E-10
  -2.65500005E-02  -6.30570540E-10
  -2.64999997E-02  -2.44745640E-10
  -2.64500007E-02   3.26547706E-10
  -2.63999999E-02   8.60472638E-10
  -2.63500009E-02   1.14238596E-09
  -2.63000000E-02   1.06360865E-09
  -2.62499992E-02   6.75446976E-10
  -2.62000002E-02   1.72959105E-10
  -2.61499994E-02  -1.87301008E-10
  -2.61000004E-02  -2.01148098E-10
  -2.60499995E-02   1.88051852E-10
  -2.60000005E-02   8.56905713E-10
  -2.59499997E-02   1.54971735E-09
  -2.59000007E-02   1.98827510E-09
  -2.58499999E-02   1.99661798E-09
  -2.58000009E-02   1.58486024E-09
  -2.57500000E-02   9.52308232E-10
  -2.56999992E-02   4.04985823E-10
  -2.56500002E-02   2.21276511E-10
  -2.55999994E-02   5.24344734E-10
  -2.55500004E-02   1.21942567E-09
  -2.54999995E-02   2.02714334E-09
  -2.54500005E-02   2.60183253E-09
  -2.53999997E-02   2.68487543E-09
  -2.53500007E-02   2.22510455E-09
  -2.52999999E-02   1.41039669E-09
  -2.52500009E-02   5.92451144E-10
  -2.52000000E-02   1.34343800E-10
  -2.51499992E-02   2.46631687E-10
  -2.51000002E-02   8.85673923E-10
  -2.50499994E-02   1.76272508E-09
  -2.50000004E-02   2.46424081E-09
  -2.49499995E-02   2.63354938E-09
  -2.49000005E-02   2.13425877E-09
  -2.48499997E-02   1.12078369E-09
  -2.48000007E-02  -1.96456670E-11
  -2.47499999E-02  -8.32483693E-10
  -2.47000009E-02  -9.98407801E-10
  -2.46500000E-02  -4.82853924E-10
  -2.45999992E-02   4.37145181E-10
  -2.45500002E-02   1.28585942E-09
  -2.44999994E-02   1.59606728E-09
  -2.44500004E-02   1.12072207E-09
  -2.43999995E-02  -4.63546874E-11
  -2.43500005E-02  -1.49886914E-09
  -2.42999997E-02  -2.68860911E-09
  -2.42500007E-02  -3.16674820E-09
  -2.41999999E-02  -2.78972956E-09
  -2.41500009E-02  -1.79540549E-09
  -2.41000000E-02  -7.09996395E-10
  -2.40499992E-02  -1.21291657E-10
  -2.40000002E-02  -4.15267626E-10
  -2.39499994E-02  -1.59357405E-09
  -2.39000004E-02  -3.25736993E-09
  -2.38499995E-02  -4.77118611E-09
  -2.38000005E-02  -5.53977042E-09
  -2.37499997E-02  -5.27732213E-09
  -2.37000007E-02  -4.14734780E-09
  -2.36499999E-02  -2.70514100E-09
  -2.36000009E-02  -1.66137204E-09
  -2.35500000E-02  -1.56669466E-09
  -2.34999992E-02  -2.55667798E-09
  -2.34500002E-02  -4.27438396E-09
  -2.33999994E-02  -6.01216144E-09
  -2.33500004E-02  -7.01687286E-09
  -2.32999995E-02  -6.82698120E-09
  -2.32500006E-02  -5.49065726E-09
  -2.31999997E-02  -3.56217833E-09
  -2.31500007E-02  -1.87010429E-09
  -2.30999999E-02  -1.15342680E-09
  -2.30500009E-02  -1.72495096E-09
  -2.30000000E-02  -3.31469341E-09
  -2.29499992E-02  -5.17043386E-09
  -2.29000002E-02  -6.37937081E-09
  -2.28499994E-02  -6.27378638E-09
  -2.28000004E-02  -4.74082906E-09
  -2.27499995E-02  -2.29329133E-09
  -2.27000006E-02   1.39050174E-10
  -2.26499997E-02   1.61338787E-09
  -2.26000007E-02   1.59790436E-09
  -2.25499999E-02   2.25392677E-10
  -2.25000009E-02  -1.74387249E-09
  -2.24500000E-02  -3.24347171E-09
  -2.23999992E-02  -3.37145445E-09
  -2.23500002E-02  -1.80326942E-09
  -2.22999994E-02   1.04111819E-09
  -2.22500004E-02   4.15974633E-09
  -2.21999995E-02   6.39888542E-09
  -2.21500006E-02   6.96621028E-09
  -2.20999997E-02   5.79845238E-09
  -2.20500007E-02   3.61287245E-09
  -2.19999999E-02   1.60869063E-09
  -2.19500009E-02   9.41266287E-10
  -2.19000001E-02   2.19841345E-09
  -2.18499992E-02   5.11496578E-09
  -2.18000002E-02   8.66217764E-09
  -2.17499994E-02   1.14840777E-08
  -2.17000004E-02   1.24955974E-08
  -2.16499995E-02   1.13782201E-08
  -2.16000006E-02   8.74647466E-09
  -2.15499997E-02   5.89952931E-09
  -2.15000007E-02   4.25642632E-09
  -2.14499999E-02   4.71922856E-09
  -2.14000009E-02   7.24875138E-09
  -2.13500001E-02   1.08508349E-08
  -2.12999992E-02   1.39923779E-08
  -2.12500002E-02   1.52732724E-08
  -2.11999994E-02   1.40595660E-08
  -2.11500004E-02   1.07913607E-08
  -2.10999995E-02   6.81664014E-09
  -2.10500006E-02   3.81120024E-09
  -2.09999997E-02   3.03330250E-09
  -2.09500007E-02   4.74376138E-09
  -2.08999999E-02   8.05781486E-09
  -2.08500009E-02   1.13086678E-08
  -2.08000001E-02   1.27744304E-08
  -2.07499992E-02   1.14519478E-08
  -2.07000002E-02   7.53037632E-09
  -2.06499994E-02   2.34223907E-09
  -2.06000004E-02  -2.20148832E-09
  -2.05499995E-02  -4.45306769E-09
  -2.05000006E-02  -3.77550302E-09
  -2.04499997E-02  -8.56483162E-10
  -2.04000007E-02   2.56518540E-09
  -2.03499999E-02   4.45441684E-09
  -2.03000009E-02   3.38986772E-09
  -2.02500001E-02  -7.76198716E-10
  -2.01999992E-02  -6.81243506E-09
  -2.01500002E-02  -1.26204727E-08
  -2.00999994E-02  -1.61513416E-08
  -2.00500004E-02  -1.63249876E-08
  -1.99999996E-02  -1.35390206E-08
  -1.99500006E-02  -9.52636459E-09
  -1.98999997E-02  -6.60801502E-09
  -1.98500007E-02  -6.66071731E-09
  -1.97999999E-02  -1.02565023E-08
  -1.97500009E-02  -1.63659770E-08
  -1.97000001E-02  -2.27740298E-08
  -1.96499992E-02  -2.70398868E-08
  -1.96000002E-02  -2.75839955E-08
  -1.95499994E-02  -2.44160727E-08
  -1.95000004E-02  -1.91673699E-08
  -1.94499996E-02  -1.43946277E-08
  -1.94000006E-02  -1.24500810E-08
  -1.93499997E-02  -1.44147494E-08
  -1.93000007E-02  -1.95764969E-08
  -1.92499999E-02  -2.57015120E-08
  -1.92000009E-02  -2.99971212E-08
  -1.91500001E-02  -3.03502290E-08
  -1.90999992E-02  -2.62912341E-08
  -1.90500002E-02  -1.92432559E-08
  -1.89999994E-02  -1.19268764E-08
  -1.89500004E-02  -7.16750925E-09
  -1.88999996E-02  -6.62716770E-09
  -1.88500006E-02  -1.00290398E-08
  -1.87999997E-02  -1.52352992E-08
  -1.87500007E-02  -1.91636289E-08
  -1.86999999E-02  -1.91503453E-08
  -1.86500009E-02  -1.41578953E-08
  -1.86000001E-02  -5.28048361E-09
  -1.85499992E-02   4.69578998E-09
  -1.85000002E-02   1.25024533E-08
  -1.84499994E-02   1.58417937E-08
  -1.84000004E-02   1.44363028E-08
  -1.83499996E-02   1.01936557E-08
  -1.83000006E-02   6.39317976E-09
  -1.82499997E-02   6.23748564E-09
  -1.82000007E-02   1.14058034E-08
  -1.81499999E-02   2.12588969E-08
  -1.81000009E-02   3.30670815E-08
  -1.80500001E-02   4.31812488E-08
  -1.79999992E-02   4.86412937E-08
  -1.79500002E-02   4.85091682E-08
  -1.78999994E-02   4.43221388E-08
  -1.78500004E-02   3.94439397E-08
  -1.77999996E-02   3.75821614E-08
  -1.77500006E-02   4.11200780E-08
  -1.76999997E-02   5.00077348E-08
  -1.76500008E-02   6.17219555E-08
  -1.75999999E-02   7.23349913E-08
  -1.75500009E-02   7.82347271E-08
  -1.75000001E-02   7.77372833E-08
  -1.74499992E-02   7.18665305E-08
  -1.74000002E-02   6.39341167E-08
  -1.73499994E-02   5.80846056E-08
  -1.73000004E-02   5.74384558E-08
  -1.72499996E-02   6.26582306E-08
  -1.72000006E-02   7.15896320E-08
  -1.71499997E-02   8.01589906E-08
  -1.71000008E-02   8.41490646E-08
  -1.70499999E-02   8.10728835E-08
  -1.70000009E-02   7.13073618E-08
  -1.69500001E-02   5.79639838E-08
  -1.68999992E-02   4.55316069E-08
  -1.68500002E-02   3.78776477E-08
  -1.67999994E-02   3.64912474E-08
  -1.67500004E-02   3.97615736E-08
  -1.66999996E-02   4.36335519E-08
  -1.66500006E-02   4.33713794E-08
  -1.65999997E-02   3.56594576E-08
  -1.65500008E-02   2.01044585E-08
  -1.64999999E-02  -5.45640200E-10
  -1.64500009E-02  -2.15854143E-08
  -1.64000001E-02  -3.84326064E-08
  -1.63499992E-02  -4.86890706E-08
  -1.63000003E-02  -5.32563966E-08
  -1.62499994E-02  -5.59913751E-08
  -1.62000004E-02  -6.20314324E-08
  -1.61499996E-02  -7.55161480E-08
  -1.61000006E-02  -9.77173826E-08
  -1.60499997E-02  -1.26422634E-07
  -1.60000008E-02  -1.56867983E-07
  -1.59499999E-02  -1.83827567E-07
  -1.59000009E-02  -2.03942037E-07
  -1.58500001E-02  -2.17247205E-07
  -1.57999992E-02  -2.27205348E-07
  -1.57500003E-02  -2.39201967E-07
  -1.56999994E-02  -2.58155836E-07
  -1.56500004E-02  -2.86301201E-07
  -1.55999996E-02  -3.22137538E-07
  -1.55499997E-02  -3.61033699E-07
  -1.54999997E-02  -3.97243269E-07
  -1.54499998E-02  -4.26448366E-07
  -1.53999999E-02  -4.47701865E-07
  -1.53500000E-02  -4.63887517E-07
  -1.53000001E-02  -4.80472011E-07
  -1.52500002E-02  -5.03081992E-07
  -1.52000003E-02  -5.34973765E-07
  -1.51500003E-02  -5.75527849E-07
  -1.51000004E-02  -6.20457058E-07
  -1.50499996E-02  -6.63659193E-07
  -1.49999997E-02  -6.99906593E-07
  -1.49499997E-02  -7.27183590E-07
  -1.48999998E-02  -7.47616866E-07
  -1.48499999E-02  -7.66565734E-07
  -1.48000000E-02  -7.90253125E-07
  -1.47500001E-02  -8.22977881E-07
  -1.47000002E-02  -8.65152231E-07
  -1.46500003E-02  -9.13051906E-07
  -1.46000003E-02  -9.60417651E-07
  -1.45500004E-02  -1.00121110E-06
  -1.44999996E-02  -1.03230855E-06
  -1.44499997E-02  -1.05492870E-06
  -1.43999998E-02  -1.07413155E-06
  -1.43499998E-02  -1.09659538E-06
  -1.42999999E-02  -1.12764337E-06
  -1.42500000E-02  -1.16884269E-06
  -1.42000001E-02  -1.21725213E-06
  -1.41500002E-02  -1.26667760E-06
  -1.41000003E-02  -1.31040792E-06
  -1.40500003E-02  -1.34420816E-06
  -1.40000004E-02  -1.36824451E-06
  -1.39499996E-02  -1.38706321E-06
  -1.38999997E-02  -1.40761381E-06
  -1.38499998E-02  -1.43617444E-06
  -1.37999998E-02  -1.47554204E-06
  -1.37499999E-02  -1.52375162E-06
  -1.37000000E-02  -1.57491081E-06
  -1.36500001E-02  -1.62180743E-06
  -1.36000002E-02  -1.65913809E-06
  -1.35500003E-02  -1.68591544E-06
  -1.35000004E-02  -1.70597116E-06
  -1.34500004E-02  -1.72631837E-06
  -1.33999996E-02  -1.75406547E-06
  -1.33499997E-02  -1.79325821E-06
  -1.32999998E-02  -1.84306919E-06
  -1.32499998E-02  -1.89813966E-06
  -1.31999999E-02  -1.95095890E-06
  -1.31500000E-02  -1.99523447E-06
  -1.31000001E-02  -2.02874958E-06
  -1.30500002E-02  -2.05442302E-06
  -1.30000003E-02  -2.07908715E-06
  -1.29500004E-02  -2.11050519E-06
  -1.29000004E-02  -2.15393698E-06
  -1.28499996E-02  -2.20979928E-06
  -1.27999997E-02  -2.27347255E-06
  -1.27499998E-02  -2.33735545E-06
  -1.26999998E-02  -2.39427777E-06
  -1.26499999E-02  -2.44075250E-06
  -1.26000000E-02  -2.47861362E-06
  -1.25500001E-02  -2.51428401E-06
  -1.25000002E-02  -2.55597797E-06
  -1.24500003E-02  -2.61008495E-06
  -1.24000004E-02  -2.67834753E-06
  -1.23500004E-02  -2.75707384E-06
  -1.22999996E-02  -2.83878899E-06
  -1.22499997E-02  -2.91560332E-06
  -1.21999998E-02  -2.98277041E-06
  -1.21499998E-02  -3.04087439E-06
  -1.20999999E-02  -3.09565348E-06
  -1.20500000E-02  -3.15551688E-06
  -1.20000001E-02  -3.22784695E-06
  -1.19500002E-02  -3.31571596E-06
  -1.19000003E-02  -3.41652162E-06
  -1.18500004E-02  -3.52315897E-06
  -1.18000004E-02  -3.62720016E-06
  -1.17499996E-02  -3.72270551E-06
  -1.16999997E-02  -3.80893721E-06
  -1.16499998E-02  -3.89075785E-06
  -1.15999999E-02  -3.97654003E-06
  -1.15499999E-02  -4.07448715E-06
  -1.15000000E-02  -4.18899208E-06
  -1.14500001E-02  -4.31866602E-06
  -1.14000002E-02  -4.45696287E-06
  -1.13500003E-02  -4.59511375E-06
  -1.13000004E-02  -4.72606553E-06
  -1.12500004E-02  -4.84767543E-06
  -1.11999996E-02  -4.96374560E-06
  -1.11499997E-02  -5.08236644E-06
  -1.10999998E-02  -5.21236097E-06
  -1.10499999E-02  -5.35938443E-06
  -1.09999999E-02  -5.52337815E-06
  -1.09500000E-02  -5.69861277E-06
  -1.09000001E-02  -5.87624345E-06
  -1.08500002E-02  -6.04830620E-06
  -1.08000003E-02  -6.21132222E-06
  -1.07500004E-02  -6.36787763E-06
  -1.07000005E-02  -6.52555082E-06
  -1.06499996E-02  -6.69359315E-06
  -1.05999997E-02  -6.87879901E-06
  -1.05499998E-02  -7.08246489E-06
  -1.04999999E-02  -7.29983276E-06
  -1.04499999E-02  -7.52223559E-06
  -1.04000000E-02  -7.74096043E-06
  -1.03500001E-02  -7.95120468E-06
  -1.03000002E-02  -8.15428484E-06
  -1.02500003E-02  -8.35707397E-06
  -1.02000004E-02  -8.56900806E-06
  -1.01500005E-02  -8.79792060E-06
  -1.00999996E-02  -9.04653461E-06
  -1.00499997E-02  -9.31124850E-06
  -9.99999978E-03  -9.58381224E-06
  -9.94999986E-03  -9.85504266E-06
  -9.89999995E-03  -1.01189435E-05
  -9.85000003E-03  -1.03754837E-05
  -9.80000012E-03  -1.06307170E-05
  -9.75000020E-03  -1.08940949E-05
  -9.70000029E-03  -1.11743293E-05
  -9.65000037E-03  -1.14755403E-05
  -9.60000046E-03  -1.17954487E-05
  -9.54999961E-03  -1.21264402E-05
  -9.49999969E-03  -1.24590297E-05
  -9.44999978E-03  -1.27862004E-05
  -9.39999986E-03  -1.31066272E-05
  -9.34999995E-03  -1.34253087E-05
  -9.30000003E-03  -1.37514462E-05
  -9.25000012E-03  -1.40943894E-05
  -9.20000020E-03  -1.44595160E-05
  -9.15000029E-03  -1.48458967E-05
  -9.10000037E-03  -1.52467674E-05
  -9.05000046E-03  -1.56526676E-05
  -8.99999961E-03  -1.60557138E-05
  -8.94999970E-03  -1.64532594E-05
  -8.89999978E-03  -1.68492261E-05
  -8.84999987E-03  -1.72523924E-05
  -8.79999995E-03  -1.76725734E-05
  -8.75000004E-03  -1.81163650E-05
  -8.70000012E-03  -1.85842637E-05
  -8.65000021E-03  -1.90705723E-05
  -8.60000029E-03  -1.95659995E-05
  -8.55000038E-03  -2.00619943E-05
  -8.50000046E-03  -2.05547003E-05
  -8.44999962E-03  -2.10467661E-05
  -8.39999970E-03  -2.15463169E-05
  -8.34999979E-03  -2.20634975E-05
  -8.29999987E-03  -2.26060256E-05
  -8.24999996E-03  -2.31757476E-05
  -8.20000004E-03  -2.37680160E-05
  -8.15000013E-03  -2.43739287E-05
  -8.10000021E-03  -2.49843542E-05
  -8.05000030E-03  -2.55942086E-05
  -8.00000038E-03  -2.62048779E-05
  -7.95000046E-03  -2.68236945E-05
  -7.89999962E-03  -2.74607628E-05
  -7.84999970E-03  -2.81246121E-05
  -7.79999979E-03  -2.88185711E-05
  -7.74999987E-03  -2.95392820E-05
  -7.69999996E-03  -3.02783628E-05
  -7.65000004E-03  -3.10263604E-05
  -7.60000013E-03  -3.17771519E-05
  -7.55000021E-03  -3.25308065E-05
  -7.49999983E-03  -3.32936252E-05
  -7.44999992E-03  -3.40755541E-05
  -7.40000000E-03  -3.48859321E-05
  -7.35000009E-03  -3.57293611E-05
  -7.30000017E-03  -3.66036656E-05
  -7.24999979E-03  -3.75011477E-05
  -7.19999988E-03  -3.84123159E-05
  -7.14999996E-03  -3.93300907E-05
  -7.10000005E-03  -4.02531405E-05
  -7.05000013E-03  -4.11867586E-05
  -7.00000022E-03  -4.21405384E-05
  -6.94999984E-03  -4.31243025E-05
  -6.89999992E-03  -4.41436168E-05
  -6.85000001E-03  -4.51976703E-05
  -6.80000009E-03  -4.62799144E-05
  -6.75000018E-03  -4.73806613E-05
  -6.69999979E-03  -4.84919474E-05
  -6.64999988E-03  -4.96113389E-05
  -6.59999996E-03  -5.07429613E-05
  -6.55000005E-03  -5.18956986E-05
  -6.50000013E-03  -5.30794641E-05
  -6.45000022E-03  -5.43009737E-05
  -6.39999984E-03  -5.55609258E-05
  -6.34999992E-03  -5.68537325E-05
  -6.30000001E-03  -5.81702043E-05
  -6.25000009E-03  -5.95018028E-05
  -6.20000018E-03  -6.08447408E-05
  -6.14999980E-03  -6.22019070E-05
  -6.09999988E-03  -6.35814285E-05
  -6.04999997E-03  -6.49934445E-05
  -6.00000005E-03  -6.64457693E-05
  -5.95000014E-03  -6.79402729E-05
  -5.90000022E-03  -6.94723058E-05
  -5.84999984E-03  -7.10330205E-05
  -5.79999993E-03  -7.26135331E-05
  -5.75000001E-03  -7.42093252E-05
  -5.70000010E-03  -7.58220194E-05
  -5.65000018E-03  -7.74588043E-05
  -5.59999980E-03  -7.91297061E-05
  -5.54999989E-03  -8.08429613E-05
  -5.49999997E-03  -8.26017058E-05
  -5.45000006E-03  -8.44027891E-05
  -5.40000014E-03  -8.62381785E-05
  -5.35000023E-03  -8.80990629E-05
  -5.29999984E-03  -8.99797888E-05
  -5.24999993E-03  -9.18804144E-05
  -5.20000001E-03  -9.38070662E-05
  -5.15000010E-03  -9.57694938E-05
  -5.10000018E-03  -9.77767486E-05
  -5.04999980E-03  -9.98333344E-05
  -4.99999989E-03  -1.01937549E-04
  -4.94999997E-03  -1.04082450E-04
  -4.90000006E-03  -1.06258914E-04
  -4.85000014E-03  -1.08460401E-04
  -4.80000023E-03  -1.10685876E-04
  -4.74999985E-03  -1.12940143E-04
  -4.69999993E-03  -1.15232666E-04
  -4.65000002E-03  -1.17573021E-04
  -4.60000010E-03  -1.19966688E-04
  -4.55000019E-03  -1.22413330E-04
  -4.49999981E-03  -1.24907136E-04
  -4.44999989E-03  -1.27439518E-04
  -4.39999998E-03  -1.30003245E-04
  -4.35000006E-03  -1.32595582E-04
  -4.30000015E-03  -1.35220165E-04
  -4.25000023E-03  -1.37885363E-04
  -4.19999985E-03  -1.40600663E-04
  -4.14999994E-03  -1.43373094E-04
  -4.10000002E-03  -1.46204213E-04
  -4.05000011E-03  -1.49089727E-04
  -4.00000019E-03  -1.52021355E-04
  -3.94999981E-03  -1.54991198E-04
  -3.89999989E-03  -1.57995120E-04
  -3.84999998E-03  -1.61035394E-04
  -3.80000006E-03  -1.64119498E-04
  -3.74999992E-03  -1.67256483E-04
  -3.70000000E-03  -1.70454528E-04
  -3.65000009E-03  -1.73716951E-04
  -3.59999994E-03  -1.77041220E-04
  -3.55000002E-03  -1.80419986E-04
  -3.50000011E-03  -1.83844371E-04
  -3.44999996E-03  -1.87308993E-04
  -3.40000005E-03  -1.90814433E-04
  -3.34999990E-03  -1.94366876E-04
  -3.29999998E-03  -1.97974849E-04
  -3.25000007E-03  -2.01647170E-04
  -3.19999992E-03  -2.05388555E-04
  -3.15000000E-03  -2.09197722E-04
  -3.10000009E-03  -2.13069085E-04
  -3.04999994E-03  -2.16994173E-04
  -3.00000003E-03  -2.20966409E-04
  -2.95000011E-03  -2.24984353E-04
  -2.89999996E-03  -2.29052035E-04
  -2.85000005E-03  -2.33177998E-04
  -2.79999990E-03  -2.37371321E-04
  -2.74999999E-03  -2.41637797E-04
  -2.70000007E-03  -2.45977804E-04
  -2.64999992E-03  -2.50387035E-04
  -2.60000001E-03  -2.54857645E-04
  -2.55000009E-03  -2.59381864E-04
  -2.49999994E-03  -2.63956696E-04
  -2.45000003E-03  -2.68584437E-04
  -2.40000011E-03  -2.73272715E-04
  -2.34999997E-03  -2.78030144E-04
  -2.30000005E-03  -2.82863999E-04
  -2.24999990E-03  -2.87776958E-04
  -2.19999999E-03  -2.92765559E-04
  -2.15000007E-03  -2.97823368E-04
  -2.09999993E-03  -3.02942877E-04
  -2.05000001E-03  -3.08118120E-04
  -2.00000009E-03  -3.13348050E-04
  -1.94999995E-03  -3.18637438E-04
  -1.90000003E-03  -3.23995395E-04
  -1.85000000E-03  -3.29429604E-04
  -1.79999997E-03  -3.34944983E-04
  -1.75000005E-03  -3.40541854E-04
  -1.70000002E-03  -3.46214190E-04
  -1.64999999E-03  -3.51955416E-04
  -1.59999996E-03  -3.57759272E-04
  -1.55000004E-03  -3.63621715E-04
  -1.50000001E-03  -3.69544665E-04
  -1.44999998E-03  -3.75534524E-04
  -1.39999995E-03  -3.81598744E-04
  -1.35000004E-03  -3.87743465E-04
  -1.30000000E-03  -3.93971510E-04
  -1.24999997E-03  -4.00280027E-04
  -1.20000006E-03  -4.06662963E-04
  -1.15000003E-03  -4.13114089E-04
  -1.09999999E-03  -4.19627671E-04
  -1.04999996E-03  -4.26201354E-04
  -1.00000005E-03  -4.32838919E-04
  -9.50000016E-04  -4.39547381E-04
  -8.99999985E-04  -4.46333957E-04
  -8.50000011E-04  -4.53203713E-04
  -7.99999980E-04  -4.60156938E-04
  -7.50000007E-04  -4.67189355E-04
  -6.99999975E-04  -4.74293542E-04
  -6.50000002E-04  -4.81461262E-04
  -6.00000028E-04  -4.88687190E-04
  -5.49999997E-04  -4.95972112E-04
  -5.00000024E-04  -5.03322051E-04
  -4.49999992E-04  -5.10746671E-04
  -3.99999990E-04  -5.18252258E-04
  -3.49999988E-04  -5.25840383E-04
  -3.00000014E-04  -5.33509476E-04
  -2.50000012E-04  -5.41253714E-04
  -1.99999995E-04  -5.49063203E-04
  -1.50000007E-04  -5.56929153E-04
  -9.99999975E-05  -5.64847840E-04
  -4.99999987E-05  -5.72821649E-04
   0.00000000      -5.80861175E-04
   4.99999987E-05  -5.88975672E-04
   9.99999975E-05  -5.97172009E-04
   1.50000007E-04  -6.05451933E-04
   1.99999995E-04  -6.13808923E-04
   2.50000012E-04  -6.22231630E-04
   3.00000014E-04  -6.30705676E-04
   3.49999988E-04  -6.39221573E-04
   3.99999990E-04  -6.47778681E-04
   4.49999992E-04  -6.56387070E-04
   5.00000024E-04  -6.65060594E-04
   5.49999997E-04  -6.73807925E-04
   6.00000028E-04  -6.82635000E-04
   6.50000002E-04  -6.91539783E-04
   6.99999975E-04  -7.00510689E-04
   7.50000007E-04  -7.09529151E-04
   7.99999980E-04  -7.18578347E-04
   8.50000011E-04  -7.27655948E-04
   8.99999985E-04  -7.36768881E-04
   9.50000016E-04  -7.45928963E-04
   1.00000005E-03  -7.55151850E-04
   1.04999996E-03  -7.64445926E-04
   1.09999999E-03  -7.73808977E-04
   1.15000003E-03  -7.83231808E-04
   1.20000006E-03  -7.92696956E-04
   1.24999997E-03  -8.02186318E-04
   1.30000000E-03  -8.11692153E-04
   1.35000004E-03  -8.21216730E-04
   1.39999995E-03  -8.30769306E-04
   1.44999998E-03  -8.40363209E-04
   1.50000001E-03  -8.50010954E-04
   1.55000004E-03  -8.59715277E-04
   1.59999996E-03  -8.69467796E-04
   1.64999999E-03  -8.79253552E-04
   1.70000002E-03  -8.89051764E-04
   1.75000005E-03  -8.98848870E-04
   1.79999997E-03  -9.08641377E-04
   1.85000000E-03  -9.18436912E-04
   1.90000003E-03  -9.28252121E-04
   1.94999995E-03  -9.38104640E-04
   2.00000009E-03  -9.48000001E-04
   2.05000001E-03  -9.57931101E-04
   2.09999993E-03  -9.67884029E-04
   2.15000007E-03  -9.77835734E-04
   2.19999999E-03  -9.87764099E-04
   2.24999990E-03  -9.97661264E-04
   2.30000005E-03  -1.00753072E-03
   2.34999997E-03  -1.01738807E-03
   2.40000011E-03  -1.02725497E-03
   2.45000003E-03  -1.03714445E-03
   2.49999994E-03  -1.04705419E-03
   2.55000009E-03  -1.05697021E-03
   2.60000001E-03  -1.06687122E-03
   2.64999992E-03  -1.07673020E-03
   2.70000007E-03  -1.08652632E-03
   2.74999999E-03  -1.09625724E-03
   2.79999990E-03  -1.10594055E-03