  -3.99999991E-02   0.00000000    
  -3.99499983E-02   0.00000000    
  -3.99000011E-02   0.00000000    
  -3.98500003E-02   0.00000000    
  -3.97999994E-02  -2.67312775E-22
  -3.97499986E-02  -2.68404862E-21
  -3.97000015E-02  -1.38097739E-20
  -3.96500006E-02  -4.78758148E-20
  -3.95999998E-02  -1.23586768E-19
  -3.95499989E-02  -2.45850460E-19
  -3.95000018E-02  -3.67458133E-19
  -3.94500010E-02  -3.38848877E-19
  -3.94000001E-02   1.27515708E-19
  -3.93499993E-02   1.43942351E-18
  -3.92999984E-02   4.02386228E-18
  -3.92500013E-02   8.15092940E-18
  -3.92000005E-02   1.37492348E-17
  -3.91499996E-02   2.03257384E-17
  -3.90999988E-02   2.70955897E-17
  -3.90500017E-02   3.33429887E-17
  -3.90000008E-02   3.88959614E-17
  -3.89500000E-02   4.44790037E-17
  -3.88999991E-02   5.16953042E-17
  -3.88499983E-02   6.25271979E-17
  -3.88000011E-02   7.84888853E-17
  -3.87500003E-02   9.97989042E-17
  -3.86999995E-02   1.25023228E-16
  -3.86499986E-02   1.51490824E-16
  -3.86000015E-02   1.76432913E-16
  -3.85500006E-02   1.98392361E-16
  -3.84999998E-02   2.18196918E-16
  -3.84499989E-02   2.38867209E-16
  -3.84000018E-02   2.64268297E-16
  -3.83500010E-02   2.96953578E-16
  -3.83000001E-02   3.36174909E-16
  -3.82499993E-02   3.77126650E-16
  -3.81999984E-02   4.12020781E-16
  -3.81500013E-02   4.32727930E-16
  -3.81000005E-02   4.33877407E-16
  -3.80499996E-02   4.14941827E-16
  -3.79999988E-02   3.80179356E-16
  -3.79500017E-02   3.36257231E-16
  -3.79000008E-02   2.88510222E-16
  -3.78500000E-02   2.37542343E-16
  -3.77999991E-02   1.77856550E-16
  -3.77499983E-02   9.93282053E-17
  -3.77000012E-02  -9.01192681E-18
  -3.76500003E-02  -1.54595715E-16
  -3.75999995E-02  -3.38426879E-16
  -3.75499986E-02  -5.55093883E-16
  -3.75000015E-02  -7.95681681E-16
  -3.74500006E-02  -1.05215405E-15
  -3.73999998E-02  -1.32110596E-15
  -3.73499990E-02  -1.60519626E-15
  -3.73000018E-02  -1.91179741E-15
  -3.72500010E-02  -2.24974090E-15
  -3.72000001E-02  -2.62577905E-15
  -3.71499993E-02  -3.04219295E-15
  -3.70999984E-02  -3.49605776E-15
  -3.70500013E-02  -3.97965852E-15
  -3.70000005E-02  -4.48109398E-15
  -3.69499996E-02  -4.98456570E-15
  -3.68999988E-02  -5.47087654E-15
  -3.68500017E-02  -5.91945333E-15
  -3.68000008E-02  -6.31287260E-15
  -3.67500000E-02  -6.64316548E-15
  -3.66999991E-02  -6.91697693E-15
  -3.66499983E-02  -7.15548616E-15
  -3.66000012E-02  -7.38624504E-15
  -3.65500003E-02  -7.62789253E-15
  -3.64999995E-02  -7.87345500E-15
  -3.64499986E-02  -8.08102042E-15
  -3.64000015E-02  -8.17950579E-15
  -3.63500006E-02  -8.09136524E-15
  -3.62999998E-02  -7.76544475E-15
  -3.62499990E-02  -7.20566015E-15
  -3.62000018E-02  -6.47944418E-15
  -3.61500010E-02  -5.69639991E-15
  -3.61000001E-02  -4.96097837E-15
  -3.60499993E-02  -4.31768438E-15
  -3.59999985E-02  -3.71558583E-15
  -3.59500013E-02  -3.01474061E-15
  -3.59000005E-02  -2.04007610E-15
  -3.58499996E-02  -6.64601267E-16
  -3.57999988E-02   1.11509579E-15
  -3.57500017E-02   3.15146295E-15
  -3.57000008E-02   5.19011815E-15
  -3.56500000E-02   6.97655214E-15
  -3.55999991E-02   8.38258702E-15
  -3.55499983E-02   9.49158439E-15
  -3.55000012E-02   1.05911517E-14
  -3.54500003E-02   1.20599636E-14
  -3.53999995E-02   1.41869099E-14
  -3.53499986E-02   1.70020959E-14
  -3.53000015E-02   2.02071737E-14
  -3.52500007E-02   2.32573682E-14
  -3.51999998E-02   2.55801206E-14
  -3.51499990E-02   2.68443460E-14
  -3.51000018E-02   2.71553393E-14
  -3.50500010E-02   2.70675900E-14
  -3.50000001E-02   2.73812819E-14
  -3.49499993E-02   2.87898537E-14
  -3.48999985E-02   3.15292971E-14
  -3.48500013E-02   3.52010054E-14
  -3.48000005E-02   3.88793341E-14
  -3.47499996E-02   4.14909162E-14
  -3.46999988E-02   4.23176373E-14
  -3.46500017E-02   4.13943680E-14
  -3.46000008E-02   3.95934235E-14
  -3.45500000E-02   3.83133670E-14
  -3.44999991E-02   3.88722427E-14
  -3.44499983E-02   4.18619946E-14
  -3.44000012E-02   4.67721124E-14
  -3.43500003E-02   5.20980625E-14
  -3.42999995E-02   5.59413220E-14
  -3.42499986E-02   5.68706256E-14
  -3.42000015E-02   5.46598018E-14
  -3.41500007E-02   5.05319087E-14
  -3.40999998E-02   4.67345956E-14
  -3.40499990E-02   4.55747737E-14
  -3.40000018E-02   4.83162941E-14
  -3.39500010E-02   5.44556872E-14
  -3.39000002E-02   6.17658932E-14
  -3.38499993E-02   6.71702480E-14
  -3.37999985E-02   6.81159502E-14
  -3.37500013E-02   6.38402905E-14
  -3.37000005E-02   5.59096091E-14
  -3.36499996E-02   4.76949718E-14
  -3.35999988E-02   4.29233912E-14
  -3.35500017E-02   4.39019785E-14
  -3.35000008E-02   5.02311036E-14
  -3.34500000E-02   5.86727729E-14
  -3.33999991E-02   6.43558083E-14
  -3.33499983E-02   6.28787319E-14
  -3.33000012E-02   5.23992166E-14
  -3.32500003E-02   3.47154454E-14
  -3.31999995E-02   1.47285358E-14
  -3.31499986E-02  -1.61334482E-15
  -3.31000015E-02  -1.00573253E-14
  -3.30500007E-02  -1.02389292E-14
  -3.29999998E-02  -6.23605476E-15
  -3.29499990E-02  -5.07100626E-15
  -3.29000019E-02  -1.36823790E-14
  -3.28500010E-02  -3.56602633E-14
  -3.28000002E-02  -6.92656381E-14
  -3.27499993E-02  -1.07781642E-13
  -3.26999985E-02  -1.42233542E-13
  -3.26500013E-02  -1.65398226E-13
  -3.26000005E-02  -1.75322471E-13
  -3.25499997E-02  -1.76650483E-13
  -3.24999988E-02  -1.78951350E-13
  -3.24500017E-02  -1.92583769E-13
  -3.24000008E-02  -2.23839203E-13
  -3.23500000E-02  -2.71586031E-13
  -3.22999991E-02  -3.27111222E-13
  -3.22499983E-02  -3.77488568E-13
  -3.22000012E-02  -4.11172534E-13
  -3.21500003E-02  -4.23367965E-13
  -3.20999995E-02  -4.18642280E-13
  -3.20499986E-02  -4.09344298E-13
  -3.20000015E-02  -4.10252941E-13
  -3.19500007E-02  -4.31679893E-13
  -3.18999998E-02  -4.74142752E-13
  -3.18499990E-02  -5.27224044E-13
  -3.18000019E-02  -5.73464074E-13
  -3.17500010E-02  -5.95843091E-13
  -3.17000002E-02  -5.85621016E-13
  -3.16499993E-02  -5.46900687E-13
  -3.15999985E-02  -4.95547559E-13
  -3.15500014E-02  -4.52563090E-13
  -3.15000005E-02  -4.34604284E-13
  -3.14499997E-02  -4.45864103E-13
  -3.13999988E-02  -4.75187001E-13
  -3.13500017E-02  -5.00125223E-13
  -3.13000008E-02  -4.96527407E-13
  -3.12500000E-02  -4.49579908E-13
  -3.11999992E-02  -3.61272454E-13
  -3.11500002E-02  -2.50584492E-13
  -3.10999993E-02  -1.45825978E-13
  -3.10500003E-02  -7.21723029E-14
  -3.09999995E-02  -3.98622379E-14
  -3.09500005E-02  -3.85741887E-14
  -3.08999997E-02  -4.09848648E-14
  -3.08500007E-02  -1.44485948E-14
  -3.07999998E-02   6.40949086E-14
  -3.07500008E-02   1.96680454E-13
  -3.07000000E-02   3.61853261E-13
  -3.06499992E-02   5.22876501E-13
  -3.06000002E-02   6.43474640E-13
  -3.05499993E-02   7.04302339E-13
  -3.05000003E-02   7.12584397E-13
  -3.04499995E-02   7.00075143E-13
  -3.04000005E-02   7.09592053E-13
  -3.03499997E-02   7.75667399E-13
  -3.03000007E-02   9.07898322E-13
  -3.02499998E-02   1.08482906E-12
  -3.02000009E-02   1.26179265E-12
  -3.01500000E-02   1.38989926E-12
  -3.00999992E-02   1.43805952E-12
  -3.00500002E-02   1.40807548E-12
  -2.99999993E-02   1.33546212E-12
  -2.99500003E-02   1.27482215E-12
  -2.98999995E-02   1.27564311E-12
  -2.98500005E-02   1.35911161E-12
  -2.97999997E-02   1.50665732E-12
  -2.97500007E-02   1.66612796E-12
  -2.96999998E-02   1.77372169E-12
  -2.96500009E-02   1.78246198E-12
  -2.96000000E-02   1.68451071E-12
  -2.95499992E-02   1.51676371E-12
  -2.95000002E-02   1.34628669E-12
  -2.94499993E-02   1.24121091E-12
  -2.94000003E-02   1.23965974E-12
  -2.93499995E-02   1.33082954E-12
  -2.93000005E-02   1.45750079E-12
  -2.92499997E-02   1.53991815E-12
  -2.92000007E-02   1.51119492E-12
  -2.91499998E-02   1.34863073E-12
  -2.91000009E-02   1.08642414E-12
  -2.90500000E-02   8.03046377E-13
  -2.89999992E-02   5.87791480E-13
  -2.89500002E-02   5.00748314E-13
  -2.88999993E-02   5.44137652E-13
  -2.88500004E-02   6.58636015E-13
  -2.87999995E-02   7.47559078E-13
  -2.87500005E-02   7.19207083E-13
  -2.86999997E-02   5.28932800E-13
  -2.86500007E-02   2.01756377E-13
  -2.85999998E-02  -1.75678116E-13
  -2.85500009E-02  -4.91556611E-13
  -2.85000000E-02  -6.58468289E-13
  -2.84499992E-02  -6.54131426E-13
  -2.84000002E-02  -5.34333103E-13
  -2.83499993E-02  -4.10935961E-13
  -2.83000004E-02  -4.03381294E-13
  -2.82499995E-02  -5.84556329E-13
  -2.82000005E-02  -9.45391552E-13
  -2.81499997E-02  -1.39512111E-12
  -2.81000007E-02  -1.79867623E-12
  -2.80499998E-02  -2.03586648E-12
  -2.80000009E-02  -2.05642773E-12
  -2.79500000E-02  -1.90576504E-12
  -2.78999992E-02  -1.70842463E-12
  -2.78500002E-02  -1.61496229E-12
  -2.77999993E-02  -1.73472955E-12
  -2.77500004E-02  -2.08444828E-12
  -2.76999995E-02  -2.57655052E-12
  -2.76500005E-02  -3.05424956E-12
  -2.75999997E-02  -3.35940325E-12
  -2.75500007E-02  -3.40380176E-12
  -2.74999999E-02  -3.21172299E-12
  -2.74500009E-02  -2.91329265E-12
  -2.74000000E-02  -2.68962695E-12
  -2.73499992E-02  -2.69260959E-12
  -2.73000002E-02  -2.97457848E-12
  -2.72499993E-02  -3.46014363E-12
  -2.72000004E-02  -3.97460060E-12
  -2.71499995E-02  -4.31837639E-12
  -2.71000005E-02  -4.35570070E-12
  -2.70499997E-02  -4.07800096E-12
  -2.70000007E-02  -3.61235998E-12
  -2.69499999E-02  -3.16906028E-12
  -2.69000009E-02  -2.94950848E-12
  -2.68500000E-02  -3.05457894E-12
  -2.67999992E-02  -3.43477850E-12
  -2.67500002E-02  -3.90634530E-12
  -2.66999993E-02  -4.22853939E-12
  -2.66500004E-02  -4.20957757E-12
  -2.65999995E-02  -3.79447992E-12
  -2.65500005E-02  -3.09449753E-12
  -2.64999997E-02  -2.34263433E-12
  -2.64500007E-02  -1.79255395E-12
  -2.63999999E-02  -1.60436736E-12
  -2.63500009E-02  -1.76834556E-12
  -2.63000000E-02  -2.10239400E-12
  -2.62499992E-02  -2.32718836E-12
  -2.62000002E-02  -2.18798157E-12
  -2.61499994E-02  -1.56989482E-12
  -2.61000004E-02  -5.54492704E-13
  -2.60499995E-02   6.10004451E-13
  -2.60000005E-02   1.61459214E-12
  -2.59499997E-02   2.22649004E-12
  -2.59000007E-02   2.39668767E-12
  -2.58499999E-02   2.28852657E-12
  -2.58000009E-02   2.21160872E-12
  -2.57500000E-02   2.48743192E-12
  -2.56999992E-02   3.30482148E-12
  -2.56500002E-02   4.62989759E-12
  -2.55999994E-02   6.21302922E-12
  -2.55500004E-02   7.69304499E-12
  -2.54999995E-02   8.75519622E-12
  -2.54500005E-02   9.27363047E-12
  -2.53999997E-02   9.37371968E-12
  -2.53500007E-02   9.38341245E-12
  -2.52999999E-02   9.69167455E-12
  -2.52500009E-02   1.05744909E-11
  -2.52000000E-02   1.20655820E-11
  -2.51499992E-02   1.39314654E-11
  -2.51000002E-02   1.57655746E-11
  -2.50499994E-02   1.71631112E-11
  -2.50000004E-02   1.79006775E-11
  -2.49499995E-02   1.80400989E-11
  -2.49000005E-02   1.79072607E-11
  -2.48499997E-02   1.79513748E-11
  -2.48000007E-02   1.85440257E-11
  -2.47499999E-02   1.98064100E-11
  -2.47000009E-02   2.15433192E-11
  -2.46500000E-02   2.33170219E-11
  -2.45999992E-02   2.46323326E-11
  -2.45500002E-02   2.51532788E-11
  -2.44999994E-02   2.48549792E-11
  -2.44500004E-02   2.40404831E-11
  -2.43999995E-02   2.32106539E-11
  -2.43500005E-02   2.28410450E-11
  -2.42999997E-02   2.31629976E-11
  -2.42500007E-02   2.40475365E-11
  -2.41999999E-02   2.50473722E-11
  -2.41500009E-02   2.55830721E-11
  -2.41000000E-02   2.51942373E-11
  -2.40499992E-02   2.37448880E-11
  -2.40000002E-02   2.14894526E-11
  -2.39499994E-02   1.89655670E-11
  -2.39000004E-02   1.67566291E-11
  -2.38499995E-02   1.52268944E-11
  -2.38000005E-02   1.43472890E-11
  -2.37499997E-02   1.36928958E-11
  -2.37000007E-02   1.26183673E-11
  -2.36499999E-02   1.05378362E-11
  -2.36000009E-02   7.18675119E-12
  -2.35500000E-02   2.74765670E-12
  -2.34999992E-02  -2.22044453E-12
  -2.34500002E-02  -7.02305792E-12
  -2.33999994E-02  -1.11382032E-11
  -2.33500004E-02  -1.44551445E-11
  -2.32999995E-02  -1.73347378E-11
  -2.32500006E-02  -2.04593009E-11
  -2.31999997E-02  -2.45334465E-11
  -2.31500007E-02  -2.99658874E-11
  -2.30999999E-02  -3.66744031E-11
  -2.30500009E-02  -4.41047060E-11
  -2.30000000E-02  -5.14605858E-11
  -2.29499992E-02  -5.80476500E-11
  -2.29000002E-02  -6.35796138E-11
  -2.28499994E-02  -6.83087129E-11
  -2.28000004E-02  -7.29169433E-11
  -2.27499995E-02  -7.82107296E-11
  -2.27000006E-02  -8.47506232E-11
  -2.26499997E-02  -9.25803739E-11
  -2.26000007E-02  -1.01179516E-10
  -2.25499999E-02  -1.09666255E-10
  -2.25000009E-02  -1.17166415E-10
  -2.24500000E-02  -1.23187030E-10
  -2.23999992E-02  -1.27827415E-10
  -2.23500002E-02  -1.31729072E-10
  -2.22999994E-02  -1.35780304E-10
  -2.22500004E-02  -1.40701895E-10
  -2.21999995E-02  -1.46696669E-10
  -2.21500006E-02  -1.53321481E-10
  -2.20999997E-02  -1.59644326E-10
  -2.20500007E-02  -1.64623315E-10
  -2.19999999E-02  -1.67542841E-10
  -2.19500009E-02  -1.68312947E-10
  -2.19000001E-02  -1.67494893E-10
  -2.18499992E-02  -1.66034797E-10
  -2.18000002E-02  -1.64817868E-10
  -2.17499994E-02  -1.64238997E-10
  -2.17000004E-02  -1.63982147E-10
  -2.16499995E-02  -1.63112315E-10
  -2.16000006E-02  -1.60445809E-10
  -2.15499997E-02  -1.55039773E-10
  -2.15000007E-02  -1.46584245E-10
  -2.14499999E-02  -1.35519637E-10
  -2.14000009E-02  -1.22820629E-10
  -2.13500001E-02  -1.09536810E-10
  -2.12999992E-02  -9.62895666E-11
  -2.12500002E-02  -8.29500843E-11
  -2.11999994E-02  -6.86461166E-11
  -2.11500004E-02  -5.21016147E-11
  -2.10999995E-02  -3.21640076E-11
  -2.10500006E-02  -8.28763967E-12
  -2.09999997E-02   1.92440664E-11
  -2.09500007E-02   4.94619068E-11
  -2.08999999E-02   8.11630554E-11
  -2.08500009E-02   1.13476319E-10
  -2.08000001E-02   1.46289370E-10
  -2.07499992E-02   1.80344795E-10
  -2.07000002E-02   2.16954954E-10
  -2.06499994E-02   2.57456584E-10
  -2.06000004E-02   3.02642716E-10
  -2.05499995E-02   3.52425922E-10
  -2.05000006E-02   4.05887768E-10
  -2.04499997E-02   4.61698735E-10
  -2.04000007E-02   5.18728616E-10
  -2.03499999E-02   5.76577730E-10
  -2.03000009E-02   6.35789754E-10
  -2.02500001E-02   6.97646940E-10
  -2.01999992E-02   7.63629382E-10
  -2.01500002E-02   8.34776248E-10
  -2.00999994E-02   9.11230813E-10
  -2.00500004E-02   9.92176119E-10
  -1.99999996E-02   1.07619691E-09
  -1.99500006E-02   1.16191368E-09
  -1.98999997E-02   1.24860988E-09
  -1.98500007E-02   1.33657285E-09
  -1.97999999E-02   1.42699264E-09
  -1.97500009E-02   1.52145341E-09
  -1.97000001E-02   1.62124336E-09
  -1.96499992E-02   1.72678172E-09
  -1.96000002E-02   1.83742521E-09
  -1.95499994E-02   1.95174388E-09
  -1.95000004E-02   2.06815054E-09
  -1.94499996E-02   2.18561058E-09
  -1.94000006E-02   2.30411334E-09
  -1.93499997E-02   2.42469755E-09
  -1.93000007E-02   2.54900678E-09
  -1.92499999E-02   2.67856937E-09
  -1.92000009E-02   2.81411983E-09
  -1.91500001E-02   2.95526470E-09
  -1.90999992E-02   3.10064596E-09
  -1.90500002E-02   3.24853699E-09
  -1.89999994E-02   3.39761130E-09
  -1.89500004E-02   3.54754537E-09
  -1.88999996E-02   3.69918407E-09
  -1.88500006E-02   3.85418852E-09
  -1.87999997E-02   4.01431999E-09
  -1.87500007E-02   4.18067003E-09
  -1.86999999E-02   4.35317871E-09
  -1.86500009E-02   4.53066873E-09
  -1.86000001E-02   4.71136685E-09
  -1.85499992E-02   4.89371077E-09
  -1.85000002E-02   5.07706854E-09
  -1.84499994E-02   5.26205479E-09
  -1.84000004E-02   5.45030243E-09
  -1.83499996E-02   5.64377789E-09
  -1.83000006E-02   5.84394844E-09
  -1.82499997E-02   6.05115691E-09
  -1.82000007E-02   6.26450092E-09
  -1.81499999E-02   6.48226273E-09
  -1.81000009E-02   6.70270950E-09
  -1.80500001E-02   6.92491486E-09
  -1.79999992E-02   7.14923365E-09
  -1.79500002E-02   7.37721484E-09
  -1.78999994E-02   7.61099184E-09
  -1.78500004E-02   7.85240761E-09
  -1.77999996E-02   8.10226108E-09
  -1.77500006E-02   8.36002378E-09
  -1.76999997E-02   8.62413785E-09
  -1.76500008E-02   8.89277807E-09
  -1.75999999E-02   9.16475429E-09
  -1.75500009E-02   9.44012868E-09
  -1.75000001E-02   9.72030456E-09
  -1.74499992E-02   1.00075104E-08
  -1.74000002E-02   1.03039275E-08
  -1.73499994E-02   1.06108313E-08
  -1.73000004E-02   1.09281322E-08
  -1.72499996E-02   1.12545218E-08
  -1.72000006E-02   1.15881678E-08
  -1.71499997E-02   1.19276464E-08
  -1.71000008E-02   1.22727100E-08
  -1.70499999E-02   1.26245414E-08
  -1.70000009E-02   1.29853790E-08
  -1.69500001E-02   1.33576812E-08
  -1.68999992E-02   1.37431853E-08
  -1.68500002E-02   1.41422865E-08
  -1.67999994E-02   1.45540158E-08
  -1.67500004E-02   1.49766120E-08
  -1.66999996E-02   1.54084709E-08
  -1.66500006E-02   1.58490234E-08
  -1.65999997E-02   1.62991611E-08
  -1.65500008E-02   1.67610370E-08
  -1.64999999E-02   1.72372925E-08
  -1.64500009E-02   1.77300805E-08
  -1.64000001E-02   1.82402982E-08
  -1.63499992E-02   1.87673663E-08
  -1.63000003E-02   1.93096810E-08
  -1.62499994E-02   1.98655119E-08
  -1.62000004E-02   2.04339656E-08
  -1.61499996E-02   2.10155893E-08
  -1.61000006E-02   2.16123475E-08
  -1.60499997E-02   2.22269669E-08
  -1.60000008E-02   2.28619506E-08
  -1.59499999E-02   2.35186892E-08
  -1.59000009E-02   2.41970604E-08
  -1.58500001E-02   2.48957033E-08
  -1.57999992E-02   2.56128381E-08
  -1.57500003E-02   2.63472906E-08
  -1.56999994E-02   2.70992295E-08
  -1.56500004E-02   2.78703478E-08
  -1.55999996E-02   2.86633473E-08
  -1.55499997E-02   2.94810061E-08
  -1.54999997E-02   3.03251788E-08
  -1.54499998E-02   3.11962438E-08
  -1.53999999E-02   3.20931655E-08
  -1.53500000E-02   3.30142171E-08
  -1.53000001E-02   3.39579849E-08
  -1.52500002E-02   3.49242661E-08
  -1.52000003E-02   3.59144217E-08
  -1.51500003E-02   3.69310342E-08
  -1.51000004E-02   3.79770668E-08
  -1.50499996E-02   3.90548145E-08
  -1.49999997E-02   4.01651867E-08
  -1.49499997E-02   4.13075760E-08
  -1.48999998E-02   4.24804298E-08
  -1.48499999E-02   4.36822134E-08
  -1.48000000E-02   4.49123974E-08
  -1.47500001E-02   4.61719800E-08
  -1.47000002E-02   4.74633772E-08
  -1.46500003E-02   4.87896585E-08
  -1.46000003E-02   5.01535240E-08
  -1.45500004E-02   5.15564267E-08
  -1.44999996E-02   5.29982707E-08
  -1.44499997E-02   5.44778054E-08
  -1.43999998E-02   5.59935032E-08
  -1.43499998E-02   5.75445824E-08
  -1.42999999E-02   5.91317288E-08
  -1.42500000E-02   6.07571309E-08
  -1.42000001E-02   6.24239078E-08
  -1.41500002E-02   6.41351079E-08
  -1.41000003E-02   6.58927561E-08
  -1.40500003E-02   6.76973855E-08
  -1.40000004E-02   6.95481859E-08
  -1.39499996E-02   7.14437931E-08
  -1.38999997E-02   7.33833190E-08
  -1.38499998E-02   7.53671685E-08
  -1.37999998E-02   7.73973170E-08
  -1.37499999E-02   7.94768624E-08
  -1.37000000E-02   8.16091728E-08
  -1.36500001E-02   8.37968415E-08
  -1.36000002E-02   8.60410765E-08
  -1.35500003E-02   8.83416575E-08
  -1.35000004E-02   9.06975615E-08
  -1.34500004E-02   9.31079072E-08
  -1.33999996E-02   9.55729149E-08
  -1.33499997E-02   9.80943184E-08
  -1.32999998E-02   1.00675166E-07
  -1.32499998E-02   1.03319088E-07
  -1.31999999E-02   1.06029233E-07
  -1.31500000E-02   1.08807541E-07
  -1.31000001E-02   1.11654487E-07
  -1.30500002E-02   1.14569502E-07
  -1.30000003E-02   1.17551892E-07
  -1.29500004E-02   1.20601811E-07
  -1.29000004E-02   1.23720838E-07
  -1.28499996E-02   1.26911914E-07
  -1.27999997E-02   1.30178861E-07
  -1.27499998E-02   1.33525305E-07
  -1.26999998E-02   1.36953901E-07
  -1.26499999E-02   1.40465872E-07
  -1.26000000E-02   1.44061318E-07
  -1.25500001E-02   1.47739868E-07
  -1.25000002E-02   1.51501709E-07
  -1.24500003E-02   1.55348275E-07
  -1.24000004E-02   1.59282465E-07
  -1.23500004E-02   1.63308172E-07
  -1.22999996E-02   1.67429477E-07
  -1.22499997E-02   1.71649745E-07
  -1.21999998E-02   1.75971010E-07
  -1.21499998E-02   1.80394110E-07
  -1.20999999E-02   1.84919145E-07
  -1.20500000E-02   1.89546441E-07
  -1.20000001E-02   1.94277376E-07
  -1.19500002E-02   1.99114751E-07
  -1.19000003E-02   2.04062502E-07
  -1.18500004E-02   2.09125048E-07
  -1.18000004E-02   2.14306397E-07
  -1.17499996E-02   2.19609433E-07
  -1.16999997E-02   2.25035777E-07
  -1.16499998E-02   2.30586195E-07
  -1.15999999E-02   2.36261329E-07
  -1.15499999E-02   2.42062612E-07
  -1.15000000E-02   2.47992773E-07
  -1.14500001E-02   2.54055720E-07
  -1.14000002E-02   2.60256144E-07
  -1.13500003E-02   2.66598619E-07
  -1.13000004E-02   2.73086840E-07
  -1.12500004E-02   2.79723253E-07
  -1.11999996E-02   2.86509277E-07
  -1.11499997E-02   2.93445964E-07
  -1.10999998E-02   3.00534879E-07
  -1.10499999E-02   3.07778635E-07
  -1.09999999E-02   3.15181211E-07
  -1.09500000E-02   3.22747411E-07
  -1.09000001E-02   3.30482322E-07
  -1.08500002E-02   3.38390322E-07
  -1.08000003E-02   3.46474792E-07
  -1.07500004E-02   3.54738035E-07
  -1.07000005E-02   3.63181755E-07
  -1.06499996E-02   3.71807715E-07
  -1.05999997E-02   3.80618644E-07
  -1.05499998E-02   3.89618464E-07
  -1.04999999E-02   3.98812148E-07
  -1.04499999E-02   4.08205040E-07
  -1.04000000E-02   4.17802283E-07
  -1.03500001E-02   4.27608001E-07
  -1.03000002E-02   4.37625374E-07
  -1.02500003E-02   4.47856735E-07
  -1.02000004E-02   4.58304214E-07
  -1.01500005E-02   4.68970569E-07
  -1.00999996E-02   4.79859693E-07
  -1.00499997E-02   4.90976504E-07
  -9.99999978E-03   5.02326827E-07
  -9.94999986E-03   5.13916234E-07
  -9.89999995E-03   5.25749840E-07
  -9.85000003E-03   5.37831568E-07
  -9.80000012E-03   5.50164600E-07
  -9.75000020E-03   5.62751609E-07
  -9.70000029E-03   5.75595664E-07
  -9.65000037E-03   5.88700743E-07
  -9.60000046E-03   6.02071850E-07
  -9.54999961E-03   6.15715066E-07
  -9.49999969E-03   6.29636531E-07
  -9.44999978E-03   6.43842043E-07
  -9.39999986E-03   6.58336489E-07
  -9.34999995E-03   6.73123964E-07
  -9.30000003E-03   6.88207820E-07
  -9.25000012E-03   7.03591240E-07
  -9.20000020E-03   7.19278376E-07
  -9.15000029E-03   7.35274227E-07
  -9.10000037E-03   7.51584594E-07
  -9.05000046E-03   7.68216125E-07
  -8.99999961E-03   7.85175132E-07
  -8.94999970E-03   8.02467696E-07
  -8.89999978E-03   8.20098421E-07
  -8.84999987E-03   8.38071401E-07
  -8.79999995E-03   8.56390500E-07
  -8.75000004E-03   8.75059868E-07
  -8.70000012E-03   8.94084508E-07
  -8.65000021E-03   9.13470501E-07
  -8.60000029E-03   9.33224612E-07
  -8.55000038E-03   9.53354061E-07
  -8.50000046E-03   9.73865554E-07
  -8.44999962E-03   9.94764605E-07
  -8.39999970E-03   1.01605644E-06
  -8.34999979E-03   1.03774528E-06
  -8.29999987E-03   1.05983543E-06
  -8.24999996E-03   1.08233201E-06
  -8.20000004E-03   1.10524104E-06
  -8.15000013E-03   1.12856969E-06
  -8.10000021E-03   1.15232535E-06
  -8.05000030E-03   1.17651507E-06
  -8.00000038E-03   1.20114555E-06
  -7.95000046E-03   1.22622237E-06
  -7.89999962E-03   1.25175040E-06
  -7.84999970E-03   1.27773410E-06
  -7.79999979E-03   1.30417868E-06
  -7.74999987E-03   1.33109006E-06
  -7.69999996E-03   1.35847506E-06
  -7.65000004E-03   1.38634141E-06
  -7.60000013E-03   1.41469695E-06
  -7.55000021E-03   1.44354919E-06
  -7.49999983E-03   1.47290427E-06
  -7.44999992E-03   1.50276799E-06
  -7.40000000E-03   1.53314522E-06
  -7.35000009E-03   1.56404110E-06
  -7.30000017E-03   1.59546119E-06
  -7.24999979E-03   1.62741264E-06
  -7.19999988E-03   1.65990298E-06
  -7.14999996E-03   1.69294071E-06
  -7.10000005E-03   1.72653404E-06
  -7.05000013E-03   1.76068988E-06
  -7.00000022E-03   1.79541473E-06
  -6.94999984E-03   1.83071347E-06
  -6.89999992E-03   1.86659099E-06
  -6.85000001E-03   1.90305298E-06
  -6.80000009E-03   1.94010590E-06
  -6.75000018E-03   1.97775739E-06
  -6.69999979E-03   2.01601574E-06
  -6.64999988E-03   2.05489005E-06
  -6.59999996E-03   2.09438736E-06
  -6.55000005E-03   2.13451472E-06
  -6.50000013E-03   2.17527736E-06
  -6.45000022E-03   2.21668051E-06
  -6.39999984E-03   2.25872873E-06
  -6.34999992E-03   2.30142882E-06
  -6.30000001E-03   2.34478830E-06
  -6.25000009E-03   2.38881557E-06
  -6.20000018E-03   2.43351928E-06
  -6.14999980E-03   2.47890785E-06
  -6.09999988E-03   2.52498830E-06
  -6.04999997E-03   2.57176657E-06
  -6.00000005E-03   2.61924743E-06
  -5.95000014E-03   2.66743587E-06
  -5.90000022E-03   2.71633735E-06
  -5.84999984E-03   2.76595915E-06
  -5.79999993E-03   2.81630923E-06
  -5.75000001E-03   2.86739669E-06
  -5.70000010E-03   2.91922947E-06
  -5.65000018E-03   2.97181600E-06
  -5.59999980E-03   3.02516105E-06
  -5.54999989E-03   3.07926916E-06
  -5.49999997E-03   3.13414512E-06
  -5.45000006E-03   3.18979392E-06
  -5.40000014E-03   3.24622124E-06
  -5.35000023E-03   3.30343505E-06
  -5.29999984E-03   3.36144444E-06
  -5.24999993E-03   3.42025783E-06
  -5.20000001E-03   3.47988271E-06
  -5.15000010E-03   3.54032477E-06
  -5.10000018E-03   3.60158788E-06
  -5.04999980E-03   3.66367590E-06
  -4.99999989E-03   3.72659315E-06
  -4.94999997E-03   3.79034486E-06
  -4.90000006E-03   3.85493786E-06
  -4.85000014E-03   3.92038146E-06
  -4.80000023E-03   3.98668317E-06
  -4.74999985E-03   4.05385026E-06
  -4.69999993E-03   4.12188774E-06
  -4.65000002E-03   4.19080061E-06
  -4.60000010E-03   4.26058978E-06
  -4.55000019E-03   4.33125888E-06
  -4.49999981E-03   4.40281156E-06
  -4.44999989E-03   4.47525417E-06
  -4.39999998E-03   4.54859310E-06
  -4.35000006E-03   4.62283697E-06
  -4.30000015E-03   4.69799170E-06
  -4.25000023E-03   4.77406229E-06
  -4.19999985E-03   4.85105193E-06
  -4.14999994E-03   4.92896106E-06
  -4.10000002E-03   5.00779151E-06
  -4.05000011E-03   5.08754511E-06
  -4.00000019E-03   5.16822593E-06
  -3.94999981E-03   5.24984080E-06
  -3.89999989E-03   5.33239518E-06
  -3.84999998E-03   5.41589588E-06
  -3.80000006E-03   5.50034747E-06
  -3.74999992E-03   5.58575084E-06
  -3.70000000E-03   5.67210554E-06
  -3.65000009E-03   5.75940931E-06
  -3.59999994E-03   5.84766349E-06
  -3.55000002E-03   5.93686946E-06
  -3.50000011E-03   6.02703176E-06
  -3.44999996E-03   6.11815494E-06
  -3.40000005E-03   6.21024401E-06
  -3.34999990E-03   6.30330123E-06
  -3.29999998E-03   6.39732707E-06
  -3.25000007E-03   6.49231788E-06
  -3.19999992E-03   6.58826957E-06
  -3.15000000E-03   6.68517941E-06
  -3.10000009E-03   6.78304741E-06
  -3.04999994E-03   6.88187356E-06
  -3.00000003E-03   6.98166241E-06
  -2.95000011E-03   7.08241578E-06
  -2.89999996E-03   7.18413412E-06
  -2.85000005E-03   7.28681471E-06
  -2.79999990E-03   7.39045254E-06
  -2.74999999E-03   7.49504261E-06
  -2.70000007E-03   7.60057628E-06
  -2.64999992E-03   7.70704992E-06
  -2.60000001E-03   7.81446033E-06
  -2.55000009E-03   7.92280935E-06
  -2.49999994E-03   8.03209514E-06
  -2.45000003E-03   8.14231862E-06
  -2.40000011E-03   8.25347433E-06
  -2.34999997E-03   8.36555409E-06
  -2.30000005E-03   8.47854699E-06
  -2.24999990E-03   8.59244119E-06
  -2.19999999E-03   8.70722761E-06
  -2.15000007E-03   8.82290078E-06
  -2.09999993E-03   8.93945708E-06
  -2.05000001E-03   9.05689467E-06
  -2.00000009E-03   9.17520720E-06
  -1.94999995E-03   9.29438829E-06
  -1.90000003E-03   9.41442613E-06
  -1.85000000E-03   9.53530343E-06
  -1.79999997E-03   9.65700656E-06
  -1.75000005E-03   9.77952004E-06
  -1.70000002E-03   9.90283388E-06
  -1.64999999E-03   1.00269399E-05
  -1.59999996E-03   1.01518317E-05
  -1.55000004E-03   1.02775011E-05
  -1.50000001E-03   1.04039373E-05
  -1.44999998E-03   1.05311246E-05
  -1.39999995E-03   1.06590433E-05
  -1.35000004E-03   1.07876713E-05
  -1.30000000E-03   1.09169887E-05
  -1.24999997E-03   1.10469764E-05
  -1.20000006E-03   1.11776226E-05
  -1.15000003E-03   1.13089172E-05
  -1.09999999E-03   1.14408476E-05
  -1.04999996E-03   1.15733992E-05
  -1.00000005E-03   1.17065529E-05
  -9.50000016E-04   1.18402832E-05
  -8.99999985E-04   1.19745609E-05
  -8.50000011E-04   1.21093562E-05
  -7.99999980E-04   1.22446472E-05
  -7.50000007E-04   1.23804157E-05
  -6.99999975E-04   1.25166443E-05
  -6.50000002E-04   1.26533187E-05
  -6.00000028E-04   1.27904186E-05
  -5.49999997E-04   1.29279197E-05
  -5.00000024E-04   1.30657909E-05
  -4.49999992E-04   1.32039959E-05
  -3.99999990E-04   1.33425010E-05
  -3.49999988E-04   1.34812726E-05
  -3.00000014E-04   1.36202852E-05
  -2.50000012E-04   1.37595171E-05
  -1.99999995E-04   1.38989462E-05
  -1.50000007E-04   1.40385519E-05
  -9.99999975E-05   1.41783012E-05
  -4.99999987E-05   1.43181596E-05
   0.00000000       1.44580818E-05
   4.99999987E-05   1.45980275E-05
   9.99999975E-05   1.47379560E-05
   1.50000007E-04   1.48778299E-05
   1.99999995E-04   1.50176229E-05
   2.50000012E-04   1.51573049E-05
   3.00000014E-04   1.52968496E-05
   3.49999988E-04   1.54362169E-05
   3.99999990E-04   1.55753714E-05
   4.49999992E-04   1.57142604E-05
   5.00000024E-04   1.58528328E-05
   5.49999997E-04   1.59910360E-05
   6.00000028E-04   1.61288262E-05
   6.50000002E-04   1.62661690E-05
   6.99999975E-04   1.64030280E-05
   7.50000007E-04   1.65393685E-05
   7.99999980E-04   1.66751524E-05
   8.50000011E-04   1.68103306E-05
   8.99999985E-04   1.69448485E-05
   9.50000016E-04   1.70786407E-05
   1.00000005E-03   1.72116506E-05
   1.04999996E-03   1.73438239E-05
   1.09999999E-03   1.74751149E-05
   1.15000003E-03   1.76054782E-05
   1.20000006E-03   1.77348775E-05
   1.24999997E-03   1.78632654E-05
   1.30000000E-03   1.79905892E-05
   1.35000004E-03   1.81167852E-05
   1.39999995E-03   1.82417825E-05
   1.44999998E-03   1.83655102E-05
   1.50000001E-03   1.84879045E-05
   1.55000004E-03   1.86089110E-05
   1.59999996E-03   1.87284750E-05
   1.64999999E-03   1.88465510E-05
   1.70000002E-03   1.89630900E-05
   1.75000005E-03   1.90780320E-05
   1.79999997E-03   1.91913059E-05
   1.85000000E-03   1.93028372E-05
   1.90000003E-03   1.94125423E-05
   1.94999995E-03   1.95203465E-05
   2.00000009E-03   1.96261790E-05
   2.05000001E-03   1.97299833E-05
   2.09999993E-03   1.98317066E-05
   2.15000007E-03   1.99312926E-05
   2.19999999E-03   2.00286777E-05
   2.24999990E-03   2.01237854E-05
   2.30000005E-03   2.02165302E-05
   2.34999997E-03   2.03068212E-05
   2.40000011E-03   2.03945692E-05
   2.45000003E-03   2.04796997E-05
   2.49999994E-03   2.05621436E-05
   2.55000009E-03   2.06418390E-05
   2.60000001E-03   2.07187259E-05
   2.64999992E-03   2.07927351E-05
   2.70000007E-03   2.08637848E-05
   2.74999999E-03   2.09317805E-05
   2.79999990E-03   2.09966202E-05