  -3.99999991E-02   0.00000000    
  -3.99499983E-02   0.00000000    
  -3.99000011E-02   0.00000000    
  -3.98500003E-02  -1.04406880E-15
  -3.97999994E-02  -4.82603163E-15
  -3.97499986E-02  -7.34252204E-15
  -3.97000015E-02   6.93494504E-15
  -3.96500006E-02   5.80590602E-14
  -3.95999998E-02   1.56594654E-13
  -3.95499989E-02   3.06640184E-13
  -3.95000018E-02   5.27885407E-13
  -3.94500010E-02   8.54013746E-13
  -3.94000001E-02   1.27266058E-12
  -3.93499993E-02   1.65591239E-12
  -3.92999984E-02   1.79047359E-12
  -3.92500013E-02   1.53867695E-12
  -3.92000005E-02   9.95209449E-13
  -3.91499996E-02   4.53501196E-13
  -3.90999988E-02   1.69363858E-13
  -3.90500017E-02   1.37260103E-13
  -3.90000008E-02   9.42772268E-14
  -3.89500000E-02  -2.90992680E-13
  -3.88999991E-02  -1.29225623E-12
  -3.88499983E-02  -3.18415953E-12
  -3.88000011E-02  -6.30029579E-12
  -3.87500003E-02  -1.08496051E-11
  -3.86999995E-02  -1.65978967E-11
  -3.86499986E-02  -2.28572196E-11
  -3.86000015E-02  -2.90343756E-11
  -3.85500006E-02  -3.53612105E-11
  -3.84999998E-02  -4.30767505E-11
  -3.84499989E-02  -5.37685764E-11
  -3.84000018E-02  -6.84146143E-11
  -3.83500010E-02  -8.69634503E-11
  -3.83000001E-02  -1.08687365E-10
  -3.82499993E-02  -1.32740624E-10
  -3.81999984E-02  -1.58317526E-10
  -3.81500013E-02  -1.84541202E-10
  -3.81000005E-02  -2.10714043E-10
  -3.80499996E-02  -2.37070225E-10
  -3.79999988E-02  -2.65245825E-10
  -3.79500017E-02  -2.97595226E-10
  -3.79000008E-02  -3.35601713E-10
  -3.78500000E-02  -3.78771903E-10
  -3.77999991E-02  -4.25125213E-10
  -3.77499983E-02  -4.72819672E-10
  -3.77000012E-02  -5.21305610E-10
  -3.76500003E-02  -5.70996639E-10
  -3.75999995E-02  -6.22124741E-10
  -3.75499986E-02  -6.74222012E-10
  -3.75000015E-02  -7.26658900E-10
  -3.74500006E-02  -7.79196818E-10
  -3.73999998E-02  -8.31489155E-10
  -3.73499990E-02  -8.81963946E-10
  -3.73000018E-02  -9.27627586E-10
  -3.72500010E-02  -9.65438063E-10
  -3.72000001E-02  -9.93930938E-10
  -3.71499993E-02  -1.01321218E-09
  -3.70999984E-02  -1.02319009E-09
  -3.70500013E-02  -1.02211484E-09
  -3.70000005E-02  -1.00739717E-09
  -3.69499996E-02  -9.78183423E-10
  -3.68999988E-02  -9.36990374E-10
  -3.68500017E-02  -8.88416007E-10
  -3.68000008E-02  -8.35829073E-10
  -3.67500000E-02  -7.78794473E-10
  -3.66999991E-02  -7.12903847E-10
  -3.66499983E-02  -6.31205588E-10
  -3.66000012E-02  -5.25594679E-10
  -3.65500003E-02  -3.88019950E-10
  -3.64999995E-02  -2.12740825E-10
  -3.64499986E-02   3.56189009E-13
  -3.64000015E-02   2.43976089E-10
  -3.63500006E-02   5.06216569E-10
  -3.62999998E-02   7.77672426E-10
  -3.62499990E-02   1.05815368E-09
  -3.62000018E-02   1.35758327E-09
  -3.61500010E-02   1.68973968E-09
  -3.61000001E-02   2.06289963E-09
  -3.60499993E-02   2.47326826E-09
  -3.59999985E-02   2.90443647E-09
  -3.59500013E-02   3.33235040E-09
  -3.59000005E-02   3.73365694E-09
  -3.58499996E-02   4.09546796E-09
  -3.57999988E-02   4.42379422E-09
  -3.57500017E-02   4.74588235E-09
  -3.57000008E-02   5.10174036E-09
  -3.56500000E-02   5.52523804E-09
  -3.55999991E-02   6.02316907E-09
  -3.55499983E-02   6.56487575E-09
  -3.55000012E-02   7.09053749E-09
  -3.54500003E-02   7.53542917E-09
  -3.53999995E-02   7.85812126E-09
  -3.53499986E-02   8.05882561E-09
  -3.53000015E-02   8.17970669E-09
  -3.52500007E-02   8.28687785E-09
  -3.51999998E-02   8.44002201E-09
  -3.51499990E-02   8.66043415E-09
  -3.51000018E-02   8.91125129E-09
  -3.50500010E-02   9.10240239E-09
  -3.50000001E-02   9.12389897E-09
  -3.49499993E-02   8.89574725E-09
  -3.48999985E-02   8.41009928E-09
  -3.48500013E-02   7.74153097E-09
  -3.48000005E-02   7.01647895E-09
  -3.47499996E-02   6.35465724E-09
  -3.46999988E-02   5.81021231E-09
  -3.46500017E-02   5.34049072E-09
  -3.46000008E-02   4.81760942E-09
  -3.45500000E-02   4.08004164E-09
  -3.44999991E-02   3.00505865E-09
  -3.44499983E-02   1.57199587E-09
  -3.44000012E-02  -1.14816122E-10
  -3.43500003E-02  -1.86137328E-09
  -3.42999995E-02  -3.46942719E-09
  -3.42499986E-02  -4.83527751E-09
  -3.42000015E-02  -6.01191230E-09
  -3.41500007E-02  -7.19786764E-09
  -3.40999998E-02  -8.65154259E-09
  -3.40499990E-02  -1.05682503E-08
  -3.40000018E-02  -1.29770976E-08
  -3.39500010E-02  -1.57070943E-08
  -3.39000002E-02  -1.84422966E-08
  -3.38499993E-02  -2.08478177E-08
  -3.37999985E-02  -2.27163230E-08
  -3.37500013E-02  -2.40701503E-08
  -3.37000005E-02  -2.51659458E-08
  -3.36499996E-02  -2.63871716E-08
  -3.35999988E-02  -2.80634804E-08
  -3.35500017E-02  -3.02985868E-08
  -3.35000008E-02  -3.28935137E-08
  -3.34500000E-02  -3.54113396E-08
  -3.33999991E-02  -3.73613851E-08
  -3.33499983E-02  -3.84210246E-08
  -3.33000012E-02  -3.85922050E-08
  -3.32500003E-02  -3.82169532E-08
  -3.31999995E-02  -3.78366494E-08
  -3.31499986E-02  -3.79483289E-08
  -3.31000015E-02  -3.87610761E-08
  -3.30500007E-02  -4.00650215E-08
  -3.29999998E-02  -4.12857091E-08
  -3.29499990E-02  -4.17166746E-08
  -3.29000019E-02  -4.08349656E-08
  -3.28500010E-02  -3.85523826E-08
  -3.28000002E-02  -3.52754093E-08
  -3.27499993E-02  -3.17332507E-08
  -3.26999985E-02  -2.86450135E-08
  -3.26500013E-02  -2.63774673E-08
  -3.26000005E-02  -2.47529002E-08
  -3.25499997E-02  -2.31020874E-08
  -3.24999988E-02  -2.05514876E-08
  -3.24500017E-02  -1.64276397E-08
  -3.24000008E-02  -1.06001350E-08
  -3.23500000E-02  -3.59689323E-09
  -3.22999991E-02   3.58399199E-09
  -3.22499983E-02   9.90222038E-09
  -3.22000012E-02   1.47562185E-08
  -3.21500003E-02   1.82879631E-08
  -3.20999995E-02   2.13536353E-08
  -3.20499986E-02   2.51560124E-08
  -3.20000015E-02   3.06960750E-08
  -3.19500007E-02   3.82911018E-08
  -3.18999998E-02   4.73819348E-08
  -3.18499990E-02   5.67302543E-08
  -3.18000019E-02   6.49364367E-08
  -3.17500010E-02   7.10604340E-08
  -3.17000002E-02   7.50668718E-08
  -3.16499993E-02   7.78744251E-08
  -3.15999985E-02   8.09595377E-08
  -3.15500014E-02   8.56725464E-08
  -3.15000005E-02   9.25751138E-08
  -3.14499997E-02   1.01116314E-07
  -3.13999988E-02   1.09815723E-07
  -3.13500017E-02   1.16887470E-07
  -3.13000008E-02   1.21030638E-07
  -3.12500000E-02   1.22028624E-07
  -3.11999992E-02   1.20878141E-07
  -3.11500002E-02   1.19371151E-07
  -3.10999993E-02   1.19292977E-07
  -3.10500003E-02   1.21583568E-07
  -3.09999995E-02   1.25846981E-07
  -3.09500005E-02   1.30458758E-07
  -3.08999997E-02   1.33254332E-07
  -3.08500007E-02   1.32503089E-07
  -3.07999998E-02   1.27720668E-07
  -3.07500008E-02   1.19931002E-07
  -3.07000000E-02   1.11236339E-07
  -3.06499992E-02   1.03874036E-07
  -3.06000002E-02   9.91801983E-08
  -3.05499993E-02   9.69306839E-08
  -3.05000003E-02   9.53720587E-08
  -3.04499995E-02   9.19542913E-08
  -3.04000005E-02   8.44662935E-08
  -3.03499997E-02   7.20760553E-08
  -3.03000007E-02   5.57875204E-08
  -3.02499998E-02   3.80722120E-08
  -3.02000009E-02   2.18060556E-08
  -3.01500000E-02   8.98161101E-09
  -3.00999992E-02  -2.12265497E-10
  -3.00500002E-02  -7.50967200E-09
  -2.99999993E-02  -1.58084141E-08
  -2.99500003E-02  -2.78607502E-08
  -2.98999995E-02  -4.49934170E-08
  -2.98500005E-02  -6.64323068E-08
  -2.97999997E-02  -8.95564227E-08
  -2.97500007E-02  -1.10998222E-07
  -2.96999998E-02  -1.28124981E-07
  -2.96500009E-02  -1.40245632E-07
  -2.96000000E-02  -1.48970969E-07
  -2.95499992E-02  -1.57526358E-07
  -2.95000002E-02  -1.69301799E-07
  -2.94499993E-02  -1.86283387E-07
  -2.94000003E-02  -2.08084046E-07
  -2.93499995E-02  -2.32027233E-07
  -2.93000005E-02  -2.54260982E-07
  -2.92499997E-02  -2.71418685E-07
  -2.92000007E-02  -2.82095243E-07
  -2.91499998E-02  -2.87475103E-07
  -2.91000009E-02  -2.90808003E-07
  -2.90500000E-02  -2.95933489E-07
  -2.89999992E-02  -3.05493472E-07
  -2.89500002E-02  -3.19640037E-07
  -2.88999993E-02  -3.35849052E-07
  -2.88500004E-02  -3.49960629E-07
  -2.87999995E-02  -3.57999511E-07
  -2.87500005E-02  -3.57958072E-07
  -2.86999997E-02  -3.50729721E-07
  -2.86500007E-02  -3.39757065E-07
  -2.85999998E-02  -3.29529115E-07
  -2.85500009E-02  -3.23576387E-07
  -2.85000000E-02  -3.22841572E-07
  -2.84499992E-02  -3.25162432E-07
  -2.84000002E-02  -3.26131698E-07
  -2.83499993E-02  -3.20986572E-07
  -2.83000004E-02  -3.06713275E-07
  -2.82499995E-02  -2.83425464E-07
  -2.82000005E-02  -2.54368132E-07
  -2.81499997E-02  -2.24516043E-07
  -2.81000007E-02  -1.98376995E-07
  -2.80499998E-02  -1.77974641E-07
  -2.80000009E-02  -1.61915025E-07
  -2.79500000E-02  -1.45969338E-07
  -2.78999992E-02  -1.24928036E-07
  -2.78500002E-02  -9.49325170E-08
  -2.77999993E-02  -5.52730128E-08
  -2.77500004E-02  -8.83597107E-09
  -2.76999995E-02   3.90368911E-08
  -2.76500005E-02   8.28109563E-08
  -2.75999997E-02   1.19153668E-07
  -2.75500007E-02   1.48398769E-07
  -2.74999999E-02   1.74404164E-07
  -2.74500009E-02   2.02832112E-07
  -2.74000000E-02   2.38598858E-07
  -2.73499992E-02   2.83615435E-07
  -2.73000002E-02   3.35831658E-07
  -2.72499993E-02   3.90012559E-07
  -2.72000004E-02   4.39923781E-07
  -2.71499995E-02   4.80999802E-07
  -2.71000005E-02   5.12333543E-07
  -2.70499997E-02   5.37089079E-07
  -2.70000007E-02   5.61105139E-07
  -2.69499999E-02   5.90261834E-07
  -2.69000009E-02   6.27757800E-07
  -2.68500000E-02   6.72520514E-07
  -2.67999992E-02   7.19493016E-07
  -2.67500002E-02   7.61702893E-07
  -2.66999993E-02   7.93221602E-07
  -2.66500004E-02   8.11722430E-07
  -2.65999995E-02   8.19506965E-07
  -2.65500005E-02   8.22525976E-07
  -2.64999997E-02   8.27775352E-07
  -2.64500007E-02   8.40163409E-07
  -2.63999999E-02   8.60211230E-07
  -2.63500009E-02   8.83632595E-07
  -2.63000000E-02   9.03048885E-07
  -2.62499992E-02   9.11144355E-07
  -2.62000002E-02   9.03882039E-07
  -2.61499994E-02   8.82346455E-07
  -2.61000004E-02   8.52359676E-07
  -2.60499995E-02   8.21993467E-07
  -2.60000005E-02   7.98045903E-07
  -2.59499997E-02   7.82997176E-07
  -2.59000007E-02   7.73784620E-07
  -2.58499999E-02   7.62986986E-07
  -2.58000009E-02   7.41966403E-07
  -2.57500000E-02   7.04645799E-07
  -2.56999992E-02   6.50277741E-07
  -2.56500002E-02   5.83929648E-07
  -2.55999994E-02   5.14392070E-07
  -2.55500004E-02   4.50386779E-07
  -2.54999995E-02   3.96716501E-07
  -2.54500005E-02   3.52092115E-07
  -2.53999997E-02   3.09631872E-07
  -2.53500007E-02   2.59867249E-07
  -2.52999999E-02   1.94990022E-07
  -2.52500009E-02   1.12456675E-07
  -2.52000000E-02   1.63517697E-08
  -2.51499992E-02  -8.41512175E-08
  -2.51000002E-02  -1.78659278E-07
  -2.50499994E-02  -2.60123670E-07
  -2.50000004E-02  -3.28066164E-07
  -2.49499995E-02  -3.88954248E-07
  -2.49000005E-02  -4.53453794E-07
  -2.48499997E-02  -5.31698959E-07
  -2.48000007E-02  -6.28663827E-07
  -2.47499999E-02  -7.41724477E-07
  -2.47000009E-02  -8.61551712E-07
  -2.46500000E-02  -9.76009574E-07
  -2.45999992E-02  -1.07540438E-06
  -2.45500002E-02  -1.15678949E-06
  -2.44999994E-02  -1.22537028E-06
  -2.44500004E-02  -1.29230739E-06
  -2.43999995E-02  -1.36976780E-06
  -2.43500005E-02  -1.46533853E-06
  -2.42999997E-02  -1.57833142E-06
  -2.42500007E-02  -1.69973259E-06
  -2.41999999E-02  -1.81593771E-06
  -2.41500009E-02  -1.91468212E-06
  -2.41000000E-02  -1.99052738E-06
  -2.40499992E-02  -2.04742173E-06
  -2.40000002E-02  -2.09712016E-06
  -2.39499994E-02  -2.15408454E-06
  -2.39000004E-02  -2.22904646E-06
  -2.38499995E-02  -2.32406046E-06
  -2.38000005E-02  -2.43130103E-06
  -2.37499997E-02  -2.53627923E-06
  -2.37000007E-02  -2.62417984E-06
  -2.36499999E-02  -2.68652639E-06
  -2.36000009E-02  -2.72514853E-06
  -2.35500000E-02  -2.75154798E-06
  -2.34999992E-02  -2.78185803E-06
  -2.34500002E-02  -2.82962219E-06
  -2.33999994E-02  -2.89960485E-06
  -2.33500004E-02  -2.98544865E-06
  -2.32999995E-02  -3.07232222E-06
  -2.32500006E-02  -3.14346084E-06
  -2.31999997E-02  -3.18776210E-06
  -2.31500007E-02  -3.20504637E-06
  -2.30999999E-02  -3.20649815E-06
  -2.30500009E-02  -3.20996060E-06
  -2.30000000E-02  -3.23205245E-06
  -2.29499992E-02  -3.28064334E-06
  -2.29000002E-02  -3.35117738E-06
  -2.28499994E-02  -3.42859539E-06
  -2.28000004E-02  -3.49408174E-06
  -2.27499995E-02  -3.53363885E-06
  -2.27000006E-02  -3.54466738E-06
  -2.26499997E-02  -3.53751625E-06
  -2.26000007E-02  -3.53120140E-06
  -2.25499999E-02  -3.54511485E-06
  -2.25000009E-02  -3.59034379E-06
  -2.24500000E-02  -3.66452082E-06
  -2.23999992E-02  -3.75265859E-06
  -2.23500002E-02  -3.83380075E-06
  -2.22999994E-02  -3.89053503E-06
  -2.22500004E-02  -3.91708136E-06
  -2.21999995E-02  -3.92221727E-06
  -2.21500006E-02  -3.92559605E-06
  -2.20999997E-02  -3.94915787E-06
  -2.20500007E-02  -4.00743284E-06
  -2.19999999E-02  -4.10100074E-06
  -2.19500009E-02  -4.21617142E-06
  -2.19000001E-02  -4.33112928E-06
  -2.18499992E-02  -4.42585906E-06
  -2.18000002E-02  -4.49150730E-06
  -2.17499994E-02  -4.53478242E-06
  -2.17000004E-02  -4.57522492E-06
  -2.16499995E-02  -4.63663036E-06
  -2.16000006E-02  -4.73636646E-06
  -2.15499997E-02  -4.87740863E-06
  -2.15000007E-02  -5.04684976E-06
  -2.14499999E-02  -5.22170330E-06
  -2.14000009E-02  -5.37930873E-06
  -2.13500001E-02  -5.50766299E-06
  -2.12999992E-02  -5.61108163E-06
  -2.12500002E-02  -5.70856082E-06
  -2.11999994E-02  -5.82550365E-06
  -2.11500004E-02  -5.98236193E-06
  -2.10999995E-02  -6.18533750E-06
  -2.10500006E-02  -6.42349414E-06
  -2.09999997E-02  -6.67374752E-06
  -2.09500007E-02  -6.91142168E-06
  -2.08999999E-02  -7.12161409E-06
  -2.08500009E-02  -7.30632883E-06
  -2.08000001E-02  -7.48386037E-06
  -2.07499992E-02  -7.68067912E-06
  -2.07000002E-02  -7.91963248E-06
  -2.06499994E-02  -8.20964578E-06
  -2.06000004E-02  -8.54146219E-06
  -2.05499995E-02  -8.89173953E-06
  -2.05000006E-02  -9.23357129E-06
  -2.04499997E-02  -9.54876123E-06
  -2.04000007E-02  -9.83641712E-06
  -2.03499999E-02  -1.01136275E-05
  -2.03000009E-02  -1.04079527E-05
  -2.02500001E-02  -1.07452752E-05
  -2.01999992E-02  -1.11383160E-05
  -2.01500002E-02  -1.15809407E-05
  -2.00999994E-02  -1.20510440E-05
  -2.00500004E-02  -1.25207926E-05
  -1.99999996E-02  -1.29694890E-05
  -1.99500006E-02  -1.33931007E-05
  -1.98999997E-02  -1.38062642E-05
  -1.98500007E-02  -1.42360186E-05
  -1.97999999E-02  -1.47096880E-05
  -1.97500009E-02  -1.52424545E-05
  -1.97000001E-02  -1.58304774E-05
  -1.96499992E-02  -1.64526227E-05
  -1.96000002E-02  -1.70801504E-05
  -1.95499994E-02  -1.76900539E-05
  -1.95000004E-02  -1.82757231E-05
  -1.94499996E-02  -1.88500380E-05
  -1.94000006E-02  -1.94397653E-05
  -1.93499997E-02  -2.00736376E-05
  -1.93000007E-02  -2.07695211E-05
  -1.92499999E-02  -2.15263844E-05
  -1.92000009E-02  -2.23245770E-05
  -1.91500001E-02  -2.31348658E-05
  -1.90999992E-02  -2.39322799E-05
  -1.90500002E-02  -2.47073076E-05
  -1.89999994E-02  -2.54704573E-05
  -1.89500004E-02  -2.62479207E-05
  -1.88999996E-02  -2.70697037E-05
  -1.88500006E-02  -2.79562919E-05
  -1.87999997E-02  -2.89092204E-05
  -1.87500007E-02  -2.99104158E-05
  -1.86999999E-02  -3.09304341E-05
  -1.86500009E-02  -3.19419487E-05
  -1.86000001E-02  -3.29321010E-05
  -1.85499992E-02  -3.39084327E-05
  -1.85000002E-02  -3.48954527E-05
  -1.84499994E-02  -3.59236583E-05
  -1.84000004E-02  -3.70156449E-05
  -1.83499996E-02  -3.81759492E-05
  -1.83000006E-02  -3.93890332E-05
  -1.82499997E-02  -4.06260115E-05
  -1.82000007E-02  -4.18584059E-05
  -1.81499999E-02  -4.30711261E-05
  -1.81000009E-02  -4.42692217E-05
  -1.80500001E-02  -4.54754409E-05
  -1.79999992E-02  -4.67204263E-05
  -1.79500002E-02  -4.80289273E-05
  -1.78999994E-02  -4.94082633E-05
  -1.78500004E-02  -5.08451230E-05
  -1.77999996E-02  -5.23112831E-05
  -1.77500006E-02  -5.37766537E-05
  -1.76999997E-02  -5.52229430E-05
  -1.76500008E-02  -5.66517920E-05
  -1.75999999E-02  -5.80837550E-05
  -1.75500009E-02  -5.95490274E-05
  -1.75000001E-02  -6.10735151E-05
  -1.74499992E-02  -6.26667024E-05
  -1.74000002E-02  -6.43170933E-05
  -1.73499994E-02  -6.59977522E-05
  -1.73000004E-02  -6.76794734E-05
  -1.72499996E-02  -6.93433685E-05
  -1.72000006E-02  -7.09892993E-05
  -1.71499997E-02  -7.26367143E-05
  -1.71000008E-02  -7.43166165E-05
  -1.70499999E-02  -7.60577532E-05
  -1.70000009E-02  -7.78729736E-05
  -1.69500001E-02  -7.97536341E-05
  -1.68999992E-02  -8.16737738E-05
  -1.68500002E-02  -8.36018662E-05
  -1.67999994E-02  -8.55153630E-05
  -1.67500004E-02  -8.74115067E-05
  -1.66999996E-02  -8.93082470E-05
  -1.66500006E-02  -9.12354808E-05
  -1.65999997E-02  -9.32223556E-05
  -1.65500008E-02  -9.52859191E-05
  -1.64999999E-02  -9.74228460E-05
  -1.64500009E-02  -9.96103336E-05
  -1.64000001E-02  -1.01817968E-04
  -1.63499992E-02  -1.04022525E-04
  -1.63000003E-02  -1.06219995E-04
  -1.62499994E-02  -1.08427703E-04
  -1.62000004E-02  -1.10676825E-04
  -1.61499996E-02  -1.12998365E-04
  -1.61000006E-02  -1.15410192E-04
  -1.60499997E-02  -1.17911084E-04
  -1.60000008E-02  -1.20482240E-04
  -1.59499999E-02  -1.23095771E-04
  -1.59000009E-02  -1.25726481E-04
  -1.58500001E-02  -1.28365326E-04
  -1.57999992E-02  -1.31027366E-04
  -1.57500003E-02  -1.33745809E-04
  -1.56999994E-02  -1.36555958E-04
  -1.56500004E-02  -1.39479365E-04
  -1.55999996E-02  -1.42516787E-04
  -1.55499997E-02  -1.45651211E-04
  -1.54999997E-02  -1.48855674E-04
  -1.54499998E-02  -1.52106470E-04
  -1.53999999E-02  -1.55395814E-04
  -1.53500000E-02  -1.58735362E-04
  -1.53000001E-02  -1.62155018E-04
  -1.52500002E-02  -1.65693840E-04
  -1.52000003E-02  -1.69378938E-04
  -1.51500003E-02  -1.73214343E-04
  -1.51000004E-02  -1.77183902E-04
  -1.50499996E-02  -1.81259558E-04
  -1.49999997E-02  -1.85415382E-04
  -1.49499997E-02  -1.89642014E-04
  -1.48999998E-02  -1.93951360E-04
  -1.48499999E-02  -1.98372232E-04
  -1.48000000E-02  -2.02941083E-04
  -1.47500001E-02  -2.07688892E-04
  -1.47000002E-02  -2.12625848E-04
  -1.46500003E-02  -2.17738285E-04
  -1.46000003E-02  -2.22998875E-04
  -1.45500004E-02  -2.28378995E-04
  -1.44999996E-02  -2.33865241E-04
  -1.44499997E-02  -2.39467292E-04
  -1.43999998E-02  -2.45214178E-04
  -1.43499998E-02  -2.51142832E-04
  -1.42999999E-02  -2.57284089E-04
  -1.42500000E-02  -2.63651251E-04
  -1.42000001E-02  -2.70236371E-04
  -1.41500002E-02  -2.77012616E-04
  -1.41000003E-02  -2.83948757E-04
  -1.40500003E-02  -2.91028759E-04
  -1.40000004E-02  -2.98259867E-04
  -1.39499996E-02  -3.05670022E-04
  -1.38999997E-02  -3.13296710E-04
  -1.38499998E-02  -3.21170228E-04
  -1.37999998E-02  -3.29303992E-04
  -1.37499999E-02  -3.37689155E-04
  -1.37000000E-02  -3.46299959E-04
  -1.36500001E-02  -3.55108146E-04
  -1.36000002E-02  -3.64093139E-04
  -1.35500003E-02  -3.73252551E-04
  -1.35000004E-02  -3.82611179E-04
  -1.34500004E-02  -3.92213959E-04
  -1.33999996E-02  -4.02099598E-04
  -1.33499997E-02  -4.12283960E-04
  -1.32999998E-02  -4.22757352E-04
  -1.32499998E-02  -4.33490350E-04
  -1.31999999E-02  -4.44449252E-04
  -1.31500000E-02  -4.55613626E-04
  -1.31000001E-02  -4.66984726E-04
  -1.30500002E-02  -4.78582020E-04
  -1.30000003E-02  -4.90438018E-04
  -1.29500004E-02  -5.02589974E-04
  -1.29000004E-02  -5.15062711E-04
  -1.28499996E-02  -5.27852972E-04
  -1.27999997E-02  -5.40931593E-04
  -1.27499998E-02  -5.54258586E-04
  -1.26999998E-02  -5.67807467E-04
  -1.26499999E-02  -5.81579399E-04
  -1.26000000E-02  -5.95593359E-04
  -1.25500001E-02  -6.09881303E-04
  -1.25000002E-02  -6.24478387E-04
  -1.24500003E-02  -6.39408594E-04
  -1.24000004E-02  -6.54676172E-04
  -1.23500004E-02  -6.70256617E-04
  -1.22999996E-02  -6.86110114E-04
  -1.22499997E-02  -7.02206744E-04
  -1.21999998E-02  -7.18546333E-04
  -1.21499998E-02  -7.35156063E-04
  -1.20999999E-02  -7.52077554E-04
  -1.20500000E-02  -7.69341656E-04
  -1.20000001E-02  -7.86959368E-04
  -1.19500002E-02  -8.04931740E-04
  -1.19000003E-02  -8.23238632E-04
  -1.18500004E-02  -8.41847737E-04
  -1.18000004E-02  -8.60718777E-04
  -1.17499996E-02  -8.79818748E-04
  -1.16999997E-02  -8.99154460E-04
  -1.16499998E-02  -9.18775622E-04
  -1.15999999E-02  -9.38741781E-04
  -1.15499999E-02  -9.59087745E-04
  -1.15000000E-02  -9.79817123E-04
  -1.14500001E-02  -1.00090983E-03
  -1.14000002E-02  -1.02234201E-03
  -1.13500003E-02  -1.04409852E-03
  -1.13000004E-02  -1.06618053E-03
  -1.12500004E-02  -1.08859607E-03
  -1.11999996E-02  -1.11135945E-03
  -1.11499997E-02  -1.13450084E-03
  -1.10999998E-02  -1.15805294E-03
  -1.10499999E-02  -1.18201831E-03
  -1.09999999E-02  -1.20635843E-03
  -1.09500000E-02  -1.23101706E-03
  -1.09000001E-02  -1.25593937E-03
  -1.08500002E-02  -1.28111325E-03
  -1.08000003E-02  -1.30657840E-03
  -1.07500004E-02  -1.33238314E-03
  -1.07000005E-02  -1.35857041E-03
  -1.06499996E-02  -1.38518284E-03
  -1.05999997E-02  -1.41224742E-03
  -1.05499998E-02  -1.43978314E-03
  -1.04999999E-02  -1.46778894E-03
  -1.04499999E-02  -1.49622315E-03
  -1.04000000E-02  -1.52504863E-03
  -1.03500001E-02  -1.55426585E-03
  -1.03000002E-02  -1.58391113E-03
  -1.02500003E-02  -1.61403301E-03
  -1.02000004E-02  -1.64464721E-03
  -1.01500005E-02  -1.67573080E-03
  -1.00999996E-02  -1.70724862E-03
  -1.00499997E-02  -1.73918216E-03
  -9.99999978E-03  -1.77151687E-03
  -9.94999986E-03  -1.80422235E-03
  -9.89999995E-03  -1.83727709E-03
  -9.85000003E-03  -1.87069946E-03
  -9.80000012E-03  -1.90456561E-03
  -9.75000020E-03  -1.93896936E-03
  -9.70000029E-03  -1.97392819E-03
  -9.65000037E-03  -2.00939272E-03
  -9.60000046E-03  -2.04532454E-03
  -9.54999961E-03  -2.08173296E-03
  -9.49999969E-03  -2.11864803E-03
  -9.44999978E-03  -2.15608720E-03
  -9.39999986E-03  -2.19404581E-03
  -9.34999995E-03  -2.23254110E-03
  -9.30000003E-03  -2.27165781E-03
  -9.25000012E-03  -2.31145462E-03
  -9.20000020E-03  -2.35192105E-03
  -9.15000029E-03  -2.39299494E-03
  -9.10000037E-03  -2.43459083E-03
  -9.05000046E-03  -2.47668405E-03
  -8.99999961E-03  -2.51930906E-03
  -8.94999970E-03  -2.56250100E-03
  -8.89999978E-03  -2.60626129E-03
  -8.84999987E-03  -2.65060249E-03
  -8.79999995E-03  -2.69553298E-03
  -8.75000004E-03  -2.74106092E-03
  -8.70000012E-03  -2.78723449E-03
  -8.65000021E-03  -2.83405581E-03
  -8.60000029E-03  -2.88145570E-03
  -8.55000038E-03  -2.92938855E-03
  -8.50000046E-03  -2.97791744E-03
  -8.44999962E-03  -3.02716927E-03
  -8.39999970E-03  -3.07724602E-03
  -8.34999979E-03  -3.12815420E-03
  -8.29999987E-03  -3.17983283E-03
  -8.24999996E-03  -3.23221553E-03
  -8.20000004E-03  -3.28530674E-03
  -8.15000013E-03  -3.33918515E-03
  -8.10000021E-03  -3.39388265E-03
  -8.05000030E-03  -3.44930310E-03
  -8.00000038E-03  -3.50541249E-03
  -7.95000046E-03  -3.56232235E-03
  -7.89999962E-03  -3.62016144E-03
  -7.84999970E-03  -3.67894908E-03
  -7.79999979E-03  -3.73856537E-03
  -7.74999987E-03  -3.79889156E-03
  -7.69999996E-03  -3.85994511E-03
  -7.65000004E-03  -3.92181380E-03
  -7.60000013E-03  -3.98456445E-03
  -7.55000021E-03  -4.04822081E-03
  -7.49999983E-03  -4.11274284E-03
  -7.44999992E-03  -4.17811377E-03
  -7.40000000E-03  -4.24440438E-03
  -7.35000009E-03  -4.31173993E-03
  -7.30000017E-03  -4.38010693E-03
  -7.24999979E-03  -4.44933074E-03
  -7.19999988E-03  -4.51933686E-03
  -7.14999996E-03  -4.59023565E-03
  -7.10000005E-03  -4.66224086E-03
  -7.05000013E-03  -4.73546283E-03
  -7.00000022E-03  -4.80981031E-03
  -6.94999984E-03  -4.88514081E-03
  -6.89999992E-03  -4.96147154E-03
  -6.85000001E-03  -5.03896270E-03
  -6.80000009E-03  -5.11768274E-03
  -6.75000018E-03  -5.19752316E-03
  -6.69999979E-03  -5.27833356E-03
  -6.64999988E-03  -5.36008971E-03
  -6.59999996E-03  -5.44300629E-03
  -6.55000005E-03  -5.52729284E-03
  -6.50000013E-03  -5.61290095E-03
  -6.45000022E-03  -5.69962617E-03
  -6.39999984E-03  -5.78727107E-03
  -6.34999992E-03  -5.87587385E-03
  -6.30000001E-03  -5.96570643E-03
  -6.25000009E-03  -6.05691969E-03
  -6.20000018E-03  -6.14936976E-03
  -6.14999980E-03  -6.24287641E-03
  -6.09999988E-03  -6.33751461E-03
  -6.04999997E-03  -6.43354841E-03
  -6.00000005E-03  -6.53109094E-03
  -5.95000014E-03  -6.62999228E-03
  -5.90000022E-03  -6.73002563E-03
  -5.84999984E-03  -6.83116447E-03
  -5.79999993E-03  -6.93363138E-03
  -5.75000001E-03  -7.03764753E-03
  -5.70000010E-03  -7.14318175E-03
  -5.65000018E-03  -7.25011434E-03
  -5.59999980E-03  -7.35840900E-03
  -5.54999989E-03  -7.46808946E-03
  -5.49999997E-03  -7.57924188E-03
  -5.45000006E-03  -7.69178150E-03
  -5.40000014E-03  -7.80553138E-03
  -5.35000023E-03  -7.92052411E-03
  -5.29999984E-03  -8.03686120E-03
  -5.24999993E-03  -8.15463439E-03
  -5.20000001E-03  -8.27394146E-03
  -5.15000010E-03  -8.39472562E-03
  -5.10000018E-03  -8.51683412E-03
  -5.04999980E-03  -8.64017289E-03
  -4.99999989E-03  -8.76478571E-03
  -4.94999997E-03  -8.89080670E-03
  -4.90000006E-03  -9.01836343E-03
  -4.85000014E-03  -9.14751180E-03
  -4.80000023E-03  -9.27818473E-03
  -4.74999985E-03  -9.41034779E-03
  -4.69999993E-03  -9.54414811E-03
  -4.65000002E-03  -9.67972819E-03
  -4.60000010E-03  -9.81695764E-03
  -4.55000019E-03  -9.95555241E-03
  -4.49999981E-03  -1.00954445E-02
  -4.44999989E-03  -1.02367811E-02
  -4.39999998E-03  -1.03796953E-02
  -4.35000006E-03  -1.05242105E-02
  -4.30000015E-03  -1.06703201E-02
  -4.25000023E-03  -1.08179254E-02
  -4.19999985E-03  -1.09670069E-02
  -4.14999994E-03  -1.11175235E-02
  -4.10000002E-03  -1.12693915E-02
  -4.05000011E-03  -1.14226947E-02
  -4.00000019E-03  -1.15773501E-02
  -3.94999981E-03  -1.17334230E-02
  -3.89999989E-03  -1.18911844E-02
  -3.84999998E-03  -1.20507507E-02
  -3.80000006E-03  -1.22120818E-02
  -3.74999992E-03  -1.23748956E-02
  -3.70000000E-03  -1.25391362E-02
  -3.65000009E-03  -1.27049759E-02
  -3.59999994E-03  -1.28723746E-02
  -3.55000002E-03  -1.30412159E-02
  -3.50000011E-03  -1.32115604E-02
  -3.44999996E-03  -1.33836484E-02
  -3.40000005E-03  -1.35575486E-02
  -3.34999990E-03  -1.37332240E-02
  -3.29999998E-03  -1.39106009E-02
  -3.25000007E-03  -1.40894959E-02
  -3.19999992E-03  -1.42697096E-02
  -3.15000000E-03  -1.44513641E-02
  -3.10000009E-03  -1.46345533E-02
  -3.04999994E-03  -1.48192290E-02
  -3.00000003E-03  -1.50055913E-02
  -2.95000011E-03  -1.51937744E-02
  -2.89999996E-03  -1.53836319E-02
  -2.85000005E-03  -1.55750476E-02
  -2.79999990E-03  -1.57681070E-02
  -2.74999999E-03  -1.59625914E-02
  -2.70000007E-03  -1.61582287E-02
  -2.64999992E-03  -1.63552873E-02
  -2.60000001E-03  -1.65539738E-02
  -2.55000009E-03  -1.67543851E-02
  -2.49999994E-03  -1.69566944E-02
  -2.45000003E-03  -1.71607137E-02
  -2.40000011E-03  -1.73664596E-02
  -2.34999997E-03  -1.75741389E-02
  -2.30000005E-03  -1.77834835E-02
  -2.24999990E-03  -1.79940946E-02
  -2.19999999E-03  -1.82059407E-02
  -2.15000007E-03  -1.84193626E-02
  -2.09999993E-03  -1.86346713E-02
  -2.05000001E-03  -1.88519638E-02
  -2.00000009E-03  -1.90710537E-02
  -1.94999995E-03  -1.92917380E-02
  -1.90000003E-03  -1.95138324E-02
  -1.85000000E-03  -1.97372474E-02
  -1.79999997E-03  -1.99620035E-02
  -1.75000005E-03  -2.01881286E-02
  -1.70000002E-03  -2.04156190E-02
  -1.64999999E-03  -2.06445809E-02
  -1.59999996E-03  -2.08754539E-02
  -1.55000004E-03  -2.11083386E-02
  -1.50000001E-03  -2.13428717E-02
  -1.44999998E-03  -2.15789564E-02
  -1.39999995E-03  -2.18166802E-02
  -1.35000004E-03  -2.20558289E-02
  -1.30000000E-03  -2.22962126E-02
  -1.24999997E-03  -2.25378443E-02
  -1.20000006E-03  -2.27810405E-02
  -1.15000003E-03  -2.30261050E-02
  -1.09999999E-03  -2.32733116E-02
  -1.04999996E-03  -2.35225167E-02
  -1.00000005E-03  -2.37728711E-02
  -9.50000016E-04  -2.40241811E-02
  -8.99999985E-04  -2.42768917E-02
  -8.50000011E-04  -2.45310459E-02
  -7.99999980E-04  -2.47863661E-02
  -7.50000007E-04  -2.50427090E-02
  -6.99999975E-04  -2.53005512E-02
  -6.50000002E-04  -2.55603939E-02
  -6.00000028E-04  -2.58221403E-02
  -5.49999997E-04  -2.60852799E-02
  -5.00000024E-04  -2.63491608E-02
  -4.49999992E-04  -2.66138650E-02
  -3.99999990E-04  -2.68800613E-02
  -3.49999988E-04  -2.71476321E-02
  -3.00000014E-04  -2.74160504E-02
  -2.50000012E-04  -2.76855044E-02
  -1.99999995E-04  -2.79563870E-02
  -1.50000007E-04  -2.82290913E-02
  -9.99999975E-05  -2.85034850E-02
  -4.99999987E-05  -2.87789069E-02
   0.00000000      -2.90546734E-02
   4.99999987E-05  -2.93310676E-02
   9.99999975E-05  -2.96084378E-02
   1.50000007E-04  -2.98868809E-02
   1.99999995E-04  -3.01667117E-02
   2.50000012E-04  -3.04480642E-02
   3.00000014E-04  -3.07309441E-02
   3.49999988E-04  -3.10147442E-02
   3.99999990E-04  -3.12990397E-02
   4.49999992E-04  -3.15834433E-02
   5.00000024E-04  -3.18680368E-02
   5.49999997E-04  -3.21533158E-02
   6.00000028E-04  -3.24397348E-02
   6.50000002E-04  -3.27266380E-02
   6.99999975E-04  -3.30135413E-02
   7.50000007E-04  -3.33012938E-02
   7.99999980E-04  -3.35904509E-02
   8.50000011E-04  -3.38806771E-02
   8.99999985E-04  -3.41706313E-02
   9.50000016E-04  -3.44596580E-02
   1.00000005E-03  -3.47481109E-02
   1.04999996E-03  -3.50369439E-02
   1.09999999E-03  -3.53270732E-02
   1.15000003E-03  -3.56183536E-02
   1.20000006E-03  -3.59098203E-02
   1.24999997E-03  -3.62009779E-02
   1.30000000E-03  -3.64919454E-02
   1.35000004E-03  -3.67829986E-02
   1.39999995E-03  -3.70735712E-02
   1.44999998E-03  -3.73627357E-02
   1.50000001E-03  -3.76506671E-02
   1.55000004E-03  -3.79383117E-02
   1.59999996E-03  -3.82265784E-02
   1.64999999E-03  -3.85151170E-02
   1.70000002E-03  -3.88028473E-02
   1.75000005E-03  -3.90890278E-02
   1.79999997E-03  -3.93734537E-02
   1.85000000E-03  -3.96567956E-02
   1.90000003E-03  -3.99394110E-02
   1.94999995E-03  -4.02205326E-02
   2.00000009E-03  -4.04995419E-02
   2.05000001E-03  -4.07766514E-02
   2.09999993E-03  -4.10531797E-02
   2.15000007E-03  -4.13296930E-02
   2.19999999E-03  -4.16054651E-02
   2.24999990E-03  -4.18785326E-02
   2.30000005E-03  -4.21472862E-02
   2.34999997E-03  -4.24133390E-02
   2.40000011E-03  -4.26788554E-02
   2.45000003E-03  -4.29435782E-02
   2.49999994E-03  -4.32050675E-02
   2.55000009E-03  -4.34622616E-02
   2.60000001E-03  -4.37169187E-02
   2.64999992E-03  -4.39701937E-02
   2.70000007E-03  -4.42217626E-02
   2.74999999E-03  -4.44698073E-02
   2.79999990E-03  -4.47118767E-02