  -3.99999991E-02   0.00000000    
  -3.99499983E-02   0.00000000    
  -3.99000011E-02   0.00000000    
  -3.98500003E-02  -1.77920946E-18
  -3.97999994E-02  -9.92936027E-18
  -3.97499986E-02  -2.84518731E-17
  -3.97000015E-02  -5.15143866E-17
  -3.96500006E-02  -5.28939055E-17
  -3.95999998E-02   1.60238434E-17
  -3.95499989E-02   2.11474375E-16
  -3.95000018E-02   5.68096898E-16
  -3.94500010E-02   1.07046023E-15
  -3.94000001E-02   1.64519305E-15
  -3.93499993E-02   2.18479337E-15
  -3.92999984E-02   2.59665383E-15
  -3.92500013E-02   2.85512445E-15
  -3.92000005E-02   3.02917257E-15
  -3.91499996E-02   3.26620648E-15
  -3.90999988E-02   3.73150497E-15
  -3.90500017E-02   4.52599646E-15
  -3.90000008E-02   5.62203719E-15
  -3.89500000E-02   6.85519519E-15
  -3.88999991E-02   7.98505074E-15
  -3.88499983E-02   8.80017681E-15
  -3.88000011E-02   9.21415654E-15
  -3.87500003E-02   9.30012530E-15
  -3.86999995E-02   9.24196886E-15
  -3.86499986E-02   9.22334176E-15
  -3.86000015E-02   9.30776808E-15
  -3.85500006E-02   9.36938380E-15
  -3.84999998E-02   9.11267691E-15
  -3.84499989E-02   8.17886882E-15
  -3.84000018E-02   6.29210886E-15
  -3.83500010E-02   3.37179146E-15
  -3.83000001E-02  -4.52465360E-16
  -3.82499993E-02  -4.93718183E-15
  -3.81999984E-02  -9.88263409E-15
  -3.81500013E-02  -1.52630323E-14
  -3.81000005E-02  -2.12543047E-14
  -3.80499996E-02  -2.81430559E-14
  -3.79999988E-02  -3.61671718E-14
  -3.79500017E-02  -4.53751823E-14
  -3.79000008E-02  -5.55814888E-14
  -3.78500000E-02  -6.64464889E-14
  -3.77999991E-02  -7.76463990E-14
  -3.77499983E-02  -8.90446096E-14
  -3.77000012E-02  -1.00761962E-13
  -3.76500003E-02  -1.13085593E-13
  -3.75999995E-02  -1.26245721E-13
  -3.75499986E-02  -1.40178478E-13
  -3.75000015E-02  -1.54421425E-13
  -3.74500006E-02  -1.68225216E-13
  -3.73999998E-02  -1.80840436E-13
  -3.73499990E-02  -1.91829015E-13
  -3.73000018E-02  -2.01222109E-13
  -3.72500010E-02  -2.09417295E-13
  -3.72000001E-02  -2.16840407E-13
  -3.71499993E-02  -2.23526696E-13
  -3.70999984E-02  -2.28841143E-13
  -3.70500013E-02  -2.31522998E-13
  -3.70000005E-02  -2.30097029E-13
  -3.69499996E-02  -2.23497165E-13
  -3.68999988E-02  -2.11591920E-13
  -3.68500017E-02  -1.95294681E-13
  -3.68000008E-02  -1.76122639E-13
  -3.67500000E-02  -1.55359151E-13
  -3.66999991E-02  -1.33220447E-13
  -3.66499983E-02  -1.08478114E-13
  -3.66000012E-02  -7.88045505E-14
  -3.65500003E-02  -4.17685194E-14
  -3.64999995E-02   3.92892802E-15
  -3.64499986E-02   5.75631597E-14
  -3.64000015E-02   1.16339772E-13
  -3.63500006E-02   1.76350701E-13
  -3.62999998E-02   2.34207971E-13
  -3.62499990E-02   2.88630827E-13
  -3.62000018E-02   3.41173812E-13
  -3.61500010E-02   3.95610004E-13
  -3.61000001E-02   4.56112578E-13
  -3.60499993E-02   5.25003869E-13
  -3.59999985E-02   6.01138930E-13
  -3.59500013E-02   6.79777523E-13
  -3.59000005E-02   7.54157750E-13
  -3.58499996E-02   8.18183357E-13
  -3.57999988E-02   8.69051630E-13
  -3.57500017E-02   9.08550741E-13
  -3.57000008E-02   9.42259725E-13
  -3.56500000E-02   9.76816826E-13
  -3.55999991E-02   1.01639021E-12
  -3.55499983E-02   1.06001091E-12
  -3.55000012E-02   1.10117059E-12
  -3.54500003E-02   1.13010838E-12
  -3.53999995E-02   1.13792200E-12
  -3.53499986E-02   1.12067929E-12
  -3.53000015E-02   1.08155889E-12
  -3.52500007E-02   1.02983832E-12
  -3.51999998E-02   9.76944328E-13
  -3.51499990E-02   9.31194358E-13
  -3.51000018E-02   8.93613308E-13
  -3.50500010E-02   8.56920817E-13
  -3.50000001E-02   8.08458769E-13
  -3.49499993E-02   7.36006362E-13
  -3.48999985E-02   6.33935992E-13
  -3.48500013E-02   5.06780436E-13
  -3.48000005E-02   3.68289085E-13
  -3.47499996E-02   2.36073070E-13
  -3.46999988E-02   1.24048721E-13
  -3.46500017E-02   3.60832478E-14
  -3.46000008E-02  -3.60841185E-14
  -3.45500000E-02  -1.09361779E-13
  -3.44999991E-02  -2.01485408E-13
  -3.44499983E-02  -3.22196967E-13
  -3.44000012E-02  -4.67486618E-13
  -3.43500003E-02  -6.19833178E-13
  -3.42999995E-02  -7.54777480E-13
  -3.42499986E-02  -8.51198886E-13
  -3.42000015E-02  -9.00737167E-13
  -3.41500007E-02  -9.11909979E-13
  -3.40999998E-02  -9.06698165E-13
  -3.40499990E-02  -9.10762026E-13
  -3.40000018E-02  -9.41478991E-13
  -3.39500010E-02  -9.99229887E-13
  -3.39000002E-02  -1.06616267E-12
  -3.38499993E-02  -1.11343812E-12
  -3.37999985E-02  -1.11410241E-12
  -3.37500013E-02  -1.05593908E-12
  -3.37000005E-02  -9.48330065E-13
  -3.36499996E-02  -8.19585719E-13
  -3.35999988E-02  -7.05452027E-13
  -3.35500017E-02  -6.33658978E-13
  -3.35000008E-02  -6.11473329E-13
  -3.34500000E-02  -6.22167086E-13
  -3.33999991E-02  -6.32466302E-13
  -3.33499983E-02  -6.08060531E-13
  -3.33000012E-02  -5.30397666E-13
  -3.32500003E-02  -4.07075415E-13
  -3.31999995E-02  -2.70708315E-13
  -3.31499986E-02  -1.66207746E-13
  -3.31000015E-02  -1.31751923E-13
  -3.30500007E-02  -1.81906898E-13
  -3.29999998E-02  -3.00787092E-13
  -3.29499990E-02  -4.48880272E-13
  -3.29000019E-02  -5.81011042E-13
  -3.28500010E-02  -6.67653541E-13
  -3.28000002E-02  -7.09920187E-13
  -3.27499993E-02  -7.41046981E-13
  -3.26999985E-02  -8.13095359E-13
  -3.26500013E-02  -9.74305706E-13
  -3.26000005E-02  -1.24703687E-12
  -3.25499997E-02  -1.61638107E-12
  -3.24999988E-02  -2.03508109E-12
  -3.24500017E-02  -2.44316850E-12
  -3.24000008E-02  -2.79394303E-12
  -3.23500000E-02  -3.07467203E-12
  -3.22999991E-02  -3.31234888E-12
  -3.22499983E-02  -3.56132571E-12
  -3.22000012E-02  -3.87781213E-12
  -3.21500003E-02  -4.29240497E-12
  -3.20999995E-02  -4.79311296E-12
  -3.20499986E-02  -5.32698061E-12
  -3.20000015E-02  -5.82022364E-12
  -3.19500007E-02  -6.20837756E-12
  -3.18999998E-02  -6.46312561E-12
  -3.18499990E-02  -6.60354497E-12
  -3.18000019E-02  -6.68618329E-12
  -3.17500010E-02  -6.77783047E-12
  -3.17000002E-02  -6.92283860E-12
  -3.16499993E-02  -7.11970153E-12
  -3.15999985E-02  -7.31783904E-12
  -3.15500014E-02  -7.43666587E-12
  -3.15000005E-02  -7.39894517E-12
  -3.14499997E-02  -7.16370366E-12
  -3.13999988E-02  -6.74378392E-12
  -3.13500017E-02  -6.19966231E-12
  -3.13000008E-02  -5.61173113E-12
  -3.12500000E-02  -5.04305885E-12
  -3.11999992E-02  -4.50929788E-12
  -3.11500002E-02  -3.96963625E-12
  -3.10999993E-02  -3.34351275E-12
  -3.10500003E-02  -2.54626355E-12
  -3.09999995E-02  -1.52809319E-12
  -3.09500005E-02  -2.98820674E-13
  -3.08999997E-02   1.07315957E-12
  -3.08500007E-02   2.48789249E-12
  -3.07999998E-02   3.85527894E-12
  -3.07500008E-02   5.13253415E-12
  -3.07000000E-02   6.34070270E-12
  -3.06499992E-02   7.55232595E-12
  -3.06000002E-02   8.85521691E-12
  -3.05499993E-02   1.03081840E-11
  -3.05000003E-02   1.19085262E-11
  -3.04499995E-02   1.35862354E-11
  -3.04000005E-02   1.52281174E-11
  -3.03499997E-02   1.67215946E-11
  -3.03000007E-02   1.79989027E-11
  -3.02499998E-02   1.90617296E-11
  -3.02000009E-02   1.99748742E-11
  -3.01500000E-02   2.08312152E-11
  -3.00999992E-02   2.17033145E-11
  -3.00500002E-02   2.26032804E-11
  -2.99999993E-02   2.34691398E-11
  -2.99500003E-02   2.41843628E-11
  -2.98999995E-02   2.46223077E-11
  -2.98500005E-02   2.46960698E-11
  -2.97999997E-02   2.43914541E-11
  -2.97500007E-02   2.37680466E-11
  -2.96999998E-02   2.29274898E-11
  -2.96500009E-02   2.19628950E-11
  -2.96000000E-02   2.09119857E-11
  -2.95499992E-02   1.97352881E-11
  -2.95000002E-02   1.83296225E-11
  -2.94499993E-02   1.65713068E-11
  -2.94000003E-02   1.43699601E-11
  -2.93499995E-02   1.17087997E-11
  -2.93000005E-02   8.65306871E-12
  -2.92499997E-02   5.32244344E-12
  -2.92000007E-02   1.83944071E-12
  -2.91499998E-02  -1.72319472E-12
  -2.91000009E-02  -5.37237095E-12
  -2.90500000E-02  -9.18798891E-12
  -2.89999992E-02  -1.32822989E-11
  -2.89500002E-02  -1.77432079E-11
  -2.88999993E-02  -2.25870329E-11
  -2.88500004E-02  -2.77421176E-11
  -2.87999995E-02  -3.30710875E-11
  -2.87500005E-02  -3.84219705E-11
  -2.86999997E-02  -4.36853713E-11
  -2.86500007E-02  -4.88319593E-11
  -2.85999998E-02  -5.39131170E-11
  -2.85500009E-02  -5.90242924E-11
  -2.85000000E-02  -6.42472325E-11
  -2.84499992E-02  -6.95971475E-11
  -2.84000002E-02  -7.49988127E-11
  -2.83499993E-02  -8.03026534E-11
  -2.83000004E-02  -8.53340315E-11
  -2.82499995E-02  -8.99535030E-11
  -2.82000005E-02  -9.41010742E-11
  -2.81499997E-02  -9.78042577E-11
  -2.81000007E-02  -1.01146327E-10
  -2.80499998E-02  -1.04209238E-10
  -2.80000009E-02  -1.07017048E-10
  -2.79500000E-02  -1.09505807E-10
  -2.78999992E-02  -1.11533713E-10
  -2.78500002E-02  -1.12927112E-10
  -2.77999993E-02  -1.13541752E-10
  -2.77500004E-02  -1.13311222E-10
  -2.76999995E-02  -1.12260659E-10
  -2.76500005E-02  -1.10479306E-10
  -2.75999997E-02  -1.08064523E-10
  -2.75500007E-02  -1.05062972E-10
  -2.74999999E-02  -1.01436207E-10
  -2.74500009E-02  -9.70666325E-11
  -2.74000000E-02  -9.18014761E-11
  -2.73499992E-02  -8.55147064E-11
  -2.73000002E-02  -7.81585768E-11
  -2.72499993E-02  -6.97813890E-11
  -2.72000004E-02  -6.05029984E-11
  -2.71499995E-02  -5.04596885E-11
  -2.71000005E-02  -3.97436736E-11
  -2.70499997E-02  -2.83655408E-11
  -2.70000007E-02  -1.62572525E-11
  -2.69499999E-02  -3.31475841E-12
  -2.69000009E-02   1.05394886E-11
  -2.68500000E-02   2.53028848E-11
  -2.67999992E-02   4.08732805E-11
  -2.67500002E-02   5.70727354E-11
  -2.66999993E-02   7.37038486E-11
  -2.66500004E-02   9.06124065E-11
  -2.65999995E-02   1.07727181E-10
  -2.65500005E-02   1.25058339E-10
  -2.64999997E-02   1.42654236E-10
  -2.64500007E-02   1.60537125E-10
  -2.63999999E-02   1.78647624E-10
  -2.63500009E-02   1.96823904E-10
  -2.63000000E-02   2.14826379E-10
  -2.62499992E-02   2.32396130E-10
  -2.62000002E-02   2.49320342E-10
  -2.61499994E-02   2.65473199E-10
  -2.61000004E-02   2.80813400E-10
  -2.60499995E-02   2.95338504E-10
  -2.60000005E-02   3.09017145E-10
  -2.59499997E-02   3.21731530E-10
  -2.59000007E-02   3.33258643E-10
  -2.58499999E-02   3.43299139E-10
  -2.58000009E-02   3.51541407E-10
  -2.57500000E-02   3.57732427E-10
  -2.56999992E-02   3.61720404E-10
  -2.56500002E-02   3.63448799E-10
  -2.55999994E-02   3.62904318E-10
  -2.55500004E-02   3.60040997E-10
  -2.54999995E-02   3.54718005E-10
  -2.54500005E-02   3.46681017E-10
  -2.53999997E-02   3.35597522E-10
  -2.53500007E-02   3.21131066E-10
  -2.52999999E-02   3.03019998E-10
  -2.52500009E-02   2.81124374E-10
  -2.52000000E-02   2.55415605E-10
  -2.51499992E-02   2.25914287E-10
  -2.51000002E-02   1.92601907E-10
  -2.50499994E-02   1.55349733E-10
  -2.50000004E-02   1.13898474E-10
  -2.49499995E-02   6.79005949E-11
  -2.49000005E-02   1.70096489E-11
  -2.48499997E-02  -3.90266361E-11
  -2.48000007E-02  -1.00311474E-10
  -2.47499999E-02  -1.66811245E-10
  -2.47000009E-02  -2.38428915E-10
  -2.46500000E-02  -3.15110660E-10
  -2.45999992E-02  -3.96931404E-10
  -2.45500002E-02  -4.84121354E-10
  -2.44999994E-02  -5.77017545E-10
  -2.44500004E-02  -6.75958900E-10
  -2.43999995E-02  -7.81174292E-10
  -2.43500005E-02  -8.92714902E-10
  -2.42999997E-02  -1.01046460E-09
  -2.42500007E-02  -1.13422849E-09
  -2.41999999E-02  -1.26385846E-09
  -2.41500009E-02  -1.39936052E-09
  -2.41000000E-02  -1.54093271E-09
  -2.40499992E-02  -1.68891101E-09
  -2.40000002E-02  -1.84364712E-09
  -2.39499994E-02  -2.00537009E-09
  -2.39000004E-02  -2.17409846E-09
  -2.38499995E-02  -2.34964648E-09
  -2.38000005E-02  -2.53172106E-09
  -2.37499997E-02  -2.72007461E-09
  -2.37000007E-02  -2.91463986E-09
  -2.36499999E-02  -3.11558557E-09
  -2.36000009E-02  -3.32326366E-09
  -2.35500000E-02  -3.53806784E-09
  -2.34999992E-02  -3.76026366E-09
  -2.34500002E-02  -3.98987376E-09
  -2.33999994E-02  -4.22666568E-09
  -2.33500004E-02  -4.47026460E-09
  -2.32999995E-02  -4.72032546E-09
  -2.32500006E-02  -4.97670971E-09
  -2.31999997E-02  -5.23956922E-09
  -2.31500007E-02  -5.50929879E-09
  -2.30999999E-02  -5.78638204E-09
  -2.30500009E-02  -6.07118489E-09
  -2.30000000E-02  -6.36380060E-09
  -2.29499992E-02  -6.66401778E-09
  -2.29000002E-02  -6.97142299E-09
  -2.28499994E-02  -7.28560723E-09
  -2.28000004E-02  -7.60637775E-09
  -2.27499995E-02  -7.93388111E-09
  -2.27000006E-02  -8.26857693E-09
  -2.26499997E-02  -8.61107186E-09
  -2.26000007E-02  -8.96188279E-09
  -2.25499999E-02  -9.32123090E-09
  -2.25000009E-02  -9.68897673E-09
  -2.24500000E-02  -1.00647126E-08
  -2.23999992E-02  -1.04479891E-08
  -2.23500002E-02  -1.08385683E-08
  -2.22999994E-02  -1.12366019E-08
  -2.22500004E-02  -1.16426273E-08
  -2.21999995E-02  -1.20574155E-08
  -2.21500006E-02  -1.24816877E-08
  -2.20999997E-02  -1.29158675E-08
  -2.20500007E-02  -1.33599674E-08
  -2.19999999E-02  -1.38136498E-08
  -2.19500009E-02  -1.42764689E-08
  -2.19000001E-02  -1.47481707E-08
  -2.18499992E-02  -1.52289168E-08
  -2.18000002E-02  -1.57193405E-08
  -2.17499994E-02  -1.62203833E-08
  -2.17000004E-02  -1.67330185E-08
  -2.16499995E-02  -1.72579231E-08
  -2.16000006E-02  -1.77953101E-08
  -2.15499997E-02  -1.83449576E-08
  -2.15000007E-02  -1.89064444E-08
  -2.14499999E-02  -1.94794882E-08
  -2.14000009E-02  -2.00642418E-08
  -2.13500001E-02  -2.06614104E-08
  -2.12999992E-02  -2.12721183E-08
  -2.12500002E-02  -2.18976055E-08
  -2.11999994E-02  -2.25388561E-08
  -2.11500004E-02  -2.31963657E-08
  -2.10999995E-02  -2.38700917E-08
  -2.10500006E-02  -2.45596823E-08
  -2.09999997E-02  -2.52648551E-08
  -2.09500007E-02  -2.59857416E-08
  -2.08999999E-02  -2.67230895E-08
  -2.08500009E-02  -2.74781708E-08
  -2.08000001E-02  -2.82524972E-08
  -2.07499992E-02  -2.90473796E-08
  -2.07000002E-02  -2.98636245E-08
  -2.06499994E-02  -3.07014218E-08
  -2.06000004E-02  -3.15605284E-08
  -2.05499995E-02  -3.24406635E-08
  -2.05000006E-02  -3.33419230E-08
  -2.04499997E-02  -3.42650566E-08
  -2.04000007E-02  -3.52114604E-08
  -2.03499999E-02  -3.61828860E-08
  -2.03000009E-02  -3.71810032E-08
  -2.02500001E-02  -3.82069771E-08
  -2.01999992E-02  -3.92612982E-08
  -2.01500002E-02  -4.03439060E-08
  -2.00999994E-02  -4.14545518E-08
  -2.00500004E-02  -4.25933102E-08
  -1.99999996E-02  -4.37609167E-08
  -1.99500006E-02  -4.49588597E-08
  -1.98999997E-02  -4.61891254E-08
  -1.98500007E-02  -4.74537494E-08
  -1.97999999E-02  -4.87542948E-08
  -1.97500009E-02  -5.00916251E-08
  -1.97000001E-02  -5.14659035E-08
  -1.96499992E-02  -5.28769739E-08
  -1.96000002E-02  -5.43248753E-08
  -1.95499994E-02  -5.58103039E-08
  -1.95000004E-02  -5.73347876E-08
  -1.94499996E-02  -5.89005253E-08
  -1.94000006E-02  -6.05099046E-08
  -1.93499997E-02  -6.21649505E-08
  -1.93000007E-02  -6.38669491E-08
  -1.92499999E-02  -6.56163905E-08
  -1.92000009E-02  -6.74132679E-08
  -1.91500001E-02  -6.92576450E-08
  -1.90999992E-02  -7.11501684E-08
  -1.90500002E-02  -7.30923873E-08
  -1.89999994E-02  -7.50866747E-08
  -1.89500004E-02  -7.71357591E-08
  -1.88999996E-02  -7.92421631E-08
  -1.88500006E-02  -8.14076913E-08
  -1.87999997E-02  -8.36332319E-08
  -1.87500007E-02  -8.59190337E-08
  -1.86999999E-02  -8.82651960E-08
  -1.86500009E-02  -9.06723443E-08
  -1.86000001E-02  -9.31420132E-08
  -1.85499992E-02  -9.56766968E-08
  -1.85000002E-02  -9.82794433E-08
  -1.84499994E-02  -1.00953237E-07
  -1.84000004E-02  -1.03700451E-07
  -1.83499996E-02  -1.06522471E-07
  -1.83000006E-02  -1.09419865E-07
  -1.82499997E-02  -1.12392911E-07
  -1.82000007E-02  -1.15442226E-07
  -1.81499999E-02  -1.18569325E-07
  -1.81000009E-02  -1.21776850E-07
  -1.80500001E-02  -1.25068098E-07
  -1.79999992E-02  -1.28446615E-07
  -1.79500002E-02  -1.31915371E-07
  -1.78999994E-02  -1.35476341E-07
  -1.78500004E-02  -1.39130563E-07
  -1.77999996E-02  -1.42878548E-07
  -1.77500006E-02  -1.46721007E-07
  -1.76999997E-02  -1.50659432E-07
  -1.76500008E-02  -1.54696480E-07
  -1.75999999E-02  -1.58835803E-07
  -1.75500009E-02  -1.63081381E-07
  -1.75000001E-02  -1.67436838E-07
  -1.74499992E-02  -1.71904816E-07
  -1.74000002E-02  -1.76486964E-07
  -1.73499994E-02  -1.81184177E-07
  -1.73000004E-02  -1.85997308E-07
  -1.72499996E-02  -1.90927949E-07
  -1.72000006E-02  -1.95978814E-07
  -1.71499997E-02  -2.01153810E-07
  -1.71000008E-02  -2.06457415E-07
  -1.70499999E-02  -2.11894005E-07
  -1.70000009E-02  -2.17467075E-07
  -1.69500001E-02  -2.23178944E-07
  -1.68999992E-02  -2.29031045E-07
  -1.68500002E-02  -2.35024544E-07
  -1.67999994E-02  -2.41161104E-07
  -1.67500004E-02  -2.47443580E-07
  -1.66999996E-02  -2.53876095E-07
  -1.66500006E-02  -2.60463594E-07
  -1.65999997E-02  -2.67211163E-07
  -1.65500008E-02  -2.74123096E-07
  -1.64999999E-02  -2.81202716E-07
  -1.64500009E-02  -2.88452014E-07
  -1.64000001E-02  -2.95872610E-07
  -1.63499992E-02  -3.03466379E-07
  -1.63000003E-02  -3.11236363E-07
  -1.62499994E-02  -3.19186910E-07
  -1.62000004E-02  -3.27323448E-07
  -1.61499996E-02  -3.35651777E-07
  -1.61000006E-02  -3.44177153E-07
  -1.60499997E-02  -3.52903726E-07
  -1.60000008E-02  -3.61834424E-07
  -1.59499999E-02  -3.70971321E-07
  -1.59000009E-02  -3.80316749E-07
  -1.58500001E-02  -3.89873833E-07
  -1.57999992E-02  -3.99647263E-07
  -1.57500003E-02  -4.09642723E-07
  -1.56999994E-02  -4.19866836E-07
  -1.56500004E-02  -4.30325770E-07
  -1.55999996E-02  -4.41024724E-07
  -1.55499997E-02  -4.51967480E-07
  -1.54999997E-02  -4.63156852E-07
  -1.54499998E-02  -4.74595510E-07
  -1.53999999E-02  -4.86286922E-07
  -1.53500000E-02  -4.98235806E-07
  -1.53000001E-02  -5.10448558E-07
  -1.52500002E-02  -5.22932226E-07
  -1.52000003E-02  -5.35694085E-07
  -1.51500003E-02  -5.48740218E-07
  -1.51000004E-02  -5.62075570E-07
  -1.50499996E-02  -5.75703780E-07
  -1.49999997E-02  -5.89628030E-07
  -1.49499997E-02  -6.03852186E-07
  -1.48999998E-02  -6.18381080E-07
  -1.48499999E-02  -6.33221418E-07
  -1.48000000E-02  -6.48380876E-07
  -1.47500001E-02  -6.63867581E-07
  -1.47000002E-02  -6.79688924E-07
  -1.46500003E-02  -6.95850929E-07
  -1.46000003E-02  -7.12358087E-07
  -1.45500004E-02  -7.29214264E-07
  -1.44999996E-02  -7.46423495E-07
  -1.44499997E-02  -7.63991181E-07
  -1.43999998E-02  -7.81923973E-07
  -1.43499998E-02  -8.00230339E-07
  -1.42999999E-02  -8.18919091E-07
  -1.42500000E-02  -8.37998698E-07
  -1.42000001E-02  -8.57476437E-07
  -1.41500002E-02  -8.77357934E-07
  -1.41000003E-02  -8.97647851E-07
  -1.40500003E-02  -9.18350679E-07
  -1.40000004E-02  -9.39472045E-07
  -1.39499996E-02  -9.61019055E-07
  -1.38999997E-02  -9.83000064E-07
  -1.38499998E-02  -1.00542525E-06
  -1.37999998E-02  -1.02830393E-06
  -1.37499999E-02  -1.05164463E-06
  -1.37000000E-02  -1.07545395E-06
  -1.36500001E-02  -1.09973780E-06
  -1.36000002E-02  -1.12450095E-06
  -1.35500003E-02  -1.14974944E-06
  -1.35000004E-02  -1.17549052E-06
  -1.34500004E-02  -1.20173343E-06
  -1.33999996E-02  -1.22848849E-06
  -1.33499997E-02  -1.25576628E-06
  -1.32999998E-02  -1.28357635E-06
  -1.32499998E-02  -1.31192689E-06
  -1.31999999E-02  -1.34082438E-06
  -1.31500000E-02  -1.37027496E-06
  -1.31000001E-02  -1.40028453E-06
  -1.30500002E-02  -1.43086106E-06
  -1.30000003E-02  -1.46201387E-06
  -1.29500004E-02  -1.49375410E-06
  -1.29000004E-02  -1.52609311E-06
  -1.28499996E-02  -1.55904172E-06
  -1.27999997E-02  -1.59260946E-06
  -1.27499998E-02  -1.62680396E-06
  -1.26999998E-02  -1.66163215E-06
  -1.26499999E-02  -1.69710052E-06
  -1.26000000E-02  -1.73321735E-06
  -1.25500001E-02  -1.76999220E-06
  -1.25000002E-02  -1.80743700E-06
  -1.24500003E-02  -1.84556382E-06
  -1.24000004E-02  -1.88438480E-06
  -1.23500004E-02  -1.92391053E-06
  -1.22999996E-02  -1.96414976E-06
  -1.22499997E-02  -2.00511022E-06
  -1.21999998E-02  -2.04679918E-06
  -1.21499998E-02  -2.08922506E-06
  -1.20999999E-02  -2.13239832E-06
  -1.20500000E-02  -2.17633124E-06
  -1.20000001E-02  -2.22103699E-06
  -1.19500002E-02  -2.26652810E-06
  -1.19000003E-02  -2.31281660E-06
  -1.18500004E-02  -2.35991251E-06
  -1.18000004E-02  -2.40782424E-06
  -1.17499996E-02  -2.45656020E-06
  -1.16999997E-02  -2.50612925E-06
  -1.16499998E-02  -2.55654140E-06
  -1.15999999E-02  -2.60780939E-06
  -1.15499999E-02  -2.65994618E-06
  -1.15000000E-02  -2.71296585E-06
  -1.14500001E-02  -2.76688138E-06
  -1.14000002E-02  -2.82170413E-06
  -1.13500003E-02  -2.87744342E-06
  -1.13000004E-02  -2.93410835E-06
  -1.12500004E-02  -2.99170802E-06
  -1.11999996E-02  -3.05025264E-06
  -1.11499997E-02  -3.10975429E-06
  -1.10999998E-02  -3.17022682E-06
  -1.10499999E-02  -3.23168524E-06
  -1.09999999E-02  -3.29414274E-06
  -1.09500000E-02  -3.35761115E-06
  -1.09000001E-02  -3.42210092E-06
  -1.08500002E-02  -3.48762069E-06
  -1.08000003E-02  -3.55417910E-06
  -1.07500004E-02  -3.62178707E-06
  -1.07000005E-02  -3.69045665E-06
  -1.06499996E-02  -3.76020171E-06
  -1.05999997E-02  -3.83103770E-06
  -1.05499998E-02  -3.90297828E-06
  -1.04999999E-02  -3.97603617E-06
  -1.04499999E-02  -4.05022092E-06
  -1.04000000E-02  -4.12554255E-06
  -1.03500001E-02  -4.20200877E-06
  -1.03000002E-02  -4.27963096E-06
  -1.02500003E-02  -4.35841912E-06
  -1.02000004E-02  -4.43838780E-06
  -1.01500005E-02  -4.51955066E-06
  -1.00999996E-02  -4.60192132E-06
  -1.00499997E-02  -4.68551207E-06
  -9.99999978E-03  -4.77033382E-06
  -9.94999986E-03  -4.85639521E-06
  -9.89999995E-03  -4.94370443E-06
  -9.85000003E-03  -5.03227011E-06
  -9.80000012E-03  -5.12210272E-06
  -9.75000020E-03  -5.21321408E-06
  -9.70000029E-03  -5.30561738E-06
  -9.65000037E-03  -5.39932716E-06
  -9.60000046E-03  -5.49435390E-06
  -9.54999961E-03  -5.59070804E-06
  -9.49999969E-03  -5.68839778E-06
  -9.44999978E-03  -5.78743129E-06
  -9.39999986E-03  -5.88781450E-06
  -9.34999995E-03  -5.98955739E-06
  -9.30000003E-03  -6.09266954E-06
  -9.25000012E-03  -6.19716229E-06
  -9.20000020E-03  -6.30304794E-06
  -9.15000029E-03  -6.41033694E-06
  -9.10000037E-03  -6.51903883E-06
  -9.05000046E-03  -6.62915909E-06
  -8.99999961E-03  -6.74070407E-06
  -8.94999970E-03  -6.85367786E-06
  -8.89999978E-03  -6.96808729E-06
  -8.84999987E-03  -7.08393918E-06
  -8.79999995E-03  -7.20124262E-06
  -8.75000004E-03  -7.32000581E-06
  -8.70000012E-03  -7.44023964E-06
  -8.65000021E-03  -7.56195050E-06
  -8.60000029E-03  -7.68514292E-06
  -8.55000038E-03  -7.80982009E-06
  -8.50000046E-03  -7.93598520E-06
  -8.44999962E-03  -8.06364005E-06
  -8.39999970E-03  -8.19278921E-06
  -8.34999979E-03  -8.32343812E-06
  -8.29999987E-03  -8.45559407E-06
  -8.24999996E-03  -8.58926251E-06
  -8.20000004E-03  -8.72444798E-06
  -8.15000013E-03  -8.86115231E-06
  -8.10000021E-03  -8.99937550E-06
  -8.05000030E-03  -9.13911572E-06
  -8.00000038E-03  -9.28037116E-06
  -7.95000046E-03  -9.42314364E-06
  -7.89999962E-03  -9.56743224E-06
  -7.84999970E-03  -9.71324152E-06
  -7.79999979E-03  -9.86057057E-06
  -7.74999987E-03  -1.00094221E-05
  -7.69999996E-03  -1.01597925E-05
  -7.65000004E-03  -1.03116781E-05
  -7.60000013E-03  -1.04650726E-05
  -7.55000021E-03  -1.06199695E-05
  -7.49999983E-03  -1.07763635E-05
  -7.44999992E-03  -1.09342500E-05
  -7.40000000E-03  -1.10936280E-05
  -7.35000009E-03  -1.12544931E-05
  -7.30000017E-03  -1.14168415E-05
  -7.24999979E-03  -1.15806661E-05
  -7.19999988E-03  -1.17459576E-05
  -7.14999996E-03  -1.19127044E-05
  -7.10000005E-03  -1.20808927E-05
  -7.05000013E-03  -1.22505126E-05
  -7.00000022E-03  -1.24215530E-05
  -6.94999984E-03  -1.25940041E-05
  -6.89999992E-03  -1.27678559E-05
  -6.85000001E-03  -1.29430991E-05
  -6.80000009E-03  -1.31197194E-05
  -6.75000018E-03  -1.32977029E-05
  -6.69999979E-03  -1.34770289E-05
  -6.64999988E-03  -1.36576782E-05
  -6.59999996E-03  -1.38396326E-05
  -6.55000005E-03  -1.40228713E-05
  -6.50000013E-03  -1.42073795E-05
  -6.45000022E-03  -1.43931375E-05
  -6.39999984E-03  -1.45801259E-05
  -6.34999992E-03  -1.47683259E-05
  -6.30000001E-03  -1.49577154E-05
  -6.25000009E-03  -1.51482673E-05
  -6.20000018E-03  -1.53399560E-05
  -6.14999980E-03  -1.55327471E-05
  -6.09999988E-03  -1.57266149E-05
  -6.04999997E-03  -1.59215342E-05
  -6.00000005E-03  -1.61174758E-05
  -5.95000014E-03  -1.63144123E-05
  -5.90000022E-03  -1.65123183E-05
  -5.84999984E-03  -1.67111593E-05
  -5.79999993E-03  -1.69109026E-05
  -5.75000001E-03  -1.71115043E-05
  -5.70000010E-03  -1.73129301E-05
  -5.65000018E-03  -1.75151363E-05
  -5.59999980E-03  -1.77180900E-05
  -5.54999989E-03  -1.79217477E-05
  -5.49999997E-03  -1.81260748E-05
  -5.45000006E-03  -1.83310312E-05
  -5.40000014E-03  -1.85365716E-05
  -5.35000023E-03  -1.87426540E-05
  -5.29999984E-03  -1.89492275E-05
  -5.24999993E-03  -1.91562413E-05
  -5.20000001E-03  -1.93636442E-05
  -5.15000010E-03  -1.95713819E-05
  -5.10000018E-03  -1.97794070E-05
  -5.04999980E-03  -1.99876686E-05
  -4.99999989E-03  -2.01961157E-05
  -4.94999997E-03  -2.04046937E-05
  -4.90000006E-03  -2.06133464E-05
  -4.85000014E-03  -2.08220117E-05
  -4.80000023E-03  -2.10306225E-05
  -4.74999985E-03  -2.12391169E-05
  -4.69999993E-03  -2.14474276E-05
  -4.65000002E-03  -2.16554909E-05
  -4.60000010E-03  -2.18632395E-05
  -4.55000019E-03  -2.20706115E-05
  -4.49999981E-03  -2.22775343E-05
  -4.44999989E-03  -2.24839368E-05
  -4.39999998E-03  -2.26897482E-05
  -4.35000006E-03  -2.28948884E-05
  -4.30000015E-03  -2.30992773E-05
  -4.25000023E-03  -2.33028331E-05
  -4.19999985E-03  -2.35054740E-05
  -4.14999994E-03  -2.37071145E-05
  -4.10000002E-03  -2.39076835E-05
  -4.05000011E-03  -2.41070939E-05
  -4.00000019E-03  -2.43052582E-05
  -3.94999981E-03  -2.45020892E-05
  -3.89999989E-03  -2.46974923E-05
  -3.84999998E-03  -2.48913693E-05
  -3.80000006E-03  -2.50836165E-05
  -3.74999992E-03  -2.52741429E-05
  -3.70000000E-03  -2.54628521E-05
  -3.65000009E-03  -2.56496460E-05
  -3.59999994E-03  -2.58344262E-05
  -3.55000002E-03  -2.60170891E-05
  -3.50000011E-03  -2.61975238E-05
  -3.44999996E-03  -2.63756210E-05
  -3.40000005E-03  -2.65512663E-05
  -3.34999990E-03  -2.67243468E-05
  -3.29999998E-03  -2.68947424E-05
  -3.25000007E-03  -2.70623405E-05
  -3.19999992E-03  -2.72270263E-05
  -3.15000000E-03  -2.73886799E-05
  -3.10000009E-03  -2.75471793E-05
  -3.04999994E-03  -2.77024046E-05
  -3.00000003E-03  -2.78542193E-05
  -2.95000011E-03  -2.80024942E-05
  -2.89999996E-03  -2.81470948E-05
  -2.85000005E-03  -2.82878809E-05
  -2.79999990E-03  -2.84247235E-05
  -2.74999999E-03  -2.85574843E-05
  -2.70000007E-03  -2.86860341E-05
  -2.64999992E-03  -2.88102328E-05
  -2.60000001E-03  -2.89299405E-05
  -2.55000009E-03  -2.90450025E-05
  -2.49999994E-03  -2.91552642E-05
  -2.45000003E-03  -2.92605673E-05
  -2.40000011E-03  -2.93607573E-05
  -2.34999997E-03  -2.94556794E-05
  -2.30000005E-03  -2.95451882E-05
  -2.24999990E-03  -2.96291255E-05
  -2.19999999E-03  -2.97073384E-05
  -2.15000007E-03  -2.97796596E-05
  -2.09999993E-03  -2.98459254E-05
  -2.05000001E-03  -2.99059557E-05
  -2.00000009E-03  -2.99595740E-05
  -1.94999995E-03  -3.00065985E-05
  -1.90000003E-03  -3.00468546E-05
  -1.85000000E-03  -3.00801748E-05
  -1.79999997E-03  -3.01063865E-05
  -1.75000005E-03  -3.01253185E-05
  -1.70000002E-03  -3.01367854E-05
  -1.64999999E-03  -3.01405944E-05
  -1.59999996E-03  -3.01365508E-05
  -1.55000004E-03  -3.01244545E-05
  -1.50000001E-03  -3.01041073E-05
  -1.44999998E-03  -3.00753145E-05
  -1.39999995E-03  -3.00378815E-05
  -1.35000004E-03  -2.99916283E-05
  -1.30000000E-03  -2.99363546E-05
  -1.24999997E-03  -2.98718642E-05
  -1.20000006E-03  -2.97979423E-05
  -1.15000003E-03  -2.97143761E-05
  -1.09999999E-03  -2.96209400E-05
  -1.04999996E-03  -2.95174214E-05
  -1.00000005E-03  -2.94036035E-05
  -9.50000016E-04  -2.92792756E-05
  -8.99999985E-04  -2.91442266E-05
  -8.50000011E-04  -2.89982490E-05
  -7.99999980E-04  -2.88411211E-05
  -7.50000007E-04  -2.86726154E-05
  -6.99999975E-04  -2.84924972E-05
  -6.50000002E-04  -2.83005247E-05
  -6.00000028E-04  -2.80964632E-05
  -5.49999997E-04  -2.78800726E-05
  -5.00000024E-04  -2.76511291E-05
  -4.49999992E-04  -2.74094018E-05
  -3.99999990E-04  -2.71546687E-05
  -3.49999988E-04  -2.68866916E-05
  -3.00000014E-04  -2.66052339E-05
  -2.50000012E-04  -2.63100428E-05
  -1.99999995E-04  -2.60008619E-05
  -1.50000007E-04  -2.56774310E-05
  -9.99999975E-05  -2.53394992E-05
  -4.99999987E-05  -2.49868190E-05
   0.00000000      -2.46191521E-05
   4.99999987E-05  -2.42362548E-05
   9.99999975E-05  -2.38378798E-05
   1.50000007E-04  -2.34237723E-05
   1.99999995E-04  -2.29936668E-05
   2.50000012E-04  -2.25472977E-05
   3.00000014E-04  -2.20843867E-05
   3.49999988E-04  -2.16046683E-05
   3.99999990E-04  -2.11078768E-05
   4.49999992E-04  -2.05937577E-05
   5.00000024E-04  -2.00620561E-05
   5.49999997E-04  -1.95125212E-05
   6.00000028E-04  -1.89448856E-05
   6.50000002E-04  -1.83588800E-05
   6.99999975E-04  -1.77542206E-05
   7.50000007E-04  -1.71306237E-05
   7.99999980E-04  -1.64878129E-05
   8.50000011E-04  -1.58255170E-05
   8.99999985E-04  -1.51434688E-05
   9.50000016E-04  -1.44414080E-05
   1.00000005E-03  -1.37190664E-05
   1.04999996E-03  -1.29761775E-05
   1.09999999E-03  -1.22124566E-05
   1.15000003E-03  -1.14276254E-05
   1.20000006E-03  -1.06213947E-05
   1.24999997E-03  -9.79348715E-06
   1.30000000E-03  -8.94361165E-06
   1.35000004E-03  -8.07150718E-06
   1.39999995E-03  -7.17690136E-06
   1.44999998E-03  -6.25951998E-06
   1.50000001E-03  -5.31908972E-06
   1.55000004E-03  -4.35534275E-06
   1.59999996E-03  -3.36799189E-06
   1.64999999E-03  -2.35674634E-06
   1.70000002E-03  -1.32132652E-06
   1.75000005E-03  -2.61452897E-07
   1.79999997E-03   8.23147957E-07
   1.85000000E-03   1.93274514E-06
   1.90000003E-03   3.06760990E-06
   1.94999995E-03   4.22800622E-06
   2.00000009E-03   5.41420923E-06
   2.05000001E-03   6.62649063E-06
   2.09999993E-03   7.86512737E-06
   2.15000007E-03   9.13040094E-06
   2.19999999E-03   1.04225819E-05
   2.24999990E-03   1.17419313E-05
   2.30000005E-03   1.30887174E-05
   2.34999997E-03   1.44631940E-05
   2.40000011E-03   1.58656258E-05
   2.45000003E-03   1.72962737E-05
   2.49999994E-03   1.87553997E-05
   2.55000009E-03   2.02432657E-05
   2.60000001E-03   2.17601319E-05
   2.64999992E-03   2.33062583E-05
   2.70000007E-03   2.48819069E-05
   2.74999999E-03   2.64873252E-05
   2.79999990E-03   2.81227676E-05