  -3.99999991E-02   0.00000000    
  -3.99499983E-02   0.00000000    
  -3.99000011E-02   0.00000000    
  -3.98500003E-02   9.48577639E-18
  -3.97999994E-02   8.76595456E-17
  -3.97499986E-02   4.13416717E-16
  -3.97000015E-02   1.30248563E-15
  -3.96500006E-02   2.99487387E-15
  -3.95999998E-02   5.05638944E-15
  -3.95499989E-02   5.47124373E-15
  -3.95000018E-02  -1.05429106E-16
  -3.94500010E-02  -1.81486668E-14
  -3.94000001E-02  -5.54098461E-14
  -3.93499993E-02  -1.15403577E-13
  -3.92999984E-02  -1.94469766E-13
  -3.92500013E-02  -2.79827892E-13
  -3.92000005E-02  -3.52187084E-13
  -3.91499996E-02  -3.93794670E-13
  -3.90999988E-02  -3.99530018E-13
  -3.90500017E-02  -3.85433439E-13
  -3.90000008E-02  -3.88303999E-13
  -3.89500000E-02  -4.53227327E-13
  -3.88999991E-02  -6.12273578E-13
  -3.88499983E-02  -8.63891586E-13
  -3.88000011E-02  -1.16476512E-12
  -3.87500003E-02  -1.44181683E-12
  -3.86999995E-02  -1.62268950E-12
  -3.86499986E-02  -1.67252800E-12
  -3.86000015E-02  -1.61870040E-12
  -3.85500006E-02  -1.54746951E-12
  -3.84999998E-02  -1.56821355E-12
  -3.84499989E-02  -1.75741160E-12
  -3.84000018E-02  -2.10816694E-12
  -3.83500010E-02  -2.51316828E-12
  -3.83000001E-02  -2.79605375E-12
  -3.82499993E-02  -2.78265497E-12
  -3.81999984E-02  -2.38120222E-12
  -3.81500013E-02  -1.63195054E-12
  -3.81000005E-02  -6.98079886E-13
  -3.80499996E-02   2.03192620E-13
  -3.79999988E-02   9.00527482E-13
  -3.79500017E-02   1.35311087E-12
  -3.79000008E-02   1.67800886E-12
  -3.78500000E-02   2.10351441E-12
  -3.77999991E-02   2.86712364E-12
  -3.77499983E-02   4.10524089E-12
  -3.77000012E-02   5.78796603E-12
  -3.76500003E-02   7.73137023E-12
  -3.75999995E-02   9.68094355E-12
  -3.75499986E-02   1.14238532E-11
  -3.75000015E-02   1.28745573E-11
  -3.74500006E-02   1.40954071E-11
  -3.73999998E-02   1.52503635E-11
  -3.73499990E-02   1.65239055E-11
  -3.73000018E-02   1.80490189E-11
  -3.72500010E-02   1.98731604E-11
  -3.72000001E-02   2.19613945E-11
  -3.71499993E-02   2.42116605E-11
  -3.70999984E-02   2.64551402E-11
  -3.70500013E-02   2.84374833E-11
  -3.70000005E-02   2.98096547E-11
  -3.69499996E-02   3.01754038E-11
  -3.68999988E-02   2.92240260E-11
  -3.68500017E-02   2.69203219E-11
  -3.68000008E-02   2.36567294E-11
  -3.67500000E-02   2.02426374E-11
  -3.66999991E-02   1.76513665E-11
  -3.66499983E-02   1.65659500E-11
  -3.66000012E-02   1.69066167E-11
  -3.65500003E-02   1.76023779E-11
  -3.64999995E-02   1.68175352E-11
  -3.64499986E-02   1.26540774E-11
  -3.64000015E-02   4.09455239E-12
  -3.63500006E-02  -8.24659785E-12
  -3.62999998E-02  -2.20088114E-11
  -3.62499990E-02  -3.38306501E-11
  -3.62000018E-02  -4.07777700E-11
  -3.61500010E-02  -4.18742749E-11
  -3.61000001E-02  -3.89691057E-11
  -3.60499993E-02  -3.63457146E-11
  -3.59999985E-02  -3.90132336E-11
  -3.59500013E-02  -5.02919616E-11
  -3.59000005E-02  -6.97942329E-11
  -3.58499996E-02  -9.29087432E-11
  -3.57999988E-02  -1.12329167E-10
  -3.57500017E-02  -1.21219090E-10
  -3.57000008E-02  -1.16697166E-10
  -3.56500000E-02  -1.01931595E-10
  -3.55999991E-02  -8.55407342E-11
  -3.55499983E-02  -7.81380863E-11
  -3.55000012E-02  -8.72794961E-11
  -3.54500003E-02  -1.13093437E-10
  -3.53999995E-02  -1.46910761E-10
  -3.53499986E-02  -1.74076462E-10
  -3.53000015E-02  -1.80210444E-10
  -3.52500007E-02  -1.58337968E-10
  -3.51999998E-02  -1.13478879E-10
  -3.51499990E-02  -6.20383467E-11
  -3.51000018E-02  -2.55301127E-11
  -3.50500010E-02  -2.08975788E-11
  -3.50000001E-02  -5.16974796E-11
  -3.49499993E-02  -1.04584327E-10
  -3.48999985E-02  -1.53544552E-10
  -3.48500013E-02  -1.70861936E-10
  -3.48000005E-02  -1.40359696E-10
  -3.47499996E-02  -6.67589525E-11
  -3.46999988E-02   2.39084533E-11
  -3.46500017E-02   9.41696859E-11
  -3.46000008E-02   1.11749707E-10
  -3.45500000E-02   6.57366037E-11
  -3.44999991E-02  -2.56139849E-11
  -3.44499983E-02  -1.20202653E-10
  -3.44000012E-02  -1.69505437E-10
  -3.43500003E-02  -1.41087156E-10
  -3.42999995E-02  -3.59488411E-11
  -3.42499986E-02   1.08218400E-10
  -3.42000015E-02   2.31003355E-10
  -3.41500007E-02   2.75643480E-10
  -3.40999998E-02   2.16468746E-10
  -3.40499990E-02   7.43622525E-11
  -3.40000018E-02  -8.84359599E-11
  -3.39500010E-02  -1.93825594E-10
  -3.39000002E-02  -1.83494539E-10
  -3.38499993E-02  -4.86661995E-11
  -3.37999985E-02   1.60885333E-10
  -3.37500013E-02   3.54922425E-10
  -3.37000005E-02   4.41958581E-10
  -3.36499996E-02   3.72932879E-10
  -3.35999988E-02   1.68922043E-10
  -3.35500017E-02  -8.18802248E-11
  -3.35000008E-02  -2.59433725E-10
  -3.34500000E-02  -2.65644090E-10
  -3.33999991E-02  -7.28267238E-11
  -3.33499983E-02   2.56688643E-10
  -3.33000012E-02   5.91771521E-10
  -3.32500003E-02   7.88159260E-10
  -3.31999995E-02   7.55285612E-10
  -3.31499986E-02   5.03624642E-10
  -3.31000015E-02   1.48458093E-10
  -3.30500007E-02  -1.35485262E-10
  -3.29999998E-02  -1.91314145E-10
  -3.29499990E-02   4.45705382E-11
  -3.29000019E-02   5.04579878E-10
  -3.28500010E-02   1.01058362E-09
  -3.28000002E-02   1.34819633E-09
  -3.27499993E-02   1.36410550E-09
  -3.26999985E-02   1.04251530E-09
  -3.26500013E-02   5.23106614E-10
  -3.26000005E-02   4.74748296E-11
  -3.25499997E-02  -1.46383294E-10
  -3.24999988E-02   6.39613848E-11
  -3.24500017E-02   6.18932683E-10
  -3.24000008E-02   1.29059641E-09
  -3.23500000E-02   1.77598591E-09
  -3.22999991E-02   1.83233595E-09
  -3.22499983E-02   1.39405187E-09
  -3.22000012E-02   6.15409002E-10
  -3.21500003E-02  -1.86298768E-10
  -3.20999995E-02  -6.67665867E-10
  -3.20499986E-02  -6.17807694E-10
  -3.20000015E-02  -6.61288316E-11
  -3.19500007E-02   7.14636406E-10
  -3.18999998E-02   1.31876154E-09
  -3.18499990E-02   1.38754452E-09
  -3.18000019E-02   7.79817266E-10
  -3.17500010E-02  -3.47145812E-10
  -3.17000002E-02  -1.59001845E-09
  -3.16499993E-02  -2.46962806E-09
  -3.15999985E-02  -2.64761235E-09
  -3.15500014E-02  -2.09186291E-09
  -3.15000005E-02  -1.11055198E-09
  -3.14499997E-02  -2.30460664E-10
  -3.13999988E-02   3.38684115E-11
  -3.13500017E-02  -5.80019754E-10
  -3.13000008E-02  -1.94428540E-09
  -3.12500000E-02  -3.57459662E-09
  -3.11999992E-02  -4.83088236E-09
  -3.11500002E-02  -5.20230259E-09
  -3.10999993E-02  -4.54968729E-09
  -3.10500003E-02  -3.19076898E-09
  -3.09999995E-02  -1.77942616E-09
  -3.09500005E-02  -1.02254327E-09
  -3.08999997E-02  -1.35572464E-09
  -3.08500007E-02  -2.72519651E-09
  -3.07999998E-02  -4.58271110E-09
  -3.07500008E-02  -6.10805850E-09
  -3.07000000E-02  -6.56956578E-09
  -3.06499992E-02  -5.66427172E-09
  -3.06000002E-02  -3.67999542E-09
  -3.05499993E-02  -1.39487888E-09
  -3.05000003E-02   2.53701837E-10
  -3.04499995E-02   5.91047433E-10
  -3.04000005E-02  -4.71284123E-10
  -3.03499997E-02  -2.36425768E-09
  -3.03000007E-02  -4.08863121E-09
  -3.02499998E-02  -4.65200856E-09
  -3.02000009E-02  -3.52583385E-09
  -3.01500000E-02  -9.13429388E-10
  -3.00999992E-02   2.30382247E-09
  -3.00500002E-02   4.93406249E-09
  -2.99999993E-02   6.00366112E-09
  -2.99500003E-02   5.21268406E-09
  -2.98999995E-02   3.10454529E-09
  -2.98500005E-02   8.57691917E-10
  -2.97999997E-02  -2.24089150E-10
  -2.97500007E-02   6.95748015E-10
  -2.96999998E-02   3.57828922E-09
  -2.96500009E-02   7.48118545E-09
  -2.96000000E-02   1.09422524E-08
  -2.95499992E-02   1.26191297E-08
  -2.95000002E-02   1.19048416E-08
  -2.94499993E-02   9.23676424E-09
  -2.94000003E-02   5.94330851E-09
  -2.93499995E-02   3.67661679E-09
  -2.93000005E-02   3.67100883E-09
  -2.92499997E-02   6.15768414E-09
  -2.92000007E-02   1.02100532E-08
  -2.91499998E-02   1.41101184E-08
  -2.91000009E-02   1.60926721E-08
  -2.90500000E-02   1.51452486E-08
  -2.89999992E-02   1.15018235E-08
  -2.89500002E-02   6.59165078E-09
  -2.88999993E-02   2.44225062E-09
  -2.88500004E-02   7.84236398E-10
  -2.87999995E-02   2.25230279E-09
  -2.87500005E-02   6.05012529E-09
  -2.86999997E-02   1.02516955E-08
  -2.86500007E-02   1.26293438E-08
  -2.85999998E-02   1.16543735E-08
  -2.85500009E-02   7.22270288E-09
  -2.85000000E-02   7.64030728E-10
  -2.84499992E-02  -5.34091216E-09
  -2.84000002E-02  -8.79912498E-09
  -2.83499993E-02  -8.44711234E-09
  -2.83000004E-02  -4.82250240E-09
  -2.82499995E-02   1.35079413E-11
  -2.82000005E-02   3.35307315E-09
  -2.81499997E-02   3.04842263E-09
  -2.81000007E-02  -1.48596857E-09
  -2.80499998E-02  -8.93894914E-09
  -2.80000009E-02  -1.66147913E-08
  -2.79500000E-02  -2.15935145E-08
  -2.78999992E-02  -2.20392291E-08
  -2.78500002E-02  -1.80691657E-08
  -2.77999993E-02  -1.17721424E-08
  -2.77500004E-02  -6.33471231E-09
  -2.76999995E-02  -4.63603911E-09
  -2.76500005E-02  -7.92750665E-09
  -2.75999997E-02  -1.51985198E-08
  -2.75500007E-02  -2.35423947E-08
  -2.74999999E-02  -2.93951992E-08
  -2.74500009E-02  -3.01200700E-08
  -2.74000000E-02  -2.52329464E-08
  -2.73499992E-02  -1.67011329E-08
  -2.73000002E-02  -8.14452061E-09
  -2.72499993E-02  -3.25946581E-09
  -2.72000004E-02  -4.14914592E-09
  -2.71499995E-02  -1.03121147E-08
  -2.71000005E-02  -1.87709137E-08
  -2.70499997E-02  -2.53247698E-08
  -2.70000007E-02  -2.64015334E-08
  -2.69499999E-02  -2.06938733E-08
  -2.69000009E-02  -9.83251436E-09
  -2.68500000E-02   2.24246843E-09
  -2.67999992E-02   1.09750511E-08
  -2.67500002E-02   1.32243638E-08
  -2.66999993E-02   8.72790107E-09
  -2.66500004E-02   3.15731413E-10
  -2.65999995E-02  -7.26508986E-09
  -2.65500005E-02  -9.43374179E-09
  -2.64999997E-02  -3.85733401E-09
  -2.64500007E-02   8.40916492E-09
  -2.63999999E-02   2.32724222E-08
  -2.63500009E-02   3.53335068E-08
  -2.63000000E-02   4.02693168E-08
  -2.62499992E-02   3.68099400E-08
  -2.62000002E-02   2.74052621E-08
  -2.61499994E-02   1.72352301E-08
  -2.61000004E-02   1.19541896E-08
  -2.60499995E-02   1.51445771E-08
  -2.60000005E-02   2.66195990E-08
  -2.59499997E-02   4.23693756E-08
  -2.59000007E-02   5.62298901E-08
  -2.58499999E-02   6.25790193E-08
  -2.58000009E-02   5.88772266E-08
  -2.57500000E-02   4.69015760E-08
  -2.56999992E-02   3.20731495E-08
  -2.56500002E-02   2.11189040E-08
  -2.55999994E-02   1.90683291E-08
  -2.55500004E-02   2.69181761E-08
  -2.54999995E-02   4.10405043E-08
  -2.54500005E-02   5.46576402E-08
  -2.53999997E-02   6.07855526E-08
  -2.53500007E-02   5.53655717E-08
  -2.52999999E-02   3.91784560E-08
  -2.52500009E-02   1.76396213E-08
  -2.52000000E-02  -1.49904467E-09
  -2.51499992E-02  -1.15701342E-08
  -2.51000002E-02  -1.00274384E-08
  -2.50499994E-02   2.82251250E-10
  -2.50000004E-02   1.22400294E-08
  -2.49499995E-02   1.75366761E-08
  -2.49000005E-02   1.03862581E-08
  -2.48499997E-02  -9.78304993E-09
  -2.48000007E-02  -3.79045773E-08
  -2.47499999E-02  -6.53748629E-08
  -2.47000009E-02  -8.38098160E-08
  -2.46500000E-02  -8.88117384E-08
  -2.45999992E-02  -8.20497803E-08
  -2.45500002E-02  -7.06663172E-08
  -2.44999994E-02  -6.41981757E-08
  -2.44500004E-02  -7.03270757E-08
  -2.43999995E-02  -9.13401692E-08
  -2.43500005E-02  -1.22916248E-07
  -2.42999997E-02  -1.55851353E-07
  -2.42500007E-02  -1.80030767E-07
  -2.41999999E-02  -1.88921845E-07
  -2.41500009E-02  -1.82578233E-07
  -2.41000000E-02  -1.67759453E-07
  -2.40499992E-02  -1.55031657E-07
  -2.40000002E-02  -1.54071316E-07
  -2.39499994E-02  -1.69238092E-07
  -2.39000004E-02  -1.97419809E-07
  -2.38499995E-02  -2.29182987E-07
  -2.38000005E-02  -2.52802096E-07
  -2.37499997E-02  -2.59431005E-07
  -2.37000007E-02  -2.47118265E-07
  -2.36499999E-02  -2.21826383E-07
  -2.36000009E-02  -1.94915117E-07
  -2.35500000E-02  -1.78127436E-07
  -2.34999992E-02  -1.78269985E-07
  -2.34500002E-02  -1.93975907E-07
  -2.33999994E-02  -2.16062475E-07
  -2.33500004E-02  -2.31416792E-07
  -2.32999995E-02  -2.28751844E-07
  -2.32500006E-02  -2.03689481E-07
  -2.31999997E-02  -1.60865085E-07
  -2.31500007E-02  -1.12030861E-07
  -2.30999999E-02  -7.09106516E-08
  -2.30500009E-02  -4.70412047E-08
  -2.30000000E-02  -4.13473025E-08
  -2.29499992E-02  -4.54860434E-08
  -2.29000002E-02  -4.53487559E-08
  -2.28499994E-02  -2.72464327E-08
  -2.28000004E-02   1.59398272E-08
  -2.27499995E-02   8.14133188E-08
  -2.27000006E-02   1.57493773E-07
  -2.26499997E-02   2.28668114E-07
  -2.26000007E-02   2.82481324E-07
  -2.25499999E-02   3.15209860E-07
  -2.25000009E-02   3.33737205E-07
  -2.24500000E-02   3.52698123E-07
  -2.23999992E-02   3.88066013E-07
  -2.23500002E-02   4.49989159E-07
  -2.22999994E-02   5.38081849E-07
  -2.22500004E-02   6.41344229E-07
  -2.21999995E-02   7.42852876E-07
  -2.21500006E-02   8.27218003E-07
  -2.20999997E-02   8.87513750E-07
  -2.20500007E-02   9.28552595E-07
  -2.19999999E-02   9.64948072E-07
  -2.19500009E-02   1.01472574E-06
  -2.19000001E-02   1.09125642E-06
  -2.18499992E-02   1.19710649E-06
  -2.18000002E-02   1.32261277E-06
  -2.17499994E-02   1.44992293E-06
  -2.17000004E-02   1.56080216E-06
  -2.16499995E-02   1.64477535E-06
  -2.16000006E-02   1.70394912E-06
  -2.15499997E-02   1.75227967E-06
  -2.15000007E-02   1.80949746E-06
  -2.14499999E-02   1.89231264E-06
  -2.14000009E-02   2.00680256E-06
  -2.13500001E-02   2.14542297E-06
  -2.12999992E-02   2.29007856E-06
  -2.12500002E-02   2.42000215E-06
  -2.11999994E-02   2.52098448E-06
  -2.11500004E-02   2.59184526E-06
  -2.10999995E-02   2.64517348E-06
  -2.10500006E-02   2.70190048E-06
  -2.09999997E-02   2.78202356E-06
  -2.09500007E-02   2.89557670E-06
  -2.08999999E-02   3.03790353E-06
  -2.08500009E-02   3.19144942E-06
  -2.08000001E-02   3.33337744E-06
  -2.07499992E-02   3.44570208E-06
  -2.07000002E-02   3.52343250E-06
  -2.06499994E-02   3.57702561E-06
  -2.06000004E-02   3.62795708E-06
  -2.05499995E-02   3.69927443E-06
  -2.05000006E-02   3.80527558E-06
  -2.04499997E-02   3.94493600E-06
  -2.04000007E-02   4.10211806E-06
  -2.03499999E-02   4.25256985E-06
  -2.03000009E-02   4.37469271E-06
  -2.02500001E-02   4.45930527E-06
  -2.01999992E-02   4.51401638E-06
  -2.01500002E-02   4.56012867E-06
  -2.00999994E-02   4.62334947E-06
  -2.00500004E-02   4.72238798E-06
  -1.99999996E-02   4.86049112E-06
  -1.99500006E-02   5.02379180E-06
  -1.98999997E-02   5.18732031E-06
  -1.98500007E-02   5.32608237E-06
  -1.97999999E-02   5.42634871E-06
  -1.97500009E-02   5.49206197E-06
  -1.97000001E-02   5.54343251E-06
  -1.96499992E-02   5.60821081E-06
  -1.96000002E-02   5.70945531E-06
  -1.95499994E-02   5.85522594E-06
  -1.95000004E-02   6.03483477E-06
  -1.94499996E-02   6.22345760E-06
  -1.94000006E-02   6.39316158E-06
  -1.93499997E-02   6.52548943E-06
  -1.93000007E-02   6.61999229E-06
  -1.92499999E-02   6.69482506E-06
  -1.92000009E-02   6.77899288E-06
  -1.91500001E-02   6.89963190E-06
  -1.90999992E-02   7.06996479E-06
  -1.90500002E-02   7.28329542E-06
  -1.89999994E-02   7.51586049E-06
  -1.89500004E-02   7.73735974E-06
  -1.88999996E-02   7.92455467E-06
  -1.88500006E-02   8.07192555E-06
  -1.87999997E-02   8.19450543E-06
  -1.87500007E-02   8.32154092E-06
  -1.86999999E-02   8.48370837E-06
  -1.86500009E-02   8.69953146E-06
  -1.86000001E-02   8.96703568E-06
  -1.85499992E-02   9.26449866E-06
  -1.85000002E-02   9.56006261E-06
  -1.84499994E-02   9.82596248E-06
  -1.84000004E-02   1.00511661E-05
  -1.83499996E-02   1.02466665E-05
  -1.83000006E-02   1.04409364E-05
  -1.82499997E-02   1.06675116E-05
  -1.82000007E-02   1.09501752E-05
  -1.81499999E-02   1.12923008E-05
  -1.81000009E-02   1.16751789E-05
  -1.80500001E-02   1.20662398E-05
  -1.79999992E-02   1.24335702E-05
  -1.79500002E-02   1.27603171E-05
  -1.78999994E-02   1.30525123E-05
  -1.78500004E-02   1.33367412E-05
  -1.77999996E-02   1.36485578E-05
  -1.77500006E-02   1.40167858E-05
  -1.76999997E-02   1.44506594E-05
  -1.76500008E-02   1.49355228E-05
  -1.75999999E-02   1.54392001E-05
  -1.75500009E-02   1.59262891E-05
  -1.75000001E-02   1.63740478E-05
  -1.74499992E-02   1.67828020E-05
  -1.74000002E-02   1.71761294E-05
  -1.73499994E-02   1.75906716E-05
  -1.73000004E-02   1.80599545E-05
  -1.72499996E-02   1.85994541E-05
  -1.72000006E-02   1.91995714E-05
  -1.71499997E-02   1.98297275E-05
  -1.71000008E-02   2.04519329E-05
  -1.70499999E-02   2.10377657E-05
  -1.70000009E-02   2.15812579E-05
  -1.69500001E-02   2.21019018E-05
  -1.68999992E-02   2.26362790E-05
  -1.68500002E-02   2.32219645E-05
  -1.67999994E-02   2.38807625E-05
  -1.67500004E-02   2.46089458E-05
  -1.66999996E-02   2.53787639E-05
  -1.66500006E-02   2.61507284E-05
  -1.65999997E-02   2.68912881E-05
  -1.65500008E-02   2.75879775E-05
  -1.64999999E-02   2.82553028E-05
  -1.64500009E-02   2.89285781E-05
  -1.64000001E-02   2.96485032E-05
  -1.63499992E-02   3.04431560E-05
  -1.63000003E-02   3.13154196E-05
  -1.62499994E-02   3.22416927E-05
  -1.62000004E-02   3.31822666E-05
  -1.61499996E-02   3.40991246E-05
  -1.61000006E-02   3.49731054E-05
  -1.60499997E-02   3.58128309E-05
  -1.60000008E-02   3.66512031E-05
  -1.59499999E-02   3.75310992E-05
  -1.59000009E-02   3.84865307E-05
  -1.58500001E-02   3.95274910E-05
  -1.57999992E-02   4.06354993E-05
  -1.57500003E-02   4.17718657E-05
  -1.56999994E-02   4.28950552E-05
  -1.56500004E-02   4.39794203E-05
  -1.55999996E-02   4.50269908E-05
  -1.55499997E-02   4.60670235E-05
  -1.54999997E-02   4.71434432E-05
  -1.54499998E-02   4.82955802E-05
  -1.53999999E-02   4.95408894E-05
  -1.53500000E-02   5.08672201E-05
  -1.53000001E-02   5.22383161E-05
  -1.52500002E-02   5.36102052E-05
  -1.52000003E-02   5.49510041E-05
  -1.51500003E-02   5.62556561E-05
  -1.51000004E-02   5.75486156E-05
  -1.50499996E-02   5.88733710E-05
  -1.49999997E-02   6.02736473E-05
  -1.49499997E-02   6.17742771E-05
  -1.48999998E-02   6.33701420E-05
  -1.48499999E-02   6.50287184E-05
  -1.48000000E-02   6.67048735E-05
  -1.47500001E-02   6.83612088E-05
  -1.47000002E-02   6.99852390E-05
  -1.46500003E-02   7.15955102E-05
  -1.46000003E-02   7.32338594E-05
  -1.45500004E-02   7.49474129E-05
  -1.44999996E-02   7.67678648E-05
  -1.44499997E-02   7.86976452E-05
  -1.43999998E-02   8.07092292E-05
  -1.43499998E-02   8.27576296E-05
  -1.42999999E-02   8.48007257E-05
  -1.42500000E-02   8.68185743E-05
  -1.42000001E-02   8.88228315E-05
  -1.41500002E-02   9.08522270E-05
  -1.41000003E-02   9.29558737E-05
  -1.40500003E-02   9.51718976E-05
  -1.40000004E-02   9.75107250E-05
  -1.39499996E-02   9.99509211E-05
  -1.38999997E-02   1.02448867E-04
  -1.38499998E-02   1.04958570E-04
  -1.37999998E-02   1.07452906E-04
  -1.37499999E-02   1.09935805E-04
  -1.37000000E-02   1.12441478E-04
  -1.36500001E-02   1.15019793E-04
  -1.36000002E-02   1.17714313E-04
  -1.35500003E-02   1.20543722E-04
  -1.35000004E-02   1.23493781E-04
  -1.34500004E-02   1.26523853E-04
  -1.33999996E-02   1.29585445E-04
  -1.33499997E-02   1.32644331E-04
  -1.32999998E-02   1.35696522E-04
  -1.32499998E-02   1.38770294E-04
  -1.31999999E-02   1.41914265E-04
  -1.31500000E-02   1.45176760E-04
  -1.31000001E-02   1.48584397E-04
  -1.30500002E-02   1.52130597E-04
  -1.30000003E-02   1.55779257E-04
  -1.29500004E-02   1.59481118E-04
  -1.29000004E-02   1.63196091E-04
  -1.28499996E-02   1.66911850E-04
  -1.27999997E-02   1.70649640E-04
  -1.27499998E-02   1.74455330E-04
  -1.26999998E-02   1.78380127E-04
  -1.26499999E-02   1.82458069E-04
  -1.26000000E-02   1.86691192E-04
  -1.25500001E-02   1.91048879E-04
  -1.25000002E-02   1.95482484E-04
  -1.24500003E-02   1.99947404E-04
  -1.24000004E-02   2.04423093E-04
  -1.23500004E-02   2.08922997E-04
  -1.22999996E-02   2.13489184E-04
  -1.22499997E-02   2.18174537E-04
  -1.21999998E-02   2.23019568E-04
  -1.21499998E-02   2.28034798E-04
  -1.20999999E-02   2.33197090E-04
  -1.20500000E-02   2.38460256E-04
  -1.20000001E-02   2.43775692E-04
  -1.19500002E-02   2.49114644E-04
  -1.19000003E-02   2.54481478E-04
  -1.18500004E-02   2.59912777E-04
  -1.18000004E-02   2.65461538E-04
  -1.17499996E-02   2.71174125E-04
  -1.16999997E-02   2.77070794E-04
  -1.16499998E-02   2.83136411E-04
  -1.15999999E-02   2.89327931E-04
  -1.15499999E-02   2.95594829E-04
  -1.15000000E-02   3.01902212E-04
  -1.14500001E-02   3.08246148E-04
  -1.14000002E-02   3.14656005E-04
  -1.13500003E-02   3.21182510E-04
  -1.13000004E-02   3.27876274E-04
  -1.12500004E-02   3.34765442E-04
  -1.11999996E-02   3.41843290E-04
  -1.11499997E-02   3.49072827E-04
  -1.10999998E-02   3.56403441E-04
  -1.10499999E-02   3.63793399E-04
  -1.09999999E-02   3.71228612E-04
  -1.09500000E-02   3.78730678E-04
  -1.09000001E-02   3.86347645E-04
  -1.08500002E-02   3.94133065E-04
  -1.08000003E-02   4.02123987E-04
  -1.07500004E-02   4.10324865E-04
  -1.07000005E-02   4.18705516E-04
  -1.06499996E-02   4.27215360E-04
  -1.05999997E-02   4.35807480E-04
  -1.05499998E-02   4.44458768E-04
  -1.04999999E-02   4.53181681E-04
  -1.04499999E-02   4.62018856E-04
  -1.04000000E-02   4.71024541E-04
  -1.03500001E-02   4.80242568E-04
  -1.03000002E-02   4.89686441E-04
  -1.02500003E-02   4.99334070E-04
  -1.02000004E-02   5.09138976E-04
  -1.01500005E-02   5.19050867E-04
  -1.00999996E-02   5.29038254E-04
  -1.00499997E-02   5.39104221E-04
  -9.99999978E-03   5.49284858E-04
  -9.94999986E-03   5.59633016E-04
  -9.89999995E-03   5.70197997E-04
  -9.85000003E-03   5.81003027E-04
  -9.80000012E-03   5.92035300E-04
  -9.75000020E-03   6.03252964E-04
  -9.70000029E-03   6.14604331E-04
  -9.65000037E-03   6.26051624E-04
  -9.60000046E-03   6.37587334E-04
  -9.54999961E-03   6.49238878E-04
  -9.49999969E-03   6.61057420E-04
  -9.44999978E-03   6.73094415E-04
  -9.39999986E-03   6.85380190E-04
  -9.34999995E-03   6.97911950E-04
  -9.30000003E-03   7.10655644E-04
  -9.25000012E-03   7.23561330E-04
  -9.20000020E-03   7.36584770E-04
  -9.15000029E-03   7.49708794E-04
  -9.10000037E-03   7.62949756E-04
  -9.05000046E-03   7.76350789E-04
  -8.99999961E-03   7.89964746E-04
  -8.94999970E-03   8.03830975E-04
  -8.89999978E-03   8.17958731E-04
  -8.84999987E-03   8.32323451E-04
  -8.79999995E-03   8.46877287E-04
  -8.75000004E-03   8.61573382E-04
  -8.70000012E-03   8.76385020E-04
  -8.65000021E-03   8.91316973E-04
  -8.60000029E-03   9.06405272E-04
  -8.55000038E-03   9.21702012E-04
  -8.50000046E-03   9.37251898E-04
  -8.44999962E-03   9.53073439E-04
  -8.39999970E-03   9.69152781E-04
  -8.34999979E-03   9.85447667E-04
  -8.29999987E-03   1.00190670E-03
  -8.24999996E-03   1.01849355E-03
  -8.20000004E-03   1.03520229E-03
  -8.15000013E-03   1.05205993E-03
  -8.10000021E-03   1.06911559E-03
  -8.05000030E-03   1.08641922E-03
  -8.00000038E-03   1.10399886E-03
  -7.95000046E-03   1.12184964E-03
  -7.89999962E-03   1.13993627E-03
  -7.84999970E-03   1.15820928E-03
  -7.79999979E-03   1.17662444E-03
  -7.74999987E-03   1.19516253E-03
  -7.69999996E-03   1.21384102E-03
  -7.65000004E-03   1.23270450E-03
  -7.60000013E-03   1.25180476E-03
  -7.55000021E-03   1.27117883E-03
  -7.49999983E-03   1.29083602E-03
  -7.44999992E-03   1.31075166E-03
  -7.40000000E-03   1.33087416E-03
  -7.35000009E-03   1.35115127E-03
  -7.30000017E-03   1.37155433E-03
  -7.24999979E-03   1.39208813E-03
  -7.19999988E-03   1.41278841E-03
  -7.14999996E-03   1.43370731E-03
  -7.10000005E-03   1.45489187E-03
  -7.05000013E-03   1.47635932E-03
  -7.00000022E-03   1.49808975E-03
  -6.94999984E-03   1.52003544E-03
  -6.89999992E-03   1.54214213E-03
  -6.85000001E-03   1.56437221E-03
  -6.80000009E-03   1.58671779E-03
  -6.75000018E-03   1.60920713E-03
  -6.69999979E-03   1.63189042E-03
  -6.64999988E-03   1.65481586E-03
  -6.59999996E-03   1.67801313E-03
  -6.55000005E-03   1.70147966E-03
  -6.50000013E-03   1.72517274E-03
  -6.45000022E-03   1.74903334E-03
  -6.39999984E-03   1.77301466E-03
  -6.34999992E-03   1.79709611E-03
  -6.30000001E-03   1.82129024E-03
  -6.25000009E-03   1.84564327E-03
  -6.20000018E-03   1.87021005E-03
  -6.14999980E-03   1.89502758E-03
  -6.09999988E-03   1.92009890E-03
  -6.04999997E-03   1.94538862E-03
  -6.00000005E-03   1.97084108E-03
  -5.95000014E-03   1.99640100E-03
  -5.90000022E-03   2.02203868E-03
  -5.84999984E-03   2.04775715E-03
  -5.79999993E-03   2.07359018E-03
  -5.75000001E-03   2.09958758E-03
  -5.70000010E-03   2.12578988E-03
  -5.65000018E-03   2.15221476E-03
  -5.59999980E-03   2.17884523E-03
  -5.54999989E-03   2.20562634E-03
  -5.49999997E-03   2.23249476E-03
  -5.45000006E-03   2.25941022E-03
  -5.40000014E-03   2.28636200E-03
  -5.35000023E-03   2.31337664E-03
  -5.29999984E-03   2.34049745E-03
  -5.24999993E-03   2.36776844E-03
  -5.20000001E-03   2.39521731E-03
  -5.15000010E-03   2.42283568E-03
  -5.10000018E-03   2.45058071E-03
  -5.04999980E-03   2.47839116E-03
  -4.99999989E-03   2.50621326E-03
  -4.94999997E-03   2.53401208E-03
  -4.90000006E-03   2.56179692E-03
  -4.85000014E-03   2.58961390E-03
  -4.80000023E-03   2.61751004E-03
  -4.74999985E-03   2.64551211E-03
  -4.69999993E-03   2.67362199E-03
  -4.65000002E-03   2.70181289E-03
  -4.60000010E-03   2.73002358E-03
  -4.55000019E-03   2.75819330E-03
  -4.49999981E-03   2.78628268E-03
  -4.44999989E-03   2.81428033E-03
  -4.39999998E-03   2.84221675E-03
  -4.35000006E-03   2.87014083E-03
  -4.30000015E-03   2.89809261E-03
  -4.25000023E-03   2.92608514E-03
  -4.19999985E-03   2.95409374E-03
  -4.14999994E-03   2.98206531E-03
  -4.10000002E-03   3.00993444E-03
  -4.05000011E-03   3.03764292E-03
  -4.00000019E-03   3.06516048E-03
  -3.94999981E-03   3.09250201E-03
  -3.89999989E-03   3.11971107E-03
  -3.84999998E-03   3.14684049E-03
  -3.80000006E-03   3.17392242E-03
  -3.74999992E-03   3.20093404E-03
  -3.70000000E-03   3.22782854E-03
  -3.65000009E-03   3.25454772E-03
  -3.59999994E-03   3.28102149E-03
  -3.55000002E-03   3.30720097E-03
  -3.50000011E-03   3.33307753E-03
  -3.44999996E-03   3.35868169E-03
  -3.40000005E-03   3.38406186E-03
  -3.34999990E-03   3.40925995E-03
  -3.29999998E-03   3.43428436E-03
  -3.25000007E-03   3.45910573E-03
  -3.19999992E-03   3.48366308E-03
  -3.15000000E-03   3.50786792E-03
  -3.10000009E-03   3.53165437E-03
  -3.04999994E-03   3.55499960E-03
  -3.00000003E-03   3.57792294E-03
  -2.95000011E-03   3.60047189E-03
  -2.89999996E-03   3.62269231E-03
  -2.85000005E-03   3.64460866E-03
  -2.79999990E-03   3.66620254E-03
  -2.74999999E-03   3.68741085E-03
  -2.70000007E-03   3.70815606E-03
  -2.64999992E-03   3.72835714E-03
  -2.60000001E-03   3.74795706E-03
  -2.55000009E-03   3.76695860E-03
  -2.49999994E-03   3.78539669E-03
  -2.45000003E-03   3.80331930E-03
  -2.40000011E-03   3.82077112E-03
  -2.34999997E-03   3.83776287E-03
  -2.30000005E-03   3.85425263E-03
  -2.24999990E-03   3.87014449E-03
  -2.19999999E-03   3.88532970E-03
  -2.15000007E-03   3.89973773E-03
  -2.09999993E-03   3.91335739E-03
  -2.05000001E-03   3.92621662E-03
  -2.00000009E-03   3.93836759E-03
  -1.94999995E-03   3.94986337E-03
  -1.90000003E-03   3.96072166E-03
  -1.85000000E-03   3.97092057E-03
  -1.79999997E-03   3.98037117E-03
  -1.75000005E-03   3.98896076E-03
  -1.70000002E-03   3.99659295E-03
  -1.64999999E-03   4.00320906E-03
  -1.59999996E-03   4.00882261E-03
  -1.55000004E-03   4.01350623E-03
  -1.50000001E-03   4.01734654E-03
  -1.44999998E-03   4.02037846E-03
  -1.39999995E-03   4.02257545E-03
  -1.35000004E-03   4.02385276E-03
  -1.30000000E-03   4.02407488E-03
  -1.24999997E-03   4.02310863E-03
  -1.20000006E-03   4.02089348E-03
  -1.15000003E-03   4.01743501E-03
  -1.09999999E-03   4.01280401E-03
  -1.04999996E-03   4.00710525E-03
  -1.00000005E-03   4.00038995E-03
  -9.50000016E-04   3.99264833E-03
  -8.99999985E-04   3.98379844E-03
  -8.50000011E-04   3.97369405E-03
  -7.99999980E-04   3.96219874E-03
  -7.50000007E-04   3.94921377E-03
  -6.99999975E-04   3.93472193E-03
  -6.50000002E-04   3.91879352E-03
  -6.00000028E-04   3.90153518E-03
  -5.49999997E-04   3.88303306E-03
  -5.00000024E-04   3.86330043E-03
  -4.49999992E-04   3.84226954E-03
  -3.99999990E-04   3.81978136E-03
  -3.49999988E-04   3.79566127E-03
  -3.00000014E-04   3.76979634E-03
  -2.50000012E-04   3.74214561E-03
  -1.99999995E-04   3.71275679E-03
  -1.50000007E-04   3.68173956E-03
  -9.99999975E-05   3.64921056E-03
  -4.99999987E-05   3.61522962E-03
   0.00000000       3.57975625E-03
   4.99999987E-05   3.54265282E-03
   9.99999975E-05   3.50371981E-03
   1.50000007E-04   3.46278469E-03
   1.99999995E-04   3.41976620E-03
   2.50000012E-04   3.37468134E-03
   3.00000014E-04   3.32764653E-03
   3.49999988E-04   3.27881565E-03
   3.99999990E-04   3.22831259E-03
   4.49999992E-04   3.17612384E-03
   5.00000024E-04   3.12210363E-03
   5.49999997E-04   3.06604756E-03
   6.00000028E-04   3.00773606E-03
   6.50000002E-04   2.94702291E-03
   6.99999975E-04   2.88391649E-03
   7.50000007E-04   2.81854696E-03
   7.99999980E-04   2.75111687E-03
   8.50000011E-04   2.68176082E-03
   8.99999985E-04   2.61047669E-03
   9.50000016E-04   2.53715436E-03
   1.00000005E-03   2.46157125E-03
   1.04999996E-03   2.38350010E-03
   1.09999999E-03   2.30278471E-03
   1.15000003E-03   2.21939292E-03
   1.20000006E-03   2.13343254E-03
   1.24999997E-03   2.04506982E-03
   1.30000000E-03   1.95445260E-03
   1.35000004E-03   1.86164991E-03
   1.39999995E-03   1.76659459E-03
   1.44999998E-03   1.66910666E-03
   1.50000001E-03   1.56895118E-03
   1.55000004E-03   1.46591570E-03
   1.59999996E-03   1.35992281E-03
   1.64999999E-03   1.25104876E-03
   1.70000002E-03   1.13945198E-03
   1.75000005E-03   1.02533551E-03
   1.79999997E-03   9.08814720E-04
   1.85000000E-03   7.89826619E-04
   1.90000003E-03   6.68188033E-04
   1.94999995E-03   5.43651346E-04
   2.00000009E-03   4.16003546E-04
   2.05000001E-03   2.85158952E-04
   2.09999993E-03   1.51149725E-04
   2.15000007E-03   1.41249711E-05
   2.19999999E-03  -1.25720486E-04
   2.24999990E-03  -2.68244970E-04
   2.30000005E-03  -4.13437461E-04
   2.34999997E-03  -5.61431923E-04
   2.40000011E-03  -7.12459092E-04
   2.45000003E-03  -8.66772141E-04
   2.49999994E-03  -1.02452433E-03
   2.55000009E-03  -1.18572020E-03
   2.60000001E-03  -1.35022728E-03
   2.64999992E-03  -1.51783042E-03
   2.70000007E-03  -1.68834871E-03
   2.74999999E-03  -1.86171429E-03
   2.79999990E-03  -2.03803554E-03