  -3.99999991E-02   0.00000000    
  -3.99499983E-02   0.00000000    
  -3.99000011E-02   0.00000000    
  -3.98500003E-02   0.00000000    
  -3.97999994E-02   0.00000000    
  -3.97499986E-02   3.14064049E-23
  -3.97000015E-02   2.77465175E-22
  -3.96500006E-02   1.27250428E-21
  -3.95999998E-02   3.97387502E-21
  -3.95499989E-02   9.30221144E-21
  -3.95000018E-02   1.68076557E-20
  -3.94500010E-02   2.26481341E-20
  -3.94000001E-02   1.79505802E-20
  -3.93499993E-02  -1.06744685E-20
  -3.92999984E-02  -7.69496656E-20
  -3.92500013E-02  -1.87248410E-19
  -3.92000005E-02  -3.32294117E-19
  -3.91499996E-02  -4.83383412E-19
  -3.90999988E-02  -5.98105505E-19
  -3.90500017E-02  -6.36742594E-19
  -3.90000008E-02  -5.84072334E-19
  -3.89500000E-02  -4.65479863E-19
  -3.88999991E-02  -3.45376263E-19
  -3.88499983E-02  -3.02327586E-19
  -3.88000011E-02  -3.87380778E-19
  -3.87500003E-02  -5.84014845E-19
  -3.86999995E-02  -7.92673739E-19
  -3.86499986E-02  -8.55297619E-19
  -3.86000015E-02  -6.16879041E-19
  -3.85500006E-02   5.18278384E-22
  -3.84999998E-02   9.49337922E-19
  -3.84499989E-02   2.06746887E-18
  -3.84000018E-02   3.15792515E-18
  -3.83500010E-02   4.11066785E-18
  -3.83000001E-02   5.00989300E-18
  -3.82499993E-02   6.16449610E-18
  -3.81999984E-02   8.02717904E-18
  -3.81500013E-02   1.10202428E-17
  -3.81000005E-02   1.53392307E-17
  -3.80499996E-02   2.08303418E-17
  -3.79999988E-02   2.70159603E-17
  -3.79500017E-02   3.32791966E-17
  -3.79000008E-02   3.91393609E-17
  -3.78500000E-02   4.44942999E-17
  -3.77999991E-02   4.97039364E-17
  -3.77499983E-02   5.54513461E-17
  -3.77000012E-02   6.24208821E-17
  -3.76500003E-02   7.09298839E-17
  -3.75999995E-02   8.06904960E-17
  -3.75499986E-02   9.08323193E-17
  -3.75000015E-02   1.00199703E-16
  -3.74500006E-02   1.07802260E-16
  -3.73999998E-02   1.13212491E-16
  -3.73499990E-02   1.16716349E-16
  -3.73000018E-02   1.19130340E-16
  -3.72500010E-02   1.21353431E-16
  -3.72000001E-02   1.23849227E-16
  -3.71499993E-02   1.26291792E-16
  -3.70999984E-02   1.27535686E-16
  -3.70500013E-02   1.25921175E-16
  -3.70000005E-02   1.19772881E-16
  -3.69499996E-02   1.07869758E-16
  -3.68999988E-02   8.96984796E-17
  -3.68500017E-02   6.54262344E-17
  -3.68000008E-02   3.56698743E-17
  -3.67500000E-02   1.21460647E-18
  -3.66999991E-02  -3.71932299E-17
  -3.66499983E-02  -7.89550909E-17
  -3.66000012E-02  -1.23700281E-16
  -3.65500003E-02  -1.71417710E-16
  -3.64999995E-02  -2.22631228E-16
  -3.64499986E-02  -2.78481431E-16
  -3.64000015E-02  -3.40511665E-16
  -3.63500006E-02  -4.10041132E-16
  -3.62999998E-02  -4.87244956E-16
  -3.62499990E-02  -5.70341482E-16
  -3.62000018E-02  -6.55427636E-16
  -3.61500010E-02  -7.37349380E-16
  -3.61000001E-02  -8.11523579E-16
  -3.60499993E-02  -8.76025191E-16
  -3.59999985E-02  -9.32848820E-16
  -3.59500013E-02  -9.87365660E-16
  -3.59000005E-02  -1.04571765E-15
  -3.58499996E-02  -1.11098313E-15
  -3.57999988E-02  -1.17988323E-15
  -3.57500017E-02  -1.24199520E-15
  -3.57000008E-02  -1.28260069E-15
  -3.56500000E-02  -1.28860848E-15
  -3.55999991E-02  -1.25517821E-15
  -3.55499983E-02  -1.18968350E-15
  -3.55000012E-02  -1.11024282E-15
  -3.54500003E-02  -1.03826112E-15
  -3.53999995E-02  -9.87478316E-16
  -3.53499986E-02  -9.54445089E-16
  -3.53000015E-02  -9.15724672E-16
  -3.52500007E-02  -8.34788662E-16
  -3.51999998E-02  -6.77195642E-16
  -3.51499990E-02  -4.28078858E-16
  -3.51000018E-02  -1.03564674E-16
  -3.50500010E-02   2.50834249E-16
  -3.50000001E-02   5.76557592E-16
  -3.49499993E-02   8.27660616E-16
  -3.48999985E-02   9.94705836E-16
  -3.48500013E-02   1.11468138E-15
  -3.48000005E-02   1.25960057E-15
  -3.47499996E-02   1.50584332E-15
  -3.46999988E-02   1.89628421E-15
  -3.46500017E-02   2.41285445E-15
  -3.46000008E-02   2.97485129E-15
  -3.45500000E-02   3.46793140E-15
  -3.44999991E-02   3.79421760E-15
  -3.44499983E-02   3.92196626E-15
  -3.44000012E-02   3.91014083E-15
  -3.43500003E-02   3.89194910E-15
  -3.42999995E-02   4.01933862E-15
  -3.42499986E-02   4.39004979E-15
  -3.42000015E-02   4.99062199E-15
  -3.41500007E-02   5.68569765E-15
  -3.40999998E-02   6.26548069E-15
  -3.40499990E-02   6.53625002E-15
  -3.40000018E-02   6.41552199E-15
  -3.39500010E-02   5.98590561E-15
  -3.39000002E-02   5.47573681E-15
  -3.38499993E-02   5.16619582E-15
  -3.37999985E-02   5.26061882E-15
  -3.37500013E-02   5.77488344E-15
  -3.37000005E-02   6.50512748E-15
  -3.36499996E-02   7.09849270E-15
  -3.35999988E-02   7.20560764E-15
  -3.35500017E-02   6.65092557E-15
  -3.35000008E-02   5.54035060E-15
  -3.34500000E-02   4.24603556E-15
  -3.33999991E-02   3.26055253E-15
  -3.33499983E-02   2.97505838E-15
  -3.33000012E-02   3.47951479E-15
  -3.32500003E-02   4.48398744E-15
  -3.31999995E-02   5.41314743E-15
  -3.31499986E-02   5.64852349E-15
  -3.31000015E-02   4.81884836E-15
  -3.30500007E-02   3.00445847E-15
  -3.29999998E-02   7.48052277E-16
  -3.29499990E-02  -1.15457494E-15
  -3.29000019E-02  -2.00737258E-15
  -3.28500010E-02  -1.55675370E-15
  -3.28000002E-02  -1.58928104E-16
  -3.27499993E-02   1.32671226E-15
  -3.26999985E-02   1.89567011E-15
  -3.26500013E-02   8.62483781E-16
  -3.26000005E-02  -1.78023900E-15
  -3.25499997E-02  -5.29026413E-15
  -3.24999988E-02  -8.45487874E-15
  -3.24500017E-02  -1.01225596E-14
  -3.24000008E-02  -9.75851497E-15
  -3.23500000E-02  -7.76151706E-15
  -3.22999991E-02  -5.36769268E-15
  -3.22499983E-02  -4.14706696E-15
  -3.22000012E-02  -5.29329735E-15
  -3.21500003E-02  -9.02461174E-15
  -3.20999995E-02  -1.43909593E-14
  -3.20499986E-02  -1.96166291E-14
  -3.20000015E-02  -2.28648853E-14
  -3.19500007E-02  -2.31001064E-14
  -3.18999998E-02  -2.06470617E-14
  -3.18499990E-02  -1.71546754E-14
  -3.18000019E-02  -1.49279596E-14
  -3.17500010E-02  -1.58884526E-14
  -3.17000002E-02  -2.06226688E-14
  -3.16499993E-02  -2.79767529E-14
  -3.15999985E-02  -3.54369413E-14
  -3.15500014E-02  -4.01843374E-14
  -3.15000005E-02  -4.03842846E-14
  -3.14499997E-02  -3.61222283E-14
  -3.13999988E-02  -2.95155271E-14
  -3.13500017E-02  -2.38798832E-14
  -3.13000008E-02  -2.22649353E-14
  -3.12500000E-02  -2.59962983E-14
  -3.11999992E-02  -3.39099883E-14
  -3.11500002E-02  -4.26942925E-14
  -3.10999993E-02  -4.82662142E-14
  -3.10500003E-02  -4.76173734E-14
  -3.09999995E-02  -4.02994085E-14
  -3.09500005E-02  -2.88239722E-14
  -3.08999997E-02  -1.77063513E-14
  -3.08500007E-02  -1.14977743E-14
  -3.07999998E-02  -1.26522717E-14
  -3.07500008E-02  -2.02153120E-14
  -3.07000000E-02  -3.00099674E-14
  -3.06499992E-02  -3.63447845E-14
  -3.06000002E-02  -3.45565929E-14
  -3.05499993E-02  -2.32603853E-14
  -3.05000003E-02  -5.23355569E-15
  -3.04499995E-02   1.35766456E-14
  -3.04000005E-02   2.65928925E-14
  -3.03499997E-02   2.96189871E-14
  -3.03000007E-02   2.29508608E-14
  -3.02499998E-02   1.15403419E-14
  -3.02000009E-02   3.00084778E-15
  -3.01500000E-02   4.23636117E-15
  -3.00999992E-02   1.81704102E-14
  -3.00500002E-02   4.21054115E-14
  -2.99999993E-02   6.85863381E-14
  -2.99500003E-02   8.85346348E-14
  -2.98999995E-02   9.53461350E-14
  -2.98500005E-02   8.81114639E-14
  -2.97999997E-02   7.24046813E-14
  -2.97500007E-02   5.81150051E-14
  -2.96999998E-02   5.51358851E-14
  -2.96500009E-02   6.87735188E-14
  -2.96000000E-02   9.69856045E-14
  -2.95499992E-02   1.30846004E-13
  -2.95000002E-02   1.58222909E-13
  -2.94499993E-02   1.69167929E-13
  -2.94000003E-02   1.60628496E-13
  -2.93499995E-02   1.38261771E-13
  -2.93000005E-02   1.14335516E-13
  -2.92499997E-02   1.02449814E-13
  -2.92000007E-02   1.11328488E-13
  -2.91499998E-02   1.40492557E-13
  -2.91000009E-02   1.79925654E-13
  -2.90500000E-02   2.14119927E-13
  -2.89999992E-02   2.28891260E-13
  -2.89500002E-02   2.17979416E-13
  -2.88999993E-02   1.86377132E-13
  -2.88500004E-02   1.48663999E-13
  -2.87999995E-02   1.22828085E-13
  -2.87500005E-02   1.22164282E-13
  -2.86999997E-02   1.48871529E-13
  -2.86500007E-02   1.92389887E-13
  -2.85999998E-02   2.33505896E-13
  -2.85500009E-02   2.52655725E-13
  -2.85000000E-02   2.38838382E-13
  -2.84499992E-02   1.95075713E-13
  -2.84000002E-02   1.37723220E-13
  -2.83499993E-02   8.96189319E-14
  -2.83000004E-02   6.98870690E-14
  -2.82499995E-02   8.49015411E-14
  -2.82000005E-02   1.24619201E-13
  -2.81499997E-02   1.66249908E-13
  -2.81000007E-02   1.83966191E-13
  -2.80499998E-02   1.60516606E-13
  -2.80000009E-02   9.55196683E-14
  -2.79500000E-02   6.46699618E-15
  -2.78999992E-02  -7.83979340E-14
  -2.78500002E-02  -1.32480466E-13
  -2.77999993E-02  -1.43107883E-13
  -2.77500004E-02  -1.18053733E-13
  -2.76999995E-02  -8.30413009E-14
  -2.76500005E-02  -7.09164579E-14
  -2.75999997E-02  -1.07023555E-13
  -2.75500007E-02  -1.97275586E-13
  -2.74999999E-02  -3.24497075E-13
  -2.74500009E-02  -4.55108715E-13
  -2.74000000E-02  -5.53601056E-13
  -2.73499992E-02  -5.98565576E-13
  -2.73000002E-02  -5.93041512E-13
  -2.72499993E-02  -5.64186718E-13
  -2.72000004E-02  -5.51915067E-13
  -2.71499995E-02  -5.91157440E-13
  -2.71000005E-02  -6.95530005E-13
  -2.70499997E-02  -8.49917305E-13
  -2.70000007E-02  -1.01576375E-12
  -2.69499999E-02  -1.14725514E-12
  -2.69000009E-02  -1.21152968E-12
  -2.68500000E-02  -1.20390612E-12
  -2.67999992E-02  -1.15097829E-12
  -2.67500002E-02  -1.09961736E-12
  -2.66999993E-02  -1.09624994E-12
  -2.66500004E-02  -1.16539590E-12
  -2.65999995E-02  -1.29719271E-12
  -2.65500005E-02  -1.44997740E-12
  -2.64999997E-02  -1.56742674E-12
  -2.64500007E-02  -1.60311478E-12
  -2.63999999E-02  -1.54166111E-12
  -2.63500009E-02  -1.40672077E-12
  -2.63000000E-02  -1.25161036E-12
  -2.62499992E-02  -1.13606986E-12
  -2.62000002E-02  -1.09910518E-12
  -2.61499994E-02  -1.14006905E-12
  -2.61000004E-02  -1.21692370E-12
  -2.60499995E-02  -1.26322108E-12
  -2.60000005E-02  -1.21691220E-12
  -2.59499997E-02  -1.04843868E-12
  -2.59000007E-02  -7.75351246E-13
  -2.58499999E-02  -4.56263499E-13
  -2.58000009E-02  -1.66011519E-13
  -2.57500000E-02   3.75168104E-14
  -2.56999992E-02   1.40208334E-13
  -2.56500002E-02   1.79792121E-13
  -2.55999994E-02   2.30712883E-13
  -2.55500004E-02   3.71694022E-13
  -2.54999995E-02   6.49955350E-13
  -2.54500005E-02   1.05813980E-12
  -2.53999997E-02   1.53491315E-12
  -2.53500007E-02   1.98993556E-12
  -2.52999999E-02   2.34290538E-12
  -2.52500009E-02   2.55959468E-12
  -2.52000000E-02   2.66845292E-12
  -2.51499992E-02   2.74949573E-12
  -2.51000002E-02   2.89938104E-12
  -2.50499994E-02   3.18750820E-12
  -2.50000004E-02   3.62262715E-12
  -2.49499995E-02   4.14546739E-12
  -2.49000005E-02   4.65175858E-12
  -2.48499997E-02   5.03644869E-12
  -2.48000007E-02   5.23997859E-12
  -2.47499999E-02   5.27580063E-12
  -2.47000009E-02   5.22597157E-12
  -2.46500000E-02   5.20557252E-12
  -2.45999992E-02   5.31081993E-12
  -2.45500002E-02   5.57367737E-12
  -2.44999994E-02   5.94373639E-12
  -2.44500004E-02   6.30661235E-12
  -2.43999995E-02   6.53198459E-12
  -2.43500005E-02   6.53072605E-12
  -2.42999997E-02   6.29570354E-12
  -2.42500007E-02   5.90719834E-12
  -2.41999999E-02   5.49916189E-12
  -2.41500009E-02   5.20004916E-12
  -2.41000000E-02   5.07397726E-12
  -2.40499992E-02   5.08878530E-12
  -2.40000002E-02   5.12643877E-12
  -2.39499994E-02   5.03268000E-12
  -2.39000004E-02   4.68500108E-12
  -2.38499995E-02   4.04896646E-12
  -2.38000005E-02   3.19703855E-12
  -2.37499997E-02   2.28002708E-12
  -2.37000007E-02   1.46229773E-12
  -2.36499999E-02   8.48638488E-13
  -2.36000009E-02   4.35477500E-13
  -2.35500000E-02   1.09360803E-13
  -2.34999992E-02  -3.04886731E-13
  -2.34500002E-02  -9.66225364E-13
  -2.33999994E-02  -1.94375657E-12
  -2.33500004E-02  -3.18074430E-12
  -2.32999995E-02  -4.51389143E-12
  -2.32500006E-02  -5.74116232E-12
  -2.31999997E-02  -6.70932363E-12
  -2.31500007E-02  -7.38241759E-12
  -2.30999999E-02  -7.85963829E-12
  -2.30500009E-02  -8.33275202E-12
  -2.30000000E-02  -9.00015305E-12
  -2.29499992E-02  -9.97480310E-12
  -2.29000002E-02  -1.12273576E-11
  -2.28499994E-02  -1.25913949E-11
  -2.28000004E-02  -1.38305461E-11
  -2.27499995E-02  -1.47394267E-11
  -2.27000006E-02  -1.52340415E-11
  -2.26499997E-02  -1.53905326E-11
  -2.26000007E-02  -1.54130320E-11
  -2.25499999E-02  -1.55427286E-11
  -2.25000009E-02  -1.59471325E-11
  -2.24500000E-02  -1.66388396E-11
  -2.23999992E-02  -1.74614472E-11
  -2.23500002E-02  -1.81512617E-11
  -2.22999994E-02  -1.84495544E-11
  -2.22500004E-02  -1.82164839E-11
  -2.21999995E-02  -1.74953906E-11
  -2.21500006E-02  -1.64968733E-11
  -2.20999997E-02  -1.55071962E-11
  -2.20500007E-02  -1.47598583E-11
  -2.19999999E-02  -1.43270361E-11
  -2.19500009E-02  -1.40805310E-11
  -2.19000001E-02  -1.37421055E-11
  -2.18499992E-02  -1.30034421E-11
  -2.18000002E-02  -1.16639164E-11
  -2.17499994E-02  -9.72467506E-12
  -2.17000004E-02  -7.39523200E-12
  -2.16499995E-02  -5.00682482E-12
  -2.16000006E-02  -2.86865475E-12
  -2.15499997E-02  -1.12999627E-12
  -2.15000007E-02   2.89474228E-13
  -2.14499999E-02   1.66759271E-12
  -2.14000009E-02   3.35715050E-12
  -2.13500001E-02   5.62528713E-12
  -2.12999992E-02   8.52602884E-12
  -2.12500002E-02   1.18644304E-11
  -2.11999994E-02   1.52712721E-11
  -2.11500004E-02   1.83580044E-11
  -2.10999995E-02   2.08845718E-11
  -2.10500006E-02   2.28648819E-11
  -2.09999997E-02   2.45605324E-11
  -2.09500007E-02   2.63623567E-11
  -2.08999999E-02   2.86098003E-11
  -2.08500009E-02   3.14277701E-11
  -2.08000001E-02   3.46549699E-11
  -2.07499992E-02   3.78987848E-11
  -2.07000002E-02   4.06956691E-11
  -2.06499994E-02   4.27079448E-11
  -2.06000004E-02   4.38694324E-11
  -2.05499995E-02   4.44129421E-11
  -2.05000006E-02   4.47638454E-11
  -2.04499997E-02   4.53440202E-11
  -2.04000007E-02   4.63719202E-11
  -2.03499999E-02   4.77488188E-11
  -2.03000009E-02   4.90848924E-11
  -2.02500001E-02   4.98574203E-11
  -2.01999992E-02   4.96335195E-11
  -2.01500002E-02   4.82589871E-11
  -2.00999994E-02   4.59273765E-11
  -2.00500004E-02   4.30949547E-11
  -1.99999996E-02   4.02757376E-11
  -1.99500006E-02   3.78057308E-11
  -1.98999997E-02   3.56816798E-11
  -1.98500007E-02   3.35491010E-11
  -1.97999999E-02   3.08489241E-11
  -1.97500009E-02   2.70610357E-11
  -1.97000001E-02   2.19377849E-11
  -1.96499992E-02   1.56220818E-11
  -1.96000002E-02   8.59406556E-12
  -1.95499994E-02   1.46596754E-12
  -1.95000004E-02  -5.28638678E-12
  -1.94499996E-02  -1.15361887E-11
  -1.94000006E-02  -1.75652253E-11
  -1.93499997E-02  -2.39397512E-11
  -1.93000007E-02  -3.12538086E-11
  -1.92499999E-02  -3.98521494E-11
  -1.92000009E-02  -4.96569071E-11
  -1.91500001E-02  -6.01784386E-11
  -1.90999992E-02  -7.07101461E-11
  -1.90500002E-02  -8.06238895E-11
  -1.89999994E-02  -8.96358821E-11
  -1.89500004E-02  -9.79224410E-11
  -1.88999996E-02  -1.06030192E-10
  -1.88500006E-02  -1.14615976E-10
  -1.87999997E-02  -1.24129582E-10
  -1.87500007E-02  -1.34580375E-10
  -1.86999999E-02  -1.45495005E-10
  -1.86500009E-02  -1.56089530E-10
  -1.86000001E-02  -1.65583644E-10
  -1.85499992E-02  -1.73519255E-10
  -1.85000002E-02  -1.79940091E-10
  -1.84499994E-02  -1.85348806E-10
  -1.84000004E-02  -1.90455499E-10
  -1.83499996E-02  -1.95826355E-10
  -1.83000006E-02  -2.01587955E-10
  -1.82499997E-02  -2.07321493E-10
  -1.82000007E-02  -2.12198772E-10
  -1.81499999E-02  -2.15304469E-10
  -1.81000009E-02  -2.16003895E-10
  -1.80500001E-02  -2.14192275E-10
  -1.79999992E-02  -2.10310977E-10
  -1.79500002E-02  -2.05118686E-10
  -1.78999994E-02  -1.99314648E-10
  -1.78500004E-02  -1.93180597E-10
  -1.77999996E-02  -1.86402394E-10
  -1.77500006E-02  -1.78155435E-10
  -1.76999997E-02  -1.67421257E-10
  -1.76500008E-02  -1.53397947E-10
  -1.75999999E-02  -1.35822353E-10
  -1.75500009E-02  -1.15057672E-10
  -1.75000001E-02  -9.19021109E-11
  -1.74499992E-02  -6.71993156E-11
  -1.74000002E-02  -4.14212588E-11
  -1.73499994E-02  -1.44103245E-11
  -1.73000004E-02   1.46001856E-11
  -1.72499996E-02   4.66907901E-11
  -1.72000006E-02   8.28124791E-11
  -1.71499997E-02   1.23391672E-10
  -1.71000008E-02   1.68161179E-10
  -1.70499999E-02   2.16297688E-10
  -1.70000009E-02   2.66809880E-10
  -1.69500001E-02   3.19008070E-10
  -1.68999992E-02   3.72845865E-10
  -1.68500002E-02   4.28978353E-10
  -1.67999994E-02   4.88505292E-10
  -1.67500004E-02   5.52508095E-10
  -1.66999996E-02   6.21584950E-10
  -1.66500006E-02   6.95592306E-10
  -1.65999997E-02   7.73712316E-10
  -1.65500008E-02   8.54822768E-10
  -1.64999999E-02   9.38008116E-10
  -1.64500009E-02   1.02298658E-09
  -1.64000001E-02   1.11025877E-09
  -1.63499992E-02   1.20090748E-09
  -1.63000003E-02   1.29613009E-09
  -1.62499994E-02   1.39671230E-09
  -1.62000004E-02   1.50267288E-09
  -1.61499996E-02   1.61324643E-09
  -1.61000006E-02   1.72721626E-09
  -1.60499997E-02   1.84345406E-09
  -1.60000008E-02   1.96142858E-09
  -1.59499999E-02   2.08145567E-09
  -1.59000009E-02   2.20457141E-09
  -1.58500001E-02   2.33208164E-09
  -1.57999992E-02   2.46498200E-09
  -1.57500003E-02   2.60350608E-09
  -1.56999994E-02   2.74700951E-09
  -1.56500004E-02   2.89424418E-09
  -1.55999996E-02   3.04390890E-09
  -1.55499997E-02   3.19523408E-09
  -1.54999997E-02   3.34833716E-09
  -1.54499998E-02   3.50419027E-09
  -1.53999999E-02   3.66420272E-09
  -1.53500000E-02   3.82960463E-09
  -1.53000001E-02   4.00090139E-09
  -1.52500002E-02   4.17764490E-09
  -1.52000003E-02   4.35863079E-09
  -1.51500003E-02   4.54244065E-09
  -1.51000004E-02   4.72808814E-09
  -1.50499996E-02   4.91548713E-09
  -1.49999997E-02   5.10552400E-09
  -1.49499997E-02   5.29970245E-09
  -1.48999998E-02   5.49950308E-09
  -1.48499999E-02   5.70575143E-09
  -1.48000000E-02   5.91827298E-09
  -1.47500001E-02   6.13598683E-09
  -1.47000002E-02   6.35742259E-09
  -1.46500003E-02   6.58140964E-09
  -1.46000003E-02   6.80765799E-09
  -1.45500004E-02   7.03694836E-09
  -1.44999996E-02   7.27085725E-09
  -1.44499997E-02   7.51111795E-09
  -1.43999998E-02   7.75891262E-09
  -1.43499998E-02   8.01439981E-09
  -1.42999999E-02   8.27670199E-09
  -1.42500000E-02   8.54435633E-09
  -1.42000001E-02   8.81604034E-09
  -1.41500002E-02   9.09125220E-09
  -1.41000003E-02   9.37063493E-09
  -1.40500003E-02   9.65579350E-09
  -1.40000004E-02   9.94869342E-09
  -1.39499996E-02   1.02508828E-08
  -1.38999997E-02   1.05629043E-08
  -1.38499998E-02   1.08841460E-08
  -1.37999998E-02   1.12132161E-08
  -1.37499999E-02   1.15486749E-08
  -1.37000000E-02   1.18898003E-08
  -1.36500001E-02   1.22370549E-08
  -1.36000002E-02   1.25920234E-08
  -1.35500003E-02   1.29568578E-08
  -1.35000004E-02   1.33334623E-08
  -1.34500004E-02   1.37227891E-08
  -1.33999996E-02   1.41245451E-08
  -1.33499997E-02   1.45374637E-08
  -1.32999998E-02   1.49600190E-08
  -1.32499998E-02   1.53912652E-08
  -1.31999999E-02   1.58314339E-08
  -1.31500000E-02   1.62820211E-08
  -1.31000001E-02   1.67452949E-08
  -1.30500002E-02   1.72234884E-08
  -1.30000003E-02   1.77179622E-08
  -1.29500004E-02   1.82287856E-08
  -1.29000004E-02   1.87548714E-08
  -1.28499996E-02   1.92946423E-08
  -1.27999997E-02   1.98469294E-08
  -1.27499998E-02   2.04117026E-08
  -1.26999998E-02   2.09902922E-08
  -1.26499999E-02   2.15850307E-08
  -1.26000000E-02   2.21984209E-08
  -1.25500001E-02   2.28322445E-08
  -1.25000002E-02   2.34869653E-08
  -1.24500003E-02   2.41617268E-08
  -1.24000004E-02   2.48549554E-08
  -1.23500004E-02   2.55652690E-08
  -1.22999996E-02   2.62923425E-08
  -1.22499997E-02   2.70372915E-08
  -1.21999998E-02   2.78024324E-08
  -1.21499998E-02   2.85905024E-08
  -1.20999999E-02   2.94036901E-08
  -1.20500000E-02   3.02428980E-08
  -1.20000001E-02   3.11075716E-08
  -1.19500002E-02   3.19962155E-08
  -1.19000003E-02   3.29072876E-08
  -1.18500004E-02   3.38401591E-08
  -1.18000004E-02   3.47956970E-08
  -1.17499996E-02   3.57761465E-08
  -1.16999997E-02   3.67844244E-08
  -1.16499998E-02   3.78231100E-08
  -1.15999999E-02   3.88935817E-08
  -1.15499999E-02   3.99956726E-08
  -1.15000000E-02   4.11280361E-08
  -1.14500001E-02   4.22890416E-08
  -1.14000002E-02   4.34778151E-08
  -1.13500003E-02   4.46949464E-08
  -1.13000004E-02   4.59425884E-08
  -1.12500004E-02   4.72238000E-08
  -1.11999996E-02   4.85415761E-08
  -1.11499997E-02   4.98978139E-08
  -1.10999998E-02   5.12928260E-08
  -1.10499999E-02   5.27255359E-08
  -1.09999999E-02   5.41943166E-08
  -1.09500000E-02   5.56980773E-08
  -1.09000001E-02   5.72371377E-08
  -1.08500002E-02   5.88134981E-08
  -1.08000003E-02   6.04303239E-08
  -1.07500004E-02   6.20909972E-08
  -1.07000005E-02   6.37979767E-08
  -1.06499996E-02   6.55521433E-08
  -1.05999997E-02   6.73528220E-08
  -1.05499998E-02   6.91985136E-08
  -1.04999999E-02   7.10880244E-08
  -1.04499999E-02   7.30214609E-08
  -1.04000000E-02   7.50006706E-08
  -1.03500001E-02   7.70289290E-08
  -1.03000002E-02   7.91099879E-08
  -1.02500003E-02   8.12469025E-08
  -1.02000004E-02   8.34412006E-08
  -1.01500005E-02   8.56927187E-08
  -1.00999996E-02   8.80001991E-08
  -1.00499997E-02   9.03623985E-08
  -9.99999978E-03   9.27792314E-08
  -9.94999986E-03   9.52523749E-08
  -9.89999995E-03   9.77851400E-08
  -9.85000003E-03   1.00381634E-07
  -9.80000012E-03   1.03045501E-07
  -9.75000020E-03   1.05778987E-07
  -9.70000029E-03   1.08582512E-07
  -9.65000037E-03   1.11455208E-07
  -9.60000046E-03   1.14395924E-07
  -9.54999961E-03   1.17404419E-07
  -9.49999969E-03   1.20482227E-07
  -9.44999978E-03   1.23632688E-07
  -9.39999986E-03   1.26860186E-07
  -9.34999995E-03   1.30168999E-07
  -9.30000003E-03   1.33562125E-07
  -9.25000012E-03   1.37040757E-07
  -9.20000020E-03   1.40604499E-07
  -9.15000029E-03   1.44252354E-07
  -9.10000037E-03   1.47984025E-07
  -9.05000046E-03   1.51800876E-07
  -8.99999961E-03   1.55706189E-07
  -8.94999970E-03   1.59704612E-07
  -8.89999978E-03   1.63800934E-07
  -8.84999987E-03   1.67998934E-07
  -8.79999995E-03   1.72300517E-07
  -8.75000004E-03   1.76705910E-07
  -8.70000012E-03   1.81214389E-07
  -8.65000021E-03   1.85825627E-07
  -8.60000029E-03   1.90540831E-07
  -8.55000038E-03   1.95363214E-07
  -8.50000046E-03   2.00297620E-07
  -8.44999962E-03   2.05349380E-07
  -8.39999970E-03   2.10523069E-07
  -8.34999979E-03   2.15821473E-07
  -8.29999987E-03   2.21245500E-07
  -8.24999996E-03   2.26794825E-07
  -8.20000004E-03   2.32469233E-07
  -8.15000013E-03   2.38269848E-07
  -8.10000021E-03   2.44199811E-07
  -8.05000030E-03   2.50264065E-07
  -8.00000038E-03   2.56468439E-07
  -7.95000046E-03   2.62818162E-07
  -7.89999962E-03   2.69316928E-07
  -7.84999970E-03   2.75966414E-07
  -7.79999979E-03   2.82766877E-07
  -7.74999987E-03   2.89718145E-07
  -7.69999996E-03   2.96821327E-07
  -7.65000004E-03   3.04079350E-07
  -7.60000013E-03   3.11497246E-07
  -7.55000021E-03   3.19081067E-07
  -7.49999983E-03   3.26836954E-07
  -7.44999992E-03   3.34769425E-07
  -7.40000000E-03   3.42881066E-07
  -7.35000009E-03   3.51172844E-07
  -7.30000017E-03   3.59645043E-07
  -7.24999979E-03   3.68298657E-07
  -7.19999988E-03   3.77136644E-07
  -7.14999996E-03   3.86163975E-07
  -7.10000005E-03   3.95387190E-07
  -7.05000013E-03   4.04812965E-07
  -7.00000022E-03   4.14446873E-07
  -6.94999984E-03   4.24292608E-07
  -6.89999992E-03   4.34351733E-07
  -6.85000001E-03   4.44625016E-07
  -6.80000009E-03   4.55113565E-07
  -6.75000018E-03   4.65820193E-07
  -6.69999979E-03   4.76749904E-07
  -6.64999988E-03   4.87909460E-07
  -6.59999996E-03   4.99306168E-07
  -6.55000005E-03   5.10946506E-07
  -6.50000013E-03   5.22835194E-07
  -6.45000022E-03   5.34974788E-07
  -6.39999984E-03   5.47366596E-07
  -6.34999992E-03   5.60012040E-07
  -6.30000001E-03   5.72913962E-07
  -6.25000009E-03   5.86077249E-07
  -6.20000018E-03   5.99509008E-07
  -6.14999980E-03   6.13217082E-07
  -6.09999988E-03   6.27208919E-07
  -6.04999997E-03   6.41490487E-07
  -6.00000005E-03   6.56065254E-07
  -5.95000014E-03   6.70935435E-07
  -5.90000022E-03   6.86102794E-07
  -5.84999984E-03   7.01570173E-07
  -5.79999993E-03   7.17342630E-07
  -5.75000001E-03   7.33427214E-07
  -5.70000010E-03   7.49832338E-07
  -5.65000018E-03   7.66566416E-07
  -5.59999980E-03   7.83636153E-07
  -5.54999989E-03   8.01046610E-07
  -5.49999997E-03   8.18800459E-07
  -5.45000006E-03   8.36900256E-07
  -5.40000014E-03   8.55348958E-07
  -5.35000023E-03   8.74151510E-07
  -5.29999984E-03   8.93315075E-07
  -5.24999993E-03   9.12848463E-07
  -5.20000001E-03   9.32760827E-07
  -5.15000010E-03   9.53060066E-07
  -5.10000018E-03   9.73752321E-07
  -5.04999980E-03   9.94841457E-07
  -4.99999989E-03   1.01633077E-06
  -4.94999997E-03   1.03822333E-06
  -4.90000006E-03   1.06052403E-06
  -4.85000014E-03   1.08324025E-06
  -4.80000023E-03   1.10638086E-06
  -4.74999985E-03   1.12995576E-06
  -4.69999993E-03   1.15397404E-06
  -4.65000002E-03   1.17844274E-06
  -4.60000010E-03   1.20336711E-06
  -4.55000019E-03   1.22875076E-06
  -4.49999981E-03   1.25459735E-06
  -4.44999989E-03   1.28091165E-06
  -4.39999998E-03   1.30770093E-06
  -4.35000006E-03   1.33497406E-06
  -4.30000015E-03   1.36274150E-06
  -4.25000023E-03   1.39101326E-06
  -4.19999985E-03   1.41979751E-06
  -4.14999994E-03   1.44910041E-06
  -4.10000002E-03   1.47892649E-06
  -4.05000011E-03   1.50927997E-06
  -4.00000019E-03   1.54016539E-06
  -3.94999981E-03   1.57159002E-06
  -3.89999989E-03   1.60356285E-06
  -3.84999998E-03   1.63609423E-06
  -3.80000006E-03   1.66919494E-06
  -3.74999992E-03   1.70287444E-06
  -3.70000000E-03   1.73713966E-06
  -3.65000009E-03   1.77199638E-06
  -3.59999994E-03   1.80744905E-06
  -3.55000002E-03   1.84350256E-06
  -3.50000011E-03   1.88016361E-06
  -3.44999996E-03   1.91744084E-06
  -3.40000005E-03   1.95534449E-06
  -3.34999990E-03   1.99388614E-06
  -3.29999998E-03   2.03307536E-06
  -3.25000007E-03   2.07292101E-06
  -3.19999992E-03   2.11342922E-06
  -3.15000000E-03   2.15460477E-06
  -3.10000009E-03   2.19645267E-06
  -3.04999994E-03   2.23897905E-06
  -3.00000003E-03   2.28219210E-06
  -2.95000011E-03   2.32610250E-06
  -2.89999996E-03   2.37072095E-06
  -2.85000005E-03   2.41605881E-06
  -2.79999990E-03   2.46212494E-06
  -2.74999999E-03   2.50892685E-06
  -2.70000007E-03   2.55646978E-06
  -2.64999992E-03   2.60475895E-06
  -2.60000001E-03   2.65379913E-06
  -2.55000009E-03   2.70359874E-06
  -2.49999994E-03   2.75416687E-06
  -2.45000003E-03   2.80551490E-06
  -2.40000011E-03   2.85765441E-06
  -2.34999997E-03   2.91059496E-06
  -2.30000005E-03   2.96434473E-06
  -2.24999990E-03   3.01890941E-06
  -2.19999999E-03   3.07429355E-06
  -2.15000007E-03   3.13050236E-06
  -2.09999993E-03   3.18754223E-06
  -2.05000001E-03   3.24542202E-06
  -2.00000009E-03   3.30415264E-06
  -1.94999995E-03   3.36374546E-06
  -1.90000003E-03   3.42421049E-06
  -1.85000000E-03   3.48555636E-06
  -1.79999997E-03   3.54778945E-06
  -1.75000005E-03   3.61091361E-06
  -1.70000002E-03   3.67493362E-06
  -1.64999999E-03   3.73985472E-06
  -1.59999996E-03   3.80568508E-06
  -1.55000004E-03   3.87243426E-06
  -1.50000001E-03   3.94011340E-06
  -1.44999998E-03   4.00873296E-06
  -1.39999995E-03   4.07830112E-06
  -1.35000004E-03   4.14882470E-06
  -1.30000000E-03   4.22030780E-06
  -1.24999997E-03   4.29275406E-06
  -1.20000006E-03   4.36616801E-06
  -1.15000003E-03   4.44055468E-06
  -1.09999999E-03   4.51592314E-06
  -1.04999996E-03   4.59228386E-06
  -1.00000005E-03   4.66964548E-06
  -9.50000016E-04   4.74801800E-06
  -8.99999985E-04   4.82740688E-06
  -8.50000011E-04   4.90781713E-06
  -7.99999980E-04   4.98925010E-06
  -7.50000007E-04   5.07170853E-06
  -6.99999975E-04   5.15519696E-06
  -6.50000002E-04   5.23972130E-06
  -6.00000028E-04   5.32529066E-06
  -5.49999997E-04   5.41191457E-06
  -5.00000024E-04   5.49960032E-06
  -4.49999992E-04   5.58835427E-06
  -3.99999990E-04   5.67818051E-06
  -3.49999988E-04   5.76907996E-06
  -3.00000014E-04   5.86105352E-06
  -2.50000012E-04   5.95410211E-06
  -1.99999995E-04   6.04823026E-06
  -1.50000007E-04   6.14344435E-06
  -9.99999975E-05   6.23975120E-06
  -4.99999987E-05   6.33715945E-06
   0.00000000       6.43567364E-06
   4.99999987E-05   6.53529696E-06
   9.99999975E-05   6.63602941E-06
   1.50000007E-04   6.73786917E-06
   1.99999995E-04   6.84081442E-06
   2.50000012E-04   6.94486653E-06
   3.00000014E-04   7.05003004E-06
   3.49999988E-04   7.15630904E-06
   3.99999990E-04   7.26371036E-06
   4.49999992E-04   7.37223809E-06
   5.00000024E-04   7.48189268E-06
   5.49999997E-04   7.59267277E-06
   6.00000028E-04   7.70457518E-06
   6.50000002E-04   7.81759445E-06
   6.99999975E-04   7.93172876E-06
   7.50000007E-04   8.04697902E-06
   7.99999980E-04   8.16334705E-06
   8.50000011E-04   8.28083648E-06
   8.99999985E-04   8.39944914E-06
   9.50000016E-04   8.51918594E-06
   1.00000005E-03   8.64004141E-06
   1.04999996E-03   8.76200829E-06
   1.09999999E-03   8.88508112E-06
   1.15000003E-03   9.00925352E-06
   1.20000006E-03   9.13452004E-06
   1.24999997E-03   9.26088069E-06
   1.30000000E-03   9.38833455E-06
   1.35000004E-03   9.51688162E-06
   1.39999995E-03   9.64651917E-06
   1.44999998E-03   9.77724085E-06
   1.50000001E-03   9.90903845E-06
   1.55000004E-03   1.00418983E-05
   1.59999996E-03   1.01758133E-05
   1.64999999E-03   1.03107723E-05
   1.70000002E-03   1.04467699E-05
   1.75000005E-03   1.05838008E-05
   1.79999997E-03   1.07218621E-05
   1.85000000E-03   1.08609465E-05
   1.90000003E-03   1.10010469E-05
   1.94999995E-03   1.11421514E-05
   2.00000009E-03   1.12842463E-05
   2.05000001E-03   1.14273153E-05
   2.09999993E-03   1.15713437E-05
   2.15000007E-03   1.17163172E-05
   2.19999999E-03   1.18622283E-05
   2.24999990E-03   1.20090654E-05
   2.30000005E-03   1.21568246E-05
   2.34999997E-03   1.23054924E-05
   2.40000011E-03   1.24550534E-05
   2.45000003E-03   1.26054892E-05
   2.49999994E-03   1.27567791E-05
   2.55000009E-03   1.29089012E-05
   2.60000001E-03   1.30618364E-05
   2.64999992E-03   1.32155683E-05
   2.70000007E-03   1.33700842E-05
   2.74999999E-03   1.35253704E-05
   2.79999990E-03   1.36814124E-05