  -3.99999991E-02   0.00000000    
  -3.99499983E-02   0.00000000    
  -3.99000011E-02   0.00000000    
  -3.98500003E-02   0.00000000    
  -3.97999994E-02  -2.62912906E-18
  -3.97499986E-02  -2.32507467E-17
  -3.97000015E-02  -1.04144481E-16
  -3.96500006E-02  -3.10788035E-16
  -3.95999998E-02  -6.77131638E-16
  -3.95499989E-02  -1.08781646E-15
  -3.95000018E-02  -1.14548511E-15
  -3.94500010E-02  -1.40079463E-16
  -3.94000001E-02   2.74756482E-15
  -3.93499993E-02   7.96829643E-15
  -3.92999984E-02   1.50099608E-14
  -3.92500013E-02   2.20454080E-14
  -3.92000005E-02   2.62334269E-14
  -3.91499996E-02   2.48501611E-14
  -3.90999988E-02   1.69357038E-14
  -3.90500017E-02   4.62573925E-15
  -3.90000008E-02  -6.83153460E-15
  -3.89500000E-02  -1.09284250E-14
  -3.88999991E-02  -3.19037924E-15
  -3.88499983E-02   1.55719994E-14
  -3.88000011E-02   3.79826480E-14
  -3.87500003E-02   5.21238631E-14
  -3.86999995E-02   4.66427163E-14
  -3.86499986E-02   1.68902114E-14
  -3.86000015E-02  -3.10800918E-14
  -3.85500006E-02  -8.14477744E-14
  -3.84999998E-02  -1.15248658E-13
  -3.84499989E-02  -1.20450213E-13
  -3.84000018E-02  -1.00744317E-13
  -3.83500010E-02  -7.78656246E-14
  -3.83000001E-02  -8.46192623E-14
  -3.82499993E-02  -1.50320457E-13
  -3.81999984E-02  -2.84882740E-13
  -3.81500013E-02  -4.69750974E-13
  -3.81000005E-02  -6.61695742E-13
  -3.80499996E-02  -8.09708745E-13
  -3.79999988E-02  -8.78459631E-13
  -3.79500017E-02  -8.67420014E-13
  -3.79000008E-02  -8.15390995E-13
  -3.78500000E-02  -7.86103225E-13
  -3.77999991E-02  -8.39522733E-13
  -3.77499983E-02  -1.00136089E-12
  -3.77000012E-02  -1.24584891E-12
  -3.76500003E-02  -1.50197053E-12
  -3.75999995E-02  -1.68256316E-12
  -3.75499986E-02  -1.72399009E-12
  -3.75000015E-02  -1.61759516E-12
  -3.74500006E-02  -1.41682521E-12
  -3.73999998E-02  -1.21499978E-12
  -3.73499990E-02  -1.10291095E-12
  -3.73000018E-02  -1.12562910E-12
  -3.72500010E-02  -1.25884188E-12
  -3.72000001E-02  -1.41613999E-12
  -3.71499993E-02  -1.48405409E-12
  -3.70999984E-02  -1.36845006E-12
  -3.70500013E-02  -1.03074645E-12
  -3.70000005E-02  -4.98135929E-13
  -3.69499996E-02   1.54265977E-13
  -3.68999988E-02   8.37138843E-13
  -3.68500017E-02   1.47773146E-12
  -3.68000008E-02   2.03372952E-12
  -3.67500000E-02   2.48922779E-12
  -3.66999991E-02   2.84410082E-12
  -3.66499983E-02   3.11099107E-12
  -3.66000012E-02   3.32531030E-12
  -3.65500003E-02   3.55880364E-12
  -3.64999995E-02   3.91716781E-12
  -3.64499986E-02   4.50596071E-12
  -3.64000015E-02   5.36780082E-12
  -3.63500006E-02   6.41869544E-12
  -3.62999998E-02   7.42678748E-12
  -3.62499990E-02   8.06856144E-12
  -3.62000018E-02   8.06235634E-12
  -3.61500010E-02   7.33010094E-12
  -3.61000001E-02   6.10215004E-12
  -3.60499993E-02   4.88428395E-12
  -3.59999985E-02   4.26078227E-12
  -3.59500013E-02   4.59492513E-12
  -3.59000005E-02   5.76543457E-12
  -3.58499996E-02   7.09608457E-12
  -3.57999988E-02   7.57028034E-12
  -3.57500017E-02   6.28857990E-12
  -3.57000008E-02   2.98304523E-12
  -3.56500000E-02  -1.67535918E-12
  -3.55999991E-02  -6.19305475E-12
  -3.55499983E-02  -8.83493105E-12
  -3.55000012E-02  -8.47230706E-12
  -3.54500003E-02  -5.31141233E-12
  -3.53999995E-02  -1.09129426E-12
  -3.53499986E-02   1.47127286E-12
  -3.53000015E-02  -1.34555575E-13
  -3.52500007E-02  -6.88009719E-12
  -3.51999998E-02  -1.73680896E-11
  -3.51499990E-02  -2.80334558E-11
  -3.51000018E-02  -3.44735178E-11
  -3.50500010E-02  -3.34505236E-11
  -3.50000001E-02  -2.46832398E-11
  -3.49499993E-02  -1.14900806E-11
  -3.48999985E-02   2.41279083E-13
  -3.48500013E-02   4.53254188E-12
  -3.48000005E-02  -1.74999576E-12
  -3.47499996E-02  -1.68914067E-11
  -3.46999988E-02  -3.44055479E-11
  -3.46500017E-02  -4.54890119E-11
  -3.46000008E-02  -4.30061368E-11
  -3.45500000E-02  -2.52641658E-11
  -3.44999991E-02   2.32513596E-12
  -3.44499983E-02   2.88386138E-11
  -3.44000012E-02   4.23859663E-11
  -3.43500003E-02   3.57949156E-11
  -3.42999995E-02   1.07993163E-11
  -3.42499986E-02  -2.15475103E-11
  -3.42000015E-02  -4.49727408E-11
  -3.41500007E-02  -4.52142421E-11
  -3.40999998E-02  -1.72634892E-11
  -3.40499990E-02   3.09299947E-11
  -3.40000018E-02   8.05849137E-11
  -3.39500010E-02   1.09779984E-10
  -3.39000002E-02   1.03680585E-10
  -3.38499993E-02   6.26321287E-11
  -3.37999985E-02   3.89465023E-12
  -3.37500013E-02  -4.46376408E-11
  -3.37000005E-02  -5.66830992E-11
  -3.36499996E-02  -2.05701810E-11
  -3.35999988E-02   5.32433021E-11
  -3.35500017E-02   1.34457889E-10
  -3.35000008E-02   1.85113994E-10
  -3.34500000E-02   1.76958947E-10
  -3.33999991E-02   1.06212032E-10
  -3.33499983E-02  -1.71868813E-12
  -3.33000012E-02  -1.01017687E-10
  -3.32500003E-02  -1.45062670E-10
  -3.31999995E-02  -1.08635531E-10
  -3.31499986E-02  -2.35194915E-12
  -3.31000015E-02   1.28488165E-10
  -3.30500007E-02   2.21784466E-10
  -3.29999998E-02   2.26487759E-10
  -3.29499990E-02   1.28135308E-10
  -3.29000019E-02  -4.04078958E-11
  -3.28500010E-02  -2.09696219E-10
  -3.28000002E-02  -3.03025605E-10
  -3.27499993E-02  -2.72212836E-10
  -3.26999985E-02  -1.23383623E-10
  -3.26500013E-02   8.05605305E-11
  -3.26000005E-02   2.44304854E-10
  -3.25499997E-02   2.82342122E-10
  -3.24999988E-02   1.60666008E-10
  -3.24500017E-02  -8.19878609E-11
  -3.24000008E-02  -3.45445478E-10
  -3.23500000E-02  -5.09675246E-10
  -3.22999991E-02  -4.89737861E-10
  -3.22499983E-02  -2.79240492E-10
  -3.22000012E-02   3.94173097E-11
  -3.21500003E-02   3.25931504E-10
  -3.20999995E-02   4.43212161E-10
  -3.20499986E-02   3.22476545E-10
  -3.20000015E-02   1.80747756E-12
  -3.19500007E-02  -3.82462395E-10
  -3.18999998E-02  -6.51630971E-10
  -3.18499990E-02  -6.65460798E-10
  -3.18000019E-02  -3.91888133E-10
  -3.17500010E-02   6.83306051E-11
  -3.17000002E-02   5.17562548E-10
  -3.16499993E-02   7.46032069E-10
  -3.15999985E-02   6.29490737E-10
  -3.15500014E-02   1.94852023E-10
  -3.15000005E-02  -3.79806131E-10
  -3.14499997E-02  -8.36286151E-10
  -3.13999988E-02  -9.50738155E-10
  -3.13500017E-02  -6.41236786E-10
  -3.13000008E-02  -1.73614005E-11
  -3.12500000E-02   6.56099175E-10
  -3.11999992E-02   1.07102305E-09
  -3.11500002E-02   1.01679520E-09
  -3.10999993E-02   4.86288065E-10
  -3.10500003E-02  -3.05366565E-10
  -3.09999995E-02  -1.00462771E-09
  -3.09500005E-02  -1.27446520E-09
  -3.08999997E-02  -9.53116031E-10
  -3.08500007E-02  -1.42657733E-10
  -3.07999998E-02   8.19214419E-10
  -3.07500008E-02   1.49954416E-09
  -3.07000000E-02   1.56513869E-09
  -3.06499992E-02   9.45086120E-10
  -3.06000002E-02  -1.17444540E-10
  -3.05499993E-02  -1.15614551E-09
  -3.05000003E-02  -1.68286463E-09
  -3.04499995E-02  -1.41309497E-09
  -3.04000005E-02  -4.12247542E-10
  -3.03499997E-02   9.10870823E-10
  -3.03000007E-02   1.97074046E-09
  -3.02499998E-02   2.26521490E-09
  -3.02000009E-02   1.61425417E-09
  -3.01500000E-02   2.64838373E-10
  -3.00999992E-02  -1.19559063E-09
  -3.00500002E-02  -2.08952944E-09
  -2.99999993E-02  -1.95803707E-09
  -2.99500003E-02  -7.88036136E-10
  -2.98999995E-02   9.52470214E-10
  -2.98500005E-02   2.49992960E-09
  -2.97999997E-02   3.12954973E-09
  -2.97500007E-02   2.49285548E-09
  -2.96999998E-02   8.02328481E-10
  -2.96500009E-02  -1.23188559E-09
  -2.96000000E-02  -2.69924483E-09
  -2.95499992E-02  -2.89691937E-09
  -2.95000002E-02  -1.66681147E-09
  -2.94499993E-02   4.98545372E-10
  -2.94000003E-02   2.64397748E-09
  -2.93499995E-02   3.76423204E-09
  -2.93000005E-02   3.26394956E-09
  -2.92499997E-02   1.25560506E-09
  -2.92000007E-02  -1.45140089E-09
  -2.91499998E-02  -3.68331521E-09
  -2.91000009E-02  -4.42142545E-09
  -2.90500000E-02  -3.27962280E-09
  -2.89999992E-02  -7.17812476E-10
  -2.89500002E-02   2.12194617E-09
  -2.88999993E-02   3.90227628E-09
  -2.88500004E-02   3.69429354E-09
  -2.87999995E-02   1.42719281E-09
  -2.87500005E-02  -2.03150563E-09
  -2.86999997E-02  -5.22203480E-09
  -2.86500007E-02  -6.72889522E-09
  -2.85999998E-02  -5.83115556E-09
  -2.85500009E-02  -2.86878832E-09
  -2.85000000E-02   8.58086324E-10
  -2.84499992E-02   3.63544217E-09
  -2.84000002E-02   4.09989553E-09
  -2.83499993E-02   1.88243088E-09
  -2.83000004E-02  -2.16999307E-09
  -2.82499995E-02  -6.31826325E-09
  -2.82000005E-02  -8.68004069E-09
  -2.81499997E-02  -8.08261102E-09
  -2.81000007E-02  -4.63459449E-09
  -2.80499998E-02   2.59261168E-10
  -2.80000009E-02   4.47494797E-09
  -2.79500000E-02   6.10356476E-09
  -2.78999992E-02   4.33393765E-09
  -2.78500002E-02  -1.22264060E-10
  -2.77999993E-02  -5.27951283E-09
  -2.77500004E-02  -8.72075478E-09
  -2.76999995E-02  -8.67752625E-09
  -2.76500005E-02  -4.86665330E-09
  -2.75999997E-02   1.30962829E-09
  -2.75500007E-02   7.32163086E-09
  -2.74999999E-02   1.06098446E-08
  -2.74500009E-02   9.74753434E-09
  -2.74000000E-02   5.14178655E-09
  -2.73499992E-02  -1.06772680E-09
  -2.73000002E-02  -5.90336535E-09
  -2.72499993E-02  -6.86695545E-09
  -2.72000004E-02  -3.10000470E-09
  -2.71499995E-02   4.14825241E-09
  -2.71000005E-02   1.19893322E-08
  -2.70499997E-02   1.71299686E-08
  -2.70000007E-02   1.73460801E-08
  -2.69499999E-02   1.25373250E-08
  -2.69000009E-02   4.86459939E-09
  -2.68500000E-02  -2.13264739E-09
  -2.67999992E-02  -5.08354780E-09
  -2.67500002E-02  -2.32437247E-09
  -2.66999993E-02   5.27006749E-09
  -2.66500004E-02   1.45701557E-08
  -2.65999995E-02   2.15099920E-08
  -2.65500005E-02   2.28873915E-08
  -2.64999997E-02   1.78499047E-08
  -2.64500007E-02   8.37970671E-09
  -2.63999999E-02  -1.48515866E-09
  -2.63500009E-02  -7.39403738E-09
  -2.63000000E-02  -6.64250610E-09
  -2.62499992E-02   5.31461652E-10
  -2.62000002E-02   1.09290132E-08
  -2.61499994E-02   1.97117203E-08
  -2.61000004E-02   2.25207124E-08
  -2.60499995E-02   1.74678902E-08
  -2.60000005E-02   6.09299722E-09
  -2.59499997E-02  -7.18911553E-09
  -2.59000007E-02  -1.69632877E-08
  -2.58499999E-02  -1.92173797E-08
  -2.58000009E-02  -1.32092293E-08
  -2.57500000E-02  -1.93156957E-09
  -2.56999992E-02   9.09202935E-09
  -2.56500002E-02   1.42034864E-08
  -2.55999994E-02   1.01640758E-08
  -2.55500004E-02  -2.28153230E-09
  -2.54999995E-02  -1.85771381E-08
  -2.54500005E-02  -3.22543450E-08
  -2.53999997E-02  -3.77703380E-08
  -2.53500007E-02  -3.30401093E-08
  -2.52999999E-02  -2.05080148E-08
  -2.52500009E-02  -6.21756202E-09
  -2.52000000E-02   2.77909651E-09
  -2.51499992E-02   1.56790314E-09
  -2.51000002E-02  -1.03222710E-08
  -2.50499994E-02  -2.85290831E-08
  -2.50000004E-02  -4.56305536E-08
  -2.49499995E-02  -5.43665735E-08
  -2.49000005E-02  -5.09107565E-08
  -2.48499997E-02  -3.67191575E-08
  -2.48000007E-02  -1.80680573E-08
  -2.47499999E-02  -3.40150330E-09
  -2.47000009E-02   3.98375971E-10
  -2.46500000E-02  -8.82263596E-09
  -2.45999992E-02  -2.73371068E-08
  -2.45500002E-02  -4.69902730E-08
  -2.44999994E-02  -5.87046856E-08
  -2.44500004E-02  -5.65323326E-08
  -2.43999995E-02  -4.04483593E-08
  -2.43500005E-02  -1.65807759E-08
  -2.42999997E-02   5.32247313E-09
  -2.42500007E-02   1.61498992E-08
  -2.41999999E-02   1.15521397E-08
  -2.41500009E-02  -5.92634430E-09
  -2.41000000E-02  -2.77428605E-08
  -2.40499992E-02  -4.29863185E-08
  -2.40000002E-02  -4.32057661E-08
  -2.39499994E-02  -2.63064859E-08
  -2.39000004E-02   2.27458519E-09
  -2.38499995E-02   3.17412265E-08
  -2.38000005E-02   5.05998159E-08
  -2.37499997E-02   5.18004803E-08
  -2.37000007E-02   3.60596424E-08
  -2.36499999E-02   1.18033752E-08
  -2.36000009E-02  -8.36241831E-09
  -2.35500000E-02  -1.31882514E-08
  -2.34999992E-02   2.09793671E-09
  -2.34500002E-02   3.34049552E-08
  -2.33999994E-02   6.92970801E-08
  -2.33500004E-02   9.58694102E-08
  -2.32999995E-02   1.02901744E-07
  -2.32500006E-02   8.85654998E-08
  -2.31999997E-02   6.05158377E-08
  -2.31500007E-02   3.27539773E-08
  -2.30999999E-02   1.95281018E-08
  -2.30500009E-02   2.89171975E-08
  -2.30000000E-02   5.89746811E-08
  -2.29499992E-02   9.82534374E-08
  -2.29000002E-02   1.30622922E-07
  -2.28499994E-02   1.42353727E-07
  -2.28000004E-02   1.28357172E-07
  -2.27499995E-02   9.47438537E-08
  -2.27000006E-02   5.64282949E-08
  -2.26499997E-02   3.06944585E-08
  -2.26000007E-02   2.94852587E-08
  -2.25499999E-02   5.38439515E-08
  -2.25000009E-02   9.30787181E-08
  -2.24500000E-02   1.29179696E-07
  -2.23999992E-02   1.44670878E-07
  -2.23500002E-02   1.30475044E-07
  -2.22999994E-02   9.02538630E-08
  -2.22500004E-02   3.91588628E-08
  -2.21999995E-02  -2.62220978E-09
  -2.21500006E-02  -1.87846663E-08
  -2.20999997E-02  -4.35721947E-09
  -2.20500007E-02   3.17141229E-08
  -2.19999999E-02   7.01624643E-08
  -2.19500009E-02   8.97507491E-08
  -2.19000001E-02   7.67677975E-08
  -2.18499992E-02   3.14338457E-08
  -2.18000002E-02  -3.17599600E-08
  -2.17499994E-02  -9.01153641E-08
  -2.17000004E-02  -1.22661632E-07
  -2.16499995E-02  -1.19610334E-07
  -2.16000006E-02  -8.70644072E-08
  -2.15499997E-02  -4.47226185E-08
  -2.15000007E-02  -1.74032753E-08
  -2.14499999E-02  -2.40154652E-08
  -2.14000009E-02  -6.88610839E-08
  -2.13500001E-02  -1.39245898E-07
  -2.12999992E-02  -2.10657078E-07
  -2.12500002E-02  -2.57398398E-07
  -2.11999994E-02  -2.64059736E-07
  -2.11500004E-02  -2.32688961E-07
  -2.10999995E-02  -1.82320363E-07
  -2.10500006E-02  -1.40855661E-07
  -2.09999997E-02  -1.32731373E-07
  -2.09500007E-02  -1.67797808E-07
  -2.08999999E-02  -2.36442077E-07
  -2.08500009E-02  -3.13320726E-07
  -2.08000001E-02  -3.68262363E-07
  -2.07499992E-02  -3.79638692E-07
  -2.07000002E-02  -3.44262816E-07
  -2.06499994E-02  -2.79272939E-07
  -2.06000004E-02  -2.14938993E-07
  -2.05499995E-02  -1.81379988E-07
  -2.05000006E-02  -1.94996744E-07
  -2.04499997E-02  -2.50707899E-07
  -2.04000007E-02  -3.23630076E-07
  -2.03499999E-02  -3.79696161E-07
  -2.03000009E-02  -3.90676007E-07
  -2.02500001E-02  -3.46967482E-07
  -2.01999992E-02  -2.62355513E-07
  -2.01500002E-02  -1.68395232E-07
  -2.00999994E-02  -1.00676502E-07
  -2.00500004E-02  -8.29309457E-08
  -1.99999996E-02  -1.16063575E-07
  -1.99500006E-02  -1.77157858E-07
  -1.98999997E-02  -2.29150430E-07
  -1.98500007E-02  -2.37097368E-07
  -1.97999999E-02  -1.83893562E-07
  -1.97500009E-02  -7.83765515E-08
  -1.97000001E-02   4.80083635E-08
  -1.96499992E-02   1.54762262E-07
  -1.96000002E-02   2.10269278E-07
  -1.95499994E-02   2.06173141E-07
  -1.95000004E-02   1.61657383E-07
  -1.94499996E-02   1.15470613E-07
  -1.94000006E-02   1.08987948E-07
  -1.93499997E-02   1.67697891E-07
  -1.93000007E-02   2.89382996E-07
  -1.92499999E-02   4.44451473E-07
  -1.92000009E-02   5.88549426E-07
  -1.91500001E-02   6.82076688E-07
  -1.90999992E-02   7.08009395E-07
  -1.90500002E-02   6.79999232E-07
  -1.89999994E-02   6.36900040E-07
  -1.89500004E-02   6.25872644E-07
  -1.88999996E-02   6.81392521E-07
  -1.88500006E-02   8.09481151E-07
  -1.87999997E-02   9.84344865E-07
  -1.87500007E-02   1.15919738E-06
  -1.86999999E-02   1.28672150E-06
  -1.86500009E-02   1.34020513E-06
  -1.86000001E-02   1.32589321E-06
  -1.85499992E-02   1.28083479E-06
  -1.85000002E-02   1.25688439E-06
  -1.84499994E-02   1.29773798E-06
  -1.84000004E-02   1.41914927E-06
  -1.83499996E-02   1.60125455E-06
  -1.83000006E-02   1.79669689E-06
  -1.82499997E-02   1.95123016E-06
  -1.82000007E-02   2.02783076E-06
  -1.81499999E-02   2.02358410E-06
  -1.81000009E-02   1.97164104E-06
  -1.80500001E-02   1.92706921E-06
  -1.79999992E-02   1.94261565E-06
  -1.79500002E-02   2.04503499E-06
  -1.78999994E-02   2.22259291E-06
  -1.78500004E-02   2.42955798E-06
  -1.77999996E-02   2.60599745E-06
  -1.77500006E-02   2.70430837E-06
  -1.76999997E-02   2.71074077E-06
  -1.76500008E-02   2.65218341E-06
  -1.75999999E-02   2.58489581E-06
  -1.75500009E-02   2.56989529E-06
  -1.75000001E-02   2.64576965E-06
  -1.74499992E-02   2.81102416E-06
  -1.74000002E-02   3.02404328E-06
  -1.73499994E-02   3.22100209E-06
  -1.73000004E-02   3.34404081E-06
  -1.72499996E-02   3.36727771E-06
  -1.72000006E-02   3.30899388E-06
  -1.71499997E-02   3.22428787E-06
  -1.71000008E-02   3.18113962E-06
  -1.70499999E-02   3.23030713E-06
  -1.70000009E-02   3.38239511E-06
  -1.69500001E-02   3.60249101E-06
  -1.68999992E-02   3.82505959E-06
  -1.68500002E-02   3.98277780E-06
  -1.67999994E-02   4.03666945E-06
  -1.67500004E-02   3.99406963E-06
  -1.66999996E-02   3.90619607E-06
  -1.66500006E-02   3.84607256E-06
  -1.65999997E-02   3.87633645E-06
  -1.65500008E-02   4.02116666E-06
  -1.64999999E-02   4.25494545E-06
  -1.64500009E-02   4.51297819E-06
  -1.64000001E-02   4.71986232E-06
  -1.63499992E-02   4.82310088E-06
  -1.63000003E-02   4.81699954E-06
  -1.62499994E-02   4.74604940E-06
  -1.62000004E-02   4.68595636E-06
  -1.61499996E-02   4.71041039E-06
  -1.61000006E-02   4.85824830E-06
  -1.60499997E-02   5.11566896E-06
  -1.60000008E-02   5.42168618E-06
  -1.59499999E-02   5.69474196E-06
  -1.59000009E-02   5.86889064E-06
  -1.58500001E-02   5.92355491E-06
  -1.57999992E-02   5.89346973E-06
  -1.57500003E-02   5.85407406E-06
  -1.56999994E-02   5.88850025E-06
  -1.56500004E-02   6.05066225E-06
  -1.55999996E-02   6.34084290E-06
  -1.55499997E-02   6.70487270E-06
  -1.54999997E-02   7.05759476E-06
  -1.54499998E-02   7.32049011E-06
  -1.53999999E-02   7.45689340E-06
  -1.53500000E-02   7.48899356E-06
  -1.53000001E-02   7.48882258E-06
  -1.52500002E-02   7.54686153E-06
  -1.52000003E-02   7.73198735E-06
  -1.51500003E-02   8.06051867E-06
  -1.51000004E-02   8.48828040E-06
  -1.50499996E-02   8.92955904E-06
  -1.49999997E-02   9.29484941E-06
  -1.49499997E-02   9.53077324E-06
  -1.48999998E-02   9.64444007E-06
  -1.48499999E-02   9.70111250E-06
  -1.48000000E-02   9.79588367E-06
  -1.47500001E-02   1.00117022E-05
  -1.47000002E-02   1.03822404E-05
  -1.46500003E-02   1.08763079E-05
  -1.46000003E-02   1.14109835E-05
  -1.45500004E-02   1.18880062E-05
  -1.44999996E-02   1.22374540E-05
  -1.44499997E-02   1.24493627E-05
  -1.43999998E-02   1.25789420E-05
  -1.43499998E-02   1.27228068E-05
  -1.42999999E-02   1.29764912E-05
  -1.42500000E-02   1.33918775E-05
  -1.42000001E-02   1.39536232E-05
  -1.41500002E-02   1.45852609E-05
  -1.41000003E-02   1.51826544E-05
  -1.40500003E-02   1.56601727E-05
  -1.40000004E-02   1.59891551E-05
  -1.39499996E-02   1.62114247E-05
  -1.38999997E-02   1.64215344E-05
  -1.38499998E-02   1.67252729E-05
  -1.37999998E-02   1.71927204E-05
  -1.37499999E-02   1.78267346E-05
  -1.37000000E-02   1.85609751E-05
  -1.36500001E-02   1.92888256E-05
  -1.36000002E-02   1.99106107E-05
  -1.35500003E-02   2.03781856E-05
  -1.35000004E-02   2.07170087E-05
  -1.34500004E-02   2.10157559E-05
  -1.33999996E-02   2.13875592E-05
  -1.33499997E-02   2.19199683E-05
  -1.32999998E-02   2.26358334E-05
  -1.32499998E-02   2.34825693E-05
  -1.31999999E-02   2.43549948E-05
  -1.31500000E-02   2.51418787E-05
  -1.31000001E-02   2.57755273E-05
  -1.30500002E-02   2.62625836E-05
  -1.30000003E-02   2.66819807E-05
  -1.29500004E-02   2.71505705E-05
  -1.29000004E-02   2.77716099E-05
  -1.28499996E-02   2.85888218E-05
  -1.27999997E-02   2.95664631E-05
  -1.27499998E-02   3.06047441E-05
  -1.26999998E-02   3.15838552E-05
  -1.26499999E-02   3.24172943E-05
  -1.26000000E-02   3.30910552E-05
  -1.25500001E-02   3.36706726E-05
  -1.25000002E-02   3.42729618E-05
  -1.24500003E-02   3.50146911E-05
  -1.24000004E-02   3.59607766E-05
  -1.23500004E-02   3.70950911E-05
  -1.22999996E-02   3.83272054E-05
  -1.22499997E-02   3.95322677E-05
  -1.21999998E-02   4.06064682E-05
  -1.21499998E-02   4.15136965E-05
  -1.20999999E-02   4.23023957E-05
  -1.20500000E-02   4.30848922E-05
  -1.20000001E-02   4.39881551E-05
  -1.19500002E-02   4.50976477E-05
  -1.19000003E-02   4.64192162E-05
  -1.18500004E-02   4.78760376E-05
  -1.18000004E-02   4.93425650E-05
  -1.17499996E-02   5.07004188E-05
  -1.16999997E-02   5.18913548E-05
  -1.16499998E-02   5.29439130E-05
  -1.15999999E-02   5.39616376E-05
  -1.15499999E-02   5.50778168E-05
  -1.15000000E-02   5.63965004E-05
  -1.14500001E-02   5.79461484E-05
  -1.14000002E-02   5.96666723E-05
  -1.13500003E-02   6.14357632E-05
  -1.13000004E-02   6.31231524E-05
  -1.12500004E-02   6.46487460E-05
  -1.11999996E-02   6.60189617E-05
  -1.11499997E-02   6.73248214E-05
  -1.10999998E-02   6.87021966E-05
  -1.10499999E-02   7.02720936E-05
  -1.09999999E-02   7.20872267E-05
  -1.09500000E-02   7.41083932E-05
  -1.09000001E-02   7.62216441E-05
  -1.08500002E-02   7.82888455E-05
  -1.08000003E-02   8.02094437E-05
  -1.07500004E-02   8.19656416E-05
  -1.07000005E-02   8.36308682E-05
  -1.06499996E-02   8.53381425E-05
  -1.05999997E-02   8.72213932E-05
  -1.05499998E-02   8.93558536E-05
  -1.04999999E-02   9.17247817E-05
  -1.04499999E-02   9.42266488E-05
  -1.04000000E-02   9.67197702E-05
  -1.03500001E-02   9.90858389E-05
  -1.03000002E-02   1.01283054E-04
  -1.02500003E-02   1.03365135E-04
  -1.02000004E-02   1.05458748E-04
  -1.01500005E-02   1.07707951E-04
  -1.00999996E-02   1.10210334E-04
  -1.00499997E-02   1.12974165E-04
  -9.99999978E-03   1.15914605E-04
  -9.94999986E-03   1.18891556E-04
  -9.89999995E-03   1.21771969E-04
  -9.85000003E-03   1.24489525E-04
  -9.80000012E-03   1.27075036E-04
  -9.75000020E-03   1.29643522E-04
  -9.70000029E-03   1.32343790E-04
  -9.65000037E-03   1.35293027E-04
  -9.60000046E-03   1.38525080E-04
  -9.54999961E-03   1.41975033E-04
  -9.49999969E-03   1.45508151E-04
  -9.44999978E-03   1.48979714E-04
  -9.39999986E-03   1.52299661E-04
  -9.34999995E-03   1.55473317E-04
  -9.30000003E-03   1.58599621E-04
  -9.25000012E-03   1.61827993E-04
  -9.20000020E-03   1.65292848E-04
  -9.15000029E-03   1.69054096E-04
  -9.10000037E-03   1.73070890E-04
  -9.05000046E-03   1.77220412E-04
  -8.99999961E-03   1.81352603E-04
  -8.94999970E-03   1.85357509E-04
  -8.89999978E-03   1.89214930E-04
  -8.84999987E-03   1.93004002E-04
  -8.79999995E-03   1.96869310E-04
  -8.75000004E-03   2.00957904E-04
  -8.70000012E-03   2.05354270E-04
  -8.65000021E-03   2.10042912E-04
  -8.60000029E-03   2.14915446E-04
  -8.55000038E-03   2.19819514E-04
  -8.50000046E-03   2.24626318E-04
  -8.44999962E-03   2.29288009E-04
  -8.39999970E-03   2.33859944E-04
  -8.34999979E-03   2.38476860E-04
  -8.29999987E-03   2.43293805E-04
  -8.24999996E-03   2.48417666E-04
  -8.20000004E-03   2.53859587E-04
  -8.15000013E-03   2.59530643E-04
  -8.10000021E-03   2.65282404E-04
  -8.05000030E-03   2.70972698E-04
  -8.00000038E-03   2.76528997E-04
  -7.95000046E-03   2.81981454E-04
  -7.89999962E-03   2.87450879E-04
  -7.84999970E-03   2.93096353E-04
  -7.79999979E-03   2.99045991E-04
  -7.74999987E-03   3.05340422E-04
  -7.69999996E-03   3.11915355E-04
  -7.65000004E-03   3.18631006E-04
  -7.60000013E-03   3.25333647E-04
  -7.55000021E-03   3.31925025E-04
  -7.49999983E-03   3.38406157E-04
  -7.44999992E-03   3.44877888E-04
  -7.40000000E-03   3.51496972E-04
  -7.35000009E-03   3.58406309E-04
  -7.30000017E-03   3.65673041E-04
  -7.24999979E-03   3.73258343E-04
  -7.19999988E-03   3.81034886E-04
  -7.14999996E-03   3.88843764E-04
  -7.10000005E-03   3.96564836E-04
  -7.05000013E-03   4.04171384E-04
  -7.00000022E-03   4.11741901E-04
  -6.94999984E-03   4.19426506E-04
  -6.89999992E-03   4.27381688E-04
  -6.85000001E-03   4.35701397E-04
  -6.80000009E-03   4.44375910E-04
  -6.75000018E-03   4.53296467E-04
  -6.69999979E-03   4.62304597E-04
  -6.64999988E-03   4.71262261E-04
  -6.59999996E-03   4.80113551E-04
  -6.55000005E-03   4.88910358E-04
  -6.50000013E-03   4.97791276E-04
  -6.45000022E-03   5.06919809E-04
  -6.39999984E-03   5.16412430E-04
  -6.34999992E-03   5.26288582E-04
  -6.30000001E-03   5.36461652E-04
  -6.25000009E-03   5.46777330E-04
  -6.20000018E-03   5.57082298E-04
  -6.14999980E-03   5.67292213E-04
  -6.09999988E-03   5.77428553E-04
  -6.04999997E-03   5.87611634E-04
  -6.00000005E-03   5.98007056E-04
  -5.95000014E-03   6.08751376E-04
  -5.90000022E-03   6.19894301E-04
  -5.84999984E-03   6.31376752E-04
  -5.79999993E-03   6.43057167E-04
  -5.75000001E-03   6.54774485E-04
  -5.70000010E-03   6.66417880E-04
  -5.65000018E-03   6.77979086E-04
  -5.59999980E-03   6.89555425E-04
  -5.54999989E-03   7.01307552E-04
  -5.49999997E-03   7.13390065E-04
  -5.45000006E-03   7.25882186E-04
  -5.40000014E-03   7.38755101E-04
  -5.35000023E-03   7.51884538E-04
  -5.29999984E-03   7.65104778E-04
  -5.24999993E-03   7.78282003E-04
  -5.20000001E-03   7.91374128E-04
  -5.15000010E-03   8.04450421E-04
  -5.10000018E-03   8.17660417E-04
  -5.04999980E-03   8.31167621E-04
  -4.99999989E-03   8.45078554E-04
  -4.94999997E-03   8.59396299E-04
  -4.90000006E-03   8.74017423E-04
  -4.85000014E-03   8.88780633E-04
  -4.80000023E-03   9.03537613E-04
  -4.74999985E-03   9.18213744E-04
  -4.69999993E-03   9.32843424E-04
  -4.65000002E-03   9.47558670E-04
  -4.60000010E-03   9.62530146E-04
  -4.55000019E-03   9.77891963E-04
  -4.49999981E-03   9.93682770E-04
  -4.44999989E-03   1.00982736E-03
  -4.39999998E-03   1.02617324E-03
  -4.35000006E-03   1.04255497E-03
  -4.30000015E-03   1.05886534E-03
  -4.25000023E-03   1.07510679E-03
  -4.19999985E-03   1.09138910E-03
  -4.14999994E-03   1.10788166E-03
  -4.10000002E-03   1.12473732E-03
  -4.05000011E-03   1.14202604E-03
  -4.00000019E-03   1.15970674E-03
  -3.94999981E-03   1.17764075E-03
  -3.89999989E-03   1.19565520E-03
  -3.84999998E-03   1.21361681E-03
  -3.80000006E-03   1.23148994E-03
  -3.74999992E-03   1.24935270E-03
  -3.70000000E-03   1.26736169E-03
  -3.65000009E-03   1.28568674E-03
  -3.59999994E-03   1.30443345E-03
  -3.55000002E-03   1.32359623E-03
  -3.50000011E-03   1.34305994E-03
  -3.44999996E-03   1.36265182E-03
  -3.40000005E-03   1.38221309E-03
  -3.34999990E-03   1.40167063E-03
  -3.29999998E-03   1.42106903E-03
  -3.25000007E-03   1.44055078E-03
  -3.19999992E-03   1.46029366E-03
  -3.15000000E-03   1.48043362E-03
  -3.10000009E-03   1.50100573E-03
  -3.04999994E-03   1.52192439E-03
  -3.00000003E-03   1.54302141E-03
  -2.95000011E-03   1.56411622E-03
  -2.89999996E-03   1.58509635E-03
  -2.85000005E-03   1.60596508E-03
  -2.79999990E-03   1.62683509E-03
  -2.74999999E-03   1.64788764E-03
  -2.70000007E-03   1.66929234E-03
  -2.64999992E-03   1.69112650E-03
  -2.60000001E-03   1.71333726E-03
  -2.55000009E-03   1.73576875E-03
  -2.49999994E-03   1.75822561E-03
  -2.45000003E-03   1.78055617E-03
  -2.40000011E-03   1.80272851E-03
  -2.34999997E-03   1.82482367E-03
  -2.30000005E-03   1.84700859E-03
  -2.24999990E-03   1.86947233E-03
  -2.19999999E-03   1.89233210E-03
  -2.15000007E-03   1.91558071E-03
  -2.09999993E-03   1.93909288E-03
  -2.05000001E-03   1.96267641E-03
  -2.00000009E-03   1.98614737E-03
  -1.94999995E-03   2.00941251E-03
  -1.90000003E-03   2.03251094E-03
  -1.85000000E-03   2.05559330E-03
  -1.79999997E-03   2.07885797E-03
  -1.75000005E-03   2.10246420E-03
  -1.70000002E-03   2.12645787E-03
  -1.64999999E-03   2.15074793E-03
  -1.59999996E-03   2.17514648E-03
  -1.55000004E-03   2.19944003E-03
  -1.50000001E-03   2.22348236E-03
  -1.44999998E-03   2.24726158E-03
  -1.39999995E-03   2.27090158E-03
  -1.35000004E-03   2.29460537E-03
  -1.30000000E-03   2.31856294E-03
  -1.24999997E-03   2.34287162E-03
  -1.20000006E-03   2.36748788E-03
  -1.15000003E-03   2.39224383E-03
  -1.09999999E-03   2.41691200E-03
  -1.04999996E-03   2.44130194E-03
  -1.00000005E-03   2.46534101E-03
  -9.50000016E-04   2.48909951E-03
  -8.99999985E-04   2.51278072E-03
  -8.50000011E-04   2.53661559E-03
  -7.99999980E-04   2.56074942E-03
  -7.50000007E-04   2.58518849E-03
  -6.99999975E-04   2.60979333E-03
  -6.50000002E-04   2.63432832E-03
  -6.00000028E-04   2.65855878E-03
  -5.49999997E-04   2.68235151E-03
  -5.00000024E-04   2.70573259E-03
  -4.49999992E-04   2.72887410E-03
  -3.99999990E-04   2.75201304E-03
  -3.49999988E-04   2.77534686E-03
  -3.00000014E-04   2.79894937E-03
  -2.50000012E-04   2.82272580E-03
  -1.99999995E-04   2.84644892E-03
  -1.50000007E-04   2.86985165E-03
  -9.99999975E-05   2.89272470E-03
  -4.99999987E-05   2.91503244E-03
   0.00000000       2.93692620E-03
   4.99999987E-05   2.95865024E-03
   9.99999975E-05   2.98045762E-03
   1.50000007E-04   3.00249085E-03
   1.99999995E-04   3.02469730E-03
   2.50000012E-04   3.04685393E-03
   3.00000014E-04   3.06866318E-03
   3.49999988E-04   3.08987149E-03
   3.99999990E-04   3.11037363E-03
   4.49999992E-04   3.13026388E-03
   5.00000024E-04   3.14978533E-03
   5.49999997E-04   3.16922902E-03
   6.00000028E-04   3.18880379E-03
   6.50000002E-04   3.20851756E-03
   6.99999975E-04   3.22817708E-03
   7.50000007E-04   3.24747036E-03
   7.99999980E-04   3.26608168E-03
   8.50000011E-04   3.28384247E-03
   8.99999985E-04   3.30079137E-03
   9.50000016E-04   3.31714773E-03
   1.00000005E-03   3.33323725E-03
   1.04999996E-03   3.34931957E-03
   1.09999999E-03   3.36547219E-03
   1.15000003E-03   3.38156405E-03
   1.20000006E-03   3.39728664E-03
   1.24999997E-03   3.41227744E-03
   1.30000000E-03   3.42627987E-03
   1.35000004E-03   3.43925226E-03
   1.39999995E-03   3.45138158E-03
   1.44999998E-03   3.46299564E-03
   1.50000001E-03   3.47442669E-03
   1.55000004E-03   3.48584214E-03
   1.59999996E-03   3.49717587E-03
   1.64999999E-03   3.50813707E-03
   1.70000002E-03   3.51832248E-03
   1.75000005E-03   3.52740870E-03
   1.79999997E-03   3.53525719E-03
   1.85000000E-03   3.54198227E-03
   1.90000003E-03   3.54790385E-03
   1.94999995E-03   3.55340284E-03
   2.00000009E-03   3.55877099E-03
   2.05000001E-03   3.56403855E-03
   2.09999993E-03   3.56894569E-03
   2.15000007E-03   3.57304467E-03
   2.19999999E-03   3.57589894E-03
   2.24999990E-03   3.57728265E-03
   2.30000005E-03   3.57724749E-03
   2.34999997E-03   3.57610895E-03
   2.40000011E-03   3.57431849E-03
   2.45000003E-03   3.57223186E-03
   2.49999994E-03   3.56995873E-03
   2.55000009E-03   3.56730912E-03
   2.60000001E-03   3.56384995E-03
   2.64999992E-03   3.55908368E-03
   2.70000007E-03   3.55265592E-03
   2.74999999E-03   3.54451616E-03
   2.79999990E-03   3.53493844E-03