  -3.99999991E-02   0.00000000    
  -3.99499983E-02   0.00000000    
  -3.99000011E-02   0.00000000    
  -3.98500003E-02   1.75479752E-15
  -3.97999994E-02   1.33145812E-14
  -3.97499986E-02   5.25134373E-14
  -3.97000015E-02   1.44838107E-13
  -3.96500006E-02   3.18340054E-13
  -3.95999998E-02   6.05481973E-13
  -3.95499989E-02   1.05425195E-12
  -3.95000018E-02   1.72986517E-12
  -3.94500010E-02   2.68237060E-12
  -3.94000001E-02   3.88933547E-12
  -3.93499993E-02   5.23182235E-12
  -3.92999984E-02   6.56060536E-12
  -3.92500013E-02   7.83033100E-12
  -3.92000005E-02   9.19178969E-12
  -3.91499996E-02   1.09447547E-11
  -3.90999988E-02   1.33784026E-11
  -3.90500017E-02   1.66360918E-11
  -3.90000008E-02   2.07045006E-11
  -3.89500000E-02   2.54802273E-11
  -3.88999991E-02   3.07929827E-11
  -3.88499983E-02   3.63686269E-11
  -3.88000011E-02   4.18656602E-11
  -3.87500003E-02   4.70851760E-11
  -3.86999995E-02   5.22205161E-11
  -3.86499986E-02   5.78546759E-11
  -3.86000015E-02   6.45865514E-11
  -3.85500006E-02   7.25505489E-11
  -3.84999998E-02   8.12602555E-11
  -3.84499989E-02   8.99160954E-11
  -3.84000018E-02   9.78513381E-11
  -3.83500010E-02   1.04682762E-10
  -3.83000001E-02   1.10122335E-10
  -3.82499993E-02   1.13828988E-10
  -3.81999984E-02   1.15604325E-10
  -3.81500013E-02   1.15732361E-10
  -3.81000005E-02   1.14966085E-10
  -3.80499996E-02   1.14006277E-10
  -3.79999988E-02   1.12942565E-10
  -3.79500017E-02   1.11242793E-10
  -3.79000008E-02   1.08263593E-10
  -3.78500000E-02   1.03623950E-10
  -3.77999991E-02   9.69409553E-11
  -3.77499983E-02   8.72744724E-11
  -3.77000012E-02   7.31422978E-11
  -3.76500003E-02   5.34064841E-11
  -3.75999995E-02   2.82488113E-11
  -3.75499986E-02  -8.70529343E-13
  -3.75000015E-02  -3.24491996E-11
  -3.74500006E-02  -6.63166536E-11
  -3.73999998E-02  -1.03932640E-10
  -3.73499990E-02  -1.47483165E-10
  -3.73000018E-02  -1.98702443E-10
  -3.72500010E-02  -2.58208233E-10
  -3.72000001E-02  -3.25174304E-10
  -3.71499993E-02  -3.96804756E-10
  -3.70999984E-02  -4.67932360E-10
  -3.70500013E-02  -5.31991728E-10
  -3.70000005E-02  -5.83998072E-10
  -3.69499996E-02  -6.24142238E-10
  -3.68999988E-02  -6.59232335E-10
  -3.68500017E-02  -7.00255687E-10
  -3.68000008E-02  -7.57170937E-10
  -3.67500000E-02  -8.34052161E-10
  -3.66999991E-02  -9.27154298E-10
  -3.66499983E-02  -1.02623299E-09
  -3.66000012E-02  -1.11789389E-09
  -3.65500003E-02  -1.18985621E-09
  -3.64999995E-02  -1.23550492E-09
  -3.64499986E-02  -1.25741262E-09
  -3.64000015E-02  -1.26736188E-09
  -3.63500006E-02  -1.28106425E-09
  -3.62999998E-02  -1.30909761E-09
  -3.62499990E-02  -1.34922062E-09
  -3.62000018E-02  -1.38544654E-09
  -3.61500010E-02  -1.39515988E-09
  -3.61000001E-02  -1.36023925E-09
  -3.60499993E-02  -1.27597355E-09
  -3.59999985E-02  -1.15366239E-09
  -3.59500013E-02  -1.01649833E-09
  -3.59000005E-02  -8.90653662E-10
  -3.58499996E-02  -7.94162791E-10
  -3.57999988E-02  -7.27055138E-10
  -3.57500017E-02  -6.67555233E-10
  -3.57000008E-02  -5.78619763E-10
  -3.56500000E-02  -4.24375535E-10
  -3.55999991E-02  -1.89073118E-10
  -3.55499983E-02   1.12366651E-10
  -3.55000012E-02   4.39359632E-10
  -3.54500003E-02   7.44279915E-10
  -3.53999995E-02   9.94980209E-10
  -3.53499986E-02   1.19029653E-09
  -3.53000015E-02   1.36212308E-09
  -3.52500007E-02   1.56369184E-09
  -3.51999998E-02   1.84800730E-09
  -3.51499990E-02   2.24343077E-09
  -3.51000018E-02   2.73615930E-09
  -3.50500010E-02   3.26952443E-09
  -3.50000001E-02   3.76438258E-09
  -3.49499993E-02   4.15371204E-09
  -3.48999985E-02   4.41458470E-09
  -3.48500013E-02   4.57996663E-09
  -3.48000005E-02   4.72331152E-09
  -3.47499996E-02   4.92370145E-09
  -3.46999988E-02   5.22862020E-09
  -3.46500017E-02   5.63095126E-09
  -3.46000008E-02   6.06909900E-09
  -3.45500000E-02   6.45009379E-09
  -3.44999991E-02   6.68788580E-09
  -3.44499983E-02   6.74254519E-09
  -3.44000012E-02   6.64256472E-09
  -3.43500003E-02   6.47630483E-09
  -3.42999995E-02   6.35212904E-09
  -3.42499986E-02   6.34459818E-09
  -3.42000015E-02   6.45421894E-09
  -3.41500007E-02   6.60241284E-09
  -3.40999998E-02   6.66467415E-09
  -3.40499990E-02   6.52527055E-09
  -3.40000018E-02   6.12782891E-09
  -3.39500010E-02   5.50043344E-09
  -3.39000002E-02   4.74523221E-09
  -3.38499993E-02   3.99561184E-09
  -3.37999985E-02   3.35650574E-09
  -3.37500013E-02   2.85229396E-09
  -3.37000005E-02   2.40806153E-09
  -3.36499996E-02   1.87837568E-09
  -3.35999988E-02   1.11453091E-09
  -3.35500017E-02   3.87480464E-11
  -3.35000008E-02  -1.31251809E-09
  -3.34500000E-02  -2.79877788E-09
  -3.33999991E-02  -4.23416768E-09
  -3.33499983E-02  -5.46659340E-09
  -3.33000012E-02  -6.44262110E-09
  -3.32500003E-02  -7.23185112E-09
  -3.31999995E-02  -8.00054334E-09
  -3.31499986E-02  -8.94268570E-09
  -3.31000015E-02  -1.01940003E-08
  -3.30500007E-02  -1.17651933E-08
  -3.29999998E-02  -1.35279619E-08
  -3.29499990E-02  -1.52655257E-08
  -3.29000019E-02  -1.67667462E-08
  -3.28500010E-02  -1.79184987E-08
  -3.28000002E-02  -1.87512139E-08
  -3.27499993E-02  -1.94170386E-08
  -3.26999985E-02  -2.01139407E-08
  -3.26500013E-02  -2.09921414E-08
  -3.26000005E-02  -2.20823697E-08
  -3.25499997E-02  -2.32742678E-08
  -3.24999988E-02  -2.43546499E-08
  -3.24500017E-02  -2.50932253E-08
  -3.24000008E-02  -2.53422421E-08
  -3.23500000E-02  -2.51049617E-08
  -3.22999991E-02  -2.45367993E-08
  -3.22499983E-02  -2.38739357E-08
  -3.22000012E-02  -2.33221300E-08
  -3.21500003E-02  -2.29605650E-08
  -3.20999995E-02  -2.27064181E-08
  -3.20499986E-02  -2.23532322E-08
  -3.20000015E-02  -2.16619434E-08
  -3.19500007E-02  -2.04633004E-08
  -3.18999998E-02  -1.87309315E-08
  -3.18499990E-02  -1.65965286E-08
  -3.18000019E-02  -1.42984753E-08
  -3.17500010E-02  -1.20803652E-08
  -3.17000002E-02  -1.00801909E-08
  -3.16499993E-02  -8.26242275E-09
  -3.15999985E-02  -6.42943299E-09
  -3.15500014E-02  -4.31086811E-09
  -3.15000005E-02  -1.68844649E-09
  -3.14499997E-02   1.50376878E-09
  -3.13999988E-02   5.14755349E-09
  -3.13500017E-02   8.98542218E-09
  -3.13000008E-02   1.27184316E-08
  -3.12500000E-02   1.61175020E-08
  -3.11999992E-02   1.91079774E-08
  -3.11500002E-02   2.17955698E-08
  -3.10999993E-02   2.44182630E-08
  -3.10500003E-02   2.72378777E-08
  -3.09999995E-02   3.04159329E-08
  -3.09500005E-02   3.39324977E-08
  -3.08999997E-02   3.75884106E-08
  -3.08500007E-02   4.10884162E-08
  -3.07999998E-02   4.41624373E-08
  -3.07500008E-02   4.66691539E-08
  -3.07000000E-02   4.86419189E-08
  -3.06499992E-02   5.02657151E-08
  -3.06000002E-02   5.17982848E-08
  -3.05499993E-02   5.34625499E-08
  -3.05000003E-02   5.53478827E-08
  -3.04499995E-02   5.73597454E-08
  -3.04000005E-02   5.92460516E-08
  -3.03499997E-02   6.06969834E-08
  -3.03000007E-02   6.14739761E-08
  -3.02499998E-02   6.15060785E-08
  -3.02000009E-02   6.09074036E-08
  -3.01500000E-02   5.99141572E-08
  -3.00999992E-02   5.87773741E-08
  -3.00500002E-02   5.76559991E-08
  -2.99999993E-02   5.65493714E-08
  -2.99500003E-02   5.52904460E-08
  -2.98999995E-02   5.36044737E-08
  -2.98500005E-02   5.12210541E-08
  -2.97999997E-02   4.80002100E-08
  -2.97500007E-02   4.40143957E-08
  -2.96999998E-02   3.95389357E-08
  -2.96500009E-02   3.49449110E-08
  -2.96000000E-02   3.05443528E-08
  -2.95499992E-02   2.64606630E-08
  -2.95000002E-02   2.25793499E-08
  -2.94499993E-02   1.85952942E-08
  -2.94000003E-02   1.41318468E-08
  -2.93499995E-02   8.88945539E-09
  -2.93000005E-02   2.77495049E-09
  -2.92499997E-02  -4.03865874E-09
  -2.92000007E-02  -1.11575771E-08
  -2.91499998E-02  -1.81161184E-08
  -2.91000009E-02  -2.45720457E-08
  -2.90500000E-02  -3.04569454E-08
  -2.89999992E-02  -3.60038470E-08
  -2.89500002E-02  -4.16364365E-08
  -2.88999993E-02  -4.77747477E-08
  -2.88500004E-02  -5.46449819E-08
  -2.87999995E-02  -6.21700025E-08
  -2.87500005E-02  -6.99781708E-08
  -2.86999997E-02  -7.75288456E-08
  -2.86500007E-02  -8.43156016E-08
  -2.85999998E-02  -9.00730797E-08
  -2.85500009E-02  -9.48979917E-08
  -2.85000000E-02  -9.92146596E-08
  -2.84499992E-02  -1.03585279E-07
  -2.84000002E-02  -1.08447942E-07
  -2.83499993E-02  -1.13906651E-07
  -2.83000004E-02  -1.19675263E-07
  -2.82499995E-02  -1.25196337E-07
  -2.82000005E-02  -1.29873868E-07
  -2.81499997E-02  -1.33316149E-07
  -2.81000007E-02  -1.35493707E-07
  -2.80499998E-02  -1.36751652E-07
  -2.80000009E-02  -1.37659825E-07
  -2.79500000E-02  -1.38753180E-07
  -2.78999992E-02  -1.40265811E-07
  -2.78500002E-02  -1.41985595E-07
  -2.77999993E-02  -1.43317891E-07
  -2.77500004E-02  -1.43539026E-07
  -2.76999995E-02  -1.42121166E-07
  -2.76500005E-02  -1.38972240E-07
  -2.75999997E-02  -1.34480274E-07
  -2.75500007E-02  -1.29347711E-07
  -2.74999999E-02  -1.24291859E-07
  -2.74500009E-02  -1.19738857E-07
  -2.74000000E-02  -1.15633370E-07
  -2.73499992E-02  -1.11443633E-07
  -2.73000002E-02  -1.06371878E-07
  -2.72499993E-02  -9.97007845E-08
  -2.72000004E-02  -9.11319802E-08
  -2.71499995E-02  -8.09486949E-08
  -2.71000005E-02  -6.99107616E-08
  -2.70499997E-02  -5.89260623E-08
  -2.70000007E-02  -4.86554512E-08
  -2.69499999E-02  -3.92349477E-08
  -2.69000009E-02  -3.02314191E-08
  -2.68500000E-02  -2.08365485E-08
  -2.67999992E-02  -1.02120516E-08
  -2.67500002E-02   2.15284990E-09
  -2.66999993E-02   1.62104818E-08
  -2.66500004E-02   3.13486375E-08
  -2.65999995E-02   4.66284575E-08
  -2.65500005E-02   6.11765429E-08
  -2.64999997E-02   7.45560698E-08
  -2.64500007E-02   8.69350956E-08
  -2.63999999E-02   9.89722011E-08
  -2.63500009E-02   1.11480205E-07
  -2.63000000E-02   1.25037218E-07
  -2.62499992E-02   1.39727277E-07
  -2.62000002E-02   1.55104956E-07
  -2.61499994E-02   1.70379025E-07
  -2.61000004E-02   1.84737189E-07
  -2.60499995E-02   1.97683107E-07
  -2.60000005E-02   2.09248384E-07
  -2.59499997E-02   2.19980436E-07
  -2.59000007E-02   2.30697268E-07
  -2.58499999E-02   2.42104761E-07
  -2.58000009E-02   2.54455983E-07
  -2.57500000E-02   2.67428078E-07
  -2.56999992E-02   2.80265823E-07
  -2.56500002E-02   2.92110116E-07
  -2.55999994E-02   3.02345256E-07
  -2.55500004E-02   3.10823481E-07
  -2.54999995E-02   3.17893324E-07
  -2.54500005E-02   3.24233440E-07
  -2.53999997E-02   3.30556134E-07
  -2.53500007E-02   3.37287759E-07
  -2.52999999E-02   3.44361553E-07
  -2.52500009E-02   3.51215846E-07
  -2.52000000E-02   3.57015523E-07
  -2.51499992E-02   3.61009711E-07
  -2.51000002E-02   3.62848795E-07
  -2.50499994E-02   3.62713934E-07
  -2.50000004E-02   3.61219918E-07
  -2.49499995E-02   3.59153432E-07
  -2.49000005E-02   3.57168801E-07
  -2.48499997E-02   3.55551009E-07
  -2.48000007E-02   3.54111648E-07
  -2.47499999E-02   3.52244939E-07
  -2.47000009E-02   3.49135036E-07
  -2.46500000E-02   3.44054030E-07
  -2.45999992E-02   3.36633065E-07
  -2.45500002E-02   3.26987561E-07
  -2.44999994E-02   3.15639141E-07
  -2.44500004E-02   3.03266120E-07
  -2.43999995E-02   2.90411123E-07
  -2.43500005E-02   2.77274296E-07
  -2.42999997E-02   2.63648019E-07
  -2.42500007E-02   2.48987391E-07
  -2.41999999E-02   2.32584867E-07
  -2.41500009E-02   2.13810111E-07
  -2.41000000E-02   1.92345411E-07
  -2.40499992E-02   1.68326679E-07
  -2.40000002E-02   1.42302028E-07
  -2.39499994E-02   1.14996716E-07
  -2.39000004E-02   8.69875763E-08
  -2.38499995E-02   5.84375961E-08
  -2.38000005E-02   2.90148598E-08
  -2.37499997E-02  -1.98232653E-09
  -2.37000007E-02  -3.53677621E-08
  -2.36499999E-02  -7.17645250E-08
  -2.36000009E-02  -1.11357608E-07
  -2.35500000E-02  -1.53793252E-07
  -2.34999992E-02  -1.98286784E-07
  -2.34500002E-02  -2.43944186E-07
  -2.33999994E-02  -2.90184289E-07
  -2.33500004E-02  -3.37067263E-07
  -2.32999995E-02  -3.85339405E-07
  -2.32500006E-02  -4.36151595E-07
  -2.31999997E-02  -4.90574394E-07
  -2.31500007E-02  -5.49123399E-07
  -2.30999999E-02  -6.11503253E-07
  -2.30500009E-02  -6.76675313E-07
  -2.30000000E-02  -7.43235603E-07
  -2.29499992E-02  -8.09966423E-07
  -2.29000002E-02  -8.76363856E-07
  -2.28499994E-02  -9.42919883E-07
  -2.28000004E-02  -1.01099238E-06
  -2.27499995E-02  -1.08224856E-06
  -2.27000006E-02  -1.15791727E-06
  -2.26499997E-02  -1.23819302E-06
  -2.26000007E-02  -1.32207879E-06
  -2.25499999E-02  -1.40777638E-06
  -2.25000009E-02  -1.49344169E-06
  -2.24500000E-02  -1.57795887E-06
  -2.23999992E-02  -1.66142274E-06
  -2.23500002E-02  -1.74514525E-06
  -2.22999994E-02  -1.83113684E-06
  -2.22500004E-02  -1.92124980E-06
  -2.21999995E-02  -2.01632474E-06
  -2.21500006E-02  -2.11570659E-06
  -2.20999997E-02  -2.21742903E-06
  -2.20500007E-02  -2.31902641E-06
  -2.19999999E-02  -2.41858902E-06
  -2.19500009E-02  -2.51558140E-06
  -2.19000001E-02  -2.61105129E-06
  -2.18499992E-02  -2.70712940E-06
  -2.18000002E-02  -2.80606446E-06
  -2.17499994E-02  -2.90920252E-06
  -2.17000004E-02  -3.01632826E-06
  -2.16499995E-02  -3.12569091E-06
  -2.16000006E-02  -3.23470613E-06
  -2.15499997E-02  -3.34106289E-06
  -2.15000007E-02  -3.44378054E-06
  -2.14499999E-02  -3.54370718E-06
  -2.14000009E-02  -3.64317066E-06
  -2.13500001E-02  -3.74488809E-06
  -2.12999992E-02  -3.85064322E-06
  -2.12500002E-02  -3.96040468E-06
  -2.11999994E-02  -4.07226798E-06
  -2.11500004E-02  -4.18321542E-06
  -2.10999995E-02  -4.29037527E-06
  -2.10500006E-02  -4.39226460E-06
  -2.09999997E-02  -4.48949231E-06
  -2.09500007E-02  -4.58457680E-06
  -2.08999999E-02  -4.68089729E-06
  -2.08500009E-02  -4.78120592E-06
  -2.08000001E-02  -4.88637079E-06
  -2.07499992E-02  -4.99493217E-06
  -2.07000002E-02  -5.10374275E-06
  -2.06499994E-02  -5.20937056E-06
  -2.06000004E-02  -5.30964007E-06
  -2.05499995E-02  -5.40467499E-06
  -2.05000006E-02  -5.49690230E-06
  -2.04499997E-02  -5.59002865E-06
  -2.04000007E-02  -5.68750784E-06
  -2.03499999E-02  -5.79112566E-06
  -2.03000009E-02  -5.90022682E-06
  -2.02500001E-02  -6.01203647E-06
  -2.01999992E-02  -6.12291933E-06
  -2.01500002E-02  -6.23008327E-06
  -2.00999994E-02  -6.33292120E-06
  -2.00500004E-02  -6.43340445E-06
  -1.99999996E-02  -6.53533198E-06
  -1.99500006E-02  -6.64271920E-06
  -1.98999997E-02  -6.75817364E-06
  -1.98500007E-02  -6.88193995E-06
  -1.97999999E-02  -7.01197177E-06
  -1.97500009E-02  -7.14496946E-06
  -1.97000001E-02  -7.27811721E-06
  -1.96499992E-02  -7.41057056E-06
  -1.96000002E-02  -7.54395887E-06
  -1.95499994E-02  -7.68190148E-06
  -1.95000004E-02  -7.82866846E-06
  -1.94499996E-02  -7.98748079E-06
  -1.94000006E-02  -8.15928342E-06
  -1.93499997E-02  -8.34245566E-06
  -1.93000007E-02  -8.53375877E-06
  -1.92499999E-02  -8.73011504E-06
  -1.92000009E-02  -8.93013748E-06
  -1.91500001E-02  -9.13500662E-06
  -1.90999992E-02  -9.34830405E-06
  -1.90500002E-02  -9.57455359E-06
  -1.89999994E-02  -9.81742232E-06
  -1.89500004E-02  -1.00784464E-05
  -1.88999996E-02  -1.03566044E-05
  -1.88500006E-02  -1.06490252E-05
  -1.87999997E-02  -1.09523244E-05
  -1.87500007E-02  -1.12643365E-05
  -1.86999999E-02  -1.15853918E-05
  -1.86500009E-02  -1.19184897E-05
  -1.86000001E-02  -1.22683332E-05
  -1.85499992E-02  -1.26394452E-05
  -1.85000002E-02  -1.30343851E-05
  -1.84499994E-02  -1.34530192E-05
  -1.84000004E-02  -1.38928008E-05
  -1.83499996E-02  -1.43501320E-05
  -1.83000006E-02  -1.48221161E-05
  -1.82499997E-02  -1.53077635E-05
  -1.82000007E-02  -1.58086314E-05
  -1.81499999E-02  -1.63281384E-05
  -1.81000009E-02  -1.68703336E-05
  -1.80500001E-02  -1.74383877E-05
  -1.79999992E-02  -1.80332645E-05
  -1.79500002E-02  -1.86533598E-05
  -1.78999994E-02  -1.92954503E-05
  -1.78500004E-02  -1.99565529E-05
  -1.77999996E-02  -2.06353161E-05
  -1.77500006E-02  -2.13325220E-05
  -1.76999997E-02  -2.20507391E-05
  -1.76500008E-02  -2.27934634E-05
  -1.75999999E-02  -2.35638581E-05
  -1.75500009E-02  -2.43635168E-05
  -1.75000001E-02  -2.51916099E-05
  -1.74499992E-02  -2.60451798E-05
  -1.74000002E-02  -2.69207085E-05
  -1.73499994E-02  -2.78158022E-05
  -1.73000004E-02  -2.87303501E-05
  -1.72499996E-02  -2.96662838E-05
  -1.72000006E-02  -3.06266338E-05
  -1.71499997E-02  -3.16143596E-05
  -1.71000008E-02  -3.26310656E-05
  -1.70499999E-02  -3.36764497E-05
  -1.70000009E-02  -3.47482855E-05
  -1.69500001E-02  -3.58433099E-05
  -1.68999992E-02  -3.69586778E-05
  -1.68500002E-02  -3.80930542E-05
  -1.67999994E-02  -3.92472211E-05
  -1.67500004E-02  -4.04240309E-05
  -1.66999996E-02  -4.16273033E-05
  -1.66500006E-02  -4.28598032E-05
  -1.65999997E-02  -4.41219709E-05
  -1.65500008E-02  -4.54124529E-05
  -1.64999999E-02  -4.67282698E-05
  -1.64500009E-02  -4.80658382E-05
  -1.64000001E-02  -4.94226333E-05
  -1.63499992E-02  -5.07981858E-05
  -1.63000003E-02  -5.21945440E-05
  -1.62499994E-02  -5.36150183E-05
  -1.62000004E-02  -5.50630066E-05
  -1.61499996E-02  -5.65409864E-05
  -1.61000006E-02  -5.80492233E-05
  -1.60499997E-02  -5.95855927E-05
  -1.60000008E-02  -6.11469950E-05
  -1.59499999E-02  -6.27312475E-05
  -1.59000009E-02  -6.43372332E-05
  -1.58500001E-02  -6.59652433E-05
  -1.57999992E-02  -6.76178315E-05
  -1.57500003E-02  -6.92989852E-05
  -1.56999994E-02  -7.10120657E-05
  -1.56500004E-02  -7.27585648E-05
  -1.55999996E-02  -7.45380094E-05
  -1.55499997E-02  -7.63486969E-05
  -1.54999997E-02  -7.81885465E-05
  -1.54499998E-02  -8.00563066E-05
  -1.53999999E-02  -8.19521520E-05
  -1.53500000E-02  -8.38779160E-05
  -1.53000001E-02  -8.58375133E-05
  -1.52500002E-02  -8.78357896E-05
  -1.52000003E-02  -8.98760627E-05
  -1.51500003E-02  -9.19581071E-05
  -1.51000004E-02  -9.40799146E-05
  -1.50499996E-02  -9.62401828E-05
  -1.49999997E-02  -9.84381695E-05
  -1.49499997E-02  -1.00674602E-04
  -1.48999998E-02  -1.02951773E-04
  -1.48499999E-02  -1.05273532E-04
  -1.48000000E-02  -1.07644635E-04
  -1.47500001E-02  -1.10070105E-04
  -1.47000002E-02  -1.12553520E-04
  -1.46500003E-02  -1.15094765E-04
  -1.46000003E-02  -1.17691372E-04
  -1.45500004E-02  -1.20340403E-04
  -1.44999996E-02  -1.23041827E-04
  -1.44499997E-02  -1.25798848E-04
  -1.43999998E-02  -1.28615939E-04
  -1.43499998E-02  -1.31497640E-04
  -1.42999999E-02  -1.34448550E-04
  -1.42500000E-02  -1.37473136E-04
  -1.42000001E-02  -1.40575357E-04
  -1.41500002E-02  -1.43755678E-04
  -1.41000003E-02  -1.47010753E-04
  -1.40500003E-02  -1.50337844E-04
  -1.40000004E-02  -1.53737376E-04
  -1.39499996E-02  -1.57214599E-04
  -1.38999997E-02  -1.60777461E-04
  -1.38499998E-02  -1.64431855E-04
  -1.37999998E-02  -1.68180399E-04
  -1.37499999E-02  -1.72025291E-04
  -1.37000000E-02  -1.75970286E-04
  -1.36500001E-02  -1.80017611E-04
  -1.36000002E-02  -1.84165037E-04
  -1.35500003E-02  -1.88409103E-04
  -1.35000004E-02  -1.92749358E-04
  -1.34500004E-02  -1.97193192E-04
  -1.33999996E-02  -2.01750547E-04
  -1.33499997E-02  -2.06426514E-04
  -1.32999998E-02  -2.11222839E-04
  -1.32499998E-02  -2.16140295E-04
  -1.31999999E-02  -2.21179755E-04
  -1.31500000E-02  -2.26343211E-04
  -1.31000001E-02  -2.31632686E-04
  -1.30500002E-02  -2.37047905E-04
  -1.30000003E-02  -2.42590701E-04
  -1.29500004E-02  -2.48268712E-04
  -1.29000004E-02  -2.54092098E-04
  -1.28499996E-02  -2.60065892E-04
  -1.27999997E-02  -2.66188406E-04
  -1.27499998E-02  -2.72456789E-04
  -1.26999998E-02  -2.78871274E-04
  -1.26499999E-02  -2.85435555E-04
  -1.26000000E-02  -2.92151555E-04
  -1.25500001E-02  -2.99019244E-04
  -1.25000002E-02  -3.06044269E-04
  -1.24500003E-02  -3.13237833E-04
  -1.24000004E-02  -3.20611580E-04
  -1.23500004E-02  -3.28171678E-04
  -1.22999996E-02  -3.35916877E-04
  -1.22499997E-02  -3.43839783E-04
  -1.21999998E-02  -3.51934490E-04
  -1.21499998E-02  -3.60201811E-04
  -1.20999999E-02  -3.68645153E-04
  -1.20500000E-02  -3.77266726E-04
  -1.20000001E-02  -3.86067200E-04
  -1.19500002E-02  -3.95053561E-04
  -1.19000003E-02  -4.04237973E-04
  -1.18500004E-02  -4.13634698E-04
  -1.18000004E-02  -4.23249672E-04
  -1.17499996E-02  -4.33078909E-04
  -1.16999997E-02  -4.43123165E-04
  -1.16499998E-02  -4.53390705E-04
  -1.15999999E-02  -4.63892007E-04
  -1.15499999E-02  -4.74630826E-04
  -1.15000000E-02  -4.85602650E-04
  -1.14500001E-02  -4.96799708E-04
  -1.14000002E-02  -5.08218713E-04
  -1.13500003E-02  -5.19860769E-04
  -1.13000004E-02  -5.31718892E-04
  -1.12500004E-02  -5.43781847E-04
  -1.11999996E-02  -5.56048180E-04
  -1.11499997E-02  -5.68527263E-04
  -1.10999998E-02  -5.81241737E-04
  -1.10499999E-02  -5.94216457E-04
  -1.09999999E-02  -6.07469119E-04
  -1.09500000E-02  -6.21015672E-04
  -1.09000001E-02  -6.34868047E-04
  -1.08500002E-02  -6.49033405E-04
  -1.08000003E-02  -6.63510466E-04
  -1.07500004E-02  -6.78286480E-04
  -1.07000005E-02  -6.93349459E-04
  -1.06499996E-02  -7.08691834E-04
  -1.05999997E-02  -7.24299927E-04
  -1.05499998E-02  -7.40166870E-04
  -1.04999999E-02  -7.56286841E-04
  -1.04499999E-02  -7.72656058E-04
  -1.04000000E-02  -7.89281563E-04
  -1.03500001E-02  -8.06169875E-04
  -1.03000002E-02  -8.23331706E-04
  -1.02500003E-02  -8.40781897E-04
  -1.02000004E-02  -8.58541927E-04
  -1.01500005E-02  -8.76636477E-04
  -1.00999996E-02  -8.95087142E-04
  -1.00499997E-02  -9.13910335E-04
  -9.99999978E-03  -9.33110132E-04
  -9.94999986E-03  -9.52682109E-04
  -9.89999995E-03  -9.72612645E-04
  -9.85000003E-03  -9.92893125E-04
  -9.80000012E-03  -1.01351913E-03
  -9.75000020E-03  -1.03447714E-03
  -9.70000029E-03  -1.05575949E-03
  -9.65000037E-03  -1.07737456E-03
  -9.60000046E-03  -1.09932839E-03
  -9.54999961E-03  -1.12163019E-03
  -9.49999969E-03  -1.14428147E-03
  -9.44999978E-03  -1.16727524E-03
  -9.39999986E-03  -1.19061524E-03
  -9.34999995E-03  -1.21430575E-03
  -9.30000003E-03  -1.23835239E-03
  -9.25000012E-03  -1.26275199E-03
  -9.20000020E-03  -1.28750491E-03
  -9.15000029E-03  -1.31263444E-03
  -9.10000037E-03  -1.33816525E-03
  -9.05000046E-03  -1.36410759E-03
  -8.99999961E-03  -1.39046321E-03
  -8.94999970E-03  -1.41722721E-03
  -8.89999978E-03  -1.44439517E-03
  -8.84999987E-03  -1.47198816E-03
  -8.79999995E-03  -1.50003121E-03
  -8.75000004E-03  -1.52852037E-03
  -8.70000012E-03  -1.55744259E-03
  -8.65000021E-03  -1.58679625E-03
  -8.60000029E-03  -1.61657215E-03
  -8.55000038E-03  -1.64677214E-03
  -8.50000046E-03  -1.67740043E-03
  -8.44999962E-03  -1.70843233E-03
  -8.39999970E-03  -1.73985155E-03
  -8.34999979E-03  -1.77166727E-03
  -8.29999987E-03  -1.80390524E-03
  -8.24999996E-03  -1.83658069E-03
  -8.20000004E-03  -1.86970446E-03
  -8.15000013E-03  -1.90328341E-03
  -8.10000021E-03  -1.93732302E-03
  -8.05000030E-03  -1.97180873E-03
  -8.00000038E-03  -2.00674147E-03
  -7.95000046E-03  -2.04213988E-03
  -7.89999962E-03  -2.07802071E-03
  -7.84999970E-03  -2.11439189E-03
  -7.79999979E-03  -2.15124688E-03
  -7.74999987E-03  -2.18860200E-03
  -7.69999996E-03  -2.22649635E-03
  -7.65000004E-03  -2.26494088E-03
  -7.60000013E-03  -2.30391393E-03
  -7.55000021E-03  -2.34340620E-03
  -7.49999983E-03  -2.38342327E-03
  -7.44999992E-03  -2.42397282E-03
  -7.40000000E-03  -2.46505928E-03
  -7.35000009E-03  -2.50668917E-03
  -7.30000017E-03  -2.54884898E-03
  -7.24999979E-03  -2.59151193E-03
  -7.19999988E-03  -2.63469247E-03
  -7.14999996E-03  -2.67843017E-03
  -7.10000005E-03  -2.72272900E-03
  -7.05000013E-03  -2.76755332E-03
  -7.00000022E-03  -2.81289103E-03
  -6.94999984E-03  -2.85876612E-03
  -6.89999992E-03  -2.90523097E-03
  -6.85000001E-03  -2.95234122E-03
  -6.80000009E-03  -3.00008431E-03
  -6.75000018E-03  -3.04840296E-03
  -6.69999979E-03  -3.09729273E-03
  -6.64999988E-03  -3.14681092E-03
  -6.59999996E-03  -3.19704204E-03
  -6.55000005E-03  -3.24797700E-03
  -6.50000013E-03  -3.29953246E-03
  -6.45000022E-03  -3.35170794E-03
  -6.39999984E-03  -3.40454816E-03
  -6.34999992E-03  -3.45809828E-03
  -6.30000001E-03  -3.51239345E-03
  -6.25000009E-03  -3.56743159E-03
  -6.20000018E-03  -3.62314773E-03
  -6.14999980E-03  -3.67948646E-03
  -6.09999988E-03  -3.73649900E-03
  -6.04999997E-03  -3.79424915E-03
  -6.00000005E-03  -3.85272061E-03
  -5.95000014E-03  -3.91188031E-03
  -5.90000022E-03  -3.97172850E-03
  -5.84999984E-03  -4.03229706E-03
  -5.79999993E-03  -4.09362605E-03
  -5.75000001E-03  -4.15574992E-03
  -5.70000010E-03  -4.21865145E-03
  -5.65000018E-03  -4.28229198E-03
  -5.59999980E-03  -4.34667151E-03
  -5.54999989E-03  -4.41187294E-03
  -5.49999997E-03  -4.47798148E-03
  -5.45000006E-03  -4.54494590E-03
  -5.40000014E-03  -4.61271219E-03
  -5.35000023E-03  -4.68130177E-03
  -5.29999984E-03  -4.75076213E-03
  -5.24999993E-03  -4.82113659E-03
  -5.20000001E-03  -4.89243772E-03
  -5.15000010E-03  -4.96462407E-03
  -5.10000018E-03  -5.03768492E-03
  -5.04999980E-03  -5.11163613E-03
  -4.99999989E-03  -5.18647954E-03
  -4.94999997E-03  -5.26224310E-03
  -4.90000006E-03  -5.33891376E-03
  -4.85000014E-03  -5.41645288E-03
  -4.80000023E-03  -5.49485208E-03
  -4.74999985E-03  -5.57410065E-03
  -4.69999993E-03  -5.65424468E-03
  -4.65000002E-03  -5.73534053E-03
  -4.60000010E-03  -5.81739657E-03
  -4.55000019E-03  -5.90040628E-03
  -4.49999981E-03  -5.98439062E-03
  -4.44999989E-03  -6.06940081E-03
  -4.39999998E-03  -6.15548203E-03
  -4.35000006E-03  -6.24261005E-03
  -4.30000015E-03  -6.33073831E-03
  -4.25000023E-03  -6.41985191E-03
  -4.19999985E-03  -6.51004119E-03
  -4.14999994E-03  -6.60140719E-03
  -4.10000002E-03  -6.69385819E-03
  -4.05000011E-03  -6.78730756E-03
  -4.00000019E-03  -6.88172784E-03
  -3.94999981E-03  -6.97717397E-03
  -3.89999989E-03  -7.07373628E-03
  -3.84999998E-03  -7.17140129E-03
  -3.80000006E-03  -7.27010146E-03
  -3.74999992E-03  -7.36971572E-03
  -3.70000000E-03  -7.47033907E-03
  -3.65000009E-03  -7.57219084E-03
  -3.59999994E-03  -7.67523656E-03
  -3.55000002E-03  -7.77930487E-03
  -3.50000011E-03  -7.88433757E-03
  -3.44999996E-03  -7.99050834E-03
  -3.40000005E-03  -8.09795316E-03
  -3.34999990E-03  -8.20657890E-03
  -3.29999998E-03  -8.31623003E-03
  -3.25000007E-03  -8.42691492E-03
  -3.19999992E-03  -8.53880029E-03
  -3.15000000E-03  -8.65203049E-03
  -3.10000009E-03  -8.76660738E-03
  -3.04999994E-03  -8.88235588E-03
  -3.00000003E-03  -8.99908040E-03
  -2.95000011E-03  -9.11689922E-03
  -2.89999996E-03  -9.23597999E-03
  -2.85000005E-03  -9.35633294E-03
  -2.79999990E-03  -9.47791710E-03
  -2.74999999E-03  -9.60059650E-03
  -2.70000007E-03  -9.72436462E-03
  -2.64999992E-03  -9.84942727E-03
  -2.60000001E-03  -9.97587573E-03
  -2.55000009E-03  -1.01035610E-02
  -2.49999994E-03  -1.02322865E-02
  -2.45000003E-03  -1.03620356E-02
  -2.40000011E-03  -1.04930513E-02
  -2.34999997E-03  -1.06255226E-02
  -2.30000005E-03  -1.07592484E-02
  -2.24999990E-03  -1.08939940E-02
  -2.19999999E-03  -1.10297780E-02
  -2.15000007E-03  -1.11668594E-02
  -2.09999993E-03  -1.13054793E-02
  -2.05000001E-03  -1.14455028E-02
  -2.00000009E-03  -1.15866931E-02
  -1.94999995E-03  -1.17289778E-02
  -1.90000003E-03  -1.18725179E-02
  -1.85000000E-03  -1.20174661E-02
  -1.79999997E-03  -1.21638505E-02
  -1.75000005E-03  -1.23116421E-02
  -1.70000002E-03  -1.24606201E-02
  -1.64999999E-03  -1.26107456E-02
  -1.59999996E-03  -1.27622243E-02
  -1.55000004E-03  -1.29150925E-02
  -1.50000001E-03  -1.30691994E-02
  -1.44999998E-03  -1.32244639E-02
  -1.39999995E-03  -1.33808255E-02
  -1.35000004E-03  -1.35384267E-02
  -1.30000000E-03  -1.36975553E-02
  -1.24999997E-03  -1.38581209E-02
  -1.20000006E-03  -1.40199345E-02
  -1.15000003E-03  -1.41828852E-02
  -1.09999999E-03  -1.43470354E-02
  -1.04999996E-03  -1.45125473E-02
  -1.00000005E-03  -1.46794571E-02
  -9.50000016E-04  -1.48476679E-02
  -8.99999985E-04  -1.50172273E-02
  -8.50000011E-04  -1.51882786E-02
  -7.99999980E-04  -1.53607959E-02
  -7.50000007E-04  -1.55345919E-02
  -6.99999975E-04  -1.57096870E-02
  -6.50000002E-04  -1.58860721E-02
  -6.00000028E-04  -1.60637088E-02
  -5.49999997E-04  -1.62427574E-02
  -5.00000024E-04  -1.64230689E-02
  -4.49999992E-04  -1.66045092E-02
  -3.99999990E-04  -1.67874843E-02
  -3.49999988E-04  -1.69721395E-02
  -3.00000014E-04  -1.71580873E-02
  -2.50000012E-04  -1.73450913E-02
  -1.99999995E-04  -1.75330583E-02
  -1.50000007E-04  -1.77223757E-02
  -9.99999975E-05  -1.79133471E-02
  -4.99999987E-05  -1.81056578E-02
   0.00000000      -1.82989351E-02
   4.99999987E-05  -1.84934195E-02
   9.99999975E-05  -1.86895449E-02
   1.50000007E-04  -1.88875254E-02
   1.99999995E-04  -1.90870222E-02
   2.50000012E-04  -1.92873105E-02
   3.00000014E-04  -1.94883533E-02
   3.49999988E-04  -1.96906868E-02
   3.99999990E-04  -1.98949482E-02
   4.49999992E-04  -2.01011673E-02
   5.00000024E-04  -2.03084145E-02
   5.49999997E-04  -2.05162987E-02
   6.00000028E-04  -2.07254216E-02
   6.50000002E-04  -2.09363159E-02
   6.99999975E-04  -2.11490598E-02
   7.50000007E-04  -2.13630460E-02
   7.99999980E-04  -2.15776898E-02
   8.50000011E-04  -2.17932053E-02
   8.99999985E-04  -2.20101401E-02
   9.50000016E-04  -2.22288370E-02
   1.00000005E-03  -2.24490259E-02
   1.04999996E-03  -2.26702634E-02
   1.09999999E-03  -2.28924956E-02
   1.15000003E-03  -2.31158994E-02
   1.20000006E-03  -2.33406201E-02
   1.24999997E-03  -2.35669129E-02
   1.30000000E-03  -2.37947162E-02
   1.35000004E-03  -2.40234006E-02
   1.39999995E-03  -2.42527481E-02
   1.44999998E-03  -2.44832933E-02
   1.50000001E-03  -2.47157607E-02
   1.55000004E-03  -2.49500964E-02
   1.59999996E-03  -2.51855887E-02
   1.64999999E-03  -2.54214872E-02
   1.70000002E-03  -2.56582107E-02
   1.75000005E-03  -2.58965753E-02
   1.79999997E-03  -2.61365436E-02
   1.85000000E-03  -2.63779070E-02
   1.90000003E-03  -2.66200379E-02
   1.94999995E-03  -2.68626120E-02
   2.00000009E-03  -2.71062087E-02
   2.05000001E-03  -2.73514502E-02
   2.09999993E-03  -2.75981091E-02
   2.15000007E-03  -2.78453492E-02
   2.19999999E-03  -2.80928109E-02
   2.24999990E-03  -2.83410568E-02
   2.30000005E-03  -2.85908785E-02
   2.34999997E-03  -2.88424175E-02
   2.40000011E-03  -2.90950332E-02
   2.45000003E-03  -2.93481853E-02
   2.49999994E-03  -2.96017360E-02
   2.55000009E-03  -2.98562031E-02
   2.60000001E-03  -3.01120467E-02
   2.64999992E-03  -3.03688962E-02
   2.70000007E-03  -3.06263920E-02
   2.74999999E-03  -3.08843721E-02
   2.79999990E-03  -3.11430711E-02