  -3.99999991E-02   0.00000000    
  -3.99499983E-02   0.00000000    
  -3.99000011E-02   0.00000000    
  -3.98500003E-02   0.00000000    
  -3.97999994E-02   7.91484099E-19
  -3.97499986E-02   9.66378566E-18
  -3.97000015E-02   6.08109967E-17
  -3.96500006E-02   2.61843613E-16
  -3.95999998E-02   8.64356994E-16
  -3.95499989E-02   2.32365596E-15
  -3.95000018E-02   5.27641514E-15
  -3.94500010E-02   1.03624003E-14
  -3.94000001E-02   1.78837810E-14
  -3.93499993E-02   2.74308350E-14
  -3.92999984E-02   3.77377132E-14
  -3.92500013E-02   4.70484789E-14
  -3.92000005E-02   5.40765112E-14
  -3.91499996E-02   5.92538849E-14
  -3.90999988E-02   6.55831251E-14
  -3.90500017E-02   7.83131088E-14
  -3.90000008E-02   1.03071143E-13
  -3.89500000E-02   1.42924843E-13
  -3.88999991E-02   1.95720976E-13
  -3.88499983E-02   2.53389811E-13
  -3.88000011E-02   3.04319016E-13
  -3.87500003E-02   3.38456287E-13
  -3.86999995E-02   3.53098139E-13
  -3.86499986E-02   3.56274716E-13
  -3.86000015E-02   3.65044529E-13
  -3.85500006E-02   3.98064313E-13
  -3.84999998E-02   4.64831732E-13
  -3.84499989E-02   5.56575836E-13
  -3.84000018E-02   6.44274944E-13
  -3.83500010E-02   6.86830909E-13
  -3.83000001E-02   6.47637326E-13
  -3.82499993E-02   5.12813533E-13
  -3.81999984E-02   3.02007985E-13
  -3.81500013E-02   6.47393245E-14
  -3.81000005E-02  -1.38601627E-13
  -3.80499996E-02  -2.64353589E-13
  -3.79999988E-02  -3.09706850E-13
  -3.79500017E-02  -3.21203784E-13
  -3.79000008E-02  -3.81399149E-13
  -3.78500000E-02  -5.77226851E-13
  -3.77999991E-02  -9.62947061E-13
  -3.77499983E-02  -1.53470964E-12
  -3.77000012E-02  -2.22997554E-12
  -3.76500003E-02  -2.95417835E-12
  -3.75999995E-02  -3.62383170E-12
  -3.75499986E-02  -4.20642644E-12
  -3.75000015E-02  -4.73784857E-12
  -3.74500006E-02  -5.30796067E-12
  -3.73999998E-02  -6.01971771E-12
  -3.73499990E-02  -6.93946766E-12
  -3.73000018E-02  -8.06001533E-12
  -3.72500010E-02  -9.29211482E-12
  -3.72000001E-02  -1.04875292E-11
  -3.71499993E-02  -1.14836734E-11
  -3.70999984E-02  -1.21521482E-11
  -3.70500013E-02  -1.24341622E-11
  -3.70000005E-02  -1.23535591E-11
  -3.69499996E-02  -1.20080473E-11
  -3.68999988E-02  -1.15453411E-11
  -3.68500017E-02  -1.11305644E-11
  -3.68000008E-02  -1.09069698E-11
  -3.67500000E-02  -1.09502589E-11
  -3.66999991E-02  -1.12221257E-11
  -3.66499983E-02  -1.15396789E-11
  -3.66000012E-02  -1.15852033E-11
  -3.65500003E-02  -1.09749137E-11
  -3.64999995E-02  -9.38188763E-12
  -3.64499986E-02  -6.67476968E-12
  -3.64000015E-02  -3.00797733E-12
  -3.63500006E-02   1.19965366E-12
  -3.62999998E-02   5.42268617E-12
  -3.62499990E-02   9.28229542E-12
  -3.62000018E-02   1.27877457E-11
  -3.61500010E-02   1.64308480E-11
  -3.61000001E-02   2.10369968E-11
  -3.60499993E-02   2.73815345E-11
  -3.59999985E-02   3.57126134E-11
  -3.59500013E-02   4.54144326E-11
  -3.59000005E-02   5.50341439E-11
  -3.58499996E-02   6.27599986E-11
  -3.57999988E-02   6.72200212E-11
  -3.57500017E-02   6.82674542E-11
  -3.57000008E-02   6.73436862E-11
  -3.56500000E-02   6.71304262E-11
  -3.55999991E-02   7.05016046E-11
  -3.55499983E-02   7.91456761E-11
  -3.55000012E-02   9.24781154E-11
  -3.54500003E-02   1.07448522E-10
  -3.53999995E-02   1.19518839E-10
  -3.53499986E-02   1.24552535E-10
  -3.53000015E-02   1.20843766E-10
  -3.52500007E-02   1.10298520E-10
  -3.51999998E-02   9.80248036E-11
  -3.51499990E-02   9.02539848E-11
  -3.51000018E-02   9.13397552E-11
  -3.50500010E-02   1.01173701E-10
  -3.50000001E-02   1.14379485E-10
  -3.49499993E-02   1.21992472E-10
  -3.48999985E-02   1.15213852E-10
  -3.48500013E-02   8.97295710E-11
  -3.48000005E-02   4.85558017E-11
  -3.47499996E-02   1.77222039E-12
  -3.46999988E-02  -3.72177844E-11
  -3.46500017E-02  -5.76036059E-11
  -3.46000008E-02  -5.66955129E-11
  -3.45500000E-02  -4.23065506E-11
  -3.44999991E-02  -3.03732560E-11
  -3.44499983E-02  -3.83032217E-11
  -3.44000012E-02  -7.66992997E-11
  -3.43500003E-02  -1.43273671E-10
  -3.42999995E-02  -2.22218022E-10
  -3.42499986E-02  -2.90072050E-10
  -3.42000015E-02  -3.26095873E-10
  -3.41500007E-02  -3.22681326E-10
  -3.40999998E-02  -2.90722085E-10
  -3.40499990E-02  -2.56652838E-10
  -3.40000018E-02  -2.51504595E-10
  -3.39500010E-02  -2.96262681E-10
  -3.39000002E-02  -3.90167731E-10
  -3.38499993E-02  -5.08013964E-10
  -3.37999985E-02  -6.08891604E-10
  -3.37500013E-02  -6.53575805E-10
  -3.37000005E-02  -6.23239682E-10
  -3.36499996E-02  -5.30644195E-10
  -3.35999988E-02  -4.17531593E-10
  -3.35500017E-02  -3.37863154E-10
  -3.35000008E-02  -3.33319788E-10
  -3.34500000E-02  -4.11950002E-10
  -3.33999991E-02  -5.40572809E-10
  -3.33499983E-02  -6.56121435E-10
  -3.33000012E-02  -6.92578883E-10
  -3.32500003E-02  -6.12290829E-10
  -3.31999995E-02  -4.27112928E-10
  -3.31499986E-02  -1.98151662E-10
  -3.31000015E-02  -1.19209920E-11
  -3.30500007E-02   5.81948309E-11
  -3.29999998E-02  -1.16879414E-11
  -3.29499990E-02  -1.79333839E-10
  -3.29000019E-02  -3.49487606E-10
  -3.28500010E-02  -4.13491408E-10
  -3.28000002E-02  -2.99248792E-10
  -3.27499993E-02  -8.81747453E-12
  -3.26999985E-02   3.75435766E-10
  -3.26500013E-02   7.22073734E-10
  -3.26000005E-02   9.07952546E-10
  -3.25499997E-02   8.76936912E-10
  -3.24999988E-02   6.72214007E-10
  -3.24500017E-02   4.24408730E-10
  -3.24000008E-02   2.97068287E-10
  -3.23500000E-02   4.11487122E-10
  -3.22999991E-02   7.84674437E-10
  -3.22499983E-02   1.31111266E-09
  -3.22000012E-02   1.80094661E-09
  -3.21500003E-02   2.06161133E-09
  -3.20999995E-02   1.98815164E-09
  -3.20499986E-02   1.62027780E-09
  -3.20000015E-02   1.13625909E-09
  -3.19500007E-02   7.81021192E-10
  -3.18999998E-02   7.56691043E-10
  -3.18499990E-02   1.12397514E-09
  -3.18000019E-02   1.76173109E-09
  -3.17500010E-02   2.40860598E-09
  -3.17000002E-02   2.77390066E-09
  -3.16499993E-02   2.67115841E-09
  -3.15999985E-02   2.11348961E-09
  -3.15500014E-02   1.32276001E-09
  -3.15000005E-02   6.41482145E-10
  -3.14499997E-02   3.81144477E-10
  -3.13999988E-02   6.73271938E-10
  -3.13500017E-02   1.39340361E-09
  -3.13000008E-02   2.19934071E-09
  -3.12500000E-02   2.67452127E-09
  -3.11999992E-02   2.51731946E-09
  -3.11500002E-02   1.69102554E-09
  -3.10999993E-02   4.61305522E-10
  -3.10500003E-02  -7.04780345E-10
  -3.09999995E-02  -1.34118550E-09
  -3.09500005E-02  -1.19952326E-09
  -3.08999997E-02  -3.79790976E-10
  -3.08500007E-02   6.91998958E-10
  -3.07999998E-02   1.43964574E-09
  -3.07500008E-02   1.39472978E-09
  -3.07000000E-02   4.22059859E-10
  -3.06499992E-02  -1.19479682E-09
  -3.06000002E-02  -2.85733415E-09
  -3.05499993E-02  -3.90967037E-09
  -3.05000003E-02  -3.94009048E-09
  -3.04499995E-02  -2.98891512E-09
  -3.04000005E-02  -1.55953495E-09
  -3.03499997E-02  -4.14393464E-10
  -3.03000007E-02  -2.36707515E-10
  -3.02499998E-02  -1.30655542E-09
  -3.02000009E-02  -3.34294081E-09
  -3.01500000E-02  -5.59600632E-09
  -3.00999992E-02  -7.16260873E-09
  -3.00500002E-02  -7.39296269E-09
  -2.99999993E-02  -6.20540908E-09
  -2.99500003E-02  -4.15763868E-09
  -2.98999995E-02  -2.22638619E-09
  -2.98500005E-02  -1.37994849E-09
  -2.97999997E-02  -2.12909046E-09
  -2.97500007E-02  -4.26307833E-09
  -2.96999998E-02  -6.90410085E-09
  -2.96500009E-02  -8.87370266E-09
  -2.96000000E-02  -9.21992616E-09
  -2.95499992E-02  -7.67060193E-09
  -2.95000002E-02  -4.79879558E-09
  -2.94499993E-02  -1.80729509E-09
  -2.94000003E-02  -9.90936760E-12
  -2.93499995E-02  -2.31925742E-10
  -2.93000005E-02  -2.40200215E-09
  -2.92499997E-02  -5.53451329E-09
  -2.92000007E-02  -8.13211010E-09
  -2.91499998E-02  -8.84596840E-09
  -2.91000009E-02  -7.10344938E-09
  -2.90500000E-02  -3.41230688E-09
  -2.89999992E-02   8.15871870E-10
  -2.89500002E-02   3.86704713E-09
  -2.88999993E-02   4.49634152E-09
  -2.88500004E-02   2.52360421E-09
  -2.87999995E-02  -1.03022324E-09
  -2.87500005E-02  -4.35223546E-09
  -2.86999997E-02  -5.63182700E-09
  -2.86500007E-02  -3.89435018E-09
  -2.85999998E-02   5.07118070E-10
  -2.85500009E-02   5.98508887E-09
  -2.85000000E-02   1.03824149E-08
  -2.84499992E-02   1.19315589E-08
  -2.84000002E-02   1.00826476E-08
  -2.83499993E-02   5.81400306E-09
  -2.83000004E-02   1.25768884E-09
  -2.82499995E-02  -1.22121768E-09
  -2.82000005E-02  -9.58571972E-11
  -2.81499997E-02   4.58413663E-09
  -2.81000007E-02   1.11408376E-08
  -2.80499998E-02   1.69582091E-08
  -2.80000009E-02   1.96325640E-08
  -2.79500000E-02   1.80780511E-08
  -2.78999992E-02   1.30795366E-08
  -2.78500002E-02   7.01528613E-09
  -2.77999993E-02   2.83910540E-09
  -2.77500004E-02   2.75423351E-09
  -2.76999995E-02   7.17124315E-09
  -2.76500005E-02   1.44384238E-08
  -2.75999997E-02   2.15015401E-08
  -2.75500007E-02   2.52322767E-08
  -2.74999999E-02   2.38483153E-08
  -2.74500009E-02   1.77814510E-08
  -2.74000000E-02   9.57474899E-09
  -2.73499992E-02   2.81473356E-09
  -2.73000002E-02   5.44706336E-10
  -2.72499993E-02   3.86009180E-09
  -2.72000004E-02   1.13324425E-08
  -2.71499995E-02   1.95577474E-08
  -2.71000005E-02   2.46247485E-08
  -2.70499997E-02   2.38721576E-08
  -2.70000007E-02   1.71471584E-08
  -2.69499999E-02   6.97330460E-09
  -2.69000009E-02  -2.49124055E-09
  -2.68500000E-02  -7.27889038E-09
  -2.67999992E-02  -5.42237100E-09
  -2.67500002E-02   2.07369233E-09
  -2.66999993E-02   1.15728245E-08
  -2.66500004E-02   1.83541857E-08
  -2.65999995E-02   1.87112033E-08
  -2.65500005E-02   1.16702292E-08
  -2.64999997E-02  -4.64383559E-10
  -2.64500007E-02  -1.30294922E-08
  -2.63999999E-02  -2.10242721E-08
  -2.63500009E-02  -2.13580194E-08
  -2.63000000E-02  -1.43149856E-08
  -2.62499992E-02  -3.54480600E-09
  -2.62000002E-02   5.47009238E-09
  -2.61499994E-02   7.83072629E-09
  -2.61000004E-02   1.45954537E-09
  -2.60499995E-02  -1.18584449E-08
  -2.60000005E-02  -2.71442087E-08
  -2.59499997E-02  -3.83601133E-08
  -2.59000007E-02  -4.10978664E-08
  -2.58499999E-02  -3.46231559E-08
  -2.58000009E-02  -2.23312249E-08
  -2.57500000E-02  -1.03532640E-08
  -2.56999992E-02  -4.88016161E-09
  -2.56500002E-02  -9.36823508E-09
  -2.55999994E-02  -2.28838992E-08
  -2.55500004E-02  -4.03717699E-08
  -2.54999995E-02  -5.47888632E-08
  -2.54500005E-02  -6.02038668E-08
  -2.53999997E-02  -5.44959136E-08
  -2.53500007E-02  -4.04238527E-08
  -2.52999999E-02  -2.45320049E-08
  -2.52500009E-02  -1.43166288E-08
  -2.52000000E-02  -1.48743480E-08
  -2.51499992E-02  -2.65259636E-08
  -2.51000002E-02  -4.45164474E-08
  -2.50499994E-02  -6.09912050E-08
  -2.50000004E-02  -6.84301042E-08
  -2.49499995E-02  -6.30388612E-08
  -2.49000005E-02  -4.65702996E-08
  -2.48499997E-02  -2.57077097E-08
  -2.48000007E-02  -9.21281096E-09
  -2.47499999E-02  -4.05244283E-09
  -2.47000009E-02  -1.22143335E-08
  -2.46500000E-02  -2.96638056E-08
  -2.45999992E-02  -4.79743925E-08
  -2.45500002E-02  -5.79792641E-08
  -2.44999994E-02  -5.38629656E-08
  -2.44500004E-02  -3.58688688E-08
  -2.43999995E-02  -1.03657971E-08
  -2.43500005E-02   1.28328876E-08
  -2.42999997E-02   2.47736125E-08
  -2.42500007E-02   2.14047606E-08
  -2.41999999E-02   5.53447865E-09
  -2.41500009E-02  -1.42346970E-08
  -2.41000000E-02  -2.72029475E-08
  -2.40499992E-02  -2.53182417E-08
  -2.40000002E-02  -6.87060409E-09
  -2.39499994E-02   2.25511716E-08
  -2.39000004E-02   5.23465360E-08
  -2.38499995E-02   7.14995494E-08
  -2.38000005E-02   7.34886711E-08
  -2.37499997E-02   5.93185803E-08
  -2.37000007E-02   3.72640372E-08
  -2.36499999E-02   1.93507699E-08
  -2.36000009E-02   1.60614508E-08
  -2.35500000E-02   3.15902504E-08
  -2.34999992E-02   6.17862383E-08
  -2.34500002E-02   9.57784891E-08
  -2.33999994E-02   1.20652800E-07
  -2.33500004E-02   1.27166359E-07
  -2.32999995E-02   1.13968532E-07
  -2.32500006E-02   8.83981102E-08
  -2.31999997E-02   6.34107735E-08
  -2.31500007E-02   5.19111296E-08
  -2.30999999E-02   6.09592945E-08
  -2.30500009E-02   8.84424978E-08
  -2.30000000E-02   1.23765119E-07
  -2.29499992E-02   1.52351816E-07
  -2.29000002E-02   1.62046248E-07
  -2.28499994E-02   1.48591027E-07
  -2.28000004E-02   1.17714272E-07
  -2.27499995E-02   8.28044051E-08
  -2.27000006E-02   5.91035416E-08
  -2.26499997E-02   5.69303680E-08
  -2.26000007E-02   7.69399051E-08
  -2.25499999E-02   1.09590459E-07
  -2.25000009E-02   1.39159255E-07
  -2.24500000E-02   1.50621176E-07
  -2.23999992E-02   1.36383406E-07
  -2.23500002E-02   9.98606851E-08
  -2.22999994E-02   5.42157608E-08
  -2.22500004E-02   1.67117271E-08
  -2.21999995E-02   1.09704756E-09
  -2.21500006E-02   1.13807372E-08
  -2.20999997E-02   3.98131057E-08
  -2.20500007E-02   7.00737317E-08
  -2.19999999E-02   8.43635846E-08
  -2.19500009E-02   7.13223542E-08
  -2.19000001E-02   3.12527249E-08
  -2.18499992E-02  -2.37440769E-08
  -2.18000002E-02  -7.48970379E-08
  -2.17499994E-02  -1.04984942E-07
  -2.17000004E-02  -1.06043046E-07
  -2.16499995E-02  -8.31019449E-08
  -2.16000006E-02  -5.22004591E-08
  -2.15499997E-02  -3.34348123E-08
  -2.15000007E-02  -4.20413002E-08
  -2.14499999E-02  -8.14542744E-08
  -2.14000009E-02  -1.41484080E-07
  -2.13500001E-02  -2.02539155E-07
  -2.12999992E-02  -2.44135720E-07
  -2.12500002E-02  -2.53985206E-07
  -2.11999994E-02  -2.33612397E-07
  -2.11500004E-02  -1.97922930E-07
  -2.10999995E-02  -1.68787864E-07
  -2.10500006E-02  -1.65386993E-07
  -2.09999997E-02  -1.95557277E-07
  -2.09500007E-02  -2.52029508E-07
  -2.08999999E-02  -3.15331590E-07
  -2.08500009E-02  -3.62194612E-07
  -2.08000001E-02  -3.75816342E-07
  -2.07499992E-02  -3.53435297E-07
  -2.07000002E-02  -3.07781676E-07
  -2.06499994E-02  -2.61638775E-07
  -2.06000004E-02  -2.37811818E-07
  -2.05499995E-02  -2.48896782E-07
  -2.05000006E-02  -2.91414977E-07
  -2.04499997E-02  -3.47014691E-07
  -2.04000007E-02  -3.90337448E-07
  -2.03499999E-02  -4.00160843E-07
  -2.03000009E-02  -3.68906029E-07
  -2.02500001E-02  -3.06236473E-07
  -2.01999992E-02  -2.35035941E-07
  -2.01500002E-02  -1.81424682E-07
  -2.00999994E-02  -1.63162824E-07
  -2.00500004E-02  -1.81586259E-07
  -1.99999996E-02  -2.20733455E-07
  -1.99500006E-02  -2.54173870E-07
  -1.98999997E-02  -2.56620979E-07
  -1.98500007E-02  -2.15228468E-07
  -1.97999999E-02  -1.35524957E-07
  -1.97500009E-02  -3.92529991E-08
  -1.97000001E-02   4.50541577E-08
  -1.96499992E-02   9.46703480E-08
  -1.96000002E-02   1.02878587E-07
  -1.95499994E-02   8.21884711E-08
  -1.95000004E-02   5.90249485E-08
  -1.94499996E-02   6.21246485E-08
  -1.94000006E-02   1.09717703E-07
  -1.93499997E-02   2.01190844E-07
  -1.93000007E-02   3.17014326E-07
  -1.92499999E-02   4.27086718E-07
  -1.92000009E-02   5.03899514E-07
  -1.91500001E-02   5.34721153E-07
  -1.90999992E-02   5.27359362E-07
  -1.90500002E-02   5.06846789E-07
  -1.89999994E-02   5.04403317E-07
  -1.89500004E-02   5.43492774E-07
  -1.88999996E-02   6.29150122E-07
  -1.88500006E-02   7.45377747E-07
  -1.87999997E-02   8.61876572E-07
  -1.87500007E-02   9.47229523E-07
  -1.86999999E-02   9.82746315E-07
  -1.86500009E-02   9.70808969E-07
  -1.86000001E-02   9.33931801E-07
  -1.85499992E-02   9.04841613E-07
  -1.85000002E-02   9.11887867E-07
  -1.84499994E-02   9.66226025E-07
  -1.84000004E-02   1.05649985E-06
  -1.83499996E-02   1.15347473E-06
  -1.83000006E-02   1.22267159E-06
  -1.82499997E-02   1.23946779E-06
  -1.82000007E-02   1.19997003E-06
  -1.81499999E-02   1.12277814E-06
  -1.81000009E-02   1.04076673E-06
  -1.80500001E-02   9.86441137E-07
  -1.79999992E-02   9.77318905E-07
  -1.79500002E-02   1.00784473E-06
  -1.78999994E-02   1.05149809E-06
  -1.78500004E-02   1.07224753E-06
  -1.77999996E-02   1.04034802E-06
  -1.77500006E-02   9.45492388E-07
  -1.76999997E-02   8.01440763E-07
  -1.76500008E-02   6.40001474E-07
  -1.75999999E-02   4.96948189E-07
  -1.75500009E-02   3.96058937E-07
  -1.75000001E-02   3.38364742E-07
  -1.74499992E-02   3.01419249E-07
  -1.74000002E-02   2.48990403E-07
  -1.73499994E-02   1.46943989E-07
  -1.73000004E-02  -2.16938982E-08
  -1.72499996E-02  -2.49184041E-07
  -1.72000006E-02  -5.06440472E-07
  -1.71499997E-02  -7.55883775E-07
  -1.71000008E-02  -9.68131189E-07
  -1.70499999E-02  -1.13513249E-06
  -1.70000009E-02  -1.27389842E-06
  -1.69500001E-02  -1.41911050E-06
  -1.68999992E-02  -1.60782668E-06
  -1.68500002E-02  -1.86303555E-06
  -1.67999994E-02  -2.18335413E-06
  -1.67500004E-02  -2.54346674E-06
  -1.66999996E-02  -2.90516778E-06
  -1.66500006E-02  -3.23416475E-06
  -1.65999997E-02  -3.51521749E-06
  -1.65500008E-02  -3.75888499E-06
  -1.64999999E-02  -3.99686814E-06
  -1.64500009E-02  -4.26795714E-06
  -1.64000001E-02  -4.60077308E-06
  -1.63499992E-02  -5.00098486E-06
  -1.63000003E-02  -5.44863042E-06
  -1.62499994E-02  -5.90676700E-06
  -1.62000004E-02  -6.33767877E-06
  -1.61499996E-02  -6.71945418E-06
  -1.61000006E-02  -7.05557795E-06
  -1.60499997E-02  -7.37329083E-06
  -1.60000008E-02  -7.71141276E-06
  -1.59499999E-02  -8.10301117E-06
  -1.59000009E-02  -8.56059523E-06
  -1.58500001E-02  -9.07034973E-06
  -1.57999992E-02  -9.59802583E-06
  -1.57500003E-02  -1.01038886E-05
  -1.56999994E-02  -1.05600893E-05
  -1.56500004E-02  -1.09628108E-05
  -1.55999996E-02  -1.13337928E-05
  -1.55499997E-02  -1.17105837E-05
  -1.54999997E-02  -1.21298281E-05
  -1.54499998E-02  -1.26109553E-05
  -1.53999999E-02  -1.31475008E-05
  -1.53500000E-02  -1.37098950E-05
  -1.53000001E-02  -1.42584922E-05
  -1.52500002E-02  -1.47610035E-05
  -1.52000003E-02  -1.52066732E-05
  -1.51500003E-02  -1.56109109E-05
  -1.51000004E-02  -1.60083855E-05
  -1.50499996E-02  -1.64376106E-05
  -1.49999997E-02  -1.69238574E-05
  -1.49499997E-02  -1.74679481E-05
  -1.48999998E-02  -1.80459247E-05
  -1.48499999E-02  -1.86196939E-05
  -1.48000000E-02  -1.91538184E-05
  -1.47500001E-02  -1.96311357E-05
  -1.47000002E-02  -2.00603245E-05
  -1.46500003E-02  -2.04720563E-05
  -1.46000003E-02  -2.09054560E-05
  -1.45500004E-02  -2.13909498E-05
  -1.44999996E-02  -2.19370522E-05
  -1.44499997E-02  -2.25268795E-05
  -1.43999998E-02  -2.31258964E-05
  -1.43499998E-02  -2.36974611E-05
  -1.42999999E-02  -2.42192182E-05
  -1.42500000E-02  -2.46930904E-05
  -1.42000001E-02  -2.51445726E-05
  -1.41500002E-02  -2.56116491E-05
  -1.41000003E-02  -2.61282294E-05
  -1.40500003E-02  -2.67095766E-05
  -1.40000004E-02  -2.73460373E-05
  -1.39499996E-02  -2.80076874E-05
  -1.38999997E-02  -2.86580052E-05
  -1.38499998E-02  -2.92703444E-05
  -1.37999998E-02  -2.98399846E-05
  -1.37499999E-02  -3.03863926E-05
  -1.37000000E-02  -3.09448915E-05
  -1.36500001E-02  -3.15514953E-05
  -1.36000002E-02  -3.22275446E-05
  -1.35500003E-02  -3.29708928E-05
  -1.35000004E-02  -3.37576494E-05
  -1.34500004E-02  -3.45534645E-05
  -1.33999996E-02  -3.53292708E-05
  -1.33499997E-02  -3.60745107E-05
  -1.32999998E-02  -3.68021574E-05
  -1.32499998E-02  -3.75433519E-05
  -1.31999999E-02  -3.83341176E-05
  -1.31500000E-02  -3.92000293E-05
  -1.31000001E-02  -4.01456127E-05
  -1.30500002E-02  -4.11531691E-05
  -1.30000003E-02  -4.21913719E-05
  -1.29500004E-02  -4.32297275E-05
  -1.29000004E-02  -4.42525052E-05
  -1.28499996E-02  -4.52660061E-05
  -1.27999997E-02  -4.62962198E-05
  -1.27499998E-02  -4.73777654E-05
  -1.26999998E-02  -4.85391392E-05
  -1.26499999E-02  -4.97909605E-05
  -1.26000000E-02  -5.11222497E-05
  -1.25500001E-02  -5.25063260E-05
  -1.25000002E-02  -5.39132052E-05
  -1.24500003E-02  -5.53234313E-05
  -1.24000004E-02  -5.67373099E-05
  -1.23500004E-02  -5.81749955E-05
  -1.22999996E-02  -5.96680547E-05
  -1.22499997E-02  -6.12461226E-05
  -1.21999998E-02  -6.29245915E-05
  -1.21499998E-02  -6.46988265E-05
  -1.20999999E-02  -6.65470070E-05
  -1.20500000E-02  -6.84404586E-05
  -1.20000001E-02  -7.03570477E-05
  -1.19500002E-02  -7.22912082E-05
  -1.19000003E-02  -7.42563279E-05
  -1.18500004E-02  -7.62793134E-05
  -1.18000004E-02  -7.83892028E-05
  -1.17499996E-02  -8.06046592E-05
  -1.16999997E-02  -8.29267592E-05
  -1.16499998E-02  -8.53395031E-05
  -1.15999999E-02  -8.78177088E-05
  -1.15499999E-02  -9.03388573E-05
  -1.15000000E-02  -9.28935769E-05
  -1.14500001E-02  -9.54901043E-05
  -1.14000002E-02  -9.81508201E-05
  -1.13500003E-02  -1.00903046E-04
  -1.13000004E-02  -1.03767547E-04
  -1.12500004E-02  -1.06750231E-04
  -1.11999996E-02  -1.09840403E-04
  -1.11499997E-02  -1.13016169E-04
  -1.10999998E-02  -1.16254814E-04
  -1.10499999E-02  -1.19543038E-04
  -1.09999999E-02  -1.22882993E-04
  -1.09500000E-02  -1.26291270E-04
  -1.09000001E-02  -1.29792053E-04
  -1.08500002E-02  -1.33407040E-04
  -1.08000003E-02  -1.37146562E-04
  -1.07500004E-02  -1.41006400E-04
  -1.07000005E-02  -1.44970501E-04
  -1.06499996E-02  -1.49019266E-04
  -1.05999997E-02  -1.53139248E-04
  -1.05499998E-02  -1.57329167E-04
  -1.04999999E-02  -1.61601085E-04
  -1.04499999E-02  -1.65976002E-04
  -1.04000000E-02  -1.70475323E-04
  -1.03500001E-02  -1.75112145E-04
  -1.03000002E-02  -1.79886512E-04
  -1.02500003E-02  -1.84787015E-04
  -1.02000004E-02  -1.89796221E-04
  -1.01500005E-02  -1.94899781E-04
  -1.00999996E-02  -2.00092865E-04
  -1.00499997E-02  -2.05382385E-04
  -9.99999978E-03  -2.10785161E-04
  -9.94999986E-03  -2.16320666E-04
  -9.89999995E-03  -2.22003931E-04
  -9.85000003E-03  -2.27840152E-04
  -9.80000012E-03  -2.33823492E-04
  -9.75000020E-03  -2.39941248E-04
  -9.70000029E-03  -2.46180978E-04
  -9.65000037E-03  -2.52537226E-04
  -9.60000046E-03  -2.59014458E-04
  -9.54999961E-03  -2.65626237E-04
  -9.49999969E-03  -2.72390374E-04
  -9.44999978E-03  -2.79323198E-04
  -9.39999986E-03  -2.86433991E-04
  -9.34999995E-03  -2.93722784E-04
  -9.30000003E-03  -3.01181804E-04
  -9.25000012E-03  -3.08800605E-04
  -9.20000020E-03  -3.16572667E-04
  -9.15000029E-03  -3.24498018E-04
  -9.10000037E-03  -3.32585012E-04
  -9.05000046E-03  -3.40847968E-04
  -8.99999961E-03  -3.49301903E-04
  -8.94999970E-03  -3.57957353E-04
  -8.89999978E-03  -3.66817636E-04
  -8.84999987E-03  -3.75879288E-04
  -8.79999995E-03  -3.85135470E-04
  -8.75000004E-03  -3.94580740E-04
  -8.70000012E-03  -4.04214748E-04
  -8.65000021E-03  -4.14043985E-04
  -8.60000029E-03  -4.24081052E-04
  -8.55000038E-03  -4.34340647E-04
  -8.50000046E-03  -4.44835576E-04
  -8.44999962E-03  -4.55573347E-04
  -8.39999970E-03  -4.66555910E-04
  -8.34999979E-03  -4.77781781E-04
  -8.29999987E-03  -4.89246566E-04
  -8.24999996E-03  -5.00947819E-04
  -8.20000004E-03  -5.12888655E-04
  -8.15000013E-03  -5.25078503E-04
  -8.10000021E-03  -5.37529646E-04
  -8.05000030E-03  -5.50254714E-04
  -8.00000038E-03  -5.63263719E-04
  -7.95000046E-03  -5.76561375E-04
  -7.89999962E-03  -5.90147625E-04
  -7.84999970E-03  -6.04020082E-04
  -7.79999979E-03  -6.18175545E-04
  -7.74999987E-03  -6.32613723E-04
  -7.69999996E-03  -6.47340203E-04
  -7.65000004E-03  -6.62366510E-04
  -7.60000013E-03  -6.77706383E-04
  -7.55000021E-03  -6.93371869E-04
  -7.49999983E-03  -7.09372980E-04
  -7.44999992E-03  -7.25715538E-04
  -7.40000000E-03  -7.42401171E-04
  -7.35000009E-03  -7.59427901E-04
  -7.30000017E-03  -7.76792003E-04
  -7.24999979E-03  -7.94495223E-04
  -7.19999988E-03  -8.12547281E-04
  -7.14999996E-03  -8.30961333E-04
  -7.10000005E-03  -8.49752396E-04
  -7.05000013E-03  -8.68933974E-04
  -7.00000022E-03  -8.88515264E-04
  -6.94999984E-03  -9.08499467E-04
  -6.89999992E-03  -9.28882684E-04
  -6.85000001E-03  -9.49660316E-04
  -6.80000009E-03  -9.70830617E-04
  -6.75000018E-03  -9.92398942E-04
  -6.69999979E-03  -1.01438002E-03
  -6.64999988E-03  -1.03679101E-03
  -6.59999996E-03  -1.05964835E-03
  -6.55000005E-03  -1.08296308E-03
  -6.50000013E-03  -1.10673858E-03
  -6.45000022E-03  -1.13097194E-03
  -6.39999984E-03  -1.15565851E-03
  -6.34999992E-03  -1.18079351E-03
  -6.30000001E-03  -1.20638206E-03
  -6.25000009E-03  -1.23243954E-03
  -6.20000018E-03  -1.25898456E-03
  -6.14999980E-03  -1.28603994E-03
  -6.09999988E-03  -1.31362316E-03
  -6.04999997E-03  -1.34173862E-03
  -6.00000005E-03  -1.37037924E-03
  -5.95000014E-03  -1.39953860E-03
  -5.90000022E-03  -1.42921600E-03
  -5.84999984E-03  -1.45941775E-03
  -5.79999993E-03  -1.49015617E-03
  -5.75000001E-03  -1.52145186E-03
  -5.70000010E-03  -1.55332708E-03
  -5.65000018E-03  -1.58579834E-03
  -5.59999980E-03  -1.61887484E-03
  -5.54999989E-03  -1.65255251E-03
  -5.49999997E-03  -1.68682227E-03
  -5.45000006E-03  -1.72167481E-03
  -5.40000014E-03  -1.75711361E-03
  -5.35000023E-03  -1.79315731E-03
  -5.29999984E-03  -1.82982872E-03
  -5.24999993E-03  -1.86715380E-03
  -5.20000001E-03  -1.90515583E-03
  -5.15000010E-03  -1.94384356E-03
  -5.10000018E-03  -1.98321068E-03
  -5.04999980E-03  -2.02324800E-03
  -4.99999989E-03  -2.06394866E-03
  -4.94999997E-03  -2.10531126E-03
  -4.90000006E-03  -2.14735046E-03
  -4.85000014E-03  -2.19009537E-03
  -4.80000023E-03  -2.23357813E-03
  -4.74999985E-03  -2.27782526E-03
  -4.69999993E-03  -2.32285075E-03
  -4.65000002E-03  -2.36865017E-03
  -4.60000010E-03  -2.41520535E-03
  -4.55000019E-03  -2.46250373E-03
  -4.49999981E-03  -2.51054252E-03
  -4.44999989E-03  -2.55932962E-03
  -4.39999998E-03  -2.60889228E-03
  -4.35000006E-03  -2.65926775E-03
  -4.30000015E-03  -2.71049002E-03
  -4.25000023E-03  -2.76258029E-03
  -4.19999985E-03  -2.81553739E-03
  -4.14999994E-03  -2.86934222E-03
  -4.10000002E-03  -2.92397127E-03
  -4.05000011E-03  -2.97940662E-03
  -4.00000019E-03  -3.03565315E-03
  -3.94999981E-03  -3.09274159E-03
  -3.89999989E-03  -3.15072201E-03
  -3.84999998E-03  -3.20963911E-03
  -3.80000006E-03  -3.26951942E-03
  -3.74999992E-03  -3.33036901E-03
  -3.70000000E-03  -3.39216436E-03
  -3.65000009E-03  -3.45486682E-03
  -3.59999994E-03  -3.51845124E-03
  -3.55000002E-03  -3.58292134E-03
  -3.50000011E-03  -3.64831020E-03
  -3.44999996E-03  -3.71466088E-03
  -3.40000005E-03  -3.78201762E-03
  -3.34999990E-03  -3.85040976E-03
  -3.29999998E-03  -3.91984545E-03
  -3.25000007E-03  -3.99031164E-03
  -3.19999992E-03  -4.06176317E-03
  -3.15000000E-03  -4.13417351E-03
  -3.10000009E-03  -4.20753472E-03
  -3.04999994E-03  -4.28185379E-03
  -3.00000003E-03  -4.35717590E-03
  -2.95000011E-03  -4.43355972E-03
  -2.89999996E-03  -4.51104390E-03
  -2.85000005E-03  -4.58965544E-03
  -2.79999990E-03  -4.66939388E-03
  -2.74999999E-03  -4.75020427E-03
  -2.70000007E-03  -4.83203540E-03
  -2.64999992E-03  -4.91485232E-03
  -2.60000001E-03  -4.99865413E-03
  -2.55000009E-03  -5.08348923E-03
  -2.49999994E-03  -5.16943214E-03
  -2.45000003E-03  -5.25655458E-03
  -2.40000011E-03  -5.34488820E-03
  -2.34999997E-03  -5.43441251E-03
  -2.30000005E-03  -5.52506605E-03
  -2.24999990E-03  -5.61676640E-03
  -2.19999999E-03  -5.70946746E-03
  -2.15000007E-03  -5.80317667E-03
  -2.09999993E-03  -5.89793269E-03
  -2.05000001E-03  -5.99380909E-03
  -2.00000009E-03  -6.09088317E-03
  -1.94999995E-03  -6.18920801E-03
  -1.90000003E-03  -6.28878642E-03
  -1.85000000E-03  -6.38954528E-03
  -1.79999997E-03  -6.49139239E-03
  -1.75000005E-03  -6.59426954E-03
  -1.70000002E-03  -6.69814507E-03
  -1.64999999E-03  -6.80304179E-03
  -1.59999996E-03  -6.90904912E-03
  -1.55000004E-03  -7.01625692E-03
  -1.50000001E-03  -7.12472992E-03
  -1.44999998E-03  -7.23449234E-03
  -1.39999995E-03  -7.34548317E-03
  -1.35000004E-03  -7.45759346E-03
  -1.30000000E-03  -7.57072493E-03
  -1.24999997E-03  -7.68481148E-03
  -1.20000006E-03  -7.79986940E-03
  -1.15000003E-03  -7.91597459E-03
  -1.09999999E-03  -8.03323928E-03
  -1.04999996E-03  -8.15179385E-03
  -1.00000005E-03  -8.27168208E-03
  -9.50000016E-04  -8.39283224E-03
  -8.99999985E-04  -8.51511490E-03
  -8.50000011E-04  -8.63837264E-03
  -7.99999980E-04  -8.76249280E-03
  -7.50000007E-04  -8.88747163E-03
  -6.99999975E-04  -9.01341252E-03
  -6.50000002E-04  -9.14047379E-03
  -6.00000028E-04  -9.26878303E-03
  -5.49999997E-04  -9.39840637E-03
  -5.00000024E-04  -9.52927396E-03
  -4.49999992E-04  -9.66122281E-03
  -3.99999990E-04  -9.79409833E-03
  -3.49999988E-04  -9.92777478E-03
  -3.00000014E-04  -1.00622009E-02
  -2.50000012E-04  -1.01974746E-02
  -1.99999995E-04  -1.03337839E-02
  -1.50000007E-04  -1.04712741E-02
  -9.99999975E-05  -1.06099937E-02
  -4.99999987E-05  -1.07498979E-02
   0.00000000      -1.08908257E-02
   4.99999987E-05  -1.10325441E-02
   9.99999975E-05  -1.11749377E-02
   1.50000007E-04  -1.13179656E-02
   1.99999995E-04  -1.14616957E-02
   2.50000012E-04  -1.16063012E-02
   3.00000014E-04  -1.17519433E-02
   3.49999988E-04  -1.18987085E-02
   3.99999990E-04  -1.20465253E-02
   4.49999992E-04  -1.21952128E-02
   5.00000024E-04  -1.23445746E-02
   5.49999997E-04  -1.24944737E-02
   6.00000028E-04  -1.26448441E-02
   6.50000002E-04  -1.27957221E-02
   6.99999975E-04  -1.29472315E-02
   7.50000007E-04  -1.30995298E-02
   7.99999980E-04  -1.32527724E-02
   8.50000011E-04  -1.34069808E-02
   8.99999985E-04  -1.35619696E-02
   9.50000016E-04  -1.37174632E-02
   1.00000005E-03  -1.38732418E-02
   1.04999996E-03  -1.40291965E-02
   1.09999999E-03  -1.41853178E-02
   1.15000003E-03  -1.43417455E-02
   1.20000006E-03  -1.44987088E-02
   1.24999997E-03  -1.46564180E-02
   1.30000000E-03  -1.48149161E-02
   1.35000004E-03  -1.49740074E-02
   1.39999995E-03  -1.51333688E-02
   1.44999998E-03  -1.52927246E-02
   1.50000001E-03  -1.54519239E-02
   1.55000004E-03  -1.56109557E-02
   1.59999996E-03  -1.57699604E-02
   1.64999999E-03  -1.59291495E-02
   1.70000002E-03  -1.60887465E-02
   1.75000005E-03  -1.62488017E-02
   1.79999997E-03  -1.64091289E-02
   1.85000000E-03  -1.65694170E-02
   1.90000003E-03  -1.67294070E-02
   1.94999995E-03  -1.68888886E-02
   2.00000009E-03  -1.70477685E-02
   2.05000001E-03  -1.72061715E-02
   2.09999993E-03  -1.73642989E-02
   2.15000007E-03  -1.75224058E-02
   2.19999999E-03  -1.76806096E-02
   2.24999990E-03  -1.78387947E-02
   2.30000005E-03  -1.79966949E-02
   2.34999997E-03  -1.81539040E-02
   2.40000011E-03  -1.83100831E-02
   2.45000003E-03  -1.84651036E-02
   2.49999994E-03  -1.86190549E-02
   2.55000009E-03  -1.87722053E-02
   2.60000001E-03  -1.89248156E-02
   2.64999992E-03  -1.90770626E-02
   2.70000007E-03  -1.92288850E-02
   2.74999999E-03  -1.93800423E-02
   2.79999990E-03  -1.95301455E-02