  -3.99999991E-02   0.00000000    
  -3.99499983E-02   0.00000000    
  -3.99000011E-02   0.00000000    
  -3.98500003E-02  -3.31610625E-15
  -3.97999994E-02  -2.73216440E-14
  -3.97499986E-02  -1.17544998E-13
  -3.97000015E-02  -3.50492096E-13
  -3.96500006E-02  -8.09116175E-13
  -3.95999998E-02  -1.53210062E-12
  -3.95499989E-02  -2.46563143E-12
  -3.95000018E-02  -3.45903384E-12
  -3.94500010E-02  -4.32577108E-12
  -3.94000001E-02  -4.94948613E-12
  -3.93499993E-02  -5.38201818E-12
  -3.92999984E-02  -5.87909105E-12
  -3.92500013E-02  -6.84642750E-12
  -3.92000005E-02  -8.70689371E-12
  -3.91499996E-02  -1.17345040E-11
  -3.90999988E-02  -1.59256098E-11
  -3.90500017E-02  -2.09771436E-11
  -3.90000008E-02  -2.64013447E-11
  -3.89500000E-02  -3.17352325E-11
  -3.88999991E-02  -3.67445310E-11
  -3.88499983E-02  -4.15228477E-11
  -3.88000011E-02  -4.64500348E-11
  -3.87500003E-02  -5.20487889E-11
  -3.86999995E-02  -5.88101928E-11
  -3.86499986E-02  -6.70407549E-11
  -3.86000015E-02  -7.67533120E-11
  -3.85500006E-02  -8.76147835E-11
  -3.84999998E-02  -9.89672025E-11
  -3.84499989E-02  -1.09928448E-10
  -3.84000018E-02  -1.19554616E-10
  -3.83500010E-02  -1.27033120E-10
  -3.83000001E-02  -1.31883129E-10
  -3.82499993E-02  -1.34136133E-10
  -3.81999984E-02  -1.34428454E-10
  -3.81500013E-02  -1.33895076E-10
  -3.81000005E-02  -1.33787509E-10
  -3.80499996E-02  -1.34879261E-10
  -3.79999988E-02  -1.36891498E-10
  -3.79500017E-02  -1.38231024E-10
  -3.79000008E-02  -1.36216205E-10
  -3.78500000E-02  -1.27746036E-10
  -3.77999991E-02  -1.10176437E-10
  -3.77499983E-02  -8.20865112E-11
  -3.77000012E-02  -4.36417742E-11
  -3.76500003E-02   3.63614737E-12
  -3.75999995E-02   5.76983045E-11
  -3.75499986E-02   1.17141769E-10
  -3.75000015E-02   1.82248452E-10
  -3.74500006E-02   2.55379079E-10
  -3.73999998E-02   3.40448392E-10
  -3.73499990E-02   4.41603865E-10
  -3.73000018E-02   5.61550528E-10
  -3.72500010E-02   7.00077052E-10
  -3.72000001E-02   8.53285387E-10
  -3.71499993E-02   1.01389941E-09
  -3.70999984E-02   1.17285126E-09
  -3.70500013E-02   1.32199918E-09
  -3.70000005E-02   1.45731294E-09
  -3.69499996E-02   1.58138036E-09
  -3.68999988E-02   1.70396874E-09
  -3.68500017E-02   1.83983917E-09
  -3.68000008E-02   2.00395900E-09
  -3.67500000E-02   2.20537033E-09
  -3.66999991E-02   2.44185849E-09
  -3.66499983E-02   2.69784817E-09
  -3.66000012E-02   2.94729396E-09
  -3.65500003E-02   3.16163318E-09
  -3.64999995E-02   3.32045791E-09
  -3.64499986E-02   3.42050477E-09
  -3.64000015E-02   3.47816842E-09
  -3.63500006E-02   3.52278851E-09
  -3.62999998E-02   3.58201313E-09
  -3.62499990E-02   3.66487241E-09
  -3.62000018E-02   3.75060161E-09
  -3.61500010E-02   3.79016507E-09
  -3.61000001E-02   3.72269060E-09
  -3.60499993E-02   3.50211304E-09
  -3.59999985E-02   3.12312864E-09
  -3.59500013E-02   2.63330802E-09
  -3.59000005E-02   2.12203477E-09
  -3.58499996E-02   1.68646652E-09
  -3.57999988E-02   1.38634426E-09
  -3.57500017E-02   1.20761123E-09
  -3.57000008E-02   1.05444220E-09
  -3.56500000E-02   7.78959341E-10
  -3.55999991E-02   2.41074105E-10
  -3.55499983E-02  -6.25174246E-10
  -3.55000012E-02  -1.76959214E-09
  -3.54500003E-02  -3.03239900E-09
  -3.53999995E-02  -4.20416679E-09
  -3.53499986E-02  -5.11874942E-09
  -3.53000015E-02  -5.73924508E-09
  -3.52500007E-02  -6.19377971E-09
  -3.51999998E-02  -6.73550771E-09
  -3.51499990E-02  -7.63437047E-09
  -3.51000018E-02  -9.04293174E-09
  -3.50500010E-02  -1.08978231E-08
  -3.50000001E-02  -1.29101050E-08
  -3.49499993E-02  -1.46624624E-08
  -3.48999985E-02  -1.57819553E-08
  -3.48500013E-02  -1.61162870E-08
  -3.48000005E-02  -1.58297819E-08
  -3.47499996E-02  -1.53623159E-08
  -3.46999988E-02  -1.52525441E-08
  -3.46500017E-02  -1.58921711E-08
  -3.46000008E-02  -1.73200281E-08
  -3.45500000E-02  -1.91595095E-08
  -3.44999991E-02  -2.07468567E-08
  -3.44499983E-02  -2.14116618E-08
  -3.44000012E-02  -2.07929389E-08
  -3.43500003E-02  -1.90432523E-08
  -3.42999995E-02  -1.68099454E-08
  -3.42499986E-02  -1.49766013E-08
  -3.42000015E-02  -1.42609258E-08
  -3.41500007E-02  -1.48451411E-08
  -3.40999998E-02  -1.62196390E-08
  -3.40499990E-02  -1.73393691E-08
  -3.40000018E-02  -1.70540329E-08
  -3.39500010E-02  -1.46378047E-08
  -3.39000002E-02  -1.01773603E-08
  -3.38499993E-02  -4.61852556E-09
  -3.37999985E-02   5.86602211E-10
  -3.37500013E-02   4.10610168E-09
  -3.37000005E-02   5.35931033E-09
  -3.36499996E-02   4.85448304E-09
  -3.35999988E-02   4.04447054E-09
  -3.35500017E-02   4.72187311E-09
  -3.35000008E-02   8.19543278E-09
  -3.34500000E-02   1.46165036E-08
  -3.33999991E-02   2.27890187E-08
  -3.33499983E-02   3.05992032E-08
  -3.33000012E-02   3.59205252E-08
  -3.32500003E-02   3.76106755E-08
  -3.31999995E-02   3.61380010E-08
  -3.31499986E-02   3.35076820E-08
  -3.31000015E-02   3.24587575E-08
  -3.30500007E-02   3.52439464E-08
  -3.29999998E-02   4.25280753E-08
  -3.29499990E-02   5.29313411E-08
  -3.29000019E-02   6.34858637E-08
  -3.28500010E-02   7.08682251E-08
  -3.28000002E-02   7.28953609E-08
  -3.27499993E-02   6.96058109E-08
  -3.26999985E-02   6.33876951E-08
  -3.26500013E-02   5.80190189E-08
  -3.26000005E-02   5.69853604E-08
  -3.25499997E-02   6.18077252E-08
  -3.24999988E-02   7.11650543E-08
  -3.24500017E-02   8.12836163E-08
  -3.24000008E-02   8.75073525E-08
  -3.23500000E-02   8.64038014E-08
  -3.22999991E-02   7.74609319E-08
  -3.22499983E-02   6.35508570E-08
  -3.22000012E-02   4.98516783E-08
  -3.21500003E-02   4.16158237E-08
  -3.20999995E-02   4.17401935E-08
  -3.20499986E-02   4.92547763E-08
  -3.20000015E-02   5.94975980E-08
  -3.19500007E-02   6.60127597E-08
  -3.18999998E-02   6.34080024E-08
  -3.18499990E-02   4.99095769E-08
  -3.18000019E-02   2.84087314E-08
  -3.17500010E-02   5.41478062E-09
  -3.17000002E-02  -1.17355432E-08
  -3.16499993E-02  -1.82297324E-08
  -3.15999985E-02  -1.41718983E-08
  -3.15500014E-02  -4.84342344E-09
  -3.15000005E-02   1.42580903E-09
  -3.14499997E-02  -3.05898018E-09
  -3.13999988E-02  -2.17280967E-08
  -3.13500017E-02  -5.18573984E-08
  -3.13000008E-02  -8.54013393E-08
  -3.12500000E-02  -1.12332309E-07
  -3.11999992E-02  -1.25096534E-07
  -3.11500002E-02  -1.22197406E-07
  -3.10999993E-02  -1.09202368E-07
  -3.10500003E-02  -9.65598446E-08
  -3.09999995E-02  -9.50492378E-08
  -3.09500005E-02  -1.10825709E-07
  -3.08999997E-02  -1.42318171E-07
  -3.08500007E-02  -1.80510384E-07
  -3.07999998E-02  -2.12659387E-07
  -3.07500008E-02  -2.27925057E-07
  -3.07000000E-02  -2.22420482E-07
  -3.06499992E-02  -2.01326912E-07
  -3.06000002E-02  -1.76943928E-07
  -3.05499993E-02  -1.63358223E-07
  -3.05000003E-02  -1.70007283E-07
  -3.04499995E-02  -1.97041075E-07
  -3.04000005E-02  -2.34708025E-07
  -3.03499997E-02  -2.67254819E-07
  -3.03000007E-02  -2.79780693E-07
  -3.02499998E-02  -2.65051682E-07
  -3.02000009E-02  -2.27150082E-07
  -3.01500000E-02  -1.80132247E-07
  -3.00999992E-02  -1.42068686E-07
  -3.00500002E-02  -1.26974854E-07
  -2.99999993E-02  -1.38227009E-07
  -2.99500003E-02  -1.66546812E-07
  -2.98999995E-02  -1.93687924E-07
  -2.98500005E-02  -2.00399299E-07
  -2.97999997E-02  -1.75215817E-07
  -2.97500007E-02  -1.20090903E-07
  -2.96999998E-02  -5.01513675E-08
  -2.96500009E-02   1.25777317E-08
  -2.96000000E-02   4.88815779E-08
  -2.95499992E-02   5.12151779E-08
  -2.95000002E-02   2.76321099E-08
  -2.94499993E-02  -1.22453891E-09
  -2.94000003E-02  -1.09988738E-08
  -2.93499995E-02   1.54274868E-08
  -2.93000005E-02   7.98104338E-08
  -2.92499997E-02   1.67057252E-07
  -2.92000007E-02   2.51325901E-07
  -2.91499998E-02   3.07240555E-07
  -2.91000009E-02   3.21326610E-07
  -2.90500000E-02   2.98474305E-07
  -2.89999992E-02   2.60301732E-07
  -2.89500002E-02   2.35850550E-07
  -2.88999993E-02   2.48553192E-07
  -2.88500004E-02   3.05255696E-07
  -2.87999995E-02   3.92365479E-07
  -2.87500005E-02   4.81145378E-07
  -2.86999997E-02   5.40094334E-07
  -2.86500007E-02   5.49057290E-07
  -2.85999998E-02   5.08724554E-07
  -2.85500009E-02   4.41040669E-07
  -2.85000000E-02   3.80006441E-07
  -2.84499992E-02   3.56698365E-07
  -2.84000002E-02   3.85085428E-07
  -2.83499993E-02   4.55093755E-07
  -2.83000004E-02   5.36308221E-07
  -2.82499995E-02   5.90998866E-07
  -2.82000005E-02   5.90892171E-07
  -2.81499997E-02   5.30224781E-07
  -2.81000007E-02   4.29050914E-07
  -2.80499998E-02   3.24986587E-07
  -2.80000009E-02   2.56748478E-07
  -2.79500000E-02   2.46668776E-07
  -2.78999992E-02   2.90063326E-07
  -2.78500002E-02   3.56485458E-07
  -2.77999993E-02   4.02682190E-07
  -2.77500004E-02   3.91774819E-07
  -2.76999995E-02   3.10199169E-07
  -2.76500005E-02   1.74684530E-07
  -2.75999997E-02   2.58114259E-08
  -2.75500007E-02  -8.93658125E-08
  -2.74999999E-02  -1.38136812E-07
  -2.74500009E-02  -1.17117949E-07
  -2.74000000E-02  -5.44810170E-08
  -2.73499992E-02   1.94693728E-09
  -2.73000002E-02   5.76362380E-09
  -2.72499993E-02  -6.69782310E-08
  -2.72000004E-02  -2.06260154E-07
  -2.71499995E-02  -3.71552687E-07
  -2.71000005E-02  -5.09097276E-07
  -2.70499997E-02  -5.75618344E-07
  -2.70000007E-02  -5.57969315E-07
  -2.69499999E-02  -4.79760104E-07
  -2.69000009E-02  -3.91630465E-07
  -2.68500000E-02  -3.49097320E-07
  -2.67999992E-02  -3.87602995E-07
  -2.67500002E-02  -5.05905462E-07
  -2.66999993E-02  -6.65499215E-07
  -2.66500004E-02  -8.06749256E-07
  -2.65999995E-02  -8.74927252E-07
  -2.65500005E-02  -8.44716396E-07
  -2.64999997E-02  -7.32148408E-07
  -2.64500007E-02  -5.88301759E-07
  -2.63999999E-02  -4.77140645E-07
  -2.63500009E-02  -4.47051519E-07
  -2.63000000E-02  -5.08698122E-07
  -2.62499992E-02  -6.29285239E-07
  -2.62000002E-02  -7.46203682E-07
  -2.61499994E-02  -7.94399568E-07
  -2.61000004E-02  -7.35518540E-07
  -2.60499995E-02  -5.75790693E-07
  -2.60000005E-02  -3.64365633E-07
  -2.59499997E-02  -1.72379686E-07
  -2.59000007E-02  -6.16851494E-08
  -2.58499999E-02  -5.70139456E-08
  -2.58000009E-02  -1.34125145E-07
  -2.57500000E-02  -2.29610350E-07
  -2.56999992E-02  -2.68457313E-07
  -2.56500002E-02  -1.97432783E-07
  -2.55999994E-02  -9.47757783E-09
  -2.55500004E-02   2.51996113E-07
  -2.54999995E-02   5.11256530E-07
  -2.54500005E-02   6.93208335E-07
  -2.53999997E-02   7.56720453E-07
  -2.53500007E-02   7.13421628E-07
  -2.52999999E-02   6.23252163E-07
  -2.52500009E-02   5.68283895E-07
  -2.52000000E-02   6.16078012E-07
  -2.51499992E-02   7.88758541E-07
  -2.51000002E-02   1.05175252E-06
  -2.50499994E-02   1.32763216E-06
  -2.50000004E-02   1.52937616E-06
  -2.49499995E-02   1.59857393E-06
  -2.49000005E-02   1.53160283E-06
  -2.48499997E-02   1.38185169E-06
  -2.48000007E-02   1.23654411E-06
  -2.47499999E-02   1.17803484E-06
  -2.47000009E-02   1.24657902E-06
  -2.46500000E-02   1.42122758E-06
  -2.45999992E-02   1.62770777E-06
  -2.45500002E-02   1.77024799E-06
  -2.44999994E-02   1.77355378E-06
  -2.44500004E-02   1.61636262E-06
  -2.43999995E-02   1.34143625E-06
  -2.43500005E-02   1.03711898E-06
  -2.42999997E-02   7.98213421E-07
  -2.42500007E-02   6.83294843E-07
  -2.41999999E-02   6.87476756E-07
  -2.41500009E-02   7.43067062E-07
  -2.41000000E-02   7.48307116E-07
  -2.40499992E-02   6.11840335E-07
  -2.40000002E-02   2.93327531E-07
  -2.39499994E-02  -1.77976688E-07
  -2.39000004E-02  -7.15329520E-07
  -2.38499995E-02  -1.21238168E-06
  -2.38000005E-02  -1.59033607E-06
  -2.37499997E-02  -1.83349403E-06
  -2.37000007E-02  -1.99717101E-06
  -2.36499999E-02  -2.18403284E-06
  -2.36000009E-02  -2.49894720E-06
  -2.35500000E-02  -3.00217698E-06
  -2.34999992E-02  -3.68177416E-06
  -2.34500002E-02  -4.45777005E-06
  -2.33999994E-02  -5.21672928E-06
  -2.33500004E-02  -5.86169745E-06
  -2.32999995E-02  -6.35546030E-06
  -2.32500006E-02  -6.73773729E-06
  -2.31999997E-02  -7.10828363E-06
  -2.31500007E-02  -7.58297847E-06
  -2.30999999E-02  -8.24212202E-06
  -2.30500009E-02  -9.09388291E-06
  -2.30000000E-02  -1.00693787E-05
  -2.29499992E-02  -1.10519622E-05
  -2.29000002E-02  -1.19280849E-05
  -2.28499994E-02  -1.26373252E-05
  -2.28000004E-02  -1.31992892E-05
  -2.27499995E-02  -1.37051265E-05
  -2.27000006E-02  -1.42770741E-05
  -2.26499997E-02  -1.50137257E-05
  -2.26000007E-02  -1.59452629E-05
  -2.25499999E-02  -1.70187432E-05
  -2.25000009E-02  -1.81202959E-05
  -2.24500000E-02  -1.91247545E-05
  -2.23999992E-02  -1.99508486E-05
  -2.23500002E-02  -2.05974193E-05
  -2.22999994E-02  -2.11443312E-05
  -2.22500004E-02  -2.17173438E-05
  -2.21999995E-02  -2.24322393E-05
  -2.21500006E-02  -2.33428691E-05
  -2.20999997E-02  -2.44163366E-05
  -2.20500007E-02  -2.55465930E-05
  -2.19999999E-02  -2.66007282E-05
  -2.19500009E-02  -2.74775593E-05
  -2.19000001E-02  -2.81525572E-05
  -2.18499992E-02  -2.86889972E-05
  -2.18000002E-02  -2.92100867E-05
  -2.17499994E-02  -2.98443174E-05
  -2.17000004E-02  -3.06680522E-05
  -2.16499995E-02  -3.16709848E-05
  -2.16000006E-02  -3.27600501E-05
  -2.15499997E-02  -3.38002901E-05
  -2.15000007E-02  -3.46745910E-05
  -2.14499999E-02  -3.53359683E-05
  -2.14000009E-02  -3.58291072E-05
  -2.13500001E-02  -3.62712672E-05
  -2.12999992E-02  -3.68008841E-05
  -2.12500002E-02  -3.75166965E-05
  -2.11999994E-02  -3.84341874E-05
  -2.11500004E-02  -3.94788767E-05
  -2.10999995E-02  -4.05197206E-05
  -2.10500006E-02  -4.14276765E-05
  -2.09999997E-02  -4.21335353E-05
  -2.09500007E-02  -4.26593469E-05
  -2.08999999E-02  -4.31093795E-05
  -2.08500009E-02  -4.36244227E-05
  -2.08000001E-02  -4.43198769E-05
  -2.07499992E-02  -4.52351196E-05
  -2.07000002E-02  -4.63165925E-05
  -2.06499994E-02  -4.74422632E-05
  -2.06000004E-02  -4.84766460E-05
  -2.05499995E-02  -4.93320513E-05
  -2.05000006E-02  -5.00086462E-05
  -2.04499997E-02  -5.05955395E-05
  -2.04000007E-02  -5.12325241E-05
  -2.03499999E-02  -5.20492613E-05
  -2.03000009E-02  -5.31090518E-05
  -2.02500001E-02  -5.43821116E-05
  -2.01999992E-02  -5.57602034E-05
  -2.01500002E-02  -5.71060009E-05
  -2.00999994E-02  -5.83152687E-05
  -2.00500004E-02  -5.93641817E-05
  -1.99999996E-02  -6.03206972E-05
  -1.99500006E-02  -6.13151715E-05
  -1.98999997E-02  -6.24833410E-05
  -1.98500007E-02  -6.39071295E-05
  -1.97999999E-02  -6.55793629E-05
  -1.97500009E-02  -6.74082330E-05
  -1.97000001E-02  -6.92593749E-05
  -1.96499992E-02  -7.10165696E-05
  -1.96000002E-02  -7.26342769E-05
  -1.95499994E-02  -7.41585536E-05
  -1.95000004E-02  -7.57072921E-05
  -1.94499996E-02  -7.74187502E-05
  -1.94000006E-02  -7.93914223E-05
  -1.93499997E-02  -8.16417305E-05
  -1.93000007E-02  -8.40984430E-05
  -1.92499999E-02  -8.66358314E-05
  -1.92000009E-02  -8.91305463E-05
  -1.91500001E-02  -9.15169076E-05
  -1.90999992E-02  -9.38158628E-05
  -1.90500002E-02  -9.61256155E-05
  -1.89999994E-02  -9.85779407E-05
  -1.89500004E-02  -1.01279751E-04
  -1.88999996E-02  -1.04266452E-04
  -1.88500006E-02  -1.07487271E-04
  -1.87999997E-02  -1.10828973E-04
  -1.87500007E-02  -1.14167204E-04
  -1.86999999E-02  -1.17421601E-04
  -1.86500009E-02  -1.20591270E-04
  -1.86000001E-02  -1.23754682E-04
  -1.85499992E-02  -1.27034247E-04
  -1.85000002E-02  -1.30542234E-04
  -1.84499994E-02  -1.34332047E-04
  -1.84000004E-02  -1.38375719E-04
  -1.83499996E-02  -1.42577890E-04
  -1.83000006E-02  -1.46819453E-04
  -1.82499997E-02  -1.51011118E-04
  -1.82000007E-02  -1.55132511E-04
  -1.81499999E-02  -1.59240139E-04
  -1.81000009E-02  -1.63441757E-04
  -1.80500001E-02  -1.67848120E-04
  -1.79999992E-02  -1.72524436E-04
  -1.79500002E-02  -1.77462542E-04
  -1.78999994E-02  -1.82586082E-04
  -1.78500004E-02  -1.87785772E-04
  -1.77999996E-02  -1.92968524E-04
  -1.77500006E-02  -1.98098700E-04
  -1.76999997E-02  -2.03213174E-04
  -1.76500008E-02  -2.08404861E-04
  -1.75999999E-02  -2.13781415E-04
  -1.75500009E-02  -2.19418594E-04
  -1.75000001E-02  -2.25329233E-04
  -1.74499992E-02  -2.31460566E-04
  -1.74000002E-02  -2.37720160E-04
  -1.73499994E-02  -2.44019364E-04
  -1.73000004E-02  -2.50313082E-04
  -1.72499996E-02  -2.56619358E-04
  -1.72000006E-02  -2.63012073E-04
  -1.71499997E-02  -2.69587559E-04
  -1.71000008E-02  -2.76422623E-04
  -1.70499999E-02  -2.83543457E-04
  -1.70000009E-02  -2.90916592E-04
  -1.69500001E-02  -2.98466563E-04
  -1.68999992E-02  -3.06112168E-04
  -1.68500002E-02  -3.13804398E-04
  -1.67999994E-02  -3.21547210E-04
  -1.67500004E-02  -3.29396396E-04
  -1.66999996E-02  -3.37436504E-04
  -1.66500006E-02  -3.45744600E-04
  -1.65999997E-02  -3.54359276E-04
  -1.65500008E-02  -3.63267813E-04
  -1.64999999E-02  -3.72416660E-04
  -1.64500009E-02  -3.81739170E-04
  -1.64000001E-02  -3.91188631E-04
  -1.63499992E-02  -4.00759338E-04
  -1.63000003E-02  -4.10490378E-04
  -1.62499994E-02  -4.20449593E-04
  -1.62000004E-02  -4.30703629E-04
  -1.61499996E-02  -4.41292766E-04
  -1.61000006E-02  -4.52217879E-04
  -1.60499997E-02  -4.63442615E-04
  -1.60000008E-02  -4.74914094E-04
  -1.59499999E-02  -4.86589706E-04
  -1.59000009E-02  -4.98456997E-04
  -1.58500001E-02  -5.10540383E-04
  -1.57999992E-02  -5.22891758E-04
  -1.57500003E-02  -5.35569794E-04
  -1.56999994E-02  -5.48617623E-04
  -1.56500004E-02  -5.62048866E-04
  -1.55999996E-02  -5.75846934E-04
  -1.55499997E-02  -5.89977659E-04
  -1.54999997E-02  -6.04408677E-04
  -1.54499998E-02  -6.19126658E-04
  -1.53999999E-02  -6.34142722E-04
  -1.53500000E-02  -6.49489113E-04
  -1.53000001E-02  -6.65207743E-04
  -1.52500002E-02  -6.81332720E-04
  -1.52000003E-02  -6.97879470E-04
  -1.51500003E-02  -7.14843161E-04
  -1.51000004E-02  -7.32205750E-04
  -1.50499996E-02  -7.49946514E-04
  -1.49999997E-02  -7.68054335E-04
  -1.49499997E-02  -7.86531949E-04
  -1.48999998E-02  -8.05395423E-04
  -1.48499999E-02  -8.24669376E-04
  -1.48000000E-02  -8.44377093E-04
  -1.47500001E-02  -8.64534755E-04
  -1.47000002E-02  -8.85151094E-04
  -1.46500003E-02  -9.06227855E-04
  -1.46000003E-02  -9.27760499E-04
  -1.45500004E-02  -9.49746580E-04
  -1.44999996E-02  -9.72185575E-04
  -1.44499997E-02  -9.95079055E-04
  -1.43999998E-02  -1.01843313E-03
  -1.43499998E-02  -1.04225485E-03
  -1.42999999E-02  -1.06655352E-03
  -1.42500000E-02  -1.09133986E-03
  -1.42000001E-02  -1.11662538E-03
  -1.41500002E-02  -1.14242290E-03
  -1.41000003E-02  -1.16873987E-03
  -1.40500003E-02  -1.19557662E-03
  -1.40000004E-02  -1.22292584E-03
  -1.39499996E-02  -1.25077658E-03
  -1.38999997E-02  -1.27911917E-03
  -1.38499998E-02  -1.30795606E-03
  -1.37999998E-02  -1.33730273E-03
  -1.37499999E-02  -1.36718538E-03
  -1.37000000E-02  -1.39763765E-03
  -1.36500001E-02  -1.42868503E-03
  -1.36000002E-02  -1.46033382E-03
  -1.35500003E-02  -1.49256922E-03
  -1.35000004E-02  -1.52536598E-03
  -1.34500004E-02  -1.55869953E-03
  -1.33999996E-02  -1.59255893E-03
  -1.33499997E-02  -1.62695860E-03
  -1.32999998E-02  -1.66193570E-03
  -1.32499998E-02  -1.69753842E-03
  -1.31999999E-02  -1.73380668E-03
  -1.31500000E-02  -1.77075365E-03
  -1.31000001E-02  -1.80836429E-03
  -1.30500002E-02  -1.84660358E-03
  -1.30000003E-02  -1.88542902E-03
  -1.29500004E-02  -1.92481559E-03
  -1.29000004E-02  -1.96477538E-03
  -1.28499996E-02  -2.00535473E-03
  -1.27999997E-02  -2.04661884E-03
  -1.27499998E-02  -2.08863127E-03
  -1.26999998E-02  -2.13142950E-03
  -1.26499999E-02  -2.17500469E-03
  -1.26000000E-02  -2.21931376E-03
  -1.25500001E-02  -2.26430106E-03
  -1.25000002E-02  -2.30992190E-03
  -1.24500003E-02  -2.35617417E-03
  -1.24000004E-02  -2.40310538E-03
  -1.23500004E-02  -2.45078979E-03
  -1.22999996E-02  -2.49930192E-03
  -1.22499997E-02  -2.54869042E-03
  -1.21999998E-02  -2.59895576E-03
  -1.21499998E-02  -2.65004789E-03
  -1.20999999E-02  -2.70189159E-03
  -1.20500000E-02  -2.75443122E-03
  -1.20000001E-02  -2.80765514E-03
  -1.19500002E-02  -2.86160992E-03
  -1.19000003E-02  -2.91639008E-03
  -1.18500004E-02  -2.97210598E-03
  -1.18000004E-02  -3.02883540E-03
  -1.17499996E-02  -3.08658206E-03
  -1.16999997E-02  -3.14529147E-03
  -1.16499998E-02  -3.20487306E-03
  -1.15999999E-02  -3.26523348E-03
  -1.15499999E-02  -3.32633592E-03
  -1.15000000E-02  -3.38822138E-03
  -1.14500001E-02  -3.45098902E-03
  -1.14000002E-02  -3.51475412E-03
  -1.13500003E-02  -3.57961073E-03
  -1.13000004E-02  -3.64558608E-03
  -1.12500004E-02  -3.71262454E-03
  -1.11999996E-02  -3.78062483E-03
  -1.11499997E-02  -3.84948985E-03
  -1.10999998E-02  -3.91917489E-03
  -1.10499999E-02  -3.98973003E-03
  -1.09999999E-02  -4.06127749E-03
  -1.09500000E-02  -4.13394207E-03
  -1.09000001E-02  -4.20781458E-03
  -1.08500002E-02  -4.28291829E-03
  -1.08000003E-02  -4.35918989E-03
  -1.07500004E-02  -4.43651015E-03
  -1.07000005E-02  -4.51475894E-03
  -1.06499996E-02  -4.59387386E-03
  -1.05999997E-02  -4.67387773E-03
  -1.05499998E-02  -4.75488044E-03
  -1.04999999E-02  -4.83703427E-03
  -1.04499999E-02  -4.92045842E-03
  -1.04000000E-02  -5.00519853E-03
  -1.03500001E-02  -5.09120617E-03
  -1.03000002E-02  -5.17835049E-03
  -1.02500003E-02  -5.26649738E-03
  -1.02000004E-02  -5.35556488E-03
  -1.01500005E-02  -5.44556929E-03
  -1.00999996E-02  -5.53662842E-03
  -1.00499997E-02  -5.62890247E-03
  -9.99999978E-03  -5.72252367E-03
  -9.94999986E-03  -5.81754325E-03
  -9.89999995E-03  -5.91390301E-03
  -9.85000003E-03  -6.01145858E-03
  -9.80000012E-03  -6.11005072E-03
  -9.75000020E-03  -6.20957790E-03
  -9.70000029E-03  -6.31004060E-03
  -9.65000037E-03  -6.41153893E-03
  -9.60000046E-03  -6.51424285E-03
  -9.54999961E-03  -6.61831209E-03
  -9.49999969E-03  -6.72380021E-03
  -9.44999978E-03  -6.83063548E-03
  -9.39999986E-03  -6.93866145E-03
  -9.34999995E-03  -7.04771280E-03
  -9.30000003E-03  -7.15766195E-03
  -9.25000012E-03  -7.26848794E-03
  -9.20000020E-03  -7.38033326E-03
  -9.15000029E-03  -7.49341119E-03
  -9.10000037E-03  -7.60789774E-03
  -9.05000046E-03  -7.72387208E-03
  -8.99999961E-03  -7.84127787E-03
  -8.94999970E-03  -7.95992184E-03
  -8.89999978E-03  -8.07957910E-03
  -8.84999987E-03  -8.20009410E-03
  -8.79999995E-03  -8.32145289E-03
  -8.75000004E-03  -8.44378863E-03
  -8.70000012E-03  -8.56730901E-03
  -8.65000021E-03  -8.69221706E-03
  -8.60000029E-03  -8.81858170E-03
  -8.55000038E-03  -8.94632004E-03
  -8.50000046E-03  -9.07523744E-03
  -8.44999962E-03  -9.20507591E-03
  -8.39999970E-03  -9.33563337E-03
  -8.34999979E-03  -9.46687814E-03
  -8.29999987E-03  -9.59893595E-03
  -8.24999996E-03  -9.73204430E-03
  -8.20000004E-03  -9.86645557E-03
  -8.15000013E-03  -1.00022871E-02
  -8.10000021E-03  -1.01394868E-02
  -8.05000030E-03  -1.02778310E-02
  -8.00000038E-03  -1.04170451E-02
  -7.95000046E-03  -1.05568971E-02
  -7.89999962E-03  -1.06973117E-02
  -7.84999970E-03  -1.08384397E-02
  -7.79999979E-03  -1.09805446E-02
  -7.74999987E-03  -1.11238705E-02
  -7.69999996E-03  -1.12685524E-02
  -7.65000004E-03  -1.14145298E-02
  -7.60000013E-03  -1.15615074E-02
  -7.55000021E-03  -1.17091024E-02
  -7.49999983E-03  -1.18570458E-02
  -7.44999992E-03  -1.20052472E-02
  -7.40000000E-03  -1.21538499E-02
  -7.35000009E-03  -1.23031419E-02
  -7.30000017E-03  -1.24534201E-02
  -7.24999979E-03  -1.26048606E-02
  -7.19999988E-03  -1.27573842E-02
  -7.14999996E-03  -1.29107125E-02
  -7.10000005E-03  -1.30644422E-02
  -7.05000013E-03  -1.32182231E-02
  -7.00000022E-03  -1.33719286E-02
  -6.94999984E-03  -1.35257002E-02
  -6.89999992E-03  -1.36798657E-02
  -6.85000001E-03  -1.38347680E-02
  -6.80000009E-03  -1.39905876E-02
  -6.75000018E-03  -1.41472453E-02
  -6.69999979E-03  -1.43044582E-02
  -6.64999988E-03  -1.44617911E-02
  -6.59999996E-03  -1.46188429E-02
  -6.55000005E-03  -1.47754066E-02
  -6.50000013E-03  -1.49315540E-02
  -6.45000022E-03  -1.50875812E-02
  -6.39999984E-03  -1.52438283E-02
  -6.34999992E-03  -1.54005475E-02
  -6.30000001E-03  -1.55577827E-02
  -6.25000009E-03  -1.57152433E-02
  -6.20000018E-03  -1.58724394E-02
  -6.14999980E-03  -1.60288624E-02
  -6.09999988E-03  -1.61841474E-02
  -6.04999997E-03  -1.63383409E-02
  -6.00000005E-03  -1.64917521E-02
  -5.95000014E-03  -1.66448299E-02
  -5.90000022E-03  -1.67979375E-02
  -5.84999984E-03  -1.69510879E-02
  -5.79999993E-03  -1.71040539E-02
  -5.75000001E-03  -1.72563381E-02
  -5.70000010E-03  -1.74073130E-02
  -5.65000018E-03  -1.75565649E-02
  -5.59999980E-03  -1.77039951E-02
  -5.54999989E-03  -1.78498197E-02
  -5.49999997E-03  -1.79945398E-02
  -5.45000006E-03  -1.81386173E-02
  -5.40000014E-03  -1.82822403E-02
  -5.35000023E-03  -1.84251964E-02
  -5.29999984E-03  -1.85669009E-02
  -5.24999993E-03  -1.87066291E-02
  -5.20000001E-03  -1.88438036E-02
  -5.15000010E-03  -1.89782847E-02
  -5.10000018E-03  -1.91102494E-02
  -5.04999980E-03  -1.92401037E-02
  -4.99999989E-03  -1.93684157E-02
  -4.94999997E-03  -1.94954835E-02
  -4.90000006E-03  -1.96212027E-02
  -4.85000014E-03  -1.97450835E-02
  -4.80000023E-03  -1.98663268E-02
  -4.74999985E-03  -1.99841782E-02
  -4.69999993E-03  -2.00983230E-02
  -4.65000002E-03  -2.02089082E-02
  -4.60000010E-03  -2.03163829E-02
  -4.55000019E-03  -2.04213690E-02
  -4.49999981E-03  -2.05242820E-02
  -4.44999989E-03  -2.06250343E-02
  -4.39999998E-03  -2.07230728E-02
  -4.35000006E-03  -2.08176039E-02
  -4.30000015E-03  -2.09078435E-02
  -4.25000023E-03  -2.09933463E-02
  -4.19999985E-03  -2.10741535E-02
  -4.14999994E-03  -2.11506784E-02
  -4.10000002E-03  -2.12235432E-02
  -4.05000011E-03  -2.12932434E-02
  -4.00000019E-03  -2.13598497E-02
  -3.94999981E-03  -2.14229487E-02
  -3.89999989E-03  -2.14816723E-02
  -3.84999998E-03  -2.15350669E-02
  -3.80000006E-03  -2.15824228E-02
  -3.74999992E-03  -2.16236059E-02
  -3.70000000E-03  -2.16590967E-02
  -3.65000009E-03  -2.16896124E-02
  -3.59999994E-03  -2.17157397E-02
  -3.55000002E-03  -2.17377730E-02
  -3.50000011E-03  -2.17553638E-02
  -3.44999996E-03  -2.17674971E-02
  -3.40000005E-03  -2.17731129E-02
  -3.34999990E-03  -2.17715111E-02
  -3.29999998E-03  -2.17624232E-02
  -3.25000007E-03  -2.17461362E-02
  -3.19999992E-03  -2.17234232E-02
  -3.15000000E-03  -2.16949712E-02
  -3.10000009E-03  -2.16610674E-02
  -3.04999994E-03  -2.16214824E-02
  -3.00000003E-03  -2.15753894E-02
  -2.95000011E-03  -2.15216577E-02
  -2.89999996E-03  -2.14593150E-02
  -2.85000005E-03  -2.13879012E-02
  -2.79999990E-03  -2.13075709E-02
  -2.74999999E-03  -2.12190077E-02
  -2.70000007E-03  -2.11231504E-02
  -2.64999992E-03  -2.10205130E-02
  -2.60000001E-03  -2.09108200E-02
  -2.55000009E-03  -2.07933057E-02
  -2.49999994E-03  -2.06667334E-02
  -2.45000003E-03  -2.05300115E-02
  -2.40000011E-03  -2.03827284E-02
  -2.34999997E-03  -2.02248804E-02
  -2.30000005E-03  -2.00570244E-02
  -2.24999990E-03  -1.98799614E-02
  -2.19999999E-03  -1.96943190E-02
  -2.15000007E-03  -1.95003357E-02
  -2.09999993E-03  -1.92974303E-02
  -2.05000001E-03  -1.90842915E-02
  -2.00000009E-03  -1.88595764E-02
  -1.94999995E-03  -1.86224692E-02
  -1.90000003E-03  -1.83727816E-02
  -1.85000000E-03  -1.81109719E-02
  -1.79999997E-03  -1.78380739E-02
  -1.75000005E-03  -1.75550915E-02
  -1.70000002E-03  -1.72622502E-02
  -1.64999999E-03  -1.69589184E-02
  -1.59999996E-03  -1.66438259E-02
  -1.55000004E-03  -1.63154993E-02
  -1.50000001E-03  -1.59728173E-02
  -1.44999998E-03  -1.56155229E-02
  -1.39999995E-03  -1.52441319E-02
  -1.35000004E-03  -1.48595376E-02
  -1.30000000E-03  -1.44628920E-02
  -1.24999997E-03  -1.40547398E-02
  -1.20000006E-03  -1.36346761E-02
  -1.15000003E-03  -1.32015506E-02
  -1.09999999E-03  -1.27537539E-02
  -1.04999996E-03  -1.22898789E-02
  -1.00000005E-03  -1.18094049E-02
  -9.50000016E-04  -1.13127381E-02
  -8.99999985E-04  -1.08008990E-02
  -8.50000011E-04  -1.02750817E-02
  -7.99999980E-04  -9.73608438E-03
  -7.50000007E-04  -9.18375608E-03
  -6.99999975E-04  -8.61681439E-03
  -6.50000002E-04  -8.03346280E-03
  -6.00000028E-04  -7.43226195E-03
  -5.49999997E-04  -6.81245700E-03
  -5.00000024E-04  -6.17415924E-03
  -4.49999992E-04  -5.51842432E-03
  -3.99999990E-04  -4.84655844E-03
  -3.49999988E-04  -4.15959349E-03
  -3.00000014E-04  -3.45761911E-03
  -2.50000012E-04  -2.73961737E-03
  -1.99999995E-04  -2.00399407E-03
  -1.50000007E-04  -1.24899345E-03
  -9.99999975E-05  -4.73525608E-04
  -4.99999987E-05   3.22400738E-04
   0.00000000       1.13797432E-03
   4.99999987E-05   1.97184272E-03
   9.99999975E-05   2.82261614E-03
   1.50000007E-04   3.68973962E-03
   1.99999995E-04   4.57402458E-03
   2.50000012E-04   5.47720678E-03
   3.00000014E-04   6.40118262E-03
   3.49999988E-04   7.34744361E-03
   3.99999990E-04   8.31642374E-03
   4.49999992E-04   9.30741336E-03
   5.00000024E-04   1.03189498E-02
   5.49999997E-04   1.13492971E-02
   6.00000028E-04   1.23975091E-02
   6.50000002E-04   1.34640252E-02
   6.99999975E-04   1.45504270E-02
   7.50000007E-04   1.56587865E-02
   7.99999980E-04   1.67909116E-02
   8.50000011E-04   1.79475527E-02
   8.99999985E-04   1.91282146E-02
   9.50000016E-04   2.03313660E-02
   1.00000005E-03   2.15552635E-02
   1.04999996E-03   2.27987710E-02
   1.09999999E-03   2.40618419E-02
   1.15000003E-03   2.53455862E-02
   1.20000006E-03   2.66519208E-02
   1.24999997E-03   2.79829036E-02
   1.30000000E-03   2.93397866E-02
   1.35000004E-03   3.07225753E-02
   1.39999995E-03   3.21299434E-02
   1.44999998E-03   3.35599445E-02
   1.50000001E-03   3.50109041E-02
   1.55000004E-03   3.64821181E-02
   1.59999996E-03   3.79743949E-02
   1.64999999E-03   3.94897684E-02
   1.70000002E-03   4.10306156E-02
   1.75000005E-03   4.25987281E-02
   1.79999997E-03   4.41945307E-02
   1.85000000E-03   4.58168350E-02
   1.90000003E-03   4.74635325E-02
   1.94999995E-03   4.91324589E-02
   2.00000009E-03   5.08223586E-02
   2.05000001E-03   5.25335856E-02
   2.09999993E-03   5.42679355E-02
   2.15000007E-03   5.60279042E-02
   2.19999999E-03   5.78156449E-02
   2.24999990E-03   5.96320555E-02
   2.30000005E-03   6.14763424E-02
   2.34999997E-03   6.33463711E-02
   2.40000011E-03   6.52396157E-02
   2.45000003E-03   6.71543553E-02
   2.49999994E-03   6.90904409E-02
   2.55000009E-03   7.10494593E-02
   2.60000001E-03   7.30339065E-02
   2.64999992E-03   7.50461444E-02
   2.70000007E-03   7.70874992E-02
   2.74999999E-03   7.91575387E-02
   2.79999990E-03   8.12543035E-02