  -3.99999991E-02   0.00000000    
  -3.99499983E-02   0.00000000    
  -3.99000011E-02   0.00000000    
  -3.98500003E-02   0.00000000    
  -3.97999994E-02   4.61566782E-19
  -3.97499986E-02   3.73372123E-18
  -3.97000015E-02   1.61480479E-17
  -3.96500006E-02   4.90858141E-17
  -3.95999998E-02   1.16645384E-16
  -3.95499989E-02   2.29062988E-16
  -3.95000018E-02   3.84527759E-16
  -3.94500010E-02   5.64967852E-16
  -3.94000001E-02   7.40857632E-16
  -3.93499993E-02   8.85498037E-16
  -3.92999984E-02   9.93025111E-16
  -3.92500013E-02   1.09035502E-15
  -3.92000005E-02   1.23400757E-15
  -3.91499996E-02   1.48867618E-15
  -3.90999988E-02   1.89371749E-15
  -3.90500017E-02   2.43251578E-15
  -3.90000008E-02   3.02253543E-15
  -3.89500000E-02   3.53675473E-15
  -3.88999991E-02   3.85138808E-15
  -3.88499983E-02   3.89841578E-15
  -3.88000011E-02   3.69498726E-15
  -3.87500003E-02   3.33069448E-15
  -3.86999995E-02   2.91399260E-15
  -3.86499986E-02   2.49998047E-15
  -3.86000015E-02   2.03295997E-15
  -3.85500006E-02   1.33363262E-15
  -3.84999998E-02   1.43270620E-16
  -3.84499989E-02  -1.78855284E-15
  -3.84000018E-02  -4.61002340E-15
  -3.83500010E-02  -8.31316590E-15
  -3.83000001E-02  -1.27511332E-14
  -3.82499993E-02  -1.77229430E-14
  -3.81999984E-02  -2.30855459E-14
  -3.81500013E-02  -2.88378161E-14
  -3.81000005E-02  -3.51366444E-14
  -3.80499996E-02  -4.22413501E-14
  -3.79999988E-02  -5.04174170E-14
  -3.79500017E-02  -5.98462726E-14
  -3.79000008E-02  -7.05803688E-14
  -3.78500000E-02  -8.25584176E-14
  -3.77999991E-02  -9.56655003E-14
  -3.77499983E-02  -1.09798760E-13
  -3.77000012E-02  -1.24895618E-13
  -3.76500003E-02  -1.40904093E-13
  -3.75999995E-02  -1.57715624E-13
  -3.75499986E-02  -1.75112109E-13
  -3.75000015E-02  -1.92772800E-13
  -3.74500006E-02  -2.10343163E-13
  -3.73999998E-02  -2.27514730E-13
  -3.73499990E-02  -2.44045046E-13
  -3.73000018E-02  -2.59680813E-13
  -3.72500010E-02  -2.74015484E-13
  -3.72000001E-02  -2.86372949E-13
  -3.71499993E-02  -2.95822747E-13
  -3.70999984E-02  -3.01383132E-13
  -3.70500013E-02  -3.02370948E-13
  -3.70000005E-02  -2.98749442E-13
  -3.69499996E-02  -2.91263460E-13
  -3.68999988E-02  -2.81190761E-13
  -3.68500017E-02  -2.69698922E-13
  -3.68000008E-02  -2.57022105E-13
  -3.67500000E-02  -2.41847178E-13
  -3.66999991E-02  -2.21295760E-13
  -3.66499983E-02  -1.91667063E-13
  -3.66000012E-02  -1.49742618E-13
  -3.65500003E-02  -9.41244695E-14
  -3.64999995E-02  -2.59602876E-14
  -3.64499986E-02   5.14028483E-14
  -3.64000015E-02   1.33845720E-13
  -3.63500006E-02   2.18457766E-13
  -3.62999998E-02   3.05169518E-13
  -3.62499990E-02   3.97139298E-13
  -3.62000018E-02   4.99469227E-13
  -3.61500010E-02   6.16609411E-13
  -3.61000001E-02   7.49558130E-13
  -3.60499993E-02   8.94271202E-13
  -3.59999985E-02   1.04231478E-12
  -3.59500013E-02   1.18382127E-12
  -3.59000005E-02   1.31165391E-12
  -3.58499996E-02   1.42490338E-12
  -3.57999988E-02   1.52988342E-12
  -3.57500017E-02   1.63773183E-12
  -3.57000008E-02   1.75926266E-12
  -3.56500000E-02   1.89915054E-12
  -3.55999991E-02   2.05218850E-12
  -3.55499983E-02   2.20374261E-12
  -3.55000012E-02   2.33477278E-12
  -3.54500003E-02   2.42958973E-12
  -3.53999995E-02   2.48291426E-12
  -3.53499986E-02   2.50269640E-12
  -3.53000015E-02   2.50677474E-12
  -3.52500007E-02   2.51424315E-12
  -3.51999998E-02   2.53507957E-12
  -3.51499990E-02   2.56289608E-12
  -3.51000018E-02   2.57476809E-12
  -3.50500010E-02   2.53917200E-12
  -3.50000001E-02   2.42925602E-12
  -3.49499993E-02   2.23573915E-12
  -3.48999985E-02   1.97318377E-12
  -3.48500013E-02   1.67582257E-12
  -3.48000005E-02   1.38370045E-12
  -3.47499996E-02   1.12463641E-12
  -3.46999988E-02   9.00143458E-13
  -3.46500017E-02   6.82423085E-13
  -3.46000008E-02   4.25013215E-13
  -3.45500000E-02   8.34183796E-14
  -3.44999991E-02  -3.63088493E-13
  -3.44499983E-02  -8.98751993E-13
  -3.44000012E-02  -1.47467325E-12
  -3.43500003E-02  -2.02820920E-12
  -3.42999995E-02  -2.51075701E-12
  -3.42499986E-02  -2.91147141E-12
  -3.42000015E-02  -3.26514553E-12
  -3.41500007E-02  -3.63891729E-12
  -3.40999998E-02  -4.10204856E-12
  -3.40499990E-02  -4.69153145E-12
  -3.40000018E-02  -5.38947402E-12
  -3.39500010E-02  -6.12410426E-12
  -3.39000002E-02  -6.79614308E-12
  -3.38499993E-02  -7.32040904E-12
  -3.37999985E-02  -7.66443332E-12
  -3.37500013E-02  -7.86562829E-12
  -3.37000005E-02  -8.01709307E-12
  -3.36499996E-02  -8.22607520E-12
  -3.35999988E-02  -8.56242507E-12
  -3.35500017E-02  -9.02056641E-12
  -3.35000008E-02  -9.51412560E-12
  -3.34500000E-02  -9.90848289E-12
  -3.33999991E-02  -1.00790088E-11
  -3.33499983E-02  -9.96959199E-12
  -3.33000012E-02  -9.62382084E-12
  -3.32500003E-02  -9.17184471E-12
  -3.31999995E-02  -8.77543350E-12
  -3.31499986E-02  -8.55362309E-12
  -3.31000015E-02  -8.52225495E-12
  -3.30500007E-02  -8.57683282E-12
  -3.29999998E-02  -8.53012019E-12
  -3.29499990E-02  -8.19113093E-12
  -3.29000019E-02  -7.45182561E-12
  -3.28500010E-02  -6.34169670E-12
  -3.28000002E-02  -5.02258651E-12
  -3.27499993E-02  -3.72202356E-12
  -3.26999985E-02  -2.63196734E-12
  -3.26500013E-02  -1.81788807E-12
  -3.26000005E-02  -1.18130701E-12
  -3.25499997E-02  -4.96918858E-13
  -3.24999988E-02   4.88071660E-13
  -3.24500017E-02   1.93464645E-12
  -3.24000008E-02   3.82715691E-12
  -3.23500000E-02   5.96502101E-12
  -3.22999991E-02   8.04002438E-12
  -3.22499983E-02   9.76900331E-12
  -3.22000012E-02   1.10238476E-11
  -3.21500003E-02   1.18981864E-11
  -3.20999995E-02   1.26756756E-11
  -3.20499986E-02   1.37083470E-11
  -3.20000015E-02   1.52557064E-11
  -3.19500007E-02   1.73566907E-11
  -3.18999998E-02   1.97957206E-11
  -3.18499990E-02   2.21840289E-11
  -3.18000019E-02   2.41253423E-11
  -3.17500010E-02   2.53939959E-11
  -3.17000002E-02   2.60436325E-11
  -3.16499993E-02   2.63920778E-11
  -3.15999985E-02   2.68823366E-11
  -3.15500014E-02   2.78770895E-11
  -3.15000005E-02   2.94782462E-11
  -3.14499997E-02   3.14567157E-11
  -3.13999988E-02   3.33313897E-11
  -3.13500017E-02   3.45693647E-11
  -3.13000008E-02   3.48218850E-11
  -3.12500000E-02   3.40891274E-11
  -3.11999992E-02   3.27340412E-11
  -3.11500002E-02   3.13307609E-11
  -3.10999993E-02   3.04085299E-11
  -3.10500003E-02   3.02034543E-11
  -3.09999995E-02   3.05325834E-11
  -3.09500005E-02   3.08543052E-11
  -3.08999997E-02   3.04965532E-11
  -3.08500007E-02   2.89562020E-11
  -3.07999998E-02   2.61354636E-11
  -3.07500008E-02   2.24036276E-11
  -3.07000000E-02   1.84474588E-11
  -3.06499992E-02   1.49690746E-11
  -3.06000002E-02   1.23631591E-11
  -3.05499993E-02   1.05210814E-11
  -3.05000003E-02   8.85809915E-12
  -3.04499995E-02   6.56185436E-12
  -3.04000005E-02   2.95853164E-12
  -3.03499997E-02  -2.16572355E-12
  -3.03000007E-02  -8.43748422E-12
  -3.02499998E-02  -1.50299894E-11
  -3.02000009E-02  -2.10088249E-11
  -3.01500000E-02  -2.57405538E-11
  -3.00999992E-02  -2.91802381E-11
  -3.00500002E-02  -3.19012872E-11
  -2.99999993E-02  -3.48433712E-11
  -2.99500003E-02  -3.88819393E-11
  -2.98999995E-02  -4.44092922E-11
  -2.98500005E-02  -5.11192824E-11
  -2.97999997E-02  -5.81028316E-11
  -2.97500007E-02  -6.42234460E-11
  -2.96999998E-02  -6.86125393E-11
  -2.96500009E-02  -7.10631415E-11
  -2.96000000E-02  -7.21378304E-11
  -2.95499992E-02  -7.29299607E-11
  -2.95000002E-02  -7.45730699E-11
  -2.94499993E-02  -7.77121006E-11
  -2.94000003E-02  -8.21759674E-11
  -2.93499995E-02  -8.70084144E-11
  -2.93000005E-02  -9.08569331E-11
  -2.92499997E-02  -9.25564486E-11
  -2.92000007E-02  -9.16497225E-11
  -2.91499998E-02  -8.86060322E-11
  -2.91000009E-02  -8.46281309E-11
  -2.90500000E-02  -8.11209919E-11
  -2.89999992E-02  -7.90523966E-11
  -2.89500002E-02  -7.84924001E-11
  -2.88999993E-02  -7.85478557E-11
  -2.88500004E-02  -7.77352627E-11
  -2.87999995E-02  -7.46379070E-11
  -2.87500005E-02  -6.85580551E-11
  -2.86999997E-02  -5.98676178E-11
  -2.86500007E-02  -4.98873512E-11
  -2.85999998E-02  -4.03333929E-11
  -2.85500009E-02  -3.25673412E-11
  -2.85000000E-02  -2.69833669E-11
  -2.84499992E-02  -2.28143129E-11
  -2.84000002E-02  -1.84580806E-11
  -2.83499993E-02  -1.21929584E-11
  -2.83000004E-02  -2.97008143E-12
  -2.82499995E-02   9.07329767E-12
  -2.82000005E-02   2.26206432E-11
  -2.81499997E-02   3.57155035E-11
  -2.81000007E-02   4.66050185E-11
  -2.80499998E-02   5.45144208E-11
  -2.80000009E-02   5.99996650E-11
  -2.79500000E-02   6.47059073E-11
  -2.78999992E-02   7.06238332E-11
  -2.78500002E-02   7.91659516E-11
  -2.77999993E-02   9.04761335E-11
  -2.77500004E-02   1.03292007E-10
  -2.76999995E-02   1.15439623E-10
  -2.76500005E-02   1.24755511E-10
  -2.75999997E-02   1.30032624E-10
  -2.75500007E-02   1.31564121E-10
  -2.74999999E-02   1.31028730E-10
  -2.74500009E-02   1.30751299E-10
  -2.74000000E-02   1.32655581E-10
  -2.73499992E-02   1.37372808E-10
  -2.73000002E-02   1.43912132E-10
  -2.72499993E-02   1.50055759E-10
  -2.72000004E-02   1.53319038E-10
  -2.71499995E-02   1.52056423E-10
  -2.71000005E-02   1.46218593E-10
  -2.70499997E-02   1.37410208E-10
  -2.70000007E-02   1.28204627E-10
  -2.69499999E-02   1.21006469E-10
  -2.69000009E-02   1.16963314E-10
  -2.68500000E-02   1.15418841E-10
  -2.67999992E-02   1.14167190E-10
  -2.67500002E-02   1.10414122E-10
  -2.66999993E-02   1.02029371E-10
  -2.66500004E-02   8.85337359E-11
  -2.65999995E-02   7.13710410E-11
  -2.65500005E-02   5.33259721E-11
  -2.64999997E-02   3.73306698E-11
  -2.64500007E-02   2.51828280E-11
  -2.63999999E-02   1.67500111E-11
  -2.63500009E-02   1.00284442E-11
  -2.63000000E-02   2.04821641E-12
  -2.62499992E-02  -9.76439242E-12
  -2.62000002E-02  -2.63709887E-11
  -2.61499994E-02  -4.66022186E-11
  -2.61000004E-02  -6.75849030E-11
  -2.60499995E-02  -8.59436411E-11
  -2.60000005E-02  -9.92532029E-11
  -2.59499997E-02  -1.07094202E-10
  -2.59000007E-02  -1.11229116E-10
  -2.58499999E-02  -1.14801224E-10
  -2.58000009E-02  -1.20896140E-10
  -2.57500000E-02  -1.31098743E-10
  -2.56999992E-02  -1.44693535E-10
  -2.56500002E-02  -1.58879979E-10
  -2.55999994E-02  -1.69926129E-10
  -2.55500004E-02  -1.74761303E-10
  -2.54999995E-02  -1.72301520E-10
  -2.54500005E-02  -1.63908762E-10
  -2.53999997E-02  -1.52762691E-10
  -2.53500007E-02  -1.42407766E-10
  -2.52999999E-02  -1.35114100E-10
  -2.52500009E-02  -1.30785494E-10
  -2.52000000E-02  -1.26915423E-10
  -2.51499992E-02  -1.19630583E-10
  -2.51000002E-02  -1.05373779E-10
  -2.50499994E-02  -8.24832078E-11
  -2.50000004E-02  -5.19585625E-11
  -2.49499995E-02  -1.70570311E-11
  -2.49000005E-02   1.81192249E-11
  -2.48499997E-02   5.04274053E-11
  -2.48000007E-02   7.90780358E-11
  -2.47499999E-02   1.05987379E-10
  -2.47000009E-02   1.34914371E-10
  -2.46500000E-02   1.69750464E-10
  -2.45999992E-02   2.12716206E-10
  -2.45500002E-02   2.63271432E-10
  -2.44999994E-02   3.18237436E-10
  -2.44500004E-02   3.73093861E-10
  -2.43999995E-02   4.23884317E-10
  -2.43500005E-02   4.68884098E-10
  -2.42999997E-02   5.09277676E-10
  -2.42500007E-02   5.48526835E-10
  -2.41999999E-02   5.90693938E-10
  -2.41500009E-02   6.38457065E-10
  -2.41000000E-02   6.91701751E-10
  -2.40499992E-02   7.47331308E-10
  -2.40000002E-02   8.00394973E-10
  -2.39499994E-02   8.46049564E-10
  -2.39000004E-02   8.81485385E-10
  -2.38499995E-02   9.06956843E-10
  -2.38000005E-02   9.25444554E-10
  -2.37499997E-02   9.41085876E-10
  -2.37000007E-02   9.57063429E-10
  -2.36499999E-02   9.73890635E-10
  -2.36000009E-02   9.88869431E-10
  -2.35500000E-02   9.96974836E-10
  -2.34999992E-02   9.92786742E-10
  -2.34500002E-02   9.72614989E-10
  -2.33999994E-02   9.35867606E-10
  -2.33500004E-02   8.85041040E-10
  -2.32999995E-02   8.24323332E-10
  -2.32500006E-02   7.57422125E-10
  -2.31999997E-02   6.85582591E-10
  -2.31500007E-02   6.06686645E-10
  -2.30999999E-02   5.15846810E-10
  -2.30500009E-02   4.07243989E-10
  -2.30000000E-02   2.76399459E-10
  -2.29499992E-02   1.21867794E-10
  -2.29000002E-02  -5.44095116E-11
  -2.28499994E-02  -2.48256804E-10
  -2.28000004E-02  -4.55417065E-10
  -2.27499995E-02  -6.73747336E-10
  -2.27000006E-02  -9.04471720E-10
  -2.26499997E-02  -1.15192400E-09
  -2.26000007E-02  -1.42188439E-09
  -2.25499999E-02  -1.71924808E-09
  -2.25000009E-02  -2.04606398E-09
  -2.24500000E-02  -2.40082754E-09
  -2.23999992E-02  -2.77935297E-09
  -2.23500002E-02  -3.17684146E-09
  -2.22999994E-02  -3.59022967E-09
  -2.22500004E-02  -4.01976408E-09
  -2.21999995E-02  -4.46909798E-09
  -2.21500006E-02  -4.94385199E-09
  -2.20999997E-02  -5.44928458E-09
  -2.20500007E-02  -5.98810246E-09
  -2.19999999E-02  -6.55940058E-09
  -2.19500009E-02  -7.15920789E-09
  -2.19000001E-02  -7.78238896E-09
  -2.18499992E-02  -8.42507397E-09
  -2.18000002E-02  -9.08650311E-09
  -2.17499994E-02  -9.76948034E-09
  -2.17000004E-02  -1.04792139E-08
  -2.16499995E-02  -1.12210650E-08
  -2.16000006E-02  -1.19982140E-08
  -2.15499997E-02  -1.28102853E-08
  -2.15000007E-02  -1.36535574E-08
  -2.14499999E-02  -1.45226648E-08
  -2.14000009E-02  -1.54130220E-08
  -2.13500001E-02  -1.63229092E-08
  -2.12999992E-02  -1.72542709E-08
  -2.12500002E-02  -1.82118640E-08
  -2.11999994E-02  -1.92011704E-08
  -2.11500004E-02  -2.02259720E-08
  -2.10999995E-02  -2.12867093E-08
  -2.10500006E-02  -2.23803358E-08
  -2.09999997E-02  -2.35017481E-08
  -2.09500007E-02  -2.46461216E-08
  -2.08999999E-02  -2.58111328E-08
  -2.08500009E-02  -2.69980429E-08
  -2.08000001E-02  -2.82111774E-08
  -2.07499992E-02  -2.94560305E-08
  -2.07000002E-02  -3.07368602E-08
  -2.06499994E-02  -3.20548672E-08
  -2.06000004E-02  -3.34077228E-08
  -2.05499995E-02  -3.47907587E-08
  -2.05000006E-02  -3.61991432E-08
  -2.04499997E-02  -3.76302083E-08
  -2.04000007E-02  -3.90847710E-08
  -2.03499999E-02  -4.05669276E-08
  -2.03000009E-02  -4.20823802E-08
  -2.02500001E-02  -4.36361312E-08
  -2.01999992E-02  -4.52304896E-08
  -2.01500002E-02  -4.68643471E-08
  -2.00999994E-02  -4.85340514E-08
  -2.00500004E-02  -5.02353821E-08
  -1.99999996E-02  -5.19658627E-08
  -1.99500006E-02  -5.37262395E-08
  -1.98999997E-02  -5.55205624E-08
  -1.98500007E-02  -5.73547609E-08
  -1.97999999E-02  -5.92344520E-08
  -1.97500009E-02  -6.11629289E-08
  -1.97000001E-02  -6.31401988E-08
  -1.96499992E-02  -6.51636327E-08
  -1.96000002E-02  -6.72296920E-08
  -1.95499994E-02  -6.93362168E-08
  -1.95000004E-02  -7.14840098E-08
  -1.94499996E-02  -7.36771284E-08
  -1.94000006E-02  -7.59217755E-08
  -1.93499997E-02  -7.82242324E-08
  -1.93000007E-02  -8.05888760E-08
  -1.92499999E-02  -8.30170492E-08
  -1.92000009E-02  -8.55074802E-08
  -1.91500001E-02  -8.80577460E-08
  -1.90999992E-02  -9.06664326E-08
  -1.90500002E-02  -9.33346840E-08
  -1.89999994E-02  -9.60666995E-08
  -1.89500004E-02  -9.88688171E-08
  -1.88999996E-02  -1.01747681E-07
  -1.88500006E-02  -1.04708299E-07
  -1.87999997E-02  -1.07752960E-07
  -1.87500007E-02  -1.10881338E-07
  -1.86999999E-02  -1.14091883E-07
  -1.86500009E-02  -1.17383728E-07
  -1.86000001E-02  -1.20758301E-07
  -1.85499992E-02  -1.24219866E-07
  -1.85000002E-02  -1.27774783E-07
  -1.84499994E-02  -1.31429871E-07
  -1.84000004E-02  -1.35190618E-07
  -1.83499996E-02  -1.39060134E-07
  -1.83000006E-02  -1.43039060E-07
  -1.82499997E-02  -1.47126840E-07
  -1.82000007E-02  -1.51323462E-07
  -1.81499999E-02  -1.55630858E-07
  -1.81000009E-02  -1.60053574E-07
  -1.80500001E-02  -1.64598063E-07
  -1.79999992E-02  -1.69271246E-07
  -1.79500002E-02  -1.74078906E-07
  -1.78999994E-02  -1.79024553E-07
  -1.78500004E-02  -1.84109538E-07
  -1.77999996E-02  -1.89334031E-07
  -1.77500006E-02  -1.94698629E-07
  -1.76999997E-02  -2.00205776E-07
  -1.76500008E-02  -2.05860204E-07
  -1.75999999E-02  -2.11668478E-07
  -1.75500009E-02  -2.17637606E-07
  -1.75000001E-02  -2.23773583E-07
  -1.74499992E-02  -2.30080488E-07
  -1.74000002E-02  -2.36560439E-07
  -1.73499994E-02  -2.43214686E-07
  -1.73000004E-02  -2.50045076E-07
  -1.72499996E-02  -2.57055063E-07
  -1.72000006E-02  -2.64250389E-07
  -1.71499997E-02  -2.71638214E-07
  -1.71000008E-02  -2.79226072E-07
  -1.70499999E-02  -2.87020328E-07
  -1.70000009E-02  -2.95025529E-07
  -1.69500001E-02  -3.03244491E-07
  -1.68999992E-02  -3.11679315E-07
  -1.68500002E-02  -3.20332759E-07
  -1.67999994E-02  -3.29209485E-07
  -1.67500004E-02  -3.38316028E-07
  -1.66999996E-02  -3.47660375E-07
  -1.66500006E-02  -3.57250599E-07
  -1.65999997E-02  -3.67093634E-07
  -1.65500008E-02  -3.77194624E-07
  -1.64999999E-02  -3.87557265E-07
  -1.64500009E-02  -3.98184852E-07
  -1.64000001E-02  -4.09081736E-07
  -1.63499992E-02  -4.20254338E-07
  -1.63000003E-02  -4.31711044E-07
  -1.62499994E-02  -4.43461460E-07
  -1.62000004E-02  -4.55515163E-07
  -1.61499996E-02  -4.67880085E-07
  -1.61000006E-02  -4.80562392E-07
  -1.60499997E-02  -4.93566688E-07
  -1.60000008E-02  -5.06897550E-07
  -1.59499999E-02  -5.20560661E-07
  -1.59000009E-02  -5.34564037E-07
  -1.58500001E-02  -5.48917910E-07
  -1.57999992E-02  -5.63633591E-07
  -1.57500003E-02  -5.78722165E-07
  -1.56999994E-02  -5.94193011E-07
  -1.56500004E-02  -6.10053519E-07
  -1.55999996E-02  -6.26309543E-07
  -1.55499997E-02  -6.42967223E-07
  -1.54999997E-02  -6.60034402E-07
  -1.54499998E-02  -6.77521484E-07
  -1.53999999E-02  -6.95441429E-07
  -1.53500000E-02  -7.13808276E-07
  -1.53000001E-02  -7.32635499E-07
  -1.52500002E-02  -7.51934579E-07
  -1.52000003E-02  -7.71714610E-07
  -1.51500003E-02  -7.91982700E-07
  -1.51000004E-02  -8.12746521E-07
  -1.50499996E-02  -8.34015509E-07
  -1.49999997E-02  -8.55802341E-07
  -1.49499997E-02  -8.78122421E-07
  -1.48999998E-02  -9.00992518E-07
  -1.48499999E-02  -9.24428605E-07
  -1.48000000E-02  -9.48444097E-07
  -1.47500001E-02  -9.73049623E-07
  -1.47000002E-02  -9.98253995E-07
  -1.46500003E-02  -1.02406625E-06
  -1.46000003E-02  -1.05049787E-06
  -1.45500004E-02  -1.07756398E-06
  -1.44999996E-02  -1.10528299E-06
  -1.44499997E-02  -1.13367469E-06
  -1.43999998E-02  -1.16275817E-06
  -1.43499998E-02  -1.19254958E-06
  -1.42999999E-02  -1.22306153E-06
  -1.42500000E-02  -1.25430483E-06
  -1.42000001E-02  -1.28628972E-06
  -1.41500002E-02  -1.31902914E-06
  -1.41000003E-02  -1.35254027E-06
  -1.40500003E-02  -1.38684402E-06
  -1.40000004E-02  -1.42196302E-06
  -1.39499996E-02  -1.45791921E-06
  -1.38999997E-02  -1.49473124E-06
  -1.38499998E-02  -1.53241376E-06
  -1.37999998E-02  -1.57097895E-06
  -1.37499999E-02  -1.61043852E-06
  -1.37000000E-02  -1.65080701E-06
  -1.36500001E-02  -1.69210364E-06
  -1.36000002E-02  -1.73435205E-06
  -1.35500003E-02  -1.77757818E-06
  -1.35000004E-02  -1.82180702E-06
  -1.34500004E-02  -1.86706063E-06
  -1.33999996E-02  -1.91335607E-06
  -1.33499997E-02  -1.96070755E-06
  -1.32999998E-02  -2.00912837E-06
  -1.32499998E-02  -2.05863512E-06
  -1.31999999E-02  -2.10924895E-06
  -1.31500000E-02  -2.16099602E-06
  -1.31000001E-02  -2.21390542E-06
  -1.30500002E-02  -2.26800535E-06
  -1.30000003E-02  -2.32332081E-06
  -1.29500004E-02  -2.37987183E-06
  -1.29000004E-02  -2.43767431E-06
  -1.28499996E-02  -2.49674372E-06
  -1.27999997E-02  -2.55709756E-06
  -1.27499998E-02  -2.61875925E-06
  -1.26999998E-02  -2.68175768E-06
  -1.26499999E-02  -2.74612580E-06
  -1.26000000E-02  -2.81189637E-06
  -1.25500001E-02  -2.87909870E-06
  -1.25000002E-02  -2.94775623E-06
  -1.24500003E-02  -3.01788805E-06
  -1.24000004E-02  -3.08951189E-06
  -1.23500004E-02  -3.16264845E-06
  -1.22999996E-02  -3.23732252E-06
  -1.22499997E-02  -3.31356614E-06
  -1.21999998E-02  -3.39141570E-06
  -1.21499998E-02  -3.47090736E-06
  -1.20999999E-02  -3.55207385E-06
  -1.20500000E-02  -3.63494269E-06
  -1.20000001E-02  -3.71953502E-06
  -1.19500002E-02  -3.80587085E-06
  -1.19000003E-02  -3.89397246E-06
  -1.18500004E-02  -3.98386737E-06
  -1.18000004E-02  -4.07559219E-06
  -1.17499996E-02  -4.16918647E-06
  -1.16999997E-02  -4.26469251E-06
  -1.16499998E-02  -4.36214759E-06
  -1.15999999E-02  -4.46158401E-06
  -1.15499999E-02  -4.56302632E-06
  -1.15000000E-02  -4.66649726E-06
  -1.14500001E-02  -4.77202184E-06
  -1.14000002E-02  -4.87962870E-06
  -1.13500003E-02  -4.98935742E-06
  -1.13000004E-02  -5.10125074E-06
  -1.12500004E-02  -5.21535458E-06
  -1.11999996E-02  -5.33171078E-06
  -1.11499997E-02  -5.45035437E-06
  -1.10999998E-02  -5.57131443E-06
  -1.10499999E-02  -5.69461690E-06
  -1.09999999E-02  -5.82028906E-06
  -1.09500000E-02  -5.94836592E-06
  -1.09000001E-02  -6.07888978E-06
  -1.08500002E-02  -6.21190839E-06
  -1.08000003E-02  -6.34747175E-06
  -1.07500004E-02  -6.48562764E-06
  -1.07000005E-02  -6.62641560E-06
  -1.06499996E-02  -6.76986747E-06
  -1.05999997E-02  -6.91601235E-06
  -1.05499998E-02  -7.06487981E-06
  -1.04999999E-02  -7.21650531E-06
  -1.04499999E-02  -7.37093342E-06
  -1.04000000E-02  -7.52821506E-06
  -1.03500001E-02  -7.68840437E-06
  -1.03000002E-02  -7.85155407E-06
  -1.02500003E-02  -8.01770693E-06
  -1.02000004E-02  -8.18690023E-06
  -1.01500005E-02  -8.35916580E-06
  -1.00999996E-02  -8.53453548E-06
  -1.00499997E-02  -8.71304928E-06
  -9.99999978E-03  -8.89475450E-06
  -9.94999986E-03  -9.07970662E-06
  -9.89999995E-03  -9.26796474E-06
  -9.85000003E-03  -9.45958436E-06
  -9.80000012E-03  -9.65461459E-06
  -9.75000020E-03  -9.85309362E-06
  -9.70000029E-03  -1.00550587E-05
  -9.65000037E-03  -1.02605445E-05
  -9.60000046E-03  -1.04695882E-05
  -9.54999961E-03  -1.06822408E-05
  -9.49999969E-03  -1.08985596E-05
  -9.44999978E-03  -1.11186064E-05
  -9.39999986E-03  -1.13424394E-05
  -9.34999995E-03  -1.15701105E-05
  -9.30000003E-03  -1.18016596E-05
  -9.25000012E-03  -1.20371251E-05
  -9.20000020E-03  -1.22765377E-05
  -9.15000029E-03  -1.25199422E-05
  -9.10000037E-03  -1.27673875E-05
  -9.05000046E-03  -1.30189392E-05
  -8.99999961E-03  -1.32746582E-05
  -8.94999970E-03  -1.35346108E-05
  -8.89999978E-03  -1.37988500E-05
  -8.84999987E-03  -1.40674210E-05
  -8.79999995E-03  -1.43403613E-05
  -8.75000004E-03  -1.46177072E-05
  -8.70000012E-03  -1.48995023E-05
  -8.65000021E-03  -1.51857985E-05
  -8.60000029E-03  -1.54766603E-05
  -8.55000038E-03  -1.57721515E-05
  -8.50000046E-03  -1.60723393E-05
  -8.44999962E-03  -1.63772802E-05
  -8.39999970E-03  -1.66870159E-05
  -8.34999979E-03  -1.70015846E-05
  -8.29999987E-03  -1.73210192E-05
  -8.24999996E-03  -1.76453614E-05
  -8.20000004E-03  -1.79746621E-05
  -8.15000013E-03  -1.83089815E-05
  -8.10000021E-03  -1.86483867E-05
  -8.05000030E-03  -1.89929488E-05
  -8.00000038E-03  -1.93427259E-05
  -7.95000046E-03  -1.96977617E-05
  -7.89999962E-03  -2.00580907E-05
  -7.84999970E-03  -2.04237494E-05
  -7.79999979E-03  -2.07947742E-05
  -7.74999987E-03  -2.11712177E-05
  -7.69999996E-03  -2.15531436E-05
  -7.65000004E-03  -2.19406211E-05
  -7.60000013E-03  -2.23337192E-05
  -7.55000021E-03  -2.27324945E-05
  -7.49999983E-03  -2.31369941E-05
  -7.44999992E-03  -2.35472453E-05
  -7.40000000E-03  -2.39632755E-05
  -7.35000009E-03  -2.43851264E-05
  -7.30000017E-03  -2.48128345E-05
  -7.24999979E-03  -2.52464597E-05
  -7.19999988E-03  -2.56860658E-05
  -7.14999996E-03  -2.61317182E-05
  -7.10000005E-03  -2.65834733E-05
  -7.05000013E-03  -2.70413748E-05
  -7.00000022E-03  -2.75054499E-05
  -6.94999984E-03  -2.79757169E-05
  -6.89999992E-03  -2.84522048E-05
  -6.85000001E-03  -2.89349464E-05
  -6.80000009E-03  -2.94239962E-05
  -6.75000018E-03  -2.99194180E-05
  -6.69999979E-03  -3.04212717E-05
  -6.64999988E-03  -3.09296156E-05
  -6.59999996E-03  -3.14444806E-05
  -6.55000005E-03  -3.19658902E-05
  -6.50000013E-03  -3.24938555E-05
  -6.45000022E-03  -3.30283947E-05
  -6.39999984E-03  -3.35695295E-05
  -6.34999992E-03  -3.41173036E-05
  -6.30000001E-03  -3.46717716E-05
  -6.25000009E-03  -3.52329880E-05
  -6.20000018E-03  -3.58009966E-05
  -6.14999980E-03  -3.63758263E-05
  -6.09999988E-03  -3.69574918E-05
  -6.04999997E-03  -3.75459786E-05
  -6.00000005E-03  -3.81412974E-05
  -5.95000014E-03  -3.87434520E-05
  -5.90000022E-03  -3.93524788E-05
  -5.84999984E-03  -3.99684104E-05
  -5.79999993E-03  -4.05912979E-05
  -5.75000001E-03  -4.12211666E-05
  -5.70000010E-03  -4.18580457E-05
  -5.65000018E-03  -4.25019316E-05
  -5.59999980E-03  -4.31528024E-05
  -5.54999989E-03  -4.38106399E-05
  -5.49999997E-03  -4.44754332E-05
  -5.45000006E-03  -4.51471969E-05
  -5.40000014E-03  -4.58259456E-05
  -5.35000023E-03  -4.65117228E-05
  -5.29999984E-03  -4.72045540E-05
  -5.24999993E-03  -4.79044320E-05
  -5.20000001E-03  -4.86113386E-05
  -5.15000010E-03  -4.93252373E-05
  -5.10000018E-03  -5.00460919E-05
  -5.04999980E-03  -5.07738587E-05
  -4.99999989E-03  -5.15085230E-05
  -4.94999997E-03  -5.22500886E-05
  -4.90000006E-03  -5.29985628E-05
  -4.85000014E-03  -5.37539490E-05
  -4.80000023E-03  -5.45162366E-05
  -4.74999985E-03  -5.52853890E-05
  -4.69999993E-03  -5.60613298E-05
  -4.65000002E-03  -5.68439973E-05
  -4.60000010E-03  -5.76333259E-05
  -4.55000019E-03  -5.84292648E-05
  -4.49999981E-03  -5.92317956E-05
  -4.44999989E-03  -6.00408966E-05
  -4.39999998E-03  -6.08565533E-05
  -4.35000006E-03  -6.16787293E-05
  -4.30000015E-03  -6.25073517E-05
  -4.25000023E-03  -6.33423406E-05
  -4.19999985E-03  -6.41835941E-05
  -4.14999994E-03  -6.50310103E-05
  -4.10000002E-03  -6.58845020E-05
  -4.05000011E-03  -6.67440181E-05
  -4.00000019E-03  -6.76095078E-05
  -3.94999981E-03  -6.84809202E-05
  -3.89999989E-03  -6.93581969E-05
  -3.84999998E-03  -7.02412508E-05
  -3.80000006E-03  -7.11299508E-05
  -3.74999992E-03  -7.20241660E-05
  -3.70000000E-03  -7.29237363E-05
  -3.65000009E-03  -7.38285453E-05
  -3.59999994E-03  -7.47384765E-05
  -3.55000002E-03  -7.56534573E-05
  -3.50000011E-03  -7.65734076E-05
  -3.44999996E-03  -7.74982400E-05
  -3.40000005E-03  -7.84278382E-05
  -3.34999990E-03  -7.93620202E-05
  -3.29999998E-03  -8.03006114E-05
  -3.25000007E-03  -8.12434228E-05
  -3.19999992E-03  -8.21902649E-05
  -3.15000000E-03  -8.31410071E-05
  -3.10000009E-03  -8.40955108E-05
  -3.04999994E-03  -8.50536744E-05
  -3.00000003E-03  -8.60153596E-05
  -2.95000011E-03  -8.69804135E-05
  -2.89999996E-03  -8.79486324E-05
  -2.85000005E-03  -8.89197763E-05
  -2.79999990E-03  -8.98936123E-05
  -2.74999999E-03  -9.08698930E-05
  -2.70000007E-03  -9.18484220E-05
  -2.64999992E-03  -9.28290174E-05
  -2.60000001E-03  -9.38115263E-05
  -2.55000009E-03  -9.47957669E-05
  -2.49999994E-03  -9.57815428E-05
  -2.45000003E-03  -9.67685992E-05
  -2.40000011E-03  -9.77566451E-05
  -2.34999997E-03  -9.87453968E-05
  -2.30000005E-03  -9.97345487E-05
  -2.24999990E-03  -1.00723832E-04
  -2.19999999E-03  -1.01713013E-04
  -2.15000007E-03  -1.02701873E-04
  -2.09999993E-03  -1.03690196E-04
  -2.05000001E-03  -1.04677747E-04
  -2.00000009E-03  -1.05664221E-04
  -1.94999995E-03  -1.06649277E-04
  -1.90000003E-03  -1.07632557E-04
  -1.85000000E-03  -1.08613684E-04
  -1.79999997E-03  -1.09592329E-04
  -1.75000005E-03  -1.10568188E-04
  -1.70000002E-03  -1.11540983E-04
  -1.64999999E-03  -1.12510468E-04
  -1.59999996E-03  -1.13476322E-04
  -1.55000004E-03  -1.14438211E-04
  -1.50000001E-03  -1.15395727E-04
  -1.44999998E-03  -1.16348419E-04
  -1.39999995E-03  -1.17295858E-04
  -1.35000004E-03  -1.18237629E-04
  -1.30000000E-03  -1.19173361E-04
  -1.24999997E-03  -1.20102726E-04
  -1.20000006E-03  -1.21025376E-04
  -1.15000003E-03  -1.21940968E-04
  -1.09999999E-03  -1.22849087E-04
  -1.04999996E-03  -1.23749298E-04
  -1.00000005E-03  -1.24641054E-04
  -9.50000016E-04  -1.25523860E-04
  -8.99999985E-04  -1.26397223E-04
  -8.50000011E-04  -1.27260690E-04
  -7.99999980E-04  -1.28113854E-04
  -7.50000007E-04  -1.28956352E-04
  -6.99999975E-04  -1.29787761E-04
  -6.50000002E-04  -1.30607616E-04
  -6.00000028E-04  -1.31415363E-04
  -5.49999997E-04  -1.32210407E-04
  -5.00000024E-04  -1.32992194E-04
  -4.49999992E-04  -1.33760113E-04
  -3.99999990E-04  -1.34513670E-04
  -3.49999988E-04  -1.35252354E-04
  -3.00000014E-04  -1.35975701E-04
  -2.50000012E-04  -1.36683244E-04
  -1.99999995E-04  -1.37374445E-04
  -1.50000007E-04  -1.38048708E-04
  -9.99999975E-05  -1.38705378E-04
  -4.99999987E-05  -1.39343785E-04
   0.00000000      -1.39963275E-04
   4.99999987E-05  -1.40563221E-04
   9.99999975E-05  -1.41143057E-04
   1.50000007E-04  -1.41702258E-04
   1.99999995E-04  -1.42240271E-04
   2.50000012E-04  -1.42756529E-04
   3.00000014E-04  -1.43250334E-04
   3.49999988E-04  -1.43720987E-04
   3.99999990E-04  -1.44167745E-04
   4.49999992E-04  -1.44589823E-04
   5.00000024E-04  -1.44986509E-04
   5.49999997E-04  -1.45357189E-04
   6.00000028E-04  -1.45701226E-04
   6.50000002E-04  -1.46018021E-04
   6.99999975E-04  -1.46306906E-04
   7.50000007E-04  -1.46567167E-04
   7.99999980E-04  -1.46798004E-04
   8.50000011E-04  -1.46998587E-04
   8.99999985E-04  -1.47168088E-04
   9.50000016E-04  -1.47305705E-04
   1.00000005E-03  -1.47410698E-04
   1.04999996E-03  -1.47482351E-04
   1.09999999E-03  -1.47520012E-04
   1.15000003E-03  -1.47522966E-04
   1.20000006E-03  -1.47490413E-04
   1.24999997E-03  -1.47421524E-04
   1.30000000E-03  -1.47315382E-04
   1.35000004E-03  -1.47171071E-04
   1.39999995E-03  -1.46987702E-04
   1.44999998E-03  -1.46764447E-04
   1.50000001E-03  -1.46500548E-04
   1.55000004E-03  -1.46195249E-04
   1.59999996E-03  -1.45847778E-04
   1.64999999E-03  -1.45457336E-04
   1.70000002E-03  -1.45022990E-04
   1.75000005E-03  -1.44543752E-04
   1.79999997E-03  -1.44018661E-04
   1.85000000E-03  -1.43446741E-04
   1.90000003E-03  -1.42827063E-04
   1.94999995E-03  -1.42158780E-04
   2.00000009E-03  -1.41441065E-04
   2.05000001E-03  -1.40673117E-04
   2.09999993E-03  -1.39854048E-04
   2.15000007E-03  -1.38982912E-04
   2.19999999E-03  -1.38058691E-04
   2.24999990E-03  -1.37080322E-04
   2.30000005E-03  -1.36046743E-04
   2.34999997E-03  -1.34956979E-04
   2.40000011E-03  -1.33810114E-04
   2.45000003E-03  -1.32605259E-04
   2.49999994E-03  -1.31341556E-04
   2.55000009E-03  -1.30018088E-04
   2.60000001E-03  -1.28633867E-04
   2.64999992E-03  -1.27187843E-04
   2.70000007E-03  -1.25678896E-04
   2.74999999E-03  -1.24105922E-04
   2.79999990E-03  -1.22467842E-04