  -3.99999991E-02   0.00000000    
  -3.99499983E-02   0.00000000    
  -3.99000011E-02   0.00000000    
  -3.98500003E-02   0.00000000    
  -3.97999994E-02   2.35770498E-20
  -3.97499986E-02   1.93634542E-19
  -3.97000015E-02   8.55241319E-19
  -3.96500006E-02   2.67654615E-18
  -3.95999998E-02   6.62282116E-18
  -3.95499989E-02   1.37550731E-17
  -3.95000018E-02   2.49406767E-17
  -3.94500010E-02   4.06701943E-17
  -3.94000001E-02   6.11407440E-17
  -3.93499993E-02   8.65975780E-17
  -3.92999984E-02   1.17752376E-16
  -3.92500013E-02   1.56055894E-16
  -3.92000005E-02   2.03716453E-16
  -3.91499996E-02   2.63531485E-16
  -3.90999988E-02   3.38715108E-16
  -3.90500017E-02   4.32892890E-16
  -3.90000008E-02   5.50285754E-16
  -3.89500000E-02   6.95878912E-16
  -3.88999991E-02   8.75216063E-16
  -3.88499983E-02   1.09356167E-15
  -3.88000011E-02   1.35460939E-15
  -3.87500003E-02   1.65947508E-15
  -3.86999995E-02   2.00693827E-15
  -3.86499986E-02   2.39544179E-15
  -3.86000015E-02   2.82627811E-15
  -3.85500006E-02   3.30632535E-15
  -3.84999998E-02   3.84831505E-15
  -3.84499989E-02   4.46741609E-15
  -3.84000018E-02   5.17463015E-15
  -3.83500010E-02   5.96941938E-15
  -3.83000001E-02   6.83517938E-15
  -3.82499993E-02   7.74073171E-15
  -3.81999984E-02   8.64875103E-15
  -3.81500013E-02   9.52863192E-15
  -3.81000005E-02   1.03683253E-14
  -3.80499996E-02   1.11790180E-14
  -3.79999988E-02   1.19889196E-14
  -3.79500017E-02   1.28272586E-14
  -3.79000008E-02   1.37044230E-14
  -3.78500000E-02   1.45967172E-14
  -3.77999991E-02   1.54428370E-14
  -3.77499983E-02   1.61545565E-14
  -3.77000012E-02   1.66378735E-14
  -3.76500003E-02   1.68158927E-14
  -3.75999995E-02   1.66433080E-14
  -3.75499986E-02   1.61053659E-14
  -3.75000015E-02   1.52009719E-14
  -3.74500006E-02   1.39167784E-14
  -3.73999998E-02   1.22034569E-14
  -3.73499990E-02   9.96467601E-15
  -3.73000018E-02   7.06411078E-15
  -3.72500010E-02   3.34886885E-15
  -3.72000001E-02  -1.31795447E-15
  -3.71499993E-02  -7.02565634E-15
  -3.70999984E-02  -1.37949395E-14
  -3.70500013E-02  -2.15747050E-14
  -3.70000005E-02  -3.02597574E-14
  -3.69499996E-02  -3.97275867E-14
  -3.68999988E-02  -4.98869643E-14
  -3.68500017E-02  -6.07261230E-14
  -3.68000008E-02  -7.23446503E-14
  -3.67500000E-02  -8.49530610E-14
  -3.66999991E-02  -9.88297036E-14
  -3.66499983E-02  -1.14237192E-13
  -3.66000012E-02  -1.31318730E-13
  -3.65500003E-02  -1.50011703E-13
  -3.64999995E-02  -1.70020356E-13
  -3.64499986E-02  -1.90875121E-13
  -3.64000015E-02  -2.12071897E-13
  -3.63500006E-02  -2.33243492E-13
  -3.62999998E-02  -2.54287476E-13
  -3.62499990E-02  -2.75376971E-13
  -3.62000018E-02  -2.96821920E-13
  -3.61500010E-02  -3.18816425E-13
  -3.61000001E-02  -3.41173460E-13
  -3.60499993E-02  -3.63181924E-13
  -3.59999985E-02  -3.83690150E-13
  -3.59500013E-02  -4.01430544E-13
  -3.59000005E-02  -4.15477873E-13
  -3.58499996E-02  -4.25642025E-13
  -3.57999988E-02  -4.32580892E-13
  -3.57500017E-02  -4.37517373E-13
  -3.57000008E-02  -4.41615386E-13
  -3.56500000E-02  -4.45254321E-13
  -3.55999991E-02  -4.47537190E-13
  -3.55499983E-02  -4.46317787E-13
  -3.55000012E-02  -4.38829772E-13
  -3.54500003E-02  -4.22720940E-13
  -3.53999995E-02  -3.97060396E-13
  -3.53499986E-02  -3.62825411E-13
  -3.53000015E-02  -3.22544888E-13
  -3.52500007E-02  -2.79138691E-13
  -3.51999998E-02  -2.34395321E-13
  -3.51499990E-02  -1.87781309E-13
  -3.51000018E-02  -1.36222414E-13
  -3.50500010E-02  -7.51216648E-14
  -3.50000001E-02  -3.13359230E-16
  -3.49499993E-02   8.98493655E-14
  -3.48999985E-02   1.93261897E-13
  -3.48500013E-02   3.04410821E-13
  -3.48000005E-02   4.16355860E-13
  -3.47499996E-02   5.23631648E-13
  -3.46999988E-02   6.24807443E-13
  -3.46500017E-02   7.23433900E-13
  -3.46000008E-02   8.26715595E-13
  -3.45500000E-02   9.42254521E-13
  -3.44999991E-02   1.07418523E-12
  -3.44499983E-02   1.22047587E-12
  -3.44000012E-02   1.37282796E-12
  -3.43500003E-02   1.51952984E-12
  -3.42999995E-02   1.65024103E-12
  -3.42499986E-02   1.76064133E-12
  -3.42000015E-02   1.85469131E-12
  -3.41500007E-02   1.94314530E-12
  -3.40999998E-02   2.03859087E-12
  -3.40499990E-02   2.14899713E-12
  -3.40000018E-02   2.27268942E-12
  -3.39500010E-02   2.39732778E-12
  -3.39000002E-02   2.50382961E-12
  -3.38499993E-02   2.57392046E-12
  -3.37999985E-02   2.59812549E-12
  -3.37500013E-02   2.58046015E-12
  -3.37000005E-02   2.53725881E-12
  -3.36499996E-02   2.49009884E-12
  -3.35999988E-02   2.45557654E-12
  -3.35500017E-02   2.43647203E-12
  -3.35000008E-02   2.41862411E-12
  -3.34500000E-02   2.37556654E-12
  -3.33999991E-02   2.27948845E-12
  -3.33499983E-02   2.11394552E-12
  -3.33000012E-02   1.88246836E-12
  -3.32500003E-02   1.60860182E-12
  -3.31999995E-02   1.32654152E-12
  -3.31499986E-02   1.06590138E-12
  -3.31000015E-02   8.37251926E-13
  -3.30500007E-02   6.25312410E-13
  -3.29999998E-02   3.93704112E-13
  -3.29499990E-02   1.00082581E-13
  -3.29000019E-02  -2.84513054E-13
  -3.28500010E-02  -7.60774581E-13
  -3.28000002E-02  -1.29803557E-12
  -3.27499993E-02  -1.84540013E-12
  -3.26999985E-02  -2.35304983E-12
  -3.26500013E-02  -2.79458769E-12
  -3.26000005E-02  -3.18005084E-12
  -3.25499997E-02  -3.55277418E-12
  -3.24999988E-02  -3.97030672E-12
  -3.24500017E-02  -4.47708797E-12
  -3.24000008E-02  -5.08104496E-12
  -3.23500000E-02  -5.74537900E-12
  -3.22999991E-02  -6.40058796E-12
  -3.22499983E-02  -6.97266160E-12
  -3.22000012E-02  -7.41554648E-12
  -3.21500003E-02  -7.73302949E-12
  -3.20999995E-02  -7.97907487E-12
  -3.20499986E-02  -8.23480520E-12
  -3.20000015E-02  -8.57116027E-12
  -3.19500007E-02  -9.01354425E-12
  -3.18999998E-02  -9.52503614E-12
  -3.18499990E-02  -1.00172873E-11
  -3.18000019E-02  -1.03859785E-11
  -3.17500010E-02  -1.05560768E-11
  -3.17000002E-02  -1.05165746E-11
  -3.16499993E-02  -1.03278792E-11
  -3.15999985E-02  -1.00966154E-11
  -3.15500014E-02  -9.92737142E-12
  -3.15000005E-02  -9.87225839E-12
  -3.14499997E-02  -9.90157435E-12
  -3.13999988E-02  -9.91058971E-12
  -3.13500017E-02  -9.76170186E-12
  -3.13000008E-02  -9.34477062E-12
  -3.12500000E-02  -8.62892049E-12
  -3.11999992E-02  -7.68132693E-12
  -3.11500002E-02  -6.64224491E-12
  -3.10999993E-02  -5.66508038E-12
  -3.10500003E-02  -4.84697655E-12
  -3.09999995E-02  -4.18132196E-12
  -3.09500005E-02  -3.55536325E-12
  -3.08999997E-02  -2.79667804E-12
  -3.08500007E-02  -1.74998514E-12
  -3.07999998E-02  -3.50694707E-13
  -3.07500008E-02   1.33880309E-12
  -3.07000000E-02   3.14890930E-12
  -3.06499992E-02   4.87267735E-12
  -3.06000002E-02   6.35641062E-12
  -3.05499993E-02   7.57044601E-12
  -3.05000003E-02   8.62648668E-12
  -3.04499995E-02   9.73056184E-12
  -3.04000005E-02   1.10897298E-11
  -3.03499997E-02   1.28128680E-11
  -3.03000007E-02   1.48507959E-11
  -3.02499998E-02   1.70053433E-11
  -3.02000009E-02   1.90069002E-11
  -3.01500000E-02   2.06285249E-11
  -3.00999992E-02   2.17863332E-11
  -3.00500002E-02   2.25795320E-11
  -2.99999993E-02   2.32487623E-11
  -2.99500003E-02   2.40677825E-11
  -2.98999995E-02   2.52147452E-11
  -2.98500005E-02   2.66810116E-11
  -2.97999997E-02   2.82610463E-11
  -2.97500007E-02   2.96320225E-11
  -2.96999998E-02   3.04911027E-11
  -2.96500009E-02   3.06905022E-11
  -2.96000000E-02   3.03084502E-11
  -2.95499992E-02   2.96207156E-11
  -2.95000002E-02   2.89808438E-11
  -2.94499993E-02   2.86595175E-11
  -2.94000003E-02   2.87143469E-11
  -2.93499995E-02   2.89508417E-11
  -2.93000005E-02   2.89965725E-11
  -2.92499997E-02   2.84599497E-11
  -2.92000007E-02   2.71052573E-11
  -2.91499998E-02   2.49651359E-11
  -2.91000009E-02   2.23367262E-11
  -2.90500000E-02   1.96582507E-11
  -2.89999992E-02   1.73170072E-11
  -2.89500002E-02   1.54731106E-11
  -2.88999993E-02   1.39797297E-11
  -2.88500004E-02   1.24400308E-11
  -2.87999995E-02   1.03807154E-11
  -2.87500005E-02   7.46811120E-12
  -2.86999997E-02   3.67047712E-12
  -2.86500007E-02  -7.09417497E-13
  -2.85999998E-02  -5.15156971E-12
  -2.85500009E-02  -9.13883292E-12
  -2.85000000E-02  -1.23842664E-11
  -2.84499992E-02  -1.49630586E-11
  -2.84000002E-02  -1.72855202E-11
  -2.83499993E-02  -1.99171461E-11
  -2.83000004E-02  -2.33212148E-11
  -2.82499995E-02  -2.76373594E-11
  -2.82000005E-02  -3.25976988E-11
  -2.81499997E-02  -3.76236577E-11
  -2.81000007E-02  -4.20665447E-11
  -2.80499998E-02  -4.54886059E-11
  -2.80000009E-02  -4.78589876E-11
  -2.79500000E-02  -4.95730297E-11
  -2.78999992E-02  -5.12796854E-11
  -2.78500002E-02  -5.35880472E-11
  -2.77999993E-02  -5.67813158E-11
  -2.77500004E-02  -6.06676029E-11
  -2.76999995E-02  -6.46402376E-11
  -2.76500005E-02  -6.79278161E-11
  -2.75999997E-02  -6.99284033E-11
  -2.75500007E-02  -7.04801009E-11
  -2.74999999E-02  -6.99440436E-11
  -2.74500009E-02  -6.90555668E-11
  -2.74000000E-02  -6.86028040E-11
  -2.73499992E-02  -6.90711308E-11
  -2.73000002E-02  -7.04125092E-11
  -2.72499993E-02  -7.20474930E-11
  -2.72000004E-02  -7.31070343E-11
  -2.71499995E-02  -7.28131652E-11
  -2.71000005E-02  -7.08319237E-11
  -2.70499997E-02  -6.74390266E-11
  -2.70000007E-02  -6.34175212E-11
  -2.69499999E-02  -5.97246974E-11
  -2.69000009E-02  -5.70705393E-11
  -2.68500000E-02  -5.55943347E-11
  -2.67999992E-02  -5.47879173E-11
  -2.67500002E-02  -5.37081005E-11
  -2.66999993E-02  -5.13920607E-11
  -2.66500004E-02  -4.72956188E-11
  -2.65999995E-02  -4.15583470E-11
  -2.65500005E-02  -3.49709706E-11
  -2.64999997E-02  -2.86503859E-11
  -2.64500007E-02  -2.35589083E-11
  -2.63999999E-02  -2.00785898E-11
  -2.63500009E-02  -1.78331620E-11
  -2.63000000E-02  -1.58448983E-11
  -2.62499992E-02  -1.29661160E-11
  -2.62000002E-02  -8.39995174E-12
  -2.61499994E-02  -2.07940956E-12
  -2.61000004E-02   5.26972259E-12
  -2.60499995E-02   1.24199002E-11
  -2.60000005E-02   1.81670009E-11
  -2.59499997E-02   2.18613027E-11
  -2.59000007E-02   2.37064292E-11
  -2.58499999E-02   2.46855175E-11
  -2.58000009E-02   2.61366744E-11
  -2.57500000E-02   2.91576659E-11
  -2.56999992E-02   3.41014786E-11
  -2.56500002E-02   4.03913847E-11
  -2.55999994E-02   4.67475884E-11
  -2.55500004E-02   5.17359766E-11
  -2.54999995E-02   5.44026005E-11
  -2.54500005E-02   5.47126407E-11
  -2.53999997E-02   5.35919087E-11
  -2.53500007E-02   5.25413914E-11
  -2.52999999E-02   5.29855257E-11
  -2.52500009E-02   5.56385320E-11
  -2.52000000E-02   6.01729083E-11
  -2.51499992E-02   6.53467766E-11
  -2.51000002E-02   6.95457095E-11
  -2.50499994E-02   7.15079454E-11
  -2.50000004E-02   7.09136014E-11
  -2.49499995E-02   6.85704826E-11
  -2.49000005E-02   6.61024360E-11
  -2.48499997E-02   6.52659524E-11
  -2.48000007E-02   6.71906142E-11
  -2.47499999E-02   7.18806195E-11
  -2.47000009E-02   7.82069617E-11
  -2.46500000E-02   8.44063500E-11
  -2.45999992E-02   8.88769128E-11
  -2.45500002E-02   9.09223946E-11
  -2.44999994E-02   9.11107370E-11
  -2.44500004E-02   9.10767711E-11
  -2.43999995E-02   9.28428792E-11
  -2.43500005E-02   9.79489614E-11
  -2.42999997E-02   1.06775776E-10
  -2.42500007E-02   1.18368801E-10
  -2.41999999E-02   1.30853800E-10
  -2.41500009E-02   1.42273096E-10
  -2.41000000E-02   1.51478330E-10
  -2.40499992E-02   1.58682248E-10
  -2.40000002E-02   1.65413377E-10
  -2.39499994E-02   1.73878842E-10
  -2.39000004E-02   1.86004975E-10
  -2.38499995E-02   2.02576123E-10
  -2.38000005E-02   2.22858287E-10
  -2.37499997E-02   2.44887111E-10
  -2.37000007E-02   2.66307171E-10
  -2.36499999E-02   2.85400203E-10
  -2.36000009E-02   3.01847242E-10
  -2.35500000E-02   3.16877413E-10
  -2.34999992E-02   3.32722655E-10
  -2.34500002E-02   3.51605273E-10
  -2.33999994E-02   3.74699771E-10
  -2.33500004E-02   4.01532113E-10
  -2.32999995E-02   4.30094432E-10
  -2.32500006E-02   4.57640065E-10
  -2.31999997E-02   4.81818585E-10
  -2.31500007E-02   5.01651720E-10
  -2.30999999E-02   5.17909993E-10
  -2.30500009E-02   5.32708322E-10
  -2.30000000E-02   5.48484036E-10
  -2.29499992E-02   5.66799940E-10
  -2.29000002E-02   5.87503157E-10
  -2.28499994E-02   6.08622430E-10
  -2.28000004E-02   6.27066288E-10
  -2.27499995E-02   6.39825859E-10
  -2.27000006E-02   6.45157372E-10
  -2.26499997E-02   6.43214204E-10
  -2.26000007E-02   6.35835884E-10
  -2.25499999E-02   6.25571706E-10
  -2.25000009E-02   6.14358731E-10
  -2.24500000E-02   6.02438932E-10
  -2.23999992E-02   5.88004145E-10
  -2.23500002E-02   5.67742797E-10
  -2.22999994E-02   5.38062372E-10
  -2.22500004E-02   4.96455155E-10
  -2.21999995E-02   4.42401310E-10
  -2.21500006E-02   3.77396114E-10
  -2.20999997E-02   3.04073489E-10
  -2.20500007E-02   2.24799609E-10
  -2.19999999E-02   1.40355338E-10
  -2.19500009E-02   4.92976528E-11
  -2.19000001E-02  -5.17014660E-11
  -2.18499992E-02  -1.66671871E-10
  -2.18000002E-02  -2.98829628E-10
  -2.17499994E-02  -4.49399712E-10
  -2.17000004E-02  -6.17307594E-10
  -2.16499995E-02  -7.99893540E-10
  -2.16000006E-02  -9.94346605E-10
  -2.15499997E-02  -1.19923182E-09
  -2.15000007E-02  -1.41542911E-09
  -2.14499999E-02  -1.64605252E-09
  -2.14000009E-02  -1.89536942E-09
  -2.13500001E-02  -2.16718288E-09
  -2.12999992E-02  -2.46339082E-09
  -2.12500002E-02  -2.78336509E-09
  -2.11999994E-02  -3.12444359E-09
  -2.11500004E-02  -3.48333096E-09
  -2.10999995E-02  -3.85779764E-09
  -2.10500006E-02  -4.24792646E-09
  -2.09999997E-02  -4.65633576E-09
  -2.09500007E-02  -5.08727860E-09
  -2.08999999E-02  -5.54498092E-09
  -2.08500009E-02  -6.03196781E-09
  -2.08000001E-02  -6.54811627E-09
  -2.07499992E-02  -7.09086656E-09
  -2.07000002E-02  -7.65651631E-09
  -2.06499994E-02  -8.24203816E-09
  -2.06000004E-02  -8.84661144E-09
  -2.05499995E-02  -9.47218570E-09
  -2.05000006E-02  -1.01228039E-08
  -2.04499997E-02  -1.08029869E-08
  -2.04000007E-02  -1.15158514E-08
  -2.03499999E-02  -1.22618440E-08
  -2.03000009E-02  -1.30386226E-08
  -2.02500001E-02  -1.38421834E-08
  -2.01999992E-02  -1.46687329E-08
  -2.01500002E-02  -1.55164805E-08
  -2.00999994E-02  -1.63865614E-08
  -2.00500004E-02  -1.72826677E-08
  -1.99999996E-02  -1.82095103E-08
  -1.99500006E-02  -1.91708356E-08
  -1.98999997E-02  -2.01678247E-08
  -1.98500007E-02  -2.11986215E-08
  -1.97999999E-02  -2.22592078E-08
  -1.97500009E-02  -2.33452671E-08
  -1.97000001E-02  -2.44541791E-08
  -1.96499992E-02  -2.55863117E-08
  -1.96000002E-02  -2.67449778E-08
  -1.95499994E-02  -2.79351013E-08
  -1.95000004E-02  -2.91611322E-08
  -1.94499996E-02  -3.04251877E-08
  -1.94000006E-02  -3.17261915E-08
  -1.93499997E-02  -3.30604415E-08
  -1.93000007E-02  -3.44233797E-08
  -1.92499999E-02  -3.58117376E-08
  -1.92000009E-02  -3.72251741E-08
  -1.91500001E-02  -3.86666237E-08
  -1.90999992E-02  -4.01412059E-08
  -1.90500002E-02  -4.16541610E-08
  -1.89999994E-02  -4.32087610E-08
  -1.89500004E-02  -4.48050557E-08
  -1.88999996E-02  -4.64401033E-08
  -1.88500006E-02  -4.81095235E-08
  -1.87999997E-02  -4.98097457E-08
  -1.87500007E-02  -5.15399314E-08
  -1.86999999E-02  -5.33027453E-08
  -1.86500009E-02  -5.51035484E-08
  -1.86000001E-02  -5.69484619E-08
  -1.85499992E-02  -5.88420761E-08
  -1.85000002E-02  -6.07858581E-08
  -1.84499994E-02  -6.27779642E-08
  -1.84000004E-02  -6.48145289E-08
  -1.83499996E-02  -6.68919498E-08
  -1.83000006E-02  -6.90090474E-08
  -1.82499997E-02  -7.11682020E-08
  -1.82000007E-02  -7.33749914E-08
  -1.81499999E-02  -7.56363505E-08
  -1.81000009E-02  -7.79582550E-08
  -1.80500001E-02  -8.03437388E-08
  -1.79999992E-02  -8.27923330E-08
  -1.79500002E-02  -8.53010462E-08
  -1.78999994E-02  -8.78665105E-08
  -1.78500004E-02  -9.04873474E-08
  -1.77999996E-02  -9.31657169E-08
  -1.77500006E-02  -9.59073034E-08
  -1.76999997E-02  -9.87197950E-08
  -1.76500008E-02  -1.01610482E-07
  -1.75999999E-02  -1.04584025E-07
  -1.75500009E-02  -1.07641483E-07
  -1.75000001E-02  -1.10780910E-07
  -1.74499992E-02  -1.13999320E-07
  -1.74000002E-02  -1.17295187E-07
  -1.73499994E-02  -1.20670308E-07
  -1.73000004E-02  -1.24130239E-07
  -1.72499996E-02  -1.27683109E-07
  -1.72000006E-02  -1.31337288E-07
  -1.71499997E-02  -1.35098972E-07
  -1.71000008E-02  -1.38970805E-07
  -1.70499999E-02  -1.42952018E-07
  -1.70000009E-02  -1.47040197E-07
  -1.69500001E-02  -1.51233763E-07
  -1.68999992E-02  -1.55534153E-07
  -1.68500002E-02  -1.59946694E-07
  -1.67999994E-02  -1.64479758E-07
  -1.67500004E-02  -1.69142609E-07
  -1.66999996E-02  -1.73942880E-07
  -1.66500006E-02  -1.78884747E-07
  -1.65999997E-02  -1.83968751E-07
  -1.65500008E-02  -1.89193130E-07
  -1.64999999E-02  -1.94556378E-07
  -1.64500009E-02  -2.00059503E-07
  -1.64000001E-02  -2.05707394E-07
  -1.63499992E-02  -2.11508393E-07
  -1.63000003E-02  -2.17472319E-07
  -1.62499994E-02  -2.23608041E-07
  -1.62000004E-02  -2.29921255E-07
  -1.61499996E-02  -2.36413939E-07
  -1.61000006E-02  -2.43085225E-07
  -1.60499997E-02  -2.49933862E-07
  -1.60000008E-02  -2.56960618E-07
  -1.59499999E-02  -2.64169955E-07
  -1.59000009E-02  -2.71570229E-07
  -1.58500001E-02  -2.79171758E-07
  -1.57999992E-02  -2.86984658E-07
  -1.57500003E-02  -2.95016207E-07
  -1.56999994E-02  -3.03270014E-07
  -1.56500004E-02  -3.11746390E-07
  -1.55999996E-02  -3.20444599E-07
  -1.55499997E-02  -3.29365378E-07
  -1.54999997E-02  -3.38512933E-07
  -1.54499998E-02  -3.47895451E-07
  -1.53999999E-02  -3.57523845E-07
  -1.53500000E-02  -3.67409285E-07
  -1.53000001E-02  -3.77560838E-07
  -1.52500002E-02  -3.87983988E-07
  -1.52000003E-02  -3.98680641E-07
  -1.51500003E-02  -4.09651193E-07
  -1.51000004E-02  -4.20896754E-07
  -1.50499996E-02  -4.32421729E-07
  -1.49999997E-02  -4.44234502E-07
  -1.49499997E-02  -4.56346697E-07
  -1.48999998E-02  -4.68770907E-07
  -1.48499999E-02  -4.81518157E-07
  -1.48000000E-02  -4.94596065E-07
  -1.47500001E-02  -5.08008668E-07
  -1.47000002E-02  -5.21757954E-07
  -1.46500003E-02  -5.35846141E-07
  -1.46000003E-02  -5.50278116E-07
  -1.45500004E-02  -5.65062805E-07
  -1.44999996E-02  -5.80212600E-07
  -1.44499997E-02  -5.95741710E-07
  -1.43999998E-02  -6.11663211E-07
  -1.43499998E-02  -6.27987333E-07
  -1.42999999E-02  -6.44720785E-07
  -1.42500000E-02  -6.61867773E-07
  -1.42000001E-02  -6.79431878E-07
  -1.41500002E-02  -6.97419352E-07
  -1.41000003E-02  -7.15839803E-07
  -1.40500003E-02  -7.34706930E-07
  -1.40000004E-02  -7.54036705E-07
  -1.39499996E-02  -7.73844761E-07
  -1.38999997E-02  -7.94144228E-07
  -1.38499998E-02  -8.14944940E-07
  -1.37999998E-02  -8.36253491E-07
  -1.37499999E-02  -8.58075850E-07
  -1.37000000E-02  -8.80419464E-07
  -1.36500001E-02  -9.03295472E-07
  -1.36000002E-02  -9.26718826E-07
  -1.35500003E-02  -9.50707317E-07
  -1.35000004E-02  -9.75279136E-07
  -1.34500004E-02  -1.00045031E-06
  -1.33999996E-02  -1.02623403E-06
  -1.33499997E-02  -1.05263996E-06
  -1.32999998E-02  -1.07967662E-06
  -1.32499998E-02  -1.10735346E-06
  -1.31999999E-02  -1.13568296E-06
  -1.31500000E-02  -1.16468186E-06
  -1.31000001E-02  -1.19436982E-06
  -1.30500002E-02  -1.22476740E-06
  -1.30000003E-02  -1.25589395E-06
  -1.29500004E-02  -1.28776571E-06
  -1.29000004E-02  -1.32039600E-06
  -1.28499996E-02  -1.35379616E-06
  -1.27999997E-02  -1.38797805E-06
  -1.27499998E-02  -1.42295596E-06
  -1.26999998E-02  -1.45874787E-06
  -1.26499999E-02  -1.49537527E-06
  -1.26000000E-02  -1.53286112E-06
  -1.25500001E-02  -1.57122759E-06
  -1.25000002E-02  -1.61049468E-06
  -1.24500003E-02  -1.65067900E-06
  -1.24000004E-02  -1.69179464E-06
  -1.23500004E-02  -1.73385627E-06
  -1.22999996E-02  -1.77687980E-06
  -1.22499997E-02  -1.82088502E-06
  -1.21999998E-02  -1.86589523E-06
  -1.21499998E-02  -1.91193590E-06
  -1.20999999E-02  -1.95903249E-06
  -1.20500000E-02  -2.00720842E-06
  -1.20000001E-02  -2.05648371E-06
  -1.19500002E-02  -2.10687608E-06
  -1.19000003E-02  -2.15840282E-06
  -1.18500004E-02  -2.21108166E-06
  -1.18000004E-02  -2.26493444E-06
  -1.17499996E-02  -2.31998592E-06
  -1.16999997E-02  -2.37626477E-06
  -1.16499998E-02  -2.43379827E-06
  -1.15999999E-02  -2.49261348E-06
  -1.15499999E-02  -2.55273380E-06
  -1.15000000E-02  -2.61418086E-06
  -1.14500001E-02  -2.67697396E-06
  -1.14000002E-02  -2.74113472E-06
  -1.13500003E-02  -2.80668678E-06
  -1.13000004E-02  -2.87365719E-06
  -1.12500004E-02  -2.94207643E-06
  -1.11999996E-02  -3.01197565E-06
  -1.11499997E-02  -3.08338485E-06
  -1.10999998E-02  -3.15633110E-06
  -1.10499999E-02  -3.23083987E-06
  -1.09999999E-02  -3.30693433E-06
  -1.09500000E-02  -3.38463792E-06
  -1.09000001E-02  -3.46397701E-06
  -1.08500002E-02  -3.54498093E-06
  -1.08000003E-02  -3.62768219E-06
  -1.07500004E-02  -3.71211490E-06
  -1.07000005E-02  -3.79831249E-06
  -1.06499996E-02  -3.88630679E-06
  -1.05999997E-02  -3.97612712E-06
  -1.05499998E-02  -4.06780009E-06
  -1.04999999E-02  -4.16135254E-06
  -1.04499999E-02  -4.25681401E-06
  -1.04000000E-02  -4.35421543E-06
  -1.03500001E-02  -4.45359319E-06
  -1.03000002E-02  -4.55498412E-06
  -1.02500003E-02  -4.65842550E-06
  -1.02000004E-02  -4.76395326E-06
  -1.01500005E-02  -4.87160014E-06
  -1.00999996E-02  -4.98139798E-06
  -1.00499997E-02  -5.09337724E-06
  -9.99999978E-03  -5.20756930E-06
  -9.94999986E-03  -5.32401009E-06
  -9.89999995E-03  -5.44273644E-06
  -9.85000003E-03  -5.56378927E-06
  -9.80000012E-03  -5.68720998E-06
  -9.75000020E-03  -5.81303811E-06
  -9.70000029E-03  -5.94131188E-06
  -9.65000037E-03  -6.07206721E-06
  -9.60000046E-03  -6.20533729E-06
  -9.54999961E-03  -6.34115759E-06
  -9.49999969E-03  -6.47956585E-06
  -9.44999978E-03  -6.62060256E-06
  -9.39999986E-03  -6.76431227E-06
  -9.34999995E-03  -6.91073910E-06
  -9.30000003E-03  -7.05992852E-06
  -9.25000012E-03  -7.21192237E-06
  -9.20000020E-03  -7.36676020E-06
  -9.15000029E-03  -7.52447977E-06
  -9.10000037E-03  -7.68512109E-06
  -9.05000046E-03  -7.84872373E-06
  -8.99999961E-03  -8.01533315E-06
  -8.94999970E-03  -8.18499393E-06
  -8.89999978E-03  -8.35775336E-06
  -8.84999987E-03  -8.53366146E-06
  -8.79999995E-03  -8.71276461E-06
  -8.75000004E-03  -8.89510648E-06
  -8.70000012E-03  -9.08072889E-06
  -8.65000021E-03  -9.26967459E-06
  -8.60000029E-03  -9.46198543E-06
  -8.55000038E-03  -9.65770960E-06
  -8.50000046E-03  -9.85689621E-06
  -8.44999962E-03  -1.00595953E-05
  -8.39999970E-03  -1.02658587E-05
  -8.34999979E-03  -1.04757373E-05
  -8.29999987E-03  -1.06892785E-05
  -8.24999996E-03  -1.09065295E-05
  -8.20000004E-03  -1.11275340E-05
  -8.15000013E-03  -1.13523374E-05
  -8.10000021E-03  -1.15809871E-05
  -8.05000030E-03  -1.18135349E-05
  -8.00000038E-03  -1.20500354E-05
  -7.95000046E-03  -1.22905421E-05
  -7.89999962E-03  -1.25351080E-05
  -7.84999970E-03  -1.27837848E-05
  -7.79999979E-03  -1.30366197E-05
  -7.74999987E-03  -1.32936602E-05
  -7.69999996E-03  -1.35549553E-05
  -7.65000004E-03  -1.38205532E-05
  -7.60000013E-03  -1.40905058E-05
  -7.55000021E-03  -1.43648695E-05
  -7.49999983E-03  -1.46436996E-05
  -7.44999992E-03  -1.49270545E-05
  -7.40000000E-03  -1.52149887E-05
  -7.35000009E-03  -1.55075522E-05
  -7.30000017E-03  -1.58047915E-05
  -7.24999979E-03  -1.61067601E-05
  -7.19999988E-03  -1.64135017E-05
  -7.14999996E-03  -1.67250710E-05
  -7.10000005E-03  -1.70415260E-05
  -7.05000013E-03  -1.73629214E-05
  -7.00000022E-03  -1.76893172E-05
  -6.94999984E-03  -1.80207680E-05
  -6.89999992E-03  -1.83573266E-05
  -6.85000001E-03  -1.86990401E-05
  -6.80000009E-03  -1.90459577E-05
  -6.75000018E-03  -1.93981286E-05
  -6.69999979E-03  -1.97556037E-05
  -6.64999988E-03  -2.01184412E-05
  -6.59999996E-03  -2.04866992E-05
  -6.55000005E-03  -2.08604306E-05
  -6.50000013E-03  -2.12396935E-05
  -6.45000022E-03  -2.16245426E-05
  -6.39999984E-03  -2.20150250E-05
  -6.34999992E-03  -2.24111864E-05
  -6.30000001E-03  -2.28130757E-05
  -6.25000009E-03  -2.32207440E-05
  -6.20000018E-03  -2.36342457E-05
  -6.14999980E-03  -2.40536301E-05
  -6.09999988E-03  -2.44789571E-05
  -6.04999997E-03  -2.49102832E-05
  -6.00000005E-03  -2.53476555E-05
  -5.95000014E-03  -2.57911252E-05
  -5.90000022E-03  -2.62407357E-05
  -5.84999984E-03  -2.66965271E-05
  -5.79999993E-03  -2.71585450E-05
  -5.75000001E-03  -2.76268383E-05
  -5.70000010E-03  -2.81014582E-05
  -5.65000018E-03  -2.85824535E-05
  -5.59999980E-03  -2.90698808E-05
  -5.54999989E-03  -2.95637874E-05
  -5.49999997E-03  -3.00642132E-05
  -5.45000006E-03  -3.05712019E-05
  -5.40000014E-03  -3.10847863E-05
  -5.35000023E-03  -3.16050100E-05
  -5.29999984E-03  -3.21319130E-05
  -5.24999993E-03  -3.26655354E-05
  -5.20000001E-03  -3.32059208E-05
  -5.15000010E-03  -3.37531164E-05
  -5.10000018E-03  -3.43071661E-05
  -5.04999980E-03  -3.48681097E-05
  -4.99999989E-03  -3.54359800E-05
  -4.94999997E-03  -3.60108061E-05
  -4.90000006E-03  -3.65926098E-05
  -4.85000014E-03  -3.71814240E-05
  -4.80000023E-03  -3.77772885E-05
  -4.74999985E-03  -3.83802253E-05
  -4.69999993E-03  -3.89902743E-05
  -4.65000002E-03  -3.96074647E-05
  -4.60000010E-03  -4.02318292E-05
  -4.55000019E-03  -4.08633859E-05
  -4.49999981E-03  -4.15021605E-05
  -4.44999989E-03  -4.21481673E-05
  -4.39999998E-03  -4.28014173E-05
  -4.35000006E-03  -4.34619287E-05
  -4.30000015E-03  -4.41297198E-05
  -4.25000023E-03  -4.48048086E-05
  -4.19999985E-03  -4.54872170E-05
  -4.14999994E-03  -4.61769632E-05
  -4.10000002E-03  -4.68740545E-05
  -4.05000011E-03  -4.75784982E-05
  -4.00000019E-03  -4.82902797E-05
  -3.94999981E-03  -4.90094171E-05
  -3.89999989E-03  -4.97359033E-05
  -3.84999998E-03  -5.04697273E-05
  -3.80000006E-03  -5.12108927E-05
  -3.74999992E-03  -5.19594032E-05
  -3.70000000E-03  -5.27152552E-05
  -3.65000009E-03  -5.34784376E-05
  -3.59999994E-03  -5.42489361E-05
  -3.55000002E-03  -5.50267359E-05
  -3.50000011E-03  -5.58118008E-05
  -3.44999996E-03  -5.66041126E-05
  -3.40000005E-03  -5.74036494E-05
  -3.34999990E-03  -5.82103894E-05
  -3.29999998E-03  -5.90243035E-05
  -3.25000007E-03  -5.98453589E-05
  -3.19999992E-03  -6.06735266E-05
  -3.15000000E-03  -6.15087702E-05
  -3.10000009E-03  -6.23510496E-05
  -3.04999994E-03  -6.32003139E-05
  -3.00000003E-03  -6.40565122E-05
  -2.95000011E-03  -6.49195863E-05
  -2.89999996E-03  -6.57894852E-05
  -2.85000005E-03  -6.66661581E-05
  -2.79999990E-03  -6.75495467E-05
  -2.74999999E-03  -6.84396000E-05
  -2.70000007E-03  -6.93362454E-05
  -2.64999992E-03  -7.02394100E-05
  -2.60000001E-03  -7.11490138E-05
  -2.55000009E-03  -7.20649768E-05
  -2.49999994E-03  -7.29871972E-05
  -2.45000003E-03  -7.39156094E-05
  -2.40000011E-03  -7.48500970E-05
  -2.34999997E-03  -7.57905873E-05
  -2.30000005E-03  -7.67369856E-05
  -2.24999990E-03  -7.76892048E-05
  -2.19999999E-03  -7.86471428E-05
  -2.15000007E-03  -7.96106688E-05
  -2.09999993E-03  -8.05796590E-05
  -2.05000001E-03  -8.15539825E-05
  -2.00000009E-03  -8.25335228E-05
  -1.94999995E-03  -8.35181345E-05
  -1.90000003E-03  -8.45077084E-05
  -1.85000000E-03  -8.55021208E-05
  -1.79999997E-03  -8.65012335E-05
  -1.75000005E-03  -8.75049154E-05
  -1.70000002E-03  -8.85129921E-05
  -1.64999999E-03  -8.95252961E-05
  -1.59999996E-03  -9.05416528E-05
  -1.55000004E-03  -9.15618875E-05
  -1.50000001E-03  -9.25858112E-05
  -1.44999998E-03  -9.36132783E-05
  -1.39999995E-03  -9.46441214E-05
  -1.35000004E-03  -9.56781732E-05
  -1.30000000E-03  -9.67152519E-05
  -1.24999997E-03  -9.77551317E-05
  -1.20000006E-03  -9.87976018E-05
  -1.15000003E-03  -9.98424439E-05
  -1.09999999E-03  -1.00889418E-04
  -1.04999996E-03  -1.01938305E-04
  -1.00000005E-03  -1.02988888E-04
  -9.50000016E-04  -1.04040948E-04
  -8.99999985E-04  -1.05094281E-04
  -8.50000011E-04  -1.06148647E-04
  -7.99999980E-04  -1.07203814E-04
  -7.50000007E-04  -1.08259483E-04
  -6.99999975E-04  -1.09315391E-04
  -6.50000002E-04  -1.10371242E-04
  -6.00000028E-04  -1.11426729E-04
  -5.49999997E-04  -1.12481597E-04
  -5.00000024E-04  -1.13535585E-04
  -4.49999992E-04  -1.14588431E-04
  -3.99999990E-04  -1.15639858E-04
  -3.49999988E-04  -1.16689567E-04
  -3.00000014E-04  -1.17737240E-04
  -2.50000012E-04  -1.18782496E-04
  -1.99999995E-04  -1.19824996E-04
  -1.50000007E-04  -1.20864373E-04
  -9.99999975E-05  -1.21900310E-04
  -4.99999987E-05  -1.22932484E-04
   0.00000000      -1.23960577E-04
   4.99999987E-05  -1.24984275E-04
   9.99999975E-05  -1.26003200E-04
   1.50000007E-04  -1.27016989E-04
   1.99999995E-04  -1.28025174E-04
   2.50000012E-04  -1.29027379E-04
   3.00000014E-04  -1.30023152E-04
   3.49999988E-04  -1.31012101E-04
   3.99999990E-04  -1.31993860E-04
   4.49999992E-04  -1.32968053E-04
   5.00000024E-04  -1.33934300E-04
   5.49999997E-04  -1.34892165E-04
   6.00000028E-04  -1.35841197E-04
   6.50000002E-04  -1.36780931E-04
   6.99999975E-04  -1.37710857E-04
   7.50000007E-04  -1.38630494E-04
   7.99999980E-04  -1.39539363E-04
   8.50000011E-04  -1.40437012E-04
   8.99999985E-04  -1.41323006E-04
   9.50000016E-04  -1.42196877E-04
   1.00000005E-03  -1.43058191E-04
   1.04999996E-03  -1.43906378E-04
   1.09999999E-03  -1.44740945E-04
   1.15000003E-03  -1.45561309E-04
   1.20000006E-03  -1.46366874E-04
   1.24999997E-03  -1.47157116E-04
   1.30000000E-03  -1.47931525E-04
   1.35000004E-03  -1.48689564E-04
   1.39999995E-03  -1.49430751E-04
   1.44999998E-03  -1.50154519E-04
   1.50000001E-03  -1.50860316E-04
   1.55000004E-03  -1.51547531E-04
   1.59999996E-03  -1.52215522E-04
   1.64999999E-03  -1.52863649E-04
   1.70000002E-03  -1.53491288E-04
   1.75000005E-03  -1.54097826E-04
   1.79999997E-03  -1.54682682E-04
   1.85000000E-03  -1.55245260E-04
   1.90000003E-03  -1.55785005E-04
   1.94999995E-03  -1.56301277E-04
   2.00000009E-03  -1.56793394E-04
   2.05000001E-03  -1.57260671E-04
   2.09999993E-03  -1.57702380E-04
   2.15000007E-03  -1.58117808E-04
   2.19999999E-03  -1.58506286E-04
   2.24999990E-03  -1.58867129E-04
   2.30000005E-03  -1.59199699E-04
   2.34999997E-03  -1.59503368E-04
   2.40000011E-03  -1.59777468E-04
   2.45000003E-03  -1.60021256E-04
   2.49999994E-03  -1.60233976E-04
   2.55000009E-03  -1.60414798E-04
   2.60000001E-03  -1.60562980E-04
   2.64999992E-03  -1.60677751E-04
   2.70000007E-03  -1.60758384E-04
   2.74999999E-03  -1.60804149E-04
   2.79999990E-03  -1.60814350E-04