  -3.99999991E-02   0.00000000    
  -3.99499983E-02   0.00000000    
  -3.99000011E-02   0.00000000    
  -3.98500003E-02   0.00000000    
  -3.97999994E-02  -1.17398371E-19
  -3.97499986E-02  -1.00293499E-18
  -3.97000015E-02  -4.49533496E-18
  -3.96500006E-02  -1.40536365E-17
  -3.95999998E-02  -3.46957235E-17
  -3.95499989E-02  -7.30765896E-17
  -3.95000018E-02  -1.38527858E-16
  -3.94500010E-02  -2.44114234E-16
  -3.94000001E-02  -4.04773620E-16
  -3.93499993E-02  -6.31120226E-16
  -3.92999984E-02  -9.22919688E-16
  -3.92500013E-02  -1.26987275E-15
  -3.92000005E-02  -1.66290461E-15
  -3.91499996E-02  -2.10888398E-15
  -3.90999988E-02  -2.63640762E-15
  -3.90500017E-02  -3.28743990E-15
  -3.90000008E-02  -4.10257909E-15
  -3.89500000E-02  -5.11180403E-15
  -3.88999991E-02  -6.33300785E-15
  -3.88499983E-02  -7.77025505E-15
  -3.88000011E-02  -9.40758159E-15
  -3.87500003E-02  -1.12084499E-14
  -3.86999995E-02  -1.31343741E-14
  -3.86499986E-02  -1.51774498E-14
  -3.86000015E-02  -1.73784649E-14
  -3.85500006E-02  -1.98054226E-14
  -3.84999998E-02  -2.25013981E-14
  -3.84499989E-02  -2.54421508E-14
  -3.84000018E-02  -2.85366078E-14
  -3.83500010E-02  -3.16622406E-14
  -3.83000001E-02  -3.46977289E-14
  -3.82499993E-02  -3.75299699E-14
  -3.81999984E-02  -4.00510618E-14
  -3.81500013E-02  -4.21726388E-14
  -3.81000005E-02  -4.38533589E-14
  -3.80499996E-02  -4.51012518E-14
  -3.79999988E-02  -4.59274173E-14
  -3.79500017E-02  -4.62821276E-14
  -3.79000008E-02  -4.60340215E-14
  -3.78500000E-02  -4.50132824E-14
  -3.77999991E-02  -4.30697822E-14
  -3.77499983E-02  -4.00785328E-14
  -3.77000012E-02  -3.58872613E-14
  -3.76500003E-02  -3.02742010E-14
  -3.75999995E-02  -2.29795532E-14
  -3.75499986E-02  -1.37902275E-14
  -3.75000015E-02  -2.59048933E-15
  -3.74500006E-02   1.06783563E-14
  -3.73999998E-02   2.61089859E-14
  -3.73499990E-02   4.38783531E-14
  -3.73000018E-02   6.42165357E-14
  -3.72500010E-02   8.73396407E-14
  -3.72000001E-02   1.13404579E-13
  -3.71499993E-02   1.42474438E-13
  -3.70999984E-02   1.74436637E-13
  -3.70500013E-02   2.08880493E-13
  -3.70000005E-02   2.45055983E-13
  -3.69499996E-02   2.82048717E-13
  -3.68999988E-02   3.19153964E-13
  -3.68500017E-02   3.56238801E-13
  -3.68000008E-02   3.93840830E-13
  -3.67500000E-02   4.32916778E-13
  -3.66999991E-02   4.74377373E-13
  -3.66499983E-02   5.18635157E-13
  -3.66000012E-02   5.65322312E-13
  -3.65500003E-02   6.13235753E-13
  -3.64999995E-02   6.60537759E-13
  -3.64499986E-02   7.05226676E-13
  -3.64000015E-02   7.45774644E-13
  -3.63500006E-02   7.81634685E-13
  -3.62999998E-02   8.13251105E-13
  -3.62499990E-02   8.41439494E-13
  -3.62000018E-02   8.66425963E-13
  -3.61500010E-02   8.87119263E-13
  -3.61000001E-02   9.01088774E-13
  -3.60499993E-02   9.05294123E-13
  -3.59999985E-02   8.97203806E-13
  -3.59500013E-02   8.75785284E-13
  -3.59000005E-02   8.41949720E-13
  -3.58499996E-02   7.98222436E-13
  -3.57999988E-02   7.47629172E-13
  -3.57500017E-02   6.92085386E-13
  -3.57000008E-02   6.30939420E-13
  -3.56500000E-02   5.60501190E-13
  -3.55999991E-02   4.75075816E-13
  -3.55499983E-02   3.69245243E-13
  -3.55000012E-02   2.40344013E-13
  -3.54500003E-02   8.98347897E-14
  -3.53999995E-02  -7.71872258E-14
  -3.53499986E-02  -2.54190711E-13
  -3.53000015E-02  -4.36143065E-13
  -3.52500007E-02  -6.21915876E-13
  -3.51999998E-02  -8.15101459E-13
  -3.51499990E-02  -1.02271436E-12
  -3.51000018E-02  -1.25204393E-12
  -3.50500010E-02  -1.50679794E-12
  -3.50000001E-02  -1.78430675E-12
  -3.49499993E-02  -2.07538934E-12
  -3.48999985E-02  -2.36735436E-12
  -3.48500013E-02  -2.64895636E-12
  -3.48000005E-02  -2.91496102E-12
  -3.47499996E-02  -3.16800861E-12
  -3.46999988E-02  -3.41677164E-12
  -3.46500017E-02  -3.67115192E-12
  -3.46000008E-02  -3.93660668E-12
  -3.45500000E-02  -4.21010189E-12
  -3.44999991E-02  -4.47960939E-12
  -3.44499983E-02  -4.72772906E-12
  -3.44000012E-02  -4.93823602E-12
  -3.43500003E-02  -5.10278321E-12
  -3.42999995E-02  -5.22443633E-12
  -3.42499986E-02  -5.31583371E-12
  -3.42000015E-02  -5.39231333E-12
  -3.41500007E-02  -5.46302543E-12
  -3.40999998E-02  -5.52434530E-12
  -3.40499990E-02  -5.55898079E-12
  -3.40000018E-02  -5.54152297E-12
  -3.39500010E-02  -5.44819355E-12
  -3.39000002E-02  -5.26660009E-12
  -3.38499993E-02  -5.00110717E-12
  -3.37999985E-02  -4.67106345E-12
  -3.37500013E-02  -4.30203356E-12
  -3.37000005E-02  -3.91341126E-12
  -3.36499996E-02  -3.50795521E-12
  -3.35999988E-02  -3.06856081E-12
  -3.35500017E-02  -2.56458743E-12
  -3.35000008E-02  -1.96544148E-12
  -3.34500000E-02  -1.25531259E-12
  -3.33999991E-02  -4.42000738E-13
  -3.33499983E-02   4.44639822E-13
  -3.33000012E-02   1.36437996E-12
  -3.32500003E-02   2.28354813E-12
  -3.31999995E-02   3.18981386E-12
  -3.31499986E-02   4.09802791E-12
  -3.31000015E-02   5.04383254E-12
  -3.30500007E-02   6.06698285E-12
  -3.29999998E-02   7.19125324E-12
  -3.29499990E-02   8.41012416E-12
  -3.29000019E-02   9.68552061E-12
  -3.28500010E-02   1.09610758E-11
  -3.28000002E-02   1.21843369E-11
  -3.27499993E-02   1.33276775E-11
  -3.26999985E-02   1.43979828E-11
  -3.26500013E-02   1.54302023E-11
  -3.26000005E-02   1.64673275E-11
  -3.25499997E-02   1.75355269E-11
  -3.24999988E-02   1.86257138E-11
  -3.24500017E-02   1.96903986E-11
  -3.24000008E-02   2.06584316E-11
  -3.23500000E-02   2.14621220E-11
  -3.22999991E-02   2.20648950E-11
  -3.22499983E-02   2.24763437E-11
  -3.22000012E-02   2.27465321E-11
  -3.21500003E-02   2.29409425E-11
  -3.20999995E-02   2.31069608E-11
  -3.20499986E-02   2.32474023E-11
  -3.20000015E-02   2.33136566E-11
  -3.19500007E-02   2.32223355E-11
  -3.18999998E-02   2.28886510E-11
  -3.18499990E-02   2.22621123E-11
  -3.18000019E-02   2.13485618E-11
  -3.17500010E-02   2.02078770E-11
  -3.17000002E-02   1.89269728E-11
  -3.16499993E-02   1.75791794E-11
  -3.15999985E-02   1.61881255E-11
  -3.15500014E-02   1.47135273E-11
  -3.15000005E-02   1.30667560E-11
  -3.14499997E-02   1.11502699E-11
  -3.13999988E-02   8.90328176E-12
  -3.13500017E-02   6.33267831E-12
  -3.13000008E-02   3.51462891E-12
  -3.12500000E-02   5.65411162E-13
  -3.11999992E-02  -2.40623081E-12
  -3.11500002E-02  -5.34436861E-12
  -3.10999993E-02  -8.26837123E-12
  -3.10500003E-02  -1.12613868E-11
  -3.09999995E-02  -1.44284515E-11
  -3.09500005E-02  -1.78421548E-11
  -3.08999997E-02  -2.15006641E-11
  -3.08500007E-02  -2.53184314E-11
  -3.07999998E-02  -2.91551713E-11
  -3.07500008E-02  -3.28707409E-11
  -3.07000000E-02  -3.63809885E-11
  -3.06499992E-02  -3.96887835E-11
  -3.06000002E-02  -4.28755711E-11
  -3.05499993E-02  -4.60564330E-11
  -3.05000003E-02  -4.93179768E-11
  -3.04499995E-02  -5.26664962E-11
  -3.04000005E-02  -5.60103595E-11
  -3.03499997E-02  -5.91864127E-11
  -3.03000007E-02  -6.20204513E-11
  -3.02499998E-02  -6.43954404E-11
  -3.02000009E-02  -6.62960867E-11
  -3.01500000E-02  -6.78082035E-11
  -3.00999992E-02  -6.90718593E-11
  -3.00500002E-02  -7.02088387E-11
  -2.99999993E-02  -7.12572432E-11
  -2.99500003E-02  -7.21429583E-11
  -2.98999995E-02  -7.27016364E-11
  -2.98500005E-02  -7.27423330E-11
  -2.97999997E-02  -7.21256943E-11
  -2.97500007E-02  -7.08222717E-11
  -2.96999998E-02  -6.89238874E-11
  -2.96500009E-02  -6.66012176E-11
  -2.96000000E-02  -6.40246120E-11
  -2.95499992E-02  -6.12833118E-11
  -2.95000002E-02  -5.83401244E-11
  -2.94499993E-02  -5.50432200E-11
  -2.94000003E-02  -5.11907149E-11
  -2.93499995E-02  -4.66194097E-11
  -2.93000005E-02  -4.12781961E-11
  -2.92499997E-02  -3.52533974E-11
  -2.92000007E-02  -2.87345512E-11
  -2.91499998E-02  -2.19350406E-11
  -2.91000009E-02  -1.50019198E-11
  -2.90500000E-02  -7.95515650E-12
  -2.89999992E-02  -6.84555006E-13
  -2.89500002E-02   6.99226831E-12
  -2.88999993E-02   1.52357484E-11
  -2.88500004E-02   2.40964193E-11
  -2.87999995E-02   3.34740534E-11
  -2.87500005E-02   4.31435859E-11
  -2.86999997E-02   5.28370438E-11
  -2.86500007E-02   6.23452748E-11
  -2.85999998E-02   7.15942652E-11
  -2.85500009E-02   8.06620951E-11
  -2.85000000E-02   8.97280444E-11
  -2.84499992E-02   9.89746826E-11
  -2.84000002E-02   1.08485006E-10
  -2.83499993E-02   1.18180299E-10
  -2.83000004E-02   1.27827887E-10
  -2.82499995E-02   1.37117831E-10
  -2.82000005E-02   1.45775308E-10
  -2.81499997E-02   1.53658877E-10
  -2.81000007E-02   1.60799804E-10
  -2.80499998E-02   1.67364261E-10
  -2.80000009E-02   1.73554907E-10
  -2.79500000E-02   1.79495224E-10
  -2.78999992E-02   1.85147148E-10
  -2.78500002E-02   1.90298846E-10
  -2.77999993E-02   1.94629368E-10
  -2.77500004E-02   1.97824215E-10
  -2.76999995E-02   1.99692318E-10
  -2.76500005E-02   2.00232969E-10
  -2.75999997E-02   1.99621139E-10
  -2.75500007E-02   1.98116037E-10
  -2.74999999E-02   1.95932229E-10
  -2.74500009E-02   1.93131219E-10
  -2.74000000E-02   1.89581364E-10
  -2.73499992E-02   1.85004803E-10
  -2.73000002E-02   1.79090798E-10
  -2.72499993E-02   1.71626172E-10
  -2.72000004E-02   1.62586916E-10
  -2.71499995E-02   1.52150195E-10
  -2.71000005E-02   1.40620030E-10
  -2.70499997E-02   1.28297262E-10
  -2.70000007E-02   1.15350028E-10
  -2.69499999E-02   1.01743253E-10
  -2.69000009E-02   8.72607125E-11
  -2.68500000E-02   7.16120011E-11
  -2.67999992E-02   5.45777104E-11
  -2.67500002E-02   3.61284197E-11
  -2.66999993E-02   1.64637817E-11
  -2.66500004E-02  -4.04604388E-12
  -2.65999995E-02  -2.49925653E-11
  -2.65500005E-02  -4.60780684E-11
  -2.64999997E-02  -6.72172804E-11
  -2.64500007E-02  -8.85454418E-11
  -2.63999999E-02  -1.10326505E-10
  -2.63500009E-02  -1.32798370E-10
  -2.63000000E-02  -1.56022459E-10
  -2.62499992E-02  -1.79805865E-10
  -2.62000002E-02  -2.03733405E-10
  -2.61499994E-02  -2.27298319E-10
  -2.61000004E-02  -2.50075821E-10
  -2.60499995E-02  -2.71862644E-10
  -2.60000005E-02  -2.92721347E-10
  -2.59499997E-02  -3.12908560E-10
  -2.59000007E-02  -3.32716604E-10
  -2.58499999E-02  -3.52294333E-10
  -2.58000009E-02  -3.71526726E-10
  -2.57500000E-02  -3.90026844E-10
  -2.56999992E-02  -4.07248263E-10
  -2.56500002E-02  -4.22671786E-10
  -2.55999994E-02  -4.35985414E-10
  -2.55500004E-02  -4.47176740E-10
  -2.54999995E-02  -4.56494370E-10
  -2.54500005E-02  -4.64293409E-10
  -2.53999997E-02  -4.70833428E-10
  -2.53500007E-02  -4.76117534E-10
  -2.52999999E-02  -4.79846163E-10
  -2.52500009E-02  -4.81506557E-10
  -2.52000000E-02  -4.80563311E-10
  -2.51499992E-02  -4.76666984E-10
  -2.51000002E-02  -4.69789430E-10
  -2.50499994E-02  -4.60223165E-10
  -2.50000004E-02  -4.48438675E-10
  -2.49499995E-02  -4.34860425E-10
  -2.49000005E-02  -4.19660390E-10
  -2.48499997E-02  -4.02664513E-10
  -2.48000007E-02  -3.83416549E-10
  -2.47499999E-02  -3.61374070E-10
  -2.47000009E-02  -3.36151301E-10
  -2.46500000E-02  -3.07700532E-10
  -2.45999992E-02  -2.76351469E-10
  -2.45500002E-02  -2.42687009E-10
  -2.44999994E-02  -2.07307088E-10
  -2.44500004E-02  -1.70582909E-10
  -2.43999995E-02  -1.32511335E-10
  -2.43500005E-02  -9.27399338E-11
  -2.42999997E-02  -5.07577140E-11
  -2.42500007E-02  -6.16938315E-12
  -2.41999999E-02   4.10695818E-11
  -2.41500009E-02   9.05657285E-11
  -2.41000000E-02   1.41591586E-10
  -2.40499992E-02   1.93337291E-10
  -2.40000002E-02   2.45200804E-10
  -2.39499994E-02   2.96987629E-10
  -2.39000004E-02   3.48930190E-10
  -2.38499995E-02   4.01514683E-10
  -2.38000005E-02   4.55186472E-10
  -2.37499997E-02   5.10063825E-10
  -2.37000007E-02   5.65788472E-10
  -2.36499999E-02   6.21585006E-10
  -2.36000009E-02   6.76508793E-10
  -2.35500000E-02   7.29772465E-10
  -2.34999992E-02   7.81002762E-10
  -2.34500002E-02   8.30310709E-10
  -2.33999994E-02   8.78141504E-10
  -2.33500004E-02   9.24969601E-10
  -2.32999995E-02   9.70974967E-10
  -2.32500006E-02   1.01584796E-09
  -2.31999997E-02   1.05880893E-09
  -2.31500007E-02   1.09884368E-09
  -2.30999999E-02   1.13505050E-09
  -2.30500009E-02   1.16694643E-09
  -2.30000000E-02   1.19459198E-09
  -2.29499992E-02   1.21846933E-09
  -2.29000002E-02   1.23916821E-09
  -2.28499994E-02   1.25701827E-09
  -2.28000004E-02   1.27183886E-09
  -2.27499995E-02   1.28292033E-09
  -2.27000006E-02   1.28925037E-09
  -2.26499997E-02   1.28988442E-09
  -2.26000007E-02   1.28429556E-09
  -2.25499999E-02   1.27254751E-09
  -2.25000009E-02   1.25520672E-09
  -2.24500000E-02   1.23303034E-09
  -2.23999992E-02   1.20656318E-09
  -2.23500002E-02   1.17582555E-09
  -2.22999994E-02   1.14023857E-09
  -2.22500004E-02   1.09882570E-09
  -2.21999995E-02   1.05060294E-09
  -2.21500006E-02   9.94982652E-10
  -2.20999997E-02   9.32004030E-10
  -2.20500007E-02   8.62287408E-10
  -2.19999999E-02   7.86733068E-10
  -2.19500009E-02   7.06095238E-10
  -2.19000001E-02   6.20625606E-10
  -2.18499992E-02   5.29943811E-10
  -2.18000002E-02   4.33199088E-10
  -2.17499994E-02   3.29455019E-10
  -2.17000004E-02   2.18124060E-10
  -2.16499995E-02   9.92544727E-11
  -2.16000006E-02  -2.64654548E-11
  -2.15499997E-02  -1.57993368E-10
  -2.15000007E-02  -2.94378799E-10
  -2.14499999E-02  -4.35166153E-10
  -2.14000009E-02  -5.80570148E-10
  -2.13500001E-02  -7.31347038E-10
  -2.12999992E-02  -8.88416840E-10
  -2.12500002E-02  -1.05240794E-09
  -2.11999994E-02  -1.22332944E-09
  -2.11500004E-02  -1.40051859E-09
  -2.10999995E-02  -1.58289282E-09
  -2.10500006E-02  -1.76939385E-09
  -2.09999997E-02  -1.95942818E-09
  -2.09500007E-02  -2.15308948E-09
  -2.08999999E-02  -2.35106978E-09
  -2.08500009E-02  -2.55428678E-09
  -2.08000001E-02  -2.76340240E-09
  -2.07499992E-02  -2.97846103E-09
  -2.07000002E-02  -3.19880389E-09
  -2.06499994E-02  -3.42330542E-09
  -2.06000004E-02  -3.65081743E-09
  -2.05499995E-02  -3.88064247E-09
  -2.05000006E-02  -4.11279988E-09
  -2.04499997E-02  -4.34798331E-09
  -2.04000007E-02  -4.58720262E-09
  -2.03499999E-02  -4.83128648E-09
  -2.03000009E-02  -5.08046627E-09
  -2.02500001E-02  -5.33422861E-09
  -2.01999992E-02  -5.59151303E-09
  -2.01500002E-02  -5.85115512E-09
  -2.00999994E-02  -6.11238260E-09
  -2.00500004E-02  -6.37512798E-09
  -1.99999996E-02  -6.64002719E-09
  -1.99500006E-02  -6.90809943E-09
  -1.98999997E-02  -7.18026083E-09
  -1.98500007E-02  -7.45689377E-09
  -1.97999999E-02  -7.73765052E-09
  -1.97500009E-02  -8.02161004E-09
  -1.97000001E-02  -8.30768698E-09
  -1.96499992E-02  -8.59514770E-09
  -1.96000002E-02  -8.88395402E-09
  -1.95499994E-02  -9.17480669E-09
  -1.95000004E-02  -9.46883905E-09
  -1.94499996E-02  -9.76713110E-09
  -1.94000006E-02  -1.00702575E-08
  -1.93499997E-02  -1.03780771E-08
  -1.93000007E-02  -1.06898499E-08
  -1.92499999E-02  -1.10046301E-08
  -1.92000009E-02  -1.13217702E-08
  -1.91500001E-02  -1.16412942E-08
  -1.90999992E-02  -1.19639800E-08
  -1.90500002E-02  -1.22910855E-08
  -1.89999994E-02  -1.26238806E-08
  -1.89500004E-02  -1.29631621E-08
  -1.88999996E-02  -1.33089904E-08
  -1.88500006E-02  -1.36607960E-08
  -1.87999997E-02  -1.40177736E-08
  -1.87500007E-02  -1.43793795E-08
  -1.86999999E-02  -1.47457371E-08
  -1.86500009E-02  -1.51177328E-08
  -1.86000001E-02  -1.54967807E-08
  -1.85499992E-02  -1.58843694E-08
  -1.85000002E-02  -1.62815788E-08
  -1.84499994E-02  -1.66887855E-08
  -1.84000004E-02  -1.71056946E-08
  -1.83499996E-02  -1.75317005E-08
  -1.83000006E-02  -1.79663981E-08
  -1.82499997E-02  -1.84100220E-08
  -1.82000007E-02  -1.88635862E-08
  -1.81499999E-02  -1.93286738E-08
  -1.81000009E-02  -1.98069721E-08
  -1.80500001E-02  -2.02997921E-08
  -1.79999992E-02  -2.08077928E-08
  -1.79500002E-02  -2.13309583E-08
  -1.78999994E-02  -2.18689191E-08
  -1.78500004E-02  -2.24214372E-08
  -1.77999996E-02  -2.29888535E-08
  -1.77500006E-02  -2.35722943E-08
  -1.76999997E-02  -2.41734934E-08
  -1.76500008E-02  -2.47943550E-08
  -1.75999999E-02  -2.54364618E-08
  -1.75500009E-02  -2.61007553E-08
  -1.75000001E-02  -2.67875304E-08
  -1.74499992E-02  -2.74967515E-08
  -1.74000002E-02  -2.82284969E-08
  -1.73499994E-02  -2.89834041E-08
  -1.73000004E-02  -2.97628659E-08
  -1.72499996E-02  -3.05688559E-08
  -1.72000006E-02  -3.14035518E-08
  -1.71499997E-02  -3.22688223E-08
  -1.71000008E-02  -3.31658896E-08
  -1.70499999E-02  -3.40952369E-08
  -1.70000009E-02  -3.50569493E-08
  -1.69500001E-02  -3.60511940E-08
  -1.68999992E-02  -3.70787099E-08
  -1.68500002E-02  -3.81410139E-08
  -1.67999994E-02  -3.92402768E-08
  -1.67500004E-02  -4.03789038E-08
  -1.66999996E-02  -4.15590513E-08
  -1.66500006E-02  -4.27822862E-08
  -1.65999997E-02  -4.40494858E-08
  -1.65500008E-02  -4.53610660E-08
  -1.64999999E-02  -4.67174246E-08
  -1.64500009E-02  -4.81194640E-08
  -1.64000001E-02  -4.95688219E-08
  -1.63499992E-02  -5.10678220E-08
  -1.63000003E-02  -5.26190753E-08
  -1.62499994E-02  -5.42249303E-08
  -1.62000004E-02  -5.58870887E-08
  -1.61499996E-02  -5.76065560E-08
  -1.61000006E-02  -5.93838614E-08
  -1.60499997E-02  -6.12195237E-08
  -1.60000008E-02  -6.31144772E-08
  -1.59499999E-02  -6.50703669E-08
  -1.59000009E-02  -6.70895233E-08
  -1.58500001E-02  -6.91746393E-08
  -1.57999992E-02  -7.13282233E-08
  -1.57500003E-02  -7.35521510E-08
  -1.56999994E-02  -7.58475238E-08
  -1.56500004E-02  -7.82149314E-08
  -1.55999996E-02  -8.06549423E-08
  -1.55499997E-02  -8.31685369E-08
  -1.54999997E-02  -8.57573852E-08
  -1.54499998E-02  -8.84238531E-08
  -1.53999999E-02  -9.11706550E-08
  -1.53500000E-02  -9.40002565E-08
  -1.53000001E-02  -9.69145759E-08
  -1.52500002E-02  -9.99147147E-08
  -1.52000003E-02  -1.03001170E-07
  -1.51500003E-02  -1.06174404E-07
  -1.51000004E-02  -1.09435241E-07
  -1.50499996E-02  -1.12785244E-07
  -1.49999997E-02  -1.16226737E-07
  -1.49499997E-02  -1.19762490E-07
  -1.48999998E-02  -1.23395125E-07
  -1.48499999E-02  -1.27126654E-07
  -1.48000000E-02  -1.30958313E-07
  -1.47500001E-02  -1.34890584E-07
  -1.47000002E-02  -1.38923866E-07
  -1.46500003E-02  -1.43059012E-07
  -1.46000003E-02  -1.47297541E-07
  -1.45500004E-02  -1.51641828E-07
  -1.44999996E-02  -1.56094544E-07
  -1.44499997E-02  -1.60658431E-07
  -1.43999998E-02  -1.65335791E-07
  -1.43499998E-02  -1.70128118E-07
  -1.42999999E-02  -1.75036178E-07
  -1.42500000E-02  -1.80060439E-07
  -1.42000001E-02  -1.85201785E-07
  -1.41500002E-02  -1.90461918E-07
  -1.41000003E-02  -1.95843427E-07
  -1.40500003E-02  -2.01349380E-07
  -1.40000004E-02  -2.06982733E-07
  -1.39499996E-02  -2.12745903E-07
  -1.38999997E-02  -2.18640679E-07
  -1.38499998E-02  -2.24668298E-07
  -1.37999998E-02  -2.30829670E-07
  -1.37499999E-02  -2.37126017E-07
  -1.37000000E-02  -2.43559413E-07
  -1.36500001E-02  -2.50132899E-07
  -1.36000002E-02  -2.56850086E-07
  -1.35500003E-02  -2.63714782E-07
  -1.35000004E-02  -2.70730283E-07
  -1.34500004E-02  -2.77898920E-07
  -1.33999996E-02  -2.85222512E-07
  -1.33499997E-02  -2.92702538E-07
  -1.32999998E-02  -3.00340815E-07
  -1.32499998E-02  -3.08139931E-07
  -1.31999999E-02  -3.16103609E-07
  -1.31500000E-02  -3.24236368E-07
  -1.31000001E-02  -3.32542896E-07
  -1.30500002E-02  -3.41027459E-07
  -1.30000003E-02  -3.49693380E-07
  -1.29500004E-02  -3.58543474E-07
  -1.29000004E-02  -3.67580327E-07
  -1.28499996E-02  -3.76806810E-07
  -1.27999997E-02  -3.86226446E-07
  -1.27499998E-02  -3.95843784E-07
  -1.26999998E-02  -4.05664480E-07
  -1.26499999E-02  -4.15694586E-07
  -1.26000000E-02  -4.25940044E-07
  -1.25500001E-02  -4.36406111E-07
  -1.25000002E-02  -4.47096653E-07
  -1.24500003E-02  -4.58015734E-07
  -1.24000004E-02  -4.69167645E-07
  -1.23500004E-02  -4.80557674E-07
  -1.22999996E-02  -4.92191930E-07
  -1.22499997E-02  -5.04077093E-07
  -1.21999998E-02  -5.16219984E-07
  -1.21499998E-02  -5.28627538E-07
  -1.20999999E-02  -5.41305837E-07
  -1.20500000E-02  -5.54260282E-07
  -1.20000001E-02  -5.67495931E-07
  -1.19500002E-02  -5.81018071E-07
  -1.19000003E-02  -5.94833182E-07
  -1.18500004E-02  -6.08949335E-07
  -1.18000004E-02  -6.23375854E-07
  -1.17499996E-02  -6.38122515E-07
  -1.16999997E-02  -6.53199038E-07
  -1.16499998E-02  -6.68614518E-07
  -1.15999999E-02  -6.84376801E-07
  -1.15499999E-02  -7.00493104E-07
  -1.15000000E-02  -7.16970305E-07
  -1.14500001E-02  -7.33815739E-07
  -1.14000002E-02  -7.51037362E-07
  -1.13500003E-02  -7.68644156E-07
  -1.13000004E-02  -7.86645842E-07
  -1.12500004E-02  -8.05051684E-07
  -1.11999996E-02  -8.23870778E-07
  -1.11499997E-02  -8.43111991E-07
  -1.10999998E-02  -8.62783622E-07
  -1.10499999E-02  -8.82895279E-07
  -1.09999999E-02  -9.03457760E-07
  -1.09500000E-02  -9.24483118E-07
  -1.09000001E-02  -9.45984709E-07
  -1.08500002E-02  -9.67976803E-07
  -1.08000003E-02  -9.90473495E-07
  -1.07500004E-02  -1.01348724E-06
  -1.07000005E-02  -1.03702837E-06
  -1.06499996E-02  -1.06110701E-06
  -1.05999997E-02  -1.08573261E-06
  -1.05499998E-02  -1.11091481E-06
  -1.04999999E-02  -1.13666374E-06
  -1.04499999E-02  -1.16299043E-06
  -1.04000000E-02  -1.18990692E-06
  -1.03500001E-02  -1.21742642E-06
  -1.03000002E-02  -1.24556152E-06
  -1.02500003E-02  -1.27432486E-06
  -1.02000004E-02  -1.30372757E-06
  -1.01500005E-02  -1.33378194E-06
  -1.00999996E-02  -1.36450103E-06
  -1.00499997E-02  -1.39590065E-06
  -9.99999978E-03  -1.42799615E-06
  -9.94999986E-03  -1.46080436E-06
  -9.89999995E-03  -1.49434152E-06
  -9.85000003E-03  -1.52862287E-06
  -9.80000012E-03  -1.56366411E-06
  -9.75000020E-03  -1.59947945E-06
  -9.70000029E-03  -1.63608138E-06
  -9.65000037E-03  -1.67348367E-06
  -9.60000046E-03  -1.71170143E-06
  -9.54999961E-03  -1.75075047E-06
  -9.49999969E-03  -1.79064773E-06
  -9.44999978E-03  -1.83140935E-06
  -9.39999986E-03  -1.87305011E-06
  -9.34999995E-03  -1.91558456E-06
  -9.30000003E-03  -1.95902635E-06
  -9.25000012E-03  -2.00338832E-06
  -9.20000020E-03  -2.04868434E-06
  -9.15000029E-03  -2.09492805E-06
  -9.10000037E-03  -2.14213674E-06
  -9.05000046E-03  -2.19032927E-06
  -8.99999961E-03  -2.23952520E-06
  -8.94999970E-03  -2.28974341E-06
  -8.89999978E-03  -2.34100116E-06
  -8.84999987E-03  -2.39331507E-06
  -8.79999995E-03  -2.44670309E-06
  -8.75000004E-03  -2.50118433E-06
  -8.70000012E-03  -2.55677878E-06
  -8.65000021E-03  -2.61350465E-06
  -8.60000029E-03  -2.67138148E-06
  -8.55000038E-03  -2.73042792E-06
  -8.50000046E-03  -2.79066558E-06
  -8.44999962E-03  -2.85211308E-06
  -8.39999970E-03  -2.91478727E-06
  -8.34999979E-03  -2.97870179E-06
  -8.29999987E-03  -3.04387163E-06
  -8.24999996E-03  -3.11031545E-06
  -8.20000004E-03  -3.17805416E-06
  -8.15000013E-03  -3.24710891E-06
  -8.10000021E-03  -3.31749834E-06
  -8.05000030E-03  -3.38924019E-06
  -8.00000038E-03  -3.46235288E-06
  -7.95000046E-03  -3.53685664E-06
  -7.89999962E-03  -3.61277012E-06
  -7.84999970E-03  -3.69011104E-06
  -7.79999979E-03  -3.76889852E-06
  -7.74999987E-03  -3.84915347E-06
  -7.69999996E-03  -3.93090068E-06
  -7.65000004E-03  -4.01416537E-06
  -7.60000013E-03  -4.09896938E-06
  -7.55000021E-03  -4.18533364E-06
  -7.49999983E-03  -4.27327677E-06
  -7.44999992E-03  -4.36282016E-06
  -7.40000000E-03  -4.45398564E-06
  -7.35000009E-03  -4.54679457E-06
  -7.30000017E-03  -4.64126879E-06
  -7.24999979E-03  -4.73742784E-06
  -7.19999988E-03  -4.83529584E-06
  -7.14999996E-03  -4.93489870E-06
  -7.10000005E-03  -5.03626097E-06
  -7.05000013E-03  -5.13940040E-06
  -7.00000022E-03  -5.24433153E-06
  -6.94999984E-03  -5.35107392E-06
  -6.89999992E-03  -5.45965122E-06
  -6.85000001E-03  -5.57008889E-06
  -6.80000009E-03  -5.68241148E-06
  -6.75000018E-03  -5.79663993E-06
  -6.69999979E-03  -5.91279377E-06
  -6.64999988E-03  -6.03089802E-06
  -6.59999996E-03  -6.15097997E-06
  -6.55000005E-03  -6.27306554E-06
  -6.50000013E-03  -6.39717291E-06
  -6.45000022E-03  -6.52332119E-06
  -6.39999984E-03  -6.65153766E-06
  -6.34999992E-03  -6.78185506E-06
  -6.30000001E-03  -6.91430432E-06
  -6.25000009E-03  -7.04891045E-06
  -6.20000018E-03  -7.18569709E-06
  -6.14999980E-03  -7.32468607E-06
  -6.09999988E-03  -7.46590331E-06
  -6.04999997E-03  -7.60937564E-06
  -6.00000005E-03  -7.75512581E-06
  -5.95000014E-03  -7.90317881E-06
  -5.90000022E-03  -8.05355739E-06
  -5.84999984E-03  -8.20629612E-06
  -5.79999993E-03  -8.36142590E-06
  -5.75000001E-03  -8.51897130E-06
  -5.70000010E-03  -8.67895233E-06
  -5.65000018E-03  -8.84139445E-06
  -5.59999980E-03  -9.00631949E-06
  -5.54999989E-03  -9.17375655E-06
  -5.49999997E-03  -9.34373566E-06
  -5.45000006E-03  -9.51629045E-06
  -5.40000014E-03  -9.69145094E-06
  -5.35000023E-03  -9.86924806E-06
  -5.29999984E-03  -1.00497145E-05
  -5.24999993E-03  -1.02328831E-05
  -5.20000001E-03  -1.04187839E-05
  -5.15000010E-03  -1.06074449E-05
  -5.10000018E-03  -1.07988944E-05
  -5.04999980E-03  -1.09931698E-05
  -4.99999989E-03  -1.11903082E-05
  -4.94999997E-03  -1.13903516E-05
  -4.90000006E-03  -1.15933326E-05
  -4.85000014E-03  -1.17992795E-05
  -4.80000023E-03  -1.20082177E-05
  -4.74999985E-03  -1.22201800E-05
  -4.69999993E-03  -1.24351945E-05
  -4.65000002E-03  -1.26532968E-05
  -4.60000010E-03  -1.28745132E-05
  -4.55000019E-03  -1.30988774E-05
  -4.49999981E-03  -1.33264311E-05
  -4.44999989E-03  -1.35572182E-05
  -4.39999998E-03  -1.37912766E-05
  -4.35000006E-03  -1.40286438E-05
  -4.30000015E-03  -1.42693489E-05
  -4.25000023E-03  -1.45134227E-05
  -4.19999985E-03  -1.47609007E-05
  -4.14999994E-03  -1.50118312E-05
  -4.10000002E-03  -1.52662687E-05
  -4.05000011E-03  -1.55242560E-05
  -4.00000019E-03  -1.57858267E-05
  -3.94999981E-03  -1.60510263E-05
  -3.89999989E-03  -1.63198929E-05
  -3.84999998E-03  -1.65924685E-05
  -3.80000006E-03  -1.68687911E-05
  -3.74999992E-03  -1.71488919E-05
  -3.70000000E-03  -1.74327997E-05
  -3.65000009E-03  -1.77205657E-05
  -3.59999994E-03  -1.80122479E-05
  -3.55000002E-03  -1.83078955E-05
  -3.50000011E-03  -1.86075431E-05
  -3.44999996E-03  -1.89112216E-05
  -3.40000005E-03  -1.92189727E-05
  -3.34999990E-03  -1.95308457E-05
  -3.29999998E-03  -1.98468806E-05
  -3.25000007E-03  -2.01671119E-05
  -3.19999992E-03  -2.04915777E-05
  -3.15000000E-03  -2.08203401E-05
  -3.10000009E-03  -2.11534589E-05
  -3.04999994E-03  -2.14909924E-05
  -3.00000003E-03  -2.18329806E-05
  -2.95000011E-03  -2.21794471E-05
  -2.89999996E-03  -2.25304357E-05
  -2.85000005E-03  -2.28859935E-05
  -2.79999990E-03  -2.32461771E-05
  -2.74999999E-03  -2.36110354E-05
  -2.70000007E-03  -2.39806213E-05
  -2.64999992E-03  -2.43549857E-05
  -2.60000001E-03  -2.47341850E-05
  -2.55000009E-03  -2.51182773E-05
  -2.49999994E-03  -2.55073010E-05
  -2.45000003E-03  -2.59012777E-05
  -2.40000011E-03  -2.63002494E-05
  -2.34999997E-03  -2.67042687E-05
  -2.30000005E-03  -2.71134031E-05
  -2.24999990E-03  -2.75276943E-05
  -2.19999999E-03  -2.79471878E-05
  -2.15000007E-03  -2.83719310E-05
  -2.09999993E-03  -2.88019819E-05
  -2.05000001E-03  -2.92374043E-05
  -2.00000009E-03  -2.96782255E-05
  -1.94999995E-03  -3.01244854E-05
  -1.90000003E-03  -3.05762187E-05
  -1.85000000E-03  -3.10335017E-05
  -1.79999997E-03  -3.14963945E-05
  -1.75000005E-03  -3.19649662E-05
  -1.70000002E-03  -3.24392713E-05
  -1.64999999E-03  -3.29193499E-05
  -1.59999996E-03  -3.34052493E-05
  -1.55000004E-03  -3.38970094E-05
  -1.50000001E-03  -3.43946849E-05
  -1.44999998E-03  -3.48983231E-05
  -1.39999995E-03  -3.54079712E-05
  -1.35000004E-03  -3.59236619E-05
  -1.30000000E-03  -3.64454681E-05
  -1.24999997E-03  -3.69734698E-05
  -1.20000006E-03  -3.75077143E-05
  -1.15000003E-03  -3.80482379E-05
  -1.09999999E-03  -3.85950771E-05
  -1.04999996E-03  -3.91482572E-05
  -1.00000005E-03  -3.97078365E-05
  -9.50000016E-04  -4.02738842E-05
  -8.99999985E-04  -4.08464439E-05
  -8.50000011E-04  -4.14255883E-05
  -7.99999980E-04  -4.20113793E-05
  -7.50000007E-04  -4.26038823E-05
  -6.99999975E-04  -4.32031375E-05
  -6.50000002E-04  -4.38091956E-05
  -6.00000028E-04  -4.44220823E-05
  -5.49999997E-04  -4.50418447E-05
  -5.00000024E-04  -4.56685448E-05
  -4.49999992E-04  -4.63022443E-05
  -3.99999990E-04  -4.69429870E-05
  -3.49999988E-04  -4.75908637E-05
  -3.00000014E-04  -4.82459327E-05
  -2.50000012E-04  -4.89082449E-05
  -1.99999995E-04  -4.95778331E-05
  -1.50000007E-04  -5.02547191E-05
  -9.99999975E-05  -5.09389647E-05
  -4.99999987E-05  -5.16306281E-05
   0.00000000      -5.23297640E-05
   4.99999987E-05  -5.30364305E-05
   9.99999975E-05  -5.37506821E-05
   1.50000007E-04  -5.44725990E-05
   1.99999995E-04  -5.52022575E-05
   2.50000012E-04  -5.59396904E-05
   3.00000014E-04  -5.66848867E-05
   3.49999988E-04  -5.74378682E-05
   3.99999990E-04  -5.81987224E-05
   4.49999992E-04  -5.89675510E-05
   5.00000024E-04  -5.97444632E-05
   5.49999997E-04  -6.05294408E-05
   6.00000028E-04  -6.13225347E-05
   6.50000002E-04  -6.21237923E-05
   6.99999975E-04  -6.29333372E-05
   7.50000007E-04  -6.37512130E-05
   7.99999980E-04  -6.45774489E-05
   8.50000011E-04  -6.54120304E-05
   8.99999985E-04  -6.62550374E-05
   9.50000016E-04  -6.71065573E-05
   1.00000005E-03  -6.79667064E-05
   1.04999996E-03  -6.88355140E-05
   1.09999999E-03  -6.97130308E-05
   1.15000003E-03  -7.05992716E-05
   1.20000006E-03  -7.14942726E-05
   1.24999997E-03  -7.23980847E-05
   1.30000000E-03  -7.33107954E-05
   1.35000004E-03  -7.42324628E-05
   1.39999995E-03  -7.51631087E-05
   1.44999998E-03  -7.61027986E-05
   1.50000001E-03  -7.70515981E-05
   1.55000004E-03  -7.80096234E-05
   1.59999996E-03  -7.89769401E-05
   1.64999999E-03  -7.99535628E-05
   1.70000002E-03  -8.09394769E-05
   1.75000005E-03  -8.19347551E-05
   1.79999997E-03  -8.29394994E-05
   1.85000000E-03  -8.39538043E-05
   1.90000003E-03  -8.49777352E-05
   1.94999995E-03  -8.60113141E-05
   2.00000009E-03  -8.70545700E-05
   2.05000001E-03  -8.81075830E-05
   2.09999993E-03  -8.91704549E-05
   2.15000007E-03  -9.02432148E-05
   2.19999999E-03  -9.13258773E-05
   2.24999990E-03  -9.24184205E-05
   2.30000005E-03  -9.35209537E-05
   2.34999997E-03  -9.46336440E-05
   2.40000011E-03  -9.57565499E-05
   2.45000003E-03  -9.68896929E-05
   2.49999994E-03  -9.80330733E-05
   2.55000009E-03  -9.91867346E-05
   2.60000001E-03  -1.00350779E-04
   2.64999992E-03  -1.01525278E-04
   2.70000007E-03  -1.02710277E-04
   2.74999999E-03  -1.03905790E-04
   2.79999990E-03  -1.05111882E-04