  -3.99999991E-02   0.00000000    
  -3.99499983E-02   0.00000000    
  -3.99000011E-02   0.00000000    
  -3.98500003E-02   0.00000000    
  -3.97999994E-02  -1.26735702E-21
  -3.97499986E-02  -1.14245428E-20
  -3.97000015E-02  -5.27791799E-20
  -3.96500006E-02  -1.65596673E-19
  -3.95999998E-02  -3.92323157E-19
  -3.95499989E-02  -7.33615473E-19
  -3.95000018E-02  -1.08386355E-18
  -3.94500010E-02  -1.17233082E-18
  -3.94000001E-02  -5.39949072E-19
  -3.93499993E-02   1.43582207E-18
  -3.92999984E-02   5.48090412E-18
  -3.92500013E-02   1.23463663E-17
  -3.92000005E-02   2.26973926E-17
  -3.91499996E-02   3.69150657E-17
  -3.90999988E-02   5.47765950E-17
  -3.90500017E-02   7.51094091E-17
  -3.90000008E-02   9.57094225E-17
  -3.89500000E-02   1.13907231E-16
  -3.88999991E-02   1.27963769E-16
  -3.88499983E-02   1.38932091E-16
  -3.88000011E-02   1.51974029E-16
  -3.87500003E-02   1.75843259E-16
  -3.86999995E-02   2.19776251E-16
  -3.86499986E-02   2.88404051E-16
  -3.86000015E-02   3.76952478E-16
  -3.85500006E-02   4.69927844E-16
  -3.84999998E-02   5.45730146E-16
  -3.84499989E-02   5.86962069E-16
  -3.84000018E-02   5.92500711E-16
  -3.83500010E-02   5.84621981E-16
  -3.83000001E-02   6.04732873E-16
  -3.82499993E-02   6.95639466E-16
  -3.81999984E-02   8.75591457E-16
  -3.81500013E-02   1.11614273E-15
  -3.81000005E-02   1.33784449E-15
  -3.80499996E-02   1.43217506E-15
  -3.79999988E-02   1.30587800E-15
  -3.79500017E-02   9.30272781E-16
  -3.79000008E-02   3.70473576E-16
  -3.78500000E-02  -2.26329268E-16
  -3.77999991E-02  -6.87635746E-16
  -3.77499983E-02  -8.98581572E-16
  -3.77000012E-02  -8.73887386E-16
  -3.76500003E-02  -7.79101593E-16
  -3.75999995E-02  -8.79488973E-16
  -3.75499986E-02  -1.42823826E-15
  -3.75000015E-02  -2.53966736E-15
  -3.74500006E-02  -4.10958829E-15
  -3.73999998E-02  -5.83184471E-15
  -3.73499990E-02  -7.31903297E-15
  -3.73000018E-02  -8.28345622E-15
  -3.72500010E-02  -8.69692010E-15
  -3.72000001E-02  -8.84654339E-15
  -3.71499993E-02  -9.24399073E-15
  -3.70999984E-02  -1.04123609E-14
  -3.70500013E-02  -1.26380069E-14
  -3.70000005E-02  -1.58018350E-14
  -3.69499996E-02  -1.93786146E-14
  -3.68999988E-02  -2.26210753E-14
  -3.68500017E-02  -2.48590177E-14
  -3.68000008E-02  -2.57844080E-14
  -3.67500000E-02  -2.55921857E-14
  -3.66999991E-02  -2.49072528E-14
  -3.66499983E-02  -2.45240941E-14
  -3.66000012E-02  -2.50706641E-14
  -3.65500003E-02  -2.67420363E-14
  -3.64999995E-02  -2.92156097E-14
  -3.64499986E-02  -3.17776472E-14
  -3.64000015E-02  -3.36002453E-14
  -3.63500006E-02  -3.40511175E-14
  -3.62999998E-02  -3.29185464E-14
  -3.62499990E-02  -3.04811481E-14
  -3.62000018E-02  -2.74166083E-14
  -3.61500010E-02  -2.45936728E-14
  -3.61000001E-02  -2.28072413E-14
  -3.60499993E-02  -2.25101784E-14
  -3.59999985E-02  -2.35906096E-14
  -3.59500013E-02  -2.52580532E-14
  -3.59000005E-02  -2.61237599E-14
  -3.58499996E-02  -2.45509179E-14
  -3.57999988E-02  -1.92724881E-14
  -3.57500017E-02  -1.01232186E-14
  -3.57000008E-02   1.42667835E-15
  -3.56500000E-02   1.23109412E-14
  -3.55999991E-02   1.87219692E-14
  -3.55499983E-02   1.76803694E-14
  -3.55000012E-02   8.78188683E-15
  -3.54500003E-02  -4.72618423E-15
  -3.53999995E-02  -1.63430094E-14
  -3.53499986E-02  -1.84839496E-14
  -3.53000015E-02  -5.87307150E-15
  -3.52500007E-02   2.12139808E-14
  -3.51999998E-02   5.55706197E-14
  -3.51499990E-02   8.47802934E-14
  -3.51000018E-02   9.60027481E-14
  -3.50500010E-02   8.21886301E-14
  -3.50000001E-02   4.69233213E-14
  -3.49499993E-02   5.11385258E-15
  -3.48999985E-02  -2.18005647E-14
  -3.48500013E-02  -1.49319694E-14
  -3.48000005E-02   3.23267041E-14
  -3.47499996E-02   1.08706318E-13
  -3.46999988E-02   1.87298622E-13
  -3.46500017E-02   2.36103753E-13
  -3.46000008E-02   2.33228286E-13
  -3.45500000E-02   1.79961487E-13
  -3.44999991E-02   1.04685493E-13
  -3.44499983E-02   5.38572313E-14
  -3.44000012E-02   7.21419587E-14
  -3.43500003E-02   1.79681411E-13
  -3.42999995E-02   3.57422642E-13
  -3.42499986E-02   5.49378305E-13
  -3.42000015E-02   6.83758334E-13
  -3.41500007E-02   7.05751104E-13
  -3.40999998E-02   6.07591776E-13
  -3.40499990E-02   4.40409645E-13
  -3.40000018E-02   2.98814223E-13
  -3.39500010E-02   2.81281915E-13
  -3.39000002E-02   4.42012231E-13
  -3.38499993E-02   7.56766991E-13
  -3.37999985E-02   1.12190758E-12
  -3.37500013E-02   1.39241776E-12
  -3.37000005E-02   1.44625316E-12
  -3.36499996E-02   1.24731074E-12
  -3.35999988E-02   8.75728038E-13
  -3.35500017E-02   5.05609172E-13
  -3.35000008E-02   3.33250544E-13
  -3.34500000E-02   4.83819961E-13
  -3.33999991E-02   9.39164870E-13
  -3.33499983E-02   1.52522298E-12
  -3.33000012E-02   1.97372717E-12
  -3.32500003E-02   2.03852473E-12
  -3.31999995E-02   1.61728118E-12
  -3.31499986E-02   8.19909516E-13
  -3.31000015E-02  -5.68703274E-14
  -3.30500007E-02  -6.49023424E-13
  -3.29999998E-02  -6.93013518E-13
  -3.29499990E-02  -1.66621044E-13
  -3.29000019E-02   6.69191156E-13
  -3.28500010E-02   1.36038088E-12
  -3.28000002E-02   1.45486704E-12
  -3.27499993E-02   7.21000299E-13
  -3.26999985E-02  -7.13593030E-13
  -3.26500013E-02  -2.37992655E-12
  -3.26000005E-02  -3.65281286E-12
  -3.25499997E-02  -4.03383056E-12
  -3.24999988E-02  -3.40687851E-12
  -3.24500017E-02  -2.13938546E-12
  -3.24000008E-02  -9.61941139E-13
  -3.23500000E-02  -6.58440696E-13
  -3.22999991E-02  -1.69417594E-12
  -3.22499983E-02  -3.95400726E-12
  -3.22000012E-02  -6.72929811E-12
  -3.21500003E-02  -8.98805769E-12
  -3.20999995E-02  -9.83016273E-12
  -3.20499986E-02  -8.92944919E-12
  -3.20000015E-02  -6.74896987E-12
  -3.19500007E-02  -4.40143711E-12
  -3.18999998E-02  -3.18344266E-12
  -3.18499990E-02  -3.97183762E-12
  -3.18000019E-02  -6.75686330E-12
  -3.17500010E-02  -1.05500365E-11
  -3.17000002E-02  -1.37501321E-11
  -3.16499993E-02  -1.48398984E-11
  -3.15999985E-02  -1.31147350E-11
  -3.15500014E-02  -9.09874606E-12
  -3.15000005E-02  -4.41805446E-12
  -3.14499997E-02  -1.13739226E-12
  -3.13999988E-02  -8.22592103E-13
  -3.13500017E-02  -3.74821571E-12
  -3.13000008E-02  -8.64138448E-12
  -3.12500000E-02  -1.31353635E-11
  -3.11999992E-02  -1.47852511E-11
  -3.11500002E-02  -1.22167320E-11
  -3.10999993E-02  -5.87513545E-12
  -3.10500003E-02   2.01792662E-12
  -3.09999995E-02   8.35301273E-12
  -3.09500005E-02   1.05226860E-11
  -3.08999997E-02   7.69970979E-12
  -3.08500007E-02   1.38792038E-12
  -3.07999998E-02  -5.08054970E-12
  -3.07500008E-02  -7.95781583E-12
  -3.07000000E-02  -4.81502815E-12
  -3.06499992E-02   4.19242158E-12
  -3.06000002E-02   1.61682577E-11
  -3.05499993E-02   2.65974413E-11
  -3.05000003E-02   3.13277390E-11
  -3.04499995E-02   2.85492689E-11
  -3.04000005E-02   1.98386082E-11
  -3.03499997E-02   9.69664800E-12
  -3.03000007E-02   3.67184928E-12
  -3.02499998E-02   5.83503428E-12
  -3.02000009E-02   1.67404059E-11
  -3.01500000E-02   3.28713480E-11
  -3.00999992E-02   4.79518543E-11
  -3.00500002E-02   5.56576139E-11
  -2.99999993E-02   5.25655075E-11
  -2.99500003E-02   3.99760711E-11
  -2.98999995E-02   2.36652590E-11
  -2.98500005E-02   1.15200913E-11
  -2.97999997E-02   1.00020842E-11
  -2.97500007E-02   2.10052652E-11
  -2.96999998E-02   4.06102756E-11
  -2.96500009E-02   6.04619618E-11
  -2.96000000E-02   7.13243353E-11
  -2.95499992E-02   6.73140710E-11
  -2.95000002E-02   4.88849378E-11
  -2.94499993E-02   2.30772814E-11
  -2.94000003E-02   7.16067830E-13
  -2.93499995E-02  -8.35659406E-12
  -2.93000005E-02   6.75277840E-14
  -2.92499997E-02   2.22049514E-11
  -2.92000007E-02   4.74774421E-11
  -2.91499998E-02   6.29566260E-11
  -2.91000009E-02   5.92134258E-11
  -2.90500000E-02   3.49468961E-11
  -2.89999992E-02  -1.84636356E-12
  -2.89500002E-02  -3.69439895E-11
  -2.88999993E-02  -5.60721400E-11
  -2.88500004E-02  -5.15226542E-11
  -2.87999995E-02  -2.61681198E-11
  -2.87500005E-02   7.16421106E-12
  -2.86999997E-02   3.09784802E-11
  -2.86500007E-02   3.09122623E-11
  -2.85999998E-02   2.60114196E-12
  -2.85500009E-02  -4.56370913E-11
  -2.85000000E-02  -9.58132462E-11
  -2.84499992E-02  -1.27944697E-10
  -2.84000002E-02  -1.29143793E-10
  -2.83499993E-02  -9.99999319E-11
  -2.83000004E-02  -5.51322842E-11
  -2.82499995E-02  -1.72920671E-11
  -2.82000005E-02  -7.33882313E-12
  -2.81499997E-02  -3.44678626E-11
  -2.81000007E-02  -9.12186229E-11
  -2.80499998E-02  -1.55861574E-10
  -2.80000009E-02  -2.01511280E-10
  -2.79500000E-02  -2.08168177E-10
  -2.78999992E-02  -1.72311956E-10
  -2.78500002E-02  -1.09478836E-10
  -2.77999993E-02  -4.82194944E-11
  -2.77500004E-02  -1.77127358E-11
  -2.76999995E-02  -3.43663188E-11
  -2.76500005E-02  -9.35124408E-11
  -2.75999997E-02  -1.70312292E-10
  -2.75500007E-02  -2.29982075E-10
  -2.74999999E-02  -2.43171372E-10
  -2.74500009E-02  -1.99719463E-10
  -2.74000000E-02  -1.14379013E-10
  -2.73499992E-02  -2.14301719E-11
  -2.73000002E-02   3.99608020E-11
  -2.72499993E-02   4.34304641E-11
  -2.72000004E-02  -1.17930657E-11
  -2.71499995E-02  -9.91351307E-11
  -2.71000005E-02  -1.75359505E-10
  -2.70499997E-02  -1.99470496E-10
  -2.70000007E-02  -1.51614860E-10
  -2.69499999E-02  -4.33273972E-11
  -2.69000009E-02   8.60321189E-11
  -2.68500000E-02   1.85752691E-10
  -2.67999992E-02   2.16301338E-10
  -2.67500002E-02   1.67923161E-10
  -2.66999993E-02   6.66045621E-11
  -2.66500004E-02  -3.59810376E-11
  -2.65999995E-02  -8.47771714E-11
  -2.65500005E-02  -4.63409207E-11
  -2.64999997E-02   7.47436349E-11
  -2.64500007E-02   2.35962777E-10
  -2.63999999E-02   3.74270948E-10
  -2.63500009E-02   4.33725111E-10
  -2.63000000E-02   3.91266297E-10
  -2.62499992E-02   2.68804007E-10
  -2.62000002E-02   1.25417510E-10
  -2.61499994E-02   3.22439679E-11
  -2.61000004E-02   4.06398908E-11
  -2.60499995E-02   1.57780830E-10
  -2.60000005E-02   3.41167927E-10
  -2.59499997E-02   5.15456899E-10
  -2.59000007E-02   6.05031858E-10
  -2.58499999E-02   5.68270708E-10
  -2.58000009E-02   4.18007129E-10
  -2.57500000E-02   2.18236845E-10
  -2.56999992E-02   5.74424744E-11
  -2.56500002E-02   9.55201890E-12
  -2.55999994E-02   9.96790428E-11
  -2.55500004E-02   2.90421770E-10
  -2.54999995E-02   4.95894159E-10
  -2.54500005E-02   6.18406049E-10
  -2.53999997E-02   5.92197902E-10
  -2.53500007E-02   4.14718287E-10
  -2.52999999E-02   1.50692930E-10
  -2.52500009E-02  -9.41004358E-11
  -2.52000000E-02  -2.18841195E-10
  -2.51499992E-02  -1.73507542E-10
  -2.51000002E-02   1.62214860E-11
  -2.50499994E-02   2.57223742E-10
  -2.50000004E-02   4.28097863E-10
  -2.49499995E-02   4.32882258E-10
  -2.49000005E-02   2.45664183E-10
  -2.48499997E-02  -7.45091766E-11
  -2.48000007E-02  -4.06473355E-10
  -2.47499999E-02  -6.18871621E-10
  -2.47000009E-02  -6.28956776E-10
  -2.46500000E-02  -4.41983061E-10
  -2.45999992E-02  -1.52539079E-10
  -2.45500002E-02   9.44329545E-11
  -2.44999994E-02   1.67059158E-10
  -2.44500004E-02   6.79423965E-12
  -2.43999995E-02  -3.41837392E-10
  -2.43500005E-02  -7.46763429E-10
  -2.42999997E-02  -1.04407671E-09
  -2.42500007E-02  -1.11049947E-09
  -2.41999999E-02  -9.20603038E-10
  -2.41500009E-02  -5.62312197E-10
  -2.41000000E-02  -2.01937689E-10
  -2.40499992E-02  -1.23903136E-11
  -2.40000002E-02  -9.54147455E-11
  -2.39499994E-02  -4.32667513E-10
  -2.39000004E-02  -8.88904172E-10
  -2.38499995E-02  -1.26800170E-09
  -2.38000005E-02  -1.39874479E-09
  -2.37499997E-02  -1.21293164E-09
  -2.37000007E-02  -7.80274456E-10
  -2.36499999E-02  -2.82591617E-10
  -2.36000009E-02   6.35602890E-11
  -2.35500000E-02   1.03054711E-10
  -2.34999992E-02  -1.85407176E-10
  -2.34500002E-02  -6.74253486E-10
  -2.33999994E-02  -1.13845622E-09
  -2.33500004E-02  -1.35292877E-09
  -2.32999995E-02  -1.19389165E-09
  -2.32500006E-02  -6.98714753E-10
  -2.31999997E-02  -5.56217884E-11
  -2.31500007E-02   4.74901674E-10
  -2.30999999E-02   6.74335698E-10
  -2.30500009E-02   4.65970207E-10
  -2.30000000E-02  -4.51459217E-11
  -2.29499992E-02  -6.12497220E-10
  -2.29000002E-02  -9.53658374E-10
  -2.28499994E-02  -8.76159645E-10
  -2.28000004E-02  -3.67804759E-10
  -2.27499995E-02   3.90594918E-10
  -2.27000006E-02   1.09882337E-09
  -2.26499997E-02   1.46742973E-09
  -2.26000007E-02   1.34808309E-09
  -2.25499999E-02   8.05466527E-10
  -2.25000009E-02   9.61136171E-11
  -2.24500000E-02  -4.39861259E-10
  -2.23999992E-02  -5.28765809E-10
  -2.23500002E-02  -8.91777555E-11
  -2.22999994E-02   7.23889004E-10
  -2.22500004E-02   1.57946167E-09
  -2.21999995E-02   2.11248263E-09
  -2.21500006E-02   2.08633910E-09
  -2.20999997E-02   1.50373514E-09
  -2.20500007E-02   6.14119366E-10
  -2.19999999E-02  -1.89516791E-10
  -2.19500009E-02  -5.42166700E-10
  -2.19000001E-02  -2.72052769E-10
  -2.18499992E-02   5.14948417E-10
  -2.18000002E-02   1.47263213E-09
  -2.17499994E-02   2.16121920E-09
  -2.17000004E-02   2.24154784E-09
  -2.16499995E-02   1.63112401E-09
  -2.16000006E-02   5.50491486E-10
  -2.15499997E-02  -5.64885250E-10
  -2.15000007E-02  -1.25244193E-09
  -2.14499999E-02  -1.22918753E-09
  -2.14000009E-02  -5.24993216E-10
  -2.13500001E-02   5.20022525E-10
  -2.12999992E-02   1.39764755E-09
  -2.12500002E-02   1.65429914E-09
  -2.11999994E-02   1.09703913E-09
  -2.11500004E-02  -1.10296140E-10
  -2.10999995E-02  -1.50788526E-09
  -2.10500006E-02  -2.53575561E-09
  -2.09999997E-02  -2.78131584E-09
  -2.09500007E-02  -2.16913110E-09
  -2.08999999E-02  -1.00566899E-09
  -2.08500009E-02   1.46044857E-10
  -2.08000001E-02   7.11318837E-10
  -2.07499992E-02   3.62246788E-10
  -2.07000002E-02  -8.25960023E-10
  -2.06499994E-02  -2.39443643E-09
  -2.06000004E-02  -3.69306674E-09
  -2.05499995E-02  -4.16514911E-09
  -2.05000006E-02  -3.59950825E-09
  -2.04499997E-02  -2.23572849E-09
  -2.04000007E-02  -6.70428546E-10
  -2.03499999E-02   3.99828171E-10
  -2.03000009E-02   4.88806995E-10
  -2.02500001E-02  -4.53576093E-10
  -2.01999992E-02  -2.00403094E-09
  -2.01500002E-02  -3.44003936E-09
  -2.00999994E-02  -4.05390965E-09
  -2.00500004E-02  -3.47015039E-09
  -1.99999996E-02  -1.82376059E-09
  -1.99500006E-02   2.84981011E-10
  -1.98999997E-02   2.04591544E-09
  -1.98500007E-02   2.79645085E-09
  -1.97999999E-02   2.32372876E-09
  -1.97500009E-02   9.74129333E-10
  -1.97000001E-02  -4.84932872E-10
  -1.96499992E-02  -1.19646004E-09
  -1.96000002E-02  -5.95661354E-10
  -1.95499994E-02   1.32776634E-09
  -1.95000004E-02   4.00814582E-09
  -1.94499996E-02   6.53993482E-09
  -1.94000006E-02   8.07313150E-09
  -1.93499997E-02   8.19522761E-09
  -1.93000007E-02   7.12790804E-09
  -1.92499999E-02   5.64485658E-09
  -1.92000009E-02   4.73943862E-09
  -1.91500001E-02   5.18413978E-09
  -1.90999992E-02   7.17630089E-09
  -1.90500002E-02   1.02315338E-08
  -1.89999994E-02   1.33796734E-08
  -1.89500004E-02   1.55838968E-08
  -1.88999996E-02   1.62013301E-08
  -1.88500006E-02   1.52797224E-08
  -1.87999997E-02   1.35525946E-08
  -1.87500007E-02   1.21267094E-08
  -1.86999999E-02   1.19935564E-08
  -1.86500009E-02   1.35790703E-08
  -1.86000001E-02   1.65344503E-08
  -1.85499992E-02   1.98683576E-08
  -1.85000002E-02   2.23703918E-08
  -1.84499994E-02   2.31437767E-08
  -1.84000004E-02   2.20114877E-08
  -1.83499996E-02   1.96104342E-08
  -1.83000006E-02   1.71234102E-08
  -1.82499997E-02   1.57595466E-08
  -1.82000007E-02   1.62094800E-08
  -1.81499999E-02   1.83187190E-08
  -1.81000009E-02   2.11310756E-08
  -1.80500001E-02   2.32921700E-08
  -1.79999992E-02   2.36412596E-08
  -1.79500002E-02   2.17311484E-08
  -1.78999994E-02   1.80416340E-08
  -1.78500004E-02   1.37832634E-08
  -1.77999996E-02   1.03693187E-08
  -1.77500006E-02   8.78428441E-09
  -1.76999997E-02   9.12896336E-09
  -1.76500008E-02   1.05501572E-08
  -1.75999999E-02   1.15956160E-08
  -1.75500009E-02   1.08454152E-08
  -1.75000001E-02   7.54380824E-09
  -1.74499992E-02   1.94891481E-09
  -1.74000002E-02  -4.76287987E-09
  -1.73499994E-02  -1.10051896E-08
  -1.73000004E-02  -1.54846749E-08
  -1.72499996E-02  -1.77889135E-08
  -1.72000006E-02  -1.85934717E-08
  -1.71499997E-02  -1.93870182E-08
  -1.71000008E-02  -2.18265157E-08
  -1.70499999E-02  -2.70026419E-08
  -1.70000009E-02  -3.49418556E-08
  -1.69500001E-02  -4.45728041E-08
  -1.68999992E-02  -5.41823084E-08
  -1.68500002E-02  -6.21676506E-08
  -1.67999994E-02  -6.77553302E-08
  -1.67500004E-02  -7.13644397E-08
  -1.66999996E-02  -7.44446567E-08
  -1.66500006E-02  -7.88503414E-08
  -1.65999997E-02  -8.60205418E-08
  -1.65500008E-02  -9.63272058E-08
  -1.64999999E-02  -1.08886233E-07
  -1.64500009E-02  -1.21925169E-07
  -1.64000001E-02  -1.33554650E-07
  -1.63499992E-02  -1.42607320E-07
  -1.63000003E-02  -1.49171015E-07
  -1.62499994E-02  -1.54572106E-07
  -1.62000004E-02  -1.60805342E-07
  -1.61499996E-02  -1.69654413E-07
  -1.61000006E-02  -1.81888964E-07
  -1.60499997E-02  -1.96898483E-07
  -1.60000008E-02  -2.12934651E-07
  -1.59499999E-02  -2.27865371E-07
  -1.59000009E-02  -2.40114360E-07
  -1.58500001E-02  -2.49370061E-07
  -1.57999992E-02  -2.56743675E-07
  -1.57500003E-02  -2.64295608E-07
  -1.56999994E-02  -2.74129917E-07
  -1.56500004E-02  -2.87452821E-07
  -1.55999996E-02  -3.04015231E-07
  -1.55499997E-02  -3.22192733E-07
  -1.54999997E-02  -3.39680696E-07
  -1.54499998E-02  -3.54505374E-07
  -1.53999999E-02  -3.65904384E-07
  -1.53500000E-02  -3.74683538E-07
  -1.53000001E-02  -3.82880899E-07
  -1.52500002E-02  -3.92876814E-07
  -1.52000003E-02  -4.06336056E-07
  -1.51500003E-02  -4.23450928E-07
  -1.51000004E-02  -4.42828110E-07
  -1.50499996E-02  -4.62080379E-07
  -1.49999997E-02  -4.78869879E-07
  -1.49499997E-02  -4.91948015E-07
  -1.48999998E-02  -5.01727015E-07
  -1.48499999E-02  -5.10121367E-07
  -1.48000000E-02  -5.19719663E-07
  -1.47500001E-02  -5.32641991E-07
  -1.47000002E-02  -5.49590084E-07
  -1.46500003E-02  -5.69513645E-07
  -1.46000003E-02  -5.90051627E-07
  -1.45500004E-02  -6.08563823E-07
  -1.44999996E-02  -6.23303151E-07
  -1.44499997E-02  -6.34209357E-07
  -1.43999998E-02  -6.42964494E-07
  -1.43499998E-02  -6.52274423E-07
  -1.42999999E-02  -6.64684592E-07
  -1.42500000E-02  -6.81452434E-07
  -1.42000001E-02  -7.01974614E-07
  -1.41500002E-02  -7.24033839E-07
  -1.41000003E-02  -7.44769181E-07
  -1.40500003E-02  -7.61945159E-07
  -1.40000004E-02  -7.74961620E-07
  -1.39499996E-02  -7.85151201E-07
  -1.38999997E-02  -7.95223514E-07
  -1.38499998E-02  -8.08087464E-07
  -1.37999998E-02  -8.25572727E-07
  -1.37499999E-02  -8.47613762E-07
  -1.37000000E-02  -8.72263854E-07
  -1.36500001E-02  -8.96547306E-07
  -1.36000002E-02  -9.17780369E-07
  -1.35500003E-02  -9.34779450E-07
  -1.35000004E-02  -9.48418403E-07
  -1.34500004E-02  -9.61281671E-07
  -1.33999996E-02  -9.76551064E-07
  -1.33499997E-02  -9.96613721E-07
  -1.32999998E-02  -1.02200966E-06
  -1.32499998E-02  -1.05118249E-06
  -1.31999999E-02  -1.08116024E-06
  -1.31500000E-02  -1.10887402E-06
  -1.31000001E-02  -1.13253770E-06
  -1.30500002E-02  -1.15246883E-06
  -1.30000003E-02  -1.17098614E-06
  -1.29500004E-02  -1.19142385E-06
  -1.29000004E-02  -1.21667915E-06
  -1.28499996E-02  -1.24793587E-06
  -1.27999997E-02  -1.28414024E-06
  -1.27499998E-02  -1.32245873E-06
  -1.26999998E-02  -1.35953121E-06
  -1.26499999E-02  -1.39297470E-06
  -1.26000000E-02  -1.42246950E-06
  -1.25500001E-02  -1.44993930E-06
  -1.25000002E-02  -1.47873538E-06
  -1.24500003E-02  -1.51218103E-06
  -1.24000004E-02  -1.55211899E-06
  -1.23500004E-02  -1.59809713E-06
  -1.22999996E-02  -1.64756068E-06
  -1.22499997E-02  -1.69698262E-06
  -1.21999998E-02  -1.74343313E-06
  -1.21499998E-02  -1.78589846E-06
  -1.20999999E-02  -1.82576082E-06
  -1.20500000E-02  -1.86622583E-06
  -1.20000001E-02  -1.91093909E-06
  -1.19500002E-02  -1.96237761E-06
  -1.19000003E-02  -2.02075739E-06
  -1.18500004E-02  -2.08394158E-06
  -1.18000004E-02  -2.14837564E-06
  -1.17499996E-02  -2.21066580E-06
  -1.16999997E-02  -2.26910083E-06
  -1.16499998E-02  -2.32443449E-06
  -1.15999999E-02  -2.37958784E-06
  -1.15499999E-02  -2.43839577E-06
  -1.15000000E-02  -2.50393146E-06
  -1.14500001E-02  -2.57714260E-06
  -1.14000002E-02  -2.65643280E-06
  -1.13500003E-02  -2.73837372E-06
  -1.13000004E-02  -2.81920984E-06
  -1.12500004E-02  -2.89653485E-06
  -1.11999996E-02  -2.97038332E-06
  -1.11499997E-02  -3.04323635E-06
  -1.10999998E-02  -3.11896270E-06
  -1.10499999E-02  -3.20112713E-06
  -1.09999999E-02  -3.29141153E-06
  -1.09500000E-02  -3.38888731E-06
  -1.09000001E-02  -3.49042466E-06
  -1.08500002E-02  -3.59208479E-06
  -1.08000003E-02  -3.69087843E-06
  -1.07500004E-02  -3.78609229E-06
  -1.07000005E-02  -3.87965338E-06
  -1.06499996E-02  -3.97532176E-06
  -1.05999997E-02  -4.07704465E-06
  -1.05499998E-02  -4.18722811E-06
  -1.04999999E-02  -4.30569162E-06
  -1.04499999E-02  -4.42975897E-06
  -1.04000000E-02  -4.55544432E-06
  -1.03500001E-02  -4.67922837E-06
  -1.03000002E-02  -4.79962864E-06
  -1.02500003E-02  -4.91789660E-06
  -1.02000004E-02  -5.03749288E-06
  -1.01500005E-02  -5.16259433E-06
  -1.00999996E-02  -5.29626095E-06
  -1.00499997E-02  -5.43910710E-06
  -9.99999978E-03  -5.58907141E-06
  -9.94999986E-03  -5.74232490E-06
  -9.89999995E-03  -5.89498586E-06
  -9.85000003E-03  -6.04487104E-06
  -9.80000012E-03  -6.19250068E-06
  -9.75000020E-03  -6.34091020E-06
  -9.70000029E-03  -6.49436379E-06
  -9.65000037E-03  -6.65650123E-06
  -9.60000046E-03  -6.82877953E-06
  -9.54999961E-03  -7.00985811E-06
  -9.49999969E-03  -7.19621949E-06
  -9.44999978E-03  -7.38378003E-06
  -9.39999986E-03  -7.56972440E-06
  -9.34999995E-03  -7.75377248E-06
  -9.30000003E-03  -7.93835625E-06
  -9.25000012E-03  -8.12759208E-06
  -9.20000020E-03  -8.32549358E-06
  -9.15000029E-03  -8.53424990E-06
  -9.10000037E-03  -8.75331534E-06
  -9.05000046E-03  -8.97967584E-06
  -8.99999961E-03  -9.20920138E-06
  -8.94999970E-03  -9.43853411E-06
  -8.89999978E-03  -9.66659354E-06
  -8.84999987E-03  -9.89511864E-06
  -8.79999995E-03  -1.01279547E-05
  -8.75000004E-03  -1.03693801E-05
  -8.70000012E-03  -1.06223097E-05
  -8.65000021E-03  -1.08870827E-05
  -8.60000029E-03  -1.11613226E-05
  -8.55000038E-03  -1.14410877E-05
  -8.50000046E-03  -1.17226309E-05
  -8.44999962E-03  -1.20041141E-05
  -8.39999970E-03  -1.22864994E-05
  -8.34999979E-03  -1.25731831E-05
  -8.29999987E-03  -1.28685278E-05
  -8.24999996E-03  -1.31759916E-05
  -8.20000004E-03  -1.34967240E-05
  -8.15000013E-03  -1.38290561E-05
  -8.10000021E-03  -1.41692935E-05
  -8.05000030E-03  -1.45134145E-05
  -8.00000038E-03  -1.48588979E-05
  -7.95000046E-03  -1.52058719E-05
  -7.89999962E-03  -1.55570451E-05
  -7.84999970E-03  -1.59166229E-05
  -7.79999979E-03  -1.62885317E-05
  -7.74999987E-03  -1.66746850E-05
  -7.69999996E-03  -1.70742096E-05
  -7.65000004E-03  -1.74839297E-05
  -7.60000013E-03  -1.78998416E-05
  -7.55000021E-03  -1.83189077E-05
  -7.49999983E-03  -1.87404203E-05
  -7.44999992E-03  -1.91664058E-05
  -7.40000000E-03  -1.96008550E-05
  -7.35000009E-03  -2.00479335E-05
  -7.30000017E-03  -2.05101296E-05
  -7.24999979E-03  -2.09874124E-05
  -7.19999988E-03  -2.14773190E-05
  -7.14999996E-03  -2.19759750E-05
  -7.10000005E-03  -2.24799296E-05
  -7.05000013E-03  -2.29877096E-05
  -7.00000022E-03  -2.35005064E-05
  -6.94999984E-03  -2.40217178E-05
  -6.89999992E-03  -2.45554147E-05
  -6.85000001E-03  -2.51047441E-05
  -6.80000009E-03  -2.56706062E-05
  -6.75000018E-03  -2.62510985E-05
  -6.69999979E-03  -2.68426484E-05
  -6.64999988E-03  -2.74416434E-05
  -6.59999996E-03  -2.80460190E-05
  -6.55000005E-03  -2.86561190E-05
  -6.50000013E-03  -2.92746736E-05
  -6.45000022E-03  -2.99056628E-05
  -6.39999984E-03  -3.05526301E-05
  -6.34999992E-03  -3.12172670E-05
  -6.30000001E-03  -3.18986495E-05
  -6.25000009E-03  -3.25937726E-05
  -6.20000018E-03  -3.32989803E-05
  -6.14999980E-03  -3.40116167E-05
  -6.09999988E-03  -3.47312161E-05
  -6.04999997E-03  -3.54597687E-05
  -6.00000005E-03  -3.62009669E-05
  -5.95000014E-03  -3.69586087E-05
  -5.90000022E-03  -3.77349497E-05
  -5.84999984E-03  -3.85298481E-05
  -5.79999993E-03  -3.93409173E-05
  -5.75000001E-03  -4.01648322E-05
  -5.70000010E-03  -4.09987078E-05
  -5.65000018E-03  -4.18412419E-05
  -5.59999980E-03  -4.26935367E-05
  -5.54999989E-03  -4.35585935E-05
  -5.49999997E-03  -4.44401048E-05
  -5.45000006E-03  -4.53409957E-05
  -5.40000014E-03  -4.62621683E-05
  -5.35000023E-03  -4.72022111E-05
  -5.29999984E-03  -4.81581264E-05
  -5.24999993E-03  -4.91267092E-05
  -5.20000001E-03  -5.01059149E-05
  -5.15000010E-03  -5.10959908E-05
  -5.10000018E-03  -5.20994545E-05
  -5.04999980E-03  -5.31198930E-05
  -4.99999989E-03  -5.41607151E-05
  -4.94999997E-03  -5.52237580E-05
  -4.90000006E-03  -5.63084359E-05
  -4.85000014E-03  -5.74122023E-05
  -4.80000023E-03  -5.85317612E-05
  -4.74999985E-03  -5.96644459E-05
  -4.69999993E-03  -6.08096925E-05
  -4.65000002E-03  -6.19691855E-05
  -4.60000010E-03  -6.31461735E-05
  -4.55000019E-03  -6.43442181E-05
  -4.49999981E-03  -6.55658368E-05
  -4.44999989E-03  -6.68115463E-05
  -4.39999998E-03  -6.80795201E-05
  -4.35000006E-03  -6.93664551E-05
  -4.30000015E-03  -7.06692517E-05
  -4.25000023E-03  -7.19863601E-05
  -4.19999985E-03  -7.33184861E-05
  -4.14999994E-03  -7.46685182E-05
  -4.10000002E-03  -7.60403054E-05
  -4.05000011E-03  -7.74372456E-05
  -4.00000019E-03  -7.88606194E-05
  -3.94999981E-03  -8.03093571E-05
  -3.89999989E-03  -8.17803957E-05
  -3.84999998E-03  -8.32703226E-05
  -3.80000006E-03  -8.47768097E-05
  -3.74999992E-03  -8.62993329E-05
  -3.70000000E-03  -8.78404826E-05
  -3.65000009E-03  -8.94042896E-05
  -3.59999994E-03  -9.09946175E-05
  -3.55000002E-03  -9.26135835E-05
  -3.50000011E-03  -9.42605038E-05
  -3.44999996E-03  -9.59327735E-05
  -3.40000005E-03  -9.76268420E-05
  -3.34999990E-03  -9.93396534E-05
  -3.29999998E-03  -1.01069600E-04
  -3.25000007E-03  -1.02818201E-04
  -3.19999992E-03  -1.04589264E-04
  -3.15000000E-03  -1.06386826E-04
  -3.10000009E-03  -1.08214168E-04
  -3.04999994E-03  -1.10071946E-04
  -3.00000003E-03  -1.11958099E-04
  -2.95000011E-03  -1.13869042E-04
  -2.89999996E-03  -1.15801005E-04
  -2.85000005E-03  -1.17751719E-04
  -2.79999990E-03  -1.19721721E-04
  -2.74999999E-03  -1.21714045E-04
  -2.70000007E-03  -1.23732592E-04
  -2.64999992E-03  -1.25781065E-04
  -2.60000001E-03  -1.27861320E-04
  -2.55000009E-03  -1.29972323E-04
  -2.49999994E-03  -1.32110872E-04
  -2.45000003E-03  -1.34272894E-04
  -2.40000011E-03  -1.36455172E-04
  -2.34999997E-03  -1.38656847E-04
  -2.30000005E-03  -1.40879871E-04
  -2.24999990E-03  -1.43128142E-04
  -2.19999999E-03  -1.45405938E-04
  -2.15000007E-03  -1.47716812E-04
  -2.09999993E-03  -1.50061009E-04
  -2.05000001E-03  -1.52434775E-04
  -2.00000009E-03  -1.54832975E-04
  -1.94999995E-03  -1.57251139E-04
  -1.90000003E-03  -1.59687377E-04
  -1.85000000E-03  -1.62142882E-04
  -1.79999997E-03  -1.64621932E-04
  -1.75000005E-03  -1.67130172E-04
  -1.70000002E-03  -1.69671694E-04
  -1.64999999E-03  -1.72248067E-04
  -1.59999996E-03  -1.74856657E-04
  -1.55000004E-03  -1.77491791E-04
  -1.50000001E-03  -1.80147792E-04
  -1.44999998E-03  -1.82821430E-04
  -1.39999995E-03  -1.85512268E-04
  -1.35000004E-03  -1.88222984E-04
  -1.30000000E-03  -1.90959545E-04
  -1.24999997E-03  -1.93727610E-04
  -1.20000006E-03  -1.96529814E-04
  -1.15000003E-03  -1.99365270E-04
  -1.09999999E-03  -2.02229712E-04
  -1.04999996E-03  -2.05115619E-04
  -1.00000005E-03  -2.08017140E-04
  -9.50000016E-04  -2.10932849E-04
  -8.99999985E-04  -2.13865307E-04
  -8.50000011E-04  -2.16819855E-04
  -7.99999980E-04  -2.19802445E-04
  -7.50000007E-04  -2.22817936E-04
  -6.99999975E-04  -2.25866854E-04
  -6.50000002E-04  -2.28944627E-04
  -6.00000028E-04  -2.32043240E-04
  -5.49999997E-04  -2.35155545E-04
  -5.00000024E-04  -2.38278299E-04
  -4.49999992E-04  -2.41413669E-04
  -3.99999990E-04  -2.44566618E-04
  -3.49999988E-04  -2.47743912E-04
  -3.00000014E-04  -2.50951736E-04
  -2.50000012E-04  -2.54191516E-04
  -1.99999995E-04  -2.57458654E-04
  -1.50000007E-04  -2.60744651E-04
  -9.99999975E-05  -2.64041300E-04
  -4.99999987E-05  -2.67343683E-04
   0.00000000      -2.70653079E-04
   4.99999987E-05  -2.73974700E-04
   9.99999975E-05  -2.77316460E-04
   1.50000007E-04  -2.80685985E-04
   1.99999995E-04  -2.84085050E-04
   2.50000012E-04  -2.87508912E-04
   3.00000014E-04  -2.90948083E-04
   3.49999988E-04  -2.94392259E-04
   3.99999990E-04  -2.97834020E-04
   4.49999992E-04  -3.01274093E-04
   5.00000024E-04  -3.04719870E-04
   5.49999997E-04  -3.08179006E-04
   6.00000028E-04  -3.11660202E-04
   6.50000002E-04  -3.15168203E-04
   6.99999975E-04  -3.18699895E-04
   7.50000007E-04  -3.22244654E-04
   7.99999980E-04  -3.25787783E-04
   8.50000011E-04  -3.29320465E-04
   8.99999985E-04  -3.32842435E-04
   9.50000016E-04  -3.36358935E-04
   1.00000005E-03  -3.39879742E-04
   1.04999996E-03  -3.43415333E-04
   1.09999999E-03  -3.46970919E-04
   1.15000003E-03  -3.50544578E-04
   1.20000006E-03  -3.54126911E-04
   1.24999997E-03  -3.57703975E-04
   1.30000000E-03  -3.61265469E-04
   1.35000004E-03  -3.64807056E-04
   1.39999995E-03  -3.68331297E-04
   1.44999998E-03  -3.71846167E-04
   1.50000001E-03  -3.75363888E-04
   1.55000004E-03  -3.78893805E-04
   1.59999996E-03  -3.82434402E-04
   1.64999999E-03  -3.85977619E-04
   1.70000002E-03  -3.89508787E-04
   1.75000005E-03  -3.93014197E-04
   1.79999997E-03  -3.96487158E-04
   1.85000000E-03  -3.99929646E-04
   1.90000003E-03  -4.03352984E-04
   1.94999995E-03  -4.06771578E-04
   2.00000009E-03  -4.10192210E-04
   2.05000001E-03  -4.13613481E-04
   2.09999993E-03  -4.17028437E-04
   2.15000007E-03  -4.20423574E-04
   2.19999999E-03  -4.23783786E-04
   2.24999990E-03  -4.27100487E-04
   2.30000005E-03  -4.30372776E-04
   2.34999997E-03  -4.33608686E-04
   2.40000011E-03  -4.36822971E-04
   2.45000003E-03  -4.40026808E-04
   2.49999994E-03  -4.43222176E-04
   2.55000009E-03  -4.46400838E-04
   2.60000001E-03  -4.49551269E-04
   2.64999992E-03  -4.52658191E-04
   2.70000007E-03  -4.55705333E-04
   2.74999999E-03  -4.58689115E-04
   2.79999990E-03  -4.61621123E-04