  -3.99999991E-02   0.00000000    
  -3.99499983E-02   0.00000000    
  -3.99000011E-02   0.00000000    
  -3.98500003E-02   3.74875210E-16
  -3.97999994E-02   1.81117434E-15
  -3.97499986E-02   4.62357635E-15
  -3.97000015E-02   8.45702258E-15
  -3.96500006E-02   1.30957045E-14
  -3.95999998E-02   1.93996091E-14
  -3.95499989E-02   2.87470209E-14
  -3.95000018E-02   4.11858353E-14
  -3.94500010E-02   5.46409265E-14
  -3.94000001E-02   6.67779837E-14
  -3.93499993E-02   7.78122819E-14
  -3.92999984E-02   9.08121438E-14
  -3.92500013E-02   1.08643421E-13
  -3.92000005E-02   1.30885537E-13
  -3.91499996E-02   1.54470363E-13
  -3.90999988E-02   1.77402811E-13
  -3.90500017E-02   2.00947549E-13
  -3.90000008E-02   2.27364514E-13
  -3.89500000E-02   2.55941779E-13
  -3.88999991E-02   2.82596727E-13
  -3.88499983E-02   3.04061491E-13
  -3.88000011E-02   3.21619684E-13
  -3.87500003E-02   3.39334734E-13
  -3.86999995E-02   3.58354758E-13
  -3.86499986E-02   3.74159118E-13
  -3.86000015E-02   3.80540516E-13
  -3.85500006E-02   3.75906961E-13
  -3.84999998E-02   3.64215114E-13
  -3.84499989E-02   3.49041027E-13
  -3.84000018E-02   3.27747649E-13
  -3.83500010E-02   2.92932318E-13
  -3.83000001E-02   2.39637899E-13
  -3.82499993E-02   1.69700340E-13
  -3.81999984E-02   8.80259881E-14
  -3.81500013E-02  -4.43327897E-15
  -3.81000005E-02  -1.12081012E-13
  -3.80499996E-02  -2.38655368E-13
  -3.79999988E-02  -3.81705057E-13
  -3.79500017E-02  -5.35414215E-13
  -3.79000008E-02  -6.99272888E-13
  -3.78500000E-02  -8.82048991E-13
  -3.77999991E-02  -1.09520205E-12
  -3.77499983E-02  -1.34225920E-12
  -3.77000012E-02  -1.61588787E-12
  -3.76500003E-02  -1.90581427E-12
  -3.75999995E-02  -2.20838950E-12
  -3.75499986E-02  -2.52727678E-12
  -3.75000015E-02  -2.86581978E-12
  -3.74500006E-02  -3.22145414E-12
  -3.73999998E-02  -3.58900995E-12
  -3.73499990E-02  -3.96754981E-12
  -3.73000018E-02  -4.36019320E-12
  -3.72500010E-02  -4.76523812E-12
  -3.72000001E-02  -5.16915850E-12
  -3.71499993E-02  -5.55195560E-12
  -3.70999984E-02  -5.90187534E-12
  -3.70500013E-02  -6.22504782E-12
  -3.70000005E-02  -6.54001332E-12
  -3.69499996E-02  -6.86263112E-12
  -3.68999988E-02  -7.19576482E-12
  -3.68500017E-02  -7.53090125E-12
  -3.68000008E-02  -7.85507163E-12
  -3.67500000E-02  -8.15297049E-12
  -3.66999991E-02  -8.40415671E-12
  -3.66499983E-02  -8.58471107E-12
  -3.66000012E-02  -8.67849889E-12
  -3.65500003E-02  -8.68950831E-12
  -3.64999995E-02  -8.64095774E-12
  -3.64499986E-02  -8.55788964E-12
  -3.64000015E-02  -8.44677019E-12
  -3.63500006E-02  -8.28936832E-12
  -3.62999998E-02  -8.05461947E-12
  -3.62499990E-02  -7.71615324E-12
  -3.62000018E-02  -7.26147874E-12
  -3.61500010E-02  -6.69096072E-12
  -3.61000001E-02  -6.01477548E-12
  -3.60499993E-02  -5.25261432E-12
  -3.59999985E-02  -4.43076825E-12
  -3.59500013E-02  -3.56984711E-12
  -3.59000005E-02  -2.66772260E-12
  -3.58499996E-02  -1.69303384E-12
  -3.57999988E-02  -5.99787852E-13
  -3.57500017E-02   6.44486201E-13
  -3.57000008E-02   2.03773456E-12
  -3.56500000E-02   3.54459040E-12
  -3.55999991E-02   5.11627763E-12
  -3.55499983E-02   6.71305893E-12
  -3.55000012E-02   8.31675007E-12
  -3.54500003E-02   9.93300928E-12
  -3.53999995E-02   1.15885261E-11
  -3.53499986E-02   1.33232158E-11
  -3.53000015E-02   1.51730486E-11
  -3.52500007E-02   1.71453823E-11
  -3.51999998E-02   1.92011181E-11
  -3.51499990E-02   2.12605541E-11
  -3.51000018E-02   2.32354049E-11
  -3.50500010E-02   2.50687179E-11
  -3.50000001E-02   2.67571781E-11
  -3.49499993E-02   2.83432600E-11
  -3.48999985E-02   2.98857224E-11
  -3.48500013E-02   3.14275134E-11
  -3.48000005E-02   3.29746577E-11
  -3.47499996E-02   3.44889291E-11
  -3.46999988E-02   3.58933473E-11
  -3.46500017E-02   3.70918157E-11
  -3.46000008E-02   3.80022819E-11
  -3.45500000E-02   3.85920150E-11
  -3.44999991E-02   3.88936591E-11
  -3.44499983E-02   3.89861927E-11
  -3.44000012E-02   3.89470782E-11
  -3.43500003E-02   3.88032280E-11
  -3.42999995E-02   3.85101985E-11
  -3.42499986E-02   3.79693464E-11
  -3.42000015E-02   3.70687370E-11
  -3.41500007E-02   3.57243228E-11
  -3.40999998E-02   3.39057740E-11
  -3.40499990E-02   3.16428585E-11
  -3.40000018E-02   2.90124140E-11
  -3.39500010E-02   2.61059212E-11
  -3.39000002E-02   2.29839689E-11
  -3.38499993E-02   1.96374930E-11
  -3.37999985E-02   1.59820403E-11
  -3.37500013E-02   1.18968672E-11
  -3.37000005E-02   7.29084761E-12
  -3.36499996E-02   2.15627386E-12
  -3.35999988E-02  -3.42152977E-12
  -3.35500017E-02  -9.30108855E-12
  -3.35000008E-02  -1.53433429E-11
  -3.34500000E-02  -2.14621584E-11
  -3.33999991E-02  -2.76504600E-11
  -3.33499983E-02  -3.39787400E-11
  -3.33000012E-02  -4.05657591E-11
  -3.32500003E-02  -4.75238598E-11
  -3.31999995E-02  -5.48936348E-11
  -3.31499986E-02  -6.25999530E-11
  -3.31000015E-02  -7.04615394E-11
  -3.30500007E-02  -7.82578238E-11
  -3.29999998E-02  -8.58179985E-11
  -3.29499990E-02  -9.30806612E-11
  -3.29000019E-02  -1.00093080E-10
  -3.28500010E-02  -1.06959490E-10
  -3.28000002E-02  -1.13772401E-10
  -3.27499993E-02  -1.20557189E-10
  -3.26999985E-02  -1.27243521E-10
  -3.26500013E-02  -1.33668049E-10
  -3.26000005E-02  -1.39613029E-10
  -3.25499997E-02  -1.44878012E-10
  -3.24999988E-02  -1.49358026E-10
  -3.24500017E-02  -1.53083338E-10
  -3.24000008E-02  -1.56187799E-10
  -3.23500000E-02  -1.58817945E-10
  -3.22999991E-02  -1.61036351E-10
  -3.22499983E-02  -1.62775404E-10
  -3.22000012E-02  -1.63859926E-10
  -3.21500003E-02  -1.64074448E-10
  -3.20999995E-02  -1.63236744E-10
  -3.20499986E-02  -1.61253191E-10
  -3.20000015E-02  -1.58146218E-10
  -3.19500007E-02  -1.54044319E-10
  -3.18999998E-02  -1.49125004E-10
  -3.18499990E-02  -1.43522125E-10
  -3.18000019E-02  -1.37241565E-10
  -3.17500010E-02  -1.30141273E-10
  -3.17000002E-02  -1.21997051E-10
  -3.16499993E-02  -1.12618255E-10
  -3.15999985E-02  -1.01944196E-10
  -3.15500014E-02  -9.00712629E-11
  -3.15000005E-02  -7.72098843E-11
  -3.14499997E-02  -6.36059747E-11
  -3.13999988E-02  -4.94611054E-11
  -3.13500017E-02  -3.48700131E-11
  -3.13000008E-02  -1.97904904E-11
  -3.12500000E-02  -4.06625471E-12
  -3.11999992E-02   1.24877461E-11
  -3.11500002E-02   2.99665362E-11
  -3.10999993E-02   4.82882068E-11
  -3.10500003E-02   6.71961167E-11
  -3.09999995E-02   8.63525779E-11
  -3.09500005E-02   1.05466247E-10
  -3.08999997E-02   1.24381158E-10
  -3.08500007E-02   1.43092010E-10
  -3.07999998E-02   1.61698058E-10
  -3.07500008E-02   1.80326892E-10
  -3.07000000E-02   1.99051622E-10
  -3.06499992E-02   2.17818943E-10
  -3.06000002E-02   2.36415998E-10
  -3.05499993E-02   2.54506111E-10
  -3.05000003E-02   2.71734996E-10
  -3.04499995E-02   2.87857710E-10
  -3.04000005E-02   3.02810332E-10
  -3.03499997E-02   3.16681376E-10
  -3.03000007E-02   3.29604288E-10
  -3.02499998E-02   3.41640050E-10
  -3.02000009E-02   3.52710694E-10
  -3.01500000E-02   3.62601088E-10
  -3.00999992E-02   3.71010694E-10
  -3.00500002E-02   3.77632953E-10
  -2.99999993E-02   3.82244625E-10
  -2.99500003E-02   3.84779542E-10
  -2.98999995E-02   3.85346810E-10
  -2.98500005E-02   3.84164117E-10
  -2.97999997E-02   3.81425141E-10
  -2.97500007E-02   3.77171044E-10
  -2.96999998E-02   3.71243120E-10
  -2.96500009E-02   3.63342106E-10
  -2.96000000E-02   3.53153451E-10
  -2.95499992E-02   3.40467488E-10
  -2.95000002E-02   3.25245053E-10
  -2.94499993E-02   3.07618070E-10
  -2.94000003E-02   2.87837809E-10
  -2.93499995E-02   2.66184436E-10
  -2.93000005E-02   2.42858456E-10
  -2.92499997E-02   2.17895341E-10
  -2.92000007E-02   1.91154703E-10
  -2.91499998E-02   1.62406630E-10
  -2.91000009E-02   1.31478481E-10
  -2.90500000E-02   9.83796447E-11
  -2.89999992E-02   6.33345806E-11
  -2.89500002E-02   2.67137111E-11
  -2.88999993E-02  -1.10893430E-11
  -2.88500004E-02  -4.97698827E-11
  -2.87999995E-02  -8.91746677E-11
  -2.87500005E-02  -1.29304831E-10
  -2.86999997E-02  -1.70263803E-10
  -2.86500007E-02  -2.12158388E-10
  -2.85999998E-02  -2.54980370E-10
  -2.85500009E-02  -2.98522568E-10
  -2.85000000E-02  -3.42383233E-10
  -2.84499992E-02  -3.86071092E-10
  -2.84000002E-02  -4.29158098E-10
  -2.83499993E-02  -4.71393646E-10
  -2.83000004E-02  -5.12719533E-10
  -2.82499995E-02  -5.53190160E-10
  -2.82000005E-02  -5.92850879E-10
  -2.81499997E-02  -6.31635244E-10
  -2.81000007E-02  -6.69311884E-10
  -2.80499998E-02  -7.05493108E-10
  -2.80000009E-02  -7.39702521E-10
  -2.79500000E-02  -7.71492648E-10
  -2.78999992E-02  -8.00573607E-10
  -2.78500002E-02  -8.26888058E-10
  -2.77999993E-02  -8.50576942E-10
  -2.77500004E-02  -8.71842265E-10
  -2.76999995E-02  -8.90775953E-10
  -2.76500005E-02  -9.07252773E-10
  -2.75999997E-02  -9.20937715E-10
  -2.75500007E-02  -9.31391630E-10
  -2.74999999E-02  -9.38213063E-10
  -2.74500009E-02  -9.41157485E-10
  -2.74000000E-02  -9.40201916E-10
  -2.73499992E-02  -9.35538536E-10
  -2.73000002E-02  -9.27493360E-10
  -2.72499993E-02  -9.16381249E-10
  -2.72000004E-02  -9.02353470E-10
  -2.71499995E-02  -8.85320817E-10
  -2.71000005E-02  -8.65005179E-10
  -2.70499997E-02  -8.41103187E-10
  -2.70000007E-02  -8.13468126E-10
  -2.69499999E-02  -7.82210186E-10
  -2.69000009E-02  -7.47674589E-10
  -2.68500000E-02  -7.10329906E-10
  -2.67999992E-02  -6.70630163E-10
  -2.67500002E-02  -6.28903984E-10
  -2.66999993E-02  -5.85293702E-10
  -2.66500004E-02  -5.39769673E-10
  -2.65999995E-02  -4.92227925E-10
  -2.65500005E-02  -4.42653691E-10
  -2.64999997E-02  -3.91273319E-10
  -2.64500007E-02  -3.38599898E-10
  -2.63999999E-02  -2.85330370E-10
  -2.63500009E-02  -2.32147634E-10
  -2.63000000E-02  -1.79540383E-10
  -2.62499992E-02  -1.27737612E-10
  -2.62000002E-02  -7.67727895E-11
  -2.61499994E-02  -2.66252402E-11
  -2.61000004E-02   2.26310238E-11
  -2.60499995E-02   7.07114436E-11
  -2.60000005E-02   1.17072102E-10
  -2.59499997E-02   1.60953390E-10
  -2.59000007E-02   2.01530029E-10
  -2.58499999E-02   2.38119024E-10
  -2.58000009E-02   2.70335782E-10
  -2.57500000E-02   2.98098463E-10
  -2.56999992E-02   3.21463911E-10
  -2.56500002E-02   3.40396988E-10
  -2.55999994E-02   3.54598434E-10
  -2.55500004E-02   3.63475333E-10
  -2.54999995E-02   3.66241398E-10
  -2.54500005E-02   3.62080615E-10
  -2.53999997E-02   3.50317858E-10
  -2.53500007E-02   3.30546396E-10
  -2.52999999E-02   3.02671832E-10
  -2.52500009E-02   2.66827838E-10
  -2.52000000E-02   2.23172106E-10
  -2.51499992E-02   1.71648792E-10
  -2.51000002E-02   1.11851382E-10
  -2.50499994E-02   4.30779613E-11
  -2.50000004E-02  -3.54551666E-11
  -2.49499995E-02  -1.24369848E-10
  -2.49000005E-02  -2.23979640E-10
  -2.48499997E-02  -3.34295758E-10
  -2.48000007E-02  -4.55146087E-10
  -2.47499999E-02  -5.86343862E-10
  -2.47000009E-02  -7.27853666E-10
  -2.46500000E-02  -8.79905593E-10
  -2.45999992E-02  -1.04299780E-09
  -2.45500002E-02  -1.21775801E-09
  -2.44999994E-02  -1.40469392E-09
  -2.44500004E-02  -1.60397606E-09
  -2.43999995E-02  -1.81537940E-09
  -2.43500005E-02  -2.03842654E-09
  -2.42999997E-02  -2.27266672E-09
  -2.42500007E-02  -2.51791255E-09
  -2.41999999E-02  -2.77433143E-09
  -2.41500009E-02  -3.04237235E-09
  -2.41000000E-02  -3.32258709E-09
  -2.40499992E-02  -3.61542196E-09
  -2.40000002E-02  -3.92102439E-09
  -2.39499994E-02  -4.23915170E-09
  -2.39000004E-02  -4.56923344E-09
  -2.38499995E-02  -4.91060881E-09
  -2.38000005E-02  -5.26282173E-09
  -2.37499997E-02  -5.62582914E-09
  -2.37000007E-02  -5.99999828E-09
  -2.36499999E-02  -6.38588293E-09
  -2.36000009E-02  -6.78393075E-09
  -2.35500000E-02  -7.19425364E-09
  -2.34999992E-02  -7.61657759E-09
  -2.34500002E-02  -8.05034706E-09
  -2.33999994E-02  -8.49495496E-09
  -2.33500004E-02  -8.94996610E-09
  -2.32999995E-02  -9.41529521E-09
  -2.32500006E-02  -9.89126203E-09
  -2.31999997E-02  -1.03784465E-08
  -2.31500007E-02  -1.08774136E-08
  -2.30999999E-02  -1.13884226E-08
  -2.30500009E-02  -1.19112755E-08
  -2.30000000E-02  -1.24454269E-08
  -2.29499992E-02  -1.29902640E-08
  -2.29000002E-02  -1.35454084E-08
  -2.28499994E-02  -1.41109053E-08
  -2.28000004E-02  -1.46872106E-08
  -2.27499995E-02  -1.52749990E-08
  -2.27000006E-02  -1.58749369E-08
  -2.26499997E-02  -1.64874177E-08
  -2.26000007E-02  -1.71124430E-08
  -2.25499999E-02  -1.77496347E-08
  -2.25000009E-02  -1.83984810E-08
  -2.24500000E-02  -1.90586533E-08
  -2.23999992E-02  -1.97302743E-08
  -2.23500002E-02  -2.04139798E-08
  -2.22999994E-02  -2.11107025E-08
  -2.22500004E-02  -2.18213216E-08
  -2.21999995E-02  -2.25463470E-08
  -2.21500006E-02  -2.32858444E-08
  -2.20999997E-02  -2.40395046E-08
  -2.20500007E-02  -2.48068996E-08
  -2.19999999E-02  -2.55877826E-08
  -2.19500009E-02  -2.63823203E-08
  -2.19000001E-02  -2.71911951E-08
  -2.18499992E-02  -2.80155010E-08
  -2.18000002E-02  -2.88564141E-08
  -2.17499994E-02  -2.97148084E-08
  -2.17000004E-02  -3.05910106E-08
  -2.16499995E-02  -3.14848663E-08
  -2.16000006E-02  -3.23959668E-08
  -2.15499997E-02  -3.33240990E-08
  -2.15000007E-02  -3.42694442E-08
  -2.14499999E-02  -3.52327092E-08
  -2.14000009E-02  -3.62149351E-08
  -2.13500001E-02  -3.72172337E-08
  -2.12999992E-02  -3.82404934E-08
  -2.12500002E-02  -3.92851867E-08
  -2.11999994E-02  -4.03513418E-08
  -2.11500004E-02  -4.14387245E-08
  -2.10999995E-02  -4.25472173E-08
  -2.10500006E-02  -4.36771224E-08
  -2.09999997E-02  -4.48293456E-08
  -2.09500007E-02  -4.60052227E-08
  -2.08999999E-02  -4.72061643E-08
  -2.08500009E-02  -4.84332254E-08
  -2.08000001E-02  -4.96869603E-08
  -2.07499992E-02  -5.09674472E-08
  -2.07000002E-02  -5.22745367E-08
  -2.06499994E-02  -5.36081686E-08
  -2.06000004E-02  -5.49687122E-08
  -2.05499995E-02  -5.63571199E-08
  -2.05000006E-02  -5.77748338E-08
  -2.04499997E-02  -5.92235487E-08
  -2.04000007E-02  -6.07047212E-08
  -2.03499999E-02  -6.22193355E-08
  -2.03000009E-02  -6.37677786E-08
  -2.02500001E-02  -6.53501644E-08
  -2.01999992E-02  -6.69666989E-08
  -2.01500002E-02  -6.86180641E-08
  -2.00999994E-02  -7.03055676E-08
  -2.00500004E-02  -7.20310425E-08
  -1.99999996E-02  -7.37965422E-08
  -1.99500006E-02  -7.56039782E-08
  -1.98999997E-02  -7.74547928E-08
  -1.98500007E-02  -7.93499595E-08
  -1.97999999E-02  -8.12900538E-08
  -1.97500009E-02  -8.32756655E-08
  -1.97000001E-02  -8.53078035E-08
  -1.96499992E-02  -8.73881731E-08
  -1.96000002E-02  -8.95191263E-08
  -1.95499994E-02  -9.17034271E-08
  -1.95000004E-02  -9.39436475E-08
  -1.94499996E-02  -9.62419620E-08
  -1.94000006E-02  -9.86000614E-08
  -1.93499997E-02  -1.01019253E-07
  -1.93000007E-02  -1.03501002E-07
  -1.92499999E-02  -1.06047082E-07
  -1.92000009E-02  -1.08659897E-07
  -1.91500001E-02  -1.11342459E-07
  -1.90999992E-02  -1.14098164E-07
  -1.90500002E-02  -1.16930444E-07
  -1.89999994E-02  -1.19842355E-07
  -1.89500004E-02  -1.22836369E-07
  -1.88999996E-02  -1.25914625E-07
  -1.88500006E-02  -1.29079226E-07
  -1.87999997E-02  -1.32332872E-07
  -1.87500007E-02  -1.35678860E-07
  -1.86999999E-02  -1.39121312E-07
  -1.86500009E-02  -1.42664746E-07
  -1.86000001E-02  -1.46313596E-07
  -1.85499992E-02  -1.50071898E-07
  -1.85000002E-02  -1.53943233E-07
  -1.84499994E-02  -1.57930785E-07
  -1.84000004E-02  -1.62037566E-07
  -1.83499996E-02  -1.66266830E-07
  -1.83000006E-02  -1.70622513E-07
  -1.82499997E-02  -1.75109477E-07
  -1.82000007E-02  -1.79733220E-07
  -1.81499999E-02  -1.84499186E-07
  -1.81000009E-02  -1.89412489E-07
  -1.80500001E-02  -1.94477735E-07
  -1.79999992E-02  -1.99699059E-07
  -1.79500002E-02  -2.05080539E-07
  -1.78999994E-02  -2.10626553E-07
  -1.78500004E-02  -2.16341945E-07
  -1.77999996E-02  -2.22232316E-07
  -1.77500006E-02  -2.28303762E-07
  -1.76999997E-02  -2.34562521E-07
  -1.76500008E-02  -2.41014590E-07
  -1.75999999E-02  -2.47665469E-07
  -1.75500009E-02  -2.54519989E-07
  -1.75000001E-02  -2.61582699E-07
  -1.74499992E-02  -2.68858514E-07
  -1.74000002E-02  -2.76353063E-07
  -1.73499994E-02  -2.84072883E-07
  -1.73000004E-02  -2.92024737E-07
  -1.72499996E-02  -3.00215419E-07
  -1.72000006E-02  -3.08651664E-07
  -1.71499997E-02  -3.17339698E-07
  -1.71000008E-02  -3.26285345E-07
  -1.70499999E-02  -3.35493979E-07
  -1.70000009E-02  -3.44970829E-07
  -1.69500001E-02  -3.54721863E-07
  -1.68999992E-02  -3.64754072E-07
  -1.68500002E-02  -3.75074819E-07
  -1.67999994E-02  -3.85691550E-07
  -1.67500004E-02  -3.96611426E-07
  -1.66999996E-02  -4.07841043E-07
  -1.66500006E-02  -4.19386311E-07
  -1.65999997E-02  -4.31253142E-07
  -1.65500008E-02  -4.43447561E-07
  -1.64999999E-02  -4.55976021E-07
  -1.64500009E-02  -4.68845684E-07
  -1.64000001E-02  -4.82064195E-07
  -1.63499992E-02  -4.95639767E-07
  -1.63000003E-02  -5.09580673E-07
  -1.62499994E-02  -5.23894357E-07
  -1.62000004E-02  -5.38587301E-07
  -1.61499996E-02  -5.53665757E-07
  -1.61000006E-02  -5.69136375E-07
  -1.60499997E-02  -5.85006262E-07
  -1.60000008E-02  -6.01282920E-07
  -1.59499999E-02  -6.17974308E-07
  -1.59000009E-02  -6.35088895E-07
  -1.58500001E-02  -6.52635322E-07
  -1.57999992E-02  -6.70621603E-07
  -1.57500003E-02  -6.89055184E-07
  -1.56999994E-02  -7.07943514E-07
  -1.56500004E-02  -7.27293582E-07
  -1.55999996E-02  -7.47113234E-07
  -1.55499997E-02  -7.67410938E-07
  -1.54999997E-02  -7.88195905E-07
  -1.54499998E-02  -8.09477569E-07
  -1.53999999E-02  -8.31265709E-07
  -1.53500000E-02  -8.53569077E-07
  -1.53000001E-02  -8.76395688E-07
  -1.52500002E-02  -8.99753445E-07
  -1.52000003E-02  -9.23650987E-07
  -1.51500003E-02  -9.48097238E-07
  -1.51000004E-02  -9.73101464E-07
  -1.50499996E-02  -9.98673841E-07
  -1.49999997E-02  -1.02482477E-06
  -1.49499997E-02  -1.05156528E-06
  -1.48999998E-02  -1.07890548E-06
  -1.48499999E-02  -1.10685585E-06
  -1.48000000E-02  -1.13542546E-06
  -1.47500001E-02  -1.16462400E-06
  -1.47000002E-02  -1.19446145E-06
  -1.46500003E-02  -1.22494907E-06
  -1.46000003E-02  -1.25609881E-06
  -1.45500004E-02  -1.28792226E-06
  -1.44999996E-02  -1.32043147E-06
  -1.44499997E-02  -1.35363837E-06
  -1.43999998E-02  -1.38755479E-06
  -1.43499998E-02  -1.42219187E-06
  -1.42999999E-02  -1.45756132E-06
  -1.42500000E-02  -1.49367497E-06
  -1.42000001E-02  -1.53054577E-06
  -1.41500002E-02  -1.56818714E-06
  -1.41000003E-02  -1.60661307E-06
  -1.40500003E-02  -1.64583810E-06
  -1.40000004E-02  -1.68587644E-06
  -1.39499996E-02  -1.72674197E-06
  -1.38999997E-02  -1.76844765E-06
  -1.38499998E-02  -1.81100711E-06
  -1.37999998E-02  -1.85443560E-06
  -1.37499999E-02  -1.89874777E-06
  -1.37000000E-02  -1.94395921E-06
  -1.36500001E-02  -1.99008628E-06
  -1.36000002E-02  -2.03714512E-06
  -1.35500003E-02  -2.08515257E-06
  -1.35000004E-02  -2.13412568E-06
  -1.34500004E-02  -2.18408013E-06
  -1.33999996E-02  -2.23503116E-06
  -1.33499997E-02  -2.28699560E-06
  -1.32999998E-02  -2.33999231E-06
  -1.32499998E-02  -2.39404108E-06
  -1.31999999E-02  -2.44916032E-06
  -1.31500000E-02  -2.50536868E-06
  -1.31000001E-02  -2.56268527E-06
  -1.30500002E-02  -2.62113076E-06
  -1.30000003E-02  -2.68072404E-06
  -1.29500004E-02  -2.74148442E-06
  -1.29000004E-02  -2.80342988E-06
  -1.28499996E-02  -2.86658042E-06
  -1.27999997E-02  -2.93095877E-06
  -1.27499998E-02  -2.99658905E-06
  -1.26999998E-02  -3.06349307E-06
  -1.26499999E-02  -3.13169176E-06
  -1.26000000E-02  -3.20120762E-06
  -1.25500001E-02  -3.27206521E-06
  -1.25000002E-02  -3.34428887E-06
  -1.24500003E-02  -3.41790155E-06
  -1.24000004E-02  -3.49292577E-06
  -1.23500004E-02  -3.56938699E-06
  -1.22999996E-02  -3.64731204E-06
  -1.22499997E-02  -3.72672798E-06
  -1.21999998E-02  -3.80765960E-06
  -1.21499998E-02  -3.89013212E-06
  -1.20999999E-02  -3.97416898E-06
  -1.20500000E-02  -4.05980018E-06
  -1.20000001E-02  -4.14705346E-06
  -1.19500002E-02  -4.23595429E-06
  -1.19000003E-02  -4.32653314E-06
  -1.18500004E-02  -4.41882139E-06
  -1.18000004E-02  -4.51285177E-06
  -1.17499996E-02  -4.60865613E-06
  -1.16999997E-02  -4.70626537E-06
  -1.16499998E-02  -4.80570907E-06
  -1.15999999E-02  -4.90701768E-06
  -1.15499999E-02  -5.01022441E-06
  -1.15000000E-02  -5.11536200E-06
  -1.14500001E-02  -5.22246364E-06
  -1.14000002E-02  -5.33156071E-06
  -1.13500003E-02  -5.44268687E-06
  -1.13000004E-02  -5.55587803E-06
  -1.12500004E-02  -5.67116695E-06
  -1.11999996E-02  -5.78858862E-06
  -1.11499997E-02  -5.90818036E-06
  -1.10999998E-02  -6.02997989E-06
  -1.10499999E-02  -6.15402769E-06
  -1.09999999E-02  -6.28036423E-06
  -1.09500000E-02  -6.40902817E-06
  -1.09000001E-02  -6.54006362E-06
  -1.08500002E-02  -6.67351333E-06
  -1.08000003E-02  -6.80942094E-06
  -1.07500004E-02  -6.94782466E-06
  -1.07000005E-02  -7.08876360E-06
  -1.06499996E-02  -7.23227504E-06
  -1.05999997E-02  -7.37840310E-06
  -1.05499998E-02  -7.52719097E-06
  -1.04999999E-02  -7.67868369E-06
  -1.04499999E-02  -7.83292398E-06
  -1.04000000E-02  -7.98995461E-06
  -1.03500001E-02  -8.14981922E-06
  -1.03000002E-02  -8.31256784E-06
  -1.02500003E-02  -8.47824958E-06
  -1.02000004E-02  -8.64691083E-06
  -1.01500005E-02  -8.81859432E-06
  -1.00999996E-02  -8.99335555E-06
  -1.00499997E-02  -9.17124544E-06
  -9.99999978E-03  -9.35232129E-06
  -9.94999986E-03  -9.53663584E-06
  -9.89999995E-03  -9.72423459E-06
  -9.85000003E-03  -9.91517118E-06
  -9.80000012E-03  -1.01094984E-05
  -9.75000020E-03  -1.03072725E-05
  -9.70000029E-03  -1.05085446E-05
  -9.65000037E-03  -1.07133674E-05
  -9.60000046E-03  -1.09217981E-05
  -9.54999961E-03  -1.11338923E-05
  -9.49999969E-03  -1.13497044E-05
  -9.44999978E-03  -1.15692937E-05
  -9.39999986E-03  -1.17927148E-05
  -9.34999995E-03  -1.20200184E-05
  -9.30000003E-03  -1.22512574E-05
  -9.25000012E-03  -1.24864946E-05
  -9.20000020E-03  -1.27257908E-05
  -9.15000029E-03  -1.29692098E-05
  -9.10000037E-03  -1.32168079E-05
  -9.05000046E-03  -1.34686452E-05
  -8.99999961E-03  -1.37247880E-05
  -8.94999970E-03  -1.39853091E-05
  -8.89999978E-03  -1.42502604E-05
  -8.84999987E-03  -1.45197027E-05
  -8.79999995E-03  -1.47937035E-05
  -8.75000004E-03  -1.50723354E-05
  -8.70000012E-03  -1.53556648E-05
  -8.65000021E-03  -1.56437527E-05
  -8.60000029E-03  -1.59366664E-05
  -8.55000038E-03  -1.62344786E-05
  -8.50000046E-03  -1.65372603E-05
  -8.44999962E-03  -1.68450679E-05
  -8.39999970E-03  -1.71579613E-05
  -8.34999979E-03  -1.74760135E-05
  -8.29999987E-03  -1.77992970E-05
  -8.24999996E-03  -1.81278847E-05
  -8.20000004E-03  -1.84618402E-05
  -8.15000013E-03  -1.88012309E-05
  -8.10000021E-03  -1.91461259E-05
  -8.05000030E-03  -1.94966087E-05
  -8.00000038E-03  -1.98527523E-05
  -7.95000046E-03  -2.02146257E-05
  -7.89999962E-03  -2.05822926E-05
  -7.84999970E-03  -2.09558239E-05
  -7.79999979E-03  -2.13353014E-05
  -7.74999987E-03  -2.17208144E-05
  -7.69999996E-03  -2.21124374E-05
  -7.65000004E-03  -2.25102394E-05
  -7.60000013E-03  -2.29142897E-05
  -7.55000021E-03  -2.33246665E-05
  -7.49999983E-03  -2.37414570E-05
  -7.44999992E-03  -2.41647485E-05
  -7.40000000E-03  -2.45946048E-05
  -7.35000009E-03  -2.50311004E-05
  -7.30000017E-03  -2.54743118E-05
  -7.24999979E-03  -2.59243388E-05
  -7.19999988E-03  -2.63812672E-05
  -7.14999996E-03  -2.68451749E-05
  -7.10000005E-03  -2.73161313E-05
  -7.05000013E-03  -2.77942072E-05
  -7.00000022E-03  -2.82794881E-05
  -6.94999984E-03  -2.87720632E-05
  -6.89999992E-03  -2.92720251E-05
  -6.85000001E-03  -2.97794541E-05
  -6.80000009E-03  -3.02944118E-05
  -6.75000018E-03  -3.08169765E-05
  -6.69999979E-03  -3.13472628E-05
  -6.64999988E-03  -3.18853636E-05
  -6.59999996E-03  -3.24313514E-05
  -6.55000005E-03  -3.29852846E-05
  -6.50000013E-03  -3.35472541E-05
  -6.45000022E-03  -3.41173654E-05
  -6.39999984E-03  -3.46957349E-05
  -6.34999992E-03  -3.52824318E-05
  -6.30000001E-03  -3.58775469E-05
  -6.25000009E-03  -3.64811567E-05
  -6.20000018E-03  -3.70933631E-05
  -6.14999980E-03  -3.77142569E-05
  -6.09999988E-03  -3.83439401E-05
  -6.04999997E-03  -3.89824781E-05
  -6.00000005E-03  -3.96299511E-05
  -5.95000014E-03  -4.02864498E-05
  -5.90000022E-03  -4.09520762E-05
  -5.84999984E-03  -4.16269286E-05
  -5.79999993E-03  -4.23110978E-05
  -5.75000001E-03  -4.30046603E-05
  -5.70000010E-03  -4.37076851E-05
  -5.65000018E-03  -4.44202815E-05
  -5.59999980E-03  -4.51425331E-05
  -5.54999989E-03  -4.58745453E-05
  -5.49999997E-03  -4.66163910E-05
  -5.45000006E-03  -4.73681794E-05
  -5.40000014E-03  -4.81300049E-05
  -5.35000023E-03  -4.89019621E-05
  -5.29999984E-03  -4.96841494E-05
  -5.24999993E-03  -5.04766504E-05
  -5.20000001E-03  -5.12795596E-05
  -5.15000010E-03  -5.20929643E-05
  -5.10000018E-03  -5.29169338E-05
  -5.04999980E-03  -5.37515843E-05
  -4.99999989E-03  -5.45970252E-05
  -4.94999997E-03  -5.54533435E-05
  -4.90000006E-03  -5.63206086E-05
  -4.85000014E-03  -5.71988967E-05
  -4.80000023E-03  -5.80883025E-05
  -4.74999985E-03  -5.89889351E-05
  -4.69999993E-03  -5.99008636E-05
  -4.65000002E-03  -6.08241498E-05
  -4.60000010E-03  -6.17588739E-05
  -4.55000019E-03  -6.27051195E-05
  -4.49999981E-03  -6.36630066E-05
  -4.44999989E-03  -6.46326444E-05
  -4.39999998E-03  -6.56140910E-05
  -4.35000006E-03  -6.66074266E-05
  -4.30000015E-03  -6.76127238E-05
  -4.25000023E-03  -6.86300991E-05
  -4.19999985E-03  -6.96596326E-05
  -4.14999994E-03  -7.07013824E-05
  -4.10000002E-03  -7.17554212E-05
  -4.05000011E-03  -7.28218511E-05
  -4.00000019E-03  -7.39007737E-05
  -3.94999981E-03  -7.49922619E-05
  -3.89999989E-03  -7.60963667E-05
  -3.84999998E-03  -7.72131170E-05
  -3.80000006E-03  -7.83426076E-05
  -3.74999992E-03  -7.94849329E-05
  -3.70000000E-03  -8.06401586E-05
  -3.65000009E-03  -8.18083645E-05
  -3.59999994E-03  -8.29895725E-05
  -3.55000002E-03  -8.41838555E-05
  -3.50000011E-03  -8.53912934E-05
  -3.44999996E-03  -8.66119735E-05
  -3.40000005E-03  -8.78459468E-05
  -3.34999990E-03  -8.90932351E-05
  -3.29999998E-03  -9.03538821E-05
  -3.25000007E-03  -9.16279678E-05
  -3.19999992E-03  -9.29155431E-05
  -3.15000000E-03  -9.42166735E-05
  -3.10000009E-03  -9.55314099E-05
  -3.04999994E-03  -9.68597742E-05
  -3.00000003E-03  -9.82018028E-05
  -2.95000011E-03  -9.95575319E-05
  -2.89999996E-03  -1.00927042E-04
  -2.85000005E-03  -1.02310361E-04
  -2.79999990E-03  -1.03707498E-04
  -2.74999999E-03  -1.05118437E-04
  -2.70000007E-03  -1.06543259E-04
  -2.64999992E-03  -1.07982036E-04
  -2.60000001E-03  -1.09434754E-04
  -2.55000009E-03  -1.10901397E-04
  -2.49999994E-03  -1.12381982E-04
  -2.45000003E-03  -1.13876493E-04
  -2.40000011E-03  -1.15384959E-04
  -2.34999997E-03  -1.16907417E-04
  -2.30000005E-03  -1.18443844E-04
  -2.24999990E-03  -1.19994227E-04
  -2.19999999E-03  -1.21558536E-04
  -2.15000007E-03  -1.23136793E-04
  -2.09999993E-03  -1.24728977E-04
  -2.05000001E-03  -1.26335086E-04
  -2.00000009E-03  -1.27955063E-04
  -1.94999995E-03  -1.29588851E-04
  -1.90000003E-03  -1.31236418E-04
  -1.85000000E-03  -1.32897781E-04
  -1.79999997E-03  -1.34572882E-04
  -1.75000005E-03  -1.36261689E-04
  -1.70000002E-03  -1.37964147E-04
  -1.64999999E-03  -1.39680225E-04
  -1.59999996E-03  -1.41409779E-04
  -1.55000004E-03  -1.43152763E-04
  -1.50000001E-03  -1.44909107E-04
  -1.44999998E-03  -1.46678765E-04
  -1.39999995E-03  -1.48461666E-04
  -1.35000004E-03  -1.50257663E-04
  -1.30000000E-03  -1.52066641E-04
  -1.24999997E-03  -1.53888483E-04
  -1.20000006E-03  -1.55723130E-04
  -1.15000003E-03  -1.57570510E-04
  -1.09999999E-03  -1.59430478E-04
  -1.04999996E-03  -1.61302742E-04
  -1.00000005E-03  -1.63187127E-04
  -9.50000016E-04  -1.65083678E-04
  -8.99999985E-04  -1.66992308E-04
  -8.50000011E-04  -1.68912869E-04
  -7.99999980E-04  -1.70845044E-04
  -7.50000007E-04  -1.72788568E-04
  -6.99999975E-04  -1.74743356E-04
  -6.50000002E-04  -1.76709334E-04
  -6.00000028E-04  -1.78686299E-04
  -5.49999997E-04  -1.80673916E-04
  -5.00000024E-04  -1.82671865E-04
  -4.49999992E-04  -1.84679971E-04
  -3.99999990E-04  -1.86698206E-04
  -3.49999988E-04  -1.88726364E-04
  -3.00000014E-04  -1.90764084E-04
  -2.50000012E-04  -1.92810956E-04
  -1.99999995E-04  -1.94866690E-04
  -1.50000007E-04  -1.96931156E-04
  -9.99999975E-05  -1.99004120E-04
  -4.99999987E-05  -2.01085277E-04
   0.00000000      -2.03174161E-04
   4.99999987E-05  -2.05270408E-04
   9.99999975E-05  -2.07373800E-04
   1.50000007E-04  -2.09484133E-04
   1.99999995E-04  -2.11601029E-04
   2.50000012E-04  -2.13723950E-04
   3.00000014E-04  -2.15852400E-04
   3.49999988E-04  -2.17986089E-04
   3.99999990E-04  -2.20124784E-04
   4.49999992E-04  -2.22268107E-04
   5.00000024E-04  -2.24415548E-04
   5.49999997E-04  -2.26566553E-04
   6.00000028E-04  -2.28720673E-04
   6.50000002E-04  -2.30877602E-04
   6.99999975E-04  -2.33036932E-04
   7.50000007E-04  -2.35198138E-04
   7.99999980E-04  -2.37360568E-04
   8.50000011E-04  -2.39523637E-04
   8.99999985E-04  -2.41686939E-04
   9.50000016E-04  -2.43850038E-04
   1.00000005E-03  -2.46012438E-04
   1.04999996E-03  -2.48173397E-04
   1.09999999E-03  -2.50332232E-04
   1.15000003E-03  -2.52488360E-04
   1.20000006E-03  -2.54641287E-04
   1.24999997E-03  -2.56790576E-04
   1.30000000E-03  -2.58935383E-04
   1.35000004E-03  -2.61074951E-04
   1.39999995E-03  -2.63208552E-04
   1.44999998E-03  -2.65335693E-04
   1.50000001E-03  -2.67455820E-04
   1.55000004E-03  -2.69568118E-04
   1.59999996E-03  -2.71671684E-04
   1.64999999E-03  -2.73765734E-04
   1.70000002E-03  -2.75849598E-04
   1.75000005E-03  -2.77922605E-04
   1.79999997E-03  -2.79983942E-04
   1.85000000E-03  -2.82032648E-04
   1.90000003E-03  -2.84067850E-04
   1.94999995E-03  -2.86088703E-04
   2.00000009E-03  -2.88094510E-04
   2.05000001E-03  -2.90084397E-04
   2.09999993E-03  -2.92057288E-04
   2.15000007E-03  -2.94012279E-04
   2.19999999E-03  -2.95948295E-04
   2.24999990E-03  -2.97864550E-04
   2.30000005E-03  -2.99760111E-04
   2.34999997E-03  -3.01633961E-04
   2.40000011E-03  -3.03484936E-04
   2.45000003E-03  -3.05311958E-04
   2.49999994E-03  -3.07114038E-04
   2.55000009E-03  -3.08890245E-04
   2.60000001E-03  -3.10639414E-04
   2.64999992E-03  -3.12360295E-04
   2.70000007E-03  -3.14051693E-04
   2.74999999E-03  -3.15712619E-04
   2.79999990E-03  -3.17342026E-04