  -3.99999991E-02   0.00000000    
  -3.99499983E-02   0.00000000    
  -3.99000011E-02   0.00000000    
  -3.98500003E-02   0.00000000    
  -3.97999994E-02   1.35877299E-18
  -3.97499986E-02   1.65641412E-17
  -3.97000015E-02   1.04103453E-16
  -3.96500006E-02   4.47814143E-16
  -3.95999998E-02   1.47708665E-15
  -3.95499989E-02   3.96831463E-15
  -3.95000018E-02   9.00628364E-15
  -3.94500010E-02   1.76799883E-14
  -3.94000001E-02   3.05024188E-14
  -3.93499993E-02   4.67742164E-14
  -3.92999984E-02   6.43401958E-14
  -3.92500013E-02   8.02151246E-14
  -3.92000005E-02   9.22184827E-14
  -3.91499996E-02   1.01100050E-13
  -3.90999988E-02   1.11984830E-13
  -3.90500017E-02   1.33814008E-13
  -3.90000008E-02   1.76159556E-13
  -3.89500000E-02   2.44223478E-13
  -3.88999991E-02   3.34317724E-13
  -3.88499983E-02   4.32696603E-13
  -3.88000011E-02   5.19612836E-13
  -3.87500003E-02   5.78007585E-13
  -3.86999995E-02   6.03349402E-13
  -3.86499986E-02   6.09366182E-13
  -3.86000015E-02   6.25110207E-13
  -3.85500006E-02   6.82295583E-13
  -3.84999998E-02   7.97005745E-13
  -3.84499989E-02   9.54239509E-13
  -3.84000018E-02   1.10460263E-12
  -3.83500010E-02   1.17826506E-12
  -3.83000001E-02   1.11314636E-12
  -3.82499993E-02   8.85866792E-13
  -3.81999984E-02   5.30011581E-13
  -3.81500013E-02   1.29796916E-13
  -3.81000005E-02  -2.12282028E-13
  -3.80499996E-02  -4.22322659E-13
  -3.79999988E-02  -4.95864688E-13
  -3.79500017E-02  -5.12141273E-13
  -3.79000008E-02  -6.11263427E-13
  -3.78500000E-02  -9.40462768E-13
  -3.77999991E-02  -1.59130662E-12
  -3.77499983E-02  -2.55677467E-12
  -3.77000012E-02  -3.73056187E-12
  -3.76500003E-02  -4.95248677E-12
  -3.75999995E-02  -6.08157318E-12
  -3.75499986E-02  -7.06344488E-12
  -3.75000015E-02  -7.95946815E-12
  -3.74500006E-02  -8.92199075E-12
  -3.73999998E-02  -1.01249729E-11
  -3.73499990E-02  -1.16800094E-11
  -3.73000018E-02  -1.35741999E-11
  -3.72500010E-02  -1.56561795E-11
  -3.72000001E-02  -1.76753542E-11
  -3.71499993E-02  -1.93572935E-11
  -3.70999984E-02  -2.04854415E-11
  -3.70500013E-02  -2.09605978E-11
  -3.70000005E-02  -2.08228140E-11
  -3.69499996E-02  -2.02368816E-11
  -3.68999988E-02  -1.94526461E-11
  -3.68500017E-02  -1.87504665E-11
  -3.68000008E-02  -1.83748503E-11
  -3.67500000E-02  -1.84564412E-11
  -3.66999991E-02  -1.89321388E-11
  -3.66499983E-02  -1.94921579E-11
  -3.66000012E-02  -1.95962448E-11
  -3.65500003E-02  -1.85910575E-11
  -3.64999995E-02  -1.59203050E-11
  -3.64499986E-02  -1.13616729E-11
  -3.64000015E-02  -5.18048278E-12
  -3.63500006E-02   1.90750389E-12
  -3.62999998E-02   9.00613698E-12
  -3.62499990E-02   1.54709787E-11
  -3.62000018E-02   2.13201939E-11
  -3.61500010E-02   2.73936863E-11
  -3.61000001E-02   3.50971370E-11
  -3.60499993E-02   4.57473052E-11
  -3.59999985E-02   5.97604466E-11
  -3.59500013E-02   7.60823626E-11
  -3.59000005E-02   9.22390012E-11
  -3.58499996E-02   1.05153934E-10
  -3.57999988E-02   1.12507469E-10
  -3.57500017E-02   1.14068074E-10
  -3.57000008E-02   1.12300801E-10
  -3.56500000E-02   1.11766672E-10
  -3.55999991E-02   1.17335863E-10
  -3.55499983E-02   1.31849393E-10
  -3.55000012E-02   1.54283239E-10
  -3.54500003E-02   1.79437770E-10
  -3.53999995E-02   1.99614214E-10
  -3.53499986E-02   2.07827117E-10
  -3.53000015E-02   2.01238720E-10
  -3.52500007E-02   1.83139726E-10
  -3.51999998E-02   1.62225122E-10
  -3.51499990E-02   1.49047732E-10
  -3.51000018E-02   1.50928339E-10
  -3.50500010E-02   1.67598185E-10
  -3.50000001E-02   1.89875365E-10
  -3.49499993E-02   2.02554459E-10
  -3.48999985E-02   1.90790578E-10
  -3.48500013E-02   1.47402923E-10
  -3.48000005E-02   7.76450571E-11
  -3.47499996E-02  -1.31515100E-12
  -3.46999988E-02  -6.67850775E-11
  -3.46500017E-02  -1.00579246E-10
  -3.46000008E-02  -9.83355827E-11
  -3.45500000E-02  -7.34592526E-11
  -3.44999991E-02  -5.29982620E-11
  -3.44499983E-02  -6.63257851E-11
  -3.44000012E-02  -1.31150646E-10
  -3.43500003E-02  -2.43313564E-10
  -3.42999995E-02  -3.75859843E-10
  -3.42499986E-02  -4.89088048E-10
  -3.42000015E-02  -5.48135259E-10
  -3.41500007E-02  -5.40512746E-10
  -3.40999998E-02  -4.85019691E-10
  -3.40499990E-02  -4.26542607E-10
  -3.40000018E-02  -4.17422902E-10
  -3.39500010E-02  -4.92715702E-10
  -3.39000002E-02  -6.50581145E-10
  -3.38499993E-02  -8.47980741E-10
  -3.37999985E-02  -1.01569575E-09
  -3.37500013E-02  -1.08781295E-09
  -3.37000005E-02  -1.03323239E-09
  -3.36499996E-02  -8.74273542E-10
  -3.35999988E-02  -6.81906309E-10
  -3.35500017E-02  -5.47172474E-10
  -3.35000008E-02  -5.39788658E-10
  -3.34500000E-02  -6.72355616E-10
  -3.33999991E-02  -8.87992513E-10
  -3.33499983E-02  -1.07994746E-09
  -3.33000012E-02  -1.13729948E-09
  -3.32500003E-02  -9.97676275E-10
  -3.31999995E-02  -6.82458146E-10
  -3.31499986E-02  -2.95696800E-10
  -3.31000015E-02   1.66281572E-11
  -3.30500007E-02   1.31741326E-10
  -3.29999998E-02   1.10414820E-11
  -3.29499990E-02  -2.72627421E-10
  -3.29000019E-02  -5.57883129E-10
  -3.28500010E-02  -6.62096877E-10
  -3.28000002E-02  -4.65522010E-10
  -3.27499993E-02   2.60576508E-11
  -3.26999985E-02   6.72015610E-10
  -3.26500013E-02   1.25046007E-09
  -3.26000005E-02   1.55523650E-09
  -3.25499997E-02   1.49437818E-09
  -3.24999988E-02   1.14338705E-09
  -3.24500017E-02   7.23861970E-10
  -3.24000008E-02   5.10756049E-10
  -3.23500000E-02   7.05773606E-10
  -3.22999991E-02   1.33393141E-09
  -3.22499983E-02   2.21450391E-09
  -3.22000012E-02   3.02688941E-09
  -3.21500003E-02   3.44874374E-09
  -3.20999995E-02   3.30744676E-09
  -3.20499986E-02   2.67442490E-09
  -3.20000015E-02   1.85271654E-09
  -3.19500007E-02   1.25436350E-09
  -3.18999998E-02   1.21598953E-09
  -3.18499990E-02   1.83424087E-09
  -3.18000019E-02   2.90026381E-09
  -3.17500010E-02   3.97227895E-09
  -3.17000002E-02   4.56342564E-09
  -3.16499993E-02   4.36588277E-09
  -3.15999985E-02   3.40878303E-09
  -3.15500014E-02   2.07039519E-09
  -3.15000005E-02   9.27314392E-10
  -3.14499997E-02   4.98730168E-10
  -3.13999988E-02   9.97758209E-10
  -3.13500017E-02   2.20722440E-09
  -3.13000008E-02   3.54785490E-09
  -3.12500000E-02   4.32164482E-09
  -3.11999992E-02   4.02961531E-09
  -3.11500002E-02   2.62063304E-09
  -3.10999993E-02   5.49579271E-10
  -3.10500003E-02  -1.39652279E-09
  -3.09999995E-02  -2.44015830E-09
  -3.09500005E-02  -2.17528329E-09
  -3.08999997E-02  -7.81986920E-10
  -3.08500007E-02   1.01685460E-09
  -3.07999998E-02   2.25484431E-09
  -3.07500008E-02   2.15542317E-09
  -3.07000000E-02   5.06381825E-10
  -3.06499992E-02  -2.20320939E-09
  -3.06000002E-02  -4.96365660E-09
  -3.05499993E-02  -6.68003430E-09
  -3.05000003E-02  -6.67633904E-09
  -3.04499995E-02  -5.03790210E-09
  -3.04000005E-02  -2.62166888E-09
  -3.03499997E-02  -7.07569781E-10
  -3.03000007E-02  -4.29707769E-10
  -3.02499998E-02  -2.23772378E-09
  -3.02000009E-02  -5.64086777E-09
  -3.01500000E-02  -9.37200273E-09
  -3.00999992E-02  -1.19221930E-08
  -3.00500002E-02  -1.22211583E-08
  -2.99999993E-02  -1.01570166E-08
  -2.99500003E-02  -6.68432687E-09
  -2.98999995E-02  -3.44517059E-09
  -2.98500005E-02  -2.04935002E-09
  -2.97999997E-02  -3.32675643E-09
  -2.97500007E-02  -6.89659441E-09
  -2.96999998E-02  -1.12717364E-08
  -2.96500009E-02  -1.44813921E-08
  -2.96000000E-02  -1.49541322E-08
  -2.95499992E-02  -1.22677362E-08
  -2.95000002E-02  -7.41126893E-09
  -2.94499993E-02  -2.41012144E-09
  -2.94000003E-02   5.49010060E-10
  -2.93499995E-02   1.17322055E-10
  -2.93000005E-02  -3.54713392E-09
  -2.92499997E-02  -8.76781669E-09
  -2.92000007E-02  -1.30369830E-08
  -2.91499998E-02  -1.41232119E-08
  -2.91000009E-02  -1.11114691E-08
  -2.90500000E-02  -4.89299445E-09
  -2.89999992E-02   2.14973772E-09
  -2.89500002E-02   7.16018089E-09
  -2.88999993E-02   8.09531731E-09
  -2.88500004E-02   4.70505190E-09
  -2.87999995E-02  -1.26314903E-09
  -2.87500005E-02  -6.76807810E-09
  -2.86999997E-02  -8.80943318E-09
  -2.86500007E-02  -5.81129056E-09
  -2.85999998E-02   1.57922764E-09
  -2.85500009E-02   1.06744231E-08
  -2.85000000E-02   1.78745676E-08
  -2.84499992E-02   2.02709458E-08
  -2.84000002E-02   1.70109242E-08
  -2.83499993E-02   9.78716663E-09
  -2.83000004E-02   2.18443286E-09
  -2.82499995E-02  -1.87124760E-09
  -2.82000005E-02   1.06900398E-10
  -2.81499997E-02   7.96082045E-09
  -2.81000007E-02   1.88356299E-08
  -2.80499998E-02   2.83581603E-08
  -2.80000009E-02   3.25630047E-08
  -2.79500000E-02   2.97188940E-08
  -2.78999992E-02   2.12156053E-08
  -2.78500002E-02   1.10638609E-08
  -2.77999993E-02   4.17521839E-09
  -2.77500004E-02   4.15419699E-09
  -2.76999995E-02   1.15900489E-08
  -2.76500005E-02   2.36503119E-08
  -2.75999997E-02   3.52183918E-08
  -2.75500007E-02   4.11227639E-08
  -2.74999999E-02   3.84878227E-08
  -2.74500009E-02   2.81395565E-08
  -2.74000000E-02   1.43856314E-08
  -2.73499992E-02   3.20196047E-09
  -2.73000002E-02  -4.14266094E-10
  -2.72499993E-02   5.24570654E-09
  -2.72000004E-02   1.76946031E-08
  -2.71499995E-02   3.12130766E-08
  -2.71000005E-02   3.93213710E-08
  -2.70499997E-02   3.76942921E-08
  -2.70000007E-02   2.62112696E-08
  -2.69499999E-02   9.17540355E-09
  -2.69000009E-02  -6.46938414E-09
  -2.68500000E-02  -1.41905128E-08
  -2.67999992E-02  -1.08502647E-08
  -2.67500002E-02   1.73740045E-09
  -2.66999993E-02   1.74384081E-08
  -2.66500004E-02   2.84150143E-08
  -2.65999995E-02   2.86148030E-08
  -2.65500005E-02   1.65822360E-08
  -2.64999997E-02  -3.70757447E-09
  -2.64500007E-02  -2.44439686E-08
  -2.63999999E-02  -3.73711053E-08
  -2.63500009E-02  -3.75029927E-08
  -2.63000000E-02  -2.54923851E-08
  -2.62499992E-02  -7.53269447E-09
  -2.62000002E-02   7.25078353E-09
  -2.61499994E-02   1.08283666E-08
  -2.61000004E-02  -6.02170536E-11
  -2.60499995E-02  -2.22601866E-08
  -2.60000005E-02  -4.73991548E-08
  -2.59499997E-02  -6.54846346E-08
  -2.59000007E-02  -6.93578883E-08
  -2.58499999E-02  -5.80203512E-08
  -2.58000009E-02  -3.72910165E-08
  -2.57500000E-02  -1.74072934E-08
  -2.56999992E-02  -8.54953885E-09
  -2.56500002E-02  -1.62400298E-08
  -2.55999994E-02  -3.86886114E-08
  -2.55500004E-02  -6.73468108E-08
  -2.54999995E-02  -9.05259085E-08
  -2.54500005E-02  -9.85472894E-08
  -2.53999997E-02  -8.81528663E-08
  -2.53500007E-02  -6.41641691E-08
  -2.52999999E-02  -3.75547344E-08
  -2.52500009E-02  -2.06912443E-08
  -2.52000000E-02  -2.17981828E-08
  -2.51499992E-02  -4.11156549E-08
  -2.51000002E-02  -7.05338934E-08
  -2.50499994E-02  -9.69772458E-08
  -2.50000004E-02  -1.08130422E-07
  -2.49499995E-02  -9.80013013E-08
  -2.49000005E-02  -6.98114633E-08
  -2.48499997E-02  -3.48319311E-08
  -2.48000007E-02  -7.56403651E-09
  -2.47499999E-02   6.77959855E-10
  -2.47000009E-02  -1.30548541E-08
  -2.46500000E-02  -4.17718162E-08
  -2.45999992E-02  -7.13873192E-08
  -2.45500002E-02  -8.68364793E-08
  -2.44999994E-02  -7.88100536E-08
  -2.44500004E-02  -4.81014091E-08
  -2.43999995E-02  -5.54327562E-09
  -2.43500005E-02   3.25646958E-08
  -2.42999997E-02   5.16137355E-08
  -2.42500007E-02   4.52889068E-08
  -2.41999999E-02   1.86363138E-08
  -2.41500009E-02  -1.38836764E-08
  -2.41000000E-02  -3.46260016E-08
  -2.40499992E-02  -3.05986916E-08
  -2.40000002E-02   5.62698887E-10
  -2.39499994E-02   4.92168013E-08
  -2.39000004E-02   9.76812302E-08
  -2.38499995E-02   1.27911150E-07
  -2.38000005E-02   1.29551566E-07
  -2.37499997E-02   1.04764304E-07
  -2.37000007E-02   6.75784833E-08
  -2.36499999E-02   3.79071743E-08
  -2.36000009E-02   3.27681740E-08
  -2.35500000E-02   5.85677569E-08
  -2.34999992E-02   1.07932991E-07
  -2.34500002E-02   1.62632148E-07
  -2.33999994E-02   2.01435171E-07
  -2.33500004E-02   2.09522483E-07
  -2.32999995E-02   1.85267353E-07
  -2.32500006E-02   1.41285213E-07
  -2.31999997E-02   9.91311992E-08
  -2.31500007E-02   7.98563420E-08
  -2.30999999E-02   9.45449088E-08
  -2.30500009E-02   1.39070366E-07
  -2.30000000E-02   1.95525971E-07
  -2.29499992E-02   2.39859702E-07
  -2.29000002E-02   2.52453361E-07
  -2.28499994E-02   2.26985151E-07
  -2.28000004E-02   1.73567074E-07
  -2.27499995E-02   1.14611041E-07
  -2.27000006E-02   7.50945048E-08
  -2.26499997E-02   7.14438997E-08
  -2.26000007E-02   1.03976298E-07
  -2.25499999E-02   1.56367932E-07
  -2.25000009E-02   2.02557473E-07
  -2.24500000E-02   2.18174065E-07
  -2.23999992E-02   1.91484915E-07
  -2.23500002E-02   1.28953175E-07
  -2.22999994E-02   5.27902557E-08
  -2.22500004E-02  -8.59286331E-09
  -2.21999995E-02  -3.31317231E-08
  -2.21500006E-02  -1.51109045E-08
  -2.20999997E-02   3.19092912E-08
  -2.20500007E-02   8.07154450E-08
  -2.19999999E-02   1.02296298E-07
  -2.19500009E-02   7.87731480E-08
  -2.19000001E-02   1.16501200E-08
  -2.18499992E-02  -7.84086609E-08
  -2.18000002E-02  -1.60364522E-07
  -2.17499994E-02  -2.06414668E-07
  -2.17000004E-02  -2.04449734E-07
  -2.16499995E-02  -1.63764341E-07
  -2.16000006E-02  -1.11321647E-07
  -2.15499997E-02  -8.00370614E-08
  -2.15000007E-02  -9.41468130E-08
  -2.14499999E-02  -1.58139940E-07
  -2.14000009E-02  -2.54277154E-07
  -2.13500001E-02  -3.49988056E-07
  -2.12999992E-02  -4.12048820E-07
  -2.12500002E-02  -4.21346556E-07
  -2.11999994E-02  -3.81645236E-07
  -2.11500004E-02  -3.18312743E-07
  -2.10999995E-02  -2.67373451E-07
  -2.10500006E-02  -2.59581952E-07
  -2.09999997E-02  -3.06533138E-07
  -2.09500007E-02  -3.95053775E-07
  -2.08999999E-02  -4.92544359E-07
  -2.08500009E-02  -5.61098204E-07
  -2.08000001E-02  -5.74259616E-07
  -2.07499992E-02  -5.28984742E-07
  -2.07000002E-02  -4.47371008E-07
  -2.06499994E-02  -3.67188733E-07
  -2.06000004E-02  -3.25234879E-07
  -2.05499995E-02  -3.40813500E-07
  -2.05000006E-02  -4.06726457E-07
  -2.04499997E-02  -4.91938977E-07
  -2.04000007E-02  -5.54944620E-07
  -2.03499999E-02  -5.62056528E-07
  -2.03000009E-02  -5.02545618E-07
  -2.02500001E-02  -3.93810211E-07
  -2.01999992E-02  -2.74093480E-07
  -2.01500002E-02  -1.85783094E-07
  -2.00999994E-02  -1.56585017E-07
  -2.00500004E-02  -1.86938024E-07
  -1.99999996E-02  -2.49391263E-07
  -1.99500006E-02  -3.00418890E-07
  -1.98999997E-02  -2.99601851E-07
  -1.98500007E-02  -2.27733651E-07
  -1.97999999E-02  -9.57514246E-08
  -1.97500009E-02   5.96387011E-08
  -1.97000001E-02   1.91898934E-07
  -1.96499992E-02   2.65225196E-07
  -1.96000002E-02   2.70632285E-07
  -1.95499994E-02   2.30310675E-07
  -1.95000004E-02   1.88132361E-07
  -1.94499996E-02   1.90334148E-07
  -1.94000006E-02   2.64850229E-07
  -1.93499997E-02   4.08492724E-07
  -1.93000007E-02   5.87810746E-07
  -1.92499999E-02   7.53439906E-07
  -1.92000009E-02   8.61730541E-07
  -1.91500001E-02   8.94108496E-07
  -1.90999992E-02   8.65508298E-07
  -1.90500002E-02   8.17975774E-07
  -1.89999994E-02   8.02097361E-07
  -1.89500004E-02   8.54384780E-07
  -1.88999996E-02   9.80647087E-07
  -1.88500006E-02   1.15284183E-06
  -1.87999997E-02   1.32097784E-06
  -1.87500007E-02   1.43494310E-06
  -1.86999999E-02   1.46665104E-06
  -1.86500009E-02   1.42263298E-06
  -1.86000001E-02   1.34135144E-06
  -1.85499992E-02   1.27625060E-06
  -1.85000002E-02   1.27193471E-06
  -1.84499994E-02   1.34401273E-06
  -1.84000004E-02   1.47162723E-06
  -1.83499996E-02   1.60613263E-06
  -1.83000006E-02   1.69223222E-06
  -1.82499997E-02   1.69229122E-06
  -1.82000007E-02   1.60303091E-06
  -1.81499999E-02   1.45709726E-06
  -1.81000009E-02   1.30866499E-06
  -1.80500001E-02   1.20933532E-06
  -1.79999992E-02   1.18496610E-06
  -1.79500002E-02   1.22376537E-06
  -1.78999994E-02   1.28104841E-06
  -1.78500004E-02   1.29868454E-06
  -1.77999996E-02   1.23070890E-06
  -1.77500006E-02   1.06375148E-06
  -1.76999997E-02   8.23142500E-07
  -1.76500008E-02   5.61867012E-07
  -1.75999999E-02   3.37145565E-07
  -1.75500009E-02   1.84951674E-07
  -1.75000001E-02   1.03798897E-07
  -1.74499992E-02   5.50608270E-08
  -1.74000002E-02  -2.01975947E-08
  -1.73499994E-02  -1.75252907E-07
  -1.73000004E-02  -4.34105516E-07
  -1.72499996E-02  -7.80713663E-07
  -1.72000006E-02  -1.16595322E-06
  -1.71499997E-02  -1.52929738E-06
  -1.71000008E-02  -1.82566532E-06
  -1.70499999E-02  -2.04553226E-06
  -1.70000009E-02  -2.21932441E-06
  -1.69500001E-02  -2.40406462E-06
  -1.68999992E-02  -2.65810922E-06
  -1.68500002E-02  -3.01514933E-06
  -1.67999994E-02  -3.46902425E-06
  -1.67500004E-02  -3.97614258E-06
  -1.66999996E-02  -4.47451430E-06
  -1.66500006E-02  -4.91101491E-06
  -1.65999997E-02  -5.26482563E-06
  -1.65500008E-02  -5.55660699E-06
  -1.64999999E-02  -5.83931933E-06
  -1.64500009E-02  -6.17467049E-06
  -1.64000001E-02  -6.60560727E-06
  -1.63499992E-02  -7.13709233E-06
  -1.63000003E-02  -7.73364991E-06
  -1.62499994E-02  -8.33481499E-06
  -1.62000004E-02  -8.88172053E-06
  -1.61499996E-02  -9.34300806E-06
  -1.61000006E-02  -9.72855833E-06
  -1.60499997E-02  -1.00849456E-05
  -1.60000008E-02  -1.04746077E-05
  -1.59499999E-02  -1.09479506E-05
  -1.59000009E-02  -1.15207722E-05
  -1.58500001E-02  -1.21669618E-05
  -1.57999992E-02  -1.28297770E-05
  -1.57500003E-02  -1.34467191E-05
  -1.56999994E-02  -1.39769463E-05
  -1.56500004E-02  -1.44191372E-05
  -1.55999996E-02  -1.48118488E-05
  -1.55499997E-02  -1.52162702E-05
  -1.54999997E-02  -1.56890073E-05
  -1.54499998E-02  -1.62569340E-05
  -1.53999999E-02  -1.69052419E-05
  -1.53500000E-02  -1.75840069E-05
  -1.53000001E-02  -1.82303011E-05
  -1.52500002E-02  -1.87960122E-05
  -1.52000003E-02  -1.92690331E-05
  -1.51500003E-02  -1.96784822E-05
  -1.51000004E-02  -2.00817049E-05
  -1.50499996E-02  -2.05388023E-05
  -1.49999997E-02  -2.10859980E-05
  -1.49499997E-02  -2.17196393E-05
  -1.48999998E-02  -2.23979605E-05
  -1.48499999E-02  -2.30597343E-05
  -1.48000000E-02  -2.36513861E-05
  -1.47500001E-02  -2.41506805E-05
  -1.47000002E-02  -2.45765859E-05
  -1.46500003E-02  -2.49808527E-05
  -1.46000003E-02  -2.54251809E-05
  -1.45500004E-02  -2.59541630E-05
  -1.44999996E-02  -2.65759627E-05
  -1.44499997E-02  -2.72592206E-05
  -1.43999998E-02  -2.79474352E-05
  -1.43499998E-02  -2.85844289E-05
  -1.42999999E-02  -2.91395627E-05
  -1.42500000E-02  -2.96214512E-05
  -1.42000001E-02  -3.00743013E-05
  -1.41500002E-02  -3.05586145E-05
  -1.41000003E-02  -3.11247277E-05
  -1.40500003E-02  -3.17911363E-05
  -1.40000004E-02  -3.25370456E-05
  -1.39499996E-02  -3.33121934E-05
  -1.38999997E-02  -3.40596962E-05
  -1.38499998E-02  -3.47416790E-05
  -1.37999998E-02  -3.53563773E-05
  -1.37499999E-02  -3.59391015E-05
  -1.37000000E-02  -3.65468586E-05
  -1.36500001E-02  -3.72337090E-05
  -1.36000002E-02  -3.80275596E-05
  -1.35500003E-02  -3.89187953E-05
  -1.35000004E-02  -3.98655720E-05
  -1.34500004E-02  -4.08133747E-05
  -1.33999996E-02  -4.17198789E-05
  -1.33499997E-02  -4.25740946E-05
  -1.32999998E-02  -4.34015928E-05
  -1.32499998E-02  -4.42535820E-05
  -1.31999999E-02  -4.51846754E-05
  -1.31500000E-02  -4.62294520E-05
  -1.31000001E-02  -4.73881082E-05
  -1.30500002E-02  -4.86274075E-05
  -1.30000003E-02  -4.98963855E-05
  -1.29500004E-02  -5.11497128E-05
  -1.29000004E-02  -5.23682211E-05
  -1.28499996E-02  -5.35675499E-05
  -1.27999997E-02  -5.47915515E-05
  -1.27499998E-02  -5.60933513E-05
  -1.26999998E-02  -5.75124614E-05
  -1.26499999E-02  -5.90582822E-05
  -1.26000000E-02  -6.07071706E-05
  -1.25500001E-02  -6.24143722E-05
  -1.25000002E-02  -6.41344959E-05
  -1.24500003E-02  -6.58421923E-05
  -1.24000004E-02  -6.75441333E-05
  -1.23500004E-02  -6.92759713E-05
  -1.22999996E-02  -7.10869863E-05
  -1.22499997E-02  -7.30189349E-05
  -1.21999998E-02  -7.50885520E-05
  -1.21499998E-02  -7.72813219E-05
  -1.20999999E-02  -7.95588494E-05
  -1.20500000E-02  -8.18768240E-05
  -1.20000001E-02  -8.42052614E-05
  -1.19500002E-02  -8.65417969E-05
  -1.19000003E-02  -8.89124130E-05
  -1.18500004E-02  -9.13602635E-05
  -1.18000004E-02  -9.39269448E-05
  -1.17499996E-02  -9.66345542E-05
  -1.16999997E-02  -9.94770380E-05
  -1.16499998E-02  -1.02424092E-04
  -1.15999999E-02  -1.05435771E-04
  -1.15499999E-02  -1.08481006E-04
  -1.15000000E-02  -1.11551723E-04
  -1.14500001E-02  -1.14666720E-04
  -1.14000002E-02  -1.17863383E-04
  -1.13500003E-02  -1.21181765E-04
  -1.13000004E-02  -1.24647515E-04
  -1.12500004E-02  -1.28261439E-04
  -1.11999996E-02  -1.32000408E-04
  -1.11499997E-02  -1.35828494E-04
  -1.10999998E-02  -1.39713316E-04
  -1.10499999E-02  -1.43640587E-04
  -1.09999999E-02  -1.47620478E-04
  -1.09500000E-02  -1.51682514E-04
  -1.09000001E-02  -1.55862814E-04
  -1.08500002E-02  -1.60189098E-04
  -1.08000003E-02  -1.64669196E-04
  -1.07500004E-02  -1.69289342E-04
  -1.07000005E-02  -1.74021639E-04
  -1.06499996E-02  -1.78837858E-04
  -1.05999997E-02  -1.83723256E-04
  -1.05499998E-02  -1.88683116E-04
  -1.04999999E-02  -1.93740940E-04
  -1.04499999E-02  -1.98929076E-04
  -1.04000000E-02  -2.04275289E-04
  -1.03500001E-02  -2.09791338E-04
  -1.03000002E-02  -2.15469132E-04
  -1.02500003E-02  -2.21286464E-04
  -1.02000004E-02  -2.27217359E-04
  -1.01500005E-02  -2.33244777E-04
  -1.00999996E-02  -2.39368208E-04
  -1.00499997E-02  -2.45604111E-04
  -9.99999978E-03  -2.51979771E-04
  -9.94999986E-03  -2.58521177E-04
  -9.89999995E-03  -2.65243289E-04
  -9.85000003E-03  -2.72145175E-04
  -9.80000012E-03  -2.79212167E-04
  -9.75000020E-03  -2.86424183E-04
  -9.70000029E-03  -2.93766439E-04
  -9.65000037E-03  -3.01237393E-04
  -9.60000046E-03  -3.08850198E-04
  -9.54999961E-03  -3.16628226E-04
  -9.49999969E-03  -3.24595894E-04
  -9.44999978E-03  -3.32770898E-04
  -9.39999986E-03  -3.41158302E-04
  -9.34999995E-03  -3.49750626E-04
  -9.30000003E-03  -3.58533493E-04
  -9.25000012E-03  -3.67493514E-04
  -9.20000020E-03  -3.76626296E-04
  -9.15000029E-03  -3.85938474E-04
  -9.10000037E-03  -3.95446143E-04
  -9.05000046E-03  -4.05169150E-04
  -8.99999961E-03  -4.15123912E-04
  -8.94999970E-03  -4.25317266E-04
  -8.89999978E-03  -4.35745809E-04
  -8.84999987E-03  -4.46400139E-04
  -8.79999995E-03  -4.57271060E-04
  -8.75000004E-03  -4.68354760E-04
  -8.70000012E-03  -4.79657203E-04
  -8.65000021E-03  -4.91192972E-04
  -8.60000029E-03  -5.02981246E-04
  -8.55000038E-03  -5.15038788E-04
  -8.50000046E-03  -5.27376076E-04
  -8.44999962E-03  -5.39995614E-04
  -8.39999970E-03  -5.52894082E-04
  -8.34999979E-03  -5.66067349E-04
  -8.29999987E-03  -5.79511863E-04
  -8.24999996E-03  -5.93230652E-04
  -8.20000004E-03  -6.07234077E-04
  -8.15000013E-03  -6.21537212E-04
  -8.10000021E-03  -6.36154437E-04
  -8.05000030E-03  -6.51095412E-04
  -8.00000038E-03  -6.66365027E-04
  -7.95000046E-03  -6.81962469E-04
  -7.89999962E-03  -6.97883836E-04
  -7.84999970E-03  -7.14127556E-04
  -7.79999979E-03  -7.30694970E-04
  -7.74999987E-03  -7.47591665E-04
  -7.69999996E-03  -7.64828816E-04
  -7.65000004E-03  -7.82420335E-04
  -7.60000013E-03  -8.00379494E-04
  -7.55000021E-03  -8.18714616E-04
  -7.49999983E-03  -8.37431347E-04
  -7.44999992E-03  -8.56531842E-04
  -7.40000000E-03  -8.76018952E-04
  -7.35000009E-03  -8.95895064E-04
  -7.30000017E-03  -9.16161749E-04
  -7.24999979E-03  -9.36825993E-04
  -7.19999988E-03  -9.57899378E-04
  -7.14999996E-03  -9.79395350E-04
  -7.10000005E-03  -1.00132567E-03
  -7.05000013E-03  -1.02369930E-03
  -7.00000022E-03  -1.04652299E-03
  -6.94999984E-03  -1.06979976E-03
  -6.89999992E-03  -1.09352777E-03
  -6.85000001E-03  -1.11770676E-03
  -6.80000009E-03  -1.14233862E-03
  -6.75000018E-03  -1.16743182E-03
  -6.69999979E-03  -1.19300222E-03
  -6.64999988E-03  -1.21906633E-03
  -6.59999996E-03  -1.24563673E-03
  -6.55000005E-03  -1.27272017E-03
  -6.50000013E-03  -1.30031712E-03
  -6.45000022E-03  -1.32842537E-03
  -6.39999984E-03  -1.35704502E-03
  -6.34999992E-03  -1.38617633E-03
  -6.30000001E-03  -1.41582859E-03
  -6.25000009E-03  -1.44602021E-03
  -6.20000018E-03  -1.47676980E-03
  -6.14999980E-03  -1.50810054E-03
  -6.09999988E-03  -1.54002814E-03
  -6.04999997E-03  -1.57255074E-03
  -6.00000005E-03  -1.60565774E-03
  -5.95000014E-03  -1.63934578E-03
  -5.90000022E-03  -1.67361984E-03
  -5.84999984E-03  -1.70849345E-03
  -5.79999993E-03  -1.74398429E-03
  -5.75000001E-03  -1.78011321E-03
  -5.70000010E-03  -1.81690033E-03
  -5.65000018E-03  -1.85436010E-03
  -5.59999980E-03  -1.89249706E-03
  -5.54999989E-03  -1.93130400E-03
  -5.49999997E-03  -1.97077147E-03
  -5.45000006E-03  -2.01089121E-03
  -5.40000014E-03  -2.05167010E-03
  -5.35000023E-03  -2.09313375E-03
  -5.29999984E-03  -2.13531172E-03
  -5.24999993E-03  -2.17823475E-03
  -5.20000001E-03  -2.22192472E-03
  -5.15000010E-03  -2.26638559E-03
  -5.10000018E-03  -2.31160363E-03
  -5.04999980E-03  -2.35756370E-03
  -4.99999989E-03  -2.40425696E-03
  -4.94999997E-03  -2.45168805E-03
  -4.90000006E-03  -2.49988306E-03
  -4.85000014E-03  -2.54888111E-03
  -4.80000023E-03  -2.59872247E-03
  -4.74999985E-03  -2.64943647E-03
  -4.69999993E-03  -2.70102918E-03
  -4.65000002E-03  -2.75348243E-03
  -4.60000010E-03  -2.80676805E-03
  -4.55000019E-03  -2.86086975E-03
  -4.49999981E-03  -2.91578821E-03
  -4.44999989E-03  -2.97154044E-03
  -4.39999998E-03  -3.02816532E-03
  -4.35000006E-03  -3.08570964E-03
  -4.30000015E-03  -3.14421323E-03
  -4.25000023E-03  -3.20369657E-03
  -4.19999985E-03  -3.26414825E-03
  -4.14999994E-03  -3.32553289E-03
  -4.10000002E-03  -3.38781439E-03
  -4.05000011E-03  -3.45097017E-03
  -4.00000019E-03  -3.51501256E-03
  -3.94999981E-03  -3.57998977E-03
  -3.89999989E-03  -3.64597328E-03
  -3.84999998E-03  -3.71302222E-03
  -3.80000006E-03  -3.78116453E-03
  -3.74999992E-03  -3.85039276E-03
  -3.70000000E-03  -3.92065896E-03
  -3.65000009E-03  -3.99190048E-03
  -3.59999994E-03  -4.06408170E-03
  -3.55000002E-03  -4.13721334E-03
  -3.50000011E-03  -4.21135267E-03
  -3.44999996E-03  -4.28657001E-03
  -3.40000005E-03  -4.36293101E-03
  -3.34999990E-03  -4.44046268E-03
  -3.29999998E-03  -4.51915246E-03
  -3.25000007E-03  -4.59896540E-03
  -3.19999992E-03  -4.67982469E-03
  -3.15000000E-03  -4.76168701E-03
  -3.10000009E-03  -4.84455284E-03
  -3.04999994E-03  -4.92844963E-03
  -3.00000003E-03  -5.01345331E-03
  -2.95000011E-03  -5.09965047E-03
  -2.89999996E-03  -5.18708630E-03
  -2.85000005E-03  -5.27577940E-03
  -2.79999990E-03  -5.36569580E-03
  -2.74999999E-03  -5.45673957E-03
  -2.70000007E-03  -5.54884179E-03
  -2.64999992E-03  -5.64196426E-03
  -2.60000001E-03  -5.73612470E-03
  -2.55000009E-03  -5.83140273E-03
  -2.49999994E-03  -5.92790172E-03
  -2.45000003E-03  -6.02571713E-03
  -2.40000011E-03  -6.12487830E-03
  -2.34999997E-03  -6.22533681E-03
  -2.30000005E-03  -6.32698182E-03
  -2.24999990E-03  -6.42968155E-03
  -2.19999999E-03  -6.53337454E-03
  -2.15000007E-03  -6.63808919E-03
  -2.09999993E-03  -6.74389862E-03
  -2.05000001E-03  -6.85092621E-03
  -2.00000009E-03  -6.95929024E-03
  -1.94999995E-03  -7.06904382E-03
  -1.90000003E-03  -7.18015945E-03
  -1.85000000E-03  -7.29251094E-03
  -1.79999997E-03  -7.40595069E-03
  -1.75000005E-03  -7.52038695E-03
  -1.70000002E-03  -7.63579132E-03
  -1.64999999E-03  -7.75222387E-03
  -1.59999996E-03  -7.86983222E-03
  -1.55000004E-03  -7.98874907E-03
  -1.50000001E-03  -8.10906198E-03
  -1.44999998E-03  -8.23078398E-03
  -1.39999995E-03  -8.35379865E-03
  -1.35000004E-03  -8.47792346E-03
  -1.30000000E-03  -8.60300008E-03
  -1.24999997E-03  -8.72894470E-03
  -1.20000006E-03  -8.85580666E-03
  -1.15000003E-03  -8.98373779E-03
  -1.09999999E-03  -9.11292620E-03
  -1.04999996E-03  -9.24354792E-03
  -1.00000005E-03  -9.37562995E-03
  -9.50000016E-04  -9.50903352E-03
  -8.99999985E-04  -9.64354351E-03
  -8.50000011E-04  -9.77892801E-03
  -7.99999980E-04  -9.91501566E-03
  -7.50000007E-04  -1.00518288E-02
  -6.99999975E-04  -1.01895630E-02
  -6.50000002E-04  -1.03284670E-02
  -6.00000028E-04  -1.04687447E-02
  -5.49999997E-04  -1.06104789E-02
  -5.00000024E-04  -1.07535413E-02
  -4.49999992E-04  -1.08976532E-02
  -3.99999990E-04  -1.10425409E-02
  -3.49999988E-04  -1.11880181E-02
  -3.00000014E-04  -1.13340449E-02
  -2.50000012E-04  -1.14808148E-02
  -1.99999995E-04  -1.16286464E-02
  -1.50000007E-04  -1.17777660E-02
  -9.99999975E-05  -1.19282352E-02
  -4.99999987E-05  -1.20799532E-02
   0.00000000      -1.22326342E-02
   4.99999987E-05  -1.23859150E-02
   9.99999975E-05  -1.25396056E-02
   1.50000007E-04  -1.26936743E-02
   1.99999995E-04  -1.28482655E-02
   2.50000012E-04  -1.30036706E-02
   3.00000014E-04  -1.31601533E-02
   3.49999988E-04  -1.33178420E-02
   3.99999990E-04  -1.34766325E-02
   4.49999992E-04  -1.36362463E-02
   5.00000024E-04  -1.37963397E-02
   5.49999997E-04  -1.39566530E-02
   6.00000028E-04  -1.41170919E-02
   6.50000002E-04  -1.42777553E-02
   6.99999975E-04  -1.44389132E-02
   7.50000007E-04  -1.46008572E-02
   7.99999980E-04  -1.47638116E-02
   8.50000011E-04  -1.49277756E-02
   8.99999985E-04  -1.50924493E-02
   9.50000016E-04  -1.52573790E-02
   1.00000005E-03  -1.54222110E-02
   1.04999996E-03  -1.55867925E-02
   1.09999999E-03  -1.57511495E-02
   1.15000003E-03  -1.59155764E-02
   1.20000006E-03  -1.60804782E-02
   1.24999997E-03  -1.62461381E-02
   1.30000000E-03  -1.64125878E-02
   1.35000004E-03  -1.65795311E-02
   1.39999995E-03  -1.67464539E-02
   1.44999998E-03  -1.69129204E-02
   1.50000001E-03  -1.70787126E-02
   1.55000004E-03  -1.72438696E-02
   1.59999996E-03  -1.74086653E-02
   1.64999999E-03  -1.75734609E-02
   1.70000002E-03  -1.77386161E-02
   1.75000005E-03  -1.79041848E-02
   1.79999997E-03  -1.80698596E-02
   1.85000000E-03  -1.82351712E-02
   1.90000003E-03  -1.83997303E-02
   1.94999995E-03  -1.85632072E-02
   2.00000009E-03  -1.87254827E-02
   2.05000001E-03  -1.88868009E-02
   2.09999993E-03  -1.90475602E-02
   2.15000007E-03  -1.92081556E-02
   2.19999999E-03  -1.93687323E-02
   2.24999990E-03  -1.95291080E-02
   2.30000005E-03  -1.96888801E-02
   2.34999997E-03  -1.98474247E-02
   2.40000011E-03  -2.00042650E-02
   2.45000003E-03  -2.01592445E-02
   2.49999994E-03  -2.03125160E-02
   2.55000009E-03  -2.04645377E-02
   2.60000001E-03  -2.06157528E-02
   2.64999992E-03  -2.07664482E-02
   2.70000007E-03  -2.09165346E-02
   2.74999999E-03  -2.10656114E-02
   2.79999990E-03  -2.12130640E-02