  -3.99999991E-02   0.00000000    
  -3.99499983E-02   0.00000000    
  -3.99000011E-02   0.00000000    
  -3.98500003E-02   0.00000000    
  -3.97999994E-02   0.00000000    
  -3.97499986E-02   1.54481621E-22
  -3.97000015E-02   1.82738192E-21
  -3.96500006E-02   1.13674141E-20
  -3.95999998E-02   4.91573469E-20
  -3.95499989E-02   1.65178352E-19
  -3.95000018E-02   4.57633176E-19
  -3.94500010E-02   1.08416350E-18
  -3.94000001E-02   2.25053986E-18
  -3.93499993E-02   4.16606248E-18
  -3.92999984E-02   6.97221439E-18
  -3.92500013E-02   1.06767883E-17
  -3.92000005E-02   1.51447737E-17
  -3.91499996E-02   2.01901884E-17
  -3.90999988E-02   2.57693578E-17
  -3.90500017E-02   3.22077363E-17
  -3.90000008E-02   4.03358843E-17
  -3.89500000E-02   5.14101287E-17
  -3.88999991E-02   6.67734006E-17
  -3.88499983E-02   8.73508418E-17
  -3.88000011E-02   1.13205980E-16
  -3.87500003E-02   1.43424793E-16
  -3.86999995E-02   1.76493621E-16
  -3.86499986E-02   2.11107438E-16
  -3.86000015E-02   2.47081311E-16
  -3.85500006E-02   2.85878040E-16
  -3.84999998E-02   3.30330091E-16
  -3.84499989E-02   3.83456024E-16
  -3.84000018E-02   4.46739947E-16
  -3.83500010E-02   5.18636950E-16
  -3.83000001E-02   5.94141044E-16
  -3.82499993E-02   6.65889022E-16
  -3.81999984E-02   7.26576233E-16
  -3.81500013E-02   7.71740400E-16
  -3.81000005E-02   8.01609747E-16
  -3.80499996E-02   8.20956932E-16
  -3.79999988E-02   8.36709892E-16
  -3.79500017E-02   8.54121290E-16
  -3.79000008E-02   8.73089375E-16
  -3.78500000E-02   8.86348511E-16
  -3.77999991E-02   8.80551470E-16
  -3.77499983E-02   8.39996856E-16
  -3.77000012E-02   7.51472755E-16
  -3.76500003E-02   6.08029684E-16
  -3.75999995E-02   4.09866405E-16
  -3.75499986E-02   1.61795244E-16
  -3.75000015E-02  -1.31626048E-16
  -3.74500006E-02  -4.71060698E-16
  -3.73999998E-02  -8.65119112E-16
  -3.73499990E-02  -1.32948587E-15
  -3.73000018E-02  -1.88266922E-15
  -3.72500010E-02  -2.54000998E-15
  -3.72000001E-02  -3.30822058E-15
  -3.71499993E-02  -4.18238527E-15
  -3.70999984E-02  -5.14628123E-15
  -3.70500013E-02  -6.17567656E-15
  -3.70000005E-02  -7.24345815E-15
  -3.69499996E-02  -8.32529626E-15
  -3.68999988E-02  -9.40484059E-15
  -3.68500017E-02  -1.04777010E-14
  -3.68000008E-02  -1.15533007E-14
  -3.67500000E-02  -1.26532543E-14
  -3.66999991E-02  -1.38049498E-14
  -3.66499983E-02  -1.50301931E-14
  -3.66000012E-02  -1.63311781E-14
  -3.65500003E-02  -1.76788058E-14
  -3.64999995E-02  -1.90094929E-14
  -3.64499986E-02  -2.02348785E-14
  -3.64000015E-02  -2.12637017E-14
  -3.63500006E-02  -2.20286622E-14
  -3.62999998E-02  -2.25061601E-14
  -3.62499990E-02  -2.27170916E-14
  -3.62000018E-02  -2.27034984E-14
  -3.61500010E-02  -2.24874610E-14
  -3.61000001E-02  -2.20301801E-14
  -3.60499993E-02  -2.12141062E-14
  -3.59999985E-02  -1.98648810E-14
  -3.59500013E-02  -1.78127827E-14
  -3.59000005E-02  -1.49718765E-14
  -3.58499996E-02  -1.13997345E-14
  -3.57999988E-02  -7.30133337E-15
  -3.57500017E-02  -2.96071007E-15
  -3.57000008E-02   1.38244025E-15
  -3.56500000E-02   5.66191084E-15
  -3.55999991E-02   1.00564622E-14
  -3.55499983E-02   1.49555678E-14
  -3.55000012E-02   2.08143829E-14
  -3.54500003E-02   2.79473456E-14
  -3.53999995E-02   3.63501784E-14
  -3.53499986E-02   4.56429294E-14
  -3.53000015E-02   5.51832783E-14
  -3.52500007E-02   6.43230179E-14
  -3.51999998E-02   7.27042328E-14
  -3.51499990E-02   8.04539608E-14
  -3.51000018E-02   8.81628619E-14
  -3.50500010E-02   9.66218208E-14
  -3.50000001E-02   1.06407016E-13
  -3.49499993E-02   1.17494556E-13
  -3.48999985E-02   1.29100954E-13
  -3.48500013E-02   1.39866268E-13
  -3.48000005E-02   1.48346193E-13
  -3.47499996E-02   1.53622273E-13
  -3.46999988E-02   1.55751822E-13
  -3.46500017E-02   1.55815451E-13
  -3.46000008E-02   1.55481680E-13
  -3.45500000E-02   1.56231609E-13
  -3.44999991E-02   1.58573079E-13
  -3.44499983E-02   1.61623698E-13
  -3.44000012E-02   1.63313631E-13
  -3.43500003E-02   1.61191075E-13
  -3.42999995E-02   1.53516848E-13
  -3.42499986E-02   1.40153256E-13
  -3.42000015E-02   1.22788417E-13
  -3.41500007E-02   1.04301787E-13
  -3.40999998E-02   8.74710460E-14
  -3.40499990E-02   7.35670205E-14
  -3.40000018E-02   6.15078260E-14
  -3.39500010E-02   4.80562787E-14
  -3.39000002E-02   2.90984854E-14
  -3.38499993E-02   1.52182302E-15
  -3.37999985E-02  -3.51388942E-14
  -3.37500013E-02  -7.81064056E-14
  -3.37000005E-02  -1.22227938E-13
  -3.36499996E-02  -1.62059195E-13
  -3.35999988E-02  -1.94307664E-13
  -3.35500017E-02  -2.19507734E-13
  -3.35000008E-02  -2.42042416E-13
  -3.34500000E-02  -2.68322230E-13
  -3.33999991E-02  -3.03795265E-13
  -3.33499983E-02  -3.50096308E-13
  -3.33000012E-02  -4.03717261E-13
  -3.32500003E-02  -4.56998155E-13
  -3.31999995E-02  -5.01210672E-13
  -3.31499986E-02  -5.30479469E-13
  -3.31000015E-02  -5.44753858E-13
  -3.30500007E-02  -5.50312400E-13
  -3.29999998E-02  -5.57304149E-13
  -3.29499990E-02  -5.75194027E-13
  -3.29000019E-02  -6.08064217E-13
  -3.28500010E-02  -6.51986549E-13
  -3.28000002E-02  -6.95913704E-13
  -3.27499993E-02  -7.26004218E-13
  -3.26999985E-02  -7.31661639E-13
  -3.26500013E-02  -7.10592067E-13
  -3.26000005E-02  -6.70401939E-13
  -3.25499997E-02  -6.25672365E-13
  -3.24999988E-02  -5.91496253E-13
  -3.24500017E-02  -5.76229656E-13
  -3.24000008E-02  -5.76827865E-13
  -3.23500000E-02  -5.79209152E-13
  -3.22999991E-02  -5.63919896E-13
  -3.22499983E-02  -5.14886744E-13
  -3.22000012E-02  -4.27381112E-13
  -3.21500003E-02  -3.11357358E-13
  -3.20999995E-02  -1.88179387E-13
  -3.20499986E-02  -8.17050285E-14
  -3.20000015E-02  -7.44523241E-15
  -3.19500007E-02   3.52631810E-14
  -3.18999998E-02   6.41395438E-14
  -3.18499990E-02   1.06911116E-13
  -3.18000019E-02   1.89001565E-13
  -3.17500010E-02   3.21310930E-13
  -3.17000002E-02   4.93827364E-13
  -3.16499993E-02   6.78519090E-13
  -3.15999985E-02   8.40866439E-13
  -3.15500014E-02   9.55283812E-13
  -3.15000005E-02   1.01749175E-12
  -3.14499997E-02   1.04780139E-12
  -3.13999988E-02   1.08308263E-12
  -3.13500017E-02   1.16033387E-12
  -3.13000008E-02   1.29892852E-12
  -3.12500000E-02   1.48976317E-12
  -3.11999992E-02   1.69690607E-12
  -3.11500002E-02   1.87190302E-12
  -3.10999993E-02   1.97498311E-12
  -3.10500003E-02   1.99376800E-12
  -3.09999995E-02   1.95058162E-12
  -3.09500005E-02   1.89415562E-12
  -3.08999997E-02   1.87850690E-12
  -3.08500007E-02   1.93794438E-12
  -3.07999998E-02   2.06957238E-12
  -3.07500008E-02   2.23193274E-12
  -3.07000000E-02   2.36148340E-12
  -3.06499992E-02   2.40040886E-12
  -3.06000002E-02   2.32355606E-12
  -3.05499993E-02   2.15189411E-12
  -3.05000003E-02   1.94536618E-12
  -3.04499995E-02   1.77713194E-12
  -3.04000005E-02   1.70000602E-12
  -3.03499997E-02   1.72021447E-12
  -3.03000007E-02   1.79115511E-12
  -3.02499998E-02   1.83134606E-12
  -3.02000009E-02   1.75976725E-12
  -3.01500000E-02   1.53330040E-12
  -3.00999992E-02   1.16904229E-12
  -3.00500002E-02   7.40239792E-13
  -2.99999993E-02   3.46128887E-13
  -2.99500003E-02   6.80777253E-14
  -2.98999995E-02  -6.84931577E-14
  -2.98500005E-02  -1.08471520E-13
  -2.97999997E-02  -1.49690820E-13
  -2.97500007E-02  -3.00064227E-13
  -2.96999998E-02  -6.27592216E-13
  -2.96500009E-02  -1.12596358E-12
  -2.96000000E-02  -1.71254417E-12
  -2.95499992E-02  -2.26150891E-12
  -2.95000002E-02  -2.65878747E-12
  -2.94499993E-02  -2.85466139E-12
  -2.94000003E-02  -2.88961173E-12
  -2.93499995E-02  -2.88001047E-12
  -2.93000005E-02  -2.96806546E-12
  -2.92499997E-02  -3.25713718E-12
  -2.92000007E-02  -3.76142433E-12
  -2.91499998E-02  -4.39392706E-12
  -2.91000009E-02  -5.00021769E-12
  -2.90500000E-02  -5.42485848E-12
  -2.89999992E-02  -5.58160636E-12
  -2.89500002E-02  -5.49533682E-12
  -2.88999993E-02  -5.29501833E-12
  -2.88500004E-02  -5.15854850E-12
  -2.87999995E-02  -5.23243948E-12
  -2.87500005E-02  -5.56203434E-12
  -2.86999997E-02  -6.06485261E-12
  -2.86500007E-02  -6.56142241E-12
  -2.85999998E-02  -6.85223406E-12
  -2.85500009E-02  -6.80772192E-12
  -2.85000000E-02  -6.43059824E-12
  -2.84499992E-02  -5.86062188E-12
  -2.84000002E-02  -5.31687021E-12
  -2.83499993E-02  -5.00101089E-12
  -2.83000004E-02  -5.00404102E-12
  -2.82499995E-02  -5.25933984E-12
  -2.82000005E-02  -5.56562262E-12
  -2.81499997E-02  -5.67247985E-12
  -2.81000007E-02  -5.39218279E-12
  -2.80499998E-02  -4.68784516E-12
  -2.80000009E-02  -3.69660769E-12
  -2.79500000E-02  -2.67444357E-12
  -2.78999992E-02  -1.88441927E-12
  -2.78500002E-02  -1.47705882E-12
  -2.77999993E-02  -1.41712531E-12
  -2.77500004E-02  -1.49227733E-12
  -2.76999995E-02  -1.40311981E-12
  -2.76500005E-02  -8.97015318E-13
  -2.75999997E-02   1.13580410E-13
  -2.75500007E-02   1.50287985E-12
  -2.74999999E-02   2.97855360E-12
  -2.74500009E-02   4.20618184E-12
  -2.74000000E-02   4.95788480E-12
  -2.73499992E-02   5.21850098E-12
  -2.73000002E-02   5.19930236E-12
  -2.72499993E-02   5.24940464E-12
  -2.72000004E-02   5.70114572E-12
  -2.71499995E-02   6.71718627E-12
  -2.71000005E-02   8.20891619E-12
  -2.70499997E-02   9.86593793E-12
  -2.70000007E-02   1.12874293E-11
  -2.69499999E-02   1.21594861E-11
  -2.69000009E-02   1.23995501E-11
  -2.68500000E-02   1.22010388E-11
  -2.67999992E-02   1.19541781E-11
  -2.67500002E-02   1.20743918E-11
  -2.66999993E-02   1.28127665E-11
  -2.66500004E-02   1.41339839E-11
  -2.65999995E-02   1.57195749E-11
  -2.65500005E-02   1.70995926E-11
  -2.64999997E-02   1.78576338E-11
  -2.64500007E-02   1.78189078E-11
  -2.63999999E-02   1.71355881E-11
  -2.63500009E-02   1.62271741E-11
  -2.63000000E-02   1.55978910E-11
  -2.62499992E-02   1.56095640E-11
  -2.62000002E-02   1.63112770E-11
  -2.61499994E-02   1.74048744E-11
  -2.61000004E-02   1.83664559E-11
  -2.60499995E-02   1.86741542E-11
  -2.60000005E-02   1.80426264E-11
  -2.59499997E-02   1.65584456E-11
  -2.59000007E-02   1.46518492E-11
  -2.58499999E-02   1.29122451E-11
  -2.58000009E-02   1.18257938E-11
  -2.57500000E-02   1.15511550E-11
  -2.56999992E-02   1.18359610E-11
  -2.56500002E-02   1.21163270E-11
  -2.55999994E-02   1.17603375E-11
  -2.55500004E-02   1.03502059E-11
  -2.54999995E-02   7.87705925E-12
  -2.54500005E-02   4.75782434E-12
  -2.53999997E-02   1.66116209E-12
  -2.53500007E-02  -7.84803104E-13
  -2.52999999E-02  -2.27472251E-12
  -2.52500009E-02  -2.97067405E-12
  -2.52000000E-02  -3.43990873E-12
  -2.51499992E-02  -4.40765393E-12
  -2.51000002E-02  -6.43102151E-12
  -2.50499994E-02  -9.63872818E-12
  -2.50000004E-02  -1.36559115E-11
  -2.49499995E-02  -1.77534116E-11
  -2.49000005E-02  -2.11607658E-11
  -2.48499997E-02  -2.34067592E-11
  -2.48000007E-02  -2.45349227E-11
  -2.47499999E-02  -2.50934672E-11
  -2.47000009E-02  -2.58977475E-11
  -2.46500000E-02  -2.76658089E-11
  -2.45999992E-02  -3.06874109E-11
  -2.45500002E-02  -3.46763590E-11
  -2.44999994E-02  -3.88775089E-11
  -2.44500004E-02  -4.23872326E-11
  -2.43999995E-02  -4.45489964E-11
  -2.43500005E-02  -4.52480518E-11
  -2.42999997E-02  -4.49701734E-11
  -2.42500007E-02  -4.45917192E-11
  -2.41999999E-02  -4.49883915E-11
  -2.41500009E-02  -4.66338981E-11
  -2.41000000E-02  -4.93687487E-11
  -2.40499992E-02  -5.24477059E-11
  -2.40000002E-02  -5.48518245E-11
  -2.39499994E-02  -5.57319156E-11
  -2.39000004E-02  -5.47876293E-11
  -2.38499995E-02  -5.24103747E-11
  -2.38000005E-02  -4.95200062E-11
  -2.37499997E-02  -4.71609418E-11
  -2.37000007E-02  -4.60330801E-11
  -2.36499999E-02  -4.61663416E-11
  -2.36000009E-02  -4.68884410E-11
  -2.35500000E-02  -4.71073250E-11
  -2.34999992E-02  -4.57890392E-11
  -2.34500002E-02  -4.24213061E-11
  -2.33999994E-02  -3.72544252E-11
  -2.33500004E-02  -3.12063153E-11
  -2.32999995E-02  -2.54664814E-11
  -2.32500006E-02  -2.09697572E-11
  -2.31999997E-02  -1.79729807E-11
  -2.31500007E-02  -1.59269455E-11
  -2.30999999E-02  -1.37079029E-11
  -2.30500009E-02  -1.01129608E-11
  -2.30000000E-02  -4.40327375E-12
  -2.29499992E-02   3.34744363E-12
  -2.29000002E-02   1.22595987E-11
  -2.28499994E-02   2.10143864E-11
  -2.28000004E-02   2.84239021E-11
  -2.27499995E-02   3.39537287E-11
  -2.27000006E-02   3.79627996E-11
  -2.26499997E-02   4.15472830E-11
  -2.26000007E-02   4.60503441E-11
  -2.25499999E-02   5.24505682E-11
  -2.25000009E-02   6.09008677E-11
  -2.24500000E-02   7.06275732E-11
  -2.23999992E-02   8.02423683E-11
  -2.23500002E-02   8.83356166E-11
  -2.22999994E-02   9.40908948E-11
  -2.22500004E-02   9.76458844E-11
  -2.21999995E-02   1.00032739E-10
  -2.21500006E-02   1.02716495E-10
  -2.20999997E-02   1.06930395E-10
  -2.20500007E-02   1.13101709E-10
  -2.19999999E-02   1.20626897E-10
  -2.19500009E-02   1.28103389E-10
  -2.19000001E-02   1.33922567E-10
  -2.18499992E-02   1.36965397E-10
  -2.18000002E-02   1.37091283E-10
  -2.17499994E-02   1.35197895E-10
  -2.17000004E-02   1.32817757E-10
  -2.16499995E-02   1.31424482E-10
  -2.16000006E-02   1.31754344E-10
  -2.15499997E-02   1.33447142E-10
  -2.15000007E-02   1.35172956E-10
  -2.14499999E-02   1.35196312E-10
  -2.14000009E-02   1.32132458E-10
  -2.13500001E-02   1.25561048E-10
  -2.12999992E-02   1.16219943E-10
  -2.12500002E-02   1.05686078E-10
  -2.11999994E-02   9.56780211E-11
  -2.11500004E-02   8.72861713E-11
  -2.10999995E-02   8.04740719E-11
  -2.10500006E-02   7.40777578E-11
  -2.09999997E-02   6.63109914E-11
  -2.09500007E-02   5.55578777E-11
  -2.08999999E-02   4.11026872E-11
  -2.08500009E-02   2.34698025E-11
  -2.08000001E-02   4.21646095E-12
  -2.07499992E-02  -1.47361481E-11
  -2.07000002E-02  -3.19404364E-11
  -2.06499994E-02  -4.70560223E-11
  -2.06000004E-02  -6.09930995E-11
  -2.05499995E-02  -7.54950130E-11
  -2.05000006E-02  -9.23393167E-11
  -2.04499997E-02  -1.12509856E-10
  -2.04000007E-02  -1.35709791E-10
  -2.03499999E-02  -1.60437594E-10
  -2.03000009E-02  -1.84599419E-10
  -2.02500001E-02  -2.06390571E-10
  -2.01999992E-02  -2.25055835E-10
  -2.01500002E-02  -2.41187958E-10
  -2.00999994E-02  -2.56426130E-10
  -2.00500004E-02  -2.72682821E-10
  -1.99999996E-02  -2.91239838E-10
  -1.99500006E-02  -3.12116250E-10
  -1.98999997E-02  -3.33992889E-10
  -1.98500007E-02  -3.54733048E-10
  -1.97999999E-02  -3.72272019E-10
  -1.97500009E-02  -3.85481674E-10
  -1.97000001E-02  -3.94623695E-10
  -1.96499992E-02  -4.01185363E-10
  -1.96000002E-02  -4.07166023E-10
  -1.95499994E-02  -4.14128620E-10
  -1.95000004E-02  -4.22438334E-10
  -1.94499996E-02  -4.31030101E-10
  -1.94000006E-02  -4.37813424E-10
  -1.93499997E-02  -4.40539161E-10
  -1.93000007E-02  -4.37745062E-10
  -1.92499999E-02  -4.29359576E-10
  -1.92000009E-02  -4.16692625E-10
  -1.91500001E-02  -4.01814193E-10
  -1.90999992E-02  -3.86595228E-10
  -1.90500002E-02  -3.71837311E-10
  -1.89999994E-02  -3.56879970E-10
  -1.89500004E-02  -3.39864387E-10
  -1.88999996E-02  -3.18537752E-10
  -1.88500006E-02  -2.91243307E-10
  -1.87999997E-02  -2.57653732E-10
  -1.87500007E-02  -2.18920146E-10
  -1.86999999E-02  -1.77168155E-10
  -1.86500009E-02  -1.34563069E-10
  -1.86000001E-02  -9.23607579E-11
  -1.85499992E-02  -5.03672520E-11
  -1.85000002E-02  -7.05039542E-12
  -1.84499994E-02   3.97441802E-11
  -1.84000004E-02   9.17905196E-11
  -1.83499996E-02   1.49638954E-10
  -1.83000006E-02   2.12307713E-10
  -1.82499997E-02   2.77647211E-10
  -1.82000007E-02   3.43215761E-10
  -1.81499999E-02   4.07275019E-10
  -1.81000009E-02   4.69462358E-10
  -1.80500001E-02   5.30840150E-10
  -1.79999992E-02   5.93301019E-10
  -1.79500002E-02   6.58593124E-10
  -1.78999994E-02   7.27403526E-10
  -1.78500004E-02   7.98906774E-10
  -1.77999996E-02   8.70980010E-10
  -1.77500006E-02   9.40988509E-10
  -1.76999997E-02   1.00679109E-09
  -1.76500008E-02   1.06751441E-09
  -1.75999999E-02   1.12375631E-09
  -1.75500009E-02   1.17712506E-09
  -1.75000001E-02   1.22932409E-09
  -1.74499992E-02   1.28119282E-09
  -1.74000002E-02   1.33212741E-09
  -1.73499994E-02   1.38014256E-09
  -1.73000004E-02   1.42253831E-09
  -1.72499996E-02   1.45687606E-09
  -1.72000006E-02   1.48182189E-09
  -1.71499997E-02   1.49748758E-09
  -1.71000008E-02   1.50511814E-09
  -1.70499999E-02   1.50627144E-09
  -1.70000009E-02   1.50186030E-09
  -1.69500001E-02   1.49148638E-09
  -1.68999992E-02   1.47336010E-09
  -1.68500002E-02   1.44484269E-09
  -1.67999994E-02   1.40335832E-09
  -1.67500004E-02   1.34727374E-09
  -1.66999996E-02   1.27634814E-09
  -1.66500006E-02   1.19156340E-09
  -1.65999997E-02   1.09441189E-09
  -1.65500008E-02   9.85969528E-10
  -1.64999999E-02   8.66167749E-10
  -1.64500009E-02   7.33585137E-10
  -1.64000001E-02   5.85850202E-10
  -1.63499992E-02   4.20466634E-10
  -1.63000003E-02   2.35679365E-10
  -1.62499994E-02   3.10085291E-11
  -1.62000004E-02  -1.92789590E-10
  -1.61499996E-02  -4.34310560E-10
  -1.61000006E-02  -6.92360391E-10
  -1.60499997E-02  -9.66703162E-10
  -1.60000008E-02  -1.25835764E-09
  -1.59499999E-02  -1.56932112E-09
  -1.59000009E-02  -1.90185179E-09
  -1.58500001E-02  -2.25763941E-09
  -1.57999992E-02  -2.63722866E-09
  -1.57500003E-02  -3.03996162E-09
  -1.56999994E-02  -3.46443785E-09
  -1.56500004E-02  -3.90929511E-09
  -1.55999996E-02  -4.37393677E-09
  -1.55499997E-02  -4.85890173E-09
  -1.54999997E-02  -5.36570210E-09
  -1.54499998E-02  -5.89622484E-09
  -1.53999999E-02  -6.45197540E-09
  -1.53500000E-02  -7.03350178E-09
  -1.53000001E-02  -7.64025998E-09
  -1.52500002E-02  -8.27096258E-09
  -1.52000003E-02  -8.92424978E-09
  -1.51500003E-02  -9.59937463E-09
  -1.51000004E-02  -1.02965680E-08
  -1.50499996E-02  -1.10169722E-08
  -1.49999997E-02  -1.17621433E-08
  -1.49499997E-02  -1.25333806E-08
  -1.48999998E-02  -1.33311806E-08
  -1.48499999E-02  -1.41550691E-08
  -1.48000000E-02  -1.50038737E-08
  -1.47500001E-02  -1.58762976E-08
  -1.47000002E-02  -1.67715157E-08
  -1.46500003E-02  -1.76895600E-08
  -1.46000003E-02  -1.86312796E-08
  -1.45500004E-02  -1.95979446E-08
  -1.44999996E-02  -2.05906723E-08
  -1.44499997E-02  -2.16099583E-08
  -1.43999998E-02  -2.26554988E-08
  -1.43499998E-02  -2.37264128E-08
  -1.42999999E-02  -2.48217198E-08
  -1.42500000E-02  -2.59408601E-08
  -1.42000001E-02  -2.70840079E-08
  -1.41500002E-02  -2.82520318E-08
  -1.41000003E-02  -2.94461806E-08
  -1.40500003E-02  -3.06675538E-08
  -1.40000004E-02  -3.19167412E-08
  -1.39499996E-02  -3.31937002E-08
  -1.38999997E-02  -3.44979227E-08
  -1.38499998E-02  -3.58288794E-08
  -1.37999998E-02  -3.71864353E-08
  -1.37499999E-02  -3.85710983E-08
  -1.37000000E-02  -3.99839557E-08
  -1.36500001E-02  -4.14263610E-08
  -1.36000002E-02  -4.28995257E-08
  -1.35500003E-02  -4.44042279E-08
  -1.35000004E-02  -4.59407339E-08
  -1.34500004E-02  -4.75090651E-08
  -1.33999996E-02  -4.91093388E-08
  -1.33499997E-02  -5.07421625E-08
  -1.32999998E-02  -5.24087334E-08
  -1.32499998E-02  -5.41106999E-08
  -1.31999999E-02  -5.58498598E-08
  -1.31500000E-02  -5.76277586E-08
  -1.31000001E-02  -5.94454690E-08
  -1.30500002E-02  -6.13036377E-08
  -1.30000003E-02  -6.32027835E-08
  -1.29500004E-02  -6.51437162E-08
  -1.29000004E-02  -6.71277718E-08
  -1.28499996E-02  -6.91569539E-08
  -1.27999997E-02  -7.12335861E-08
  -1.27499998E-02  -7.33599919E-08
  -1.26999998E-02  -7.55381180E-08
  -1.26499999E-02  -7.77693501E-08
  -1.26000000E-02  -8.00546971E-08
  -1.25500001E-02  -8.23951538E-08
  -1.25000002E-02  -8.47922195E-08
  -1.24500003E-02  -8.72481181E-08
  -1.24000004E-02  -8.97657841E-08
  -1.23500004E-02  -9.23485004E-08
  -1.22999996E-02  -9.49994075E-08
  -1.22499997E-02  -9.77210419E-08
  -1.21999998E-02  -1.00515237E-07
  -1.21499998E-02  -1.03383428E-07
  -1.20999999E-02  -1.06327064E-07
  -1.20500000E-02  -1.09348250E-07
  -1.20000001E-02  -1.12449996E-07
  -1.19500002E-02  -1.15636148E-07
  -1.19000003E-02  -1.18910862E-07
  -1.18500004E-02  -1.22277996E-07
  -1.18000004E-02  -1.25740598E-07
  -1.17499996E-02  -1.29300801E-07
  -1.16999997E-02  -1.32960182E-07
  -1.16499998E-02  -1.36720416E-07
  -1.15999999E-02  -1.40583936E-07
  -1.15499999E-02  -1.44554434E-07
  -1.15000000E-02  -1.48636616E-07
  -1.14500001E-02  -1.52835696E-07
  -1.14000002E-02  -1.57156478E-07
  -1.13500003E-02  -1.61602841E-07
  -1.13000004E-02  -1.66177486E-07
  -1.12500004E-02  -1.70882345E-07
  -1.11999996E-02  -1.75719350E-07
  -1.11499997E-02  -1.80691273E-07
  -1.10999998E-02  -1.85802264E-07
  -1.10499999E-02  -1.91057737E-07
  -1.09999999E-02  -1.96463660E-07
  -1.09500000E-02  -2.02025689E-07
  -1.09000001E-02  -2.07748229E-07
  -1.08500002E-02  -2.13634337E-07
  -1.08000003E-02  -2.19686044E-07
  -1.07500004E-02  -2.25905339E-07
  -1.07000005E-02  -2.32295207E-07
  -1.06499996E-02  -2.38860252E-07
  -1.05999997E-02  -2.45606770E-07
  -1.05499998E-02  -2.52541895E-07
  -1.04999999E-02  -2.59672589E-07
  -1.04499999E-02  -2.67004538E-07
  -1.04000000E-02  -2.74541691E-07
  -1.03500001E-02  -2.82286749E-07
  -1.03000002E-02  -2.90242156E-07
  -1.02500003E-02  -2.98411209E-07
  -1.02000004E-02  -3.06799052E-07
  -1.01500005E-02  -3.15412620E-07
  -1.00999996E-02  -3.24260157E-07
  -1.00499997E-02  -3.33349675E-07
  -9.99999978E-03  -3.42687883E-07
  -9.94999986E-03  -3.52279727E-07
  -9.89999995E-03  -3.62128389E-07
  -9.85000003E-03  -3.72236599E-07
  -9.80000012E-03  -3.82608022E-07
  -9.75000020E-03  -3.93248229E-07
  -9.70000029E-03  -4.04165121E-07
  -9.65000037E-03  -4.15368021E-07
  -9.60000046E-03  -4.26866649E-07
  -9.54999961E-03  -4.38669446E-07
  -9.49999969E-03  -4.50782892E-07
  -9.44999978E-03  -4.63211535E-07
  -9.39999986E-03  -4.75959297E-07
  -9.34999995E-03  -4.89030754E-07
  -9.30000003E-03  -5.02432613E-07
  -9.25000012E-03  -5.16174055E-07
  -9.20000020E-03  -5.30266220E-07
  -9.15000029E-03  -5.44720535E-07
  -9.10000037E-03  -5.59547345E-07
  -9.05000046E-03  -5.74754836E-07
  -8.99999961E-03  -5.90348861E-07
  -8.94999970E-03  -6.06334368E-07
  -8.89999978E-03  -6.22716698E-07
  -8.84999987E-03  -6.39503241E-07
  -8.79999995E-03  -6.56704117E-07
  -8.75000004E-03  -6.74331659E-07
  -8.70000012E-03  -6.92399169E-07
  -8.65000021E-03  -7.10918926E-07
  -8.60000029E-03  -7.29901217E-07
  -8.55000038E-03  -7.49354342E-07
  -8.50000046E-03  -7.69284895E-07
  -8.44999962E-03  -7.89699811E-07
  -8.39999970E-03  -8.10608071E-07
  -8.34999979E-03  -8.32021669E-07
  -8.29999987E-03  -8.53955214E-07
  -8.24999996E-03  -8.76424110E-07
  -8.20000004E-03  -8.99443592E-07
  -8.15000013E-03  -9.23026732E-07
  -8.10000021E-03  -9.47183992E-07
  -8.05000030E-03  -9.71924351E-07
  -8.00000038E-03  -9.97256393E-07
  -7.95000046E-03  -1.02319063E-06
  -7.89999962E-03  -1.04974060E-06
  -7.84999970E-03  -1.07692222E-06
  -7.79999979E-03  -1.10475344E-06
  -7.74999987E-03  -1.13325132E-06
  -7.69999996E-03  -1.16243143E-06
  -7.65000004E-03  -1.19230640E-06
  -7.60000013E-03  -1.22288748E-06
  -7.55000021E-03  -1.25418512E-06
  -7.49999983E-03  -1.28621173E-06
  -7.44999992E-03  -1.31898275E-06
  -7.40000000E-03  -1.35251628E-06
  -7.35000009E-03  -1.38683288E-06
  -7.30000017E-03  -1.42195279E-06
  -7.24999979E-03  -1.45789443E-06
  -7.19999988E-03  -1.49467360E-06
  -7.14999996E-03  -1.53230394E-06
  -7.10000005E-03  -1.57079899E-06
  -7.05000013E-03  -1.61017317E-06
  -7.00000022E-03  -1.65044423E-06
  -6.94999984E-03  -1.69163309E-06
  -6.89999992E-03  -1.73376247E-06
  -6.85000001E-03  -1.77685570E-06
  -6.80000009E-03  -1.82093379E-06
  -6.75000018E-03  -1.86601528E-06
  -6.69999979E-03  -1.91211666E-06
  -6.64999988E-03  -1.95925395E-06
  -6.59999996E-03  -2.00744398E-06
  -6.55000005E-03  -2.05670676E-06
  -6.50000013E-03  -2.10706571E-06
  -6.45000022E-03  -2.15854561E-06
  -6.39999984E-03  -2.21117216E-06
  -6.34999992E-03  -2.26496945E-06
  -6.30000001E-03  -2.31995887E-06
  -6.25000009E-03  -2.37616064E-06
  -6.20000018E-03  -2.43359273E-06
  -6.14999980E-03  -2.49227583E-06
  -6.09999988E-03  -2.55223267E-06
  -6.04999997E-03  -2.61348987E-06
  -6.00000005E-03  -2.67607561E-06
  -5.95000014E-03  -2.74001786E-06
  -5.90000022E-03  -2.80534505E-06
  -5.84999984E-03  -2.87208195E-06
  -5.79999993E-03  -2.94025199E-06
  -5.75000001E-03  -3.00987790E-06
  -5.70000010E-03  -3.08098288E-06
  -5.65000018E-03  -3.15359307E-06
  -5.59999980E-03  -3.22773803E-06
  -5.54999989E-03  -3.30344938E-06
  -5.49999997E-03  -3.38075870E-06
  -5.45000006E-03  -3.45969784E-06
  -5.40000014E-03  -3.54029476E-06
  -5.35000023E-03  -3.62257606E-06
  -5.29999984E-03  -3.70656744E-06
  -5.24999993E-03  -3.79229596E-06
  -5.20000001E-03  -3.87979162E-06
  -5.15000010E-03  -3.96908763E-06
  -5.10000018E-03  -4.06021900E-06
  -5.04999980E-03  -4.15322165E-06
  -4.99999989E-03  -4.24813106E-06
  -4.94999997E-03  -4.34497906E-06
  -4.90000006E-03  -4.44379612E-06
  -4.85000014E-03  -4.54461269E-06
  -4.80000023E-03  -4.64745926E-06
  -4.74999985E-03  -4.75237130E-06
  -4.69999993E-03  -4.85938608E-06
  -4.65000002E-03  -4.96854454E-06
  -4.60000010E-03  -5.07988580E-06
  -4.55000019E-03  -5.19344849E-06
  -4.49999981E-03  -5.30926945E-06
  -4.44999989E-03  -5.42738280E-06
  -4.39999998E-03  -5.54782355E-06
  -4.35000006E-03  -5.67062580E-06
  -4.30000015E-03  -5.79582820E-06
  -4.25000023E-03  -5.92347214E-06
  -4.19999985E-03  -6.05360265E-06
  -4.14999994E-03  -6.18626382E-06
  -4.10000002E-03  -6.32149977E-06
  -4.05000011E-03  -6.45935006E-06
  -4.00000019E-03  -6.59985335E-06
  -3.94999981E-03  -6.74304556E-06
  -3.89999989E-03  -6.88896671E-06
  -3.84999998E-03  -7.03765954E-06
  -3.80000006E-03  -7.18917045E-06
  -3.74999992E-03  -7.34355081E-06
  -3.70000000E-03  -7.50085019E-06
  -3.65000009E-03  -7.66111680E-06
  -3.59999994E-03  -7.82439383E-06
  -3.55000002E-03  -7.99072404E-06
  -3.50000011E-03  -8.16014744E-06
  -3.44999996E-03  -8.33270860E-06
  -3.40000005E-03  -8.50845481E-06
  -3.34999990E-03  -8.68743700E-06
  -3.29999998E-03  -8.86970793E-06
  -3.25000007E-03  -9.05532306E-06
  -3.19999992E-03  -9.24433516E-06
  -3.15000000E-03  -9.43679061E-06
  -3.10000009E-03  -9.63273669E-06
  -3.04999994E-03  -9.83221526E-06
  -3.00000003E-03  -1.00352745E-05
  -2.95000011E-03  -1.02419626E-05
  -2.89999996E-03  -1.04523351E-05
  -2.85000005E-03  -1.06664484E-05
  -2.79999990E-03  -1.08843633E-05
  -2.74999999E-03  -1.11061381E-05
  -2.70000007E-03  -1.13318247E-05
  -2.64999992E-03  -1.15614730E-05
  -2.60000001E-03  -1.17951267E-05
  -2.55000009E-03  -1.20328359E-05
  -2.49999994E-03  -1.22746505E-05
  -2.45000003E-03  -1.25206279E-05
  -2.40000011E-03  -1.27708336E-05
  -2.34999997E-03  -1.30253284E-05
  -2.30000005E-03  -1.32841778E-05
  -2.24999990E-03  -1.35474374E-05
  -2.19999999E-03  -1.38151545E-05
  -2.15000007E-03  -1.40873763E-05
  -2.09999993E-03  -1.43641519E-05
  -2.05000001E-03  -1.46455322E-05
  -2.00000009E-03  -1.49315783E-05
  -1.94999995E-03  -1.52223556E-05
  -1.90000003E-03  -1.55179314E-05
  -1.85000000E-03  -1.58183720E-05
  -1.79999997E-03  -1.61237367E-05
  -1.75000005E-03  -1.64340781E-05
  -1.70000002E-03  -1.67494436E-05
  -1.64999999E-03  -1.70698786E-05
  -1.59999996E-03  -1.73954359E-05
  -1.55000004E-03  -1.77261754E-05
  -1.50000001E-03  -1.80621646E-05
  -1.44999998E-03  -1.84034725E-05
  -1.39999995E-03  -1.87501701E-05
  -1.35000004E-03  -1.91023228E-05
  -1.30000000E-03  -1.94599779E-05
  -1.24999997E-03  -1.98231846E-05
  -1.20000006E-03  -2.01919884E-05
  -1.15000003E-03  -2.05664364E-05
  -1.09999999E-03  -2.09465870E-05
  -1.04999996E-03  -2.13325075E-05
  -1.00000005E-03  -2.17242741E-05
  -9.50000016E-04  -2.21219598E-05
  -8.99999985E-04  -2.25256299E-05
  -8.50000011E-04  -2.29353354E-05
  -7.99999980E-04  -2.33511219E-05
  -7.50000007E-04  -2.37730274E-05
  -6.99999975E-04  -2.42010938E-05
  -6.50000002E-04  -2.46353775E-05
  -6.00000028E-04  -2.50759440E-05
  -5.49999997E-04  -2.55228679E-05
  -5.00000024E-04  -2.59762219E-05
  -4.49999992E-04  -2.64360770E-05
  -3.99999990E-04  -2.69024804E-05
  -3.49999988E-04  -2.73754777E-05
  -3.00000014E-04  -2.78550997E-05
  -2.50000012E-04  -2.83413829E-05
  -1.99999995E-04  -2.88343781E-05
  -1.50000007E-04  -2.93341509E-05
  -9.99999975E-05  -2.98407740E-05
  -4.99999987E-05  -3.03543166E-05
   0.00000000      -3.08748495E-05
   4.99999987E-05  -3.14024182E-05
   9.99999975E-05  -3.19370592E-05
   1.50000007E-04  -3.24788016E-05
   1.99999995E-04  -3.30276744E-05
   2.50000012E-04  -3.35837212E-05
   3.00000014E-04  -3.41469968E-05
   3.49999988E-04  -3.47175701E-05
   3.99999990E-04  -3.52955030E-05
   4.49999992E-04  -3.58808647E-05
   5.00000024E-04  -3.64736952E-05
   5.49999997E-04  -3.70740272E-05
   6.00000028E-04  -3.76818789E-05
   6.50000002E-04  -3.82972758E-05
   6.99999975E-04  -3.89202469E-05
   7.50000007E-04  -3.95508396E-05
   7.99999980E-04  -4.01891084E-05
   8.50000011E-04  -4.08351116E-05
   8.99999985E-04  -4.14889109E-05
   9.50000016E-04  -4.21505538E-05
   1.00000005E-03  -4.28200583E-05
   1.04999996E-03  -4.34974354E-05
   1.09999999E-03  -4.41826924E-05
   1.15000003E-03  -4.48758401E-05
   1.20000006E-03  -4.55769077E-05
   1.24999997E-03  -4.62859425E-05
   1.30000000E-03  -4.70029954E-05
   1.35000004E-03  -4.77281246E-05
   1.39999995E-03  -4.84613665E-05
   1.44999998E-03  -4.92027248E-05
   1.50000001E-03  -4.99521957E-05
   1.55000004E-03  -5.07097684E-05
   1.59999996E-03  -5.14754429E-05
   1.64999999E-03  -5.22492337E-05
   1.70000002E-03  -5.30311700E-05
   1.75000005E-03  -5.38212844E-05
   1.79999997E-03  -5.46196279E-05
   1.85000000E-03  -5.54262042E-05
   1.90000003E-03  -5.62410241E-05
   1.94999995E-03  -5.70640659E-05
   2.00000009E-03  -5.78953077E-05
   2.05000001E-03  -5.87347167E-05
   2.09999993E-03  -5.95822858E-05
   2.15000007E-03  -6.04380220E-05
   2.19999999E-03  -6.13019438E-05
   2.24999990E-03  -6.21740764E-05
   2.30000005E-03  -6.30544164E-05
   2.34999997E-03  -6.39429782E-05
   2.40000011E-03  -6.48397036E-05
   2.45000003E-03  -6.57445489E-05
   2.49999994E-03  -6.66574560E-05
   2.55000009E-03  -6.75783886E-05
   2.60000001E-03  -6.85073246E-05
   2.64999992E-03  -6.94442570E-05
   2.70000007E-03  -7.03892001E-05
   2.74999999E-03  -7.13421396E-05
   2.79999990E-03  -7.23030462E-05