  -3.99999991E-02   0.00000000    
  -3.99499983E-02   0.00000000    
  -3.99000011E-02   0.00000000    
  -3.98500003E-02   0.00000000    
  -3.97999994E-02   0.00000000    
  -3.97499986E-02   2.17258052E-23
  -3.97000015E-02   1.91737704E-22
  -3.96500006E-02   8.78002238E-22
  -3.95999998E-02   2.73571530E-21
  -3.95499989E-02   6.38152556E-21
  -3.95000018E-02   1.14622030E-20
  -3.94500010E-02   1.52579070E-20
  -3.94000001E-02   1.15829011E-20
  -3.93499993E-02  -8.76502064E-21
  -3.92999984E-02  -5.49449746E-20
  -3.92500013E-02  -1.30547829E-19
  -3.92000005E-02  -2.27687848E-19
  -3.91499996E-02  -3.24410646E-19
  -3.90999988E-02  -3.88990446E-19
  -3.90500017E-02  -3.91952270E-19
  -3.90000008E-02  -3.21962528E-19
  -3.89500000E-02  -1.97484473E-19
  -3.88999991E-02  -6.53919168E-20
  -3.88499983E-02   1.76007103E-20
  -3.88000011E-02   1.59414878E-20
  -3.87500003E-02  -5.49693312E-20
  -3.86999995E-02  -1.17344669E-19
  -3.86499986E-02  -4.95974103E-20
  -3.86000015E-02   2.67085453E-19
  -3.85500006E-02   8.92543080E-19
  -3.84999998E-02   1.79063241E-18
  -3.84499989E-02   2.83732669E-18
  -3.84000018E-02   3.88155123E-18
  -3.83500010E-02   4.83887093E-18
  -3.83000001E-02   5.77463388E-18
  -3.82499993E-02   6.92807686E-18
  -3.81999984E-02   8.64958199E-18
  -3.81500013E-02   1.12638623E-17
  -3.81000005E-02   1.49139424E-17
  -3.80499996E-02   1.94617284E-17
  -3.79999988E-02   2.45057153E-17
  -3.79500017E-02   2.95271351E-17
  -3.79000008E-02   3.41125182E-17
  -3.78500000E-02   3.81536660E-17
  -3.77999991E-02   4.19217417E-17
  -3.77499983E-02   4.59597794E-17
  -3.77000012E-02   5.08208750E-17
  -3.76500003E-02   5.67607829E-17
  -3.75999995E-02   6.35308062E-17
  -3.75499986E-02   7.03844410E-17
  -3.75000015E-02   7.63175163E-17
  -3.74500006E-02   8.04479269E-17
  -3.73999998E-02   8.23638493E-17
  -3.73499990E-02   8.22708543E-17
  -3.73000018E-02   8.08525440E-17
  -3.72500010E-02   7.88904186E-17
  -3.72000001E-02   7.68045471E-17
  -3.71499993E-02   7.43211259E-17
  -3.70999984E-02   7.04214259E-17
  -3.70500013E-02   6.36010041E-17
  -3.70000005E-02   5.23274158E-17
  -3.69499996E-02   3.54984692E-17
  -3.68999988E-02   1.27138156E-17
  -3.68500017E-02  -1.57278037E-17
  -3.68000008E-02  -4.90619681E-17
  -3.67500000E-02  -8.63869845E-17
  -3.66999991E-02  -1.26945145E-16
  -3.66499983E-02  -1.70283269E-16
  -3.66000012E-02  -2.16307598E-16
  -3.65500003E-02  -2.65292704E-16
  -3.64999995E-02  -3.17874048E-16
  -3.64499986E-02  -3.74979448E-16
  -3.64000015E-02  -4.37600382E-16
  -3.63500006E-02  -5.06343432E-16
  -3.62999998E-02  -5.80842256E-16
  -3.62499990E-02  -6.59292277E-16
  -3.62000018E-02  -7.38459682E-16
  -3.61500010E-02  -8.14411061E-16
  -3.61000001E-02  -8.83872739E-16
  -3.60499993E-02  -9.45704662E-16
  -3.59999985E-02  -1.00169121E-15
  -3.59500013E-02  -1.05595034E-15
  -3.59000005E-02  -1.11282215E-15
  -3.58499996E-02  -1.17392043E-15
  -3.57999988E-02  -1.23573308E-15
  -3.57500017E-02  -1.28927128E-15
  -3.57000008E-02  -1.32257937E-15
  -3.56500000E-02  -1.32557215E-15
  -3.55999991E-02  -1.29524191E-15
  -3.55499983E-02  -1.23854142E-15
  -3.55000012E-02  -1.17078175E-15
  -3.54500003E-02  -1.10922628E-15
  -3.53999995E-02  -1.06404469E-15
  -3.53499986E-02  -1.03072570E-15
  -3.53000015E-02  -9.88266268E-16
  -3.52500007E-02  -9.05448892E-16
  -3.51999998E-02  -7.53838465E-16
  -3.51499990E-02  -5.22359342E-16
  -3.51000018E-02  -2.26399890E-16
  -3.50500010E-02   9.42841969E-17
  -3.50000001E-02   3.90068387E-16
  -3.49499993E-02   6.23517364E-16
  -3.48999985E-02   7.89418454E-16
  -3.48500013E-02   9.22429785E-16
  -3.48000005E-02   1.08631213E-15
  -3.47499996E-02   1.34687757E-15
  -3.46999988E-02   1.73933186E-15
  -3.46500017E-02   2.24533654E-15
  -3.46000008E-02   2.79284572E-15
  -3.45500000E-02   3.28255210E-15
  -3.44999991E-02   3.63211116E-15
  -3.44499983E-02   3.81900390E-15
  -3.44000012E-02   3.90051599E-15
  -3.43500003E-02   3.99730899E-15
  -3.42999995E-02   4.24304807E-15
  -3.42499986E-02   4.71979718E-15
  -3.42000015E-02   5.40895674E-15
  -3.41500007E-02   6.18430613E-15
  -3.40999998E-02   6.85683886E-15
  -3.40499990E-02   7.25689633E-15
  -3.40000018E-02   7.31860099E-15
  -3.39500010E-02   7.12542157E-15
  -3.39000002E-02   6.88904983E-15
  -3.38499993E-02   6.86266179E-15
  -3.37999985E-02   7.22206718E-15
  -3.37500013E-02   7.96857595E-15
  -3.37000005E-02   8.90405693E-15
  -3.36499996E-02   9.70004682E-15
  -3.35999988E-02   1.00396274E-14
  -3.35500017E-02   9.77237920E-15
  -3.35000008E-02   9.00857402E-15
  -3.34500000E-02   8.09884539E-15
  -3.33999991E-02   7.49453566E-15
  -3.33499983E-02   7.54138420E-15
  -3.33000012E-02   8.29821577E-15
  -3.32500003E-02   9.47146736E-15
  -3.31999995E-02   1.05113231E-14
  -3.31499986E-02   1.08424732E-14
  -3.31000015E-02   1.01341876E-14
  -3.30500007E-02   8.48419625E-15
  -3.29999998E-02   6.41790130E-15
  -3.29499990E-02   4.68227955E-15
  -3.29000019E-02   3.91041061E-15
  -3.28500010E-02   4.30349531E-15
  -3.28000002E-02   5.48508890E-15
  -3.27499993E-02   6.61642973E-15
  -3.26999985E-02   6.74581274E-15
  -3.26500013E-02   5.24948627E-15
  -3.26000005E-02   2.16228580E-15
  -3.25499997E-02  -1.77224354E-15
  -3.24999988E-02  -5.38575523E-15
  -3.24500017E-02  -7.60187083E-15
  -3.24000008E-02  -7.96248748E-15
  -3.23500000E-02  -6.91276717E-15
  -3.22999991E-02  -5.68387399E-15
  -3.22499983E-02  -5.78871803E-15
  -3.22000012E-02  -8.33248926E-15
  -3.21500003E-02  -1.34482913E-14
  -3.20999995E-02  -2.01389707E-14
  -3.20499986E-02  -2.66398062E-14
  -3.20000015E-02  -3.11793709E-14
  -3.19500007E-02  -3.28143071E-14
  -3.18999998E-02  -3.19477179E-14
  -3.18499990E-02  -3.02547328E-14
  -3.18000019E-02  -2.99951748E-14
  -3.17500010E-02  -3.29829175E-14
  -3.17000002E-02  -3.96698055E-14
  -3.16499993E-02  -4.87895857E-14
  -3.15999985E-02  -5.77819246E-14
  -3.15500014E-02  -6.38664875E-14
  -3.15000005E-02  -6.53171161E-14
  -3.14499997E-02  -6.23514573E-14
  -3.13999988E-02  -5.71818593E-14
  -3.13500017E-02  -5.31307379E-14
  -3.13000008E-02  -5.31472076E-14
  -3.12500000E-02  -5.83737906E-14
  -3.11999992E-02  -6.74430740E-14
  -3.11500002E-02  -7.68968426E-14
  -3.10999993E-02  -8.26234561E-14
  -3.10500003E-02  -8.17201192E-14
  -3.09999995E-02  -7.39383056E-14
  -3.09500005E-02  -6.19981971E-14
  -3.08999997E-02  -5.05335215E-14
  -3.08500007E-02  -4.40535195E-14
  -3.07999998E-02  -4.48025507E-14
  -3.07500008E-02  -5.15151954E-14
  -3.07000000E-02  -5.97221925E-14
  -3.06499992E-02  -6.35845001E-14
  -3.06000002E-02  -5.85134426E-14
  -3.05499993E-02  -4.34084802E-14
  -3.05000003E-02  -2.14348870E-14
  -3.04499995E-02   1.13333104E-15
  -3.04000005E-02   1.76083479E-14
  -3.03499997E-02   2.39743545E-14
  -3.03000007E-02   2.09494219E-14
  -3.02499998E-02   1.39841624E-14
  -3.02000009E-02   1.10478016E-14
  -3.01500000E-02   1.90764373E-14
  -3.00999992E-02   4.06467259E-14
  -3.00500002E-02   7.24444037E-14
  -2.99999993E-02   1.06369794E-13
  -2.99500003E-02   1.32950075E-13
  -2.98999995E-02   1.45628491E-13
  -2.98500005E-02   1.43991617E-13
  -2.97999997E-02   1.34357667E-13
  -2.97500007E-02   1.27270427E-13
  -2.96999998E-02   1.32854109E-13
  -2.96500009E-02   1.56045560E-13
  -2.96000000E-02   1.93912256E-13
  -2.95499992E-02   2.36441997E-13
  -2.95000002E-02   2.70667332E-13
  -2.94499993E-02   2.86429165E-13
  -2.94000003E-02   2.81212418E-13
  -2.93499995E-02   2.61750365E-13
  -2.93000005E-02   2.41447921E-13
  -2.92499997E-02   2.34552124E-13
  -2.92000007E-02   2.49566210E-13
  -2.91499998E-02   2.84910631E-13
  -2.91000009E-02   3.28981227E-13
  -2.90500000E-02   3.64849291E-13
  -2.89999992E-02   3.77714678E-13
  -2.89500002E-02   3.61831767E-13
  -2.88999993E-02   3.23673055E-13
  -2.88500004E-02   2.79639132E-13
  -2.87999995E-02   2.49045115E-13
  -2.87500005E-02   2.45339935E-13
  -2.86999997E-02   2.69508320E-13
  -2.86500007E-02   3.08828728E-13
  -2.85999998E-02   3.41875400E-13
  -2.85500009E-02   3.47821056E-13
  -2.85000000E-02   3.16001348E-13
  -2.84499992E-02   2.51348747E-13
  -2.84000002E-02   1.72957121E-13
  -2.83499993E-02   1.06049162E-13
  -2.83000004E-02   7.06739422E-14
  -2.82499995E-02   7.21545152E-14
  -2.82000005E-02   9.77807245E-14
  -2.81499997E-02   1.21617221E-13
  -2.81000007E-02   1.15666035E-13
  -2.80499998E-02   6.26033310E-14
  -2.80000009E-02  -3.56754353E-14
  -2.79500000E-02  -1.57855052E-13
  -2.78999992E-02  -2.71888631E-13
  -2.78500002E-02  -3.49066045E-13
  -2.77999993E-02  -3.77296230E-13
  -2.77500004E-02  -3.67471028E-13
  -2.76999995E-02  -3.49626686E-13
  -2.76500005E-02  -3.60125964E-13
  -2.75999997E-02  -4.25262310E-13
  -2.75500007E-02  -5.48607058E-13
  -2.74999999E-02  -7.08084199E-13
  -2.74500009E-02  -8.64607756E-13
  -2.74000000E-02  -9.78918552E-13
  -2.73499992E-02  -1.02933417E-12
  -2.73000002E-02  -1.02233901E-12
  -2.72499993E-02  -9.90814527E-13
  -2.72000004E-02  -9.80100224E-13
  -2.71499995E-02  -1.02764813E-12
  -2.71000005E-02  -1.14525002E-12
  -2.70499997E-02  -1.31207957E-12
  -2.70000007E-02  -1.48226028E-12
  -2.69499999E-02  -1.60421654E-12
  -2.69000009E-02  -1.64355508E-12
  -2.68500000E-02  -1.59921501E-12
  -2.67999992E-02  -1.50520200E-12
  -2.67500002E-02  -1.41642893E-12
  -2.66999993E-02  -1.38436235E-12
  -2.66500004E-02  -1.43308791E-12
  -2.65999995E-02  -1.54672163E-12
  -2.65500005E-02  -1.67443132E-12
  -2.64999997E-02  -1.75161155E-12
  -2.64500007E-02  -1.72832668E-12
  -2.63999999E-02  -1.59241750E-12
  -2.63500009E-02  -1.37651435E-12
  -2.63000000E-02  -1.14502754E-12
  -2.62499992E-02  -9.66113691E-13
  -2.62000002E-02  -8.80680132E-13
  -2.61499994E-02  -8.82385419E-13
  -2.61000004E-02  -9.18227408E-13
  -2.60499995E-02  -9.10390144E-13
  -2.60000005E-02  -7.90390106E-13
  -2.59499997E-02  -5.30575746E-13
  -2.59000007E-02  -1.58567441E-13
  -2.58499999E-02   2.52669766E-13
  -2.58000009E-02   6.15693694E-13
  -2.57500000E-02   8.67312515E-13
  -2.56999992E-02   9.97951504E-13
  -2.56500002E-02   1.05793445E-12
  -2.55999994E-02   1.13682436E-12
  -2.55500004E-02   1.32401924E-12
  -2.54999995E-02   1.66765354E-12
  -2.54500005E-02   2.15035390E-12
  -2.53999997E-02   2.69356499E-12
  -2.53500007E-02   3.18971065E-12
  -2.52999999E-02   3.54881749E-12
  -2.52500009E-02   3.73910842E-12
  -2.52000000E-02   3.80293410E-12
  -2.51499992E-02   3.83978830E-12
  -2.51000002E-02   3.96271601E-12
  -2.50499994E-02   4.24671799E-12
  -2.50000004E-02   4.69217503E-12
  -2.49499995E-02   5.22046599E-12
  -2.49000005E-02   5.70510479E-12
  -2.48499997E-02   6.02579878E-12
  -2.48000007E-02   6.12193152E-12
  -2.47499999E-02   6.02126899E-12
  -2.47000009E-02   5.82990947E-12
  -2.46500000E-02   5.68642486E-12
  -2.45999992E-02   5.69949253E-12
  -2.45500002E-02   5.89652155E-12
  -2.44999994E-02   6.20697460E-12
  -2.44500004E-02   6.48931603E-12
  -2.43999995E-02   6.59121065E-12
  -2.43500005E-02   6.41710383E-12
  -2.42999997E-02   5.97297559E-12
  -2.42500007E-02   5.36713642E-12
  -2.41999999E-02   4.76495232E-12
  -2.41500009E-02   4.31611691E-12
  -2.41000000E-02   4.08621748E-12
  -2.40499992E-02   4.02367072E-12
  -2.40000002E-02   3.97835844E-12
  -2.39499994E-02   3.76559374E-12
  -2.39000004E-02   3.24832544E-12
  -2.38499995E-02   2.40120662E-12
  -2.38000005E-02   1.32690592E-12
  -2.37499997E-02   2.15446977E-13
  -2.37000007E-02  -7.37276939E-13
  -2.36499999E-02  -1.41662203E-12
  -2.36000009E-02  -1.84285009E-12
  -2.35500000E-02  -2.16582221E-12
  -2.34999992E-02  -2.60086397E-12
  -2.34500002E-02  -3.33247817E-12
  -2.33999994E-02  -4.42812106E-12
  -2.33500004E-02  -5.80131472E-12
  -2.32999995E-02  -7.24261449E-12
  -2.32500006E-02  -8.50703015E-12
  -2.31999997E-02  -9.42061793E-12
  -2.31500007E-02  -9.95890263E-12
  -2.30999999E-02  -1.02607315E-11
  -2.30500009E-02  -1.05689199E-11
  -2.30000000E-02  -1.11217563E-11
  -2.29499992E-02  -1.20424790E-11
  -2.29000002E-02  -1.32765110E-11
  -2.28499994E-02  -1.46065156E-11
  -2.28000004E-02  -1.57413613E-11
  -2.27499995E-02  -1.64416050E-11
  -2.27000006E-02  -1.66262681E-11
  -2.26499997E-02  -1.64120991E-11
  -2.26000007E-02  -1.60651822E-11
  -2.25499999E-02  -1.58835931E-11
  -2.25000009E-02  -1.60614803E-11
  -2.24500000E-02  -1.65952547E-11
  -2.23999992E-02  -1.72756479E-11
  -2.23500002E-02  -1.77723548E-11
  -2.22999994E-02  -1.77763793E-11
  -2.22500004E-02  -1.71380549E-11
  -2.21999995E-02  -1.59383565E-11
  -2.21500006E-02  -1.44591015E-11
  -2.20999997E-02  -1.30619291E-11
  -2.20500007E-02  -1.20274424E-11
  -2.19999999E-02  -1.14256434E-11
  -2.19500009E-02  -1.10771366E-11
  -2.19000001E-02  -1.06257347E-11
  -2.18499992E-02  -9.69358534E-12
  -2.18000002E-02  -8.05176238E-12
  -2.17499994E-02  -5.72999764E-12
  -2.17000004E-02  -3.01406274E-12
  -2.16499995E-02  -3.28180625E-13
  -2.16000006E-02   1.94842384E-12
  -2.15499997E-02   3.65040376E-12
  -2.15000007E-02   4.90404462E-12
  -2.14499999E-02   6.07583818E-12
  -2.14000009E-02   7.61077659E-12
  -2.13500001E-02   9.82955731E-12
  -2.12999992E-02   1.27747118E-11
  -2.12500002E-02   1.61765410E-11
  -2.11999994E-02   1.95581260E-11
  -2.11500004E-02   2.24366185E-11
  -2.10999995E-02   2.45332938E-11
  -2.10500006E-02   2.58980701E-11
  -2.09999997E-02   2.68897266E-11
  -2.09500007E-02   2.80161571E-11
  -2.08999999E-02   2.97022199E-11
  -2.08500009E-02   3.20874612E-11
  -2.08000001E-02   3.49457824E-11
  -2.07499992E-02   3.77671089E-11
  -2.07000002E-02   3.99693716E-11
  -2.06499994E-02   4.11494623E-11
  -2.06000004E-02   4.12614630E-11
  -2.05499995E-02   4.06397763E-11
  -2.05000006E-02   3.98519724E-11
  -2.04499997E-02   3.94425950E-11
  -2.04000007E-02   3.96798878E-11
  -2.03499999E-02   4.04196607E-11
  -2.03000009E-02   4.11510791E-11
  -2.02500001E-02   4.12093033E-11
  -2.01999992E-02   4.00642540E-11
  -2.01500002E-02   3.75579151E-11
  -2.00999994E-02   3.39819145E-11
  -2.00500004E-02   2.99558850E-11
  -1.99999996E-02   2.61555725E-11
  -1.99500006E-02   2.30087460E-11
  -1.98999997E-02   2.04948090E-11
  -1.98500007E-02   1.81413166E-11
  -1.97999999E-02   1.52246375E-11
  -1.97500009E-02   1.10903162E-11
  -1.97000001E-02   5.45255421E-12
  -1.96499992E-02  -1.46247413E-12
  -1.96000002E-02  -8.99819802E-12
  -1.95499994E-02  -1.63436435E-11
  -1.95000004E-02  -2.28850949E-11
  -1.94499996E-02  -2.84773646E-11
  -1.94000006E-02  -3.35104861E-11
  -1.93499997E-02  -3.87363128E-11
  -1.93000007E-02  -4.49264237E-11
  -1.92499999E-02  -5.25106521E-11
  -1.92000009E-02  -6.13581408E-11
  -1.91500001E-02  -7.08031481E-11
  -1.90999992E-02  -7.99105296E-11
  -1.90500002E-02  -8.78678241E-11
  -1.89999994E-02  -9.43311540E-11
  -1.89500004E-02  -9.95682634E-11
  -1.88999996E-02  -1.04329233E-10
  -1.88500006E-02  -1.09495933E-10
  -1.87999997E-02  -1.15662119E-10
  -1.87500007E-02  -1.22830981E-10
  -1.86999999E-02  -1.30369215E-10
  -1.86500009E-02  -1.37244521E-10
  -1.86000001E-02  -1.42447235E-10
  -1.85499992E-02  -1.45411280E-10
  -1.85000002E-02  -1.46245585E-10
  -1.84499994E-02  -1.45667228E-10
  -1.84000004E-02  -1.44659423E-10
  -1.83499996E-02  -1.44001019E-10
  -1.83000006E-02  -1.43875911E-10
  -1.82499997E-02  -1.43739701E-10
  -1.82000007E-02  -1.42509643E-10
  -1.81499999E-02  -1.39000561E-10
  -1.81000009E-02  -1.32416925E-10
  -1.80500001E-02  -1.22681768E-10
  -1.79999992E-02  -1.10450968E-10
  -1.79500002E-02  -9.67994643E-11
  -1.78999994E-02  -8.27125035E-11
  -1.78500004E-02  -6.86058224E-11
  -1.77999996E-02  -5.40908533E-11
  -1.77500006E-02  -3.80958355E-11
  -1.76999997E-02  -1.92966754E-11
  -1.76500008E-02   3.32857721E-12
  -1.75999999E-02   3.00675491E-11
  -1.75500009E-02   6.03598976E-11
  -1.75000001E-02   9.30604621E-11
  -1.74499992E-02   1.26968949E-10
  -1.74000002E-02   1.61394759E-10
  -1.73499994E-02   1.96504202E-10
  -1.73000004E-02   2.33289887E-10
  -1.72499996E-02   2.73167572E-10
  -1.72000006E-02   3.17373378E-10
  -1.71499997E-02   3.66427277E-10
  -1.71000008E-02   4.19904417E-10
  -1.70499999E-02   4.76623685E-10
  -1.70000009E-02   5.35177014E-10
  -1.69500001E-02   5.94570226E-10
  -1.68999992E-02   6.54689469E-10
  -1.68500002E-02   7.16381954E-10
  -1.67999994E-02   7.81106180E-10
  -1.67500004E-02   8.50299609E-10
  -1.66999996E-02   9.24741839E-10
  -1.66500006E-02   1.00419839E-09
  -1.65999997E-02   1.08750986E-09
  -1.65500008E-02   1.17309562E-09
  -1.64999999E-02   1.25965505E-09
  -1.64500009E-02   1.34675582E-09
  -1.64000001E-02   1.43504331E-09
  -1.63499992E-02   1.52597202E-09
  -1.63000003E-02   1.62116676E-09
  -1.62499994E-02   1.72169701E-09
  -1.62000004E-02   1.82758308E-09
  -1.61499996E-02   1.93776328E-09
  -1.61000006E-02   2.05054373E-09
  -1.60499997E-02   2.16434004E-09
  -1.60000008E-02   2.27838148E-09
  -1.59499999E-02   2.39306686E-09
  -1.59000009E-02   2.50980148E-09
  -1.58500001E-02   2.63038435E-09
  -1.57999992E-02   2.75620549E-09
  -1.57500003E-02   2.88761548E-09
  -1.56999994E-02   3.02374747E-09
  -1.56500004E-02   3.16288395E-09
  -1.55999996E-02   3.30320815E-09
  -1.55499997E-02   3.44361895E-09
  -1.54999997E-02   3.58423669E-09
  -1.54499998E-02   3.72637787E-09
  -1.53999999E-02   3.87199295E-09
  -1.53500000E-02   4.02281541E-09
  -1.53000001E-02   4.17959534E-09
  -1.52500002E-02   4.34176028E-09
  -1.52000003E-02   4.50766624E-09
  -1.51500003E-02   4.67533390E-09
  -1.51000004E-02   4.84334794E-09
  -1.50499996E-02   5.01152364E-09
  -1.49999997E-02   5.18103871E-09
  -1.49499997E-02   5.35395817E-09
  -1.48999998E-02   5.53236124E-09
  -1.48499999E-02   5.71745096E-09
  -1.48000000E-02   5.90904259E-09
  -1.47500001E-02   6.10567019E-09
  -1.47000002E-02   6.30526920E-09
  -1.46500003E-02   6.50614096E-09
  -1.46000003E-02   6.70777478E-09
  -1.45500004E-02   6.91115210E-09
  -1.44999996E-02   7.11839521E-09
  -1.44499997E-02   7.33190531E-09
  -1.43999998E-02   7.55336327E-09
  -1.43499998E-02   7.78304621E-09
  -1.42999999E-02   8.01976086E-09
  -1.42500000E-02   8.26143598E-09
  -1.42000001E-02   8.50612203E-09
  -1.41500002E-02   8.75295481E-09
  -1.41000003E-02   9.00265107E-09
  -1.40500003E-02   9.25730692E-09
  -1.40000004E-02   9.51958867E-09
  -1.39499996E-02   9.79165371E-09
  -1.38999997E-02   1.00742925E-08
  -1.38499998E-02   1.03666702E-08
  -1.37999998E-02   1.06667901E-08
  -1.37499999E-02   1.09724994E-08
  -1.37000000E-02   1.12825589E-08
  -1.36500001E-02   1.15973497E-08
  -1.36000002E-02   1.19188499E-08
  -1.35500003E-02   1.22499069E-08
  -1.35000004E-02   1.25931194E-08
  -1.34500004E-02   1.29498154E-08
  -1.33999996E-02   1.33195863E-08
  -1.33499997E-02   1.37005953E-08
  -1.32999998E-02   1.40905287E-08
  -1.32499998E-02   1.44877728E-08
  -1.31999999E-02   1.48922998E-08
  -1.31500000E-02   1.53058579E-08
  -1.31000001E-02   1.57313753E-08
  -1.30500002E-02   1.61718301E-08
  -1.30000003E-02   1.66290892E-08
  -1.29500004E-02   1.71032344E-08
  -1.29000004E-02   1.75926704E-08
  -1.28499996E-02   1.80949939E-08
  -1.27999997E-02   1.86082278E-08
  -1.27499998E-02   1.91318907E-08
  -1.26999998E-02   1.96674090E-08
  -1.26499999E-02   2.02176835E-08
  -1.26000000E-02   2.07860040E-08
  -1.25500001E-02   2.13747651E-08
  -1.25000002E-02   2.19845955E-08
  -1.24500003E-02   2.26142269E-08
  -1.24000004E-02   2.32612560E-08
  -1.23500004E-02   2.39233842E-08
  -1.22999996E-02   2.45996503E-08
  -1.22499997E-02   2.52910777E-08
  -1.21999998E-02   2.60004409E-08
  -1.21499998E-02   2.67312519E-08
  -1.20999999E-02   2.74864274E-08
  -1.20500000E-02   2.82671824E-08
  -1.20000001E-02   2.90726980E-08
  -1.19500002E-02   2.99006828E-08
  -1.19000003E-02   3.07486125E-08
  -1.18500004E-02   3.16150626E-08
  -1.18000004E-02   3.25006155E-08
  -1.17499996E-02   3.34078223E-08
  -1.16999997E-02   3.43403528E-08
  -1.16499998E-02   3.53015999E-08
  -1.15999999E-02   3.62934145E-08
  -1.15499999E-02   3.73155160E-08
  -1.15000000E-02   3.83658687E-08
  -1.14500001E-02   3.94418116E-08
  -1.14000002E-02   4.05415328E-08
  -1.13500003E-02   4.16651389E-08
  -1.13000004E-02   4.28149107E-08
  -1.12500004E-02   4.39945929E-08
  -1.11999996E-02   4.52080329E-08
  -1.11499997E-02   4.64577603E-08
  -1.10999998E-02   4.77441624E-08
  -1.10499999E-02   4.90656014E-08
  -1.09999999E-02   5.04194482E-08
  -1.09500000E-02   5.18035677E-08
  -1.09000001E-02   5.32176010E-08
  -1.08500002E-02   5.46635022E-08
  -1.08000003E-02   5.61449980E-08
  -1.07500004E-02   5.76663268E-08
  -1.07000005E-02   5.92307110E-08
  -1.06499996E-02   6.08392696E-08
  -1.05999997E-02   6.24909191E-08
  -1.05499998E-02   6.41831974E-08
  -1.04999999E-02   6.59137740E-08
  -1.04499999E-02   6.76819027E-08
  -1.04000000E-02   6.94891398E-08
  -1.03500001E-02   7.13391515E-08
  -1.03000002E-02   7.32365208E-08
  -1.02500003E-02   7.51851275E-08
  -1.02000004E-02   7.71869182E-08
  -1.01500005E-02   7.92414951E-08
  -1.00999996E-02   8.13467267E-08
  -1.00499997E-02   8.35002041E-08
  -9.99999978E-03   8.57008189E-08
  -9.94999986E-03   8.79497293E-08
  -9.89999995E-03   9.02504596E-08
  -9.85000003E-03   9.26078130E-08
  -9.80000012E-03   9.50263086E-08
  -9.75000020E-03   9.75087318E-08
  -9.70000029E-03   1.00055445E-07
  -9.65000037E-03   1.02664792E-07
  -9.60000046E-03   1.05334443E-07
  -9.54999961E-03   1.08062970E-07
  -9.49999969E-03   1.10851140E-07
  -9.44999978E-03   1.13702214E-07
  -9.39999986E-03   1.16621131E-07
  -9.34999995E-03   1.19612963E-07
  -9.30000003E-03   1.22681328E-07
  -9.25000012E-03   1.25827512E-07
  -9.20000020E-03   1.29050463E-07
  -9.15000029E-03   1.32348006E-07
  -9.10000037E-03   1.35718565E-07
  -9.05000046E-03   1.39162523E-07
  -8.99999961E-03   1.42682836E-07
  -8.94999970E-03   1.46284464E-07
  -8.89999978E-03   1.49972934E-07
  -8.84999987E-03   1.53752694E-07
  -8.79999995E-03   1.57625905E-07
  -8.75000004E-03   1.61592283E-07
  -8.70000012E-03   1.65649979E-07
  -8.65000021E-03   1.69797303E-07
  -8.60000029E-03   1.74034255E-07
  -8.55000038E-03   1.78363436E-07
  -8.50000046E-03   1.82789719E-07
  -8.44999962E-03   1.87319031E-07
  -8.39999970E-03   1.91956559E-07
  -8.34999979E-03   1.96705400E-07
  -8.29999987E-03   2.01566081E-07
  -8.24999996E-03   2.06537251E-07
  -8.20000004E-03   2.11617248E-07
  -8.15000013E-03   2.16805802E-07
  -8.10000021E-03   2.22105157E-07
  -8.05000030E-03   2.27520019E-07
  -8.00000038E-03   2.33056554E-07
  -7.95000046E-03   2.38720617E-07
  -7.89999962E-03   2.44516258E-07
  -7.84999970E-03   2.50444970E-07
  -7.79999979E-03   2.56506041E-07
  -7.74999987E-03   2.62697995E-07
  -7.69999996E-03   2.69020347E-07
  -7.65000004E-03   2.75474974E-07
  -7.60000013E-03   2.82066310E-07
  -7.55000021E-03   2.88800607E-07
  -7.49999983E-03   2.95684401E-07
  -7.44999992E-03   3.02722640E-07
  -7.40000000E-03   3.09917823E-07
  -7.35000009E-03   3.17270093E-07
  -7.30000017E-03   3.24778341E-07
  -7.24999979E-03   3.32441999E-07
  -7.19999988E-03   3.40262659E-07
  -7.14999996E-03   3.48244441E-07
  -7.10000005E-03   3.56393684E-07
  -7.05000013E-03   3.64717380E-07
  -7.00000022E-03   3.73221468E-07
  -6.94999984E-03   3.81909501E-07
  -6.89999992E-03   3.90782446E-07
  -6.85000001E-03   3.99839848E-07
  -6.80000009E-03   4.09081167E-07
  -6.75000018E-03   4.18507653E-07
  -6.69999979E-03   4.28123258E-07
  -6.64999988E-03   4.37934261E-07
  -6.59999996E-03   4.47947997E-07
  -6.55000005E-03   4.58171286E-07
  -6.50000013E-03   4.68608732E-07
  -6.45000022E-03   4.79262496E-07
  -6.39999984E-03   4.90132720E-07
  -6.34999992E-03   5.01219120E-07
  -6.30000001E-03   5.12522945E-07
  -6.25000009E-03   5.24047721E-07
  -6.20000018E-03   5.35799700E-07
  -6.14999980E-03   5.47786499E-07
  -6.09999988E-03   5.60015678E-07
  -6.04999997E-03   5.72493036E-07
  -6.00000005E-03   5.85221756E-07
  -5.95000014E-03   5.98202803E-07
  -5.90000022E-03   6.11436462E-07
  -5.84999984E-03   6.24923757E-07
  -5.79999993E-03   6.38668098E-07
  -5.75000001E-03   6.52675396E-07
  -5.70000010E-03   6.66953497E-07
  -5.65000018E-03   6.81510642E-07
  -5.59999980E-03   6.96353482E-07
  -5.54999989E-03   7.11486450E-07
  -5.49999997E-03   7.26911537E-07
  -5.45000006E-03   7.42629538E-07
  -5.40000014E-03   7.58641534E-07
  -5.35000023E-03   7.74950763E-07
  -5.29999984E-03   7.91562798E-07
  -5.24999993E-03   8.08485709E-07
  -5.20000001E-03   8.25728023E-07
  -5.15000010E-03   8.43297414E-07
  -5.10000018E-03   8.61199510E-07
  -5.04999980E-03   8.79437209E-07
  -4.99999989E-03   8.98012161E-07
  -4.94999997E-03   9.16925501E-07
  -4.90000006E-03   9.36180186E-07
  -4.85000014E-03   9.55781843E-07
  -4.80000023E-03   9.75737862E-07
  -4.74999985E-03   9.96057338E-07
  -4.69999993E-03   1.01674880E-06
  -4.65000002E-03   1.03781883E-06
  -4.60000010E-03   1.05927131E-06
  -4.55000019E-03   1.08110862E-06
  -4.49999981E-03   1.10333235E-06
  -4.44999989E-03   1.12594512E-06
  -4.39999998E-03   1.14895204E-06
  -4.35000006E-03   1.17236050E-06
  -4.30000015E-03   1.19617960E-06
  -4.25000023E-03   1.22041831E-06
  -4.19999985E-03   1.24508438E-06
  -4.14999994E-03   1.27018268E-06
  -4.10000002E-03   1.29571640E-06
  -4.05000011E-03   1.32168748E-06
  -4.00000019E-03   1.34809841E-06
  -3.94999981E-03   1.37495397E-06
  -3.89999989E-03   1.40226109E-06
  -3.84999998E-03   1.43002842E-06
  -3.80000006E-03   1.45826573E-06
  -3.74999992E-03   1.48698109E-06
  -3.70000000E-03   1.51618053E-06
  -3.65000009E-03   1.54586826E-06
  -3.59999994E-03   1.57604666E-06
  -3.55000002E-03   1.60671800E-06
  -3.50000011E-03   1.63788650E-06
  -3.44999996E-03   1.66955851E-06
  -3.40000005E-03   1.70174224E-06
  -3.34999990E-03   1.73444732E-06
  -3.29999998E-03   1.76768276E-06
  -3.25000007E-03   1.80145537E-06
  -3.19999992E-03   1.83576992E-06
  -3.15000000E-03   1.87062949E-06
  -3.10000009E-03   1.90603623E-06
  -3.04999994E-03   1.94199401E-06
  -3.00000003E-03   1.97850795E-06
  -2.95000011E-03   2.01558646E-06
  -2.89999996E-03   2.05323818E-06
  -2.85000005E-03   2.09147311E-06
  -2.79999990E-03   2.13029853E-06
  -2.74999999E-03   2.16971989E-06
  -2.70000007E-03   2.20974084E-06
  -2.64999992E-03   2.25036388E-06
  -2.60000001E-03   2.29159150E-06
  -2.55000009E-03   2.33342826E-06
  -2.49999994E-03   2.37588165E-06
  -2.45000003E-03   2.41895987E-06
  -2.40000011E-03   2.46267268E-06
  -2.34999997E-03   2.50702828E-06
  -2.30000005E-03   2.55203258E-06
  -2.24999990E-03   2.59768967E-06
  -2.19999999E-03   2.64400160E-06
  -2.15000007E-03   2.69097040E-06
  -2.09999993E-03   2.73859973E-06
  -2.05000001E-03   2.78689572E-06
  -2.00000009E-03   2.83586587E-06
  -1.94999995E-03   2.88551973E-06
  -1.90000003E-03   2.93586572E-06
  -1.85000000E-03   2.98691043E-06
  -1.79999997E-03   3.03865795E-06
  -1.75000005E-03   3.09111033E-06
  -1.70000002E-03   3.14426893E-06
  -1.64999999E-03   3.19813648E-06
  -1.59999996E-03   3.25271753E-06
  -1.55000004E-03   3.30801868E-06
  -1.50000001E-03   3.36404833E-06
  -1.44999998E-03   3.42081512E-06
  -1.39999995E-03   3.47832520E-06
  -1.35000004E-03   3.53658334E-06
  -1.30000000E-03   3.59559158E-06
  -1.24999997E-03   3.65535061E-06
  -1.20000006E-03   3.71586179E-06
  -1.15000003E-03   3.77712695E-06
  -1.09999999E-03   3.83915176E-06
  -1.04999996E-03   3.90194373E-06
  -1.00000005E-03   3.96550968E-06
  -9.50000016E-04   4.02985688E-06
  -8.99999985E-04   4.09498989E-06
  -8.50000011E-04   4.16091098E-06
  -7.99999980E-04   4.22761923E-06
  -7.50000007E-04   4.29511374E-06
  -6.99999975E-04   4.36339633E-06
  -6.50000002E-04   4.43246972E-06
  -6.00000028E-04   4.50233892E-06
  -5.49999997E-04   4.57301121E-06
  -5.00000024E-04   4.64449249E-06
  -4.49999992E-04   4.71678732E-06
  -3.99999990E-04   4.78989750E-06
  -3.49999988E-04   4.86382214E-06
  -3.00000014E-04   4.93855850E-06
  -2.50000012E-04   5.01410432E-06
  -1.99999995E-04   5.09046095E-06
  -1.50000007E-04   5.16763021E-06
  -9.99999975E-05   5.24561801E-06
  -4.99999987E-05   5.32443028E-06
   0.00000000       5.40407018E-06
   4.99999987E-05   5.48454000E-06
   9.99999975E-05   5.56583655E-06
   1.50000007E-04   5.64795528E-06
   1.99999995E-04   5.73089164E-06
   2.50000012E-04   5.81464337E-06
   3.00000014E-04   5.89921092E-06
   3.49999988E-04   5.98459701E-06
   3.99999990E-04   6.07080619E-06
   4.49999992E-04   6.15784165E-06
   5.00000024E-04   6.24570293E-06
   5.49999997E-04   6.33438640E-06
   6.00000028E-04   6.42388659E-06
   6.50000002E-04   6.51419532E-06
   6.99999975E-04   6.60530714E-06
   7.50000007E-04   6.69721840E-06
   7.99999980E-04   6.78993047E-06
   8.50000011E-04   6.88344426E-06
   8.99999985E-04   6.97776159E-06
   9.50000016E-04   7.07288154E-06
   1.00000005E-03   7.16879913E-06
   1.04999996E-03   7.26550479E-06
   1.09999999E-03   7.36298944E-06
   1.15000003E-03   7.46124306E-06
   1.20000006E-03   7.56025838E-06
   1.24999997E-03   7.66003177E-06
   1.30000000E-03   7.76056277E-06
   1.35000004E-03   7.86184955E-06
   1.39999995E-03   7.96388849E-06
   1.44999998E-03   8.06667595E-06
   1.50000001E-03   8.17020009E-06
   1.55000004E-03   8.27444728E-06
   1.59999996E-03   8.37940388E-06
   1.64999999E-03   8.48505988E-06
   1.70000002E-03   8.59140528E-06
   1.75000005E-03   8.69843461E-06
   1.79999997E-03   8.80614425E-06
   1.85000000E-03   8.91453055E-06
   1.90000003E-03   9.02358533E-06
   1.94999995E-03   9.13329495E-06
   2.00000009E-03   9.24364485E-06
   2.05000001E-03   9.35461685E-06
   2.09999993E-03   9.46619366E-06
   2.15000007E-03   9.57835982E-06
   2.19999999E-03   9.69110624E-06
   2.24999990E-03   9.80442383E-06
   2.30000005E-03   9.91830802E-06
   2.34999997E-03   1.00327479E-05
   2.40000011E-03   1.01477290E-05
   2.45000003E-03   1.02632303E-05
   2.49999994E-03   1.03792327E-05
   2.55000009E-03   1.04957107E-05
   2.60000001E-03   1.06126436E-05
   2.64999992E-03   1.07300166E-05
   2.70000007E-03   1.08478171E-05
   2.74999999E-03   1.09660350E-05
   2.79999990E-03   1.10846577E-05