  -3.99999991E-02   0.00000000    
  -3.99499983E-02   0.00000000    
  -3.99000011E-02   0.00000000    
  -3.98500003E-02   0.00000000    
  -3.97999994E-02   0.00000000    
  -3.97499986E-02   4.55945952E-22
  -3.97000015E-02   3.53740800E-21
  -3.96500006E-02   1.43694633E-20
  -3.95999998E-02   4.11661295E-20
  -3.95499989E-02   9.52188153E-20
  -3.95000018E-02   1.93227439E-19
  -3.94500010E-02   3.61420128E-19
  -3.94000001E-02   6.35719010E-19
  -3.93499993E-02   1.05333779E-18
  -3.92999984E-02   1.64120192E-18
  -3.92500013E-02   2.41429578E-18
  -3.92000005E-02   3.38928488E-18
  -3.91499996E-02   4.60037449E-18
  -3.90999988E-02   6.09806895E-18
  -3.90500017E-02   7.93016895E-18
  -3.90000008E-02   1.01291947E-17
  -3.89500000E-02   1.27284907E-17
  -3.88999991E-02   1.57961189E-17
  -3.88499983E-02   1.94479625E-17
  -3.88000011E-02   2.38161230E-17
  -3.87500003E-02   2.89932926E-17
  -3.86999995E-02   3.49964169E-17
  -3.86499986E-02   4.17666321E-17
  -3.86000015E-02   4.91830276E-17
  -3.85500006E-02   5.70715646E-17
  -3.84999998E-02   6.52330844E-17
  -3.84499989E-02   7.35268737E-17
  -3.84000018E-02   8.19826249E-17
  -3.83500010E-02   9.08301024E-17
  -3.83000001E-02   1.00342944E-16
  -3.82499993E-02   1.10526424E-16
  -3.81999984E-02   1.20828840E-16
  -3.81500013E-02   1.30073648E-16
  -3.81000005E-02   1.36670447E-16
  -3.80499996E-02   1.38996174E-16
  -3.79999988E-02   1.35779262E-16
  -3.79500017E-02   1.26371307E-16
  -3.79000008E-02   1.10836729E-16
  -3.78500000E-02   8.97823888E-17
  -3.77999991E-02   6.38778648E-17
  -3.77499983E-02   3.31814205E-17
  -3.77000012E-02  -3.38941557E-18
  -3.76500003E-02  -4.80595840E-17
  -3.75999995E-02  -1.03558043E-16
  -3.75499986E-02  -1.72157951E-16
  -3.75000015E-02  -2.54947547E-16
  -3.74500006E-02  -3.51730431E-16
  -3.73999998E-02  -4.61562653E-16
  -3.73499990E-02  -5.83628200E-16
  -3.73000018E-02  -7.18097169E-16
  -3.72500010E-02  -8.66682576E-16
  -3.72000001E-02  -1.03264815E-15
  -3.71499993E-02  -1.22007377E-15
  -3.70999984E-02  -1.43242938E-15
  -3.70500013E-02  -1.67093088E-15
  -3.70000005E-02  -1.93344693E-15
  -3.69499996E-02  -2.21453821E-15
  -3.68999988E-02  -2.50660110E-15
  -3.68500017E-02  -2.80151256E-15
  -3.68000008E-02  -3.09208234E-15
  -3.67500000E-02  -3.37298366E-15
  -3.66999991E-02  -3.64117314E-15
  -3.66499983E-02  -3.89585731E-15
  -3.66000012E-02  -4.13788639E-15
  -3.65500003E-02  -4.36849577E-15
  -3.64999995E-02  -4.58766766E-15
  -3.64499986E-02  -4.79278685E-15
  -3.64000015E-02  -4.97822947E-15
  -3.63500006E-02  -5.13608507E-15
  -3.62999998E-02  -5.25771943E-15
  -3.62499990E-02  -5.33563206E-15
  -3.62000018E-02  -5.36495846E-15
  -3.61500010E-02  -5.34382414E-15
  -3.61000001E-02  -5.27166244E-15
  -3.60499993E-02  -5.14518221E-15
  -3.59999985E-02  -4.95305777E-15
  -3.59500013E-02  -4.67204654E-15
  -3.59000005E-02  -4.26781701E-15
  -3.58499996E-02  -3.70225650E-15
  -3.57999988E-02  -2.94597466E-15
  -3.57500017E-02  -1.99144519E-15
  -3.57000008E-02  -8.60781510E-16
  -3.56500000E-02   3.96786787E-16
  -3.55999991E-02   1.71904648E-15
  -3.55499983E-02   3.05300617E-15
  -3.55000012E-02   4.37707240E-15
  -3.54500003E-02   5.71309196E-15
  -3.53999995E-02   7.12049861E-15
  -3.53499986E-02   8.67181405E-15
  -3.53000015E-02   1.04180055E-14
  -3.52500007E-02   1.23592475E-14
  -3.51999998E-02   1.44367465E-14
  -3.51499990E-02   1.65531956E-14
  -3.51000018E-02   1.86159088E-14
  -3.50500010E-02   2.05841881E-14
  -3.50000001E-02   2.24971172E-14
  -3.49499993E-02   2.44638243E-14
  -3.48999985E-02   2.66136871E-14
  -3.48500013E-02   2.90234789E-14
  -3.48000005E-02   3.16534484E-14
  -3.47499996E-02   3.43264506E-14
  -3.46999988E-02   3.67692666E-14
  -3.46500017E-02   3.87079251E-14
  -3.46000008E-02   3.99801381E-14
  -3.45500000E-02   4.06128412E-14
  -3.44999991E-02   4.08215704E-14
  -3.44499983E-02   4.09202701E-14
  -3.44000012E-02   4.11722048E-14
  -3.43500003E-02   4.16458724E-14
  -3.42999995E-02   4.21465265E-14
  -3.42499986E-02   4.22667950E-14
  -3.42000015E-02   4.15486805E-14
  -3.41500007E-02   3.96932717E-14
  -3.40999998E-02   3.67220834E-14
  -3.40499990E-02   3.30033852E-14
  -3.40000018E-02   2.91106623E-14
  -3.39500010E-02   2.55583840E-14
  -3.39000002E-02   2.25276222E-14
  -3.38499993E-02   1.97148274E-14
  -3.37999985E-02   1.63952341E-14
  -3.37500013E-02   1.16996765E-14
  -3.37000005E-02   5.00005751E-15
  -3.36499996E-02  -3.76742552E-15
  -3.35999988E-02  -1.40032808E-14
  -3.35500017E-02  -2.46445100E-14
  -3.35000008E-02  -3.46034304E-14
  -3.34500000E-02  -4.32632378E-14
  -3.33999991E-02  -5.07989409E-14
  -3.33499983E-02  -5.81486560E-14
  -3.33000012E-02  -6.66089091E-14
  -3.32500003E-02  -7.72069989E-14
  -3.31999995E-02  -9.01295978E-14
  -3.31499986E-02  -1.04492112E-13
  -3.31000015E-02  -1.18600171E-13
  -3.30500007E-02  -1.30633771E-13
  -3.29999998E-02  -1.39473096E-13
  -3.29499990E-02  -1.45284623E-13
  -3.29000019E-02  -1.49559401E-13
  -3.28500010E-02  -1.54523841E-13
  -3.28000002E-02  -1.62134290E-13
  -3.27499993E-02  -1.73089868E-13
  -3.26999985E-02  -1.86334739E-13
  -3.26500013E-02  -1.99338023E-13
  -3.26000005E-02  -2.09096900E-13
  -3.25499997E-02  -2.13456924E-13
  -3.24999988E-02  -2.12151490E-13
  -3.24500017E-02  -2.07036794E-13
  -3.24000008E-02  -2.01333457E-13
  -3.23500000E-02  -1.98142094E-13
  -3.22999991E-02  -1.98872697E-13
  -3.22499983E-02  -2.02330855E-13
  -3.22000012E-02  -2.04961712E-13
  -3.21500003E-02  -2.02249621E-13
  -3.20999995E-02  -1.90720215E-13
  -3.20499986E-02  -1.69652297E-13
  -3.20000015E-02  -1.41660541E-13
  -3.19500007E-02  -1.11765713E-13
  -3.18999998E-02  -8.52548826E-14
  -3.18499990E-02  -6.52325009E-14
  -3.18000019E-02  -5.09925489E-14
  -3.17500010E-02  -3.80504717E-14
  -3.17000002E-02  -1.99605025E-14
  -3.16499993E-02   8.78895616E-15
  -3.15999985E-02   5.00776483E-14
  -3.15500014E-02   1.00941587E-13
  -3.15000005E-02   1.54540578E-13
  -3.14499997E-02   2.03024067E-13
  -3.13999988E-02   2.41094742E-13
  -3.13500017E-02   2.68639820E-13
  -3.13000008E-02   2.91107795E-13
  -3.12500000E-02   3.17266938E-13
  -3.11999992E-02   3.55191760E-13
  -3.11500002E-02   4.08229684E-13
  -3.10999993E-02   4.72849570E-13
  -3.10500003E-02   5.39539062E-13
  -3.09999995E-02   5.96571187E-13
  -3.09500005E-02   6.35101021E-13
  -3.08999997E-02   6.53307053E-13
  -3.08500007E-02   6.57571870E-13
  -3.07999998E-02   6.59933154E-13
  -3.07500008E-02   6.72725113E-13
  -3.07000000E-02   7.02718482E-13
  -3.06499992E-02   7.47463289E-13
  -3.06000002E-02   7.95703076E-13
  -3.05499993E-02   8.31948876E-13
  -3.05000003E-02   8.43357665E-13
  -3.04499995E-02   8.25848775E-13
  -3.04000005E-02   7.86534520E-13
  -3.03499997E-02   7.41069695E-13
  -3.03000007E-02   7.06807930E-13
  -3.02499998E-02   6.94675979E-13
  -3.02000009E-02   7.03475201E-13
  -3.01500000E-02   7.19436663E-13
  -3.00999992E-02   7.21595310E-13
  -3.00500002E-02   6.90872218E-13
  -2.99999993E-02   6.18888133E-13
  -2.99500003E-02   5.12394760E-13
  -2.98999995E-02   3.90994528E-13
  -2.98500005E-02   2.78793129E-13
  -2.97999997E-02   1.93495746E-13
  -2.97500007E-02   1.37863977E-13
  -2.96999998E-02   9.76493260E-14
  -2.96500009E-02   4.73537598E-14
  -2.96000000E-02  -3.83929135E-14
  -2.95499992E-02  -1.72792268E-13
  -2.95000002E-02  -3.49732640E-13
  -2.94499993E-02  -5.45155555E-13
  -2.94000003E-02  -7.26808913E-13
  -2.93499995E-02  -8.68359367E-13
  -2.93000005E-02  -9.61579557E-13
  -2.92499997E-02  -1.02085181E-12
  -2.92000007E-02  -1.07746234E-12
  -2.91499998E-02  -1.16574751E-12
  -2.91000009E-02  -1.30704421E-12
  -2.90500000E-02  -1.49873950E-12
  -2.89999992E-02  -1.71375793E-12
  -2.89500002E-02  -1.91128233E-12
  -2.88999993E-02  -2.05436753E-12
  -2.88500004E-02  -2.12668164E-12
  -2.87999995E-02  -2.14060432E-12
  -2.87500005E-02  -2.13250858E-12
  -2.86999997E-02  -2.14672919E-12
  -2.86500007E-02  -2.21504434E-12
  -2.85999998E-02  -2.34090134E-12
  -2.85500009E-02  -2.49591493E-12
  -2.85000000E-02  -2.63087187E-12
  -2.84499992E-02  -2.69691929E-12
  -2.84000002E-02  -2.66769072E-12
  -2.83499993E-02  -2.55224119E-12
  -2.83000004E-02  -2.39239900E-12
  -2.82499995E-02  -2.24498913E-12
  -2.82000005E-02  -2.15635821E-12
  -2.81499997E-02  -2.14052517E-12
  -2.81000007E-02  -2.17113155E-12
  -2.80499998E-02  -2.19151715E-12
  -2.80000009E-02  -2.13913587E-12
  -2.79500000E-02  -1.97377292E-12
  -2.78999992E-02  -1.69679722E-12
  -2.78500002E-02  -1.35224102E-12
  -2.77999993E-02  -1.00840549E-12
  -2.77500004E-02  -7.27576745E-13
  -2.76999995E-02  -5.37213232E-13
  -2.76500005E-02  -4.15873146E-13
  -2.75999997E-02  -3.00977749E-13
  -2.75500007E-02  -1.15824695E-13
  -2.74999999E-02   1.95650923E-13
  -2.74500009E-02   6.41905420E-13
  -2.74000000E-02   1.17723626E-12
  -2.73499992E-02   1.71950410E-12
  -2.73000002E-02   2.18505812E-12
  -2.72499993E-02   2.52567455E-12
  -2.72000004E-02   2.75077465E-12
  -2.71499995E-02   2.92423833E-12
  -2.71000005E-02   3.13627509E-12
  -2.70499997E-02   3.46219668E-12
  -2.70000007E-02   3.92635967E-12
  -2.69499999E-02   4.48788532E-12
  -2.69000009E-02   5.05549595E-12
  -2.68500000E-02   5.52583847E-12
  -2.67999992E-02   5.82878190E-12
  -2.67500002E-02   5.95936711E-12
  -2.66999993E-02   5.98140851E-12
  -2.66500004E-02   6.00003467E-12
  -2.65999995E-02   6.11447308E-12
  -2.65500005E-02   6.37176249E-12
  -2.64999997E-02   6.74240655E-12
  -2.64500007E-02   7.12980629E-12
  -2.63999999E-02   7.41040649E-12
  -2.63500009E-02   7.48751929E-12
  -2.63000000E-02   7.33496163E-12
  -2.62499992E-02   7.01045515E-12
  -2.62000002E-02   6.63170213E-12
  -2.61499994E-02   6.32469337E-12
  -2.61000004E-02   6.16666961E-12
  -2.60499995E-02   6.14930025E-12
  -2.60000005E-02   6.17942243E-12
  -2.59499997E-02   6.11823005E-12
  -2.59000007E-02   5.84252568E-12
  -2.58499999E-02   5.30109290E-12
  -2.58000009E-02   4.54062048E-12
  -2.57500000E-02   3.68845362E-12
  -2.56999992E-02   2.89852365E-12
  -2.56500002E-02   2.28360234E-12
  -2.55999994E-02   1.86391896E-12
  -2.55500004E-02   1.55579466E-12
  -2.54999995E-02   1.20667126E-12
  -2.54500005E-02   6.62284192E-13
  -2.53999997E-02  -1.63194599E-13
  -2.53500007E-02  -1.24542922E-12
  -2.52999999E-02  -2.45621470E-12
  -2.52500009E-02  -3.61643940E-12
  -2.52000000E-02  -4.57334864E-12
  -2.51499992E-02  -5.26817001E-12
  -2.51000002E-02  -5.76344875E-12
  -2.50499994E-02  -6.21661360E-12
  -2.50000004E-02  -6.81000178E-12
  -2.49499995E-02  -7.66742139E-12
  -2.49000005E-02  -8.79424832E-12
  -2.48499997E-02  -1.00686317E-11
  -2.48000007E-02  -1.12893184E-11
  -2.47499999E-02  -1.22604323E-11
  -2.47000009E-02  -1.28764282E-11
  -2.46500000E-02  -1.31692443E-11
  -2.45999992E-02  -1.32955131E-11
  -2.45500002E-02  -1.34678180E-11
  -2.44999994E-02  -1.38591126E-11
  -2.44500004E-02  -1.45222740E-11
  -2.43999995E-02  -1.53611360E-11
  -2.43500005E-02  -1.61674597E-11
  -2.42999997E-02  -1.67092000E-11
  -2.42500007E-02  -1.68321277E-11
  -2.41999999E-02  -1.65297914E-11
  -2.41500009E-02  -1.59496843E-11
  -2.41000000E-02  -1.53309605E-11
  -2.40499992E-02  -1.48995781E-11
  -2.40000002E-02  -1.47664016E-11
  -2.39499994E-02  -1.48738244E-11
  -2.39000004E-02  -1.50161238E-11
  -2.38499995E-02  -1.49266276E-11
  -2.38000005E-02  -1.43947649E-11
  -2.37499997E-02  -1.33617102E-11
  -2.37000007E-02  -1.19514077E-11
  -2.36499999E-02  -1.04213686E-11
  -2.36000009E-02  -9.05278370E-12
  -2.35500000E-02  -8.02728023E-12
  -2.34999992E-02  -7.34474374E-12
  -2.34500002E-02  -6.82000506E-12
  -2.33999994E-02  -6.16203226E-12
  -2.33500004E-02  -5.10268303E-12
  -2.32999995E-02  -3.51903771E-12
  -2.32500006E-02  -1.49462495E-12
  -2.31999997E-02   7.09520008E-13
  -2.31500007E-02   2.76363047E-12
  -2.30999999E-02   4.41166114E-12
  -2.30500009E-02   5.58494527E-12
  -2.30000000E-02   6.43561463E-12
  -2.29499992E-02   7.27255105E-12
  -2.29000002E-02   8.42558835E-12
  -2.28499994E-02   1.00963378E-11
  -2.28000004E-02   1.22615876E-11
  -2.27499995E-02   1.46737431E-11
  -2.27000006E-02   1.69608719E-11
  -2.26499997E-02   1.87846162E-11
  -2.26000007E-02   1.99873867E-11
  -2.25499999E-02   2.06630060E-11
  -2.25000009E-02   2.11172833E-11
  -2.24500000E-02   2.17330771E-11
  -2.23999992E-02   2.27972762E-11
  -2.23500002E-02   2.43658340E-11
  -2.22999994E-02   2.62280683E-11
  -2.22500004E-02   2.79890174E-11
  -2.21999995E-02   2.92365715E-11
  -2.21500006E-02   2.97213400E-11
  -2.20999997E-02   2.94695275E-11
  -2.20500007E-02   2.87767102E-11
  -2.19999999E-02   2.80818511E-11
  -2.19500009E-02   2.77743158E-11
  -2.19000001E-02   2.80179716E-11
  -2.18499992E-02   2.86711956E-11
  -2.18000002E-02   2.93410643E-11
  -2.17499994E-02   2.95512503E-11
  -2.17000004E-02   2.89519398E-11
  -2.16499995E-02   2.74793608E-11
  -2.16000006E-02   2.53924676E-11
  -2.15499997E-02   2.31670013E-11
  -2.15000007E-02   2.12903462E-11
  -2.14499999E-02   2.00459233E-11
  -2.14000009E-02   1.93830264E-11
  -2.13500001E-02   1.89325829E-11
  -2.12999992E-02   1.81657658E-11
  -2.12500002E-02   1.66286169E-11
  -2.11999994E-02   1.41500648E-11
  -2.11500004E-02   1.09298516E-11
  -2.10999995E-02   7.46380388E-12
  -2.10500006E-02   4.33543436E-12
  -2.09999997E-02   1.96318265E-12
  -2.09500007E-02   4.14787670E-13
  -2.08999999E-02  -6.26619037E-13
  -2.08500009E-02  -1.72574878E-12
  -2.08000001E-02  -3.44435071E-12
  -2.07499992E-02  -6.08542773E-12
  -2.07000002E-02  -9.54646518E-12
  -2.06499994E-02  -1.33500780E-11
  -2.06000004E-02  -1.68428518E-11
  -2.05499995E-02  -1.94778499E-11
  -2.05000006E-02  -2.10566720E-11
  -2.04499997E-02  -2.18218707E-11
  -2.04000007E-02  -2.23545835E-11
  -2.03499999E-02  -2.33182050E-11
  -2.03000009E-02  -2.51587223E-11
  -2.02500001E-02  -2.78945131E-11
  -2.01999992E-02  -3.10917264E-11
  -2.01500002E-02  -3.40408396E-11
  -2.00999994E-02  -3.60605330E-11
  -2.00500004E-02  -3.67964166E-11
  -1.99999996E-02  -3.63811203E-11
  -1.99500006E-02  -3.53811980E-11
  -1.98999997E-02  -3.45496687E-11
  -1.98500007E-02  -3.44902891E-11
  -1.97999999E-02  -3.53817704E-11
  -1.97500009E-02  -3.68864418E-11
  -1.97000001E-02  -3.82885286E-11
  -1.96499992E-02  -3.88053235E-11
  -1.96000002E-02  -3.79360640E-11
  -1.95499994E-02  -3.56933129E-11
  -1.95000004E-02  -3.26106919E-11
  -1.94499996E-02  -2.95183392E-11
  -1.94000006E-02  -2.71812555E-11
  -1.93499997E-02  -2.59589763E-11
  -1.93000007E-02  -2.56389510E-11
  -1.92499999E-02  -2.55218815E-11
  -1.92000009E-02  -2.47262003E-11
  -1.91500001E-02  -2.25802658E-11
  -1.90999992E-02  -1.89289712E-11
  -1.90500002E-02  -1.42161985E-11
  -1.89999994E-02  -9.30174601E-12
  -1.89500004E-02  -5.08931612E-12
  -1.88999996E-02  -2.12797380E-12
  -1.88500006E-02  -3.64570570E-13
  -1.87999997E-02   8.39230215E-13
  -1.87500007E-02   2.42801482E-12
  -1.86999999E-02   5.23129933E-12
  -1.86500009E-02   9.58554503E-12
  -1.86000001E-02   1.51692634E-11
  -1.85499992E-02   2.11290343E-11
  -1.85000002E-02   2.64456877E-11
  -1.84499994E-02   3.03816347E-11
  -1.84000004E-02   3.28111219E-11
  -1.83499996E-02   3.42838639E-11
  -1.83000006E-02   3.57889378E-11
  -1.82499997E-02   3.83189140E-11
  -1.82000007E-02   4.24251884E-11
  -1.81499999E-02   4.79627241E-11
  -1.81000009E-02   5.41411221E-11
  -1.80500001E-02   5.98642247E-11
  -1.79999992E-02   6.42113931E-11
  -1.79500002E-02   6.68478051E-11
  -1.78999994E-02   6.81796217E-11
  -1.78500004E-02   6.91807028E-11
  -1.77999996E-02   7.09631381E-11
  -1.77500006E-02   7.42792564E-11
  -1.76999997E-02   7.91763391E-11
  -1.76500008E-02   8.49607260E-11
  -1.75999999E-02   9.04920652E-11
  -1.75500009E-02   9.46817069E-11
  -1.75000001E-02   9.69762812E-11
  -1.74499992E-02   9.76106002E-11
  -1.74000002E-02   9.75140316E-11
  -1.73499994E-02   9.79070991E-11
  -1.73000004E-02   9.97635585E-11
  -1.72499996E-02   1.03375898E-10
  -1.72000006E-02   1.08218524E-10
  -1.71499997E-02   1.13173887E-10
  -1.71000008E-02   1.17024820E-10
  -1.70499999E-02   1.18997256E-10
  -1.70000009E-02   1.19111970E-10
  -1.69500001E-02   1.18186336E-10
  -1.68999992E-02   1.17480664E-10
  -1.68500002E-02   1.18142107E-10
  -1.67999994E-02   1.20691346E-10
  -1.67500004E-02   1.24781047E-10
  -1.66999996E-02   1.29337041E-10
  -1.66500006E-02   1.33023578E-10
  -1.65999997E-02   1.34830341E-10
  -1.65500008E-02   1.34520478E-10
  -1.64999999E-02   1.32739417E-10
  -1.64500009E-02   1.30732897E-10
  -1.64000001E-02   1.29794273E-10
  -1.63499992E-02   1.30684449E-10
  -1.63000003E-02   1.33281955E-10
  -1.62499994E-02   1.36620146E-10
  -1.62000004E-02   1.39298933E-10
  -1.61499996E-02   1.40091855E-10
  -1.61000006E-02   1.38480089E-10
  -1.60499997E-02   1.34874903E-10
  -1.60000008E-02   1.30427322E-10
  -1.59499999E-02   1.26505306E-10
  -1.59000009E-02   1.24068200E-10
  -1.58500001E-02   1.23215507E-10
  -1.57999992E-02   1.23110411E-10
  -1.57500003E-02   1.22318433E-10
  -1.56999994E-02   1.19412785E-10
  -1.56500004E-02   1.13580957E-10
  -1.55999996E-02   1.04963857E-10
  -1.55499997E-02   9.45735434E-11
  -1.54999997E-02   8.38247596E-11
  -1.54499998E-02   7.38843639E-11
  -1.53999999E-02   6.51245724E-11
  -1.53500000E-02   5.69230357E-11
  -1.53000001E-02   4.79022239E-11
  -1.52500002E-02   3.65037583E-11
  -1.52000003E-02   2.16449948E-11
  -1.51500003E-02   3.16687800E-12
  -1.51000004E-02  -1.81259070E-11
  -1.50499996E-02  -4.08522348E-11
  -1.49999997E-02  -6.37032371E-11
  -1.49499997E-02  -8.60637880E-11
  -1.48999998E-02  -1.08332052E-10
  -1.48499999E-02  -1.31792646E-10
  -1.48000000E-02  -1.58097244E-10
  -1.47500001E-02  -1.88579014E-10
  -1.47000002E-02  -2.23703195E-10
  -1.46500003E-02  -2.62896982E-10
  -1.46000003E-02  -3.04836878E-10
  -1.45500004E-02  -3.48067547E-10
  -1.44999996E-02  -3.91681049E-10
  -1.44499997E-02  -4.35754044E-10
  -1.43999998E-02  -4.81351792E-10
  -1.43499998E-02  -5.30093192E-10
  -1.42999999E-02  -5.83467108E-10
  -1.42500000E-02  -6.42201792E-10
  -1.42000001E-02  -7.05968339E-10
  -1.41500002E-02  -7.73548281E-10
  -1.41000003E-02  -8.43393133E-10
  -1.40500003E-02  -9.14334664E-10
  -1.40000004E-02  -9.86124071E-10
  -1.39499996E-02  -1.05956866E-09
  -1.38999997E-02  -1.13620102E-09
  -1.38499998E-02  -1.21762267E-09
  -1.37999998E-02  -1.30481159E-09
  -1.37499999E-02  -1.39770095E-09
  -1.37000000E-02  -1.49521573E-09
  -1.36500001E-02  -1.59575131E-09
  -1.36000002E-02  -1.69788328E-09
  -1.35500003E-02  -1.80099957E-09
  -1.35000004E-02  -1.90557259E-09
  -1.34500004E-02  -2.01295114E-09
  -1.33999996E-02  -2.12476325E-09
  -1.33499997E-02  -2.24219576E-09
  -1.32999998E-02  -2.36546294E-09
  -1.32499998E-02  -2.49370613E-09
  -1.31999999E-02  -2.62536304E-09
  -1.31500000E-02  -2.75885181E-09
  -1.31000001E-02  -2.89326629E-09
  -1.30500002E-02  -3.02877190E-09
  -1.30000003E-02  -3.16653348E-09
  -1.29500004E-02  -3.30819883E-09
  -1.29000004E-02  -3.45516771E-09
  -1.28499996E-02  -3.60796992E-09
  -1.27999997E-02  -3.76602571E-09
  -1.27499998E-02  -3.92789756E-09
  -1.26999998E-02  -4.09191081E-09
  -1.26499999E-02  -4.25688640E-09
  -1.26000000E-02  -4.42265069E-09
  -1.25500001E-02  -4.59011185E-09
  -1.25000002E-02  -4.76084638E-09
  -1.24500003E-02  -4.93640773E-09
  -1.24000004E-02  -5.11763565E-09
  -1.23500004E-02  -5.30428013E-09
  -1.22999996E-02  -5.49512569E-09
  -1.22499997E-02  -5.68853276E-09
  -1.21999998E-02  -5.88317661E-09
  -1.21499998E-02  -6.07864781E-09
  -1.20999999E-02  -6.27565244E-09
  -1.20500000E-02  -6.47573106E-09
  -1.20000001E-02  -6.68061428E-09
  -1.19500002E-02  -6.89149671E-09
  -1.19000003E-02  -7.10854975E-09
  -1.18500004E-02  -7.33089056E-09
  -1.18000004E-02  -7.55702700E-09
  -1.17499996E-02  -7.78556775E-09
  -1.16999997E-02  -8.01590261E-09
  -1.16499998E-02  -8.24853696E-09
  -1.15999999E-02  -8.48493542E-09
  -1.15499999E-02  -8.72696226E-09
  -1.15000000E-02  -8.97614072E-09
  -1.14500001E-02  -9.23308718E-09
  -1.14000002E-02  -9.49733092E-09
  -1.13500003E-02  -9.76763737E-09
  -1.13000004E-02  -1.00426600E-08
  -1.12500004E-02  -1.03216538E-08
  -1.11999996E-02  -1.06049241E-08
  -1.11499997E-02  -1.08938307E-08
  -1.10999998E-02  -1.11903153E-08
  -1.10499999E-02  -1.14961898E-08
  -1.09999999E-02  -1.18124888E-08
  -1.09500000E-02  -1.21391803E-08
  -1.09000001E-02  -1.24753665E-08
  -1.08500002E-02  -1.28198403E-08
  -1.08000003E-02  -1.31718165E-08
  -1.07500004E-02  -1.35314515E-08
  -1.07000005E-02  -1.38999772E-08
  -1.06499996E-02  -1.42793528E-08
  -1.05999997E-02  -1.46716053E-08
  -1.05499998E-02  -1.50781343E-08
  -1.04999999E-02  -1.54993050E-08
  -1.04499999E-02  -1.59345035E-08
  -1.04000000E-02  -1.63826090E-08
  -1.03500001E-02  -1.68427068E-08
  -1.03000002E-02  -1.73147061E-08
  -1.02500003E-02  -1.77995858E-08
  -1.02000004E-02  -1.82991826E-08
  -1.01500005E-02  -1.88156069E-08
  -1.00999996E-02  -1.93505567E-08
  -1.00499997E-02  -1.99048209E-08
  -9.99999978E-03  -2.04781898E-08
  -9.94999986E-03  -2.10698019E-08
  -9.89999995E-03  -2.16788045E-08
  -9.85000003E-03  -2.23049916E-08
  -9.80000012E-03  -2.29491519E-08
  -9.75000020E-03  -2.36129711E-08
  -9.70000029E-03  -2.42985490E-08
  -9.65000037E-03  -2.50077221E-08
  -9.60000046E-03  -2.57415156E-08
  -9.54999961E-03  -2.64999276E-08
  -9.49999969E-03  -2.72822049E-08
  -9.44999978E-03  -2.80873635E-08
  -9.39999986E-03  -2.89148847E-08
  -9.34999995E-03  -2.97651646E-08
  -9.30000003E-03  -3.06395762E-08
  -9.25000012E-03  -3.15400790E-08
  -9.20000020E-03  -3.24685736E-08
  -9.15000029E-03  -3.34263248E-08
  -9.10000037E-03  -3.44136488E-08
  -9.05000046E-03  -3.54300340E-08
  -8.99999961E-03  -3.64746207E-08
  -8.94999970E-03  -3.75468368E-08
  -8.89999978E-03  -3.86468990E-08
  -8.84999987E-03  -3.97759656E-08
  -8.79999995E-03  -4.09358911E-08
  -8.75000004E-03  -4.21286614E-08
  -8.70000012E-03  -4.33557936E-08
  -8.65000021E-03  -4.46179342E-08
  -8.60000029E-03  -4.59148204E-08
  -8.55000038E-03  -4.72456883E-08
  -8.50000046E-03  -4.86098699E-08
  -8.44999962E-03  -5.00073476E-08
  -8.39999970E-03  -5.14390202E-08
  -8.34999979E-03  -5.29065325E-08
  -8.29999987E-03  -5.44118137E-08
  -8.24999996E-03  -5.59565443E-08
  -8.20000004E-03  -5.75416657E-08
  -8.15000013E-03  -5.91672311E-08
  -8.10000021E-03  -6.08327255E-08
  -8.05000030E-03  -6.25376586E-08
  -8.00000038E-03  -6.42819771E-08
  -7.95000046E-03  -6.60664981E-08
  -7.89999962E-03  -6.78928060E-08
  -7.84999970E-03  -6.97630185E-08
  -7.79999979E-03  -7.16791249E-08
  -7.74999987E-03  -7.36425321E-08
  -7.69999996E-03  -7.56538228E-08
  -7.65000004E-03  -7.77129046E-08
  -7.60000013E-03  -7.98195288E-08
  -7.55000021E-03  -8.19738091E-08
  -7.49999983E-03  -8.41765839E-08
  -7.44999992E-03  -8.64295018E-08
  -7.40000000E-03  -8.87347227E-08
  -7.35000009E-03  -9.10944919E-08
  -7.30000017E-03  -9.35106712E-08
  -7.24999979E-03  -9.59844044E-08
  -7.19999988E-03  -9.85161606E-08
  -7.14999996E-03  -1.01106039E-07
  -7.10000005E-03  -1.03754317E-07
  -7.05000013E-03  -1.06461925E-07
  -7.00000022E-03  -1.09230626E-07
  -6.94999984E-03  -1.12062757E-07
  -6.89999992E-03  -1.14960841E-07
  -6.85000001E-03  -1.17927257E-07
  -6.80000009E-03  -1.20963719E-07
  -6.75000018E-03  -1.24071434E-07
  -6.69999979E-03  -1.27251070E-07
  -6.64999988E-03  -1.30503409E-07
  -6.59999996E-03  -1.33829701E-07
  -6.55000005E-03  -1.37231936E-07
  -6.50000013E-03  -1.40712785E-07
  -6.45000022E-03  -1.44275262E-07
  -6.39999984E-03  -1.47922293E-07
  -6.34999992E-03  -1.51656280E-07
  -6.30000001E-03  -1.55479086E-07
  -6.25000009E-03  -1.59392101E-07
  -6.20000018E-03  -1.63396493E-07
  -6.14999980E-03  -1.67493710E-07
  -6.09999988E-03  -1.71685869E-07
  -6.04999997E-03  -1.75975785E-07
  -6.00000005E-03  -1.80366783E-07
  -5.95000014E-03  -1.84862131E-07
  -5.90000022E-03  -1.89464714E-07
  -5.84999984E-03  -1.94176906E-07
  -5.79999993E-03  -1.99000723E-07
  -5.75000001E-03  -2.03937844E-07
  -5.70000010E-03  -2.08990045E-07
  -5.65000018E-03  -2.14159684E-07
  -5.59999980E-03  -2.19449831E-07
  -5.54999989E-03  -2.24864053E-07
  -5.49999997E-03  -2.30406144E-07
  -5.45000006E-03  -2.36079742E-07
  -5.40000014E-03  -2.41887875E-07
  -5.35000023E-03  -2.47833043E-07
  -5.29999984E-03  -2.53917477E-07
  -5.24999993E-03  -2.60143452E-07
  -5.20000001E-03  -2.66513581E-07
  -5.15000010E-03  -2.73031020E-07
  -5.10000018E-03  -2.79699265E-07
  -5.04999980E-03  -2.86522351E-07
  -4.99999989E-03  -2.93504314E-07
  -4.94999997E-03  -3.00648793E-07
  -4.90000006E-03  -3.07958743E-07
  -4.85000014E-03  -3.15436665E-07
  -4.80000023E-03  -3.23084919E-07
  -4.74999985E-03  -3.30906119E-07
  -4.69999993E-03  -3.38903561E-07
  -4.65000002E-03  -3.47081027E-07
  -4.60000010E-03  -3.55442609E-07
  -4.55000019E-03  -3.63992626E-07
  -4.49999981E-03  -3.72735371E-07
  -4.44999989E-03  -3.81674568E-07
  -4.39999998E-03  -3.90813483E-07
  -4.35000006E-03  -4.00154988E-07
  -4.30000015E-03  -4.09701755E-07
  -4.25000023E-03  -4.19457280E-07
  -4.19999985E-03  -4.29425654E-07
  -4.14999994E-03  -4.39611370E-07
  -4.10000002E-03  -4.50019115E-07
  -4.05000011E-03  -4.60653666E-07
  -4.00000019E-03  -4.71519400E-07
  -3.94999981E-03  -4.82620010E-07
  -3.89999989E-03  -4.93958566E-07
  -3.84999998E-03  -5.05537855E-07
  -3.80000006E-03  -5.17361229E-07
  -3.74999992E-03  -5.29432498E-07
  -3.70000000E-03  -5.41756378E-07
  -3.65000009E-03  -5.54337817E-07
  -3.59999994E-03  -5.67182326E-07
  -3.55000002E-03  -5.80294738E-07
  -3.50000011E-03  -5.93679488E-07
  -3.44999996E-03  -6.07340098E-07
  -3.40000005E-03  -6.21279867E-07
  -3.34999990E-03  -6.35502488E-07
  -3.29999998E-03  -6.50012396E-07
  -3.25000007E-03  -6.64814593E-07
  -3.19999992E-03  -6.79914592E-07
  -3.15000000E-03  -6.95318420E-07
  -3.10000009E-03  -7.11031703E-07
  -3.04999994E-03  -7.27059501E-07
  -3.00000003E-03  -7.43406531E-07
  -2.95000011E-03  -7.60076148E-07
  -2.89999996E-03  -7.77071705E-07
  -2.85000005E-03  -7.94397408E-07
  -2.79999990E-03  -8.12058374E-07
  -2.74999999E-03  -8.30060742E-07
  -2.70000007E-03  -8.48411048E-07
  -2.64999992E-03  -8.67115773E-07
  -2.60000001E-03  -8.86180430E-07
  -2.55000009E-03  -9.05610250E-07
  -2.49999994E-03  -9.25409381E-07
  -2.45000003E-03  -9.45582144E-07
  -2.40000011E-03  -9.66132575E-07
  -2.34999997E-03  -9.87066073E-07
  -2.30000005E-03  -1.00838906E-06
  -2.24999990E-03  -1.03010905E-06
  -2.19999999E-03  -1.05223364E-06
  -2.15000007E-03  -1.07476910E-06
  -2.09999993E-03  -1.09772134E-06
  -2.05000001E-03  -1.12109512E-06
  -2.00000009E-03  -1.14489524E-06
  -1.94999995E-03  -1.16912577E-06
  -1.90000003E-03  -1.19379217E-06
  -1.85000000E-03  -1.21890071E-06
  -1.79999997E-03  -1.24445955E-06
  -1.75000005E-03  -1.27047690E-06
  -1.70000002E-03  -1.29696105E-06
  -1.64999999E-03  -1.32391870E-06
  -1.59999996E-03  -1.35135474E-06
  -1.55000004E-03  -1.37927339E-06
  -1.50000001E-03  -1.40767952E-06
  -1.44999998E-03  -1.43657894E-06
  -1.39999995E-03  -1.46597802E-06
  -1.35000004E-03  -1.49588459E-06
  -1.30000000E-03  -1.52630787E-06
  -1.24999997E-03  -1.55725661E-06
  -1.20000006E-03  -1.58873866E-06
  -1.15000003E-03  -1.62076014E-06
  -1.09999999E-03  -1.65332574E-06
  -1.04999996E-03  -1.68644010E-06
  -1.00000005E-03  -1.72010800E-06
  -9.50000016E-04  -1.75433661E-06
  -8.99999985E-04  -1.78913444E-06
  -8.50000011E-04  -1.82451151E-06
  -7.99999980E-04  -1.86047771E-06
  -7.50000007E-04  -1.89704292E-06
  -6.99999975E-04  -1.93421397E-06
  -6.50000002E-04  -1.97199597E-06
  -6.00000028E-04  -2.01039325E-06
  -5.49999997E-04  -2.04941125E-06
  -5.00000024E-04  -2.08905681E-06
  -4.49999992E-04  -2.12933787E-06
  -3.99999990E-04  -2.17026468E-06
  -3.49999988E-04  -2.21184905E-06
  -3.00000014E-04  -2.25410122E-06
  -2.50000012E-04  -2.29702937E-06
  -1.99999995E-04  -2.34063805E-06
  -1.50000007E-04  -2.38493135E-06
  -9.99999975E-05  -2.42991564E-06
  -4.99999987E-05  -2.47559660E-06
   0.00000000      -2.52198311E-06
   4.99999987E-05  -2.56908584E-06
   9.99999975E-05  -2.61691821E-06
   1.50000007E-04  -2.66549182E-06
   1.99999995E-04  -2.71481690E-06
   2.50000012E-04  -2.76489959E-06
   3.00000014E-04  -2.81574421E-06
   3.49999988E-04  -2.86735485E-06
   3.99999990E-04  -2.91973743E-06
   4.49999992E-04  -2.97290194E-06
   5.00000024E-04  -3.02685999E-06
   5.49999997E-04  -3.08162339E-06
   6.00000028E-04  -3.13720557E-06
   6.50000002E-04  -3.19361857E-06
   6.99999975E-04  -3.25087035E-06
   7.50000007E-04  -3.30896455E-06
   7.99999980E-04  -3.36790276E-06
   8.50000011E-04  -3.42768999E-06
   8.99999985E-04  -3.48833737E-06
   9.50000016E-04  -3.54985900E-06
   1.00000005E-03  -3.61226944E-06
   1.04999996E-03  -3.67558232E-06
   1.09999999E-03  -3.73980765E-06
   1.15000003E-03  -3.80495521E-06
   1.20000006E-03  -3.87103182E-06
   1.24999997E-03  -3.93804248E-06
   1.30000000E-03  -4.00599038E-06
   1.35000004E-03  -4.07488096E-06
   1.39999995E-03  -4.14472743E-06
   1.44999998E-03  -4.21554660E-06
   1.50000001E-03  -4.28735666E-06
   1.55000004E-03  -4.36017081E-06
   1.59999996E-03  -4.43399722E-06
   1.64999999E-03  -4.50883954E-06
   1.70000002E-03  -4.58470413E-06
   1.75000005E-03  -4.66159281E-06
   1.79999997E-03  -4.73951422E-06
   1.85000000E-03  -4.81847883E-06
   1.90000003E-03  -4.89850208E-06
   1.94999995E-03  -4.97960082E-06
   2.00000009E-03  -5.06179231E-06
   2.05000001E-03  -5.14508656E-06
   2.09999993E-03  -5.22948903E-06
   2.15000007E-03  -5.31500109E-06
   2.19999999E-03  -5.40162455E-06
   2.24999990E-03  -5.48936487E-06
   2.30000005E-03  -5.57823387E-06
   2.34999997E-03  -5.66824792E-06
   2.40000011E-03  -5.75942431E-06
   2.45000003E-03  -5.85177850E-06
   2.49999994E-03  -5.94532457E-06
   2.55000009E-03  -6.04006755E-06
   2.60000001E-03  -6.13600741E-06
   2.64999992E-03  -6.23314327E-06
   2.70000007E-03  -6.33148011E-06
   2.74999999E-03  -6.43102612E-06
   2.79999990E-03  -6.53179541E-06