  -3.99999991E-02   0.00000000    
  -3.99499983E-02   0.00000000    
  -3.99000011E-02   0.00000000    
  -3.98500003E-02   0.00000000    
  -3.97999994E-02   0.00000000    
  -3.97499986E-02   2.38434487E-23
  -3.97000015E-02   2.10811048E-22
  -3.96500006E-02   9.67948638E-22
  -3.95999998E-02   3.02826157E-21
  -3.95499989E-02   7.10939845E-21
  -3.95000018E-02   1.29115308E-20
  -3.94500010E-02   1.75865061E-20
  -3.94000001E-02   1.44708366E-20
  -3.93499993E-02  -6.60153339E-21
  -3.92999984E-02  -5.62760633E-20
  -3.92500013E-02  -1.40055882E-19
  -3.92000005E-02  -2.52188525E-19
  -3.91499996E-02  -3.72821753E-19
  -3.90999988E-02  -4.72051916E-19
  -3.90500017E-02  -5.21715375E-19
  -3.90000008E-02  -5.11084450E-19
  -3.89500000E-02  -4.58468112E-19
  -3.88999991E-02  -4.10140446E-19
  -3.88499983E-02  -4.22699943E-19
  -3.88000011E-02  -5.33608681E-19
  -3.87500003E-02  -7.33053921E-19
  -3.86999995E-02  -9.53256690E-19
  -3.86499986E-02  -1.08579139E-18
  -3.86000015E-02  -1.02444840E-18
  -3.85500006E-02  -7.16229378E-19
  -3.84999998E-02  -1.94087772E-19
  -3.84499989E-02   4.31441277E-19
  -3.84000018E-02   1.02735904E-18
  -3.83500010E-02   1.52105052E-18
  -3.83000001E-02   1.97194812E-18
  -3.82499993E-02   2.59041349E-18
  -3.81999984E-02   3.68210599E-18
  -3.81500013E-02   5.53186423E-18
  -3.81000005E-02   8.27578652E-18
  -3.80499996E-02   1.18245998E-17
  -3.79999988E-02   1.58848406E-17
  -3.79500017E-02   2.00812255E-17
  -3.79000008E-02   2.41327661E-17
  -3.78500000E-02   2.80016056E-17
  -3.77999991E-02   3.19366063E-17
  -3.77499983E-02   3.63767564E-17
  -3.77000012E-02   4.17458335E-17
  -3.76500003E-02   4.82284314E-17
  -3.75999995E-02   5.56364327E-17
  -3.75499986E-02   6.34400612E-17
  -3.75000015E-02   7.09609859E-17
  -3.74500006E-02   7.76439236E-17
  -3.73999998E-02   8.32791544E-17
  -3.73499990E-02   8.80664655E-17
  -3.73000018E-02   9.24842188E-17
  -3.72500010E-02   9.70198221E-17
  -3.72000001E-02   1.01884412E-16
  -3.71499993E-02   1.06841454E-16
  -3.70999984E-02   1.11223168E-16
  -3.70500013E-02   1.14117334E-16
  -3.70000005E-02   1.14627844E-16
  -3.69499996E-02   1.12086943E-16
  -3.68999988E-02   1.06138893E-16
  -3.68500017E-02   9.66965004E-17
  -3.68000008E-02   8.38432056E-17
  -3.67500000E-02   6.77668048E-17
  -3.66999991E-02   4.87579693E-17
  -3.66499983E-02   2.72265870E-17
  -3.66000012E-02   3.64330625E-18
  -3.65500003E-02  -2.16534196E-17
  -3.64999995E-02  -4.87380276E-17
  -3.64499986E-02  -7.83034777E-17
  -3.64000015E-02  -1.11586360E-16
  -3.63500006E-02  -1.49897383E-16
  -3.62999998E-02  -1.93852715E-16
  -3.62499990E-02  -2.42636346E-16
  -3.62000018E-02  -2.93737209E-16
  -3.61500010E-02  -3.43487451E-16
  -3.61000001E-02  -3.88367730E-16
  -3.60499993E-02  -4.26591230E-16
  -3.59999985E-02  -4.59165973E-16
  -3.59500013E-02  -4.89699764E-16
  -3.59000005E-02  -5.22712661E-16
  -3.58499996E-02  -5.60989392E-16
  -3.57999988E-02  -6.03170415E-16
  -3.57500017E-02  -6.42948776E-16
  -3.57000008E-02  -6.70702181E-16
  -3.56500000E-02  -6.77276957E-16
  -3.55999991E-02  -6.58418880E-16
  -3.55499983E-02  -6.17658013E-16
  -3.55000012E-02  -5.65777086E-16
  -3.54500003E-02  -5.16385060E-16
  -3.53999995E-02  -4.79066800E-16
  -3.53499986E-02  -4.53162627E-16
  -3.53000015E-02  -4.25546494E-16
  -3.52500007E-02  -3.74382660E-16
  -3.51999998E-02  -2.78155614E-16
  -3.51499990E-02  -1.26429421E-16
  -3.51000018E-02   7.27611559E-17
  -3.50500010E-02   2.93217713E-16
  -3.50000001E-02   4.99813602E-16
  -3.49499993E-02   6.63617703E-16
  -3.48999985E-02   7.76394476E-16
  -3.48500013E-02   8.57187072E-16
  -3.48000005E-02   9.46436499E-16
  -3.47499996E-02   1.08857043E-15
  -3.46999988E-02   1.30987991E-15
  -3.46500017E-02   1.60190373E-15
  -3.46000008E-02   1.91936755E-15
  -3.45500000E-02   2.19586092E-15
  -3.44999991E-02   2.37213377E-15
  -3.44499983E-02   2.42491663E-15
  -3.44000012E-02   2.38218466E-15
  -3.43500003E-02   2.31547743E-15
  -3.42999995E-02   2.30986584E-15
  -3.42499986E-02   2.42321536E-15
  -3.42000015E-02   2.65323118E-15
  -3.41500007E-02   2.92942724E-15
  -3.40999998E-02   3.13722496E-15
  -3.40499990E-02   3.16661849E-15
  -3.40000018E-02   2.96485460E-15
  -3.39500010E-02   2.56802284E-15
  -3.39000002E-02   2.09360371E-15
  -3.38499993E-02   1.69282637E-15
  -3.37999985E-02   1.48112478E-15
  -3.37500013E-02   1.47783289E-15
  -3.37000005E-02   1.58550369E-15
  -3.36499996E-02   1.62359021E-15
  -3.35999988E-02   1.40659435E-15
  -3.35500017E-02   8.34066779E-16
  -3.35000008E-02  -4.96632093E-17
  -3.34500000E-02  -1.05835359E-15
  -3.33999991E-02  -1.93506710E-15
  -3.33499983E-02  -2.46518140E-15
  -3.33000012E-02  -2.58155377E-15
  -3.32500003E-02  -2.41055942E-15
  -3.31999995E-02  -2.23060261E-15
  -3.31499986E-02  -2.35364600E-15
  -3.31000015E-02  -2.97832624E-15
  -3.30500007E-02  -4.08180646E-15
  -3.29999998E-02  -5.40589895E-15
  -3.29499990E-02  -6.55352737E-15
  -3.29000019E-02  -7.16055480E-15
  -3.28500010E-02  -7.06861827E-15
  -3.28000002E-02  -6.41685649E-15
  -3.27499993E-02  -5.60121543E-15
  -3.26999985E-02  -5.10812917E-15
  -3.26500013E-02  -5.28984146E-15
  -3.26000005E-02  -6.18265357E-15
  -3.25499997E-02  -7.45829535E-15
  -3.24999988E-02  -8.54367660E-15
  -3.24500017E-02  -8.86750746E-15
  -3.24000008E-02  -8.12844156E-15
  -3.23500000E-02  -6.45985866E-15
  -3.22999991E-02  -4.40440700E-15
  -3.22499983E-02  -2.69390337E-15
  -3.22000012E-02  -1.92184957E-15
  -3.21500003E-02  -2.25397373E-15
  -3.20999995E-02  -3.31643384E-15
  -3.20499986E-02  -4.32904817E-15
  -3.20000015E-02  -4.44081883E-15
  -3.19500007E-02  -3.12607462E-15
  -3.18999998E-02  -4.59541420E-16
  -3.18499990E-02   2.86884744E-15
  -3.18000019E-02   5.82715638E-15
  -3.17500010E-02   7.49697511E-15
  -3.17000002E-02   7.51154916E-15
  -3.16499993E-02   6.26944861E-15
  -3.15999985E-02   4.80613694E-15
  -3.15500014E-02   4.35736745E-15
  -3.15000005E-02   5.79532235E-15
  -3.14499997E-02   9.19167882E-15
  -3.13999988E-02   1.37210537E-14
  -3.13500017E-02   1.79748455E-14
  -3.13000008E-02   2.05686705E-14
  -3.12500000E-02   2.07811368E-14
  -3.11999992E-02   1.89286148E-14
  -3.11500002E-02   1.62830903E-14
  -3.10999993E-02   1.45399456E-14
  -3.10500003E-02   1.50526615E-14
  -3.09999995E-02   1.81746640E-14
  -3.09500005E-02   2.30215576E-14
  -3.08999997E-02   2.77920980E-14
  -3.08500007E-02   3.05357478E-14
  -3.07999998E-02   3.00396067E-14
  -3.07500008E-02   2.64310482E-14
  -3.07000000E-02   2.11984157E-14
  -3.06499992E-02   1.65833483E-14
  -3.06000002E-02   1.45866646E-14
  -3.05499993E-02   1.60239338E-14
  -3.05000003E-02   2.00706388E-14
  -3.04499995E-02   2.45369944E-14
  -3.04000005E-02   2.67894448E-14
  -3.03499997E-02   2.49318930E-14
  -3.03000007E-02   1.87168582E-14
  -3.02499998E-02   9.75055540E-15
  -3.02000009E-02   8.56683405E-16
  -3.01500000E-02  -5.15571252E-15
  -3.00999992E-02  -6.78596507E-15
  -3.00500002E-02  -4.60407765E-15
  -2.99999993E-02  -1.10024286E-15
  -2.99500003E-02   3.60264156E-16
  -2.98999995E-02  -2.95416971E-15
  -2.98500005E-02  -1.18374447E-14
  -2.97999997E-02  -2.46568530E-14
  -2.97500007E-02  -3.79481365E-14
  -2.96999998E-02  -4.78800112E-14
  -2.96500009E-02  -5.19627269E-14
  -2.96000000E-02  -5.02310257E-14
  -2.95499992E-02  -4.53324207E-14
  -2.95000002E-02  -4.14242852E-14
  -2.94499993E-02  -4.23239392E-14
  -2.94000003E-02  -4.97198921E-14
  -2.93499995E-02  -6.22652768E-14
  -2.93000005E-02  -7.60114899E-14
  -2.92499997E-02  -8.60498603E-14
  -2.92000007E-02  -8.86710410E-14
  -2.91499998E-02  -8.30824193E-14
  -2.91000009E-02  -7.18791617E-14
  -2.90500000E-02  -5.99957638E-14
  -2.89999992E-02  -5.25441439E-14
  -2.89500002E-02  -5.24718717E-14
  -2.88999993E-02  -5.90973668E-14
  -2.88500004E-02  -6.82300218E-14
  -2.87999995E-02  -7.38925387E-14
  -2.87500005E-02  -7.09361159E-14
  -2.86999997E-02  -5.74009224E-14
  -2.86500007E-02  -3.55401303E-14
  -2.85999998E-02  -1.09847620E-14
  -2.85500009E-02   9.65147202E-15
  -2.85000000E-02   2.17077231E-14
  -2.84499992E-02   2.46439239E-14
  -2.84000002E-02   2.24255327E-14
  -2.83499993E-02   2.18761048E-14
  -2.83000004E-02   2.96583809E-14
  -2.82499995E-02   4.91943454E-14
  -2.82000005E-02   7.89157558E-14
  -2.81499997E-02   1.12692170E-13
  -2.81000007E-02   1.42332625E-13
  -2.80499998E-02   1.61114977E-13
  -2.80000009E-02   1.66790545E-13
  -2.79500000E-02   1.62686013E-13
  -2.78999992E-02   1.56329553E-13
  -2.78500002E-02   1.56122809E-13
  -2.77999993E-02   1.67482930E-13
  -2.77500004E-02   1.90173926E-13
  -2.76999995E-02   2.18076452E-13
  -2.76500005E-02   2.41595426E-13
  -2.75999997E-02   2.51723989E-13
  -2.75500007E-02   2.43999645E-13
  -2.74999999E-02   2.20570117E-13
  -2.74500009E-02   1.89371183E-13
  -2.74000000E-02   1.60680375E-13
  -2.73499992E-02   1.42500310E-13
  -2.73000002E-02   1.36805132E-13
  -2.72499993E-02   1.38371600E-13
  -2.72000004E-02   1.36814713E-13
  -2.71499995E-02   1.21034259E-13
  -2.71000005E-02   8.41643310E-14
  -2.70499997E-02   2.68254504E-14
  -2.70000007E-02  -4.28397687E-14
  -2.69499999E-02  -1.12476753E-13
  -2.69000009E-02  -1.70810062E-13
  -2.68500000E-02  -2.12612534E-13
  -2.67999992E-02  -2.41117483E-13
  -2.67500002E-02  -2.66703787E-13
  -2.66999993E-02  -3.02316521E-13
  -2.66500004E-02  -3.57562531E-13
  -2.65999995E-02  -4.34081211E-13
  -2.65500005E-02  -5.24306455E-13
  -2.64999997E-02  -6.14290682E-13
  -2.64500007E-02  -6.89463731E-13
  -2.63999999E-02  -7.40847867E-13
  -2.63500009E-02  -7.68963940E-13
  -2.63000000E-02  -7.83604301E-13
  -2.62499992E-02  -7.99437556E-13
  -2.62000002E-02  -8.29275288E-13
  -2.61499994E-02  -8.77938510E-13
  -2.61000004E-02  -9.39490673E-13
  -2.60499995E-02  -9.99189121E-13
  -2.60000005E-02  -1.03944078E-12
  -2.59499997E-02  -1.04723532E-12
  -2.59000007E-02  -1.01978387E-12
  -2.58499999E-02  -9.65790056E-13
  -2.58000009E-02  -9.01648602E-13
  -2.57500000E-02  -8.44112540E-13
  -2.56999992E-02  -8.02596867E-13
  -2.56500002E-02  -7.74550779E-13
  -2.55999994E-02  -7.46065915E-13
  -2.55500004E-02  -6.97617149E-13
  -2.54999995E-02  -6.12532160E-13
  -2.54500005E-02  -4.84494335E-13
  -2.53999997E-02  -3.20697299E-13
  -2.53500007E-02  -1.39110877E-13
  -2.52999999E-02   3.91007586E-14
  -2.52500009E-02   1.98768356E-13
  -2.52000000E-02   3.37456029E-13
  -2.51499992E-02   4.66666907E-13
  -2.51000002E-02   6.06810446E-13
  -2.50499994E-02   7.77994477E-13
  -2.50000004E-02   9.90633031E-13
  -2.49499995E-02   1.24005591E-12
  -2.49000005E-02   1.50764590E-12
  -2.48499997E-02   1.76817935E-12
  -2.48000007E-02   2.00027126E-12
  -2.47499999E-02   2.19534222E-12
  -2.47000009E-02   2.36106729E-12
  -2.46500000E-02   2.51760808E-12
  -2.45999992E-02   2.68812576E-12
  -2.45500002E-02   2.88765778E-12
  -2.44999994E-02   3.11529600E-12
  -2.44500004E-02   3.35325691E-12
  -2.43999995E-02   3.57345598E-12
  -2.43500005E-02   3.74884845E-12
  -2.42999997E-02   3.86460612E-12
  -2.42500007E-02   3.92412882E-12
  -2.41999999E-02   3.94708485E-12
  -2.41500009E-02   3.96015122E-12
  -2.41000000E-02   3.98442477E-12
  -2.40499992E-02   4.02505199E-12
  -2.40000002E-02   4.06778257E-12
  -2.39499994E-02   4.08416486E-12
  -2.39000004E-02   4.04327179E-12
  -2.38499995E-02   3.92488342E-12
  -2.38000005E-02   3.72826119E-12
  -2.37499997E-02   3.47249985E-12
  -2.37000007E-02   3.18810364E-12
  -2.36499999E-02   2.90336570E-12
  -2.36000009E-02   2.63153301E-12
  -2.35500000E-02   2.36452524E-12
  -2.34999992E-02   2.07616650E-12
  -2.34500002E-02   1.73369966E-12
  -2.33999994E-02   1.31261321E-12
  -2.33500004E-02   8.08222358E-13
  -2.32999995E-02   2.38759885E-13
  -2.32500006E-02  -3.61567736E-13
  -2.31999997E-02  -9.56656304E-13
  -2.31500007E-02  -1.52353954E-12
  -2.30999999E-02  -2.06168719E-12
  -2.30500009E-02  -2.59229509E-12
  -2.30000000E-02  -3.14770801E-12
  -2.29499992E-02  -3.75554579E-12
  -2.29000002E-02  -4.42454710E-12
  -2.28499994E-02  -5.13850637E-12
  -2.28000004E-02  -5.86114881E-12
  -2.27499995E-02  -6.54995546E-12
  -2.27000006E-02  -7.17288208E-12
  -2.26499997E-02  -7.72054729E-12
  -2.26000007E-02  -8.20836368E-12
  -2.25499999E-02  -8.66753024E-12
  -2.25000009E-02  -9.12877413E-12
  -2.24500000E-02  -9.60603819E-12
  -2.23999992E-02  -1.00874361E-11
  -2.23500002E-02  -1.05376367E-11
  -2.22999994E-02  -1.09107532E-11
  -2.22500004E-02  -1.11681298E-11
  -2.21999995E-02  -1.12931001E-11
  -2.21500006E-02  -1.12961229E-11
  -2.20999997E-02  -1.12078975E-11
  -2.20500007E-02  -1.10634600E-11
  -2.19999999E-02  -1.08843273E-11
  -2.19500009E-02  -1.06667045E-11
  -2.19000001E-02  -1.03811109E-11
  -2.18499992E-02  -9.98371264E-12
  -2.18000002E-02  -9.43439771E-12
  -2.17499994E-02  -8.71354117E-12
  -2.17000004E-02  -7.82997885E-12
  -2.16499995E-02  -6.81657465E-12
  -2.16000006E-02  -5.71531884E-12
  -2.15499997E-02  -4.55862605E-12
  -2.15000007E-02  -3.35520479E-12
  -2.14499999E-02  -2.08688145E-12
  -2.14000009E-02  -7.17838170E-13
  -2.13500001E-02   7.87833665E-13
  -2.12999992E-02   2.44811246E-12
  -2.12500002E-02   4.25263644E-12
  -2.11999994E-02   6.16456105E-12
  -2.11500004E-02   8.13383041E-12
  -2.10999995E-02   1.01158864E-11
  -2.10500006E-02   1.20873927E-11
  -2.09999997E-02   1.40519115E-11
  -2.09500007E-02   1.60330343E-11
  -2.08999999E-02   1.80580863E-11
  -2.08500009E-02   2.01398221E-11
  -2.08000001E-02   2.22643414E-11
  -2.07499992E-02   2.43906752E-11
  -2.07000002E-02   2.64621467E-11
  -2.06499994E-02   2.84243375E-11
  -2.06000004E-02   3.02415315E-11
  -2.05499995E-02   3.19042605E-11
  -2.05000006E-02   3.34246901E-11
  -2.04499997E-02   3.48220446E-11
  -2.04000007E-02   3.61048864E-11
  -2.03499999E-02   3.72583041E-11
  -2.03000009E-02   3.82417951E-11
  -2.02500001E-02   3.89987313E-11
  -2.01999992E-02   3.94729874E-11
  -2.01500002E-02   3.96251053E-11
  -2.00999994E-02   3.94407389E-11
  -2.00500004E-02   3.89277048E-11
  -1.99999996E-02   3.81031977E-11
  -1.99500006E-02   3.69773101E-11
  -1.98999997E-02   3.55404317E-11
  -1.98500007E-02   3.37603764E-11
  -1.97999999E-02   3.15903623E-11
  -1.97500009E-02   2.89840669E-11
  -1.97000001E-02   2.59107510E-11
  -1.96499992E-02   2.23635416E-11
  -1.96000002E-02   1.83572862E-11
  -1.95499994E-02   1.39172987E-11
  -1.95000004E-02   9.06448614E-12
  -1.94499996E-02   3.80395455E-12
  -1.94000006E-02  -1.87758338E-12
  -1.93499997E-02  -8.00455362E-12
  -1.93000007E-02  -1.45989731E-11
  -1.92499999E-02  -2.16671125E-11
  -1.92000009E-02  -2.91926344E-11
  -1.91500001E-02  -3.71392465E-11
  -1.90999992E-02  -4.54613916E-11
  -1.90500002E-02  -5.41175646E-11
  -1.89999994E-02  -6.30798122E-11
  -1.89500004E-02  -7.23347701E-11
  -1.88999996E-02  -8.18758533E-11
  -1.88500006E-02  -9.16905232E-11
  -1.87999997E-02  -1.01748901E-10
  -1.87500007E-02  -1.11999361E-10
  -1.86999999E-02  -1.22373195E-10
  -1.86500009E-02  -1.32796052E-10
  -1.86000001E-02  -1.43200340E-10
  -1.85499992E-02  -1.53532506E-10
  -1.85000002E-02  -1.63751179E-10
  -1.84499994E-02  -1.73817252E-10
  -1.84000004E-02  -1.83680585E-10
  -1.83499996E-02  -1.93270094E-10
  -1.83000006E-02  -2.02492509E-10
  -1.82499997E-02  -2.11240594E-10
  -1.82000007E-02  -2.19407312E-10
  -1.81499999E-02  -2.26898778E-10
  -1.81000009E-02  -2.33639663E-10
  -1.80500001E-02  -2.39567727E-10
  -1.79999992E-02  -2.44619935E-10
  -1.79500002E-02  -2.48716631E-10
  -1.78999994E-02  -2.51751925E-10
  -1.78500004E-02  -2.53595339E-10
  -1.77999996E-02  -2.54104793E-10
  -1.77500006E-02  -2.53145394E-10
  -1.76999997E-02  -2.50604898E-10
  -1.76500008E-02  -2.46398152E-10
  -1.75999999E-02  -2.40457765E-10
  -1.75500009E-02  -2.32714542E-10
  -1.75000001E-02  -2.23076821E-10
  -1.74499992E-02  -2.11418993E-10
  -1.74000002E-02  -1.97585323E-10
  -1.73499994E-02  -1.81408513E-10
  -1.73000004E-02  -1.62735117E-10
  -1.72499996E-02  -1.41445938E-10
  -1.72000006E-02  -1.17461832E-10
  -1.71499997E-02  -9.07305342E-11
  -1.71000008E-02  -6.12002810E-11
  -1.70499999E-02  -2.87918214E-11
  -1.70000009E-02   6.61788723E-12
  -1.69500001E-02   4.51916525E-11
  -1.68999992E-02   8.71080222E-11
  -1.68500002E-02   1.32527406E-10
  -1.67999994E-02   1.81563695E-10
  -1.67500004E-02   2.34274655E-10
  -1.66999996E-02   2.90677316E-10
  -1.66500006E-02   3.50781987E-10
  -1.65999997E-02   4.14630469E-10
  -1.65500008E-02   4.82320572E-10
  -1.64999999E-02   5.54004898E-10
  -1.64500009E-02   6.29862662E-10
  -1.64000001E-02   7.10056014E-10
  -1.63499992E-02   7.94691035E-10
  -1.63000003E-02   8.83799423E-10
  -1.62499994E-02   9.77354420E-10
  -1.62000004E-02   1.07531073E-09
  -1.61499996E-02   1.17765553E-09
  -1.61000006E-02   1.28444511E-09
  -1.60499997E-02   1.39581091E-09
  -1.60000008E-02   1.51192947E-09
  -1.59499999E-02   1.63296898E-09
  -1.59000009E-02   1.75903614E-09
  -1.58500001E-02   1.89014671E-09
  -1.57999992E-02   2.02623540E-09
  -1.57500003E-02   2.16720286E-09
  -1.56999994E-02   2.31297825E-09
  -1.56500004E-02   2.46357268E-09
  -1.55999996E-02   2.61909650E-09
  -1.55499997E-02   2.77973267E-09
  -1.54999997E-02   2.94567326E-09
  -1.54499998E-02   3.11705128E-09
  -1.53999999E-02   3.29389427E-09
  -1.53500000E-02   3.47612450E-09
  -1.53000001E-02   3.66360697E-09
  -1.52500002E-02   3.85622601E-09
  -1.52000003E-02   4.05395584E-09
  -1.51500003E-02   4.25689795E-09
  -1.51000004E-02   4.46525661E-09
  -1.50499996E-02   4.67927519E-09
  -1.49999997E-02   4.89914953E-09
  -1.49499997E-02   5.12495912E-09
  -1.48999998E-02   5.35665290E-09
  -1.48499999E-02   5.59409230E-09
  -1.48000000E-02   5.83713966E-09
  -1.47500001E-02   6.08574924E-09
  -1.47000002E-02   6.34002761E-09
  -1.46500003E-02   6.60022437E-09
  -1.46000003E-02   6.86666590E-09
  -1.45500004E-02   7.13965331E-09
  -1.44999996E-02   7.41936823E-09
  -1.44499997E-02   7.70583686E-09
  -1.43999998E-02   7.99895794E-09
  -1.43499998E-02   8.29860625E-09
  -1.42999999E-02   8.60473737E-09
  -1.42500000E-02   8.91747565E-09
  -1.42000001E-02   9.23713461E-09
  -1.41500002E-02   9.56414858E-09
  -1.41000003E-02   9.89895810E-09
  -1.40500003E-02   1.02418944E-08
  -1.40000004E-02   1.05931051E-08
  -1.39499996E-02   1.09525748E-08
  -1.38999997E-02   1.13202159E-08
  -1.38499998E-02   1.16960051E-08
  -1.37999998E-02   1.20800943E-08
  -1.37499999E-02   1.24728636E-08
  -1.37000000E-02   1.28748674E-08
  -1.36500001E-02   1.32867140E-08
  -1.36000002E-02   1.37089184E-08
  -1.35500003E-02   1.41417971E-08
  -1.35000004E-02   1.45854582E-08
  -1.34500004E-02   1.50398840E-08
  -1.33999996E-02   1.55050834E-08
  -1.33499997E-02   1.59812430E-08
  -1.32999998E-02   1.64687997E-08
  -1.32499998E-02   1.69684284E-08
  -1.31999999E-02   1.74809092E-08
  -1.31500000E-02   1.80069613E-08
  -1.31000001E-02   1.85470963E-08
  -1.30500002E-02   1.91015790E-08
  -1.30000003E-02   1.96704875E-08
  -1.29500004E-02   2.02538661E-08
  -1.29000004E-02   2.08519229E-08
  -1.28499996E-02   2.14651390E-08
  -1.27999997E-02   2.20942820E-08
  -1.27499998E-02   2.27402985E-08
  -1.26999998E-02   2.34041160E-08
  -1.26499999E-02   2.40864768E-08
  -1.26000000E-02   2.47878216E-08
  -1.25500001E-02   2.55083457E-08
  -1.25000002E-02   2.62481485E-08
  -1.24500003E-02   2.70074416E-08
  -1.24000004E-02   2.77867187E-08
  -1.23500004E-02   2.85868165E-08
  -1.22999996E-02   2.94088238E-08
  -1.22499997E-02   3.02538830E-08
  -1.21999998E-02   3.11229655E-08
  -1.21499998E-02   3.20167359E-08
  -1.20999999E-02   3.29355316E-08
  -1.20500000E-02   3.38795196E-08
  -1.20000001E-02   3.48489095E-08
  -1.19500002E-02   3.58441987E-08
  -1.19000003E-02   3.68662576E-08
  -1.18500004E-02   3.79162728E-08
  -1.18000004E-02   3.89955943E-08
  -1.17499996E-02   4.01054372E-08
  -1.16999997E-02   4.12467038E-08
  -1.16499998E-02   4.24199129E-08
  -1.15999999E-02   4.36253309E-08
  -1.15499999E-02   4.48631887E-08
  -1.15000000E-02   4.61339695E-08
  -1.14500001E-02   4.74385686E-08
  -1.14000002E-02   4.87782863E-08
  -1.13500003E-02   5.01546715E-08
  -1.13000004E-02   5.15692200E-08
  -1.12500004E-02   5.30231183E-08
  -1.11999996E-02   5.45171410E-08
  -1.11499997E-02   5.60516966E-08
  -1.10999998E-02   5.76270835E-08
  -1.10499999E-02   5.92437708E-08
  -1.09999999E-02   6.09026571E-08
  -1.09500000E-02   6.26051317E-08
  -1.09000001E-02   6.43529106E-08
  -1.08500002E-02   6.61477628E-08
  -1.08000003E-02   6.79912162E-08
  -1.07500004E-02   6.98843721E-08
  -1.07000005E-02   7.18278699E-08
  -1.06499996E-02   7.38221644E-08
  -1.05999997E-02   7.58677814E-08
  -1.05499998E-02   7.79656801E-08
  -1.04999999E-02   8.01173599E-08
  -1.04499999E-02   8.23247532E-08
  -1.04000000E-02   8.45899848E-08
  -1.03500001E-02   8.69149872E-08
  -1.03000002E-02   8.93012668E-08
  -1.02500003E-02   9.17497900E-08
  -1.02000004E-02   9.42612175E-08
  -1.01500005E-02   9.68362031E-08
  -1.00999996E-02   9.94757556E-08
  -1.00499997E-02   1.02181467E-07
  -9.99999978E-03   1.04955475E-07
  -9.94999986E-03   1.07800226E-07
  -9.89999995E-03   1.10718098E-07
  -9.85000003E-03   1.13711089E-07
  -9.80000012E-03   1.16780598E-07
  -9.75000020E-03   1.19927620E-07
  -9.70000029E-03   1.23153001E-07
  -9.65000037E-03   1.26457920E-07
  -9.60000046E-03   1.29844111E-07
  -9.54999961E-03   1.33313961E-07
  -9.49999969E-03   1.36870298E-07
  -9.44999978E-03   1.40516065E-07
  -9.39999986E-03   1.44253804E-07
  -9.34999995E-03   1.48085519E-07
  -9.30000003E-03   1.52012689E-07
  -9.25000012E-03   1.56036478E-07
  -9.20000020E-03   1.60158280E-07
  -9.15000029E-03   1.64379969E-07
  -9.10000037E-03   1.68704119E-07
  -9.05000046E-03   1.73133955E-07
  -8.99999961E-03   1.77672860E-07
  -8.94999970E-03   1.82324044E-07
  -8.89999978E-03   1.87090066E-07
  -8.84999987E-03   1.91972930E-07
  -8.79999995E-03   1.96974185E-07
  -8.75000004E-03   2.02095464E-07
  -8.70000012E-03   2.07338829E-07
  -8.65000021E-03   2.12707121E-07
  -8.60000029E-03   2.18203880E-07
  -8.55000038E-03   2.23833069E-07
  -8.50000046E-03   2.29598555E-07
  -8.44999962E-03   2.35503720E-07
  -8.39999970E-03   2.41551220E-07
  -8.34999979E-03   2.47743202E-07
  -8.29999987E-03   2.54081641E-07
  -8.24999996E-03   2.60568868E-07
  -8.20000004E-03   2.67208009E-07
  -8.15000013E-03   2.74002957E-07
  -8.10000021E-03   2.80958233E-07
  -8.05000030E-03   2.88078382E-07
  -8.00000038E-03   2.95367528E-07
  -7.95000046E-03   3.02829051E-07
  -7.89999962E-03   3.10465623E-07
  -7.84999970E-03   3.18279660E-07
  -7.79999979E-03   3.26273778E-07
  -7.74999987E-03   3.34451244E-07
  -7.69999996E-03   3.42816236E-07
  -7.65000004E-03   3.51373671E-07
  -7.60000013E-03   3.60128723E-07
  -7.55000021E-03   3.69086280E-07
  -7.49999983E-03   3.78250633E-07
  -7.44999992E-03   3.87625164E-07
  -7.40000000E-03   3.97212830E-07
  -7.35000009E-03   4.07016728E-07
  -7.30000017E-03   4.17040468E-07
  -7.24999979E-03   4.27288455E-07
  -7.19999988E-03   4.37766204E-07
  -7.14999996E-03   4.48479483E-07
  -7.10000005E-03   4.59434091E-07
  -7.05000013E-03   4.70635229E-07
  -7.00000022E-03   4.82087216E-07
  -6.94999984E-03   4.93793664E-07
  -6.89999992E-03   5.05758067E-07
  -6.85000001E-03   5.17984347E-07
  -6.80000009E-03   5.30477109E-07
  -6.75000018E-03   5.43242265E-07
  -6.69999979E-03   5.56286295E-07
  -6.64999988E-03   5.69615679E-07
  -6.59999996E-03   5.83236499E-07
  -6.55000005E-03   5.97154042E-07
  -6.50000013E-03   6.11372798E-07
  -6.45000022E-03   6.25896746E-07
  -6.39999984E-03   6.40730150E-07
  -6.34999992E-03   6.55878011E-07
  -6.30000001E-03   6.71346697E-07
  -6.25000009E-03   6.87143199E-07
  -6.20000018E-03   7.03274964E-07
  -6.14999980E-03   7.19749210E-07
  -6.09999988E-03   7.36572190E-07
  -6.04999997E-03   7.53749475E-07
  -6.00000005E-03   7.71285727E-07
  -5.95000014E-03   7.89185776E-07
  -5.90000022E-03   8.07455251E-07
  -5.84999984E-03   8.26100631E-07
  -5.79999993E-03   8.45129762E-07
  -5.75000001E-03   8.64550714E-07
  -5.70000010E-03   8.84371786E-07
  -5.65000018E-03   9.04600427E-07
  -5.59999980E-03   9.25243057E-07
  -5.54999989E-03   9.46305533E-07
  -5.49999997E-03   9.67792971E-07
  -5.45000006E-03   9.89711680E-07
  -5.40000014E-03   1.01206842E-06
  -5.35000023E-03   1.03487150E-06
  -5.29999984E-03   1.05813001E-06
  -5.24999993E-03   1.08185304E-06
  -5.20000001E-03   1.10604924E-06
  -5.15000010E-03   1.13072633E-06
  -5.10000018E-03   1.15589114E-06
  -5.04999980E-03   1.18154992E-06
  -4.99999989E-03   1.20770926E-06
  -4.94999997E-03   1.23437667E-06
  -4.90000006E-03   1.26156090E-06
  -4.85000014E-03   1.28927172E-06
  -4.80000023E-03   1.31751926E-06
  -4.74999985E-03   1.34631352E-06
  -4.69999993E-03   1.37566349E-06
  -4.65000002E-03   1.40557711E-06
  -4.60000010E-03   1.43606144E-06
  -4.55000019E-03   1.46712387E-06
  -4.49999981E-03   1.49877212E-06
  -4.44999989E-03   1.53101530E-06
  -4.39999998E-03   1.56386409E-06
  -4.35000006E-03   1.59732940E-06
  -4.30000015E-03   1.63142238E-06
  -4.25000023E-03   1.66615303E-06
  -4.19999985E-03   1.70153055E-06
  -4.14999994E-03   1.73756303E-06
  -4.10000002E-03   1.77425829E-06
  -4.05000011E-03   1.81162488E-06
  -4.00000019E-03   1.84967223E-06
  -3.94999981E-03   1.88841159E-06
  -3.89999989E-03   1.92785478E-06
  -3.84999998E-03   1.96801352E-06
  -3.80000006E-03   2.00889963E-06
  -3.74999992E-03   2.05052356E-06
  -3.70000000E-03   2.09289374E-06
  -3.65000009E-03   2.13601925E-06
  -3.59999994E-03   2.17990942E-06
  -3.55000002E-03   2.22457379E-06
  -3.50000011E-03   2.27002397E-06
  -3.44999996E-03   2.31627246E-06
  -3.40000005E-03   2.36333153E-06
  -3.34999990E-03   2.41121393E-06
  -3.29999998E-03   2.45993124E-06
  -3.25000007E-03   2.50949324E-06
  -3.19999992E-03   2.55990926E-06
  -3.15000000E-03   2.61118907E-06
  -3.10000009E-03   2.66334268E-06
  -3.04999994E-03   2.71638146E-06
  -3.00000003E-03   2.77031768E-06
  -2.95000011E-03   2.82516544E-06
  -2.89999996E-03   2.88093770E-06
  -2.85000005E-03   2.93764720E-06
  -2.79999990E-03   2.99530461E-06
  -2.74999999E-03   3.05392064E-06
  -2.70000007E-03   3.11350504E-06
  -2.64999992E-03   3.17406784E-06
  -2.60000001E-03   3.23561994E-06
  -2.55000009E-03   3.29817431E-06
  -2.49999994E-03   3.36174458E-06
  -2.45000003E-03   3.42634485E-06
  -2.40000011E-03   3.49198876E-06
  -2.34999997E-03   3.55868792E-06
  -2.30000005E-03   3.62645346E-06
  -2.24999990E-03   3.69529494E-06
  -2.19999999E-03   3.76522235E-06
  -2.15000007E-03   3.83624683E-06
  -2.09999993E-03   3.90838068E-06
  -2.05000001E-03   3.98163820E-06
  -2.00000009E-03   4.05603259E-06
  -1.94999995E-03   4.13157886E-06
  -1.90000003E-03   4.20828837E-06
  -1.85000000E-03   4.28617295E-06
  -1.79999997E-03   4.36524215E-06
  -1.75000005E-03   4.44550551E-06
  -1.70000002E-03   4.52697395E-06
  -1.64999999E-03   4.60965884E-06
  -1.59999996E-03   4.69357474E-06
  -1.55000004E-03   4.77873436E-06
  -1.50000001E-03   4.86515273E-06
  -1.44999998E-03   4.95284257E-06
  -1.39999995E-03   5.04181480E-06
  -1.35000004E-03   5.13207897E-06
  -1.30000000E-03   5.22364508E-06
  -1.24999997E-03   5.31652222E-06
  -1.20000006E-03   5.41072177E-06
  -1.15000003E-03   5.50625555E-06
  -1.09999999E-03   5.60313811E-06
  -1.04999996E-03   5.70138263E-06
  -1.00000005E-03   5.80100095E-06
  -9.50000016E-04   5.90200443E-06
  -8.99999985E-04   6.00440308E-06
  -8.50000011E-04   6.10820507E-06
  -7.99999980E-04   6.21341860E-06
  -7.50000007E-04   6.32005276E-06
  -6.99999975E-04   6.42811938E-06
  -6.50000002E-04   6.53763027E-06
  -6.00000028E-04   6.64859954E-06
  -5.49999997E-04   6.76103809E-06
  -5.00000024E-04   6.87495594E-06
  -4.49999992E-04   6.99036218E-06
  -3.99999990E-04   7.10726454E-06
  -3.49999988E-04   7.22566983E-06
  -3.00000014E-04   7.34558489E-06
  -2.50000012E-04   7.46701926E-06
  -1.99999995E-04   7.58998476E-06
  -1.50000007E-04   7.71449231E-06
  -9.99999975E-05   7.84055192E-06
  -4.99999987E-05   7.96817221E-06
   0.00000000       8.09736139E-06
   4.99999987E-05   8.22812399E-06
   9.99999975E-05   8.36046638E-06
   1.50000007E-04   8.49439311E-06
   1.99999995E-04   8.62991146E-06
   2.50000012E-04   8.76702961E-06
   3.00000014E-04   8.90575666E-06
   3.49999988E-04   9.04610170E-06
   3.99999990E-04   9.18807200E-06
   4.49999992E-04   9.33167030E-06
   5.00000024E-04   9.47690114E-06
   5.49999997E-04   9.62376726E-06
   6.00000028E-04   9.77227046E-06
   6.50000002E-04   9.92241530E-06
   6.99999975E-04   1.00742081E-05
   7.50000007E-04   1.02276545E-05
   7.99999980E-04   1.03827615E-05
   8.50000011E-04   1.05395311E-05
   8.99999985E-04   1.06979660E-05
   9.50000016E-04   1.08580662E-05
   1.00000005E-03   1.10198316E-05
   1.04999996E-03   1.11832596E-05
   1.09999999E-03   1.13483538E-05
   1.15000003E-03   1.15151142E-05
   1.20000006E-03   1.16835454E-05
   1.24999997E-03   1.18536464E-05
   1.30000000E-03   1.20254199E-05
   1.35000004E-03   1.21988642E-05
   1.39999995E-03   1.23739756E-05
   1.44999998E-03   1.25507495E-05
   1.50000001E-03   1.27291796E-05
   1.55000004E-03   1.29092632E-05
   1.59999996E-03   1.30909984E-05
   1.64999999E-03   1.32743826E-05
   1.70000002E-03   1.34594138E-05
   1.75000005E-03   1.36460867E-05
   1.79999997E-03   1.38343948E-05
   1.85000000E-03   1.40243319E-05
   1.90000003E-03   1.42158869E-05
   1.94999995E-03   1.44090518E-05
   2.00000009E-03   1.46038183E-05
   2.05000001E-03   1.48001800E-05
   2.09999993E-03   1.49981297E-05
   2.15000007E-03   1.51976546E-05
   2.19999999E-03   1.53987476E-05
   2.24999990E-03   1.56013939E-05
   2.30000005E-03   1.58055864E-05
   2.34999997E-03   1.60113104E-05
   2.40000011E-03   1.62185497E-05
   2.45000003E-03   1.64272878E-05
   2.49999994E-03   1.66375121E-05
   2.55000009E-03   1.68492115E-05
   2.60000001E-03   1.70623643E-05
   2.64999992E-03   1.72769596E-05
   2.70000007E-03   1.74929810E-05
   2.74999999E-03   1.77104048E-05
   2.79999990E-03   1.79292147E-05