  -3.99999991E-02   0.00000000    
  -3.99499983E-02   0.00000000    
  -3.99000011E-02   0.00000000    
  -3.98500003E-02   0.00000000    
  -3.97999994E-02   3.01402333E-19
  -3.97499986E-02   2.53755644E-18
  -3.97000015E-02   1.12547542E-17
  -3.96500006E-02   3.49386499E-17
  -3.95999998E-02   8.58949642E-17
  -3.95499989E-02   1.80535464E-16
  -3.95000018E-02   3.41954798E-16
  -3.94500010E-02   6.02404538E-16
  -3.94000001E-02   9.98637763E-16
  -3.93499993E-02   1.55690405E-15
  -3.92999984E-02   2.27736349E-15
  -3.92500013E-02   3.13613419E-15
  -3.92000005E-02   4.11239239E-15
  -3.91499996E-02   5.22352471E-15
  -3.90999988E-02   6.53900372E-15
  -3.90500017E-02   8.16084142E-15
  -3.90000008E-02   1.01890737E-14
  -3.89500000E-02   1.27000139E-14
  -3.88999991E-02   1.57422378E-14
  -3.88499983E-02   1.93311333E-14
  -3.88000011E-02   2.34328090E-14
  -3.87500003E-02   2.79621585E-14
  -3.86999995E-02   3.28274869E-14
  -3.86499986E-02   3.80087265E-14
  -3.86000015E-02   4.36015156E-14
  -3.85500006E-02   4.97674547E-14
  -3.84999998E-02   5.66117316E-14
  -3.84499989E-02   6.40835516E-14
  -3.84000018E-02   7.19765230E-14
  -3.83500010E-02   8.00089704E-14
  -3.83000001E-02   8.78958026E-14
  -3.82499993E-02   9.53604735E-14
  -3.81999984E-02   1.02126668E-13
  -3.81500013E-02   1.07955684E-13
  -3.81000005E-02   1.12717398E-13
  -3.80499996E-02   1.16401788E-13
  -3.79999988E-02   1.19013279E-13
  -3.79500017E-02   1.20421278E-13
  -3.79000008E-02   1.20309727E-13
  -3.78500000E-02   1.18274273E-13
  -3.77999991E-02   1.13950895E-13
  -3.77499983E-02   1.07019679E-13
  -3.77000012E-02   9.70770366E-14
  -3.76500003E-02   8.35409080E-14
  -3.75999995E-02   6.57363703E-14
  -3.75499986E-02   4.31060420E-14
  -3.75000015E-02   1.53324026E-14
  -3.74500006E-02  -1.77630636E-14
  -3.73999998E-02  -5.64435753E-14
  -3.73499990E-02  -1.01183622E-13
  -3.73000018E-02  -1.52600344E-13
  -3.72500010E-02  -2.11297776E-13
  -3.72000001E-02  -2.77758095E-13
  -3.71499993E-02  -3.52249588E-13
  -3.70999984E-02  -4.34614747E-13
  -3.70500013E-02  -5.23961245E-13
  -3.70000005E-02  -6.18555337E-13
  -3.69499996E-02  -7.16238917E-13
  -3.68999988E-02  -8.15325455E-13
  -3.68500017E-02  -9.15464753E-13
  -3.68000008E-02  -1.01788131E-12
  -3.67500000E-02  -1.12478690E-12
  -3.66999991E-02  -1.23829571E-12
  -3.66499983E-02  -1.35937225E-12
  -3.66000012E-02  -1.48717085E-12
  -3.65500003E-02  -1.61889350E-12
  -3.64999995E-02  -1.75023667E-12
  -3.64499986E-02  -1.87648248E-12
  -3.64000015E-02  -1.99399503E-12
  -3.63500006E-02  -2.10142299E-12
  -3.62999998E-02  -2.19973649E-12
  -3.62499990E-02  -2.29077824E-12
  -3.62000018E-02  -2.37501056E-12
  -3.61500010E-02  -2.44979861E-12
  -3.61000001E-02  -2.50932695E-12
  -3.60499993E-02  -2.54624924E-12
  -3.59999985E-02  -2.55423308E-12
  -3.59500013E-02  -2.53023882E-12
  -3.59000005E-02  -2.47560479E-12
  -3.58499996E-02  -2.39542153E-12
  -3.57999988E-02  -2.29611577E-12
  -3.57500017E-02  -2.18184346E-12
  -3.57000008E-02  -2.05113899E-12
  -3.56500000E-02  -1.89573097E-12
  -3.55999991E-02  -1.70275783E-12
  -3.55499983E-02  -1.45983020E-12
  -3.55000012E-02  -1.16056633E-12
  -3.54500003E-02  -8.07689907E-13
  -3.53999995E-02  -4.11975928E-13
  -3.53499986E-02   1.25556778E-14
  -3.53000015E-02   4.55074238E-13
  -3.52500007E-02   9.13249185E-13
  -3.51999998E-02   1.39514322E-12
  -3.51499990E-02   1.91648802E-12
  -3.51000018E-02   2.49383630E-12
  -3.50500010E-02   3.13601922E-12
  -3.50000001E-02   3.83781331E-12
  -3.49499993E-02   4.57943362E-12
  -3.48999985E-02   5.33296974E-12
  -3.48500013E-02   6.07322612E-12
  -3.48000005E-02   6.78777867E-12
  -3.47499996E-02   7.48121530E-12
  -3.46999988E-02   8.17135075E-12
  -3.46500017E-02   8.87900257E-12
  -3.46000008E-02   9.61579861E-12
  -3.45500000E-02   1.03752770E-11
  -3.44999991E-02   1.11314326E-11
  -3.44499983E-02   1.18461109E-11
  -3.44000012E-02   1.24828784E-11
  -3.43500003E-02   1.30215595E-11
  -3.42999995E-02   1.34662316E-11
  -3.42499986E-02   1.38417697E-11
  -3.42000015E-02   1.41795074E-11
  -3.41500007E-02   1.44983582E-11
  -3.40999998E-02   1.47906062E-11
  -3.40499990E-02   1.50195741E-11
  -3.40000018E-02   1.51308133E-11
  -3.39500010E-02   1.50722056E-11
  -3.39000002E-02   1.48144049E-11
  -3.38499993E-02   1.43625068E-11
  -3.37999985E-02   1.37530855E-11
  -3.37500013E-02   1.30365848E-11
  -3.37000005E-02   1.22517708E-11
  -3.36499996E-02   1.14036888E-11
  -3.35999988E-02   1.04563502E-11
  -3.35500017E-02   9.34526588E-12
  -3.35000008E-02   8.00528480E-12
  -3.34500000E-02   6.40113093E-12
  -3.33999991E-02   4.54604540E-12
  -3.33499983E-02   2.49924083E-12
  -3.33000012E-02   3.42562052E-13
  -3.32500003E-02  -1.85389009E-12
  -3.31999995E-02  -4.06233337E-12
  -3.31499986E-02  -6.31021060E-12
  -3.31000015E-02  -8.66837765E-12
  -3.30500007E-02  -1.12179476E-11
  -3.29999998E-02  -1.40093276E-11
  -3.29499990E-02  -1.70321621E-11
  -3.29000019E-02  -2.02113500E-11
  -3.28500010E-02  -2.34327002E-11
  -3.28000002E-02  -2.65872272E-11
  -3.27499993E-02  -2.96136414E-11
  -3.26999985E-02  -3.25189042E-11
  -3.26500013E-02  -3.53667928E-11
  -3.26000005E-02  -3.82391896E-11
  -3.25499997E-02  -4.11869150E-11
  -3.24999988E-02  -4.41921118E-11
  -3.24500017E-02  -4.71601022E-11
  -3.24000008E-02  -4.99465365E-11
  -3.23500000E-02  -5.24100242E-11
  -3.22999991E-02  -5.44672883E-11
  -3.22499983E-02  -5.61246986E-11
  -3.22000012E-02  -5.74693418E-11
  -3.21500003E-02  -5.86215729E-11
  -3.20999995E-02  -5.96699981E-11
  -3.20499986E-02  -6.06189127E-11
  -3.20000015E-02  -6.13731635E-11
  -3.19500007E-02  -6.17682502E-11
  -3.18999998E-02  -6.16333998E-11
  -3.18499990E-02  -6.08606360E-11
  -3.18000019E-02  -5.94490429E-11
  -3.17500010E-02  -5.75031446E-11
  -3.17000002E-02  -5.51833822E-11
  -3.16499993E-02  -5.26287278E-11
  -3.15999985E-02  -4.98860224E-11
  -3.15500014E-02  -4.68799929E-11
  -3.15000005E-02  -4.34403728E-11
  -3.14499997E-02  -3.93757145E-11
  -3.13999988E-02  -3.45608195E-11
  -3.13500017E-02  -2.89977677E-11
  -3.13000008E-02  -2.28223482E-11
  -3.12500000E-02  -1.62520778E-11
  -3.11999992E-02  -9.49780705E-12
  -3.11500002E-02  -2.67710225E-12
  -3.10999993E-02   4.23198195E-12
  -3.10500003E-02   1.13740406E-11
  -3.09999995E-02   1.89411178E-11
  -3.09500005E-02   2.70710693E-11
  -3.08999997E-02   3.57660707E-11
  -3.08500007E-02   4.48704685E-11
  -3.07999998E-02   5.41204061E-11
  -3.07500008E-02   6.32436326E-11
  -3.07000000E-02   7.20640214E-11
  -3.06499992E-02   8.05629244E-11
  -3.06000002E-02   8.88691273E-11
  -3.05499993E-02   9.71808398E-11
  -3.05000003E-02   1.05653278E-10
  -3.04499995E-02   1.14301020E-10
  -3.04000005E-02   1.22959712E-10
  -3.03499997E-02   1.31327574E-10
  -3.03000007E-02   1.39071865E-10
  -3.02499998E-02   1.45953735E-10
  -3.02000009E-02   1.51914162E-10
  -3.01500000E-02   1.57079239E-10
  -3.00999992E-02   1.61680766E-10
  -3.00500002E-02   1.65927494E-10
  -2.99999993E-02   1.69885203E-10
  -2.99500003E-02   1.73420098E-10
  -2.98999995E-02   1.76231474E-10
  -2.98500005E-02   1.77960813E-10
  -2.97999997E-02   1.78331697E-10
  -2.97500007E-02   1.77259124E-10
  -2.96999998E-02   1.74878667E-10
  -2.96500009E-02   1.71478540E-10
  -2.96000000E-02   1.67361319E-10
  -2.95499992E-02   1.62696981E-10
  -2.95000002E-02   1.57434218E-10
  -2.94499993E-02   1.51312143E-10
  -2.94000003E-02   1.43968185E-10
  -2.93499995E-02   1.35093672E-10
  -2.93000005E-02   1.24568564E-10
  -2.92499997E-02   1.12515948E-10
  -2.92000007E-02   9.92528074E-11
  -2.91499998E-02   8.51574575E-11
  -2.91000009E-02   7.05101602E-11
  -2.90500000E-02   5.53775047E-11
  -2.89999992E-02   3.95939531E-11
  -2.89500002E-02   2.28524231E-11
  -2.88999993E-02   4.86540712E-12
  -2.88500004E-02  -1.44763038E-11
  -2.87999995E-02  -3.50209653E-11
  -2.87500005E-02  -5.63880574E-11
  -2.86999997E-02  -7.81014281E-11
  -2.86500007E-02  -9.97643287E-11
  -2.85999998E-02  -1.21199287E-10
  -2.85500009E-02  -1.42491546E-10
  -2.85000000E-02  -1.63915936E-10
  -2.84499992E-02  -1.85775825E-10
  -2.84000002E-02  -2.08223036E-10
  -2.83499993E-02  -2.31138331E-10
  -2.83000004E-02  -2.54128524E-10
  -2.82499995E-02  -2.76645873E-10
  -2.82000005E-02  -2.98178648E-10
  -2.81499997E-02  -3.18427257E-10
  -2.81000007E-02  -3.37386202E-10
  -2.80499998E-02  -3.55294599E-10
  -2.80000009E-02  -3.72477438E-10
  -2.79500000E-02  -3.89146881E-10
  -2.78999992E-02  -4.05250278E-10
  -2.78500002E-02  -4.20430746E-10
  -2.77999993E-02  -4.34121294E-10
  -2.77500004E-02  -4.45736198E-10
  -2.76999995E-02  -4.54878579E-10
  -2.76500005E-02  -4.61472971E-10
  -2.75999997E-02  -4.65760597E-10
  -2.75500007E-02  -4.68156902E-10
  -2.74999999E-02  -4.69032202E-10
  -2.74500009E-02  -4.68513783E-10
  -2.74000000E-02  -4.66396977E-10
  -2.73499992E-02  -4.62205441E-10
  -2.73000002E-02  -4.55373378E-10
  -2.72499993E-02  -4.45471354E-10
  -2.72000004E-02  -4.32380048E-10
  -2.71499995E-02  -4.16335882E-10
  -2.71000005E-02  -3.97825439E-10
  -2.70499997E-02  -3.77370024E-10
  -2.70000007E-02  -3.55293489E-10
  -2.69499999E-02  -3.31578154E-10
  -2.69000009E-02  -3.05877046E-10
  -2.68500000E-02  -2.77680490E-10
  -2.67999992E-02  -2.46563853E-10
  -2.67500002E-02  -2.12405871E-10
  -2.66999993E-02  -1.75479908E-10
  -2.66500004E-02  -1.36377826E-10
  -2.65999995E-02  -9.57976753E-11
  -2.65500005E-02  -5.42850001E-11
  -2.64999997E-02  -1.20393912E-11
  -2.64500007E-02   3.11269066E-11
  -2.63999999E-02   7.56531365E-11
  -2.63500009E-02   1.21970753E-10
  -2.63000000E-02   1.70233092E-10
  -2.62499992E-02   2.20157934E-10
  -2.62000002E-02   2.71059175E-10
  -2.61499994E-02   3.22058130E-10
  -2.61000004E-02   3.72383235E-10
  -2.60499995E-02   4.21626623E-10
  -2.60000005E-02   4.69844053E-10
  -2.59499997E-02   5.17453413E-10
  -2.59000007E-02   5.64970959E-10
  -2.58499999E-02   6.12695228E-10
  -2.58000009E-02   6.60476451E-10
  -2.57500000E-02   7.07675418E-10
  -2.56999992E-02   7.53339779E-10
  -2.56500002E-02   7.96526123E-10
  -2.55999994E-02   8.36627156E-10
  -2.55500004E-02   8.73555228E-10
  -2.54999995E-02   9.07697029E-10
  -2.54500005E-02   9.39656353E-10
  -2.53999997E-02   9.69899716E-10
  -2.53500007E-02   9.98459204E-10
  -2.52999999E-02   1.02482867E-09
  -2.52500009E-02   1.04809927E-09
  -2.52000000E-02   1.06728293E-09
  -2.51499992E-02   1.08168374E-09
  -2.51000002E-02   1.09115672E-09
  -2.50499994E-02   1.09612985E-09
  -2.50000004E-02   1.09737064E-09
  -2.49499995E-02   1.09559650E-09
  -2.49000005E-02   1.09110010E-09
  -2.48499997E-02   1.08356657E-09
  -2.48000007E-02   1.07216724E-09
  -2.47499999E-02   1.05589137E-09
  -2.47000009E-02   1.03397080E-09
  -2.46500000E-02   1.00620623E-09
  -2.45999992E-02   9.73051861E-10
  -2.45500002E-02   9.35411193E-10
  -2.44999994E-02   8.94231300E-10
  -2.44500004E-02   8.50069848E-10
  -2.43999995E-02   8.02828137E-10
  -2.43500005E-02   7.51783302E-10
  -2.42999997E-02   6.95914881E-10
  -2.42500007E-02   6.34385600E-10
  -2.41999999E-02   5.66957314E-10
  -2.41500009E-02   4.94148167E-10
  -2.41000000E-02   4.17054113E-10
  -2.40499992E-02   3.36909500E-10
  -2.40000002E-02   2.54580745E-10
  -2.39499994E-02   1.70216272E-10
  -2.39000004E-02   8.32106328E-11
  -2.38499995E-02  -7.49358388E-12
  -2.38000005E-02  -1.02890800E-10
  -2.37499997E-02  -2.03409276E-10
  -2.37000007E-02  -3.08648940E-10
  -2.36499999E-02  -4.17488988E-10
  -2.36000009E-02  -5.28525834E-10
  -2.35500000E-02  -6.40647535E-10
  -2.34999992E-02  -7.53480611E-10
  -2.34500002E-02  -8.67505401E-10
  -2.33999994E-02  -9.83785386E-10
  -2.33500004E-02  -1.10343190E-09
  -2.32999995E-02  -1.22704225E-09
  -2.32500006E-02  -1.35436429E-09
  -2.31999997E-02  -1.48434032E-09
  -2.31500007E-02  -1.61552183E-09
  -2.30999999E-02  -1.74667503E-09
  -2.30500009E-02  -1.87730742E-09
  -2.30000000E-02  -2.00786943E-09
  -2.29499992E-02  -2.13952722E-09
  -2.29000002E-02  -2.27360619E-09
  -2.28499994E-02  -2.41095455E-09
  -2.28000004E-02  -2.55152877E-09
  -2.27499995E-02  -2.69438538E-09
  -2.27000006E-02  -2.83809043E-09
  -2.26499997E-02  -2.98136671E-09
  -2.26000007E-02  -3.12368353E-09
  -2.25499999E-02  -3.26552763E-09
  -2.25000009E-02  -3.40822415E-09
  -2.24500000E-02  -3.55337693E-09
  -2.23999992E-02  -3.70216990E-09
  -2.23500002E-02  -3.85484888E-09
  -2.22999994E-02  -4.01062961E-09
  -2.22500004E-02  -4.16808277E-09
  -2.21999995E-02  -4.32582903E-09
  -2.21500006E-02  -4.48322002E-09
  -2.20999997E-02  -4.64069405E-09
  -2.20500007E-02  -4.79965445E-09
  -2.19999999E-02  -4.96190999E-09
  -2.19500009E-02  -5.12893683E-09
  -2.19000001E-02  -5.30128696E-09
  -2.18499992E-02  -5.47840928E-09
  -2.18000002E-02  -5.65897684E-09
  -2.17499994E-02  -5.84158277E-09
  -2.17000004E-02  -6.02548855E-09
  -2.16499995E-02  -6.21108143E-09
  -2.16000006E-02  -6.39982600E-09
  -2.15499997E-02  -6.59372379E-09
  -2.15000007E-02  -6.79452183E-09
  -2.14499999E-02  -7.00303637E-09
  -2.14000009E-02  -7.21890769E-09
  -2.13500001E-02  -7.44088480E-09
  -2.12999992E-02  -7.66751018E-09
  -2.12500002E-02  -7.89790011E-09
  -2.11999994E-02  -8.13227530E-09
  -2.11500004E-02  -8.37199199E-09
  -2.10999995E-02  -8.61905569E-09
  -2.10500006E-02  -8.87532625E-09
  -2.09999997E-02  -9.14177978E-09
  -2.09500007E-02  -9.41818890E-09
  -2.08999999E-02  -9.70334746E-09
  -2.08500009E-02  -9.99576777E-09
  -2.08000001E-02  -1.02945137E-08
  -2.07499992E-02  -1.05997842E-08
  -2.07000002E-02  -1.09129870E-08
  -2.06499994E-02  -1.12362626E-08
  -2.06000004E-02  -1.15716725E-08
  -2.05499995E-02  -1.19204113E-08
  -2.05000006E-02  -1.22824027E-08
  -2.04499997E-02  -1.26564688E-08
  -2.04000007E-02  -1.30410074E-08
  -2.03499999E-02  -1.34348852E-08
  -2.03000009E-02  -1.38381200E-08
  -2.02500001E-02  -1.42520529E-08
  -2.01999992E-02  -1.46789265E-08
  -2.01500002E-02  -1.51210564E-08
  -2.00999994E-02  -1.55799711E-08
  -2.00500004E-02  -1.60559281E-08
  -1.99999996E-02  -1.65480216E-08
  -1.99500006E-02  -1.70548109E-08
  -1.98999997E-02  -1.75752071E-08
  -1.98500007E-02  -1.81092119E-08
  -1.97999999E-02  -1.86581772E-08
  -1.97500009E-02  -1.92244620E-08
  -1.97000001E-02  -1.98106243E-08
  -1.96499992E-02  -2.04185309E-08
  -1.96000002E-02  -2.10487965E-08
  -1.95499994E-02  -2.17007923E-08
  -1.95000004E-02  -2.23732641E-08
  -1.94499996E-02  -2.30652297E-08
  -1.94000006E-02  -2.37767601E-08
  -1.93499997E-02  -2.45093048E-08
  -1.93000007E-02  -2.52653773E-08
  -1.92499999E-02  -2.60477986E-08
  -1.92000009E-02  -2.68587925E-08
  -1.91500001E-02  -2.76993486E-08
  -1.90999992E-02  -2.85691844E-08
  -1.90500002E-02  -2.94673086E-08
  -1.89999994E-02  -3.03928935E-08
  -1.89500004E-02  -3.13461186E-08
  -1.88999996E-02  -3.23285718E-08
  -1.88500006E-02  -3.33430243E-08
  -1.87999997E-02  -3.43926310E-08
  -1.87500007E-02  -3.54799994E-08
  -1.86999999E-02  -3.66065116E-08
  -1.86500009E-02  -3.77721996E-08
  -1.86000001E-02  -3.89762675E-08
  -1.85499992E-02  -4.02179836E-08
  -1.85000002E-02  -4.14975716E-08
  -1.84499994E-02  -4.28166409E-08
  -1.84000004E-02  -4.41780763E-08
  -1.83499996E-02  -4.55852707E-08
  -1.83000006E-02  -4.70411976E-08
  -1.82499997E-02  -4.85476193E-08
  -1.82000007E-02  -5.01048376E-08
  -1.81499999E-02  -5.17122096E-08
  -1.81000009E-02  -5.33689892E-08
  -1.80500001E-02  -5.50753008E-08
  -1.79999992E-02  -5.68326222E-08
  -1.79500002E-02  -5.86437849E-08
  -1.78999994E-02  -6.05122636E-08
  -1.78500004E-02  -6.24412166E-08
  -1.77999996E-02  -6.44327116E-08
  -1.77500006E-02  -6.64873525E-08
  -1.76999997E-02  -6.86046562E-08
  -1.76500008E-02  -7.07838765E-08
  -1.75999999E-02  -7.30249425E-08
  -1.75500009E-02  -7.53291332E-08
  -1.75000001E-02  -7.76990703E-08
  -1.74499992E-02  -8.01380295E-08
  -1.74000002E-02  -8.26490734E-08
  -1.73499994E-02  -8.52341060E-08
  -1.73000004E-02  -8.78936319E-08
  -1.72499996E-02  -9.06270898E-08
  -1.72000006E-02  -9.34335489E-08
  -1.71499997E-02  -9.63127391E-08
  -1.71000008E-02  -9.92656766E-08
  -1.70499999E-02  -1.02294820E-07
  -1.70000009E-02  -1.05403537E-07
  -1.69500001E-02  -1.08595017E-07
  -1.68999992E-02  -1.11871401E-07
  -1.68500002E-02  -1.15233327E-07
  -1.67999994E-02  -1.18680113E-07
  -1.67500004E-02  -1.22210636E-07
  -1.66999996E-02  -1.25824315E-07
  -1.66500006E-02  -1.29521894E-07
  -1.65999997E-02  -1.33305491E-07
  -1.65500008E-02  -1.37178191E-07
  -1.64999999E-02  -1.41143289E-07
  -1.64500009E-02  -1.45203103E-07
  -1.64000001E-02  -1.49358499E-07
  -1.63499992E-02  -1.53608966E-07
  -1.63000003E-02  -1.57953409E-07
  -1.62499994E-02  -1.62391260E-07
  -1.62000004E-02  -1.66923243E-07
  -1.61499996E-02  -1.71551704E-07
  -1.61000006E-02  -1.76280039E-07
  -1.60499997E-02  -1.81111901E-07
  -1.60000008E-02  -1.86050173E-07
  -1.59499999E-02  -1.91096476E-07
  -1.59000009E-02  -1.96251079E-07
  -1.58500001E-02  -2.01513487E-07
  -1.57999992E-02  -2.06883314E-07
  -1.57500003E-02  -2.12361655E-07
  -1.56999994E-02  -2.17951239E-07
  -1.56500004E-02  -2.23656158E-07
  -1.55999996E-02  -2.29480762E-07
  -1.55499997E-02  -2.35428843E-07
  -1.54999997E-02  -2.41503017E-07
  -1.54499998E-02  -2.47704548E-07
  -1.53999999E-02  -2.54034006E-07
  -1.53500000E-02  -2.60492328E-07
  -1.53000001E-02  -2.67081390E-07
  -1.52500002E-02  -2.73804943E-07
  -1.52000003E-02  -2.80668445E-07
  -1.51500003E-02  -2.87677722E-07
  -1.51000004E-02  -2.94838145E-07
  -1.50499996E-02  -3.02153779E-07
  -1.49999997E-02  -3.09627353E-07
  -1.49499997E-02  -3.17260827E-07
  -1.48999998E-02  -3.25056391E-07
  -1.48499999E-02  -3.33017340E-07
  -1.48000000E-02  -3.41148791E-07
  -1.47500001E-02  -3.49457423E-07
  -1.47000002E-02  -3.57950995E-07
  -1.46500003E-02  -3.66636840E-07
  -1.46000003E-02  -3.75521125E-07
  -1.45500004E-02  -3.84608569E-07
  -1.44999996E-02  -3.93902781E-07
  -1.44499997E-02  -4.03407540E-07
  -1.43999998E-02  -4.13127736E-07
  -1.43499998E-02  -4.23069935E-07
  -1.42999999E-02  -4.33242320E-07
  -1.42500000E-02  -4.43654244E-07
  -1.42000001E-02  -4.54314886E-07
  -1.41500002E-02  -4.65232773E-07
  -1.41000003E-02  -4.76414556E-07
  -1.40500003E-02  -4.87865918E-07
  -1.40000004E-02  -4.99592375E-07
  -1.39499996E-02  -5.11600376E-07
  -1.38999997E-02  -5.23898393E-07
  -1.38499998E-02  -5.36496543E-07
  -1.37999998E-02  -5.49405740E-07
  -1.37499999E-02  -5.62636899E-07
  -1.37000000E-02  -5.76199966E-07
  -1.36500001E-02  -5.90103639E-07
  -1.36000002E-02  -6.04355762E-07
  -1.35500003E-02  -6.18963384E-07
  -1.35000004E-02  -6.33934008E-07
  -1.34500004E-02  -6.49276956E-07
  -1.33999996E-02  -6.65004052E-07
  -1.33499997E-02  -6.81128142E-07
  -1.32999998E-02  -6.97662074E-07
  -1.32499998E-02  -7.14617443E-07
  -1.31999999E-02  -7.32004253E-07
  -1.31500000E-02  -7.49831372E-07
  -1.31000001E-02  -7.68107498E-07
  -1.30500002E-02  -7.86842179E-07
  -1.30000003E-02  -8.06045989E-07
  -1.29500004E-02  -8.25731263E-07
  -1.29000004E-02  -8.45911927E-07
  -1.28499996E-02  -8.66602306E-07
  -1.27999997E-02  -8.87816157E-07
  -1.27499998E-02  -9.09564790E-07
  -1.26999998E-02  -9.31857642E-07
  -1.26499999E-02  -9.54703978E-07
  -1.26000000E-02  -9.78113917E-07
  -1.25500001E-02  -1.00209866E-06
  -1.25000002E-02  -1.02667104E-06
  -1.24500003E-02  -1.05184517E-06
  -1.24000004E-02  -1.07763640E-06
  -1.23500004E-02  -1.10405949E-06
  -1.22999996E-02  -1.13112753E-06
  -1.22499997E-02  -1.15885246E-06
  -1.21999998E-02  -1.18724472E-06
  -1.21499998E-02  -1.21631558E-06
  -1.20999999E-02  -1.24607811E-06
  -1.20500000E-02  -1.27654687E-06
  -1.20000001E-02  -1.30773697E-06
  -1.19500002E-02  -1.33966319E-06
  -1.19000003E-02  -1.37234031E-06
  -1.18500004E-02  -1.40578118E-06
  -1.18000004E-02  -1.43999841E-06
  -1.17499996E-02  -1.47500248E-06
  -1.16999997E-02  -1.51080394E-06
  -1.16499998E-02  -1.54741474E-06
  -1.15999999E-02  -1.58485034E-06
  -1.15499999E-02  -1.62312881E-06
  -1.15000000E-02  -1.66226846E-06
  -1.14500001E-02  -1.70228668E-06
  -1.14000002E-02  -1.74319894E-06
  -1.13500003E-02  -1.78501989E-06
  -1.13000004E-02  -1.82776364E-06
  -1.12500004E-02  -1.87144349E-06
  -1.11999996E-02  -1.91607296E-06
  -1.11499997E-02  -1.96166616E-06
  -1.10999998E-02  -2.00823865E-06
  -1.10499999E-02  -2.05580841E-06
  -1.09999999E-02  -2.10439180E-06
  -1.09500000E-02  -2.15400451E-06
  -1.09000001E-02  -2.20466018E-06
  -1.08500002E-02  -2.25637223E-06
  -1.08000003E-02  -2.30915521E-06
  -1.07500004E-02  -2.36302662E-06
  -1.07000005E-02  -2.41800512E-06
  -1.06499996E-02  -2.47411049E-06
  -1.05999997E-02  -2.53136432E-06
  -1.05499998E-02  -2.58978594E-06
  -1.04999999E-02  -2.64939536E-06
  -1.04499999E-02  -2.71021008E-06
  -1.04000000E-02  -2.77224626E-06
  -1.03500001E-02  -2.83551822E-06
  -1.03000002E-02  -2.90004186E-06
  -1.02500003E-02  -2.96583517E-06
  -1.02000004E-02  -3.03291949E-06
  -1.01500005E-02  -3.10131600E-06
  -1.00999996E-02  -3.17104605E-06
  -1.00499997E-02  -3.24212829E-06
  -9.99999978E-03  -3.31458409E-06
  -9.94999986E-03  -3.38843211E-06
  -9.89999995E-03  -3.46369143E-06
  -9.85000003E-03  -3.54038002E-06
  -9.80000012E-03  -3.61851721E-06
  -9.75000020E-03  -3.69812551E-06
  -9.70000029E-03  -3.77922947E-06
  -9.65000037E-03  -3.86185184E-06
  -9.60000046E-03  -3.94601284E-06
  -9.54999961E-03  -4.03173181E-06
  -9.49999969E-03  -4.11903011E-06
  -9.44999978E-03  -4.20792821E-06
  -9.39999986E-03  -4.29844931E-06
  -9.34999995E-03  -4.39061614E-06
  -9.30000003E-03  -4.48445462E-06
  -9.25000012E-03  -4.57999204E-06
  -9.20000020E-03  -4.67725613E-06
  -9.15000029E-03  -4.77627373E-06
  -9.10000037E-03  -4.87706893E-06
  -9.05000046E-03  -4.97966221E-06
  -8.99999961E-03  -5.08407629E-06
  -8.94999970E-03  -5.19033483E-06
  -8.89999978E-03  -5.29846329E-06
  -8.84999987E-03  -5.40848669E-06
  -8.79999995E-03  -5.52043366E-06
  -8.75000004E-03  -5.63433059E-06
  -8.70000012E-03  -5.75020385E-06
  -8.65000021E-03  -5.86808210E-06
  -8.60000029E-03  -5.98799170E-06
  -8.55000038E-03  -6.10995676E-06
  -8.50000046E-03  -6.23400138E-06
  -8.44999962E-03  -6.36015238E-06
  -8.39999970E-03  -6.48844252E-06
  -8.34999979E-03  -6.61890635E-06
  -8.29999987E-03  -6.75157526E-06
  -8.24999996E-03  -6.88648151E-06
  -8.20000004E-03  -7.02365060E-06
  -8.15000013E-03  -7.16311160E-06
  -8.10000021E-03  -7.30489819E-06
  -8.05000030E-03  -7.44904582E-06
  -8.00000038E-03  -7.59558043E-06
  -7.95000046E-03  -7.74453474E-06
  -7.89999962E-03  -7.89594287E-06
  -7.84999970E-03  -8.04984575E-06
  -7.79999979E-03  -8.20627974E-06
  -7.74999987E-03  -8.36527579E-06
  -7.69999996E-03  -8.52686117E-06
  -7.65000004E-03  -8.69106952E-06
  -7.60000013E-03  -8.85793725E-06
  -7.55000021E-03  -9.02750344E-06
  -7.49999983E-03  -9.19980903E-06
  -7.44999992E-03  -9.37489040E-06
  -7.40000000E-03  -9.55278301E-06
  -7.35000009E-03  -9.73352780E-06
  -7.30000017E-03  -9.91717025E-06
  -7.24999979E-03  -1.01037485E-05
  -7.19999988E-03  -1.02932936E-05
  -7.14999996E-03  -1.04858373E-05
  -7.10000005E-03  -1.06814205E-05
  -7.05000013E-03  -1.08800932E-05
  -7.00000022E-03  -1.10819055E-05
  -6.94999984E-03  -1.12869002E-05
  -6.89999992E-03  -1.14951144E-05
  -6.85000001E-03  -1.17065920E-05
  -6.80000009E-03  -1.19213819E-05
  -6.75000018E-03  -1.21395378E-05
  -6.69999979E-03  -1.23610989E-05
  -6.64999988E-03  -1.25861079E-05
  -6.59999996E-03  -1.28146048E-05
  -6.55000005E-03  -1.30466506E-05
  -6.50000013E-03  -1.32823034E-05
  -6.45000022E-03  -1.35216151E-05
  -6.39999984E-03  -1.37646266E-05
  -6.34999992E-03  -1.40113762E-05
  -6.30000001E-03  -1.42619083E-05
  -6.25000009E-03  -1.45162840E-05
  -6.20000018E-03  -1.47745641E-05
  -6.14999980E-03  -1.50367978E-05
  -6.09999988E-03  -1.53030251E-05
  -6.04999997E-03  -1.55733051E-05
  -6.00000005E-03  -1.58477014E-05
  -5.95000014E-03  -1.61262724E-05
  -5.90000022E-03  -1.64090670E-05
  -5.84999984E-03  -1.66961290E-05
  -5.79999993E-03  -1.69875093E-05
  -5.75000001E-03  -1.72832679E-05
  -5.70000010E-03  -1.75834812E-05
  -5.65000018E-03  -1.78882074E-05
  -5.59999980E-03  -1.81975083E-05
  -5.54999989E-03  -1.85114404E-05
  -5.49999997E-03  -1.88300655E-05
  -5.45000006E-03  -1.91534509E-05
  -5.40000014E-03  -1.94816494E-05
  -5.35000023E-03  -1.98147118E-05
  -5.29999984E-03  -2.01526982E-05
  -5.24999993E-03  -2.04956687E-05
  -5.20000001E-03  -2.08436959E-05
  -5.15000010E-03  -2.11968509E-05
  -5.10000018E-03  -2.15551954E-05
  -5.04999980E-03  -2.19187859E-05
  -4.99999989E-03  -2.22876752E-05
  -4.94999997E-03  -2.26619195E-05
  -4.90000006E-03  -2.30415826E-05
  -4.85000014E-03  -2.34267354E-05
  -4.80000023E-03  -2.38174489E-05
  -4.74999985E-03  -2.42137867E-05
  -4.69999993E-03  -2.46158143E-05
  -4.65000002E-03  -2.50236099E-05
  -4.60000010E-03  -2.54372480E-05
  -4.55000019E-03  -2.58567925E-05
  -4.49999981E-03  -2.62822978E-05
  -4.44999989E-03  -2.67138239E-05
  -4.39999998E-03  -2.71514364E-05
  -4.35000006E-03  -2.75952207E-05
  -4.30000015E-03  -2.80452441E-05
  -4.25000023E-03  -2.85015904E-05
  -4.19999985E-03  -2.89643140E-05
  -4.14999994E-03  -2.94334932E-05
  -4.10000002E-03  -2.99091826E-05
  -4.05000011E-03  -3.03914494E-05
  -4.00000019E-03  -3.08803501E-05
  -3.94999981E-03  -3.13759447E-05
  -3.89999989E-03  -3.18783132E-05
  -3.84999998E-03  -3.23875283E-05
  -3.80000006E-03  -3.29036739E-05
  -3.74999992E-03  -3.34268370E-05
  -3.70000000E-03  -3.39570615E-05
  -3.65000009E-03  -3.44944201E-05
  -3.59999994E-03  -3.50389855E-05
  -3.55000002E-03  -3.55908232E-05
  -3.50000011E-03  -3.61499915E-05
  -3.44999996E-03  -3.67165667E-05
  -3.40000005E-03  -3.72906397E-05
  -3.34999990E-03  -3.78722943E-05
  -3.29999998E-03  -3.84616069E-05
  -3.25000007E-03  -3.90586538E-05
  -3.19999992E-03  -3.96635005E-05
  -3.15000000E-03  -4.02762016E-05
  -3.10000009E-03  -4.08968335E-05
  -3.04999994E-03  -4.15254653E-05
  -3.00000003E-03  -4.21621698E-05
  -2.95000011E-03  -4.28070343E-05
  -2.89999996E-03  -4.34601425E-05
  -2.85000005E-03  -4.41215670E-05
  -2.79999990E-03  -4.47913808E-05
  -2.74999999E-03  -4.54696674E-05
  -2.70000007E-03  -4.61564669E-05
  -2.64999992E-03  -4.68518410E-05
  -2.60000001E-03  -4.75558663E-05
  -2.55000009E-03  -4.82686228E-05
  -2.49999994E-03  -4.89901904E-05
  -2.45000003E-03  -4.97206711E-05
  -2.40000011E-03  -5.04601303E-05
  -2.34999997E-03  -5.12086626E-05
  -2.30000005E-03  -5.19663554E-05
  -2.24999990E-03  -5.27332668E-05
  -2.19999999E-03  -5.35094478E-05
  -2.15000007E-03  -5.42949601E-05
  -2.09999993E-03  -5.50898912E-05
  -2.05000001E-03  -5.58943393E-05
  -2.00000009E-03  -5.67083953E-05
  -1.94999995E-03  -5.75321501E-05
  -1.90000003E-03  -5.83656838E-05
  -1.85000000E-03  -5.92090473E-05
  -1.79999997E-03  -6.00623134E-05
  -1.75000005E-03  -6.09255439E-05
  -1.70000002E-03  -6.17988189E-05
  -1.64999999E-03  -6.26821857E-05
  -1.59999996E-03  -6.35757460E-05
  -1.55000004E-03  -6.44796019E-05
  -1.50000001E-03  -6.53938478E-05
  -1.44999998E-03  -6.63185492E-05
  -1.39999995E-03  -6.72537935E-05
  -1.35000004E-03  -6.81996389E-05
  -1.30000000E-03  -6.91561581E-05
  -1.24999997E-03  -7.01234167E-05
  -1.20000006E-03  -7.11014654E-05
  -1.15000003E-03  -7.20904136E-05
  -1.09999999E-03  -7.30903485E-05
  -1.04999996E-03  -7.41013864E-05
  -1.00000005E-03  -7.51236003E-05
  -9.50000016E-04  -7.61570554E-05
  -8.99999985E-04  -7.72018102E-05
  -8.50000011E-04  -7.82579373E-05
  -7.99999980E-04  -7.93255022E-05
  -7.50000007E-04  -8.04045703E-05
  -6.99999975E-04  -8.14952073E-05
  -6.50000002E-04  -8.25975148E-05
  -6.00000028E-04  -8.37116095E-05
  -5.49999997E-04  -8.48375639E-05
  -5.00000024E-04  -8.59754655E-05
  -4.49999992E-04  -8.71253360E-05
  -3.99999990E-04  -8.82872191E-05
  -3.49999988E-04  -8.94612240E-05
  -3.00000014E-04  -9.06474088E-05
  -2.50000012E-04  -9.18458245E-05
  -1.99999995E-04  -9.30565511E-05
  -1.50000007E-04  -9.42796614E-05
  -9.99999975E-05  -9.55152718E-05
  -4.99999987E-05  -9.67634769E-05
   0.00000000      -9.80243058E-05
   4.99999987E-05  -9.92977657E-05
   9.99999975E-05  -1.00583937E-04
   1.50000007E-04  -1.01882884E-04
   1.99999995E-04  -1.03194703E-04
   2.50000012E-04  -1.04519480E-04
   3.00000014E-04  -1.05857289E-04
   3.49999988E-04  -1.07208216E-04
   3.99999990E-04  -1.08572298E-04
   4.49999992E-04  -1.09949615E-04
   5.00000024E-04  -1.11340189E-04
   5.49999997E-04  -1.12744041E-04
   6.00000028E-04  -1.14161223E-04
   6.50000002E-04  -1.15591836E-04
   6.99999975E-04  -1.17035903E-04
   7.50000007E-04  -1.18493503E-04
   7.99999980E-04  -1.19964709E-04
   8.50000011E-04  -1.21449579E-04
   8.99999985E-04  -1.22948171E-04
   9.50000016E-04  -1.24460479E-04
   1.00000005E-03  -1.25986524E-04
   1.04999996E-03  -1.27526335E-04
   1.09999999E-03  -1.29079956E-04
   1.15000003E-03  -1.30647473E-04
   1.20000006E-03  -1.32228975E-04
   1.24999997E-03  -1.33824535E-04
   1.30000000E-03  -1.35434151E-04
   1.35000004E-03  -1.37057868E-04
   1.39999995E-03  -1.38695701E-04
   1.44999998E-03  -1.40347634E-04
   1.50000001E-03  -1.42013654E-04
   1.55000004E-03  -1.43693818E-04
   1.59999996E-03  -1.45388170E-04
   1.64999999E-03  -1.47096784E-04
   1.70000002E-03  -1.48819643E-04
   1.75000005E-03  -1.50556793E-04
   1.79999997E-03  -1.52308261E-04
   1.85000000E-03  -1.54073976E-04
   1.90000003E-03  -1.55853952E-04
   1.94999995E-03  -1.57648159E-04
   2.00000009E-03  -1.59456613E-04
   2.05000001E-03  -1.61279284E-04
   2.09999993E-03  -1.63116187E-04
   2.15000007E-03  -1.64967365E-04
   2.19999999E-03  -1.66832804E-04
   2.24999990E-03  -1.68712533E-04
   2.30000005E-03  -1.70606450E-04
   2.34999997E-03  -1.72514468E-04
   2.40000011E-03  -1.74436587E-04
   2.45000003E-03  -1.76372821E-04
   2.49999994E-03  -1.78323171E-04
   2.55000009E-03  -1.80287549E-04
   2.60000001E-03  -1.82265911E-04
   2.64999992E-03  -1.84258228E-04
   2.70000007E-03  -1.86264442E-04
   2.74999999E-03  -1.88284583E-04
   2.79999990E-03  -1.90318489E-04