  -3.99999991E-02   0.00000000    
  -3.99499983E-02   0.00000000    
  -3.99000011E-02   0.00000000    
  -3.98500003E-02   0.00000000    
  -3.97999994E-02  -4.60738894E-22
  -3.97499986E-02  -4.25978871E-21
  -3.97000015E-02  -2.05590911E-20
  -3.96500006E-02  -6.76052517E-20
  -3.95999998E-02  -1.66272531E-19
  -3.95499989E-02  -3.13756637E-19
  -3.95000018E-02  -4.32959231E-19
  -3.94500010E-02  -3.09775650E-19
  -3.94000001E-02   4.47891212E-19
  -3.93499993E-02   2.38266791E-18
  -3.92999984E-02   6.05772942E-18
  -3.92500013E-02   1.18376469E-17
  -3.92000005E-02   1.96636432E-17
  -3.91499996E-02   2.89613998E-17
  -3.90999988E-02   3.88080155E-17
  -3.90500017E-02   4.83797559E-17
  -3.90000008E-02   5.75341571E-17
  -3.89500000E-02   6.72382165E-17
  -3.88999991E-02   7.95433950E-17
  -3.88499983E-02   9.69768948E-17
  -3.88000011E-02   1.21513772E-16
  -3.87500003E-02   1.53572050E-16
  -3.86999995E-02   1.91569498E-16
  -3.86499986E-02   2.32402812E-16
  -3.86000015E-02   2.72794902E-16
  -3.85500006E-02   3.10976897E-16
  -3.84999998E-02   3.47872593E-16
  -3.84499989E-02   3.87037412E-16
  -3.84000018E-02   4.33115527E-16
  -3.83500010E-02   4.89322093E-16
  -3.83000001E-02   5.55072549E-16
  -3.82499993E-02   6.24994324E-16
  -3.81999984E-02   6.90026655E-16
  -3.81500013E-02   7.40337818E-16
  -3.81000005E-02   7.68839577E-16
  -3.80499996E-02   7.73656495E-16
  -3.79999988E-02   7.58281523E-16
  -3.79500017E-02   7.29176836E-16
  -3.79000008E-02   6.91808548E-16
  -3.78500000E-02   6.46920778E-16
  -3.77999991E-02   5.88850052E-16
  -3.77499983E-02   5.06776265E-16
  -3.77000012E-02   3.88410823E-16
  -3.76500003E-02   2.24419500E-16
  -3.75999995E-02   1.15021267E-17
  -3.75499986E-02  -2.47263529E-16
  -3.75000015E-02  -5.44820009E-16
  -3.74500006E-02  -8.73957742E-16
  -3.73999998E-02  -1.23070647E-15
  -3.73499990E-02  -1.61588772E-15
  -3.73000018E-02  -2.03453333E-15
  -3.72500010E-02  -2.49391784E-15
  -3.72000001E-02  -3.00132339E-15
  -3.71499993E-02  -3.56224958E-15
  -3.70999984E-02  -4.17895775E-15
  -3.70500013E-02  -4.84872660E-15
  -3.70000005E-02  -5.56149382E-15
  -3.69499996E-02  -6.29764931E-15
  -3.68999988E-02  -7.02794036E-15
  -3.68500017E-02  -7.71767887E-15
  -3.68000008E-02  -8.33587062E-15
  -3.67500000E-02  -8.86682898E-15
  -3.66999991E-02  -9.31883795E-15
  -3.66499983E-02  -9.72351895E-15
  -3.66000012E-02  -1.01224359E-14
  -3.65500003E-02  -1.05434816E-14
  -3.64999995E-02  -1.09763078E-14
  -3.64499986E-02  -1.13596563E-14
  -3.64000015E-02  -1.15908861E-14
  -3.63500006E-02  -1.15591368E-14
  -3.62999998E-02  -1.11914533E-14
  -3.62499990E-02  -1.04915949E-14
  -3.62000018E-02  -9.55001781E-15
  -3.61500010E-02  -8.51328251E-15
  -3.61000001E-02  -7.51952482E-15
  -3.60499993E-02  -6.62563063E-15
  -3.59999985E-02  -5.76156978E-15
  -3.59500013E-02  -4.74059777E-15
  -3.59000005E-02  -3.33102462E-15
  -3.58499996E-02  -1.36472784E-15
  -3.57999988E-02   1.16585689E-15
  -3.57500017E-02   4.07345979E-15
  -3.57000008E-02   7.03290694E-15
  -3.56500000E-02   9.71646910E-15
  -3.55999991E-02   1.19528504E-14
  -3.55499983E-02   1.38335574E-14
  -3.55000012E-02   1.57038892E-14
  -3.54500003E-02   1.80234212E-14
  -3.53999995E-02   2.11442073E-14
  -3.53499986E-02   2.51043574E-14
  -3.53000015E-02   2.95428626E-14
  -3.52500007E-02   3.37977971E-14
  -3.51999998E-02   3.71682936E-14
  -3.51499990E-02   3.92363517E-14
  -3.51000018E-02   4.00994545E-14
  -3.50500010E-02   4.03870595E-14
  -3.50000001E-02   4.10220564E-14
  -3.49499993E-02   4.28079135E-14
  -3.48999985E-02   4.60185987E-14
  -3.48500013E-02   5.01914862E-14
  -3.48000005E-02   5.42510068E-14
  -3.47499996E-02   5.69463164E-14
  -3.46999988E-02   5.74309751E-14
  -3.46500017E-02   5.57211544E-14
  -3.46000008E-02   5.27951130E-14
  -3.45500000E-02   5.02413324E-14
  -3.44999991E-02   4.95705636E-14
  -3.44499983E-02   5.14834689E-14
  -3.44000012E-02   5.54413456E-14
  -3.43500003E-02   5.97817423E-14
  -3.42999995E-02   6.23856367E-14
  -3.42499986E-02   6.16382488E-14
  -3.42000015E-02   5.72552734E-14
  -3.41500007E-02   5.05638588E-14
  -3.40999998E-02   4.40446595E-14
  -3.40499990E-02   4.02759084E-14
  -3.40000018E-02   4.07219187E-14
  -3.39500010E-02   4.49295345E-14
  -3.39000002E-02   5.05582447E-14
  -3.38499993E-02   5.43131519E-14
  -3.37999985E-02   5.34245906E-14
  -3.37500013E-02   4.70209809E-14
  -3.37000005E-02   3.67279144E-14
  -3.36499996E-02   2.61308038E-14
  -3.35999988E-02   1.92459421E-14
  -3.35500017E-02   1.86323786E-14
  -3.35000008E-02   2.40094064E-14
  -3.34500000E-02   3.20864415E-14
  -3.33999991E-02   3.78015050E-14
  -3.33499983E-02   3.65129713E-14
  -3.33000012E-02   2.61941229E-14
  -3.32500003E-02   8.59192952E-15
  -3.31999995E-02  -1.12908526E-14
  -3.31499986E-02  -2.72937512E-14
  -3.31000015E-02  -3.49242526E-14
  -3.30500007E-02  -3.36402997E-14
  -3.29999998E-02  -2.74658209E-14
  -3.29499990E-02  -2.35067194E-14
  -3.29000019E-02  -2.88884991E-14
  -3.28500010E-02  -4.74244735E-14
  -3.28000002E-02  -7.75590055E-14
  -3.27499993E-02  -1.12656202E-13
  -3.26999985E-02  -1.43687295E-13
  -3.26500013E-02  -1.63245855E-13
  -3.26000005E-02  -1.69111253E-13
  -3.25499997E-02  -1.65653271E-13
  -3.24999988E-02  -1.62252265E-13
  -3.24500017E-02  -1.69245206E-13
  -3.24000008E-02  -1.93106775E-13
  -3.23500000E-02  -2.33060722E-13
  -3.22999991E-02  -2.80810748E-13
  -3.22499983E-02  -3.23745018E-13
  -3.22000012E-02  -3.50370069E-13
  -3.21500003E-02  -3.55596493E-13
  -3.20999995E-02  -3.43400520E-13
  -3.20499986E-02  -3.25434016E-13
  -3.20000015E-02  -3.15950960E-13
  -3.19500007E-02  -3.25163345E-13
  -3.18999998E-02  -3.54020415E-13
  -3.18499990E-02  -3.92946363E-13
  -3.18000019E-02  -4.25398649E-13
  -3.17500010E-02  -4.34920031E-13
  -3.17000002E-02  -4.12641140E-13
  -3.16499993E-02  -3.61775253E-13
  -3.15999985E-02  -2.96818071E-13
  -3.15500014E-02  -2.37476353E-13
  -3.15000005E-02  -1.99800273E-13
  -3.14499997E-02  -1.88455425E-13
  -3.13999988E-02  -1.93793210E-13
  -3.13500017E-02  -1.95384250E-13
  -3.13000008E-02  -1.70786630E-13
  -3.12500000E-02  -1.05817041E-13
  -3.11999992E-02  -1.66518588E-15
  -3.11500002E-02   1.24631886E-13
  -3.10999993E-02   2.46977298E-13
  -3.10500003E-02   3.41563285E-13
  -3.09999995E-02   3.97810230E-13
  -3.09500005E-02   4.23817665E-13
  -3.08999997E-02   4.43486041E-13
  -3.08500007E-02   4.86148339E-13
  -3.07999998E-02   5.73058094E-13
  -3.07500008E-02   7.06782072E-13
  -3.07000000E-02   8.68552842E-13
  -3.06499992E-02   1.02525367E-12
  -3.06000002E-02   1.14336340E-12
  -3.05499993E-02   1.20383716E-12
  -3.05000003E-02   1.21113698E-12
  -3.04499995E-02   1.19194812E-12
  -3.04000005E-02   1.18362264E-12
  -3.03499997E-02   1.21711712E-12
  -3.03000007E-02   1.30197784E-12
  -3.02499998E-02   1.42038421E-12
  -3.02000009E-02   1.53347062E-12
  -3.01500000E-02   1.59766514E-12
  -3.00999992E-02   1.58407272E-12
  -3.00500002E-02   1.49216631E-12
  -2.99999993E-02   1.35121298E-12
  -2.99500003E-02   1.20815781E-12
  -2.98999995E-02   1.10683576E-12
  -2.98500005E-02   1.06760293E-12
  -2.97999997E-02   1.07674264E-12
  -2.97500007E-02   1.09099025E-12
  -2.96999998E-02   1.05585701E-12
  -2.96500009E-02   9.30055403E-13
  -2.96000000E-02   7.05152679E-13
  -2.95499992E-02   4.11241028E-13
  -2.95000002E-02   1.05358105E-13
  -2.94499993E-02  -1.52874444E-13
  -2.94000003E-02  -3.27873579E-13
  -2.93499995E-02  -4.24928376E-13
  -2.93000005E-02  -4.89100080E-13
  -2.92499997E-02  -5.85855583E-13
  -2.92000007E-02  -7.71427518E-13
  -2.91499998E-02  -1.06594952E-12
  -2.91000009E-02  -1.44175123E-12
  -2.90500000E-02  -1.83284833E-12
  -2.89999992E-02  -2.16227427E-12
  -2.89500002E-02  -2.37562205E-12
  -2.88999993E-02  -2.46581163E-12
  -2.88500004E-02  -2.47743362E-12
  -2.87999995E-02  -2.48780445E-12
  -2.87500005E-02  -2.57233536E-12
  -2.86999997E-02  -2.76929911E-12
  -2.86500007E-02  -3.05998954E-12
  -2.85999998E-02  -3.37396018E-12
  -2.85500009E-02  -3.61802927E-12
  -2.85000000E-02  -3.71688357E-12
  -2.84499992E-02  -3.64732116E-12
  -2.84000002E-02  -3.45032011E-12
  -2.83499993E-02  -3.21452912E-12
  -2.83000004E-02  -3.03750861E-12
  -2.82499995E-02  -2.98140484E-12
  -2.82000005E-02  -3.04297082E-12
  -2.81499997E-02  -3.15213697E-12
  -2.81000007E-02  -3.20096228E-12
  -2.80499998E-02  -3.09106863E-12
  -2.80000009E-02  -2.77879347E-12
  -2.79500000E-02  -2.29749770E-12
  -2.78999992E-02  -1.74599690E-12
  -2.78500002E-02  -1.24700836E-12
  -2.77999993E-02  -8.93260021E-13
  -2.77500004E-02  -7.05190518E-13
  -2.76999995E-02  -6.19852856E-13
  -2.76500005E-02  -5.17264996E-13
  -2.75999997E-02  -2.73717382E-13
  -2.75500007E-02   1.81063389E-13
  -2.74999999E-02   8.28646396E-13
  -2.74500009E-02   1.56534096E-12
  -2.74000000E-02   2.24429047E-12
  -2.73499992E-02   2.73864481E-12
  -2.73000002E-02   2.99803606E-12
  -2.72499993E-02   3.07256239E-12
  -2.72000004E-02   3.09221355E-12
  -2.71499995E-02   3.20937959E-12
  -2.71000005E-02   3.52907222E-12
  -2.70499997E-02   4.05794408E-12
  -2.70000007E-02   4.69585829E-12
  -2.69499999E-02   5.27538343E-12
  -2.69000009E-02   5.63313111E-12
  -2.68500000E-02   5.68188595E-12
  -2.67999992E-02   5.45098515E-12
  -2.67500002E-02   5.07560660E-12
  -2.66999993E-02   4.73798865E-12
  -2.66500004E-02   4.58547046E-12
  -2.65999995E-02   4.66155239E-12
  -2.65500005E-02   4.88159990E-12
  -2.64999997E-02   5.06573342E-12
  -2.64500007E-02   5.01607523E-12
  -2.63999999E-02   4.60502513E-12
  -2.63500009E-02   3.83509934E-12
  -2.63000000E-02   2.84234680E-12
  -2.62499992E-02   1.83987244E-12
  -2.62000002E-02   1.02490314E-12
  -2.61499994E-02   4.90113213E-13
  -2.61000004E-02   1.79384556E-13
  -2.60499995E-02  -9.05267818E-14
  -2.60000005E-02  -5.49954667E-13
  -2.59499997E-02  -1.37208289E-12
  -2.59000007E-02  -2.59071085E-12
  -2.58499999E-02  -4.07785481E-12
  -2.58000009E-02  -5.59328495E-12
  -2.57500000E-02  -6.88601129E-12
  -2.56999992E-02  -7.80366050E-12
  -2.56500002E-02  -8.36065245E-12
  -2.55999994E-02  -8.73309151E-12
  -2.55500004E-02  -9.18027633E-12
  -2.54999995E-02  -9.92586915E-12
  -2.54500005E-02  -1.10510134E-11
  -2.53999997E-02  -1.24480027E-11
  -2.53500007E-02  -1.38573632E-11
  -2.52999999E-02  -1.49743204E-11
  -2.52500009E-02  -1.55788958E-11
  -2.52000000E-02  -1.56317893E-11
  -2.51499992E-02  -1.52918043E-11
  -2.51000002E-02  -1.48445544E-11
  -2.50499994E-02  -1.45718975E-11
  -2.50000004E-02  -1.46191115E-11
  -2.49499995E-02  -1.49196905E-11
  -2.49000005E-02  -1.52134000E-11
  -2.48499997E-02  -1.51523707E-11
  -2.48000007E-02  -1.44500800E-11
  -2.47499999E-02  -1.30074892E-11
  -2.47000009E-02  -1.09587773E-11
  -2.46500000E-02  -8.61376942E-12
  -2.45999992E-02  -6.31996452E-12
  -2.45500002E-02  -4.30398295E-12
  -2.44999994E-02  -2.56337638E-12
  -2.44500004E-02  -8.58990613E-13
  -2.43999995E-02   1.18562484E-12
  -2.43500005E-02   3.91942381E-12
  -2.42999997E-02   7.50598021E-12
  -2.42500007E-02   1.18437812E-11
  -2.41999999E-02   1.66027712E-11
  -2.41500009E-02   2.13639228E-11
  -2.41000000E-02   2.58018468E-11
  -2.40499992E-02   2.98292953E-11
  -2.40000002E-02   3.36373741E-11
  -2.39499994E-02   3.76104321E-11
  -2.39000004E-02   4.21504082E-11
  -2.38499995E-02   4.74873474E-11
  -2.38000005E-02   5.35609612E-11
  -2.37499997E-02   6.00286001E-11
  -2.37000007E-02   6.63994346E-11
  -2.36499999E-02   7.22379032E-11
  -2.36000009E-02   7.73466083E-11
  -2.35500000E-02   8.18458218E-11
  -2.34999992E-02   8.61110142E-11
  -2.34500002E-02   9.05927069E-11
  -2.33999994E-02   9.55968429E-11
  -2.33500004E-02   1.01123325E-10
  -2.32999995E-02   1.06837074E-10
  -2.32500006E-02   1.12188037E-10
  -2.31999997E-02   1.16629983E-10
  -2.31500007E-02   1.19842081E-10
  -2.30999999E-02   1.21853833E-10
  -2.30500009E-02   1.23014543E-10
  -2.30000000E-02   1.23817345E-10
  -2.29499992E-02   1.24653510E-10
  -2.29000002E-02   1.25605831E-10
  -2.28499994E-02   1.26375230E-10
  -2.28000004E-02   1.26376826E-10
  -2.27499995E-02   1.24966634E-10
  -2.27000006E-02   1.21699886E-10
  -2.26499997E-02   1.16505708E-10
  -2.26000007E-02   1.09697564E-10
  -2.25499999E-02   1.01810997E-10
  -2.25000009E-02   9.33378305E-11
  -2.24500000E-02   8.44737821E-11
  -2.23999992E-02   7.49936085E-11
  -2.23500002E-02   6.43131798E-11
  -2.22999994E-02   5.17143828E-11
  -2.22500004E-02   3.66359859E-11
  -2.21999995E-02   1.89008531E-11
  -2.21500006E-02  -1.22421062E-12
  -2.20999997E-02  -2.31659969E-11
  -2.20500007E-02  -4.63230843E-11
  -2.19999999E-02  -7.03618205E-11
  -2.19500009E-02  -9.53978563E-11
  -2.19000001E-02  -1.21978455E-10
  -2.18499992E-02  -1.50869831E-10
  -2.18000002E-02  -1.82739962E-10
  -2.17499994E-02  -2.17878285E-10
  -2.17000004E-02  -2.56078159E-10
  -2.16499995E-02  -2.96738772E-10
  -2.16000006E-02  -3.39145351E-10
  -2.15499997E-02  -3.82805260E-10
  -2.15000007E-02  -4.27689800E-10
  -2.14499999E-02  -4.74271789E-10
  -2.14000009E-02  -5.23336541E-10
  -2.13500001E-02  -5.75648751E-10
  -2.12999992E-02  -6.31619645E-10
  -2.12500002E-02  -6.91125712E-10
  -2.11999994E-02  -7.53562823E-10
  -2.11500004E-02  -8.18116852E-10
  -2.10999995E-02  -8.84131823E-10
  -2.10500006E-02  -9.51414059E-10
  -2.09999997E-02  -1.02033315E-09
  -2.09500007E-02  -1.09167098E-09
  -2.08999999E-02  -1.16628240E-09
  -2.08500009E-02  -1.24471478E-09
  -2.08000001E-02  -1.32695954E-09
  -2.07499992E-02  -1.41244594E-09
  -2.07000002E-02  -1.50029000E-09
  -2.06499994E-02  -1.58968327E-09
  -2.06000004E-02  -1.68025915E-09
  -2.05499995E-02  -1.77226311E-09
  -2.05000006E-02  -1.86645432E-09
  -2.04499997E-02  -1.96377248E-09
  -2.04000007E-02  -2.06491890E-09
  -2.03499999E-02  -2.17003726E-09
  -2.03000009E-02  -2.27863972E-09
  -2.02500001E-02  -2.38981657E-09
  -2.01999992E-02  -2.50263787E-09
  -2.01500002E-02  -2.61657385E-09
  -2.00999994E-02  -2.73174239E-09
  -2.00500004E-02  -2.84887092E-09
  -1.99999996E-02  -2.96898728E-09
  -1.99500006E-02  -3.09296988E-09
  -1.98999997E-02  -3.22116001E-09
  -1.98500007E-02  -3.35321015E-09
  -1.97999999E-02  -3.48823970E-09
  -1.97500009E-02  -3.62523700E-09
  -1.97000001E-02  -3.76352371E-09
  -1.96499992E-02  -3.90308497E-09
  -1.96000002E-02  -4.04460243E-09
  -1.95499994E-02  -4.18918411E-09
  -1.95000004E-02  -4.33789848E-09
  -1.94499996E-02  -4.49132020E-09
  -1.94000006E-02  -4.64929739E-09
  -1.93499997E-02  -4.81103779E-09
  -1.93000007E-02  -4.97549335E-09
  -1.92499999E-02  -5.14186160E-09
  -1.92000009E-02  -5.30999156E-09
  -1.91500001E-02  -5.48050538E-09
  -1.90999992E-02  -5.65457681E-09
  -1.90500002E-02  -5.83346749E-09
  -1.89999994E-02  -6.01801320E-09
  -1.89500004E-02  -6.20830276E-09
  -1.88999996E-02  -6.40368691E-09
  -1.88500006E-02  -6.60312338E-09
  -1.87999997E-02  -6.80570533E-09
  -1.87500007E-02  -7.01113878E-09
  -1.86999999E-02  -7.21995530E-09
  -1.86500009E-02  -7.43336237E-09
  -1.86000001E-02  -7.65279129E-09
  -1.85499992E-02  -7.87933896E-09
  -1.85000002E-02  -8.11336331E-09
  -1.84499994E-02  -8.35439984E-09
  -1.84000004E-02  -8.60144755E-09
  -1.83499996E-02  -8.85351348E-09
  -1.83000006E-02  -9.11015263E-09
  -1.82499997E-02  -9.37177624E-09
  -1.82000007E-02  -9.63958335E-09
  -1.81499999E-02  -9.91514160E-09
  -1.81000009E-02  -1.01998028E-08
  -1.80500001E-02  -1.04942046E-08
  -1.79999992E-02  -1.07980975E-08
  -1.79500002E-02  -1.11105551E-08
  -1.78999994E-02  -1.14305179E-08
  -1.78500004E-02  -1.17573737E-08
  -1.77999996E-02  -1.20913759E-08
  -1.77500006E-02  -1.24336568E-08
  -1.76999997E-02  -1.27858728E-08
  -1.76500008E-02  -1.31495970E-08
  -1.75999999E-02  -1.35257539E-08
  -1.75500009E-02  -1.39143301E-08
  -1.75000001E-02  -1.43145131E-08
  -1.74499992E-02  -1.47251900E-08
  -1.74000002E-02  -1.51455790E-08
  -1.73499994E-02  -1.55757363E-08
  -1.73000004E-02  -1.60166831E-08
  -1.72499996E-02  -1.64701124E-08
  -1.72000006E-02  -1.69377934E-08
  -1.71499997E-02  -1.74209305E-08
  -1.71000008E-02  -1.79197777E-08
  -1.70499999E-02  -1.84336759E-08
  -1.70000009E-02  -1.89614973E-08
  -1.69500001E-02  -1.95023020E-08
  -1.68999992E-02  -2.00559356E-08
  -1.68500002E-02  -2.06232649E-08
  -1.67999994E-02  -2.12059721E-08
  -1.67500004E-02  -2.18059792E-08
  -1.66999996E-02  -2.24247678E-08
  -1.66500006E-02  -2.30628796E-08
  -1.65999997E-02  -2.37198599E-08
  -1.65500008E-02  -2.43946072E-08
  -1.64999999E-02  -2.50860683E-08
  -1.64500009E-02  -2.57938737E-08
  -1.64000001E-02  -2.65187143E-08
  -1.63499992E-02  -2.72622227E-08
  -1.63000003E-02  -2.80264505E-08
  -1.62499994E-02  -2.88131545E-08
  -1.62000004E-02  -2.96232070E-08
  -1.61499996E-02  -3.04564090E-08
  -1.61000006E-02  -3.13117674E-08
  -1.60499997E-02  -3.21881473E-08
  -1.60000008E-02  -3.30850156E-08
  -1.59499999E-02  -3.40028663E-08
  -1.59000009E-02  -3.49432625E-08
  -1.58500001E-02  -3.59083714E-08
  -1.57999992E-02  -3.69002215E-08
  -1.57500003E-02  -3.79200529E-08
  -1.56999994E-02  -3.89679897E-08
  -1.56500004E-02  -4.00432150E-08
  -1.55999996E-02  -4.11446059E-08
  -1.55499997E-02  -4.22714770E-08
  -1.54999997E-02  -4.34241620E-08
  -1.54499998E-02  -4.46041390E-08
  -1.53999999E-02  -4.58136675E-08
  -1.53500000E-02  -4.70550674E-08
  -1.53000001E-02  -4.83299694E-08
  -1.52500002E-02  -4.96389028E-08
  -1.52000003E-02  -5.09813454E-08
  -1.51500003E-02  -5.23562562E-08
  -1.51000004E-02  -5.37628857E-08
  -1.50499996E-02  -5.52014257E-08
  -1.49999997E-02  -5.66732652E-08
  -1.49499997E-02  -5.81807384E-08
  -1.48999998E-02  -5.97264531E-08
  -1.48499999E-02  -6.13124840E-08
  -1.48000000E-02  -6.29398116E-08
  -1.47500001E-02  -6.46082725E-08
  -1.47000002E-02  -6.63170212E-08
  -1.46500003E-02  -6.80653045E-08
  -1.46000003E-02  -6.98532006E-08
  -1.45500004E-02  -7.16820310E-08
  -1.44999996E-02  -7.35541974E-08
  -1.44499997E-02  -7.54725917E-08
  -1.43999998E-02  -7.74397080E-08
  -1.43499998E-02  -7.94570596E-08
  -1.42999999E-02  -8.15249166E-08
  -1.42500000E-02  -8.36427105E-08
  -1.42000001E-02  -8.58097664E-08
  -1.41500002E-02  -8.80261055E-08
  -1.41000003E-02  -9.02929642E-08
  -1.40500003E-02  -9.26127939E-08
  -1.40000004E-02  -9.49886996E-08
  -1.39499996E-02  -9.74236443E-08
  -1.38999997E-02  -9.99196672E-08
  -1.38499998E-02  -1.02477564E-07
  -1.37999998E-02  -1.05097094E-07
  -1.37499999E-02  -1.07777744E-07
  -1.37000000E-02  -1.10519473E-07
  -1.36500001E-02  -1.13323459E-07
  -1.36000002E-02  -1.16192169E-07
  -1.35500003E-02  -1.19128899E-07
  -1.35000004E-02  -1.22137024E-07
  -1.34500004E-02  -1.25219117E-07
  -1.33999996E-02  -1.28376556E-07
  -1.33499997E-02  -1.31609497E-07
  -1.32999998E-02  -1.34917627E-07
  -1.32499998E-02  -1.38300976E-07
  -1.31999999E-02  -1.41760594E-07
  -1.31500000E-02  -1.45298927E-07
  -1.31000001E-02  -1.48919412E-07
  -1.30500002E-02  -1.52625788E-07
  -1.30000003E-02  -1.56421180E-07
  -1.29500004E-02  -1.60307536E-07
  -1.29000004E-02  -1.64285538E-07
  -1.28499996E-02  -1.68355115E-07
  -1.27999997E-02  -1.72516380E-07
  -1.27499998E-02  -1.76770328E-07
  -1.26999998E-02  -1.81119319E-07
  -1.26499999E-02  -1.85566876E-07
  -1.26000000E-02  -1.90117063E-07
  -1.25500001E-02  -1.94773548E-07
  -1.25000002E-02  -1.99538775E-07
  -1.24500003E-02  -2.04414022E-07
  -1.24000004E-02  -2.09399573E-07
  -1.23500004E-02  -2.14495643E-07
  -1.22999996E-02  -2.19703210E-07
  -1.22499997E-02  -2.25024522E-07
  -1.21999998E-02  -2.30463201E-07
  -1.21499998E-02  -2.36023524E-07
  -1.20999999E-02  -2.41709643E-07
  -1.20500000E-02  -2.47524696E-07
  -1.20000001E-02  -2.53470461E-07
  -1.19500002E-02  -2.59547733E-07
  -1.19000003E-02  -2.65756853E-07
  -1.18500004E-02  -2.72098760E-07
  -1.18000004E-02  -2.78575612E-07
  -1.17499996E-02  -2.85191021E-07
  -1.16999997E-02  -2.91949419E-07
  -1.16499998E-02  -2.98855440E-07
  -1.15999999E-02  -3.05912891E-07
  -1.15499999E-02  -3.13124161E-07
  -1.15000000E-02  -3.20490443E-07
  -1.14500001E-02  -3.28012476E-07
  -1.14000002E-02  -3.35691254E-07
  -1.13500003E-02  -3.43528910E-07
  -1.13000004E-02  -3.51528968E-07
  -1.12500004E-02  -3.59696088E-07
  -1.11999996E-02  -3.68035217E-07
  -1.11499997E-02  -3.76550673E-07
  -1.10999998E-02  -3.85245670E-07
  -1.10499999E-02  -3.94121940E-07
  -1.09999999E-02  -4.03180564E-07
  -1.09500000E-02  -4.12422651E-07
  -1.09000001E-02  -4.21850160E-07
  -1.08500002E-02  -4.31466589E-07
  -1.08000003E-02  -4.41276597E-07
  -1.07500004E-02  -4.51285558E-07
  -1.07000005E-02  -4.61498473E-07
  -1.06499996E-02  -4.71919293E-07
  -1.05999997E-02  -4.82550377E-07
  -1.05499998E-02  -4.93393202E-07
  -1.04999999E-02  -5.04449019E-07
  -1.04499999E-02  -5.15719989E-07
  -1.04000000E-02  -5.27209352E-07
  -1.03500001E-02  -5.38921881E-07
  -1.03000002E-02  -5.50863206E-07
  -1.02500003E-02  -5.63038896E-07
  -1.02000004E-02  -5.75453498E-07
  -1.01500005E-02  -5.88110026E-07
  -1.00999996E-02  -6.01010640E-07
  -1.00499997E-02  -6.14156647E-07
  -9.99999978E-03  -6.27550378E-07
  -9.94999986E-03  -6.41195015E-07
  -9.89999995E-03  -6.55095164E-07
  -9.85000003E-03  -6.69256792E-07
  -9.80000012E-03  -6.83685755E-07
  -9.75000020E-03  -6.98387453E-07
  -9.70000029E-03  -7.13365523E-07
  -9.65000037E-03  -7.28622751E-07
  -9.60000046E-03  -7.44160957E-07
  -9.54999961E-03  -7.59982242E-07
  -9.49999969E-03  -7.76089962E-07
  -9.44999978E-03  -7.92488663E-07
  -9.39999986E-03  -8.09184257E-07
  -9.34999995E-03  -8.26182998E-07
  -9.30000003E-03  -8.43490739E-07
  -9.25000012E-03  -8.61112255E-07
  -9.20000020E-03  -8.79050560E-07
  -9.15000029E-03  -8.97308041E-07
  -9.10000037E-03  -9.15887028E-07
  -9.05000046E-03  -9.34790535E-07
  -8.99999961E-03  -9.54023108E-07
  -8.94999970E-03  -9.73590431E-07
  -8.89999978E-03  -9.93499043E-07
  -8.84999987E-03  -1.01375531E-06
  -8.79999995E-03  -1.03436457E-06
  -8.75000004E-03  -1.05533059E-06
  -8.70000012E-03  -1.07665630E-06
  -8.65000021E-03  -1.09834411E-06
  -8.60000029E-03  -1.12039709E-06
  -8.55000038E-03  -1.14281931E-06
  -8.50000046E-03  -1.16561682E-06
  -8.44999962E-03  -1.18879586E-06
  -8.39999970E-03  -1.21236326E-06
  -8.34999979E-03  -1.23632503E-06
  -8.29999987E-03  -1.26068551E-06
  -8.24999996E-03  -1.28544843E-06
  -8.20000004E-03  -1.31061608E-06
  -8.15000013E-03  -1.33619142E-06
  -8.10000021E-03  -1.36217830E-06
  -8.05000030E-03  -1.38858195E-06
  -8.00000038E-03  -1.41540920E-06
  -7.95000046E-03  -1.44266687E-06
  -7.89999962E-03  -1.47036121E-06
  -7.84999970E-03  -1.49849757E-06
  -7.79999979E-03  -1.52707992E-06
  -7.74999987E-03  -1.55611099E-06
  -7.69999996E-03  -1.58559340E-06
  -7.65000004E-03  -1.61553078E-06
  -7.60000013E-03  -1.64592780E-06
  -7.55000021E-03  -1.67679127E-06
  -7.49999983E-03  -1.70812757E-06
  -7.44999992E-03  -1.73994374E-06
  -7.40000000E-03  -1.77224581E-06
  -7.35000009E-03  -1.80503798E-06
  -7.30000017E-03  -1.83832321E-06
  -7.24999979E-03  -1.87210446E-06
  -7.19999988E-03  -1.90638468E-06
  -7.14999996E-03  -1.94116797E-06
  -7.10000005E-03  -1.97646023E-06
  -7.05000013E-03  -2.01226840E-06
  -7.00000022E-03  -2.04859930E-06
  -6.94999984E-03  -2.08545930E-06
  -6.89999992E-03  -2.12285272E-06
  -6.85000001E-03  -2.16078320E-06
  -6.80000009E-03  -2.19925300E-06
  -6.75000018E-03  -2.23826441E-06
  -6.69999979E-03  -2.27782084E-06
  -6.64999988E-03  -2.31792774E-06
  -6.59999996E-03  -2.35859102E-06
  -6.55000005E-03  -2.39981796E-06
  -6.50000013E-03  -2.44161538E-06
  -6.45000022E-03  -2.48398760E-06
  -6.39999984E-03  -2.52693803E-06
  -6.34999992E-03  -2.57046918E-06
  -6.30000001E-03  -2.61458240E-06
  -6.25000009E-03  -2.65928088E-06
  -6.20000018E-03  -2.70456826E-06
  -6.14999980E-03  -2.75045045E-06
  -6.09999988E-03  -2.79693427E-06
  -6.04999997E-03  -2.84402563E-06
  -6.00000005E-03  -2.89172954E-06
  -5.95000014E-03  -2.94004872E-06
  -5.90000022E-03  -2.98898522E-06
  -5.84999984E-03  -3.03854017E-06
  -5.79999993E-03  -3.08871518E-06
  -5.75000001E-03  -3.13951296E-06
  -5.70000010E-03  -3.19093829E-06
  -5.65000018E-03  -3.24299663E-06
  -5.59999980E-03  -3.29569366E-06
  -5.54999989E-03  -3.34903461E-06
  -5.49999997E-03  -3.40302154E-06
  -5.45000006E-03  -3.45765557E-06
  -5.40000014E-03  -3.51293716E-06
  -5.35000023E-03  -3.56886585E-06
  -5.29999984E-03  -3.62544438E-06
  -5.24999993E-03  -3.68267547E-06
  -5.20000001E-03  -3.74056276E-06
  -5.15000010E-03  -3.79911125E-06
  -5.10000018E-03  -3.85832527E-06
  -5.04999980E-03  -3.91820640E-06
  -4.99999989E-03  -3.97875601E-06
  -4.94999997E-03  -4.03997274E-06
  -4.90000006E-03  -4.10185521E-06
  -4.85000014E-03  -4.16440253E-06
  -4.80000023E-03  -4.22761650E-06
  -4.74999985E-03  -4.29149895E-06
  -4.69999993E-03  -4.35605261E-06
  -4.65000002E-03  -4.42128021E-06
  -4.60000010E-03  -4.48718447E-06
  -4.55000019E-03  -4.55376403E-06
  -4.49999981E-03  -4.62101752E-06
  -4.44999989E-03  -4.68894041E-06
  -4.39999998E-03  -4.75753086E-06
  -4.35000006E-03  -4.82678706E-06
  -4.30000015E-03  -4.89670856E-06
  -4.25000023E-03  -4.96729626E-06
  -4.19999985E-03  -5.03855199E-06
  -4.14999994E-03  -5.11047620E-06
  -4.10000002E-03  -5.18306751E-06
  -4.05000011E-03  -5.25632140E-06
  -4.00000019E-03  -5.33023376E-06
  -3.94999981E-03  -5.40479687E-06
  -3.89999989E-03  -5.48000708E-06
  -3.84999998E-03  -5.55586121E-06
  -3.80000006E-03  -5.63235790E-06
  -3.74999992E-03  -5.70949715E-06
  -3.70000000E-03  -5.78727577E-06
  -3.65000009E-03  -5.86569195E-06
  -3.59999994E-03  -5.94473931E-06
  -3.55000002E-03  -6.02441014E-06
  -3.50000011E-03  -6.10469624E-06
  -3.44999996E-03  -6.18558943E-06
  -3.40000005E-03  -6.26708243E-06
  -3.34999990E-03  -6.34917069E-06
  -3.29999998E-03  -6.43185058E-06
  -3.25000007E-03  -6.51511755E-06
  -3.19999992E-03  -6.59896705E-06
  -3.15000000E-03  -6.68339135E-06
  -3.10000009E-03  -6.76837954E-06
  -3.04999994E-03  -6.85392024E-06
  -3.00000003E-03  -6.94000073E-06
  -2.95000011E-03  -7.02661191E-06
  -2.89999996E-03  -7.11374469E-06
  -2.85000005E-03  -7.20139178E-06
  -2.79999990E-03  -7.28954592E-06
  -2.74999999E-03  -7.37819892E-06
  -2.70000007E-03  -7.46733986E-06
  -2.64999992E-03  -7.55695646E-06
  -2.60000001E-03  -7.64703418E-06
  -2.55000009E-03  -7.73755437E-06
  -2.49999994E-03  -7.82850475E-06
  -2.45000003E-03  -7.91986986E-06
  -2.40000011E-03  -8.01163878E-06
  -2.34999997E-03  -8.10380061E-06
  -2.30000005E-03  -8.19634533E-06
  -2.24999990E-03  -8.28925931E-06
  -2.19999999E-03  -8.38252527E-06
  -2.15000007E-03  -8.47612409E-06
  -2.09999993E-03  -8.57003488E-06
  -2.05000001E-03  -8.66423761E-06
  -2.00000009E-03  -8.75871410E-06
  -1.94999995E-03  -8.85344798E-06
  -1.90000003E-03  -8.94842378E-06
  -1.85000000E-03  -9.04362787E-06
  -1.79999997E-03  -9.13904296E-06
  -1.75000005E-03  -9.23464904E-06
  -1.70000002E-03  -9.33042338E-06
  -1.64999999E-03  -9.42633960E-06
  -1.59999996E-03  -9.52237042E-06
  -1.55000004E-03  -9.61849310E-06
  -1.50000001E-03  -9.71468671E-06
  -1.44999998E-03  -9.81093126E-06
  -1.39999995E-03  -9.90720764E-06
  -1.35000004E-03  -1.00034958E-05
  -1.30000000E-03  -1.00997713E-05
  -1.24999997E-03  -1.01960059E-05
  -1.20000006E-03  -1.02921667E-05
  -1.15000003E-03  -1.03882230E-05
  -1.09999999E-03  -1.04841447E-05
  -1.04999996E-03  -1.05799036E-05
  -1.00000005E-03  -1.06754760E-05
  -9.50000016E-04  -1.07708402E-05
  -8.99999985E-04  -1.08659697E-05
  -8.50000011E-04  -1.09608345E-05
  -7.99999980E-04  -1.10554038E-05
  -7.50000007E-04  -1.11496392E-05
  -6.99999975E-04  -1.12435027E-05
  -6.50000002E-04  -1.13369579E-05
  -6.00000028E-04  -1.14299701E-05
  -5.49999997E-04  -1.15225112E-05
  -5.00000024E-04  -1.16145520E-05
  -4.49999992E-04  -1.17060627E-05
  -3.99999990E-04  -1.17970130E-05
  -3.49999988E-04  -1.18873595E-05
  -3.00000014E-04  -1.19770621E-05
  -2.50000012E-04  -1.20660743E-05
  -1.99999995E-04  -1.21543535E-05
  -1.50000007E-04  -1.22418605E-05
  -9.99999975E-05  -1.23285572E-05
  -4.99999987E-05  -1.24144090E-05
   0.00000000      -1.24993830E-05
   4.99999987E-05  -1.25834413E-05
   9.99999975E-05  -1.26665400E-05
   1.50000007E-04  -1.27486319E-05
   1.99999995E-04  -1.28296642E-05
   2.50000012E-04  -1.29095870E-05
   3.00000014E-04  -1.29883520E-05
   3.49999988E-04  -1.30659137E-05
   3.99999990E-04  -1.31422348E-05
   4.49999992E-04  -1.32172745E-05
   5.00000024E-04  -1.32909927E-05
   5.49999997E-04  -1.33633393E-05
   6.00000028E-04  -1.34342617E-05
   6.50000002E-04  -1.35037017E-05
   6.99999975E-04  -1.35716000E-05
   7.50000007E-04  -1.36378994E-05
   7.99999980E-04  -1.37025499E-05
   8.50000011E-04  -1.37655070E-05
   8.99999985E-04  -1.38267260E-05
   9.50000016E-04  -1.38861596E-05
   1.00000005E-03  -1.39437561E-05
   1.04999996E-03  -1.39994554E-05
   1.09999999E-03  -1.40531938E-05
   1.15000003E-03  -1.41049040E-05
   1.20000006E-03  -1.41545233E-05
   1.24999997E-03  -1.42019971E-05
   1.30000000E-03  -1.42472691E-05
   1.35000004E-03  -1.42902873E-05
   1.39999995E-03  -1.43310008E-05
   1.44999998E-03  -1.43693514E-05
   1.50000001E-03  -1.44052783E-05
   1.55000004E-03  -1.44387122E-05
   1.59999996E-03  -1.44695841E-05
   1.64999999E-03  -1.44978212E-05
   1.70000002E-03  -1.45233580E-05
   1.75000005E-03  -1.45461299E-05
   1.79999997E-03  -1.45660842E-05
   1.85000000E-03  -1.45831627E-05
   1.90000003E-03  -1.45973063E-05
   1.94999995E-03  -1.46084476E-05
   2.00000009E-03  -1.46165112E-05
   2.05000001E-03  -1.46214225E-05
   2.09999993E-03  -1.46231014E-05
   2.15000007E-03  -1.46214752E-05
   2.19999999E-03  -1.46164766E-05
   2.24999990E-03  -1.46080429E-05
   2.30000005E-03  -1.45961112E-05
   2.34999997E-03  -1.45806171E-05
   2.40000011E-03  -1.45614922E-05
   2.45000003E-03  -1.45386584E-05
   2.49999994E-03  -1.45120366E-05
   2.55000009E-03  -1.44815394E-05
   2.60000001E-03  -1.44470869E-05
   2.64999992E-03  -1.44086043E-05
   2.70000007E-03  -1.43660236E-05
   2.74999999E-03  -1.43192783E-05
   2.79999990E-03  -1.42683020E-05