  -3.99999991E-02   0.00000000    
  -3.99499983E-02   0.00000000    
  -3.99000011E-02   0.00000000    
  -3.98500003E-02   0.00000000    
  -3.97999994E-02   5.45410857E-22
  -3.97499986E-02   4.73762809E-21
  -3.97000015E-02   2.16351351E-20
  -3.96500006E-02   6.75879843E-20
  -3.95999998E-02   1.57758684E-19
  -3.95499989E-02   2.79191293E-19
  -3.95000018E-02   3.43582676E-19
  -3.94500010E-02   1.32769325E-19
  -3.94000001E-02  -7.32813212E-19
  -3.93499993E-02  -2.76394440E-18
  -3.92999984E-02  -6.48496283E-18
  -3.92500013E-02  -1.22438050E-17
  -3.92000005E-02  -2.00232054E-17
  -3.91499996E-02  -2.93701164E-17
  -3.90999988E-02  -3.95475977E-17
  -3.90500017E-02  -4.99226793E-17
  -3.90000008E-02  -6.04622044E-17
  -3.89500000E-02  -7.20925160E-17
  -3.88999991E-02  -8.66744529E-17
  -3.88499983E-02  -1.06489260E-16
  -3.88000011E-02  -1.33375925E-16
  -3.87500003E-02  -1.67886761E-16
  -3.86999995E-02  -2.08903948E-16
  -3.86499986E-02  -2.54014037E-16
  -3.86000015E-02  -3.00600214E-16
  -3.85500006E-02  -3.47225010E-16
  -3.84999998E-02  -3.94630903E-16
  -3.84499989E-02  -4.45749659E-16
  -3.84000018E-02  -5.04512782E-16
  -3.83500010E-02  -5.73847087E-16
  -3.83000001E-02  -6.53727853E-16
  -3.82499993E-02  -7.40261533E-16
  -3.81999984E-02  -8.26372278E-16
  -3.81500013E-02  -9.03926244E-16
  -3.81000005E-02  -9.66410277E-16
  -3.80499996E-02  -1.01095193E-15
  -3.79999988E-02  -1.03872053E-15
  -3.79500017E-02  -1.05347023E-15
  -3.79000008E-02  -1.05885619E-15
  -3.78500000E-02  -1.05573827E-15
  -3.77999991E-02  -1.04070894E-15
  -3.77499983E-02  -1.00650373E-15
  -3.77000012E-02  -9.44056230E-16
  -3.76500003E-02  -8.45199068E-16
  -3.75999995E-02  -7.04787422E-16
  -3.75499986E-02  -5.21434382E-16
  -3.75000015E-02  -2.96821891E-16
  -3.74500006E-02  -3.41994946E-17
  -3.73999998E-02   2.63155402E-16
  -3.73499990E-02   5.93075158E-16
  -3.73000018E-02   9.55284287E-16
  -3.72500010E-02   1.35207062E-15
  -3.72000001E-02   1.78880060E-15
  -3.71499993E-02   2.27367466E-15
  -3.70999984E-02   2.81580158E-15
  -3.70500013E-02   3.42106147E-15
  -3.70000005E-02   4.08647446E-15
  -3.69499996E-02   4.79534701E-15
  -3.68999988E-02   5.51641430E-15
  -3.68500017E-02   6.20950790E-15
  -3.68000008E-02   6.83762180E-15
  -3.67500000E-02   7.38147963E-15
  -3.66999991E-02   7.84972029E-15
  -3.66499983E-02   8.27774044E-15
  -3.66000012E-02   8.71213282E-15
  -3.65500003E-02   9.18454257E-15
  -3.64999995E-02   9.68554731E-15
  -3.64499986E-02   1.01520871E-14
  -3.64000015E-02   1.04784574E-14
  -3.63500006E-02   1.05511625E-14
  -3.62999998E-02   1.02957659E-14
  -3.62499990E-02   9.71501728E-15
  -3.62000018E-02   8.89737384E-15
  -3.61500010E-02   7.98559793E-15
  -3.61000001E-02   7.11325394E-15
  -3.60499993E-02   6.33470530E-15
  -3.59999985E-02   5.58247355E-15
  -3.59500013E-02   4.67824767E-15
  -3.59000005E-02   3.40150284E-15
  -3.58499996E-02   1.59136463E-15
  -3.57999988E-02  -7.63476906E-16
  -3.57500017E-02  -3.49347706E-15
  -3.57000008E-02  -6.30050381E-15
  -3.56500000E-02  -8.88083637E-15
  -3.55999991E-02  -1.10687309E-14
  -3.55499983E-02  -1.29322670E-14
  -3.55000012E-02  -1.47663593E-14
  -3.54500003E-02  -1.69705982E-14
  -3.53999995E-02  -1.98550672E-14
  -3.53499986E-02  -2.34595787E-14
  -3.53000015E-02  -2.74777386E-14
  -3.52500007E-02  -3.13386639E-14
  -3.51999998E-02  -3.44289349E-14
  -3.51499990E-02  -3.63660450E-14
  -3.51000018E-02  -3.71974011E-14
  -3.50500010E-02  -3.74185343E-14
  -3.50000001E-02  -3.77783267E-14
  -3.49499993E-02  -3.89385450E-14
  -3.48999985E-02  -4.11341324E-14
  -3.48500013E-02  -4.39985945E-14
  -3.48000005E-02  -4.66590911E-14
  -3.47499996E-02  -4.80878053E-14
  -3.46999988E-02  -4.75706443E-14
  -3.46500017E-02  -4.50813906E-14
  -3.46000008E-02  -4.13707121E-14
  -3.45500000E-02  -3.76952294E-14
  -3.44999991E-02  -3.52766319E-14
  -3.44499983E-02  -3.47200465E-14
  -3.44000012E-02  -3.56648135E-14
  -3.43500003E-02  -3.68584252E-14
  -3.42999995E-02  -3.66620186E-14
  -3.42499986E-02  -3.37910242E-14
  -3.42000015E-02  -2.79626921E-14
  -3.41500007E-02  -2.01342442E-14
  -3.40999998E-02  -1.21793572E-14
  -3.40499990E-02  -6.10340305E-15
  -3.40000018E-02  -3.12646785E-15
  -3.39500010E-02  -3.05640806E-15
  -3.39000002E-02  -4.27465468E-15
  -3.38499993E-02  -4.39538187E-15
  -3.37999985E-02  -1.34448184E-15
  -3.37500013E-02   5.61639045E-15
  -3.37000005E-02   1.54106837E-14
  -3.36499996E-02   2.54868402E-14
  -3.35999988E-02   3.28870876E-14
  -3.35500017E-02   3.56026481E-14
  -3.35000008E-02   3.36000454E-14
  -3.34500000E-02   2.90070397E-14
  -3.33999991E-02   2.53011401E-14
  -3.33499983E-02   2.58008387E-14
  -3.33000012E-02   3.21124217E-14
  -3.32500003E-02   4.32575322E-14
  -3.31999995E-02   5.59433989E-14
  -3.31499986E-02   6.59363989E-14
  -3.31000015E-02   6.99795446E-14
  -3.30500007E-02   6.73972935E-14
  -3.29999998E-02   6.06140572E-14
  -3.29499990E-02   5.42637495E-14
  -3.29000019E-02   5.32027933E-14
  -3.28500010E-02   6.02735635E-14
  -3.28000002E-02   7.48419203E-14
  -3.27499993E-02   9.28434711E-14
  -3.26999985E-02   1.08420814E-13
  -3.26500013E-02   1.16498892E-13
  -3.26000005E-02   1.15165432E-13
  -3.25499997E-02   1.06739040E-13
  -3.24999988E-02   9.69441948E-14
  -3.24500017E-02   9.24530702E-14
  -3.24000008E-02   9.78277992E-14
  -3.23500000E-02   1.13238507E-13
  -3.22999991E-02   1.34058400E-13
  -3.22499983E-02   1.52636110E-13
  -3.22000012E-02   1.61556166E-13
  -3.21500003E-02   1.56970370E-13
  -3.20999995E-02   1.40467052E-13
  -3.20499986E-02   1.18531826E-13
  -3.20000015E-02   9.97133013E-14
  -3.19500007E-02   9.06729390E-14
  -3.18999998E-02   9.28802730E-14
  -3.18499990E-02   1.01514520E-13
  -3.18000019E-02   1.07202916E-13
  -3.17500010E-02   9.99533030E-14
  -3.17000002E-02   7.35940782E-14
  -3.16499993E-02   2.87107747E-14
  -3.15999985E-02  -2.73470499E-14
  -3.15500014E-02  -8.35429883E-14
  -3.15000005E-02  -1.30061218E-13
  -3.14499997E-02  -1.62884951E-13
  -3.13999988E-02  -1.85928286E-13
  -3.13500017E-02  -2.09619824E-13
  -3.13000008E-02  -2.46408335E-13
  -3.12500000E-02  -3.05094437E-13
  -3.11999992E-02  -3.86522709E-13
  -3.11500002E-02  -4.82667942E-13
  -3.10999993E-02  -5.79694875E-13
  -3.10500003E-02  -6.63782614E-13
  -3.09999995E-02  -7.27185293E-13
  -3.09500005E-02  -7.71776794E-13
  -3.08999997E-02  -8.08347150E-13
  -3.08500007E-02  -8.51777091E-13
  -3.07999998E-02  -9.14101260E-13
  -3.07500008E-02  -9.98520494E-13
  -3.07000000E-02  -1.09712814E-12
  -3.06499992E-02  -1.19354353E-12
  -3.06000002E-02  -1.26947151E-12
  -3.05499993E-02  -1.31237913E-12
  -3.05000003E-02  -1.32086464E-12
  -3.04499995E-02  -1.30519651E-12
  -3.04000005E-02  -1.28259426E-12
  -3.03499997E-02  -1.26918864E-12
  -3.03000007E-02  -1.27217800E-12
  -3.02499998E-02  -1.28574928E-12
  -3.02000009E-02  -1.29276125E-12
  -3.01500000E-02  -1.27165596E-12
  -3.00999992E-02  -1.20567423E-12
  -3.00500002E-02  -1.09029994E-12
  -2.99999993E-02  -9.35503736E-13
  -2.99500003E-02  -7.61586595E-13
  -2.98999995E-02  -5.90268286E-13
  -2.98500005E-02  -4.34879807E-13
  -2.97999997E-02  -2.94056500E-13
  -2.97500007E-02  -1.51908854E-13
  -2.96999998E-02   1.51736432E-14
  -2.96500009E-02   2.27916888E-13
  -2.96000000E-02   4.94401286E-13
  -2.95499992E-02   8.05569424E-13
  -2.95000002E-02   1.13820650E-12
  -2.94499993E-02   1.46430036E-12
  -2.94000003E-02   1.76277938E-12
  -2.93499995E-02   2.02842105E-12
  -2.93000005E-02   2.27382566E-12
  -2.92499997E-02   2.52333983E-12
  -2.92000007E-02   2.80140342E-12
  -2.91499998E-02   3.12037830E-12
  -2.91000009E-02   3.47332536E-12
  -2.90500000E-02   3.83514271E-12
  -2.89999992E-02   4.17183128E-12
  -2.89500002E-02   4.45400531E-12
  -2.88999993E-02   4.66872808E-12
  -2.88500004E-02   4.82434015E-12
  -2.87999995E-02   4.94590827E-12
  -2.87500005E-02   5.06307756E-12
  -2.86999997E-02   5.19555449E-12
  -2.86500007E-02   5.34267075E-12
  -2.85999998E-02   5.48182853E-12
  -2.85500009E-02   5.57679033E-12
  -2.85000000E-02   5.59238550E-12
  -2.84499992E-02   5.50923716E-12
  -2.84000002E-02   5.33193238E-12
  -2.83499993E-02   5.08680468E-12
  -2.83000004E-02   4.81005210E-12
  -2.82499995E-02   4.53126599E-12
  -2.82000005E-02   4.25962867E-12
  -2.81499997E-02   3.97904669E-12
  -2.81000007E-02   3.65464169E-12
  -2.80499998E-02   3.24800234E-12
  -2.80000009E-02   2.73460269E-12
  -2.79500000E-02   2.11566051E-12
  -2.78999992E-02   1.41899047E-12
  -2.78500002E-02   6.88204539E-13
  -2.77999993E-02  -3.51917456E-14
  -2.77500004E-02  -7.28968752E-13
  -2.76999995E-02  -1.39890562E-12
  -2.76500005E-02  -2.07497843E-12
  -2.75999997E-02  -2.79641739E-12
  -2.75500007E-02  -3.59206783E-12
  -2.74999999E-02  -4.46475409E-12
  -2.74500009E-02  -5.38675658E-12
  -2.74000000E-02  -6.30871223E-12
  -2.73499992E-02  -7.17827273E-12
  -2.73000002E-02  -7.96042312E-12
  -2.72499993E-02  -8.65040505E-12
  -2.72000004E-02  -9.27332690E-12
  -2.71499995E-02  -9.87033892E-12
  -2.71000005E-02  -1.04772866E-11
  -2.70499997E-02  -1.11052487E-11
  -2.70000007E-02  -1.17317172E-11
  -2.69499999E-02  -1.23066037E-11
  -2.69000009E-02  -1.27707246E-11
  -2.68500000E-02  -1.30787525E-11
  -2.67999992E-02  -1.32164965E-11
  -2.67500002E-02  -1.32046873E-11
  -2.66999993E-02  -1.30873567E-11
  -2.66500004E-02  -1.29097609E-11
  -2.65999995E-02  -1.26955607E-11
  -2.65500005E-02  -1.24335186E-11
  -2.64999997E-02  -1.20798293E-11
  -2.64500007E-02  -1.15753813E-11
  -2.63999999E-02  -1.08704616E-11
  -2.63500009E-02  -9.94600756E-12
  -2.63000000E-02  -8.82184863E-12
  -2.62499992E-02  -7.54807241E-12
  -2.62000002E-02  -6.18314861E-12
  -2.61499994E-02  -4.76844519E-12
  -2.61000004E-02  -3.31054433E-12
  -2.60499995E-02  -1.77940583E-12
  -2.60000005E-02  -1.23439453E-13
  -2.59499997E-02   1.70505775E-12
  -2.59000007E-02   3.72538545E-12
  -2.58499999E-02   5.91586502E-12
  -2.58000009E-02   8.21901054E-12
  -2.57500000E-02   1.05623192E-11
  -2.56999992E-02   1.28855199E-11
  -2.56500002E-02   1.51620695E-11
  -2.55999994E-02   1.74051589E-11
  -2.55500004E-02   1.96553537E-11
  -2.54999995E-02   2.19552501E-11
  -2.54500005E-02   2.43224312E-11
  -2.53999997E-02   2.67329509E-11
  -2.53500007E-02   2.91228777E-11
  -2.52999999E-02   3.14074426E-11
  -2.52500009E-02   3.35093064E-11
  -2.52000000E-02   3.53833490E-11
  -2.51499992E-02   3.70267775E-11
  -2.51000002E-02   3.84699807E-11
  -2.50499994E-02   3.97521738E-11
  -2.50000004E-02   4.08927996E-11
  -2.49499995E-02   4.18716971E-11
  -2.49000005E-02   4.26270720E-11
  -2.48499997E-02   4.30723686E-11
  -2.48000007E-02   4.31245421E-11
  -2.47499999E-02   4.27310340E-11
  -2.47000009E-02   4.18832573E-11
  -2.46500000E-02   4.06105288E-11
  -2.45999992E-02   3.89572402E-11
  -2.45500002E-02   3.69536624E-11
  -2.44999994E-02   3.45937654E-11
  -2.44500004E-02   3.18302190E-11
  -2.43999995E-02   2.85889177E-11
  -2.43500005E-02   2.47965311E-11
  -2.42999997E-02   2.04085221E-11
  -2.42500007E-02   1.54249634E-11
  -2.41999999E-02   9.88700007E-12
  -2.41500009E-02   3.85572650E-12
  -2.41000000E-02  -2.61667597E-12
  -2.40499992E-02  -9.51016436E-12
  -2.40000002E-02  -1.68436185E-11
  -2.39499994E-02  -2.46620363E-11
  -2.39000004E-02  -3.30100253E-11
  -2.38499995E-02  -4.19038346E-11
  -2.38000005E-02  -5.13148447E-11
  -2.37499997E-02  -6.11721368E-11
  -2.37000007E-02  -7.13828649E-11
  -2.36499999E-02  -8.18608584E-11
  -2.36000009E-02  -9.25501203E-11
  -2.35500000E-02  -1.03432173E-10
  -2.34999992E-02  -1.14513815E-10
  -2.34500002E-02  -1.25801064E-10
  -2.33999994E-02  -1.37271472E-10
  -2.33500004E-02  -1.48857926E-10
  -2.32999995E-02  -1.60451527E-10
  -2.32500006E-02  -1.71922226E-10
  -2.31999997E-02  -1.83147580E-10
  -2.31500007E-02  -1.94035801E-10
  -2.30999999E-02  -2.04532447E-10
  -2.30500009E-02  -2.14607235E-10
  -2.30000000E-02  -2.24227428E-10
  -2.29499992E-02  -2.33330494E-10
  -2.29000002E-02  -2.41809045E-10
  -2.28499994E-02  -2.49515852E-10
  -2.28000004E-02  -2.56286548E-10
  -2.27499995E-02  -2.61969363E-10
  -2.27000006E-02  -2.66448086E-10
  -2.26499997E-02  -2.69646638E-10
  -2.26000007E-02  -2.71513201E-10
  -2.25499999E-02  -2.71991207E-10
  -2.25000009E-02  -2.70991479E-10
  -2.24500000E-02  -2.68378847E-10
  -2.23999992E-02  -2.63980476E-10
  -2.23500002E-02  -2.57612875E-10
  -2.22999994E-02  -2.49114340E-10
  -2.22500004E-02  -2.38367825E-10
  -2.21999995E-02  -2.25302610E-10
  -2.21500006E-02  -2.09872994E-10
  -2.20999997E-02  -1.92024480E-10
  -2.20500007E-02  -1.71662740E-10
  -2.19999999E-02  -1.48641599E-10
  -2.19500009E-02  -1.22776248E-10
  -2.19000001E-02  -9.38768646E-11
  -2.18499992E-02  -6.17871310E-11
  -2.18000002E-02  -2.64092723E-11
  -2.17499994E-02   1.22972084E-11
  -2.17000004E-02   5.43434429E-11
  -2.16499995E-02   9.97536220E-11
  -2.16000006E-02   1.48601756E-10
  -2.15499997E-02   2.01025002E-10
  -2.15000007E-02   2.57205146E-10
  -2.14499999E-02   3.17326387E-10
  -2.14000009E-02   3.81527143E-10
  -2.13500001E-02   4.49870419E-10
  -2.12999992E-02   5.22345944E-10
  -2.12500002E-02   5.98906091E-10
  -2.11999994E-02   6.79519496E-10
  -2.11500004E-02   7.64218300E-10
  -2.10999995E-02   8.53115467E-10
  -2.10500006E-02   9.46382972E-10
  -2.09999997E-02   1.04419884E-09
  -2.09500007E-02   1.14668719E-09
  -2.08999999E-02   1.25387833E-09
  -2.08500009E-02   1.36570955E-09
  -2.08000001E-02   1.48206858E-09
  -2.07499992E-02   1.60285984E-09
  -2.07000002E-02   1.72806747E-09
  -2.06499994E-02   1.85777915E-09
  -2.06000004E-02   1.99216421E-09
  -2.05499995E-02   2.13140927E-09
  -2.05000006E-02   2.27564256E-09
  -2.04499997E-02   2.42487941E-09
  -2.04000007E-02   2.57901811E-09
  -2.03499999E-02   2.73788747E-09
  -2.03000009E-02   2.90133162E-09
  -2.02500001E-02   3.06928793E-09
  -2.01999992E-02   3.24182858E-09
  -2.01500002E-02   3.41914053E-09
  -2.00999994E-02   3.60145069E-09
  -2.00500004E-02   3.78893183E-09
  -1.99999996E-02   3.98162792E-09
  -1.99500006E-02   4.17943546E-09
  -1.98999997E-02   4.38215642E-09
  -1.98500007E-02   4.58959493E-09
  -1.97999999E-02   4.80165996E-09
  -1.97500009E-02   5.01842790E-09
  -1.97000001E-02   5.24012966E-09
  -1.96499992E-02   5.46707213E-09
  -1.96000002E-02   5.69952174E-09
  -1.95499994E-02   5.93760152E-09
  -1.95000004E-02   6.18125862E-09
  -1.94499996E-02   6.43030695E-09
  -1.94000006E-02   6.68453914E-09
  -1.93499997E-02   6.94385438E-09
  -1.93000007E-02   7.20834903E-09
  -1.92499999E-02   7.47832196E-09
  -1.92000009E-02   7.75419462E-09
  -1.91500001E-02   8.03637423E-09
  -1.90999992E-02   8.32512370E-09
  -1.90500002E-02   8.62049720E-09
  -1.89999994E-02   8.92237040E-09
  -1.89500004E-02   9.23056298E-09
  -1.88999996E-02   9.54498702E-09
  -1.88500006E-02   9.86577309E-09
  -1.87999997E-02   1.01933031E-08
  -1.87500007E-02   1.05281375E-08
  -1.86999999E-02   1.08708607E-08
  -1.86500009E-02   1.12219212E-08
  -1.86000001E-02   1.15815277E-08
  -1.85499992E-02   1.19496564E-08
  -1.85000002E-02   1.23261756E-08
  -1.84499994E-02   1.27110171E-08
  -1.84000004E-02   1.31043416E-08
  -1.83499996E-02   1.35066065E-08
  -1.83000006E-02   1.39185143E-08
  -1.82499997E-02   1.43408441E-08
  -1.82000007E-02   1.47742591E-08
  -1.81499999E-02   1.52191610E-08
  -1.81000009E-02   1.56756634E-08
  -1.80500001E-02   1.61437015E-08
  -1.79999992E-02   1.66232255E-08
  -1.79500002E-02   1.71144059E-08
  -1.78999994E-02   1.76177544E-08
  -1.78500004E-02   1.81340880E-08
  -1.77999996E-02   1.86643803E-08
  -1.77500006E-02   1.92095229E-08
  -1.76999997E-02   1.97701340E-08
  -1.76500008E-02   2.03464925E-08
  -1.75999999E-02   2.09386108E-08
  -1.75500009E-02   2.15464500E-08
  -1.75000001E-02   2.21701644E-08
  -1.74499992E-02   2.28102675E-08
  -1.74000002E-02   2.34676545E-08
  -1.73499994E-02   2.41434588E-08
  -1.73000004E-02   2.48387959E-08
  -1.72499996E-02   2.55545221E-08
  -1.72000006E-02   2.62911026E-08
  -1.71499997E-02   2.70486602E-08
  -1.71000008E-02   2.78271681E-08
  -1.70499999E-02   2.86267472E-08
  -1.70000009E-02   2.94478770E-08
  -1.69500001E-02   3.02914955E-08
  -1.68999992E-02   3.11588586E-08
  -1.68500002E-02   3.20513038E-08
  -1.67999994E-02   3.29699432E-08
  -1.67500004E-02   3.39154589E-08
  -1.66999996E-02   3.48881031E-08
  -1.66500006E-02   3.58878829E-08
  -1.65999997E-02   3.69148658E-08
  -1.65500008E-02   3.79694782E-08
  -1.64999999E-02   3.90526509E-08
  -1.64500009E-02   4.01657339E-08
  -1.64000001E-02   4.13102725E-08
  -1.63499992E-02   4.24876383E-08
  -1.63000003E-02   4.36987726E-08
  -1.62499994E-02   4.49441124E-08
  -1.62000004E-02   4.62237395E-08
  -1.61499996E-02   4.75376929E-08
  -1.61000006E-02   4.88863279E-08
  -1.60499997E-02   5.02705433E-08
  -1.60000008E-02   5.16917815E-08
  -1.59499999E-02   5.31517728E-08
  -1.59000009E-02   5.46521868E-08
  -1.58500001E-02   5.61942954E-08
  -1.57999992E-02   5.77787915E-08
  -1.57500003E-02   5.94058989E-08
  -1.56999994E-02   6.10756743E-08
  -1.56500004E-02   6.27884162E-08
  -1.55999996E-02   6.45449916E-08
  -1.55499997E-02   6.63468711E-08
  -1.54999997E-02   6.81960088E-08
  -1.54499998E-02   7.00943801E-08
  -1.53999999E-02   7.20436475E-08
  -1.53500000E-02   7.40448485E-08
  -1.53000001E-02   7.60984591E-08
  -1.52500002E-02   7.82046357E-08
  -1.52000003E-02   8.03636837E-08
  -1.51500003E-02   8.25764346E-08
  -1.51000004E-02   8.48444444E-08
  -1.50499996E-02   8.71698518E-08
  -1.49999997E-02   8.95550016E-08
  -1.49499997E-02   9.20020113E-08
  -1.48999998E-02   9.45123730E-08
  -1.48499999E-02   9.70869323E-08
  -1.48000000E-02   9.97260514E-08
  -1.47500001E-02   1.02430128E-07
  -1.47000002E-02   1.05200023E-07
  -1.46500003E-02   1.08037334E-07
  -1.46000003E-02   1.10944434E-07
  -1.45500004E-02   1.13924038E-07
  -1.44999996E-02   1.16978782E-07
  -1.44499997E-02   1.20110727E-07
  -1.43999998E-02   1.23321172E-07
  -1.43499998E-02   1.26610871E-07
  -1.42999999E-02   1.29980364E-07
  -1.42500000E-02   1.33430589E-07
  -1.42000001E-02   1.36963266E-07
  -1.41500002E-02   1.40580966E-07
  -1.41000003E-02   1.44286787E-07
  -1.40500003E-02   1.48083942E-07
  -1.40000004E-02   1.51975158E-07
  -1.39499996E-02   1.55962354E-07
  -1.38999997E-02   1.60046767E-07
  -1.38499998E-02   1.64229206E-07
  -1.37999998E-02   1.68510780E-07
  -1.37499999E-02   1.72893323E-07
  -1.37000000E-02   1.77379533E-07
  -1.36500001E-02   1.81972965E-07
  -1.36000002E-02   1.86677369E-07
  -1.35500003E-02   1.91496184E-07
  -1.35000004E-02   1.96432111E-07
  -1.34500004E-02   2.01486941E-07
  -1.33999996E-02   2.06661952E-07
  -1.33499997E-02   2.11958394E-07
  -1.32999998E-02   2.17378243E-07
  -1.32499998E-02   2.22924456E-07
  -1.31999999E-02   2.28600868E-07
  -1.31500000E-02   2.34411814E-07
  -1.31000001E-02   2.40361516E-07
  -1.30500002E-02   2.46453425E-07
  -1.30000003E-02   2.52690086E-07
  -1.29500004E-02   2.59073261E-07
  -1.29000004E-02   2.65604655E-07
  -1.28499996E-02   2.72286286E-07
  -1.27999997E-02   2.79121338E-07
  -1.27499998E-02   2.86113959E-07
  -1.26999998E-02   2.93268982E-07
  -1.26499999E-02   3.00591381E-07
  -1.26000000E-02   3.08085419E-07
  -1.25500001E-02   3.15754534E-07
  -1.25000002E-02   3.23601085E-07
  -1.24500003E-02   3.31627177E-07
  -1.24000004E-02   3.39835083E-07
  -1.23500004E-02   3.48228156E-07
  -1.22999996E-02   3.56810801E-07
  -1.22499997E-02   3.65588363E-07
  -1.21999998E-02   3.74566497E-07
  -1.21499998E-02   3.83750489E-07
  -1.20999999E-02   3.93144575E-07
  -1.20500000E-02   4.02751937E-07
  -1.20000001E-02   4.12575162E-07
  -1.19500002E-02   4.22616921E-07
  -1.19000003E-02   4.32880626E-07
  -1.18500004E-02   4.43370823E-07
  -1.18000004E-02   4.54093339E-07
  -1.17499996E-02   4.65054484E-07
  -1.16999997E-02   4.76260368E-07
  -1.16499998E-02   4.87716306E-07
  -1.15999999E-02   4.99426449E-07
  -1.15499999E-02   5.11394035E-07
  -1.15000000E-02   5.23622020E-07
  -1.14500001E-02   5.36114158E-07
  -1.14000002E-02   5.48875278E-07
  -1.13500003E-02   5.61911520E-07
  -1.13000004E-02   5.75229819E-07
  -1.12500004E-02   5.88837111E-07
  -1.11999996E-02   6.02739760E-07
  -1.11499997E-02   6.16942771E-07
  -1.10999998E-02   6.31450177E-07
  -1.10499999E-02   6.46265448E-07
  -1.09999999E-02   6.61392562E-07
  -1.09500000E-02   6.76836521E-07
  -1.09000001E-02   6.92603578E-07
  -1.08500002E-02   7.08701350E-07
  -1.08000003E-02   7.25137568E-07
  -1.07500004E-02   7.41919621E-07
  -1.07000005E-02   7.59053933E-07
  -1.06499996E-02   7.76545448E-07
  -1.05999997E-02   7.94398375E-07
  -1.05499998E-02   8.12617031E-07
  -1.04999999E-02   8.31206592E-07
  -1.04499999E-02   8.50173649E-07
  -1.04000000E-02   8.69526048E-07
  -1.03500001E-02   8.89272371E-07
  -1.03000002E-02   9.09421033E-07
  -1.02500003E-02   9.29979308E-07
  -1.02000004E-02   9.50953279E-07
  -1.01500005E-02   9.72347834E-07
  -1.00999996E-02   9.94167635E-07
  -1.00499997E-02   1.01641808E-06
  -9.99999978E-03   1.03910611E-06
  -9.94999986E-03   1.06223990E-06
  -9.89999995E-03   1.08582856E-06
  -9.85000003E-03   1.10988151E-06
  -9.80000012E-03   1.13440740E-06
  -9.75000020E-03   1.15941327E-06
  -9.70000029E-03   1.18490505E-06
  -9.65000037E-03   1.21088806E-06
  -9.60000046E-03   1.23736822E-06
  -9.54999961E-03   1.26435236E-06
  -9.49999969E-03   1.29184912E-06
  -9.44999978E-03   1.31986826E-06
  -9.39999986E-03   1.34842014E-06
  -9.34999995E-03   1.37751420E-06
  -9.30000003E-03   1.40715883E-06
  -9.25000012E-03   1.43736077E-06
  -9.20000020E-03   1.46812613E-06
  -9.15000029E-03   1.49946072E-06
  -9.10000037E-03   1.53137205E-06
  -9.05000046E-03   1.56386841E-06
  -8.99999961E-03   1.59695969E-06
  -8.94999970E-03   1.63065693E-06
  -8.89999978E-03   1.66497045E-06
  -8.84999987E-03   1.69990994E-06
  -8.79999995E-03   1.73548324E-06
  -8.75000004E-03   1.77169704E-06
  -8.70000012E-03   1.80855818E-06
  -8.65000021E-03   1.84607381E-06
  -8.60000029E-03   1.88425258E-06
  -8.55000038E-03   1.92310495E-06
  -8.50000046E-03   1.96264205E-06
  -8.44999962E-03   2.00287559E-06
  -8.39999970E-03   2.04381604E-06
  -8.34999979E-03   2.08547249E-06
  -8.29999987E-03   2.12785244E-06
  -8.24999996E-03   2.17096294E-06
  -8.20000004E-03   2.21481150E-06
  -8.15000013E-03   2.25940653E-06
  -8.10000021E-03   2.30475825E-06
  -8.05000030E-03   2.35087805E-06
  -8.00000038E-03   2.39777819E-06
  -7.95000046E-03   2.44546959E-06
  -7.89999962E-03   2.49396271E-06
  -7.84999970E-03   2.54326551E-06
  -7.79999979E-03   2.59338549E-06
  -7.74999987E-03   2.64433015E-06
  -7.69999996E-03   2.69610746E-06
  -7.65000004E-03   2.74872787E-06
  -7.60000013E-03   2.80220252E-06
  -7.55000021E-03   2.85654414E-06
  -7.49999983E-03   2.91176480E-06
  -7.44999992E-03   2.96787562E-06
  -7.40000000E-03   3.02488593E-06
  -7.35000009E-03   3.08280369E-06
  -7.30000017E-03   3.14163594E-06
  -7.24999979E-03   3.20139111E-06
  -7.19999988E-03   3.26207851E-06
  -7.14999996E-03   3.32370928E-06
  -7.10000005E-03   3.38629638E-06
  -7.05000013E-03   3.44985256E-06
  -7.00000022E-03   3.51438916E-06
  -6.94999984E-03   3.57991598E-06
  -6.89999992E-03   3.64644052E-06
  -6.85000001E-03   3.71397073E-06
  -6.80000009E-03   3.78251343E-06
  -6.75000018E-03   3.85207750E-06
  -6.69999979E-03   3.92267339E-06
  -6.64999988E-03   3.99431428E-06
  -6.59999996E-03   4.06701156E-06
  -6.55000005E-03   4.14077749E-06
  -6.50000013E-03   4.21562299E-06
  -6.45000022E-03   4.29155580E-06
  -6.39999984E-03   4.36858272E-06
  -6.34999992E-03   4.44671105E-06
  -6.30000001E-03   4.52594850E-06
  -6.25000009E-03   4.60630554E-06
  -6.20000018E-03   4.68779263E-06
  -6.14999980E-03   4.77042249E-06
  -6.09999988E-03   4.85420742E-06
  -6.04999997E-03   4.93915695E-06
  -6.00000005E-03   5.02527973E-06
  -5.95000014E-03   5.11258258E-06
  -5.90000022E-03   5.20107051E-06
  -5.84999984E-03   5.29075078E-06
  -5.79999993E-03   5.38163158E-06
  -5.75000001E-03   5.47372338E-06
  -5.70000010E-03   5.56703662E-06
  -5.65000018E-03   5.66158360E-06
  -5.59999980E-03   5.75737249E-06
  -5.54999989E-03   5.85441194E-06
  -5.49999997E-03   5.95270740E-06
  -5.45000006E-03   6.05226342E-06
  -5.40000014E-03   6.15308500E-06
  -5.35000023E-03   6.25517850E-06
  -5.29999984E-03   6.35855349E-06
  -5.24999993E-03   6.46321951E-06
  -5.20000001E-03   6.56918564E-06
  -5.15000010E-03   6.67646054E-06
  -5.10000018E-03   6.78505148E-06
  -5.04999980E-03   6.89496255E-06
  -4.99999989E-03   7.00619694E-06
  -4.94999997E-03   7.11875873E-06
  -4.90000006E-03   7.23265157E-06
  -4.85000014E-03   7.34788182E-06
  -4.80000023E-03   7.46445676E-06
  -4.74999985E-03   7.58238411E-06
  -4.69999993E-03   7.70166935E-06
  -4.65000002E-03   7.82231928E-06
  -4.60000010E-03   7.94433436E-06
  -4.55000019E-03   8.06771823E-06
  -4.49999981E-03   8.19246907E-06
  -4.44999989E-03   8.31858961E-06
  -4.39999998E-03   8.44608257E-06
  -4.35000006E-03   8.57495161E-06
  -4.30000015E-03   8.70520307E-06
  -4.25000023E-03   8.83684061E-06
  -4.19999985E-03   8.96986603E-06
  -4.14999994E-03   9.10427934E-06
  -4.10000002E-03   9.24007963E-06
  -4.05000011E-03   9.37726418E-06
  -4.00000019E-03   9.51583206E-06
  -3.94999981E-03   9.65577965E-06
  -3.89999989E-03   9.79710967E-06
  -3.84999998E-03   9.93982212E-06
  -3.80000006E-03   1.00839179E-05
  -3.74999992E-03   1.02293980E-05
  -3.70000000E-03   1.03762577E-05
  -3.65000009E-03   1.05244908E-05
  -3.59999994E-03   1.06740927E-05
  -3.55000002E-03   1.08250561E-05
  -3.50000011E-03   1.09773755E-05
  -3.44999996E-03   1.11310464E-05
  -3.40000005E-03   1.12860653E-05
  -3.34999990E-03   1.14424283E-05
  -3.29999998E-03   1.16001302E-05
  -3.25000007E-03   1.17591626E-05
  -3.19999992E-03   1.19195174E-05
  -3.15000000E-03   1.20811819E-05
  -3.10000009E-03   1.22441470E-05
  -3.04999994E-03   1.24083999E-05
  -3.00000003E-03   1.25739307E-05
  -2.95000011E-03   1.27407302E-05
  -2.89999996E-03   1.29087903E-05
  -2.85000005E-03   1.30780982E-05
  -2.79999990E-03   1.32486412E-05
  -2.74999999E-03   1.34204083E-05
  -2.70000007E-03   1.35933788E-05
  -2.64999992E-03   1.37675370E-05
  -2.60000001E-03   1.39428657E-05
  -2.55000009E-03   1.41193477E-05
  -2.49999994E-03   1.42969675E-05
  -2.45000003E-03   1.44757096E-05
  -2.40000011E-03   1.46555558E-05
  -2.34999997E-03   1.48364870E-05
  -2.30000005E-03   1.50184824E-05
  -2.24999990E-03   1.52015182E-05
  -2.19999999E-03   1.53855708E-05
  -2.15000007E-03   1.55706148E-05
  -2.09999993E-03   1.57566265E-05
  -2.05000001E-03   1.59435822E-05
  -2.00000009E-03   1.61314583E-05
  -1.94999995E-03   1.63202312E-05
  -1.90000003E-03   1.65098718E-05
  -1.85000000E-03   1.67003527E-05
  -1.79999997E-03   1.68916431E-05
  -1.75000005E-03   1.70837102E-05
  -1.70000002E-03   1.72765249E-05
  -1.64999999E-03   1.74700508E-05
  -1.59999996E-03   1.76642552E-05
  -1.55000004E-03   1.78591072E-05
  -1.50000001E-03   1.80545721E-05
  -1.44999998E-03   1.82506192E-05
  -1.39999995E-03   1.84472083E-05
  -1.35000004E-03   1.86443031E-05
  -1.30000000E-03   1.88418599E-05
  -1.24999997E-03   1.90398350E-05
  -1.20000006E-03   1.92381867E-05
  -1.15000003E-03   1.94368749E-05
  -1.09999999E-03   1.96358542E-05
  -1.04999996E-03   1.98350826E-05
  -1.00000005E-03   2.00345221E-05
  -9.50000016E-04   2.02341234E-05
  -8.99999985E-04   2.04338357E-05
  -8.50000011E-04   2.06336081E-05
  -7.99999980E-04   2.08333895E-05
  -7.50000007E-04   2.10331236E-05
  -6.99999975E-04   2.12327614E-05
  -6.50000002E-04   2.14322499E-05
  -6.00000028E-04   2.16315348E-05
  -5.49999997E-04   2.18305649E-05
  -5.00000024E-04   2.20292859E-05
  -4.49999992E-04   2.22276358E-05
  -3.99999990E-04   2.24255564E-05
  -3.49999988E-04   2.26229749E-05
  -3.00000014E-04   2.28198332E-05
  -2.50000012E-04   2.30160658E-05
  -1.99999995E-04   2.32116108E-05
  -1.50000007E-04   2.34064009E-05
  -9.99999975E-05   2.36003762E-05
  -4.99999987E-05   2.37934673E-05
   0.00000000       2.39856035E-05
   4.99999987E-05   2.41767120E-05
   9.99999975E-05   2.43667218E-05
   1.50000007E-04   2.45555530E-05
   1.99999995E-04   2.47431290E-05
   2.50000012E-04   2.49293735E-05
   3.00000014E-04   2.51142119E-05
   3.49999988E-04   2.52975642E-05
   3.99999990E-04   2.54793558E-05
   4.49999992E-04   2.56595067E-05
   5.00000024E-04   2.58379332E-05
   5.49999997E-04   2.60145462E-05
   6.00000028E-04   2.61892583E-05
   6.50000002E-04   2.63619768E-05
   6.99999975E-04   2.65326144E-05
   7.50000007E-04   2.67010801E-05
   7.99999980E-04   2.68672884E-05
   8.50000011E-04   2.70311521E-05
   8.99999985E-04   2.71925765E-05
   9.50000016E-04   2.73514688E-05
   1.00000005E-03   2.75077255E-05
   1.04999996E-03   2.76612463E-05
   1.09999999E-03   2.78119296E-05
   1.15000003E-03   2.79596698E-05
   1.20000006E-03   2.81043685E-05
   1.24999997E-03   2.82459278E-05
   1.30000000E-03   2.83842455E-05
   1.35000004E-03   2.85192145E-05
   1.39999995E-03   2.86507275E-05
   1.44999998E-03   2.87786697E-05
   1.50000001E-03   2.89029285E-05
   1.55000004E-03   2.90233893E-05
   1.59999996E-03   2.91399356E-05
   1.64999999E-03   2.92524583E-05
   1.70000002E-03   2.93608427E-05
   1.75000005E-03   2.94649763E-05
   1.79999997E-03   2.95647442E-05
   1.85000000E-03   2.96600283E-05
   1.90000003E-03   2.97506976E-05
   1.94999995E-03   2.98366285E-05
   2.00000009E-03   2.99176882E-05
   2.05000001E-03   2.99937510E-05
   2.09999993E-03   3.00646989E-05
   2.15000007E-03   3.01304026E-05
   2.19999999E-03   3.01907439E-05
   2.24999990E-03   3.02455865E-05
   2.30000005E-03   3.02948029E-05
   2.34999997E-03   3.03382531E-05
   2.40000011E-03   3.03758006E-05
   2.45000003E-03   3.04073037E-05
   2.49999994E-03   3.04326259E-05
   2.55000009E-03   3.04516325E-05
   2.60000001E-03   3.04641890E-05
   2.64999992E-03   3.04701589E-05
   2.70000007E-03   3.04694076E-05
   2.74999999E-03   3.04617824E-05
   2.79999990E-03   3.04471378E-05