  -3.99999991E-02   0.00000000    
  -3.99499983E-02   0.00000000    
  -3.99000011E-02   0.00000000    
  -3.98500003E-02   0.00000000    
  -3.97999994E-02  -1.07561513E-19
  -3.97499986E-02  -8.25483186E-19
  -3.97000015E-02  -3.39856130E-18
  -3.96500006E-02  -9.98402202E-18
  -3.95999998E-02  -2.36555474E-17
  -3.95499989E-02  -4.86483877E-17
  -3.95000018E-02  -9.10775948E-17
  -3.94500010E-02  -1.59365477E-16
  -3.94000001E-02  -2.62921250E-16
  -3.93499993E-02  -4.08776618E-16
  -3.92999984E-02  -5.98536245E-16
  -3.92500013E-02  -8.29269078E-16
  -3.92000005E-02  -1.09939043E-15
  -3.91499996E-02  -1.41582362E-15
  -3.90999988E-02  -1.79677732E-15
  -3.90500017E-02  -2.26810796E-15
  -3.90000008E-02  -2.85691275E-15
  -3.89500000E-02  -3.58730523E-15
  -3.88999991E-02  -4.47891287E-15
  -3.88499983E-02  -5.54459509E-15
  -3.88000011E-02  -6.78640510E-15
  -3.87500003E-02  -8.19525976E-15
  -3.86999995E-02  -9.76045298E-15
  -3.86499986E-02  -1.14858557E-14
  -3.86000015E-02  -1.33992904E-14
  -3.85500006E-02  -1.55436644E-14
  -3.84999998E-02  -1.79541068E-14
  -3.84499989E-02  -2.06389810E-14
  -3.84000018E-02  -2.35786359E-14
  -3.83500010E-02  -2.67374657E-14
  -3.83000001E-02  -3.00731255E-14
  -3.82499993E-02  -3.35349932E-14
  -3.81999984E-02  -3.70616725E-14
  -3.81500013E-02  -4.05910250E-14
  -3.81000005E-02  -4.40798555E-14
  -3.80499996E-02  -4.75133272E-14
  -3.79999988E-02  -5.08905594E-14
  -3.79500017E-02  -5.41978605E-14
  -3.79000008E-02  -5.73954336E-14
  -3.78500000E-02  -6.04267951E-14
  -3.77999991E-02  -6.32312670E-14
  -3.77499983E-02  -6.57343239E-14
  -3.77000012E-02  -6.78196106E-14
  -3.76500003E-02  -6.93169548E-14
  -3.75999995E-02  -7.00325757E-14
  -3.75499986E-02  -6.98038158E-14
  -3.75000015E-02  -6.85297427E-14
  -3.74500006E-02  -6.61464495E-14
  -3.73999998E-02  -6.25678437E-14
  -3.73499990E-02  -5.76413578E-14
  -3.73000018E-02  -5.11474577E-14
  -3.72500010E-02  -4.28299601E-14
  -3.72000001E-02  -3.24342570E-14
  -3.71499993E-02  -1.97550936E-14
  -3.70999984E-02  -4.70951886E-15
  -3.70500013E-02   1.25833868E-14
  -3.70000005E-02   3.17857584E-14
  -3.69499996E-02   5.24518309E-14
  -3.68999988E-02   7.42471473E-14
  -3.68500017E-02   9.71576809E-14
  -3.68000008E-02   1.21553212E-13
  -3.67500000E-02   1.48058120E-13
  -3.66999991E-02   1.77299974E-13
  -3.66499983E-02   2.09656457E-13
  -3.66000012E-02   2.45090840E-13
  -3.65500003E-02   2.83114027E-13
  -3.64999995E-02   3.22891155E-13
  -3.64499986E-02   3.63495068E-13
  -3.64000015E-02   4.04243018E-13
  -3.63500006E-02   4.44957249E-13
  -3.62999998E-02   4.85963266E-13
  -3.62499990E-02   5.27763000E-13
  -3.62000018E-02   5.70533692E-13
  -3.61500010E-02   6.13742618E-13
  -3.61000001E-02   6.56112263E-13
  -3.60499993E-02   6.95959132E-13
  -3.59999985E-02   7.31732058E-13
  -3.59500013E-02   7.62506811E-13
  -3.59000005E-02   7.88244199E-13
  -3.58499996E-02   8.09700451E-13
  -3.57999988E-02   8.27967740E-13
  -3.57500017E-02   8.43755838E-13
  -3.57000008E-02   8.56701212E-13
  -3.56500000E-02   8.65087895E-13
  -3.55999991E-02   8.66235577E-13
  -3.55499983E-02   8.57453052E-13
  -3.55000012E-02   8.37098945E-13
  -3.54500003E-02   8.05183773E-13
  -3.53999995E-02   7.63192840E-13
  -3.53499986E-02   7.13213668E-13
  -3.53000015E-02   6.56764140E-13
  -3.52500007E-02   5.93820024E-13
  -3.51999998E-02   5.22443200E-13
  -3.51499990E-02   4.39231035E-13
  -3.51000018E-02   3.40520418E-13
  -3.50500010E-02   2.23938842E-13
  -3.50000001E-02   8.96053725E-14
  -3.49499993E-02  -5.96866984E-14
  -3.48999985E-02  -2.19535097E-13
  -3.48500013E-02  -3.85799086E-13
  -3.48000005E-02  -5.56365501E-13
  -3.47499996E-02  -7.31932798E-13
  -3.46999988E-02  -9.15450333E-13
  -3.46500017E-02  -1.11048746E-12
  -3.46000008E-02  -1.31924940E-12
  -3.45500000E-02  -1.54106903E-12
  -3.44999991E-02  -1.77202870E-12
  -3.44499983E-02  -2.00598566E-12
  -3.44000012E-02  -2.23669412E-12
  -3.43500003E-02  -2.46015838E-12
  -3.42999995E-02  -2.67604884E-12
  -3.42499986E-02  -2.88734791E-12
  -3.42000015E-02  -3.09825451E-12
  -3.41500007E-02  -3.31131693E-12
  -3.40999998E-02  -3.52520313E-12
  -3.40499990E-02  -3.73419351E-12
  -3.40000018E-02  -3.92962399E-12
  -3.39500010E-02  -4.10262492E-12
  -3.39000002E-02  -4.24699815E-12
  -3.38499993E-02  -4.36100635E-12
  -3.37999985E-02  -4.44724422E-12
  -3.37500013E-02  -4.51048443E-12
  -3.37000005E-02  -4.55429834E-12
  -3.36499996E-02  -4.57796908E-12
  -3.35999988E-02  -4.57530368E-12
  -3.35500017E-02  -4.53612278E-12
  -3.35000008E-02  -4.44986886E-12
  -3.34500000E-02  -4.30965073E-12
  -3.33999991E-02  -4.11479271E-12
  -3.33499983E-02  -3.87070020E-12
  -3.33000012E-02  -3.58613096E-12
  -3.32500003E-02  -3.26902914E-12
  -3.31999995E-02  -2.92265604E-12
  -3.31499986E-02  -2.54366363E-12
  -3.31000015E-02  -2.12304653E-12
  -3.30500007E-02  -1.64978708E-12
  -3.29999998E-02  -1.11575202E-12
  -3.29499990E-02  -5.19629370E-13
  -3.29000019E-02   1.32036634E-13
  -3.28500010E-02   8.27303612E-13
  -3.28000002E-02   1.55361108E-12
  -3.27499993E-02   2.30256808E-12
  -3.26999985E-02   3.07252444E-12
  -3.26500013E-02   3.86782880E-12
  -3.26000005E-02   4.69521644E-12
  -3.25499997E-02   5.55890707E-12
  -3.24999988E-02   6.45650850E-12
  -3.24500017E-02   7.37751353E-12
  -3.24000008E-02   8.30524451E-12
  -3.23500000E-02   9.22163301E-12
  -3.22999991E-02   1.01127648E-11
  -3.22499983E-02   1.09725761E-11
  -3.22000012E-02   1.18028139E-11
  -3.21500003E-02   1.26092192E-11
  -3.20999995E-02   1.33957958E-11
  -3.20499986E-02   1.41599120E-11
  -3.20000015E-02   1.48904448E-11
  -3.19500007E-02   1.55696758E-11
  -3.18999998E-02   1.61780155E-11
  -3.18499990E-02   1.66996070E-11
  -3.18000019E-02   1.71264669E-11
  -3.17500010E-02   1.74593257E-11
  -3.17000002E-02   1.77045809E-11
  -3.16499993E-02   1.78685452E-11
  -3.15999985E-02   1.79515292E-11
  -3.15500014E-02   1.79446822E-11
  -3.15000005E-02   1.78312157E-11
  -3.14499997E-02   1.75914457E-11
  -3.13999988E-02   1.72093069E-11
  -3.13500017E-02   1.66773349E-11
  -3.13000008E-02   1.59982080E-11
  -3.12500000E-02   1.51823779E-11
  -3.11999992E-02   1.42429176E-11
  -3.11500002E-02   1.31896690E-11
  -3.10999993E-02   1.20250329E-11
  -3.10500003E-02   1.07432613E-11
  -3.09999995E-02   9.33375773E-12
  -3.09500005E-02   7.78702883E-12
  -3.08999997E-02   6.10051679E-12
  -3.08500007E-02   4.28149226E-12
  -3.07999998E-02   2.34574296E-12
  -3.07500008E-02   3.12871772E-13
  -3.07000000E-02  -1.79940784E-12
  -3.06499992E-02  -3.97947083E-12
  -3.06000002E-02  -6.22297916E-12
  -3.05499993E-02  -8.53084183E-12
  -3.05000003E-02  -1.09048309E-11
  -3.04499995E-02  -1.33425354E-11
  -3.04000005E-02  -1.58336382E-11
  -3.03499997E-02  -1.83593522E-11
  -3.03000007E-02  -2.08954017E-11
  -3.02499998E-02  -2.34172595E-11
  -3.02000009E-02  -2.59050004E-11
  -3.01500000E-02  -2.83454475E-11
  -3.00999992E-02  -3.07308554E-11
  -3.00500002E-02  -3.30551003E-11
  -2.99999993E-02  -3.53093596E-11
  -2.99500003E-02  -3.74790511E-11
  -2.98999995E-02  -3.95430980E-11
  -2.98500005E-02  -4.14756632E-11
  -2.97999997E-02  -4.32500979E-11
  -2.97500007E-02  -4.48436080E-11
  -2.96999998E-02  -4.62408861E-11
  -2.96500009E-02  -4.74347922E-11
  -2.96000000E-02  -4.84235672E-11
  -2.95499992E-02  -4.92059449E-11
  -2.95000002E-02  -4.97764399E-11
  -2.94499993E-02  -5.01229579E-11
  -2.94000003E-02  -5.02273743E-11
  -2.93499995E-02  -5.00684320E-11
  -2.93000005E-02  -4.96257098E-11
  -2.92499997E-02  -4.88834979E-11
  -2.92000007E-02  -4.78334282E-11
  -2.91499998E-02  -4.64748760E-11
  -2.91000009E-02  -4.48125842E-11
  -2.90500000E-02  -4.28523710E-11
  -2.89999992E-02  -4.05968315E-11
  -2.89500002E-02  -3.80432977E-11
  -2.88999993E-02  -3.51849175E-11
  -2.88500004E-02  -3.20141552E-11
  -2.87999995E-02  -2.85269031E-11
  -2.87500005E-02  -2.47254422E-11
  -2.86999997E-02  -2.06196726E-11
  -2.86500007E-02  -1.62263501E-11
  -2.85999998E-02  -1.15665828E-11
  -2.85500009E-02  -6.66206977E-12
  -2.85000000E-02  -1.53132357E-12
  -2.84499992E-02   3.81218017E-12
  -2.84000002E-02   9.35889907E-12
  -2.83499993E-02   1.50995223E-11
  -2.83000004E-02   2.10206678E-11
  -2.82499995E-02   2.71023360E-11
  -2.82000005E-02   3.33179144E-11
  -2.81499997E-02   3.96363047E-11
  -2.81000007E-02   4.60248888E-11
  -2.80499998E-02   5.24521433E-11
  -2.80000009E-02   5.88892754E-11
  -2.79500000E-02   6.53104446E-11
  -2.78999992E-02   7.16909587E-11
  -2.78500002E-02   7.80040338E-11
  -2.77999993E-02   8.42173969E-11
  -2.77500004E-02   9.02921973E-11
  -2.76999995E-02   9.61847754E-11
  -2.76500005E-02   1.01850799E-10
  -2.75999997E-02   1.07249258E-10
  -2.75500007E-02   1.12344550E-10
  -2.74999999E-02   1.17105964E-10
  -2.74500009E-02   1.21505583E-10
  -2.74000000E-02   1.25515709E-10
  -2.73499992E-02   1.29106573E-10
  -2.73000002E-02   1.32244951E-10
  -2.72499993E-02   1.34894082E-10
  -2.72000004E-02   1.37015815E-10
  -2.71499995E-02   1.38574222E-10
  -2.71000005E-02   1.39538950E-10
  -2.70499997E-02   1.39886450E-10
  -2.70000007E-02   1.39598624E-10
  -2.69499999E-02   1.38660167E-10
  -2.69000009E-02   1.37056672E-10
  -2.68500000E-02   1.34774053E-10
  -2.67999992E-02   1.31798863E-10
  -2.67500002E-02   1.28118682E-10
  -2.66999993E-02   1.23721935E-10
  -2.66500004E-02   1.18598173E-10
  -2.65999995E-02   1.12739006E-10
  -2.65500005E-02   1.06139701E-10
  -2.64999997E-02   9.88007037E-11
  -2.64500007E-02   9.07289174E-11
  -2.63999999E-02   8.19387405E-11
  -2.63500009E-02   7.24528770E-11
  -2.63000000E-02   6.23019136E-11
  -2.62499992E-02   5.15214781E-11
  -2.62000002E-02   4.01469760E-11
  -2.61499994E-02   2.82088398E-11
  -2.61000004E-02   1.57308663E-11
  -2.60499995E-02   2.73375571E-12
  -2.60000005E-02  -1.07578651E-11
  -2.59499997E-02  -2.47082667E-11
  -2.59000007E-02  -3.90667949E-11
  -2.58499999E-02  -5.37689233E-11
  -2.58000009E-02  -6.87421856E-11
  -2.57500000E-02  -8.39151665E-11
  -2.56999992E-02  -9.92261898E-11
  -2.56500002E-02  -1.14627904E-10
  -2.55999994E-02  -1.30084568E-10
  -2.55500004E-02  -1.45561702E-10
  -2.54999995E-02  -1.61012162E-10
  -2.54500005E-02  -1.76365408E-10
  -2.53999997E-02  -1.91526545E-10
  -2.53500007E-02  -2.06386075E-10
  -2.52999999E-02  -2.20837307E-10
  -2.52500009E-02  -2.34792574E-10
  -2.52000000E-02  -2.48191412E-10
  -2.51499992E-02  -2.60996891E-10
  -2.51000002E-02  -2.73180589E-10
  -2.50499994E-02  -2.84703039E-10
  -2.50000004E-02  -2.95497210E-10
  -2.49499995E-02  -3.05463710E-10
  -2.49000005E-02  -3.14481746E-10
  -2.48499997E-02  -3.22433441E-10
  -2.48000007E-02  -3.29230337E-10
  -2.47499999E-02  -3.34829553E-10
  -2.47000009E-02  -3.39230061E-10
  -2.46500000E-02  -3.42449402E-10
  -2.45999992E-02  -3.44491047E-10
  -2.45500002E-02  -3.45317275E-10
  -2.44999994E-02  -3.44840129E-10
  -2.44500004E-02  -3.42936041E-10
  -2.43999995E-02  -3.39479028E-10
  -2.43500005E-02  -3.34379552E-10
  -2.42999997E-02  -3.27612659E-10
  -2.42500007E-02  -3.19221094E-10
  -2.41999999E-02  -3.09289344E-10
  -2.41500009E-02  -2.97898345E-10
  -2.41000000E-02  -2.85080598E-10
  -2.40499992E-02  -2.70797912E-10
  -2.40000002E-02  -2.54953114E-10
  -2.39499994E-02  -2.37432823E-10
  -2.39000004E-02  -2.18161572E-10
  -2.38499995E-02  -1.97143912E-10
  -2.38000005E-02  -1.74475198E-10
  -2.37499997E-02  -1.50314955E-10
  -2.37000007E-02  -1.24833172E-10
  -2.36499999E-02  -9.81512024E-11
  -2.36000009E-02  -7.03039918E-11
  -2.35500000E-02  -4.12427592E-11
  -2.34999992E-02  -1.08797008E-11
  -2.34500002E-02   2.08432039E-11
  -2.33999994E-02   5.38937575E-11
  -2.33500004E-02   8.81254791E-11
  -2.32999995E-02   1.23303354E-10
  -2.32500006E-02   1.59169719E-10
  -2.31999997E-02   1.95518643E-10
  -2.31500007E-02   2.32248151E-10
  -2.30999999E-02   2.69363754E-10
  -2.30500009E-02   3.06931008E-10
  -2.30000000E-02   3.44996032E-10
  -2.29499992E-02   3.83506643E-10
  -2.29000002E-02   4.22271718E-10
  -2.28499994E-02   4.60980004E-10
  -2.28000004E-02   4.99273900E-10
  -2.27499995E-02   5.36846401E-10
  -2.27000006E-02   5.73517178E-10
  -2.26499997E-02   6.09251927E-10
  -2.26000007E-02   6.44112652E-10
  -2.25499999E-02   6.78162748E-10
  -2.25000009E-02   7.11366466E-10
  -2.24500000E-02   7.43529960E-10
  -2.23999992E-02   7.74309228E-10
  -2.23500002E-02   8.03285882E-10
  -2.22999994E-02   8.30079450E-10
  -2.22500004E-02   8.54448290E-10
  -2.21999995E-02   8.76332173E-10
  -2.21500006E-02   8.95813868E-10
  -2.20999997E-02   9.13012388E-10
  -2.20500007E-02   9.27956767E-10
  -2.19999999E-02   9.40497458E-10
  -2.19500009E-02   9.50296619E-10
  -2.19000001E-02   9.56904000E-10
  -2.18499992E-02   9.59883728E-10
  -2.18000002E-02   9.58939039E-10
  -2.17499994E-02   9.53980450E-10
  -2.17000004E-02   9.45103884E-10
  -2.16499995E-02   9.32487421E-10
  -2.16000006E-02   9.16249132E-10
  -2.15499997E-02   8.96329011E-10
  -2.15000007E-02   8.72450667E-10
  -2.14499999E-02   8.44183334E-10
  -2.14000009E-02   8.11079537E-10
  -2.13500001E-02   7.72824027E-10
  -2.12999992E-02   7.29328431E-10
  -2.12500002E-02   6.80724810E-10
  -2.11999994E-02   6.27264740E-10
  -2.11500004E-02   5.69162995E-10
  -2.10999995E-02   5.06457210E-10
  -2.10500006E-02   4.38944159E-10
  -2.09999997E-02   3.66223663E-10
  -2.09500007E-02   2.87838586E-10
  -2.08999999E-02   2.03445788E-10
  -2.08500009E-02   1.12945250E-10
  -2.08000001E-02   1.65061645E-11
  -2.07499992E-02  -8.55301177E-11
  -2.07000002E-02  -1.92821245E-10
  -2.06499994E-02  -3.05197145E-10
  -2.06000004E-02  -4.22753721E-10
  -2.05499995E-02  -5.45832490E-10
  -2.05000006E-02  -6.74883704E-10
  -2.04499997E-02  -8.10279344E-10
  -2.04000007E-02  -9.52149803E-10
  -2.03499999E-02  -1.10032128E-09
  -2.03000009E-02  -1.25438793E-09
  -2.02500001E-02  -1.41388568E-09
  -2.01999992E-02  -1.57849522E-09
  -2.01500002E-02  -1.74818138E-09
  -2.00999994E-02  -1.92320515E-09
  -2.00500004E-02  -2.10400364E-09
  -1.99999996E-02  -2.29098518E-09
  -1.99500006E-02  -2.48433674E-09
  -1.98999997E-02  -2.68392286E-09
  -1.98500007E-02  -2.88932656E-09
  -1.97999999E-02  -3.10000736E-09
  -1.97500009E-02  -3.31552497E-09
  -1.97000001E-02  -3.53571239E-09
  -1.96499992E-02  -3.76073572E-09
  -1.96000002E-02  -3.99100131E-09
  -1.95499994E-02  -4.22695567E-09
  -1.95000004E-02  -4.46885640E-09
  -1.94499996E-02  -4.71663064E-09
  -1.94000006E-02  -4.96987518E-09
  -1.93499997E-02  -5.22800958E-09
  -1.93000007E-02  -5.49050272E-09
  -1.92499999E-02  -5.75708148E-09
  -1.92000009E-02  -6.02782890E-09
  -1.91500001E-02  -6.30313046E-09
  -1.90999992E-02  -6.58348398E-09
  -1.90500002E-02  -6.86924961E-09
  -1.89999994E-02  -7.16047088E-09
  -1.89500004E-02  -7.45682538E-09
  -1.88999996E-02  -7.75774023E-09
  -1.88500006E-02  -8.06263323E-09
  -1.87999997E-02  -8.37116598E-09
  -1.87500007E-02  -8.68337757E-09
  -1.86999999E-02  -8.99967656E-09
  -1.86500009E-02  -9.32065625E-09
  -1.86000001E-02  -9.64683000E-09
  -1.85499992E-02  -9.97840743E-09
  -1.85000002E-02  -1.03152047E-08
  -1.84499994E-02  -1.06567288E-08
  -1.84000004E-02  -1.10023963E-08
  -1.83499996E-02  -1.13518093E-08
  -1.83000006E-02  -1.17049694E-08
  -1.82499997E-02  -1.20623156E-08
  -1.82000007E-02  -1.24245849E-08
  -1.81499999E-02  -1.27925306E-08
  -1.81000009E-02  -1.31666482E-08
  -1.80500001E-02  -1.35470222E-08
  -1.79999992E-02  -1.39333780E-08
  -1.79500002E-02  -1.43252672E-08
  -1.78999994E-02  -1.47223513E-08
  -1.78500004E-02  -1.51246606E-08
  -1.77999996E-02  -1.55326862E-08
  -1.77500006E-02  -1.59473021E-08
  -1.76999997E-02  -1.63695066E-08
  -1.76500008E-02  -1.68001009E-08
  -1.75999999E-02  -1.72394881E-08
  -1.75500009E-02  -1.76876380E-08
  -1.75000001E-02  -1.81442772E-08
  -1.74499992E-02  -1.86091835E-08
  -1.74000002E-02  -1.90824636E-08
  -1.73499994E-02  -1.95647232E-08
  -1.73000004E-02  -2.00570227E-08
  -1.72499996E-02  -2.05606092E-08
  -1.72000006E-02  -2.10766480E-08
  -1.71499997E-02  -2.16059384E-08
  -1.71000008E-02  -2.21488321E-08
  -1.70499999E-02  -2.27053221E-08
  -1.70000009E-02  -2.32753710E-08
  -1.69500001E-02  -2.38592222E-08
  -1.68999992E-02  -2.44576448E-08
  -1.68500002E-02  -2.50719161E-08
  -1.67999994E-02  -2.57036188E-08
  -1.67500004E-02  -2.63542841E-08
  -1.66999996E-02  -2.70251181E-08
  -1.66500006E-02  -2.77168422E-08
  -1.65999997E-02  -2.84297759E-08
  -1.65500008E-02  -2.91640934E-08
  -1.64999999E-02  -2.99201588E-08
  -1.64500009E-02  -3.06988390E-08
  -1.64000001E-02  -3.15015711E-08
  -1.63499992E-02  -3.23302274E-08
  -1.63000003E-02  -3.31867511E-08
  -1.62499994E-02  -3.40727944E-08
  -1.62000004E-02  -3.49894727E-08
  -1.61499996E-02  -3.59374397E-08
  -1.61000006E-02  -3.69170898E-08
  -1.60499997E-02  -3.79289453E-08
  -1.60000008E-02  -3.89739583E-08
  -1.59499999E-02  -4.00536742E-08
  -1.59000009E-02  -4.11701251E-08
  -1.58500001E-02  -4.23255386E-08
  -1.57999992E-02  -4.35219647E-08
  -1.57500003E-02  -4.47609239E-08
  -1.56999994E-02  -4.60433895E-08
  -1.56500004E-02  -4.73699480E-08
  -1.55999996E-02  -4.87412208E-08
  -1.55499997E-02  -5.01581709E-08
  -1.54999997E-02  -5.16223544E-08
  -1.54499998E-02  -5.31358850E-08
  -1.53999999E-02  -5.47011538E-08
  -1.53500000E-02  -5.63203919E-08
  -1.53000001E-02  -5.79954147E-08
  -1.52500002E-02  -5.97274337E-08
  -1.52000003E-02  -6.15172056E-08
  -1.51500003E-02  -6.33654054E-08
  -1.51000004E-02  -6.52729781E-08
  -1.50499996E-02  -6.72414373E-08
  -1.49999997E-02  -6.92729003E-08
  -1.49499997E-02  -7.13698753E-08
  -1.48999998E-02  -7.35348138E-08
  -1.48499999E-02  -7.57697052E-08
  -1.48000000E-02  -7.80759279E-08
  -1.47500001E-02  -8.04543063E-08
  -1.47000002E-02  -8.29054372E-08
  -1.46500003E-02  -8.54302016E-08
  -1.46000003E-02  -8.80299780E-08
  -1.45500004E-02  -9.07068056E-08
  -1.44999996E-02  -9.34630648E-08
  -1.44499997E-02  -9.63012425E-08
  -1.43999998E-02  -9.92235698E-08
  -1.43499998E-02  -1.02231610E-07
  -1.42999999E-02  -1.05326357E-07
  -1.42500000E-02  -1.08508353E-07
  -1.42000001E-02  -1.11778299E-07
  -1.41500002E-02  -1.15137432E-07
  -1.41000003E-02  -1.18587693E-07
  -1.40500003E-02  -1.22131510E-07
  -1.40000004E-02  -1.25771464E-07
  -1.39499996E-02  -1.29509885E-07
  -1.38999997E-02  -1.33348550E-07
  -1.38499998E-02  -1.37288609E-07
  -1.37999998E-02  -1.41330801E-07
  -1.37499999E-02  -1.45475838E-07
  -1.37000000E-02  -1.49724912E-07
  -1.36500001E-02  -1.54079828E-07
  -1.36000002E-02  -1.58542960E-07
  -1.35500003E-02  -1.63117051E-07
  -1.35000004E-02  -1.67804771E-07
  -1.34500004E-02  -1.72608225E-07
  -1.33999996E-02  -1.77528989E-07
  -1.33499997E-02  -1.82568073E-07
  -1.32999998E-02  -1.87726400E-07
  -1.32499998E-02  -1.93005278E-07
  -1.31999999E-02  -1.98406738E-07
  -1.31500000E-02  -2.03933524E-07
  -1.31000001E-02  -2.09588649E-07
  -1.30500002E-02  -2.15375010E-07
  -1.30000003E-02  -2.21295110E-07
  -1.29500004E-02  -2.27351109E-07
  -1.29000004E-02  -2.33544640E-07
  -1.28499996E-02  -2.39877068E-07
  -1.27999997E-02  -2.46349970E-07
  -1.27499998E-02  -2.52965634E-07
  -1.26999998E-02  -2.59727216E-07
  -1.26499999E-02  -2.66638438E-07
  -1.26000000E-02  -2.73703080E-07
  -1.25500001E-02  -2.80924439E-07
  -1.25000002E-02  -2.88305131E-07
  -1.24500003E-02  -2.95847371E-07
  -1.24000004E-02  -3.03553293E-07
  -1.23500004E-02  -3.11425254E-07
  -1.22999996E-02  -3.19466267E-07
  -1.22499997E-02  -3.27679686E-07
  -1.21999998E-02  -3.36069746E-07
  -1.21499998E-02  -3.44641336E-07
  -1.20999999E-02  -3.53399145E-07
  -1.20500000E-02  -3.62347237E-07
  -1.20000001E-02  -3.71489051E-07
  -1.19500002E-02  -3.80827657E-07
  -1.19000003E-02  -3.90366267E-07
  -1.18500004E-02  -4.00108803E-07
  -1.18000004E-02  -4.10059528E-07
  -1.17499996E-02  -4.20223301E-07
  -1.16999997E-02  -4.30605240E-07
  -1.16499998E-02  -4.41210574E-07
  -1.15999999E-02  -4.52044333E-07
  -1.15499999E-02  -4.63111064E-07
  -1.15000000E-02  -4.74415174E-07
  -1.14500001E-02  -4.85961266E-07
  -1.14000002E-02  -4.97754399E-07
  -1.13500003E-02  -5.09800827E-07
  -1.13000004E-02  -5.22107484E-07
  -1.12500004E-02  -5.34681874E-07
  -1.11999996E-02  -5.47531215E-07
  -1.11499997E-02  -5.60662158E-07
  -1.10999998E-02  -5.74080218E-07
  -1.10499999E-02  -5.87790566E-07
  -1.09999999E-02  -6.01798376E-07
  -1.09500000E-02  -6.16108650E-07
  -1.09000001E-02  -6.30727186E-07
  -1.08500002E-02  -6.45660350E-07
  -1.08000003E-02  -6.60915703E-07
  -1.07500004E-02  -6.76501372E-07
  -1.07000005E-02  -6.92425431E-07
  -1.06499996E-02  -7.08696234E-07
  -1.05999997E-02  -7.25321740E-07
  -1.05499998E-02  -7.42310419E-07
  -1.04999999E-02  -7.59670911E-07
  -1.04499999E-02  -7.77412595E-07
  -1.04000000E-02  -7.95544963E-07
  -1.03500001E-02  -8.14077737E-07
  -1.03000002E-02  -8.33020579E-07
  -1.02500003E-02  -8.52382584E-07
  -1.02000004E-02  -8.72171483E-07
  -1.01500005E-02  -8.92394496E-07
  -1.00999996E-02  -9.13058500E-07
  -1.00499997E-02  -9.34171169E-07
  -9.99999978E-03  -9.55740461E-07
  -9.94999986E-03  -9.77776040E-07
  -9.89999995E-03  -1.00028808E-06
  -9.85000003E-03  -1.02328772E-06
  -9.80000012E-03  -1.04678713E-06
  -9.75000020E-03  -1.07079779E-06
  -9.70000029E-03  -1.09533062E-06
  -9.65000037E-03  -1.12039697E-06
  -9.60000046E-03  -1.14600823E-06
  -9.54999961E-03  -1.17217610E-06
  -9.49999969E-03  -1.19891274E-06
  -9.44999978E-03  -1.22623089E-06
  -9.39999986E-03  -1.25414351E-06
  -9.34999995E-03  -1.28266333E-06
  -9.30000003E-03  -1.31180275E-06
  -9.25000012E-03  -1.34157358E-06
  -9.20000020E-03  -1.37198708E-06
  -9.15000029E-03  -1.40305372E-06
  -9.10000037E-03  -1.43478485E-06
  -9.05000046E-03  -1.46719344E-06
  -8.99999961E-03  -1.50029246E-06
  -8.94999970E-03  -1.53409496E-06
  -8.89999978E-03  -1.56861370E-06
  -8.84999987E-03  -1.60386173E-06
  -8.79999995E-03  -1.63985237E-06
  -8.75000004E-03  -1.67659960E-06
  -8.70000012E-03  -1.71411693E-06
  -8.65000021E-03  -1.75241814E-06
  -8.60000029E-03  -1.79151823E-06
  -8.55000038E-03  -1.83143334E-06
  -8.50000046E-03  -1.87218131E-06
  -8.44999962E-03  -1.91378035E-06
  -8.39999970E-03  -1.95624716E-06
  -8.34999979E-03  -1.99959663E-06
  -8.29999987E-03  -2.04384423E-06
  -8.24999996E-03  -2.08900587E-06
  -8.20000004E-03  -2.13509793E-06
  -8.15000013E-03  -2.18213631E-06
  -8.10000021E-03  -2.23013694E-06
  -8.05000030E-03  -2.27911551E-06
  -8.00000038E-03  -2.32908951E-06
  -7.95000046E-03  -2.38007578E-06
  -7.89999962E-03  -2.43209115E-06
  -7.84999970E-03  -2.48515016E-06
  -7.79999979E-03  -2.53926828E-06
  -7.74999987E-03  -2.59446188E-06
  -7.69999996E-03  -2.65074823E-06
  -7.65000004E-03  -2.70814462E-06
  -7.60000013E-03  -2.76666924E-06
  -7.55000021E-03  -2.82634028E-06
  -7.49999983E-03  -2.88717683E-06
  -7.44999992E-03  -2.94919823E-06
  -7.40000000E-03  -3.01242358E-06
  -7.35000009E-03  -3.07687151E-06
  -7.30000017E-03  -3.14256022E-06
  -7.24999979E-03  -3.20950812E-06
  -7.19999988E-03  -3.27773796E-06
  -7.14999996E-03  -3.34727110E-06
  -7.10000005E-03  -3.41812870E-06
  -7.05000013E-03  -3.49033030E-06
  -7.00000022E-03  -3.56389478E-06
  -6.94999984E-03  -3.63884101E-06
  -6.89999992E-03  -3.71518854E-06
  -6.85000001E-03  -3.79295693E-06
  -6.80000009E-03  -3.87216369E-06
  -6.75000018E-03  -3.95282677E-06
  -6.69999979E-03  -4.03496597E-06
  -6.64999988E-03  -4.11860219E-06
  -6.59999996E-03  -4.20375773E-06
  -6.55000005E-03  -4.29045167E-06
  -6.50000013E-03  -4.37870222E-06
  -6.45000022E-03  -4.46852664E-06
  -6.39999984E-03  -4.55994677E-06
  -6.34999992E-03  -4.65298535E-06
  -6.30000001E-03  -4.74766330E-06
  -6.25000009E-03  -4.84399970E-06
  -6.20000018E-03  -4.94201731E-06
  -6.14999980E-03  -5.04173977E-06
  -6.09999988E-03  -5.14319345E-06
  -6.04999997E-03  -5.24639836E-06
  -6.00000005E-03  -5.35137588E-06
  -5.95000014E-03  -5.45814646E-06
  -5.90000022E-03  -5.56673103E-06
  -5.84999984E-03  -5.67715597E-06
  -5.79999993E-03  -5.78944400E-06
  -5.75000001E-03  -5.90361560E-06
  -5.70000010E-03  -6.01968986E-06
  -5.65000018E-03  -6.13769134E-06
  -5.59999980E-03  -6.25764142E-06
  -5.54999989E-03  -6.37956236E-06
  -5.49999997E-03  -6.50347101E-06
  -5.45000006E-03  -6.62939010E-06
  -5.40000014E-03  -6.75734009E-06
  -5.35000023E-03  -6.88734644E-06
  -5.29999984E-03  -7.01943100E-06
  -5.24999993E-03  -7.15361784E-06
  -5.20000001E-03  -7.28992927E-06
  -5.15000010E-03  -7.42838938E-06
  -5.10000018E-03  -7.56902227E-06
  -5.04999980E-03  -7.71185205E-06
  -4.99999989E-03  -7.85690463E-06
  -4.94999997E-03  -8.00420548E-06
  -4.90000006E-03  -8.15378098E-06
  -4.85000014E-03  -8.30565750E-06
  -4.80000023E-03  -8.45986142E-06
  -4.74999985E-03  -8.61642002E-06
  -4.69999993E-03  -8.77535876E-06
  -4.65000002E-03  -8.93670313E-06
  -4.60000010E-03  -9.10047675E-06
  -4.55000019E-03  -9.26669873E-06
  -4.49999981E-03  -9.43539544E-06
  -4.44999989E-03  -9.60659236E-06
  -4.39999998E-03  -9.78031494E-06
  -4.35000006E-03  -9.95659138E-06
  -4.30000015E-03  -1.01354435E-05
  -4.25000023E-03  -1.03168968E-05
  -4.19999985E-03  -1.05009740E-05
  -4.14999994E-03  -1.06877078E-05
  -4.10000002E-03  -1.08771274E-05
  -4.05000011E-03  -1.10692627E-05
  -4.00000019E-03  -1.12641383E-05
  -3.94999981E-03  -1.14617842E-05
  -3.89999989E-03  -1.16622314E-05
  -3.84999998E-03  -1.18655162E-05
  -3.80000006E-03  -1.20716722E-05
  -3.74999992E-03  -1.22807269E-05
  -3.70000000E-03  -1.24927019E-05
  -3.65000009E-03  -1.27076291E-05
  -3.59999994E-03  -1.29255432E-05
  -3.55000002E-03  -1.31464776E-05
  -3.50000011E-03  -1.33704616E-05
  -3.44999996E-03  -1.35975215E-05
  -3.40000005E-03  -1.38276837E-05
  -3.34999990E-03  -1.40609836E-05
  -3.29999998E-03  -1.42974568E-05
  -3.25000007E-03  -1.45371305E-05
  -3.19999992E-03  -1.47800311E-05
  -3.15000000E-03  -1.50261885E-05
  -3.10000009E-03  -1.52756347E-05
  -3.04999994E-03  -1.55284106E-05
  -3.00000003E-03  -1.57845516E-05
  -2.95000011E-03  -1.60440868E-05
  -2.89999996E-03  -1.63070508E-05
  -2.85000005E-03  -1.65734709E-05
  -2.79999990E-03  -1.68433908E-05
  -2.74999999E-03  -1.71168449E-05
  -2.70000007E-03  -1.73938733E-05
  -2.64999992E-03  -1.76745052E-05
  -2.60000001E-03  -1.79587732E-05
  -2.55000009E-03  -1.82467211E-05
  -2.49999994E-03  -1.85383833E-05
  -2.45000003E-03  -1.88337926E-05
  -2.40000011E-03  -1.91329909E-05
  -2.34999997E-03  -1.94360164E-05
  -2.30000005E-03  -1.97429090E-05
  -2.24999990E-03  -2.00536961E-05
  -2.19999999E-03  -2.03684122E-05
  -2.15000007E-03  -2.06870936E-05
  -2.09999993E-03  -2.10097769E-05
  -2.05000001E-03  -2.13365074E-05
  -2.00000009E-03  -2.16673088E-05
  -1.94999995E-03  -2.20022157E-05
  -1.90000003E-03  -2.23412680E-05
  -1.85000000E-03  -2.26845077E-05
  -1.79999997E-03  -2.30319765E-05
  -1.75000005E-03  -2.33837090E-05
  -1.70000002E-03  -2.37397380E-05
  -1.64999999E-03  -2.41001053E-05
  -1.59999996E-03  -2.44648490E-05
  -1.55000004E-03  -2.48340111E-05
  -1.50000001E-03  -2.52076406E-05
  -1.44999998E-03  -2.55857831E-05
  -1.39999995E-03  -2.59684712E-05
  -1.35000004E-03  -2.63557376E-05
  -1.30000000E-03  -2.67476280E-05
  -1.24999997E-03  -2.71441913E-05
  -1.20000006E-03  -2.75454604E-05
  -1.15000003E-03  -2.79514697E-05
  -1.09999999E-03  -2.83622594E-05
  -1.04999996E-03  -2.87778657E-05
  -1.00000005E-03  -2.91983306E-05
  -9.50000016E-04  -2.96236994E-05
  -8.99999985E-04  -3.00539996E-05
  -8.50000011E-04  -3.04892746E-05
  -7.99999980E-04  -3.09295647E-05
  -7.50000007E-04  -3.13749042E-05
  -6.99999975E-04  -3.18253442E-05
  -6.50000002E-04  -3.22809210E-05
  -6.00000028E-04  -3.27416783E-05
  -5.49999997E-04  -3.32076561E-05
  -5.00000024E-04  -3.36788980E-05
  -4.49999992E-04  -3.41554551E-05
  -3.99999990E-04  -3.46373527E-05
  -3.49999988E-04  -3.51246454E-05
  -3.00000014E-04  -3.56173659E-05
  -2.50000012E-04  -3.61155653E-05
  -1.99999995E-04  -3.66192871E-05
  -1.50000007E-04  -3.71285678E-05
  -9.99999975E-05  -3.76434546E-05
  -4.99999987E-05  -3.81639802E-05
   0.00000000      -3.86901884E-05
   4.99999987E-05  -3.92221264E-05
   9.99999975E-05  -3.97598342E-05
   1.50000007E-04  -4.03033591E-05
   1.99999995E-04  -4.08527376E-05
   2.50000012E-04  -4.14079950E-05
   3.00000014E-04  -4.19691678E-05
   3.49999988E-04  -4.25363032E-05
   3.99999990E-04  -4.31094559E-05
   4.49999992E-04  -4.36886767E-05
   5.00000024E-04  -4.42740129E-05
   5.49999997E-04  -4.48654719E-05
   6.00000028E-04  -4.54630972E-05
   6.50000002E-04  -4.60669471E-05
   6.99999975E-04  -4.66770871E-05
   7.50000007E-04  -4.72935462E-05
   7.99999980E-04  -4.79163537E-05
   8.50000011E-04  -4.85455421E-05
   8.99999985E-04  -4.91811879E-05
   9.50000016E-04  -4.98233421E-05
   1.00000005E-03  -5.04720374E-05
   1.04999996E-03  -5.11273065E-05
   1.09999999E-03  -5.17891895E-05
   1.15000003E-03  -5.24577372E-05
   1.20000006E-03  -5.31330043E-05
   1.24999997E-03  -5.38150089E-05
   1.30000000E-03  -5.45037947E-05
   1.35000004E-03  -5.51994162E-05
   1.39999995E-03  -5.59018990E-05
   1.44999998E-03  -5.66112940E-05
   1.50000001E-03  -5.73276448E-05
   1.55000004E-03  -5.80509950E-05
   1.59999996E-03  -5.87813847E-05
   1.64999999E-03  -5.95188540E-05
   1.70000002E-03  -6.02634391E-05
   1.75000005E-03  -6.10152056E-05
   1.79999997E-03  -6.17741971E-05
   1.85000000E-03  -6.25404646E-05
   1.90000003E-03  -6.33140371E-05
   1.94999995E-03  -6.40949438E-05
   2.00000009E-03  -6.48832574E-05
   2.05000001E-03  -6.56790289E-05
   2.09999993E-03  -6.64823092E-05
   2.15000007E-03  -6.72931201E-05
   2.19999999E-03  -6.81114980E-05
   2.24999990E-03  -6.89374938E-05
   2.30000005E-03  -6.97711585E-05
   2.34999997E-03  -7.06125793E-05
   2.40000011E-03  -7.14617709E-05
   2.45000003E-03  -7.23187550E-05
   2.49999994E-03  -7.31835535E-05
   2.55000009E-03  -7.40562464E-05
   2.60000001E-03  -7.49368992E-05
   2.64999992E-03  -7.58255555E-05
   2.70000007E-03  -7.67222373E-05
   2.74999999E-03  -7.76269735E-05
   2.79999990E-03  -7.85398297E-05