  -3.99999991E-02   0.00000000    
  -3.99499983E-02   0.00000000    
  -3.99000011E-02   0.00000000    
  -3.98500003E-02   3.74171113E-17
  -3.97999994E-02   2.79548957E-16
  -3.97499986E-02   1.01590347E-15
  -3.97000015E-02   2.19653092E-15
  -3.96500006E-02   2.20267953E-15
  -3.95999998E-02  -3.94120746E-15
  -3.95499989E-02  -2.58431633E-14
  -3.95000018E-02  -7.68723667E-14
  -3.94500010E-02  -1.69989931E-13
  -3.94000001E-02  -3.10912185E-13
  -3.93499993E-02  -4.91691865E-13
  -3.92999984E-02  -6.89524501E-13
  -3.92500013E-02  -8.74936842E-13
  -3.92000005E-02  -1.02955860E-12
  -3.91499996E-02  -1.16731516E-12
  -3.90999988E-02  -1.34732134E-12
  -3.90500017E-02  -1.66642318E-12
  -3.90000008E-02  -2.22694302E-12
  -3.89500000E-02  -3.08882368E-12
  -3.88999991E-02  -4.22823278E-12
  -3.88499983E-02  -5.52828226E-12
  -3.88000011E-02  -6.81703608E-12
  -3.87500003E-02  -7.94591216E-12
  -3.86999995E-02  -8.87740055E-12
  -3.86499986E-02  -9.73722665E-12
  -3.86000015E-02  -1.07926133E-11
  -3.85500006E-02  -1.23472907E-11
  -3.84999998E-02  -1.45860650E-11
  -3.84499989E-02  -1.74377405E-11
  -3.84000018E-02  -2.05329833E-11
  -3.83500010E-02  -2.33011700E-11
  -3.83000001E-02  -2.51863721E-11
  -3.82499993E-02  -2.58965974E-11
  -3.81999984E-02  -2.55686878E-11
  -3.81500013E-02  -2.47558432E-11
  -3.81000005E-02  -2.42192533E-11
  -3.80499996E-02  -2.45969928E-11
  -3.79999988E-02  -2.60888498E-11
  -3.79500017E-02  -2.83019424E-11
  -3.79000008E-02  -3.03410422E-11
  -3.78500000E-02  -3.11215220E-11
  -3.77999991E-02  -2.97777671E-11
  -3.77499983E-02  -2.59864578E-11
  -3.77000012E-02  -2.00548883E-11
  -3.76500003E-02  -1.27297261E-11
  -3.75999995E-02  -4.81215675E-12
  -3.75499986E-02   3.24608396E-12
  -3.75000015E-02   1.15896624E-11
  -3.74500006E-02   2.09534681E-11
  -3.73999998E-02   3.24212740E-11
  -3.73499990E-02   4.70555192E-11
  -3.73000018E-02   6.55312610E-11
  -3.72500010E-02   8.78778786E-11
  -3.72000001E-02   1.13378452E-10
  -3.71499993E-02   1.40634684E-10
  -3.70999984E-02   1.67791392E-10
  -3.70500013E-02   1.92919014E-10
  -3.70000005E-02   2.14541773E-10
  -3.69499996E-02   2.32240033E-10
  -3.68999988E-02   2.47149162E-10
  -3.68500017E-02   2.62077332E-10
  -3.68000008E-02   2.80971413E-10
  -3.67500000E-02   3.07653958E-10
  -3.66999991E-02   3.44114154E-10
  -3.66499983E-02   3.89014043E-10
  -3.66000012E-02   4.37226200E-10
  -3.65500003E-02   4.80973039E-10
  -3.64999995E-02   5.12485721E-10
  -3.64499986E-02   5.27289823E-10
  -3.64000015E-02   5.26645894E-10
  -3.63500006E-02   5.17715371E-10
  -3.62999998E-02   5.10819609E-10
  -3.62499990E-02   5.14497667E-10
  -3.62000018E-02   5.30385791E-10
  -3.61500010E-02   5.50527457E-10
  -3.61000001E-02   5.59080060E-10
  -3.60499993E-02   5.38551814E-10
  -3.59999985E-02   4.78365403E-10
  -3.59500013E-02   3.81837950E-10
  -3.59000005E-02   2.67629557E-10
  -3.58499996E-02   1.63726810E-10
  -3.57999988E-02   9.54486074E-11
  -3.57500017E-02   7.23044472E-11
  -3.57000008E-02   8.00722821E-11
  -3.56500000E-02   8.30617589E-11
  -3.55999991E-02   3.73640875E-11
  -3.55499983E-02  -8.94499960E-11
  -3.55000012E-02  -3.00768799E-10
  -3.54500003E-02  -5.64559344E-10
  -3.53999995E-02  -8.23217605E-10
  -3.53499986E-02  -1.01747910E-09
  -3.53000015E-02  -1.11486709E-09
  -3.52500007E-02  -1.12935583E-09
  -3.51999998E-02  -1.12116161E-09
  -3.51499990E-02  -1.17367438E-09
  -3.51000018E-02  -1.35536582E-09
  -3.50500010E-02  -1.68308323E-09
  -3.50000001E-02  -2.10491491E-09
  -3.49499993E-02  -2.51390420E-09
  -3.48999985E-02  -2.79044587E-09
  -3.48500013E-02  -2.85689317E-09
  -3.48000005E-02  -2.71961831E-09
  -3.47499996E-02  -2.47643905E-09
  -3.46999988E-02  -2.28116770E-09
  -3.46500017E-02  -2.27675656E-09
  -3.46000008E-02  -2.52525312E-09
  -3.45500000E-02  -2.96792391E-09
  -3.44999991E-02  -3.43846818E-09
  -3.44499983E-02  -3.72938969E-09
  -3.44000012E-02  -3.68592779E-09
  -3.43500003E-02  -3.28557448E-09
  -3.42999995E-02  -2.66320499E-09
  -3.42499986E-02  -2.06337725E-09
  -3.42000015E-02  -1.73433912E-09
  -3.41500007E-02  -1.80809445E-09
  -3.40999998E-02  -2.22269070E-09
  -3.40499990E-02  -2.72894152E-09
  -3.40000018E-02  -2.98788727E-09
  -3.39500010E-02  -2.72233014E-09
  -3.39000002E-02  -1.85576554E-09
  -3.38499993E-02  -5.70847758E-10
  -3.37999985E-02   7.49149354E-10
  -3.37500013E-02   1.68026559E-09
  -3.37000005E-02   1.95347449E-09
  -3.36499996E-02   1.59647517E-09
  -3.35999988E-02   9.48704337E-10
  -3.35500017E-02   5.29708277E-10
  -3.35000008E-02   8.08967560E-10
  -3.34500000E-02   1.97700922E-09
  -3.33999991E-02   3.82680598E-09
  -3.33499983E-02   5.81254023E-09
  -3.33000012E-02   7.27481453E-09
  -3.32500003E-02   7.74116149E-09
  -3.31999995E-02   7.16636928E-09
  -3.31499986E-02   5.99309624E-09
  -3.31000015E-02   4.98745978E-09
  -3.30500007E-02   4.90675767E-09
  -3.29999998E-02   6.14102946E-09
  -3.29499990E-02   8.49517257E-09
  -3.29000019E-02   1.12266010E-08
  -3.28500010E-02   1.33428752E-08
  -3.28000002E-02   1.40414445E-08
  -3.27499993E-02   1.30966669E-08
  -3.26999985E-02   1.10078098E-08
  -3.26500013E-02   8.81897488E-09
  -3.26000005E-02   7.66915953E-09
  -3.25499997E-02   8.26249114E-09
  -3.24999988E-02   1.05013864E-08
  -3.24500017E-02   1.34679903E-08
  -3.24000008E-02   1.57899223E-08
  -3.23500000E-02   1.62484479E-08
  -3.22999991E-02   1.43622394E-08
  -3.22499983E-02   1.06707478E-08
  -3.22000012E-02   6.56109744E-09
  -3.21500003E-02   3.68484554E-09
  -3.20999995E-02   3.20685478E-09
  -3.20499986E-02   5.22535482E-09
  -3.20000015E-02   8.64718519E-09
  -3.19500007E-02   1.16098056E-08
  -3.18999998E-02   1.22924035E-08
  -3.18499990E-02   9.76517089E-09
  -3.18000019E-02   4.48313431E-09
  -3.17500010E-02  -1.83061133E-09
  -3.17000002E-02  -6.89992996E-09
  -3.16499993E-02  -8.91649865E-09
  -3.15999985E-02  -7.41141015E-09
  -3.15500014E-02  -3.56117402E-09
  -3.15000005E-02   2.52521698E-10
  -3.14499997E-02   1.47402091E-09
  -3.13999988E-02  -1.44508605E-09
  -3.13500017E-02  -8.25457658E-09
  -3.13000008E-02  -1.68976371E-08
  -3.12500000E-02  -2.43408422E-08
  -3.11999992E-02  -2.79102927E-08
  -3.11500002E-02  -2.65460134E-08
  -3.10999993E-02  -2.13878177E-08
  -3.10500003E-02  -1.53795714E-08
  -3.09999995E-02  -1.20150485E-08
  -3.09500005E-02  -1.37539367E-08
  -3.08999997E-02  -2.08213162E-08
  -3.08500007E-02  -3.09687955E-08
  -3.07999998E-02  -4.03642169E-08
  -3.07500008E-02  -4.52640201E-08
  -3.07000000E-02  -4.37398668E-08
  -3.06499992E-02  -3.66643143E-08
  -3.06000002E-02  -2.74577392E-08
  -3.05499993E-02  -2.06438528E-08
  -3.05000003E-02  -1.98147241E-08
  -3.04499995E-02  -2.59126924E-08
  -3.04000005E-02  -3.66403405E-08
  -3.03499997E-02  -4.73330992E-08
  -3.03000007E-02  -5.29719060E-08
  -3.02499998E-02  -5.04697049E-08
  -3.02000009E-02  -4.01926243E-08
  -3.01500000E-02  -2.59741970E-08
  -3.00999992E-02  -1.35365736E-08
  -3.00500002E-02  -7.96219179E-09
  -2.99999993E-02  -1.13302123E-08
  -2.99500003E-02  -2.16135412E-08
  -2.98999995E-02  -3.34075843E-08
  -2.98500005E-02  -4.02478229E-08
  -2.97999997E-02  -3.75301710E-08
  -2.97500007E-02  -2.47218761E-08
  -2.96999998E-02  -5.81204906E-09
  -2.96500009E-02   1.22915180E-08
  -2.96000000E-02   2.27834427E-08
  -2.95499992E-02   2.20818368E-08
  -2.95000002E-02   1.16222720E-08
  -2.94499993E-02  -2.56158250E-09
  -2.94000003E-02  -1.23835706E-08
  -2.93499995E-02  -1.13106582E-08
  -2.93000005E-02   2.57304156E-09
  -2.92499997E-02   2.54709978E-08
  -2.92000007E-02   4.93385031E-08
  -2.91499998E-02   6.53520260E-08
  -2.91000009E-02   6.78869512E-08
  -2.90500000E-02   5.72083501E-08
  -2.89999992E-02   3.95891995E-08
  -2.89500002E-02   2.46903440E-08
  -2.88999993E-02   2.12815667E-08
  -2.88500004E-02   3.31873764E-08
  -2.87999995E-02   5.73187684E-08
  -2.87500005E-02   8.47782005E-08
  -2.86999997E-02   1.04662760E-07
  -2.86500007E-02   1.08942643E-07
  -2.85999998E-02   9.62338760E-08
  -2.85500009E-02   7.26986400E-08
  -2.85000000E-02   4.95447559E-08
  -2.84499992E-02   3.81254814E-08
  -2.84000002E-02   4.47746231E-08
  -2.83499993E-02   6.77186520E-08
  -2.83000004E-02   9.75541141E-08
  -2.82499995E-02   1.21213631E-07
  -2.82000005E-02   1.27752557E-07
  -2.81499997E-02   1.13394783E-07
  -2.81000007E-02   8.35144220E-08
  -2.80499998E-02   5.05351814E-08
  -2.80000009E-02   2.85478094E-08
  -2.79500000E-02   2.69688947E-08
  -2.78999992E-02   4.60871448E-08
  -2.78500002E-02   7.65915900E-08
  -2.77999993E-02   1.03444179E-07
  -2.77500004E-02   1.12498526E-07
  -2.76999995E-02   9.69607115E-08
  -2.76500005E-02   6.07536705E-08
  -2.75999997E-02   1.71460091E-08
  -2.75500007E-02  -1.69046022E-08
  -2.74999999E-02  -2.82829031E-08
  -2.74500009E-02  -1.37758187E-08
  -2.74000000E-02   1.81365838E-08
  -2.73499992E-02   5.07191444E-08
  -2.73000002E-02   6.62728468E-08
  -2.72499993E-02   5.41105187E-08
  -2.72000004E-02   1.56302953E-08
  -2.71499995E-02  -3.59070960E-08
  -2.71000005E-02  -8.09733791E-08
  -2.70499997E-02  -1.02387624E-07
  -2.70000007E-02  -9.31534245E-08
  -2.69499999E-02  -5.99475314E-08
  -2.69000009E-02  -2.05391490E-08
  -2.68500000E-02   3.89163546E-09
  -2.67999992E-02  -1.77122161E-09
  -2.67500002E-02  -3.95367863E-08
  -2.66999993E-02  -9.69578124E-08
  -2.66500004E-02  -1.52267191E-07
  -2.65999995E-02  -1.83886499E-07
  -2.65500005E-02  -1.80150366E-07
  -2.64999997E-02  -1.44862270E-07
  -2.64500007E-02  -9.60438840E-08
  -2.63999999E-02  -5.82312651E-08
  -2.63500009E-02  -5.15962526E-08
  -2.63000000E-02  -8.27049931E-08
  -2.62499992E-02  -1.41133555E-07
  -2.62000002E-02  -2.03645257E-07
  -2.61499994E-02  -2.44273878E-07
  -2.61000004E-02  -2.45941578E-07
  -2.60499995E-02  -2.08417447E-07
  -2.60000005E-02  -1.48918119E-07
  -2.59499997E-02  -9.48608303E-08
  -2.59000007E-02  -7.18041306E-08
  -2.58499999E-02  -9.18699996E-08
  -2.58000009E-02  -1.47879419E-07
  -2.57500000E-02  -2.16009738E-07
  -2.56999992E-02  -2.66024188E-07
  -2.56500002E-02  -2.74684481E-07
  -2.55999994E-02  -2.36398250E-07
  -2.55500004E-02  -1.66229825E-07
  -2.54999995E-02  -9.37025746E-08
  -2.54500005E-02  -4.99256849E-08
  -2.53999997E-02  -5.36530891E-08
  -2.53500007E-02  -1.02519145E-07
  -2.52999999E-02  -1.73537927E-07
  -2.52500009E-02  -2.32893939E-07
  -2.52000000E-02  -2.50871665E-07
  -2.51499992E-02  -2.15344727E-07
  -2.51000002E-02  -1.37716114E-07
  -2.50499994E-02  -4.84336766E-08
  -2.50000004E-02   1.61819944E-08
  -2.49499995E-02   3.01039904E-08
  -2.49000005E-02  -1.04315205E-08
  -2.48499997E-02  -8.46461106E-08
  -2.48000007E-02  -1.55910399E-07
  -2.47499999E-02  -1.87784096E-07
  -2.47000009E-02  -1.60384147E-07
  -2.46500000E-02  -7.97316062E-08
  -2.45999992E-02   2.43040912E-08
  -2.45500002E-02   1.10829056E-07
  -2.44999994E-02   1.46023453E-07
  -2.44500004E-02   1.18511302E-07
  -2.43999995E-02   4.50243185E-08
  -2.43500005E-02  -3.64291601E-08
  -2.42999997E-02  -8.31302387E-08
  -2.42500007E-02  -6.67438727E-08
  -2.41999999E-02   1.35803981E-08
  -2.41500009E-02   1.30138346E-07
  -2.41000000E-02   2.38409640E-07
  -2.40499992E-02   2.96643236E-07
  -2.40000002E-02   2.84678435E-07
  -2.39499994E-02   2.13525425E-07
  -2.39000004E-02   1.21178900E-07
  -2.38499995E-02   5.62151428E-08
  -2.38000005E-02   5.62508475E-08
  -2.37499997E-02   1.30818165E-07
  -2.37000007E-02   2.56449539E-07
  -2.36499999E-02   3.86462801E-07
  -2.36000009E-02   4.71389939E-07
  -2.35500000E-02   4.81116956E-07
  -2.34999992E-02   4.18829302E-07
  -2.34500002E-02   3.20312722E-07
  -2.33999994E-02   2.38595732E-07
  -2.33500004E-02   2.20503296E-07
  -2.32999995E-02   2.85474869E-07
  -2.32500006E-02   4.16212373E-07
  -2.31999997E-02   5.65618961E-07
  -2.31500007E-02   6.77268190E-07
  -2.30999999E-02   7.10504935E-07
  -2.30500009E-02   6.59003206E-07
  -2.30000000E-02   5.54306723E-07
  -2.29499992E-02   4.52441270E-07
  -2.29000002E-02   4.09252237E-07
  -2.28499994E-02   4.55306377E-07
  -2.28000004E-02   5.81618849E-07
  -2.27499995E-02   7.42839120E-07
  -2.27000006E-02   8.76821673E-07
  -2.26499997E-02   9.32123555E-07
  -2.26000007E-02   8.91238130E-07
  -2.25499999E-02   7.79043148E-07
  -2.25000009E-02   6.52373330E-07
  -2.24500000E-02   5.75026036E-07
  -2.23999992E-02   5.89140370E-07
  -2.23500002E-02   6.95736333E-07
  -2.22999994E-02   8.53336417E-07
  -2.22500004E-02   9.95639994E-07
  -2.21999995E-02   1.06068114E-06
  -2.21500006E-02   1.01859757E-06
  -2.20999997E-02   8.85506438E-07
  -2.20500007E-02   7.17001058E-07
  -2.19999999E-02   5.83806752E-07
  -2.19500009E-02   5.40200290E-07
  -2.19000001E-02   5.99241787E-07
  -2.18499992E-02   7.26063774E-07
  -2.18000002E-02   8.52557548E-07
  -2.17499994E-02   9.07239098E-07
  -2.17000004E-02   8.47149181E-07
  -2.16499995E-02   6.77497837E-07
  -2.16000006E-02   4.50017353E-07
  -2.15499997E-02   2.40396844E-07
  -2.15000007E-02   1.14573155E-07
  -2.14499999E-02   9.88314000E-08
  -2.14000009E-02   1.67202970E-07
  -2.13500001E-02   2.52115768E-07
  -2.12999992E-02   2.73893505E-07
  -2.12500002E-02   1.76164590E-07
  -2.11999994E-02  -4.86140799E-08
  -2.11500004E-02  -3.55140884E-07
  -2.10999995E-02  -6.64898039E-07
  -2.10500006E-02  -9.00977057E-07
  -2.09999997E-02  -1.02269883E-06
  -2.09500007E-02  -1.04448168E-06
  -2.08999999E-02  -1.03024513E-06
  -2.08500009E-02  -1.06550078E-06
  -2.08000001E-02  -1.21934215E-06
  -2.07499992E-02  -1.51325321E-06
  -2.07000002E-02  -1.91084428E-06
  -2.06499994E-02  -2.33343121E-06
  -2.06000004E-02  -2.69482598E-06
  -2.05499995E-02  -2.93997869E-06
  -2.05000006E-02  -3.07017217E-06
  -2.04499997E-02  -3.14326394E-06
  -2.04000007E-02  -3.24852203E-06
  -2.03499999E-02  -3.46700631E-06
  -2.03000009E-02  -3.83509632E-06
  -2.02500001E-02  -4.32757724E-06
  -2.01999992E-02  -4.86812723E-06
  -2.01500002E-02  -5.36285916E-06
  -2.00999994E-02  -5.74214118E-06
  -2.00500004E-02  -5.99202940E-06
  -1.99999996E-02  -6.16107172E-06
  -1.99500006E-02  -6.33912896E-06
  -1.98999997E-02  -6.61740341E-06
  -1.98500007E-02  -7.04739659E-06
  -1.97999999E-02  -7.61720821E-06
  -1.97500009E-02  -8.25603547E-06
  -1.97000001E-02  -8.86516500E-06
  -1.96499992E-02  -9.36184097E-06
  -1.96000002E-02  -9.71645204E-06
  -1.95499994E-02  -9.96628478E-06
  -1.95000004E-02  -1.01993883E-05
  -1.94499996E-02  -1.05154850E-05
  -1.94000006E-02  -1.09812499E-05
  -1.93499997E-02  -1.15999528E-05
  -1.93000007E-02  -1.23092295E-05
  -1.92499999E-02  -1.30082753E-05
  -1.92000009E-02  -1.36025510E-05
  -1.91500001E-02  -1.40460679E-05
  -1.90999992E-02  -1.43622683E-05
  -1.90500002E-02  -1.46339471E-05
  -1.89999994E-02  -1.49664374E-05
  -1.89500004E-02  -1.54403879E-05
  -1.88999996E-02  -1.60752315E-05
  -1.88500006E-02  -1.68198094E-05
  -1.87999997E-02  -1.75746627E-05
  -1.87500007E-02  -1.82362019E-05
  -1.86999999E-02  -1.87431124E-05
  -1.86500009E-02  -1.91041781E-05
  -1.86000001E-02  -1.93948763E-05
  -1.85499992E-02  -1.97240479E-05
  -1.85000002E-02  -2.01853582E-05
  -1.84499994E-02  -2.08151923E-05
  -1.84000004E-02  -2.15760119E-05
  -1.83499996E-02  -2.23727475E-05
  -1.83000006E-02  -2.30951682E-05
  -1.82499997E-02  -2.36673313E-05
  -1.82000007E-02  -2.40819609E-05
  -1.81499999E-02  -2.44042803E-05
  -1.81000009E-02  -2.47433618E-05
  -1.80500001E-02  -2.52036007E-05
  -1.79999992E-02  -2.58380260E-05
  -1.79500002E-02  -2.66245133E-05
  -1.78999994E-02  -2.74755148E-05
  -1.78500004E-02  -2.82772980E-05
  -1.77999996E-02  -2.89411964E-05
  -1.77500006E-02  -2.94439596E-05
  -1.76999997E-02  -2.98388823E-05
  -1.76500008E-02  -3.02327262E-05
  -1.75999999E-02  -3.07386435E-05
  -1.75500009E-02  -3.14259378E-05
  -1.75000001E-02  -3.22893029E-05
  -1.74499992E-02  -3.32515083E-05
  -1.74000002E-02  -3.41982995E-05
  -1.73499994E-02  -3.50301198E-05
  -1.73000004E-02  -3.57073804E-05
  -1.72499996E-02  -3.62689389E-05
  -1.72000006E-02  -3.68154506E-05
  -1.71499997E-02  -3.74649935E-05
  -1.71000008E-02  -3.83006809E-05
  -1.70499999E-02  -3.93338014E-05
  -1.70000009E-02  -4.04991370E-05
  -1.69500001E-02  -4.16846742E-05
  -1.68999992E-02  -4.27824416E-05
  -1.68500002E-02  -4.37376621E-05
  -1.67999994E-02  -4.45742189E-05
  -1.67500004E-02  -4.53848297E-05
  -1.66999996E-02  -4.62903663E-05
  -1.66500006E-02  -4.73864493E-05
  -1.65999997E-02  -4.87012258E-05
  -1.65500008E-02  -5.01834475E-05
  -1.64999999E-02  -5.17260451E-05
  -1.64500009E-02  -5.32149279E-05
  -1.64000001E-02  -5.45810799E-05
  -1.63499992E-02  -5.58321226E-05
  -1.63000003E-02  -5.70497104E-05
  -1.62499994E-02  -5.83536021E-05
  -1.62000004E-02  -5.98484912E-05
  -1.61499996E-02  -6.15775352E-05
  -1.61000006E-02  -6.35035030E-05
  -1.60499997E-02  -6.55262265E-05
  -1.60000008E-02  -6.75282645E-05
  -1.59499999E-02  -6.94283808E-05
  -1.59000009E-02  -7.12183755E-05
  -1.58500001E-02  -7.29677049E-05
  -1.57999992E-02  -7.47930608E-05
  -1.57500003E-02  -7.68063837E-05
  -1.56999994E-02  -7.90652120E-05
  -1.56500004E-02  -8.15478270E-05
  -1.55999996E-02  -8.41635847E-05
  -1.55499997E-02  -8.67941635E-05
  -1.54999997E-02  -8.93474862E-05
  -1.54499998E-02  -9.17995858E-05
  -1.53999999E-02  -9.42058396E-05
  -1.53500000E-02  -9.66762309E-05
  -1.53000001E-02  -9.93260110E-05
  -1.52500002E-02  -1.02224280E-04
  -1.52000003E-02  -1.05363673E-04
  -1.51500003E-02  -1.08663953E-04
  -1.51000004E-02  -1.12008718E-04
  -1.50499996E-02  -1.15298586E-04
  -1.49999997E-02  -1.18495969E-04
  -1.49499997E-02  -1.21642443E-04
  -1.48999998E-02  -1.24840793E-04
  -1.48499999E-02  -1.28208572E-04
  -1.48000000E-02  -1.31825960E-04
  -1.47500001E-02  -1.35700262E-04
  -1.47000002E-02  -1.39763244E-04
  -1.46500003E-02  -1.43902798E-04
  -1.46000003E-02  -1.48013860E-04
  -1.45500004E-02  -1.52046530E-04
  -1.44999996E-02  -1.56028662E-04
  -1.44499997E-02  -1.60053765E-04
  -1.43999998E-02  -1.64239231E-04
  -1.43499998E-02  -1.68673214E-04
  -1.42999999E-02  -1.73375927E-04
  -1.42500000E-02  -1.78291230E-04
  -1.42000001E-02  -1.83312950E-04
  -1.41500002E-02  -1.88333623E-04
  -1.41000003E-02  -1.93293497E-04
  -1.40500003E-02  -1.98208276E-04
  -1.40000004E-02  -2.03162461E-04
  -1.39499996E-02  -2.08271755E-04
  -1.38999997E-02  -2.13631778E-04
  -1.38499998E-02  -2.19275753E-04
  -1.37999998E-02  -2.25160926E-04
  -1.37499999E-02  -2.31189479E-04
  -1.37000000E-02  -2.37254353E-04
  -1.36500001E-02  -2.43288465E-04
  -1.36000002E-02  -2.49296485E-04
  -1.35500003E-02  -2.55353050E-04
  -1.35000004E-02  -2.61569367E-04
  -1.34500004E-02  -2.68045114E-04
  -1.33999996E-02  -2.74823717E-04
  -1.33499997E-02  -2.81874847E-04
  -1.32999998E-02  -2.89110612E-04
  -1.32499998E-02  -2.96426326E-04
  -1.31999999E-02  -3.03749839E-04
  -1.31500000E-02  -3.11075448E-04
  -1.31000001E-02  -3.18468083E-04
  -1.30500002E-02  -3.26034933E-04
  -1.30000003E-02  -3.33878939E-04
  -1.29500004E-02  -3.42053943E-04
  -1.29000004E-02  -3.50542105E-04
  -1.28499996E-02  -3.59265454E-04
  -1.27999997E-02  -3.68123350E-04
  -1.27499998E-02  -3.77040240E-04
  -1.26999998E-02  -3.86002735E-04
  -1.26499999E-02  -3.95066716E-04
  -1.26000000E-02  -4.04334074E-04
  -1.25500001E-02  -4.13907837E-04
  -1.25000002E-02  -4.23847639E-04
  -1.24500003E-02  -4.34146379E-04
  -1.24000004E-02  -4.44734731E-04
  -1.23500004E-02  -4.55516303E-04
  -1.22999996E-02  -4.66414320E-04
  -1.22499997E-02  -4.77407419E-04
  -1.21999998E-02  -4.88542079E-04
  -1.21499998E-02  -4.99912945E-04
  -1.20999999E-02  -5.11622289E-04
  -1.20500000E-02  -5.23736177E-04
  -1.20000001E-02  -5.36257110E-04
  -1.19500002E-02  -5.49126824E-04
  -1.19000003E-02  -5.62256202E-04
  -1.18500004E-02  -5.75568352E-04
  -1.18000004E-02  -5.89037023E-04
  -1.17499996E-02  -6.02701097E-04
  -1.16999997E-02  -6.16649515E-04
  -1.16499998E-02  -6.30983443E-04
  -1.15999999E-02  -6.45771390E-04
  -1.15499999E-02  -6.61021506E-04
  -1.15000000E-02  -6.76682277E-04
  -1.14500001E-02  -6.92667614E-04
  -1.14000002E-02  -7.08898879E-04
  -1.13500003E-02  -7.25344231E-04
  -1.13000004E-02  -7.42035685E-04
  -1.12500004E-02  -7.59055431E-04
  -1.11999996E-02  -7.76502129E-04
  -1.11499997E-02  -7.94447726E-04
  -1.10999998E-02  -8.12908460E-04
  -1.10499999E-02  -8.31842481E-04
  -1.09999999E-02  -8.51170218E-04
  -1.09500000E-02  -8.70815711E-04
  -1.09000001E-02  -8.90745490E-04
  -1.08500002E-02  -9.10984993E-04
  -1.08000003E-02  -9.31611983E-04
  -1.07500004E-02  -9.52721282E-04
  -1.07000005E-02  -9.74383671E-04
  -1.06499996E-02  -9.96618415E-04
  -1.05999997E-02  -1.01938739E-03
  -1.05499998E-02  -1.04261574E-03
  -1.04999999E-02  -1.06622826E-03
  -1.04499999E-02  -1.09018816E-03
  -1.04000000E-02  -1.11451454E-03
  -1.03500001E-02  -1.13927724E-03
  -1.03000002E-02  -1.16456673E-03
  -1.02500003E-02  -1.19045482E-03
  -1.02000004E-02  -1.21696736E-03
  -1.01500005E-02  -1.24407234E-03
  -1.00999996E-02  -1.27170142E-03
  -1.00499997E-02  -1.29978347E-03
  -9.99999978E-03  -1.32828124E-03
  -9.94999986E-03  -1.35721406E-03
  -9.89999995E-03  -1.38664851E-03
  -9.85000003E-03  -1.41667260E-03
  -9.80000012E-03  -1.44735805E-03
  -9.75000020E-03  -1.47872965E-03
  -9.70000029E-03  -1.51076168E-03
  -9.65000037E-03  -1.54339091E-03
  -9.60000046E-03  -1.57654972E-03
  -9.54999961E-03  -1.61020504E-03
  -9.49999969E-03  -1.64437201E-03
  -9.44999978E-03  -1.67910883E-03
  -9.39999986E-03  -1.71449536E-03
  -9.34999995E-03  -1.75059831E-03
  -9.30000003E-03  -1.78744295E-03
  -9.25000012E-03  -1.82500575E-03
  -9.20000020E-03  -1.86323072E-03
  -9.15000029E-03  -1.90206023E-03
  -9.10000037E-03  -1.94146251E-03
  -9.05000046E-03  -1.98144629E-03
  -8.99999961E-03  -2.02206871E-03
  -8.94999970E-03  -2.06341082E-03
  -8.89999978E-03  -2.10553734E-03
  -8.84999987E-03  -2.14847387E-03
  -8.79999995E-03  -2.19220226E-03
  -8.75000004E-03  -2.23667268E-03
  -8.70000012E-03  -2.28183111E-03
  -8.65000021E-03  -2.32765242E-03
  -8.60000029E-03  -2.37414823E-03
  -8.55000038E-03  -2.42136908E-03
  -8.50000046E-03  -2.46938551E-03
  -8.44999962E-03  -2.51825759E-03
  -8.39999970E-03  -2.56801536E-03
  -8.34999979E-03  -2.61864299E-03
  -8.29999987E-03  -2.67009204E-03
  -8.24999996E-03  -2.72231433E-03
  -8.20000004E-03  -2.77528539E-03
  -8.15000013E-03  -2.82901805E-03
  -8.10000021E-03  -2.88355909E-03
  -8.05000030E-03  -2.93897279E-03
  -8.00000038E-03  -2.99531431E-03
  -7.95000046E-03  -3.05260741E-03
  -7.89999962E-03  -3.11083696E-03
  -7.84999970E-03  -3.16995848E-03
  -7.79999979E-03  -3.22992168E-03
  -7.74999987E-03  -3.29070189E-03
  -7.69999996E-03  -3.35231819E-03
  -7.65000004E-03  -3.41481715E-03
  -7.60000013E-03  -3.47826490E-03
  -7.55000021E-03  -3.54272174E-03
  -7.49999983E-03  -3.60820000E-03
  -7.44999992E-03  -3.67467524E-03
  -7.40000000E-03  -3.74210509E-03
  -7.35000009E-03  -3.81044880E-03
  -7.30000017E-03  -3.87969310E-03
  -7.24999979E-03  -3.94985778E-03
  -7.19999988E-03  -4.02099313E-03
  -7.14999996E-03  -4.09316225E-03
  -7.10000005E-03  -4.16641217E-03
  -7.05000013E-03  -4.24074940E-03
  -7.00000022E-03  -4.31614183E-03
  -6.94999984E-03  -4.39254148E-03
  -6.89999992E-03  -4.46990272E-03
  -6.85000001E-03  -4.54821670E-03
  -6.80000009E-03  -4.62751230E-03
  -6.75000018E-03  -4.70784213E-03
  -6.69999979E-03  -4.78925975E-03
  -6.64999988E-03  -4.87179682E-03
  -6.59999996E-03  -4.95545147E-03
  -6.55000005E-03  -5.04018879E-03
  -6.50000013E-03  -5.12595661E-03
  -6.45000022E-03  -5.21272095E-03
  -6.39999984E-03  -5.30048599E-03
  -6.34999992E-03  -5.38928993E-03
  -6.30000001E-03  -5.47918817E-03
  -6.25000009E-03  -5.57023287E-03
  -6.20000018E-03  -5.66245010E-03
  -6.14999980E-03  -5.75582962E-03
  -6.09999988E-03  -5.85032674E-03
  -6.04999997E-03  -5.94588974E-03
  -6.00000005E-03  -6.04247767E-03
  -5.95000014E-03  -6.14009099E-03
  -5.90000022E-03  -6.23877998E-03
  -5.84999984E-03  -6.33861823E-03
  -5.79999993E-03  -6.43965416E-03
  -5.75000001E-03  -6.54188124E-03
  -5.70000010E-03  -6.64527435E-03
  -5.65000018E-03  -6.74977014E-03
  -5.59999980E-03  -6.85529830E-03
  -5.54999989E-03  -6.96182810E-03
  -5.49999997E-03  -7.06936698E-03
  -5.45000006E-03  -7.17797596E-03
  -5.40000014E-03  -7.28773512E-03
  -5.35000023E-03  -7.39870733E-03
  -5.29999984E-03  -7.51091354E-03
  -5.24999993E-03  -7.62431836E-03
  -5.20000001E-03  -7.73883238E-03
  -5.15000010E-03  -7.85436016E-03
  -5.10000018E-03  -7.97083508E-03
  -5.04999980E-03  -8.08827486E-03
  -4.99999989E-03  -8.20677448E-03
  -4.94999997E-03  -8.32644571E-03
  -4.90000006E-03  -8.44738074E-03
  -4.85000014E-03  -8.56958795E-03
  -4.80000023E-03  -8.69299658E-03
  -4.74999985E-03  -8.81748926E-03
  -4.69999993E-03  -8.94290861E-03
  -4.65000002E-03  -9.06916428E-03
  -4.60000010E-03  -9.19628702E-03
  -4.55000019E-03  -9.32437368E-03
  -4.49999981E-03  -9.45355929E-03
  -4.44999989E-03  -9.58399009E-03
  -4.39999998E-03  -9.71569866E-03
  -4.35000006E-03  -9.84859560E-03
  -4.30000015E-03  -9.98251326E-03
  -4.25000023E-03  -1.01172514E-02
  -4.19999985E-03  -1.02527048E-02
  -4.14999994E-03  -1.03888828E-02
  -4.10000002E-03  -1.05259074E-02
  -4.05000011E-03  -1.06639741E-02
  -4.00000019E-03  -1.08032515E-02
  -3.94999981E-03  -1.09437974E-02
  -3.89999989E-03  -1.10855112E-02
  -3.84999998E-03  -1.12281609E-02
  -3.80000006E-03  -1.13715036E-02
  -3.74999992E-03  -1.15153678E-02
  -3.70000000E-03  -1.16597554E-02
  -3.65000009E-03  -1.18048098E-02
  -3.59999994E-03  -1.19507778E-02
  -3.55000002E-03  -1.20978532E-02
  -3.50000011E-03  -1.22460816E-02
  -3.44999996E-03  -1.23953661E-02
  -3.40000005E-03  -1.25454282E-02
  -3.34999990E-03  -1.26959654E-02
  -3.29999998E-03  -1.28467921E-02
  -3.25000007E-03  -1.29978824E-02
  -3.19999992E-03  -1.31493704E-02
  -3.15000000E-03  -1.33015197E-02
  -3.10000009E-03  -1.34545760E-02
  -3.04999994E-03  -1.36086317E-02
  -3.00000003E-03  -1.37635702E-02
  -2.95000011E-03  -1.39191123E-02
  -2.89999996E-03  -1.40749021E-02
  -2.85000005E-03  -1.42306732E-02
  -2.79999990E-03  -1.43863726E-02
  -2.74999999E-03  -1.45421065E-02
  -2.70000007E-03  -1.46981394E-02
  -2.64999992E-03  -1.48547692E-02
  -2.60000001E-03  -1.50121469E-02
  -2.55000009E-03  -1.51702315E-02
  -2.49999994E-03  -1.53287239E-02
  -2.45000003E-03  -1.54871903E-02
  -2.40000011E-03  -1.56452768E-02
  -2.34999997E-03  -1.58028286E-02
  -2.30000005E-03  -1.59598943E-02
  -2.24999990E-03  -1.61167737E-02
  -2.19999999E-03  -1.62738468E-02
  -2.15000007E-03  -1.64313596E-02
  -2.09999993E-03  -1.65893175E-02
  -2.05000001E-03  -1.67474076E-02
  -2.00000009E-03  -1.69051364E-02
  -1.94999995E-03  -1.70619749E-02
  -1.90000003E-03  -1.72176398E-02
  -1.85000000E-03  -1.73721816E-02
  -1.79999997E-03  -1.75259411E-02
  -1.75000005E-03  -1.76794026E-02
  -1.70000002E-03  -1.78328827E-02
  -1.64999999E-03  -1.79864150E-02
  -1.59999996E-03  -1.81396846E-02
  -1.55000004E-03  -1.82921533E-02
  -1.50000001E-03  -1.84432361E-02
  -1.44999998E-03  -1.85925178E-02
  -1.39999995E-03  -1.87400412E-02
  -1.35000004E-03  -1.88861601E-02
  -1.30000000E-03  -1.90313645E-02
  -1.24999997E-03  -1.91760566E-02
  -1.20000006E-03  -1.93203129E-02
  -1.15000003E-03  -1.94638018E-02
  -1.09999999E-03  -1.96058638E-02
  -1.04999996E-03  -1.97458398E-02
  -1.00000005E-03  -1.98833402E-02
  -9.50000016E-04  -2.00183261E-02
  -8.99999985E-04  -2.01511066E-02
  -8.50000011E-04  -2.02821530E-02
  -7.99999980E-04  -2.04119105E-02
  -7.50000007E-04  -2.05406211E-02
  -6.99999975E-04  -2.06680112E-02
  -6.50000002E-04  -2.07934342E-02
  -6.00000028E-04  -2.09161807E-02
  -5.49999997E-04  -2.10356899E-02
  -5.00000024E-04  -2.11518127E-02
  -4.49999992E-04  -2.12647785E-02
  -3.99999990E-04  -2.13750973E-02
  -3.49999988E-04  -2.14833580E-02
  -3.00000014E-04  -2.15898342E-02
  -2.50000012E-04  -2.16943603E-02
  -1.99999995E-04  -2.17963569E-02
  -1.50000007E-04  -2.18949821E-02
  -9.99999975E-05  -2.19895337E-02
  -4.99999987E-05  -2.20796764E-02
   0.00000000      -2.21654773E-02
   4.99999987E-05  -2.22475156E-02
   9.99999975E-05  -2.23265123E-02
   1.50000007E-04  -2.24029254E-02
   1.99999995E-04  -2.24768016E-02
   2.50000012E-04  -2.25475058E-02
   3.00000014E-04  -2.26140320E-02
   3.49999988E-04  -2.26755049E-02
   3.99999990E-04  -2.27314010E-02
   4.49999992E-04  -2.27817912E-02
   5.00000024E-04  -2.28272341E-02
   5.49999997E-04  -2.28684489E-02
   6.00000028E-04  -2.29061507E-02
   6.50000002E-04  -2.29404978E-02
   6.99999975E-04  -2.29708515E-02
   7.50000007E-04  -2.29962859E-02
   7.99999980E-04  -2.30157040E-02
   8.50000011E-04  -2.30283923E-02
   8.99999985E-04  -2.30343696E-02
   9.50000016E-04  -2.30341665E-02
   1.00000005E-03  -2.30286084E-02
   1.04999996E-03  -2.30183918E-02
   1.09999999E-03  -2.30038259E-02
   1.15000003E-03  -2.29845177E-02
   1.20000006E-03  -2.29594298E-02
   1.24999997E-03  -2.29273159E-02
   1.30000000E-03  -2.28872821E-02
   1.35000004E-03  -2.28390954E-02
   1.39999995E-03  -2.27831863E-02
   1.44999998E-03  -2.27204636E-02
   1.50000001E-03  -2.26519573E-02
   1.55000004E-03  -2.25780625E-02
   1.59999996E-03  -2.24983264E-02
   1.64999999E-03  -2.24118289E-02
   1.70000002E-03  -2.23173928E-02
   1.75000005E-03  -2.22140290E-02
   1.79999997E-03  -2.21012570E-02
   1.85000000E-03  -2.19793245E-02
   1.90000003E-03  -2.18491349E-02
   1.94999995E-03  -2.17115935E-02
   2.00000009E-03  -2.15672255E-02
   2.05000001E-03  -2.14160420E-02
   2.09999993E-03  -2.12573353E-02
   2.15000007E-03  -2.10898370E-02
   2.19999999E-03  -2.09122505E-02
   2.24999990E-03  -2.07237359E-02
   2.30000005E-03  -2.05244552E-02
   2.34999997E-03  -2.03153174E-02
   2.40000011E-03  -2.00973861E-02
   2.45000003E-03  -1.98714752E-02
   2.49999994E-03  -1.96377169E-02
   2.55000009E-03  -1.93954632E-02
   2.60000001E-03  -1.91434734E-02
   2.64999992E-03  -1.88803673E-02
   2.70000007E-03  -1.86051428E-02
   2.74999999E-03  -1.83175169E-02
   2.79999990E-03  -1.80181228E-02