  -3.99999991E-02   0.00000000    
  -3.99499983E-02   0.00000000    
  -3.99000011E-02   0.00000000    
  -3.98500003E-02  -4.04109686E-20
  -3.97999994E-02  -3.04815477E-18
  -3.97499986E-02  -2.54404873E-17
  -3.97000015E-02  -1.11774719E-16
  -3.96500006E-02  -3.30466384E-16
  -3.95999998E-02  -7.16164557E-16
  -3.95499989E-02  -1.14621420E-15
  -3.95000018E-02  -1.20076820E-15
  -3.94500010E-02  -1.27064696E-16
  -3.94000001E-02   2.95529838E-15
  -3.93499993E-02   8.56580872E-15
  -3.92999984E-02   1.62494801E-14
  -3.92500013E-02   2.42051828E-14
  -3.92000005E-02   2.95756665E-14
  -3.91499996E-02   2.95839132E-14
  -3.90999988E-02   2.32011472E-14
  -3.90500017E-02   1.25103937E-14
  -3.90000008E-02   2.75738447E-15
  -3.89500000E-02   5.26608007E-16
  -3.88999991E-02   1.04668895E-14
  -3.88499983E-02   3.20373543E-14
  -3.88000011E-02   5.81900318E-14
  -3.87500003E-02   7.73089749E-14
  -3.86999995E-02   7.81916713E-14
  -3.86499986E-02   5.60644162E-14
  -3.86000015E-02   1.65314878E-14
  -3.85500006E-02  -2.52622952E-14
  -3.84999998E-02  -5.09857049E-14
  -3.84499989E-02  -4.88287389E-14
  -3.84000018E-02  -2.20007796E-14
  -3.83500010E-02   8.95711677E-15
  -3.83000001E-02   1.27157492E-14
  -3.82499993E-02  -3.91005215E-14
  -3.81999984E-02  -1.56915632E-13
  -3.81500013E-02  -3.24669003E-13
  -3.81000005E-02  -5.03321722E-13
  -3.80499996E-02  -6.46501353E-13
  -3.79999988E-02  -7.22094693E-13
  -3.79500017E-02  -7.29698637E-13
  -3.79000008E-02  -7.04601145E-13
  -3.78500000E-02  -7.04558699E-13
  -3.77999991E-02  -7.83836375E-13
  -3.77499983E-02  -9.65980334E-13
  -3.77000012E-02  -1.22883008E-12
  -3.76500003E-02  -1.51058658E-12
  -3.75999995E-02  -1.73591610E-12
  -3.75499986E-02  -1.85072617E-12
  -3.75000015E-02  -1.84892900E-12
  -3.74500006E-02  -1.77748679E-12
  -3.73999998E-02  -1.71622460E-12
  -3.73499990E-02  -1.74128203E-12
  -3.73000018E-02  -1.88928257E-12
  -3.72500010E-02  -2.13913414E-12
  -3.72000001E-02  -2.41990217E-12
  -3.71499993E-02  -2.64058437E-12
  -3.70999984E-02  -2.72715249E-12
  -3.70500013E-02  -2.64922307E-12
  -3.70000005E-02  -2.42493265E-12
  -3.69499996E-02  -2.10475257E-12
  -3.68999988E-02  -1.74620160E-12
  -3.68500017E-02  -1.39492801E-12
  -3.68000008E-02  -1.08105842E-12
  -3.67500000E-02  -8.27315592E-13
  -3.66999991E-02  -6.55817631E-13
  -3.66499983E-02  -5.81025571E-13
  -3.66000012E-02  -5.87727729E-13
  -3.65500003E-02  -6.08396471E-13
  -3.64999995E-02  -5.22697391E-13
  -3.64499986E-02  -1.95366333E-13
  -3.64000015E-02   4.52553956E-13
  -3.63500006E-02   1.37012201E-12
  -3.62999998E-02   2.34658582E-12
  -3.62499990E-02   3.06187844E-12
  -3.62000018E-02   3.21828631E-12
  -3.61500010E-02   2.70508919E-12
  -3.61000001E-02   1.71208696E-12
  -3.60499993E-02   7.11291811E-13
  -3.59999985E-02   2.78194433E-13
  -3.59500013E-02   8.07601924E-13
  -3.59000005E-02   2.25336590E-12
  -3.58499996E-02   4.04133454E-12
  -3.57999988E-02   5.24647036E-12
  -3.57500017E-02   5.00272740E-12
  -3.57000008E-02   2.98077340E-12
  -3.56500000E-02  -3.06179642E-13
  -3.55999991E-02  -3.57111497E-12
  -3.55499983E-02  -5.24550108E-12
  -3.55000012E-02  -4.23032746E-12
  -3.54500003E-02  -5.68264511E-13
  -3.53999995E-02   4.33158587E-12
  -3.53499986E-02   8.12770424E-12
  -3.53000015E-02   8.55017446E-12
  -3.52500007E-02   4.57288981E-12
  -3.51999998E-02  -2.81223721E-12
  -3.51499990E-02  -1.06880876E-11
  -3.51000018E-02  -1.52858490E-11
  -3.50500010E-02  -1.36765980E-11
  -3.50000001E-02  -5.34283121E-12
  -3.49499993E-02   7.17509776E-12
  -3.48999985E-02   1.90352352E-11
  -3.48500013E-02   2.51079799E-11
  -3.48000005E-02   2.24502552E-11
  -3.47499996E-02   1.20850534E-11
  -3.46999988E-02  -9.03873656E-13
  -3.46500017E-02  -9.26648255E-12
  -3.46000008E-02  -6.83182460E-12
  -3.45500000E-02   8.29858838E-12
  -3.44999991E-02   3.21913815E-11
  -3.44499983E-02   5.61577972E-11
  -3.44000012E-02   7.03099315E-11
  -3.43500003E-02   6.81977183E-11
  -3.42999995E-02   5.04030151E-11
  -3.42499986E-02   2.51887435E-11
  -3.42000015E-02   5.48892572E-12
  -3.41500007E-02   3.22383374E-12
  -3.40999998E-02   2.33647164E-11
  -3.40499990E-02   6.06112174E-11
  -3.40000018E-02   1.00635222E-10
  -3.39500010E-02   1.25862210E-10
  -3.39000002E-02   1.23543564E-10
  -3.38499993E-02   9.24782403E-11
  -3.37999985E-02   4.49547032E-11
  -3.37500013E-02   2.39212751E-12
  -3.37000005E-02  -1.39624883E-11
  -3.36499996E-02   6.63519933E-12
  -3.35999988E-02   5.79459258E-11
  -3.35500017E-02   1.17699864E-10
  -3.35000008E-02   1.56388319E-10
  -3.34500000E-02   1.50557566E-10
  -3.33999991E-02   9.47163459E-11
  -3.33499983E-02   5.97539683E-12
  -3.33000012E-02  -8.16154228E-11
  -3.32500003E-02  -1.31443967E-10
  -3.31999995E-02  -1.21480756E-10
  -3.31499986E-02  -5.62843799E-11
  -3.31000015E-02   3.24128467E-11
  -3.30500007E-02   9.80069081E-11
  -3.29999998E-02   9.96671218E-11
  -3.29499990E-02   2.23297578E-11
  -3.29000019E-02  -1.13553077E-10
  -3.28500010E-02  -2.58171956E-10
  -3.28000002E-02  -3.53062440E-10
  -3.27499993E-02  -3.57921359E-10
  -3.26999985E-02  -2.71376227E-10
  -3.26500013E-02  -1.35260816E-10
  -3.26000005E-02  -1.88025949E-11
  -3.25499997E-02   1.16587998E-11
  -3.24999988E-02  -7.55945306E-11
  -3.24500017E-02  -2.59377658E-10
  -3.24000008E-02  -4.70660066E-10
  -3.23500000E-02  -6.20679286E-10
  -3.22999991E-02  -6.40880793E-10
  -3.22499983E-02  -5.16856447E-10
  -3.22000012E-02  -2.99723774E-10
  -3.21500003E-02  -8.76098291E-11
  -3.20999995E-02   1.65975809E-11
  -3.20499986E-02  -4.66717810E-11
  -3.20000015E-02  -2.61943384E-10
  -3.19500007E-02  -5.39654765E-10
  -3.18999998E-02  -7.52077789E-10
  -3.18499990E-02  -7.90191190E-10
  -3.18000019E-02  -6.16464713E-10
  -3.17500010E-02  -2.88391838E-10
  -3.17000002E-02   6.06675682E-11
  -3.16499993E-02   2.77783740E-10
  -3.15999985E-02   2.60449468E-10
  -3.15500014E-02   8.53657423E-12
  -3.15000005E-02  -3.67543218E-10
  -3.14499997E-02  -6.89701463E-10
  -3.13999988E-02  -7.89937560E-10
  -3.13500017E-02  -5.89309046E-10
  -3.13000008E-02  -1.41303136E-10
  -3.12500000E-02   3.83297394E-10
  -3.11999992E-02   7.67313824E-10
  -3.11500002E-02   8.44841086E-10
  -3.10999993E-02   5.82085102E-10
  -3.10500003E-02   1.02480094E-10
  -3.09999995E-02  -3.59594049E-10
  -3.09500005E-02  -5.59998159E-10
  -3.08999997E-02  -3.57679664E-10
  -3.08500007E-02   2.12512341E-10
  -3.07999998E-02   9.43680023E-10
  -3.07500008E-02   1.54087354E-09
  -3.07000000E-02   1.75166925E-09
  -3.06499992E-02   1.48584378E-09
  -3.06000002E-02   8.67873107E-10
  -3.05499993E-02   1.93440888E-10
  -3.05000003E-02  -1.96200903E-10
  -3.04499995E-02  -6.91602331E-11
  -3.04000005E-02   5.82742299E-10
  -3.03499997E-02   1.52574808E-09
  -3.03000007E-02   2.37662001E-09
  -3.02499998E-02   2.77001155E-09
  -3.02000009E-02   2.52803933E-09
  -3.01500000E-02   1.75379744E-09
  -3.00999992E-02   8.00873756E-10
  -3.00500002E-02   1.25314037E-10
  -2.99999993E-02   8.11976320E-11
  -2.99500003E-02   7.50755680E-10
  -2.98999995E-02   1.88949900E-09
  -2.98500005E-02   3.01856340E-09
  -2.97999997E-02   3.63049080E-09
  -2.97500007E-02   3.42038109E-09
  -2.96999998E-02   2.43749398E-09
  -2.96500009E-02   1.08291620E-09
  -2.96000000E-02  -5.45239374E-11
  -2.95499992E-02  -4.57946403E-10
  -2.95000002E-02   7.61535487E-11
  -2.94499993E-02   1.32664180E-09
  -2.94000003E-02   2.72500245E-09
  -2.93499995E-02   3.59613161E-09
  -2.93000005E-02   3.46124485E-09
  -2.92499997E-02   2.26742425E-09
  -2.92000007E-02   4.34629804E-10
  -2.91499998E-02  -1.31119604E-09
  -2.91000009E-02  -2.25393570E-09
  -2.90500000E-02  -2.01535677E-09
  -2.89999992E-02  -7.45949635E-10
  -2.89500002E-02   9.15961529E-10
  -2.88999993E-02   2.11022733E-09
  -2.88500004E-02   2.13609264E-09
  -2.87999995E-02   7.80402298E-10
  -2.87500005E-02  -1.55979685E-09
  -2.86999997E-02  -4.02664435E-09
  -2.86500007E-02  -5.66834935E-09
  -2.85999998E-02  -5.86708371E-09
  -2.85500009E-02  -4.63576466E-09
  -2.85000000E-02  -2.64197597E-09
  -2.84499992E-02  -9.34757383E-10
  -2.84000002E-02  -4.84263629E-10
  -2.83499993E-02  -1.73492021E-09
  -2.83000004E-02  -4.37621361E-09
  -2.82499995E-02  -7.44592121E-09
  -2.82000005E-02  -9.73470460E-09
  -2.81499997E-02  -1.03223448E-08
  -2.81000007E-02  -9.00799257E-09
  -2.80499998E-02  -6.43387610E-09
  -2.80000009E-02  -3.83187970E-09
  -2.79500000E-02  -2.49056598E-09
  -2.78999992E-02  -3.17170534E-09
  -2.78500002E-02  -5.73882719E-09
  -2.77999993E-02  -9.17602883E-09
  -2.77500004E-02  -1.20062573E-08
  -2.76999995E-02  -1.29375000E-08
  -2.76500005E-02  -1.14542518E-08
  -2.75999997E-02  -8.08389000E-09
  -2.75500007E-02  -4.20286961E-09
  -2.74999999E-02  -1.45026968E-09
  -2.74500009E-02  -9.96956073E-10
  -2.74000000E-02  -2.99486858E-09
  -2.73499992E-02  -6.46347953E-09
  -2.73000002E-02  -9.68368585E-09
  -2.72499993E-02  -1.09428457E-08
  -2.72000004E-02  -9.30917299E-09
  -2.71499995E-02  -5.08671238E-09
  -2.71000005E-02   2.68248090E-10
  -2.70499997E-02   4.75427830E-09
  -2.70000007E-02   6.70323530E-09
  -2.69499999E-02   5.54482993E-09
  -2.69000009E-02   2.10748219E-09
  -2.68500000E-02  -1.69943315E-09
  -2.67999992E-02  -3.70400177E-09
  -2.67500002E-02  -2.44218112E-09
  -2.66999993E-02   2.15125495E-09
  -2.66500004E-02   8.65410943E-09
  -2.65999995E-02   1.47347432E-08
  -2.65500005E-02   1.81628792E-08
  -2.64999997E-02   1.78150241E-08
  -2.64500007E-02   1.42212171E-08
  -2.63999999E-02   9.38853262E-09
  -2.63500009E-02   5.95216365E-09
  -2.63000000E-02   6.00983352E-09
  -2.62499992E-02   1.01519335E-08
  -2.62000002E-02   1.71317556E-08
  -2.61499994E-02   2.43493439E-08
  -2.61000004E-02   2.89629902E-08
  -2.60499995E-02   2.91527904E-08
  -2.60000005E-02   2.49737653E-08
  -2.59499997E-02   1.83991791E-08
  -2.59000007E-02   1.25035307E-08
  -2.58499999E-02   1.01197308E-08
  -2.58000009E-02   1.25540520E-08
  -2.57500000E-02   1.89385911E-08
  -2.56999992E-02   2.65362505E-08
  -2.56500002E-02   3.18969846E-08
  -2.55999994E-02   3.23777662E-08
  -2.55500004E-02   2.73570961E-08
  -2.54999995E-02   1.85872757E-08
  -2.54500005E-02   9.49435819E-09
  -2.53999997E-02   3.70133812E-09
  -2.53500007E-02   3.40903883E-09
  -2.52999999E-02   8.35627656E-09
  -2.52500009E-02   1.58470996E-08
  -2.52000000E-02   2.18715961E-08
  -2.51499992E-02   2.28568862E-08
  -2.51000002E-02   1.72854104E-08
  -2.50499994E-02   6.44987663E-09
  -2.50000004E-02  -6.02447203E-09
  -2.49499995E-02  -1.57196816E-08
  -2.49000005E-02  -1.93739531E-08
  -2.48499997E-02  -1.63798806E-08
  -2.48000007E-02  -9.14446829E-09
  -2.47499999E-02  -2.10974882E-09
  -2.47000009E-02   1.73379658E-10
  -2.46500000E-02  -4.91268359E-09
  -2.45999992E-02  -1.68057035E-08
  -2.45500002E-02  -3.18990026E-08
  -2.44999994E-02  -4.50454820E-08
  -2.44500004E-02  -5.18030170E-08
  -2.43999995E-02  -5.04400184E-08
  -2.43500005E-02  -4.27942766E-08
  -2.42999997E-02  -3.35614345E-08
  -2.42500007E-02  -2.82790715E-08
  -2.41999999E-02  -3.08658201E-08
  -2.41500009E-02  -4.18032720E-08
  -2.41000000E-02  -5.77963952E-08
  -2.40499992E-02  -7.31135543E-08
  -2.40000002E-02  -8.20612982E-08
  -2.39499994E-02  -8.15226500E-08
  -2.39000004E-02  -7.24242781E-08
  -2.38499995E-02  -5.94408540E-08
  -2.38000005E-02  -4.90119767E-08
  -2.37499997E-02  -4.65054484E-08
  -2.37000007E-02  -5.37696607E-08
  -2.36499999E-02  -6.81834535E-08
  -2.36000009E-02  -8.36764968E-08
  -2.35500000E-02  -9.33257667E-08
  -2.34999992E-02  -9.24156396E-08
  -2.34500002E-02  -8.06067249E-08
  -2.33999994E-02  -6.22151290E-08
  -2.33500004E-02  -4.44187833E-08
  -2.32999995E-02  -3.41297763E-08
  -2.32500006E-02  -3.48912472E-08
  -2.31999997E-02  -4.51878002E-08
  -2.31500007E-02  -5.89681903E-08
  -2.30999999E-02  -6.82129695E-08
  -2.30500009E-02  -6.64595134E-08
  -2.30000000E-02  -5.17363610E-08
  -2.29499992E-02  -2.75769203E-08
  -2.29000002E-02  -1.60284974E-09
  -2.28499994E-02   1.77604775E-08
  -2.28000004E-02   2.50216345E-08
  -2.27499995E-02   2.01552943E-08
  -2.27000006E-02   8.76179840E-09
  -2.26499997E-02  -2.85104135E-10
  -2.26000007E-02   1.27772937E-09
  -2.25499999E-02   1.73800103E-08
  -2.25000009E-02   4.57254465E-08
  -2.24500000E-02   7.86266057E-08
  -2.23999992E-02   1.06270200E-07
  -2.23500002E-02   1.21020619E-07
  -2.22999994E-02   1.20866929E-07
  -2.22500004E-02   1.10449903E-07
  -2.21999995E-02   9.91442803E-08
  -2.21500006E-02   9.69738991E-08
  -2.20999997E-02   1.10126535E-07
  -2.20500007E-02   1.38061722E-07
  -2.19999999E-02   1.73545629E-07
  -2.19500009E-02   2.05674667E-07
  -2.19000001E-02   2.24615619E-07
  -2.18499992E-02   2.25989908E-07
  -2.18000002E-02   2.12935419E-07
  -2.17499994E-02   1.94865464E-07
  -2.17000004E-02   1.83394903E-07
  -2.16499995E-02   1.87180433E-07
  -2.16000006E-02   2.07950521E-07
  -2.15499997E-02   2.39526997E-07
  -2.15000007E-02   2.70348579E-07
  -2.14499999E-02   2.88457159E-07
  -2.14000009E-02   2.86781443E-07
  -2.13500001E-02   2.66369341E-07
  -2.12999992E-02   2.36077554E-07
  -2.12500002E-02   2.08772889E-07
  -2.11999994E-02   1.95657677E-07
  -2.11500004E-02   2.01205211E-07
  -2.10999995E-02   2.20978805E-07
  -2.10500006E-02   2.43373137E-07
  -2.09999997E-02   2.54591612E-07
  -2.09500007E-02   2.44714414E-07
  -2.08999999E-02   2.12177852E-07
  -2.08500009E-02   1.64632212E-07
  -2.08000001E-02   1.15715366E-07
  -2.07499992E-02   7.90898511E-08
  -2.07000002E-02   6.23398790E-08
  -2.06499994E-02   6.34443253E-08
  -2.06000004E-02   7.14519501E-08
  -2.05499995E-02   7.11493087E-08
  -2.05000006E-02   4.97263883E-08
  -2.04499997E-02   2.51395016E-09
  -2.04000007E-02  -6.47805294E-08
  -2.03499999E-02  -1.38406079E-07
  -2.03000009E-02  -2.02527161E-07
  -2.02500001E-02  -2.46229632E-07
  -2.01999992E-02  -2.68476185E-07
  -2.01500002E-02  -2.78765413E-07
  -2.00999994E-02  -2.93114937E-07
  -2.00500004E-02  -3.27063589E-07
  -1.99999996E-02  -3.88745946E-07
  -1.99500006E-02  -4.75121311E-07
  -1.98999997E-02  -5.73095008E-07
  -1.98500007E-02  -6.65127288E-07
  -1.97999999E-02  -7.36922289E-07
  -1.97500009E-02  -7.83818336E-07
  -1.97000001E-02  -8.13015959E-07
  -1.96499992E-02  -8.40576547E-07
  -1.96000002E-02  -8.84429937E-07
  -1.95499994E-02  -9.56423492E-07
  -1.95000004E-02  -1.05692857E-06
  -1.94499996E-02  -1.17444426E-06
  -1.94000006E-02  -1.29046316E-06
  -1.93499997E-02  -1.38752955E-06
  -1.93000007E-02  -1.45697015E-06
  -1.92499999E-02  -1.50285757E-06
  -1.92000009E-02  -1.54038605E-06
  -1.91500001E-02  -1.58928344E-06
  -1.90999992E-02  -1.66510279E-06
  -1.90500002E-02  -1.77221750E-06
  -1.89999994E-02  -1.90166224E-06
  -1.89500004E-02  -2.03485160E-06
  -1.88999996E-02  -2.15162186E-06
  -1.88500006E-02  -2.23910479E-06
  -1.87999997E-02  -2.29750731E-06
  -1.87500007E-02  -2.34018989E-06
  -1.86999999E-02  -2.38791699E-06
  -1.86500009E-02  -2.45974184E-06
  -1.86000001E-02  -2.56451449E-06
  -1.85499992E-02  -2.69677957E-06
  -1.85000002E-02  -2.83895247E-06
  -1.84499994E-02  -2.96890084E-06
  -1.84000004E-02  -3.06965148E-06
  -1.83499996E-02  -3.13696523E-06
  -1.83000006E-02  -3.18138132E-06
  -1.82499997E-02  -3.22375422E-06
  -1.82000007E-02  -3.28616579E-06
  -1.81499999E-02  -3.38216569E-06
  -1.81000009E-02  -3.51065705E-06
  -1.80500001E-02  -3.65617507E-06
  -1.79999992E-02  -3.79552853E-06
  -1.79500002E-02  -3.90795412E-06
  -1.78999994E-02  -3.98433758E-06
  -1.78500004E-02  -4.03140893E-06
  -1.77999996E-02  -4.06899971E-06
  -1.77500006E-02  -4.12148120E-06
  -1.76999997E-02  -4.20708375E-06
  -1.76500008E-02  -4.32980096E-06
  -1.75999999E-02  -4.47748698E-06
  -1.75500009E-02  -4.62705520E-06
  -1.75000001E-02  -4.75458273E-06
  -1.74499992E-02  -4.84591783E-06
  -1.74000002E-02  -4.90310049E-06
  -1.73499994E-02  -4.94371443E-06
  -1.73000004E-02  -4.99337284E-06
  -1.72499996E-02  -5.07458526E-06
  -1.72000006E-02  -5.19686500E-06
  -1.71499997E-02  -5.35243817E-06
  -1.71000008E-02  -5.51956327E-06
  -1.70499999E-02  -5.67204506E-06
  -1.70000009E-02  -5.79080870E-06
  -1.69500001E-02  -5.87247587E-06
  -1.68999992E-02  -5.93112600E-06
  -1.68500002E-02  -5.99237364E-06
  -1.67999994E-02  -6.08229539E-06
  -1.67500004E-02  -6.21604204E-06
  -1.66999996E-02  -6.39115251E-06
  -1.66500006E-02  -6.58855879E-06
  -1.65999997E-02  -6.78092738E-06
  -1.65500008E-02  -6.94474011E-06
  -1.64999999E-02  -7.07079334E-06
  -1.64500009E-02  -7.16850946E-06
  -1.64000001E-02  -7.26210919E-06
  -1.63499992E-02  -7.38020253E-06
  -1.63000003E-02  -7.54335178E-06
  -1.62499994E-02  -7.75505941E-06
  -1.62000004E-02  -8.00018279E-06
  -1.61499996E-02  -8.25154893E-06
  -1.61000006E-02  -8.48189211E-06
  -1.60499997E-02  -8.67597737E-06
  -1.60000008E-02  -8.83754183E-06
  -1.59499999E-02  -8.98793132E-06
  -1.59000009E-02  -9.15698547E-06
  -1.58500001E-02  -9.37012919E-06
  -1.57999992E-02  -9.63727416E-06
  -1.57500003E-02  -9.94843140E-06
  -1.56999994E-02  -1.02780768E-05
  -1.56500004E-02  -1.05963454E-05
  -1.55999996E-02  -1.08822323E-05
  -1.55499997E-02  -1.11330282E-05
  -1.54999997E-02  -1.13657788E-05
  -1.54499998E-02  -1.16100528E-05
  -1.53999999E-02  -1.18951884E-05
  -1.53500000E-02  -1.22375195E-05
  -1.53000001E-02  -1.26332006E-05
  -1.52500002E-02  -1.30598401E-05
  -1.52000003E-02  -1.34862939E-05
  -1.51500003E-02  -1.38863988E-05
  -1.51000004E-02  -1.42505669E-05
  -1.50499996E-02  -1.45902040E-05
  -1.49999997E-02  -1.49329671E-05
  -1.49499997E-02  -1.53108704E-05
  -1.48999998E-02  -1.57463473E-05
  -1.48499999E-02  -1.62424149E-05
  -1.48000000E-02  -1.67813141E-05
  -1.47500001E-02  -1.73322551E-05
  -1.47000002E-02  -1.78649461E-05
  -1.46500003E-02  -1.83629818E-05
  -1.46000003E-02  -1.88312169E-05
  -1.45500004E-02  -1.92938624E-05
  -1.44999996E-02  -1.97840673E-05
  -1.44499997E-02  -2.03295858E-05
  -1.43999998E-02  -2.09406517E-05
  -1.43499998E-02  -2.16054468E-05
  -1.42999999E-02  -2.22952458E-05
  -1.42500000E-02  -2.29769503E-05
  -1.42000001E-02  -2.36276901E-05
  -1.41500002E-02  -2.42449787E-05
  -1.41000003E-02  -2.48479937E-05
  -1.40500003E-02  -2.54694569E-05
  -1.40000004E-02  -2.61414316E-05
  -1.39499996E-02  -2.68814001E-05
  -1.38999997E-02  -2.76846004E-05
  -1.38499998E-02  -2.85260867E-05
  -1.37999998E-02  -2.93716821E-05
  -1.37499999E-02  -3.01929704E-05
  -1.37000000E-02  -3.09798997E-05
  -1.36500001E-02  -3.17454178E-05
  -1.36000002E-02  -3.25200090E-05
  -1.35500003E-02  -3.33386379E-05
  -1.35000004E-02  -3.42255917E-05
  -1.34500004E-02  -3.51839808E-05
  -1.33999996E-02  -3.61943385E-05
  -1.33499997E-02  -3.72231880E-05
  -1.32999998E-02  -3.82378894E-05
  -1.32499998E-02  -3.92209622E-05
  -1.31999999E-02  -4.01779726E-05
  -1.31500000E-02  -4.11354231E-05
  -1.31000001E-02  -4.21293589E-05
  -1.30500002E-02  -4.31898989E-05
  -1.30000003E-02  -4.43282770E-05
  -1.29500004E-02  -4.55320223E-05
  -1.29000004E-02  -4.67705468E-05
  -1.28499996E-02  -4.80085291E-05
  -1.27999997E-02  -4.92217259E-05
  -1.27499998E-02  -5.04078234E-05
  -1.26999998E-02  -5.15877327E-05
  -1.26499999E-02  -5.27968332E-05
  -1.26000000E-02  -5.40697511E-05
  -1.25500001E-02  -5.54255603E-05
  -1.25000002E-02  -5.68596770E-05
  -1.24500003E-02  -5.83460096E-05
  -1.24000004E-02  -5.98484548E-05
  -1.23500004E-02  -6.13370139E-05
  -1.22999996E-02  -6.28011840E-05
  -1.22499997E-02  -6.42549639E-05
  -1.21999998E-02  -6.57311684E-05
  -1.21499998E-02  -6.72674432E-05
  -1.20999999E-02  -6.88901928E-05
  -1.20500000E-02  -7.06034407E-05
  -1.20000001E-02  -7.23874327E-05
  -1.19500002E-02  -7.42073171E-05
  -1.19000003E-02  -7.60285693E-05
  -1.18500004E-02  -7.78325266E-05
  -1.18000004E-02  -7.96250824E-05
  -1.17499996E-02  -8.14343075E-05
  -1.16999997E-02  -8.32984879E-05
  -1.16499998E-02  -8.52502708E-05
  -1.15999999E-02  -8.73026584E-05
  -1.15499999E-02  -8.94433470E-05
  -1.15000000E-02  -9.16408026E-05
  -1.14500001E-02  -9.38583398E-05
  -1.14000002E-02  -9.60702891E-05
  -1.13500003E-02  -9.82738275E-05
  -1.13000004E-02  -1.00491052E-04
  -1.12500004E-02  -1.02759594E-04
  -1.11999996E-02  -1.05116735E-04
  -1.11499997E-02  -1.07583786E-04
  -1.10999998E-02  -1.10156645E-04
  -1.10499999E-02  -1.12808360E-04
  -1.09999999E-02  -1.15501047E-04
  -1.09500000E-02  -1.18202479E-04
  -1.09000001E-02  -1.20900972E-04
  -1.08500002E-02  -1.23610720E-04
  -1.08000003E-02  -1.26366387E-04
  -1.07500004E-02  -1.29208260E-04
  -1.07000005E-02  -1.32165136E-04
  -1.06499996E-02  -1.35242459E-04
  -1.05999997E-02  -1.38420277E-04
  -1.05499998E-02  -1.41662502E-04
  -1.04999999E-02  -1.44933103E-04
  -1.04499999E-02  -1.48212421E-04
  -1.04000000E-02  -1.51506189E-04
  -1.03500001E-02  -1.54843685E-04
  -1.03000002E-02  -1.58265539E-04
  -1.02500003E-02  -1.61806718E-04
  -1.02000004E-02  -1.65481557E-04
  -1.01500005E-02  -1.69277817E-04
  -1.00999996E-02  -1.73162727E-04
  -1.00499997E-02  -1.77097652E-04
  -9.99999978E-03  -1.81055162E-04
  -9.94999986E-03  -1.85031429E-04
  -9.89999995E-03  -1.89048194E-04
  -9.85000003E-03  -1.93144297E-04
  -9.80000012E-03  -1.97359594E-04
  -9.75000020E-03  -2.01717077E-04
  -9.70000029E-03  -2.06214128E-04
  -9.65000037E-03  -2.10823811E-04
  -9.60000046E-03  -2.15506487E-04
  -9.54999961E-03  -2.20228292E-04
  -9.49999969E-03  -2.24977004E-04
  -9.44999978E-03  -2.29767320E-04
  -9.39999986E-03  -2.34635183E-04
  -9.34999995E-03  -2.39623128E-04
  -9.30000003E-03  -2.44762283E-04
  -9.25000012E-03  -2.50059704E-04
  -9.20000020E-03  -2.55496241E-04
  -9.15000029E-03  -2.61033914E-04
  -9.10000037E-03  -2.66633288E-04
  -9.05000046E-03  -2.72272038E-04
  -8.99999961E-03  -2.77954881E-04
  -8.94999970E-03  -2.83712463E-04
  -8.89999978E-03  -2.89587915E-04
  -8.84999987E-03  -2.95618869E-04
  -8.79999995E-03  -3.01821536E-04
  -8.75000004E-03  -3.08183808E-04
  -8.70000012E-03  -3.14670993E-04
  -8.65000021E-03  -3.21241474E-04
  -8.60000029E-03  -3.27865622E-04
  -8.55000038E-03  -3.34539043E-04
  -8.50000046E-03  -3.41285951E-04
  -8.44999962E-03  -3.48148984E-04
  -8.39999970E-03  -3.55171476E-04
  -8.34999979E-03  -3.62378982E-04
  -8.29999987E-03  -3.69768823E-04
  -8.24999996E-03  -3.77312070E-04
  -8.20000004E-03  -3.84966406E-04
  -8.15000013E-03  -3.92695860E-04
  -8.10000021E-03  -4.00487828E-04
  -8.05000030E-03  -4.08358464E-04
  -8.00000038E-03  -4.16346214E-04
  -7.95000046E-03  -4.24496975E-04
  -7.89999962E-03  -4.32843255E-04
  -7.84999970E-03  -4.41390905E-04
  -7.79999979E-03  -4.50117019E-04
  -7.74999987E-03  -4.58979426E-04
  -7.69999996E-03  -4.67937032E-04
  -7.65000004E-03  -4.76967078E-04
  -7.60000013E-03  -4.86076431E-04
  -7.55000021E-03  -4.95299522E-04
  -7.49999983E-03  -5.04683761E-04
  -7.44999992E-03  -5.14269166E-04
  -7.40000000E-03  -5.24071511E-04
  -7.35000009E-03  -5.34075778E-04
  -7.30000017E-03  -5.44242153E-04
  -7.24999979E-03  -5.54527913E-04
  -7.19999988E-03  -5.64904360E-04
  -7.14999996E-03  -5.75368293E-04
  -7.10000005E-03  -5.85947069E-04
  -7.05000013E-03  -5.96687663E-04
  -7.00000022E-03  -6.07635593E-04
  -6.94999984E-03  -6.18815597E-04
  -6.89999992E-03  -6.30221155E-04
  -6.85000001E-03  -6.41817052E-04
  -6.80000009E-03  -6.53556897E-04
  -6.75000018E-03  -6.65403262E-04
  -6.69999979E-03  -6.77343516E-04
  -6.64999988E-03  -6.89398381E-04
  -6.59999996E-03  -7.01612502E-04
  -6.55000005E-03  -7.14033609E-04
  -6.50000013E-03  -7.26693834E-04
  -6.45000022E-03  -7.39595154E-04
  -6.39999984E-03  -7.52708002E-04
  -6.34999992E-03  -7.65983947E-04
  -6.30000001E-03  -7.79378926E-04
  -6.25000009E-03  -7.92873732E-04
  -6.20000018E-03  -8.06481636E-04
  -6.14999980E-03  -8.20242625E-04
  -6.09999988E-03  -8.34210077E-04
  -6.04999997E-03  -8.48425436E-04
  -6.00000005E-03  -8.62898014E-04
  -5.95000014E-03  -8.77602899E-04
  -5.90000022E-03  -8.92493525E-04
  -5.84999984E-03  -9.07521578E-04
  -5.79999993E-03  -9.22658364E-04
  -5.75000001E-03  -9.37907724E-04
  -5.70000010E-03  -9.53304349E-04
  -5.65000018E-03  -9.68901033E-04
  -5.59999980E-03  -9.84744052E-04
  -5.54999989E-03  -1.00085302E-03
  -5.49999997E-03  -1.01721450E-03
  -5.45000006E-03  -1.03378179E-03
  -5.40000014E-03  -1.05049682E-03
  -5.35000023E-03  -1.06732012E-03
  -5.29999984E-03  -1.08424749E-03
  -5.24999993E-03  -1.10130908E-03
  -5.20000001E-03  -1.11855776E-03
  -5.15000010E-03  -1.13604544E-03
  -5.10000018E-03  -1.15380122E-03
  -5.04999980E-03  -1.17181730E-03
  -4.99999989E-03  -1.19005202E-03
  -4.94999997E-03  -1.20845030E-03
  -4.90000006E-03  -1.22696359E-03
  -4.85000014E-03  -1.24557631E-03
  -4.80000023E-03  -1.26431219E-03
  -4.74999985E-03  -1.28322071E-03
  -4.69999993E-03  -1.30235916E-03
  -4.65000002E-03  -1.32176431E-03
  -4.60000010E-03  -1.34143676E-03
  -4.55000019E-03  -1.36133924E-03
  -4.49999981E-03  -1.38141040E-03
  -4.44999989E-03  -1.40159740E-03
  -4.39999998E-03  -1.42187439E-03
  -4.35000006E-03  -1.44225068E-03
  -4.30000015E-03  -1.46277528E-03
  -4.25000023E-03  -1.48350990E-03
  -4.19999985E-03  -1.50450086E-03
  -4.14999994E-03  -1.52575865E-03
  -4.10000002E-03  -1.54725206E-03
  -4.05000011E-03  -1.56892068E-03
  -4.00000019E-03  -1.59069628E-03
  -3.94999981E-03  -1.61254173E-03
  -3.89999989E-03  -1.63446565E-03
  -3.84999998E-03  -1.65651017E-03
  -3.80000006E-03  -1.67873572E-03
  -3.74999992E-03  -1.70119968E-03
  -3.70000000E-03  -1.72392663E-03
  -3.65000009E-03  -1.74688897E-03
  -3.59999994E-03  -1.77002454E-03
  -3.55000002E-03  -1.79326197E-03
  -3.50000011E-03  -1.81654596E-03
  -3.44999996E-03  -1.83987059E-03
  -3.40000005E-03  -1.86328043E-03
  -3.34999990E-03  -1.88684708E-03
  -3.29999998E-03  -1.91064144E-03
  -3.25000007E-03  -1.93468691E-03
  -3.19999992E-03  -1.95895298E-03
  -3.15000000E-03  -1.98337832E-03
  -3.10000009E-03  -2.00787955E-03
  -3.04999994E-03  -2.03239289E-03
  -3.00000003E-03  -2.05690693E-03
  -2.95000011E-03  -2.08146032E-03
  -2.89999996E-03  -2.10612221E-03
  -2.85000005E-03  -2.13096477E-03
  -2.79999990E-03  -2.15603109E-03
  -2.74999999E-03  -2.18130532E-03
  -2.70000007E-03  -2.20672134E-03
  -2.64999992E-03  -2.23219232E-03
  -2.60000001E-03  -2.25763908E-03
  -2.55000009E-03  -2.28303764E-03
  -2.49999994E-03  -2.30842223E-03
  -2.45000003E-03  -2.33386457E-03
  -2.40000011E-03  -2.35944963E-03
  -2.34999997E-03  -2.38521677E-03
  -2.30000005E-03  -2.41115689E-03
  -2.24999990E-03  -2.43721041E-03
  -2.19999999E-03  -2.46328139E-03
  -2.15000007E-03  -2.48928810E-03
  -2.09999993E-03  -2.51519401E-03
  -2.05000001E-03  -2.54101306E-03
  -2.00000009E-03  -2.56681000E-03
  -1.94999995E-03  -2.59267725E-03
  -1.90000003E-03  -2.61867419E-03
  -1.85000000E-03  -2.64480105E-03
  -1.79999997E-03  -2.67100101E-03
  -1.75000005E-03  -2.69717467E-03
  -1.70000002E-03  -2.72322330E-03
  -1.64999999E-03  -2.74909451E-03
  -1.59999996E-03  -2.77479971E-03
  -1.55000004E-03  -2.80040386E-03
  -1.50000001E-03  -2.82599125E-03
  -1.44999998E-03  -2.85162916E-03
  -1.39999995E-03  -2.87733250E-03
  -1.35000004E-03  -2.90304376E-03
  -1.30000000E-03  -2.92867282E-03
  -1.24999997E-03  -2.95413239E-03
  -1.20000006E-03  -2.97935260E-03
  -1.15000003E-03  -3.00430972E-03
  -1.09999999E-03  -3.02904844E-03
  -1.04999996E-03  -3.05365655E-03
  -1.00000005E-03  -3.07822204E-03
  -9.50000016E-04  -3.10278311E-03
  -8.99999985E-04  -3.12730530E-03
  -8.50000011E-04  -3.15168360E-03
  -7.99999980E-04  -3.17580183E-03
  -7.50000007E-04  -3.19957198E-03
  -6.99999975E-04  -3.22295818E-03
  -6.50000002E-04  -3.24600283E-03
  -6.00000028E-04  -3.26879648E-03
  -5.49999997E-04  -3.29142483E-03
  -5.00000024E-04  -3.31393816E-03
  -4.49999992E-04  -3.33632901E-03
  -3.99999990E-04  -3.35850357E-03
  -3.49999988E-04  -3.38033144E-03
  -3.00000014E-04  -3.40170064E-03
  -2.50000012E-04  -3.42255458E-03
  -1.99999995E-04  -3.44292633E-03
  -1.50000007E-04  -3.46291228E-03
  -9.99999975E-05  -3.48261511E-03
  -4.99999987E-05  -3.50209628E-03
   0.00000000      -3.52134183E-03
   4.99999987E-05  -3.54025885E-03
   9.99999975E-05  -3.55871883E-03
   1.50000007E-04  -3.57660442E-03
   1.99999995E-04  -3.59384273E-03
   2.50000012E-04  -3.61044635E-03
   3.00000014E-04  -3.62649956E-03
   3.49999988E-04  -3.64210410E-03
   3.99999990E-04  -3.65733099E-03
   4.49999992E-04  -3.67219117E-03
   5.00000024E-04  -3.68661876E-03
   5.49999997E-04  -3.70048545E-03
   6.00000028E-04  -3.71366017E-03
   6.50000002E-04  -3.72605235E-03
   6.99999975E-04  -3.73763312E-03
   7.50000007E-04  -3.74845834E-03
   7.99999980E-04  -3.75862746E-03
   8.50000011E-04  -3.76823777E-03
   8.99999985E-04  -3.77733470E-03
   9.50000016E-04  -3.78588703E-03
   1.00000005E-03  -3.79379140E-03
   1.04999996E-03  -3.80088412E-03
   1.09999999E-03  -3.80701502E-03
   1.15000003E-03  -3.81212332E-03
   1.20000006E-03  -3.81627190E-03
   1.24999997E-03  -3.81956669E-03
   1.30000000E-03  -3.82213155E-03
   1.35000004E-03  -3.82405636E-03
   1.39999995E-03  -3.82532179E-03
   1.44999998E-03  -3.82581051E-03
   1.50000001E-03  -3.82533018E-03
   1.55000004E-03  -3.82370036E-03
   1.59999996E-03  -3.82083724E-03
   1.64999999E-03  -3.81677132E-03
   1.70000002E-03  -3.81161761E-03
   1.75000005E-03  -3.80554423E-03
   1.79999997E-03  -3.79866106E-03
   1.85000000E-03  -3.79096670E-03
   1.90000003E-03  -3.78235499E-03
   1.94999995E-03  -3.77261895E-03
   2.00000009E-03  -3.76153830E-03
   2.05000001E-03  -3.74900410E-03
   2.09999993E-03  -3.73504357E-03
   2.15000007E-03  -3.71977850E-03
   2.19999999E-03  -3.70339770E-03
   2.24999990E-03  -3.68603715E-03
   2.30000005E-03  -3.66770453E-03
   2.34999997E-03  -3.64828063E-03
   2.40000011E-03  -3.62757244E-03
   2.45000003E-03  -3.60536063E-03
   2.49999994E-03  -3.58150038E-03
   2.55000009E-03  -3.55598889E-03
   2.60000001E-03  -3.52892466E-03
   2.64999992E-03  -3.50048020E-03
   2.70000007E-03  -3.47083923E-03
   2.74999999E-03  -3.44007812E-03
   2.79999990E-03  -3.40810325E-03