  -3.99999991E-02   0.00000000    
  -3.99499983E-02   0.00000000    
  -3.99000011E-02   0.00000000    
  -3.98500003E-02   0.00000000    
  -3.97999994E-02   0.00000000    
  -3.97499986E-02   8.60325708E-24
  -3.97000015E-02   7.60651681E-23
  -3.96500006E-02   3.49257122E-22
  -3.95999998E-02   1.09267378E-21
  -3.95499989E-02   2.56531892E-21
  -3.95000018E-02   4.65921597E-21
  -3.94500010E-02   6.34718221E-21
  -3.94000001E-02   5.22569817E-21
  -3.93499993E-02  -2.37264076E-21
  -3.92999984E-02  -2.02895643E-20
  -3.92500013E-02  -5.05150379E-20
  -3.92000005E-02  -9.09843679E-20
  -3.91499996E-02  -1.34553955E-19
  -3.90999988E-02  -1.70460676E-19
  -3.90500017E-02  -1.88570258E-19
  -3.90000008E-02  -1.85029873E-19
  -3.89500000E-02  -1.66443383E-19
  -3.88999991E-02  -1.49480959E-19
  -3.88499983E-02  -1.54523827E-19
  -3.88000011E-02  -1.95058817E-19
  -3.87500003E-02  -2.67556765E-19
  -3.86999995E-02  -3.47636947E-19
  -3.86499986E-02  -3.96311434E-19
  -3.86000015E-02  -3.75411216E-19
  -3.85500006E-02  -2.65920343E-19
  -3.84999998E-02  -7.97275190E-20
  -3.84499989E-02   1.43414326E-19
  -3.84000018E-02   3.55726257E-19
  -3.83500010E-02   5.31180183E-19
  -3.83000001E-02   6.91218435E-19
  -3.82499993E-02   9.11479933E-19
  -3.81999984E-02   1.30176143E-18
  -3.81500013E-02   1.96429877E-18
  -3.81000005E-02   2.94788145E-18
  -3.80499996E-02   4.22045002E-18
  -3.79999988E-02   5.67682019E-18
  -3.79500017E-02   7.18266568E-18
  -3.79000008E-02   8.63766894E-18
  -3.78500000E-02   1.00287559E-17
  -3.77999991E-02   1.14454963E-17
  -3.77499983E-02   1.30452851E-17
  -3.77000012E-02   1.49796916E-17
  -3.76500003E-02   1.73143427E-17
  -3.75999995E-02   1.99814146E-17
  -3.75499986E-02   2.27910940E-17
  -3.75000015E-02   2.55009460E-17
  -3.74500006E-02   2.79130543E-17
  -3.73999998E-02   2.99532588E-17
  -3.73499990E-02   3.16935277E-17
  -3.73000018E-02   3.33046870E-17
  -3.72500010E-02   3.49600309E-17
  -3.72000001E-02   3.67336848E-17
  -3.71499993E-02   3.85400984E-17
  -3.70999984E-02   4.01405076E-17
  -3.70500013E-02   4.12098536E-17
  -3.70000005E-02   4.14293542E-17
  -3.69499996E-02   4.05613274E-17
  -3.68999988E-02   3.84780069E-17
  -3.68500017E-02   3.51456469E-17
  -3.68000008E-02   3.05902045E-17
  -3.67500000E-02   2.48751938E-17
  -3.66999991E-02   1.81028907E-17
  -3.66499983E-02   1.04211514E-17
  -3.66000012E-02   2.00197126E-18
  -3.65500003E-02  -7.02942965E-18
  -3.64999995E-02  -1.66975059E-17
  -3.64499986E-02  -2.72517035E-17
  -3.64000015E-02  -3.91396223E-17
  -3.63500006E-02  -5.28369491E-17
  -3.62999998E-02  -6.85691435E-17
  -3.62499990E-02  -8.60445118E-17
  -3.62000018E-02  -1.04359217E-16
  -3.61500010E-02  -1.22191570E-16
  -3.61000001E-02  -1.38273060E-16
  -3.60499993E-02  -1.51959378E-16
  -3.59999985E-02  -1.63613056E-16
  -3.59500013E-02  -1.74533071E-16
  -3.59000005E-02  -1.86347129E-16
  -3.58499996E-02  -2.00059243E-16
  -3.57999988E-02  -2.15183810E-16
  -3.57500017E-02  -2.29457228E-16
  -3.57000008E-02  -2.39424874E-16
  -3.56500000E-02  -2.41799478E-16
  -3.55999991E-02  -2.35051299E-16
  -3.55499983E-02  -2.20441701E-16
  -3.55000012E-02  -2.01831156E-16
  -3.54500003E-02  -1.84091560E-16
  -3.53999995E-02  -1.70651662E-16
  -3.53499986E-02  -1.61271076E-16
  -3.53000015E-02  -1.51248268E-16
  -3.52500007E-02  -1.32769318E-16
  -3.51999998E-02  -9.81415849E-17
  -3.51499990E-02  -4.36413774E-17
  -3.51000018E-02   2.78482562E-17
  -3.50500010E-02   1.06955313E-16
  -3.50000001E-02   1.81127262E-16
  -3.49499993E-02   2.40037808E-16
  -3.48999985E-02   2.80762332E-16
  -3.48500013E-02   3.10117344E-16
  -3.48000005E-02   3.42546530E-16
  -3.47499996E-02   3.93894593E-16
  -3.46999988E-02   4.73510423E-16
  -3.46500017E-02   5.78329797E-16
  -3.46000008E-02   6.92159167E-16
  -3.45500000E-02   7.91287274E-16
  -3.44999991E-02   8.54585622E-16
  -3.44499983E-02   8.73777536E-16
  -3.44000012E-02   8.58857474E-16
  -3.43500003E-02   8.35326634E-16
  -3.42999995E-02   8.33470362E-16
  -3.42499986E-02   8.73844028E-16
  -3.42000015E-02   9.55554703E-16
  -3.41500007E-02   1.05343571E-15
  -3.40999998E-02   1.12666065E-15
  -3.40499990E-02   1.13608103E-15
  -3.40000018E-02   1.06296187E-15
  -3.39500010E-02   9.20183348E-16
  -3.39000002E-02   7.49543373E-16
  -3.38499993E-02   6.04780201E-16
  -3.37999985E-02   5.26844752E-16
  -3.37500013E-02   5.22500056E-16
  -3.37000005E-02   5.57033112E-16
  -3.36499996E-02   5.66282077E-16
  -3.35999988E-02   4.84425342E-16
  -3.35500017E-02   2.75925138E-16
  -3.35000008E-02  -4.33304800E-17
  -3.34500000E-02  -4.07129536E-16
  -3.33999991E-02  -7.24276380E-16
  -3.33499983E-02  -9.18701464E-16
  -3.33000012E-02  -9.66713726E-16
  -3.32500003E-02  -9.13228996E-16
  -3.31999995E-02  -8.56954244E-16
  -3.31499986E-02  -9.08333780E-16
  -3.31000015E-02  -1.13750934E-15
  -3.30500007E-02  -1.53609732E-15
  -3.29999998E-02  -2.01240205E-15
  -3.29499990E-02  -2.42568976E-15
  -3.29000019E-02  -2.64706393E-15
  -3.28500010E-02  -2.62058124E-15
  -3.28000002E-02  -2.39557985E-15
  -3.27499993E-02  -2.11212493E-15
  -3.26999985E-02  -1.94208180E-15
  -3.26500013E-02  -2.00966889E-15
  -3.26000005E-02  -2.32731260E-15
  -3.25499997E-02  -2.77863695E-15
  -3.24999988E-02  -3.16093638E-15
  -3.24500017E-02  -3.27236801E-15
  -3.24000008E-02  -3.00659596E-15
  -3.23500000E-02  -2.41081734E-15
  -3.22999991E-02  -1.67658504E-15
  -3.22499983E-02  -1.06200610E-15
  -3.22000012E-02  -7.76199182E-16
  -3.21500003E-02  -8.77325810E-16
  -3.20999995E-02  -1.23337378E-15
  -3.20499986E-02  -1.56931171E-15
  -3.20000015E-02  -1.58541655E-15
  -3.19500007E-02  -1.09678114E-15
  -3.18999998E-02  -1.30018737E-16
  -3.18499990E-02   1.07174687E-15
  -3.18000019E-02   2.14520941E-15
  -3.17500010E-02   2.76720793E-15
  -3.17000002E-02   2.80873732E-15
  -3.16499993E-02   2.40988370E-15
  -3.15999985E-02   1.93446168E-15
  -3.15500014E-02   1.81644225E-15
  -3.15000005E-02   2.36185672E-15
  -3.14499997E-02   3.59546767E-15
  -3.13999988E-02   5.22706615E-15
  -3.13500017E-02   6.76180854E-15
  -3.13000008E-02   7.71344370E-15
  -3.12500000E-02   7.82836235E-15
  -3.11999992E-02   7.21689520E-15
  -3.11500002E-02   6.32438759E-15
  -3.10999993E-02   5.74457914E-15
  -3.10500003E-02   5.95145127E-15
  -3.09999995E-02   7.06874151E-15
  -3.09500005E-02   8.78673694E-15
  -3.08999997E-02   1.04746559E-14
  -3.08500007E-02   1.14492444E-14
  -3.07999998E-02   1.12850564E-14
  -3.07500008E-02   1.00252744E-14
  -3.07000000E-02   8.18907388E-15
  -3.06499992E-02   6.55940705E-15
  -3.06000002E-02   5.83575843E-15
  -3.05499993E-02   6.30419772E-15
  -3.05000003E-02   7.67829268E-15
  -3.04499995E-02   9.19462989E-15
  -3.04000005E-02   9.93402104E-15
  -3.03499997E-02   9.23346296E-15
  -3.03000007E-02   7.00419252E-15
  -3.02499998E-02   3.80383904E-15
  -3.02000009E-02   6.15479603E-16
  -3.01500000E-02  -1.58109595E-15
  -3.00999992E-02  -2.26000333E-15
  -3.00500002E-02  -1.61538447E-15
  -2.99999993E-02  -5.10206325E-16
  -2.99500003E-02  -1.13761316E-16
  -2.98999995E-02  -1.37740432E-15
  -2.98500005E-02  -4.58065169E-15
  -2.97999997E-02  -9.15982446E-15
  -2.97500007E-02  -1.39130201E-14
  -2.96999998E-02  -1.75074392E-14
  -2.96500009E-02  -1.90725257E-14
  -2.96000000E-02  -1.86119278E-14
  -2.95499992E-02  -1.70365939E-14
  -2.95000002E-02  -1.57847266E-14
  -2.94499993E-02  -1.61817174E-14
  -2.94000003E-02  -1.88194949E-14
  -2.93499995E-02  -2.32398244E-14
  -2.93000005E-02  -2.80808820E-14
  -2.92499997E-02  -3.16426911E-14
  -2.92000007E-02  -3.26337400E-14
  -2.91499998E-02  -3.07672250E-14
  -2.91000009E-02  -2.69283344E-14
  -2.90500000E-02  -2.28165824E-14
  -2.89999992E-02  -2.02017121E-14
  -2.89500002E-02  -2.01141865E-14
  -2.88999993E-02  -2.23351390E-14
  -2.88500004E-02  -2.54314222E-14
  -2.87999995E-02  -2.73441666E-14
  -2.87500005E-02  -2.62885247E-14
  -2.86999997E-02  -2.15702937E-14
  -2.86500007E-02  -1.39458994E-14
  -2.85999998E-02  -5.34321851E-15
  -2.85500009E-02   1.95712913E-15
  -2.85000000E-02   6.33181734E-15
  -2.84499992E-02   7.56675792E-15
  -2.84000002E-02   6.99982225E-15
  -2.83499993E-02   6.96471697E-15
  -2.83000004E-02   9.75884700E-15
  -2.82499995E-02   1.65826080E-14
  -2.82000005E-02   2.69284310E-14
  -2.81499997E-02   3.87140000E-14
  -2.81000007E-02   4.91294864E-14
  -2.80499998E-02   5.58450991E-14
  -2.80000009E-02   5.80485435E-14
  -2.79500000E-02   5.68380182E-14
  -2.78999992E-02   5.47684185E-14
  -2.78500002E-02   5.47223806E-14
  -2.77999993E-02   5.85886117E-14
  -2.77500004E-02   6.63352497E-14
  -2.76999995E-02   7.59104625E-14
  -2.76500005E-02   8.40466409E-14
  -2.75999997E-02   8.76412658E-14
  -2.75500007E-02   8.51158743E-14
  -2.74999999E-02   7.71426719E-14
  -2.74500009E-02   6.63899071E-14
  -2.74000000E-02   5.63652179E-14
  -2.73499992E-02   4.98439824E-14
  -2.73000002E-02   4.75736326E-14
  -2.72499993E-02   4.78458690E-14
  -2.72000004E-02   4.71601721E-14
  -2.71499995E-02   4.17210720E-14
  -2.71000005E-02   2.91282094E-14
  -2.70499997E-02   9.50960925E-15
  -2.70000007E-02  -1.44285676E-14
  -2.69499999E-02  -3.84955638E-14
  -2.69000009E-02  -5.88032092E-14
  -2.68500000E-02  -7.34708450E-14
  -2.67999992E-02  -8.34834114E-14
  -2.67500002E-02  -9.22901688E-14
  -2.66999993E-02  -1.04281648E-13
  -2.66500004E-02  -1.22788417E-13
  -2.65999995E-02  -1.48480810E-13
  -2.65500005E-02  -1.78898346E-13
  -2.64999997E-02  -2.09356824E-13
  -2.64500007E-02  -2.34873807E-13
  -2.63999999E-02  -2.52285253E-13
  -2.63500009E-02  -2.61614759E-13
  -2.63000000E-02  -2.66059364E-13
  -2.62499992E-02  -2.70553653E-13
  -2.62000002E-02  -2.79508296E-13
  -2.61499994E-02  -2.94707076E-13
  -2.61000004E-02  -3.14307554E-13
  -2.60499995E-02  -3.33428922E-13
  -2.60000005E-02  -3.46116446E-13
  -2.59499997E-02  -3.47851495E-13
  -2.59000007E-02  -3.37505712E-13
  -2.58499999E-02  -3.17851323E-13
  -2.58000009E-02  -2.94355794E-13
  -2.57500000E-02  -2.72746479E-13
  -2.56999992E-02  -2.56395003E-13
  -2.56500002E-02  -2.44683343E-13
  -2.55999994E-02  -2.33112330E-13
  -2.55500004E-02  -2.15158444E-13
  -2.54999995E-02  -1.85104604E-13
  -2.54500005E-02  -1.40612972E-13
  -2.53999997E-02  -8.38846069E-14
  -2.53500007E-02  -2.08471258E-14
  -2.52999999E-02   4.13262801E-14
  -2.52500009E-02   9.73093540E-14
  -2.52000000E-02   1.45965203E-13
  -2.51499992E-02   1.90873128E-13
  -2.51000002E-02   2.38751320E-13
  -2.50499994E-02   2.96418651E-13
  -2.50000004E-02   3.67608613E-13
  -2.49499995E-02   4.51051008E-13
  -2.49000005E-02   5.40712386E-13
  -2.48499997E-02   6.28148358E-13
  -2.48000007E-02   7.05976076E-13
  -2.47499999E-02   7.70950361E-13
  -2.47000009E-02   8.25260758E-13
  -2.46500000E-02   8.75425004E-13
  -2.45999992E-02   9.29210810E-13
  -2.45500002E-02   9.91908920E-13
  -2.44999994E-02   1.06360613E-12
  -2.44500004E-02   1.13870328E-12
  -2.43999995E-02   1.20795463E-12
  -2.43500005E-02   1.26218383E-12
  -2.42999997E-02   1.29606503E-12
  -2.42500007E-02   1.31028380E-12
  -2.41999999E-02   1.31107842E-12
  -2.41500009E-02   1.30730420E-12
  -2.41000000E-02   1.30627377E-12
  -2.40499992E-02   1.31020498E-12
  -2.40000002E-02   1.31487746E-12
  -2.39499994E-02   1.31115203E-12
  -2.39000004E-02   1.28874082E-12
  -2.38499995E-02   1.24060007E-12
  -2.38000005E-02   1.16599829E-12
  -2.37499997E-02   1.07086388E-12
  -2.37000007E-02   9.65201118E-13
  -2.36499999E-02   8.58666816E-13
  -2.36000009E-02   7.56247495E-13
  -2.35500000E-02   6.55970558E-13
  -2.34999992E-02   5.49714462E-13
  -2.34500002E-02   4.26819902E-13
  -2.33999994E-02   2.78946110E-13
  -2.33500004E-02   1.04029984E-13
  -2.32999995E-02  -9.24347675E-14
  -2.32500006E-02  -2.99414139E-13
  -2.31999997E-02  -5.04807134E-13
  -2.31500007E-02  -7.00417751E-13
  -2.30999999E-02  -8.85218223E-13
  -2.30500009E-02  -1.06542054E-12
  -2.30000000E-02  -1.25127588E-12
  -2.29499992E-02  -1.45198480E-12
  -2.29000002E-02  -1.67096274E-12
  -2.28499994E-02  -1.90358319E-12
  -2.28000004E-02  -2.13843982E-12
  -2.27499995E-02  -2.36161633E-12
  -2.27000006E-02  -2.56209485E-12
  -2.26499997E-02  -2.73590894E-12
  -2.26000007E-02  -2.88717401E-12
  -2.25499999E-02  -3.02550476E-12
  -2.25000009E-02  -3.16093874E-12
  -2.24500000E-02  -3.29861095E-12
  -2.23999992E-02  -3.43556151E-12
  -2.23500002E-02  -3.56112318E-12
  -2.22999994E-02  -3.66075226E-12
  -2.22500004E-02  -3.72163064E-12
  -2.21999995E-02  -3.73755063E-12
  -2.21500006E-02  -3.71091309E-12
  -2.20999997E-02  -3.65093025E-12
  -2.20500007E-02  -3.56883099E-12
  -2.19999999E-02  -3.47219389E-12
  -2.19500009E-02  -3.36095258E-12
  -2.19000001E-02  -3.22686170E-12
  -2.18499992E-02  -3.05668772E-12
  -2.18000002E-02  -2.83771032E-12
  -2.17499994E-02  -2.56309448E-12
  -2.17000004E-02  -2.23474147E-12
  -2.16499995E-02  -1.86235229E-12
  -2.16000006E-02  -1.45913164E-12
  -2.15499997E-02  -1.03605937E-12
  -2.15000007E-02  -5.97292344E-13
  -2.14499999E-02  -1.38751031E-13
  -2.14000009E-02   3.49488830E-13
  -2.13500001E-02   8.78081462E-13
  -2.12999992E-02   1.45286669E-12
  -2.12500002E-02   2.07136912E-12
  -2.11999994E-02   2.72288463E-12
  -2.11500004E-02   3.39207959E-12
  -2.10999995E-02   4.06446187E-12
  -2.10500006E-02   4.73126139E-12
  -2.09999997E-02   5.39154702E-12
  -2.09500007E-02   6.05067602E-12
  -2.08999999E-02   6.71582408E-12
  -2.08500009E-02   7.39063845E-12
  -2.08000001E-02   8.07143241E-12
  -2.07499992E-02   8.74659286E-12
  -2.07000002E-02   9.39942655E-12
  -2.06499994E-02   1.00130963E-11
  -2.06000004E-02   1.05754233E-11
  -2.05499995E-02   1.10814023E-11
  -2.05000006E-02   1.15323775E-11
  -2.04499997E-02   1.19323535E-11
  -2.04000007E-02   1.22831849E-11
  -2.03499999E-02   1.25808522E-11
  -2.03000009E-02   1.28144925E-11
  -2.02500001E-02   1.29685490E-11
  -2.01999992E-02   1.30269736E-11
  -2.01500002E-02   1.29775479E-11
  -2.00999994E-02   1.28143650E-11
  -2.00500004E-02   1.25374485E-11
  -1.99999996E-02   1.21498003E-11
  -1.99500006E-02   1.16533597E-11
  -1.98999997E-02   1.10457849E-11
  -1.98500007E-02   1.03195048E-11
  -1.97999999E-02   9.46341009E-12
  -1.97500009E-02   8.46627889E-12
  -1.97000001E-02   7.32031189E-12
  -1.96499992E-02   6.02312471E-12
  -1.96000002E-02   4.57740009E-12
  -1.95499994E-02   2.98850267E-12
  -1.95000004E-02   1.26133511E-12
  -1.94499996E-02  -6.02000383E-13
  -1.94000006E-02  -2.60263295E-12
  -1.93499997E-02  -4.74333073E-12
  -1.93000007E-02  -7.02576409E-12
  -1.92499999E-02  -9.44803090E-12
  -1.92000009E-02  -1.20036706E-11
  -1.91500001E-02  -1.46825642E-11
  -1.90999992E-02  -1.74731809E-11
  -1.90500002E-02  -2.03648973E-11
  -1.89999994E-02  -2.33491646E-11
  -1.89500004E-02  -2.64188775E-11
  -1.88999996E-02  -2.95663077E-11
  -1.88500006E-02  -3.27807087E-11
  -1.87999997E-02  -3.60469606E-11
  -1.87500007E-02  -3.93459744E-11
  -1.86999999E-02  -4.26568364E-11
  -1.86500009E-02  -4.59594689E-11
  -1.86000001E-02  -4.92364448E-11
  -1.85499992E-02  -5.24728351E-11
  -1.85000002E-02  -5.56539780E-11
  -1.84499994E-02  -5.87622034E-11
  -1.84000004E-02  -6.17742107E-11
  -1.83499996E-02  -6.46605616E-11
  -1.83000006E-02  -6.73878314E-11
  -1.82499997E-02  -6.99225955E-11
  -1.82000007E-02  -7.22353843E-11
  -1.81499999E-02  -7.43025919E-11
  -1.81000009E-02  -7.61051638E-11
  -1.80500001E-02  -7.76244208E-11
  -1.79999992E-02  -7.88367913E-11
  -1.79500002E-02  -7.97101274E-11
  -1.78999994E-02  -8.02035105E-11
  -1.78500004E-02  -8.02710259E-11
  -1.77999996E-02  -7.98681954E-11
  -1.77500006E-02  -7.89579860E-11
  -1.76999997E-02  -7.75136899E-11
  -1.76500008E-02  -7.55168289E-11
  -1.75999999E-02  -7.29508398E-11
  -1.75500009E-02  -6.97931712E-11
  -1.75000001E-02  -6.60094271E-11
  -1.74499992E-02  -6.15526796E-11
  -1.74000002E-02  -5.63686146E-11
  -1.73499994E-02  -5.04046076E-11
  -1.73000004E-02  -4.36188342E-11
  -1.72499996E-02  -3.59850656E-11
  -1.72000006E-02  -2.74907042E-11
  -1.71499997E-02  -1.81284449E-11
  -1.71000008E-02  -7.88506586E-12
  -1.70499999E-02   3.26758087E-12
  -1.70000009E-02   1.53749773E-11
  -1.69500001E-02   2.84942382E-11
  -1.68999992E-02   4.26822154E-11
  -1.68500002E-02   5.79826603E-11
  -1.67999994E-02   7.44182146E-11
  -1.67500004E-02   9.19911231E-11
  -1.66999996E-02   1.10693080E-10
  -1.66500006E-02   1.30520095E-10
  -1.65999997E-02   1.51485796E-10
  -1.65500008E-02   1.73627071E-10
  -1.64999999E-02   1.96998931E-10
  -1.64500009E-02   2.21660384E-10
  -1.64000001E-02   2.47657062E-10
  -1.63499992E-02   2.75008766E-10
  -1.63000003E-02   3.03707309E-10
  -1.62499994E-02   3.33726907E-10
  -1.62000004E-02   3.65042274E-10
  -1.61499996E-02   3.97647359E-10
  -1.61000006E-02   4.31565728E-10
  -1.60499997E-02   4.66847672E-10
  -1.60000008E-02   5.03554698E-10
  -1.59499999E-02   5.41737599E-10
  -1.59000009E-02   5.81418358E-10
  -1.58500001E-02   6.22583374E-10
  -1.57999992E-02   6.65192568E-10
  -1.57500003E-02   7.09200698E-10
  -1.56999994E-02   7.54581231E-10
  -1.56500004E-02   8.01343825E-10
  -1.55999996E-02   8.49534776E-10
  -1.55499997E-02   8.99222419E-10
  -1.54999997E-02   9.50470369E-10
  -1.54499998E-02   1.00331321E-09
  -1.53999999E-02   1.05774289E-09
  -1.53500000E-02   1.11371490E-09
  -1.53000001E-02   1.17117105E-09
  -1.52500002E-02   1.23006860E-09
  -1.52000003E-02   1.29040600E-09
  -1.51500003E-02   1.35222944E-09
  -1.51000004E-02   1.41561984E-09
  -1.50499996E-02   1.48066381E-09
  -1.49999997E-02   1.54742152E-09
  -1.49499997E-02   1.61590508E-09
  -1.48999998E-02   1.68607939E-09
  -1.48499999E-02   1.75788317E-09
  -1.48000000E-02   1.83126547E-09
  -1.47500001E-02   1.90621718E-09
  -1.47000002E-02   1.98278882E-09
  -1.46500003E-02   2.06108064E-09
  -1.46000003E-02   2.14121232E-09
  -1.45500004E-02   2.22328467E-09
  -1.44999996E-02   2.30734676E-09
  -1.44499997E-02   2.39338949E-09
  -1.43999998E-02   2.48136289E-09
  -1.43499998E-02   2.57121546E-09
  -1.42999999E-02   2.66293720E-09
  -1.42500000E-02   2.75658452E-09
  -1.42000001E-02   2.85228108E-09
  -1.41500002E-02   2.95018698E-09
  -1.41000003E-02   3.05045411E-09
  -1.40500003E-02   3.15318349E-09
  -1.40000004E-02   3.25840710E-09
  -1.39499996E-02   3.36609873E-09
  -1.38999997E-02   3.47621598E-09
  -1.38499998E-02   3.58874930E-09
  -1.37999998E-02   3.70376219E-09
  -1.37499999E-02   3.82140009E-09
  -1.37000000E-02   3.94186506E-09
  -1.36500001E-02   4.06536760E-09
  -1.36000002E-02   4.19207247E-09
  -1.35500003E-02   4.32206537E-09
  -1.35000004E-02   4.45535786E-09
  -1.34500004E-02   4.59192240E-09
  -1.33999996E-02   4.73175410E-09
  -1.33499997E-02   4.87491914E-09
  -1.32999998E-02   5.02158004E-09
  -1.32499998E-02   5.17197840E-09
  -1.31999999E-02   5.32638289E-09
  -1.31500000E-02   5.48502666E-09
  -1.31000001E-02   5.64805935E-09
  -1.30500002E-02   5.81553783E-09
  -1.30000003E-02   5.98745764E-09
  -1.29500004E-02   6.16381568E-09
  -1.29000004E-02   6.34467590E-09
  -1.28499996E-02   6.53020837E-09
  -1.27999997E-02   6.72068312E-09
  -1.27499998E-02   6.91642388E-09
  -1.26999998E-02   7.11773307E-09
  -1.26499999E-02   7.32483230E-09
  -1.26000000E-02   7.53783347E-09
  -1.25500001E-02   7.75676146E-09
  -1.25000002E-02   7.98161803E-09
  -1.24500003E-02   8.21245738E-09
  -1.24000004E-02   8.44944648E-09
  -1.23500004E-02   8.69287131E-09
  -1.22999996E-02   8.94309959E-09
  -1.22499997E-02   9.20050613E-09
  -1.21999998E-02   9.46538758E-09
  -1.21499998E-02   9.73792247E-09
  -1.20999999E-02   1.00181756E-08
  -1.20500000E-02   1.03061586E-08
  -1.20000001E-02   1.06019140E-08
  -1.19500002E-02   1.09055946E-08
  -1.19000003E-02   1.12174909E-08
  -1.18500004E-02   1.15380034E-08
  -1.18000004E-02   1.18675709E-08
  -1.17499996E-02   1.22065718E-08
  -1.16999997E-02   1.25552591E-08
  -1.16499998E-02   1.29137510E-08
  -1.15999999E-02   1.32820785E-08
  -1.15499999E-02   1.36602782E-08
  -1.15000000E-02   1.40484868E-08
  -1.14500001E-02   1.44469956E-08
  -1.14000002E-02   1.48562362E-08
  -1.13500003E-02   1.52767150E-08
  -1.13000004E-02   1.57089008E-08
  -1.12500004E-02   1.61531428E-08
  -1.11999996E-02   1.66096363E-08
  -1.11499997E-02   1.70784489E-08
  -1.10999998E-02   1.75596231E-08
  -1.10499999E-02   1.80532780E-08
  -1.09999999E-02   1.85596996E-08
  -1.09500000E-02   1.90793354E-08
  -1.09000001E-02   1.96127470E-08
  -1.08500002E-02   2.01605026E-08
  -1.08000003E-02   2.07230570E-08
  -1.07500004E-02   2.13007105E-08
  -1.07000005E-02   2.18935998E-08
  -1.06499996E-02   2.25018049E-08
  -1.05999997E-02   2.31254536E-08
  -1.05499998E-02   2.37648354E-08
  -1.04999999E-02   2.44204319E-08
  -1.04499999E-02   2.50928771E-08
  -1.04000000E-02   2.57828479E-08
  -1.03500001E-02   2.64909428E-08
  -1.03000002E-02   2.72175846E-08
  -1.02500003E-02   2.79630186E-08
  -1.02000004E-02   2.87273778E-08
  -1.01500005E-02   2.95108133E-08
  -1.00999996E-02   3.03136183E-08
  -1.00499997E-02   3.11362918E-08
  -9.99999978E-03   3.19795319E-08
  -9.94999986E-03   3.28441168E-08
  -9.89999995E-03   3.37308030E-08
  -9.85000003E-03   3.46401663E-08
  -9.80000012E-03   3.55725902E-08
  -9.75000020E-03   3.65283057E-08
  -9.70000029E-03   3.75075118E-08
  -9.65000037E-03   3.85105423E-08
  -9.60000046E-03   3.95379303E-08
  -9.54999961E-03   4.05904537E-08
  -9.49999969E-03   4.16690185E-08
  -9.44999978E-03   4.27745483E-08
  -9.39999986E-03   4.39078214E-08
  -9.34999995E-03   4.50693989E-08
  -9.30000003E-03   4.62596645E-08
  -9.25000012E-03   4.74789097E-08
  -9.20000020E-03   4.87275074E-08
  -9.15000029E-03   5.00060295E-08
  -9.10000037E-03   5.13152969E-08
  -9.05000046E-03   5.26563433E-08
  -8.99999961E-03   5.40302381E-08
  -8.94999970E-03   5.54379582E-08
  -8.89999978E-03   5.68802605E-08
  -8.84999987E-03   5.83576814E-08
  -8.79999995E-03   5.98706222E-08
  -8.75000004E-03   6.14195059E-08
  -8.70000012E-03   6.30049612E-08
  -8.65000021E-03   6.46278551E-08
  -8.60000029E-03   6.62893385E-08
  -8.55000038E-03   6.79906549E-08
  -8.50000046E-03   6.97330123E-08
  -8.44999962E-03   7.15174195E-08
  -8.39999970E-03   7.33446228E-08
  -8.34999979E-03   7.52151905E-08
  -8.29999987E-03   7.71296627E-08
  -8.24999996E-03   7.90887142E-08
  -8.20000004E-03   8.10932974E-08
  -8.15000013E-03   8.31446627E-08
  -8.10000021E-03   8.52442170E-08
  -8.05000030E-03   8.73933814E-08
  -8.00000038E-03   8.95933994E-08
  -7.95000046E-03   9.18452514E-08
  -7.89999962E-03   9.41496765E-08
  -7.84999970E-03   9.65072999E-08
  -7.79999979E-03   9.89188749E-08
  -7.74999987E-03   1.01385368E-07
  -7.69999996E-03   1.03908093E-07
  -7.65000004E-03   1.06488599E-07
  -7.60000013E-03   1.09128507E-07
  -7.55000021E-03   1.11829287E-07
  -7.49999983E-03   1.14592204E-07
  -7.44999992E-03   1.17418210E-07
  -7.40000000E-03   1.20308115E-07
  -7.35000009E-03   1.23262751E-07
  -7.30000017E-03   1.26283211E-07
  -7.24999979E-03   1.29370875E-07
  -7.19999988E-03   1.32527447E-07
  -7.14999996E-03   1.35754718E-07
  -7.10000005E-03   1.39054507E-07
  -7.05000013E-03   1.42428320E-07
  -7.00000022E-03   1.45877380E-07
  -6.94999984E-03   1.49402695E-07
  -6.89999992E-03   1.53005232E-07
  -6.85000001E-03   1.56686099E-07
  -6.80000009E-03   1.60446760E-07
  -6.75000018E-03   1.64289020E-07
  -6.69999979E-03   1.68214854E-07
  -6.64999988E-03   1.72226308E-07
  -6.59999996E-03   1.76325187E-07
  -6.55000005E-03   1.80512998E-07
  -6.50000013E-03   1.84790991E-07
  -6.45000022E-03   1.89160275E-07
  -6.39999984E-03   1.93622057E-07
  -6.34999992E-03   1.98177858E-07
  -6.30000001E-03   2.02829625E-07
  -6.25000009E-03   2.07579504E-07
  -6.20000018E-03   2.12429811E-07
  -6.14999980E-03   2.17382706E-07
  -6.09999988E-03   2.22440022E-07
  -6.04999997E-03   2.27603323E-07
  -6.00000005E-03   2.32873944E-07
  -5.95000014E-03   2.38253222E-07
  -5.90000022E-03   2.43742818E-07
  -5.84999984E-03   2.49344737E-07
  -5.79999993E-03   2.55061337E-07
  -5.75000001E-03   2.60895149E-07
  -5.70000010E-03   2.66848645E-07
  -5.65000018E-03   2.72924069E-07
  -5.59999980E-03   2.79123213E-07
  -5.54999989E-03   2.85447697E-07
  -5.49999997E-03   2.91899028E-07
  -5.45000006E-03   2.98478966E-07
  -5.40000014E-03   3.05189587E-07
  -5.35000023E-03   3.12033393E-07
  -5.29999984E-03   3.19013196E-07
  -5.24999993E-03   3.26131754E-07
  -5.20000001E-03   3.33391682E-07
  -5.15000010E-03   3.40795140E-07
  -5.10000018E-03   3.48344059E-07
  -5.04999980E-03   3.56040175E-07
  -4.99999989E-03   3.63885476E-07
  -4.94999997E-03   3.71882066E-07
  -4.90000006E-03   3.80032702E-07
  -4.85000014E-03   3.88340339E-07
  -4.80000023E-03   3.96808076E-07
  -4.74999985E-03   4.05438868E-07
  -4.69999993E-03   4.14235359E-07
  -4.65000002E-03   4.23199737E-07
  -4.60000010E-03   4.32334048E-07
  -4.55000019E-03   4.41640339E-07
  -4.49999981E-03   4.51120883E-07
  -4.44999989E-03   4.60778438E-07
  -4.39999998E-03   4.70616186E-07
  -4.35000006E-03   4.80637482E-07
  -4.30000015E-03   4.90845650E-07
  -4.25000023E-03   5.01243619E-07
  -4.19999985E-03   5.11834060E-07
  -4.14999994E-03   5.22619132E-07
  -4.10000002E-03   5.33601167E-07
  -4.05000011E-03   5.44782495E-07
  -4.00000019E-03   5.56166071E-07
  -3.94999981E-03   5.67755137E-07
  -3.89999989E-03   5.79553273E-07
  -3.84999998E-03   5.91564174E-07
  -3.80000006E-03   6.03791136E-07
  -3.74999992E-03   6.16237173E-07
  -3.70000000E-03   6.28904672E-07
  -3.65000009E-03   6.41796248E-07
  -3.59999994E-03   6.54914402E-07
  -3.55000002E-03   6.68262089E-07
  -3.50000011E-03   6.81842664E-07
  -3.44999996E-03   6.95659935E-07
  -3.40000005E-03   7.09717540E-07
  -3.34999990E-03   7.24019287E-07
  -3.29999998E-03   7.38568417E-07
  -3.25000007E-03   7.53367715E-07
  -3.19999992E-03   7.68419909E-07
  -3.15000000E-03   7.83727501E-07
  -3.10000009E-03   7.99293559E-07
  -3.04999994E-03   8.15121382E-07
  -3.00000003E-03   8.31214777E-07
  -2.95000011E-03   8.47577724E-07
  -2.89999996E-03   8.64214144E-07
  -2.85000005E-03   8.81127619E-07
  -2.79999990E-03   8.98321218E-07
  -2.74999999E-03   9.15797898E-07
  -2.70000007E-03   9.33560329E-07
  -2.64999992E-03   9.51611412E-07
  -2.60000001E-03   9.69954385E-07
  -2.55000009E-03   9.88593115E-07
  -2.49999994E-03   1.00753164E-06
  -2.45000003E-03   1.02677404E-06
  -2.40000011E-03   1.04632420E-06
  -2.34999997E-03   1.06618540E-06
  -2.30000005E-03   1.08636061E-06
  -2.24999990E-03   1.10685266E-06
  -2.19999999E-03   1.12766429E-06
  -2.15000007E-03   1.14879879E-06
  -2.09999993E-03   1.17025968E-06
  -2.05000001E-03   1.19205117E-06
  -2.00000009E-03   1.21417725E-06
  -1.94999995E-03   1.23664188E-06
  -1.90000003E-03   1.25944860E-06
  -1.85000000E-03   1.28260035E-06
  -1.79999997E-03   1.30610010E-06
  -1.75000005E-03   1.32995024E-06
  -1.70000002E-03   1.35415394E-06
  -1.64999999E-03   1.37871461E-06
  -1.59999996E-03   1.40363625E-06
  -1.55000004E-03   1.42892281E-06
  -1.50000001E-03   1.45457841E-06
  -1.44999998E-03   1.48060667E-06
  -1.39999995E-03   1.50701044E-06
  -1.35000004E-03   1.53379256E-06
  -1.30000000E-03   1.56095530E-06
  -1.24999997E-03   1.58850173E-06
  -1.20000006E-03   1.61643482E-06
  -1.15000003E-03   1.64475819E-06
  -1.09999999E-03   1.67347571E-06
  -1.04999996E-03   1.70259136E-06
  -1.00000005E-03   1.73210833E-06
  -9.50000016E-04   1.76202968E-06
  -8.99999985E-04   1.79235803E-06
  -8.50000011E-04   1.82309554E-06
  -7.99999980E-04   1.85424449E-06
  -7.50000007E-04   1.88580748E-06
  -6.99999975E-04   1.91778781E-06
  -6.50000002E-04   1.95018902E-06
  -6.00000028E-04   1.98301473E-06
  -5.49999997E-04   2.01626813E-06
  -5.00000024E-04   2.04995172E-06
  -4.49999992E-04   2.08406777E-06
  -3.99999990E-04   2.11861857E-06
  -3.49999988E-04   2.15360569E-06
  -3.00000014E-04   2.18903119E-06
  -2.50000012E-04   2.22489734E-06
  -1.99999995E-04   2.26120778E-06
  -1.50000007E-04   2.29796501E-06
  -9.99999975E-05   2.33517221E-06
  -4.99999987E-05   2.37283143E-06
   0.00000000       2.41094449E-06
   4.99999987E-05   2.44951298E-06
   9.99999975E-05   2.48853803E-06
   1.50000007E-04   2.52802079E-06
   1.99999995E-04   2.56796284E-06
   2.50000012E-04   2.60836691E-06
   3.00000014E-04   2.64923506E-06
   3.49999988E-04   2.69056954E-06
   3.99999990E-04   2.73237220E-06
   4.49999992E-04   2.77464392E-06
   5.00000024E-04   2.81738539E-06
   5.49999997E-04   2.86059662E-06
   6.00000028E-04   2.90427852E-06
   6.50000002E-04   2.94843153E-06
   6.99999975E-04   2.99305725E-06
   7.50000007E-04   3.03815705E-06
   7.99999980E-04   3.08373274E-06
   8.50000011E-04   3.12978455E-06
   8.99999985E-04   3.17631316E-06
   9.50000016E-04   3.22331812E-06
   1.00000005E-03   3.27079852E-06
   1.04999996E-03   3.31875344E-06
   1.09999999E-03   3.36718290E-06
   1.15000003E-03   3.41608711E-06
   1.20000006E-03   3.46546631E-06
   1.24999997E-03   3.51532117E-06
   1.30000000E-03   3.56565101E-06
   1.35000004E-03   3.61645516E-06
   1.39999995E-03   3.66773202E-06
   1.44999998E-03   3.71947976E-06
   1.50000001E-03   3.77169613E-06
   1.55000004E-03   3.82437975E-06
   1.59999996E-03   3.87752880E-06
   1.64999999E-03   3.93114306E-06
   1.70000002E-03   3.98522116E-06
   1.75000005E-03   4.03976128E-06
   1.79999997E-03   4.09476070E-06
   1.85000000E-03   4.15021759E-06
   1.90000003E-03   4.20612741E-06
   1.94999995E-03   4.26248789E-06
   2.00000009E-03   4.31929539E-06
   2.05000001E-03   4.37654762E-06
   2.09999993E-03   4.43424187E-06
   2.15000007E-03   4.49237405E-06
   2.19999999E-03   4.55094141E-06
   2.24999990E-03   4.60994033E-06
   2.30000005E-03   4.66936581E-06
   2.34999997E-03   4.72921420E-06
   2.40000011E-03   4.78947959E-06
   2.45000003E-03   4.85015698E-06
   2.49999994E-03   4.91124229E-06
   2.55000009E-03   4.97273004E-06
   2.60000001E-03   5.03461524E-06
   2.64999992E-03   5.09689335E-06
   2.70000007E-03   5.15955799E-06
   2.74999999E-03   5.22260279E-06
   2.79999990E-03   5.28602186E-06