  -3.99999991E-02   0.00000000    
  -3.99499983E-02   0.00000000    
  -3.99000011E-02   0.00000000    
  -3.98500003E-02   0.00000000    
  -3.97999994E-02   9.90815859E-19
  -3.97499986E-02   7.76811765E-18
  -3.97000015E-02   3.10659491E-17
  -3.96500006E-02   8.61888118E-17
  -3.95999998E-02   1.92084547E-16
  -3.95499989E-02   3.78595378E-16
  -3.95000018E-02   6.98899590E-16
  -3.94500010E-02   1.22957505E-15
  -3.94000001E-02   2.04779956E-15
  -3.93499993E-02   3.20450690E-15
  -3.92999984E-02   4.72543249E-15
  -3.92500013E-02   6.64003146E-15
  -3.92000005E-02   8.99513753E-15
  -3.91499996E-02   1.18228401E-14
  -3.90999988E-02   1.51043322E-14
  -3.90500017E-02   1.88127542E-14
  -3.90000008E-02   2.30474345E-14
  -3.89500000E-02   2.81440080E-14
  -3.88999991E-02   3.46148755E-14
  -3.88499983E-02   4.29103503E-14
  -3.88000011E-02   5.31629760E-14
  -3.87500003E-02   6.50945362E-14
  -3.86999995E-02   7.81154113E-14
  -3.86499986E-02   9.15209884E-14
  -3.86000015E-02   1.04730569E-13
  -3.85500006E-02   1.17604643E-13
  -3.84999998E-02   1.30785072E-13
  -3.84499989E-02   1.45750545E-13
  -3.84000018E-02   1.64218587E-13
  -3.83500010E-02   1.86924342E-13
  -3.83000001E-02   2.12432841E-13
  -3.82499993E-02   2.36875732E-13
  -3.81999984E-02   2.54998550E-13
  -3.81500013E-02   2.62042937E-13
  -3.81000005E-02   2.55509752E-13
  -3.80499996E-02   2.36060872E-13
  -3.79999988E-02   2.07320950E-13
  -3.79500017E-02   1.74621981E-13
  -3.79000008E-02   1.42814295E-13
  -3.78500000E-02   1.13621962E-13
  -3.77999991E-02   8.37259000E-14
  -3.77499983E-02   4.50189812E-14
  -3.77000012E-02  -1.24607923E-14
  -3.76500003E-02  -9.62440305E-14
  -3.75999995E-02  -2.08326994E-13
  -3.75499986E-02  -3.45140773E-13
  -3.75000015E-02  -5.00466259E-13
  -3.74500006E-02  -6.69451040E-13
  -3.73999998E-02  -8.51740065E-13
  -3.73499990E-02  -1.05272627E-12
  -3.73000018E-02  -1.28272241E-12
  -3.72500010E-02  -1.55399717E-12
  -3.72000001E-02  -1.87593712E-12
  -3.71499993E-02  -2.24979974E-12
  -3.70999984E-02  -2.66575065E-12
  -3.70500013E-02  -3.10438372E-12
  -3.70000005E-02  -3.54234415E-12
  -3.69499996E-02  -3.95900457E-12
  -3.68999988E-02  -4.34089657E-12
  -3.68500017E-02  -4.68296539E-12
  -3.68000008E-02  -4.98815832E-12
  -3.67500000E-02  -5.26683645E-12
  -3.66999991E-02  -5.53537207E-12
  -3.66499983E-02  -5.81204919E-12
  -3.66000012E-02  -6.11004736E-12
  -3.65500003E-02  -6.43024262E-12
  -3.64999995E-02  -6.75767038E-12
  -3.64499986E-02  -7.06372157E-12
  -3.64000015E-02  -7.31311279E-12
  -3.63500006E-02  -7.47303955E-12
  -3.62999998E-02  -7.52197783E-12
  -3.62499990E-02  -7.45502358E-12
  -3.62000018E-02  -7.28142980E-12
  -3.61500010E-02  -7.01119241E-12
  -3.61000001E-02  -6.63325167E-12
  -3.60499993E-02  -6.09673466E-12
  -3.59999985E-02  -5.31077439E-12
  -3.59500013E-02  -4.17233002E-12
  -3.59000005E-02  -2.61566593E-12
  -3.58499996E-02  -6.61241461E-13
  -3.57999988E-02   1.56294032E-12
  -3.57500017E-02   3.84573666E-12
  -3.57000008E-02   5.96266656E-12
  -3.56500000E-02   7.76998865E-12
  -3.55999991E-02   9.28645442E-12
  -3.55499983E-02   1.07215356E-11
  -3.55000012E-02   1.24222776E-11
  -3.54500003E-02   1.47435276E-11
  -3.53999995E-02   1.78873288E-11
  -3.53499986E-02   2.17855664E-11
  -3.53000015E-02   2.60937418E-11
  -3.52500007E-02   3.03178906E-11
  -3.51999998E-02   3.40307643E-11
  -3.51499990E-02   3.70812096E-11
  -3.51000018E-02   3.96917221E-11
  -3.50500010E-02   4.23803076E-11
  -3.50000001E-02   4.57192166E-11
  -3.49499993E-02   5.00238601E-11
  -3.48999985E-02   5.51148363E-11
  -3.48500013E-02   6.02865466E-11
  -3.48000005E-02   6.45378612E-11
  -3.47499996E-02   6.69966721E-11
  -3.46999988E-02   6.73563150E-11
  -3.46500017E-02   6.61018809E-11
  -3.46000008E-02   6.43754494E-11
  -3.45500000E-02   6.34917049E-11
  -3.44999991E-02   6.42957562E-11
  -3.44499983E-02   6.66594002E-11
  -3.44000012E-02   6.93833463E-11
  -3.43500003E-02   7.06102815E-11
  -3.42999995E-02   6.86185969E-11
  -3.42499986E-02   6.26642280E-11
  -3.42000015E-02   5.34652426E-11
  -3.41500007E-02   4.30370739E-11
  -3.40999998E-02   3.38616982E-11
  -3.40499990E-02   2.77033708E-11
  -3.40000018E-02   2.46093597E-11
  -3.39500010E-02   2.26196891E-11
  -3.39000002E-02   1.84263611E-11
  -3.38499993E-02   8.78227352E-12
  -3.37999985E-02  -7.93354358E-12
  -3.37500013E-02  -3.07319586E-11
  -3.37000005E-02  -5.61520865E-11
  -3.36499996E-02  -7.95881000E-11
  -3.35999988E-02  -9.73069958E-11
  -3.35500017E-02  -1.08271149E-10
  -3.35000008E-02  -1.14866248E-10
  -3.34500000E-02  -1.22055546E-10
  -3.33999991E-02  -1.35189387E-10
  -3.33499983E-02  -1.57385507E-10
  -3.33000012E-02  -1.87713955E-10
  -3.32500003E-02  -2.21160396E-10
  -3.31999995E-02  -2.50576893E-10
  -3.31499986E-02  -2.69878703E-10
  -3.31000015E-02  -2.77063428E-10
  -3.30500007E-02  -2.75572648E-10
  -3.29999998E-02  -2.73166323E-10
  -3.29499990E-02  -2.78591566E-10
  -3.29000019E-02  -2.97413899E-10
  -3.28500010E-02  -3.28927968E-10
  -3.28000002E-02  -3.65749320E-10
  -3.27499993E-02  -3.96564143E-10
  -3.26999985E-02  -4.11033790E-10
  -3.26500013E-02  -4.04704964E-10
  -3.26000005E-02  -3.81557619E-10
  -3.25499997E-02  -3.52734009E-10
  -3.24999988E-02  -3.31703803E-10
  -3.24500017E-02  -3.27869870E-10
  -3.24000008E-02  -3.41538353E-10
  -3.23500000E-02  -3.62796126E-10
  -3.22999991E-02  -3.75195180E-10
  -3.22499983E-02  -3.62929825E-10
  -3.22000012E-02  -3.18407578E-10
  -3.21500003E-02  -2.46633269E-10
  -3.20999995E-02  -1.64019923E-10
  -3.20499986E-02  -9.16711915E-11
  -3.20000015E-02  -4.58512429E-11
  -3.19500007E-02  -2.99323864E-11
  -3.18999998E-02  -3.17746940E-11
  -3.18499990E-02  -2.82426929E-11
  -3.18000019E-02   4.71344188E-12
  -3.17500010E-02   8.07452577E-11
  -3.17000002E-02   1.95823163E-10
  -3.16499993E-02   3.28728739E-10
  -3.15999985E-02   4.49676796E-10
  -3.15500014E-02   5.33613598E-10
  -3.15000005E-02   5.72247194E-10
  -3.14499997E-02   5.79002457E-10
  -3.13999988E-02   5.84006676E-10
  -3.13500017E-02   6.20741014E-10
  -3.13000008E-02   7.10071835E-10
  -3.12500000E-02   8.49067761E-10
  -3.11999992E-02   1.01028419E-09
  -3.11500002E-02   1.15262777E-09
  -3.10999993E-02   1.23949750E-09
  -3.10500003E-02   1.25614075E-09
  -3.09999995E-02   1.21797283E-09
  -3.09500005E-02   1.16529530E-09
  -3.08999997E-02   1.14594279E-09
  -3.08500007E-02   1.19318211E-09
  -3.07999998E-02   1.30892819E-09
  -3.07500008E-02   1.46054835E-09
  -3.07000000E-02   1.59368518E-09
  -3.06499992E-02   1.65614367E-09
  -3.06000002E-02   1.62230773E-09
  -3.05499993E-02   1.50661894E-09
  -3.05000003E-02   1.35906086E-09
  -3.04499995E-02   1.24361743E-09
  -3.04000005E-02   1.20877375E-09
  -3.03499997E-02   1.26341015E-09
  -3.03000007E-02   1.36972256E-09
  -3.02499998E-02   1.45753665E-09
  -3.02000009E-02   1.45467582E-09
  -3.01500000E-02   1.32018907E-09
  -3.00999992E-02   1.06508724E-09
  -3.00500002E-02   7.50157714E-10
  -2.99999993E-02   4.60551153E-10
  -2.99500003E-02   2.67673161E-10
  -2.98999995E-02   1.95466157E-10
  -2.98500005E-02   2.07050710E-10
  -2.97999997E-02   2.19094548E-10
  -2.97500007E-02   1.38655018E-10
  -2.96999998E-02  -9.35320085E-11
  -2.96500009E-02  -4.73143968E-10
  -2.96000000E-02  -9.30398869E-10
  -2.95499992E-02  -1.35855005E-09
  -2.95000002E-02  -1.66110459E-09
  -2.94499993E-02  -1.79676618E-09
  -2.94000003E-02  -1.80105253E-09
  -2.93499995E-02  -1.77330861E-09
  -2.93000005E-02  -1.83335969E-09
  -2.92499997E-02  -2.06642259E-09
  -2.92000007E-02  -2.48134224E-09
  -2.91499998E-02  -3.00222047E-09
  -2.91000009E-02  -3.49888829E-09
  -2.90500000E-02  -3.84391541E-09
  -2.89999992E-02  -3.97098665E-09
  -2.89500002E-02  -3.90767863E-09
  -2.88999993E-02  -3.76630949E-09
  -2.88500004E-02  -3.69514486E-09
  -2.87999995E-02  -3.81070686E-09
  -2.87500005E-02  -4.14161816E-09
  -2.86999997E-02  -4.61048799E-09
  -2.86500007E-02  -5.06397724E-09
  -2.85999998E-02  -5.33928901E-09
  -2.85500009E-02  -5.33795541E-09
  -2.85000000E-02  -5.07320053E-09
  -2.84499992E-02  -4.66795269E-09
  -2.84000002E-02  -4.30239711E-09
  -2.83499993E-02  -4.13316004E-09
  -2.83000004E-02  -4.22005009E-09
  -2.82499995E-02  -4.49431159E-09
  -2.82000005E-02  -4.78451057E-09
  -2.81499997E-02  -4.89038054E-09
  -2.81000007E-02  -4.67270356E-09
  -2.80499998E-02  -4.11860102E-09
  -2.80000009E-02  -3.35141226E-09
  -2.79500000E-02  -2.57863841E-09
  -2.78999992E-02  -1.99961625E-09
  -2.78500002E-02  -1.71392822E-09
  -2.77999993E-02  -1.67258629E-09
  -2.77500004E-02  -1.69572012E-09
  -2.76999995E-02  -1.55086144E-09
  -2.76500005E-02  -1.05819475E-09
  -2.75999997E-02  -1.75591472E-10
  -2.75500007E-02   9.76132841E-10
  -2.74999999E-02   2.16121432E-09
  -2.74500009E-02   3.13086601E-09
  -2.74000000E-02   3.73444919E-09
  -2.73499992E-02   3.98948208E-09
  -2.73000002E-02   4.07736556E-09
  -2.72499993E-02   4.26449587E-09
  -2.72000004E-02   4.78231099E-09
  -2.71499995E-02   5.71956171E-09
  -2.71000005E-02   6.97609703E-09
  -2.70499997E-02   8.30092173E-09
  -2.70000007E-02   9.39963396E-09
  -2.69499999E-02   1.00645972E-08
  -2.69000009E-02   1.02696314E-08
  -2.68500000E-02   1.01853335E-08
  -2.67999992E-02   1.01058975E-08
  -2.67500002E-02   1.03179421E-08
  -2.66999993E-02   1.09689520E-08
  -2.66500004E-02   1.19946781E-08
  -2.65999995E-02   1.31398865E-08
  -2.65500005E-02   1.40656162E-08
  -2.64999997E-02   1.44968837E-08
  -2.64500007E-02   1.43455026E-08
  -2.63999999E-02   1.37523299E-08
  -2.63500009E-02   1.30280906E-08
  -2.63000000E-02   1.25169519E-08
  -2.62499992E-02   1.24420820E-08
  -2.62000002E-02   1.28018884E-08
  -2.61499994E-02   1.33645797E-08
  -2.61000004E-02   1.37656473E-08
  -2.60499995E-02   1.36671199E-08
  -2.60000005E-02   1.29088802E-08
  -2.59499997E-02   1.15840963E-08
  -2.59000007E-02   1.00033732E-08
  -2.58499999E-02   8.56115356E-09
  -2.58000009E-02   7.56166507E-09
  -2.57500000E-02   7.08137815E-09
  -2.56999992E-02   6.93004631E-09
  -2.56500002E-02   6.72949652E-09
  -2.55999994E-02   6.07802919E-09
  -2.55500004E-02   4.72930095E-09
  -2.54999995E-02   2.70662226E-09
  -2.54500005E-02   3.00804770E-10
  -2.53999997E-02  -2.05042783E-09
  -2.53500007E-02  -3.95089828E-09
  -2.52999999E-02  -5.22000709E-09
  -2.52500009E-02  -5.97482464E-09
  -2.52000000E-02  -6.58152999E-09
  -2.51499992E-02  -7.49509610E-09
  -2.51000002E-02  -9.05580677E-09
  -2.50499994E-02  -1.13311840E-08
  -2.50000004E-02  -1.40742280E-08
  -2.49499995E-02  -1.68192305E-08
  -2.49000005E-02  -1.90766372E-08
  -2.48499997E-02  -2.05435882E-08
  -2.48000007E-02  -2.12379714E-08
  -2.47499999E-02  -2.14950369E-08
  -2.47000009E-02  -2.18242970E-08
  -2.46500000E-02  -2.26861356E-08
  -2.45999992E-02  -2.42845726E-08
  -2.45500002E-02  -2.64678324E-08
  -2.44999994E-02  -2.87829973E-08
  -2.44500004E-02  -3.06643422E-08
  -2.43999995E-02  -3.16760023E-08
  -2.43500005E-02  -3.17039266E-08
  -2.42999997E-02  -3.10116732E-08
  -2.42500007E-02  -3.01317762E-08
  -2.41999999E-02  -2.96355545E-08
  -2.41500009E-02  -2.98793204E-08
  -2.41000000E-02  -3.08378283E-08
  -2.40499992E-02  -3.21014362E-08
  -2.40000002E-02  -3.30431220E-08
  -2.39499994E-02  -3.30866037E-08
  -2.39000004E-02  -3.19604894E-08
  -2.38499995E-02  -2.98259515E-08
  -2.38000005E-02  -2.72182028E-08
  -2.37499997E-02  -2.48215617E-08
  -2.37000007E-02  -2.31722126E-08
  -2.36499999E-02  -2.24172396E-08
  -2.36000009E-02  -2.22377761E-08
  -2.35500000E-02  -2.19762413E-08
  -2.34999992E-02  -2.09183231E-08
  -2.34500002E-02  -1.86100610E-08
  -2.33999994E-02  -1.50706221E-08
  -2.33500004E-02  -1.08029043E-08
  -2.32999995E-02  -6.59059385E-09
  -2.32500006E-02  -3.16352522E-09
  -2.31999997E-02  -8.75530981E-10
  -2.31500007E-02   4.61523569E-10
  -2.30999999E-02   1.50866997E-09
  -2.30500009E-02   3.11722514E-09
  -2.30000000E-02   5.95109162E-09
  -2.29499992E-02   1.01782351E-08
  -2.29000002E-02   1.53699524E-08
  -2.28499994E-02   2.06616484E-08
  -2.28000004E-02   2.51135432E-08
  -2.27499995E-02   2.81179222E-08
  -2.27000006E-02   2.96733234E-08
  -2.26499997E-02   3.03977181E-08
  -2.26000007E-02   3.12659658E-08
  -2.25499999E-02   3.31790773E-08
  -2.25000009E-02   3.65512349E-08
  -2.24500000E-02   4.10999732E-08
  -2.23999992E-02   4.59406415E-08
  -2.23500002E-02   4.99536554E-08
  -2.22999994E-02   5.22706998E-08
  -2.22500004E-02   5.26665680E-08
  -2.21999995E-02   5.16772332E-08
  -2.21500006E-02   5.03811037E-08
  -2.20999997E-02   4.99293975E-08
  -2.20500007E-02   5.10276514E-08
  -2.19999999E-02   5.35997486E-08
  -2.19500009E-02   5.67920964E-08
  -2.19000001E-02   5.93279488E-08
  -2.18499992E-02   6.00644938E-08
  -2.18000002E-02   5.85089843E-08
  -2.17499994E-02   5.50604007E-08
  -2.17000004E-02   5.08583646E-08
  -2.16499995E-02   4.72940656E-08
  -2.16000006E-02   4.53916762E-08
  -2.15499997E-02   4.53346054E-08
  -2.15000007E-02   4.63568277E-08
  -2.14499999E-02   4.70607588E-08
  -2.14000009E-02   4.60322198E-08
  -2.13500001E-02   4.24849098E-08
  -2.12999992E-02   3.66433497E-08
  -2.12500002E-02   2.96827363E-08
  -2.11999994E-02   2.32384174E-08
  -2.11500004E-02   1.86917930E-08
  -2.10999995E-02   1.65484213E-08
  -2.10500006E-02   1.61926543E-08
  -2.09999997E-02   1.61411560E-08
  -2.09500007E-02   1.46955141E-08
  -2.08999999E-02   1.07129479E-08
  -2.08500009E-02   4.15060342E-09
  -2.08000001E-02  -3.87201560E-09
  -2.07499992E-02  -1.15341674E-08
  -2.07000002E-02  -1.71045667E-08
  -2.06499994E-02  -1.97141077E-08
  -2.06000004E-02  -1.97592733E-08
  -2.05499995E-02  -1.87430196E-08
  -2.05000006E-02  -1.86105318E-08
  -2.04499997E-02  -2.08663629E-08
  -2.04000007E-02  -2.58661590E-08
  -2.03499999E-02  -3.26092788E-08
  -2.03000009E-02  -3.91406587E-08
  -2.02500001E-02  -4.33954810E-08
  -2.01999992E-02  -4.41169092E-08
  -2.01500002E-02  -4.14329548E-08
  -2.00999994E-02  -3.68217137E-08
  -2.00500004E-02  -3.24664420E-08
  -1.99999996E-02  -3.02773131E-08
  -1.99500006E-02  -3.10160004E-08
  -1.98999997E-02  -3.39225927E-08
  -1.98500007E-02  -3.70253517E-08
  -1.97999999E-02  -3.80086611E-08
  -1.97500009E-02  -3.52582603E-08
  -1.97000001E-02  -2.86136199E-08
  -1.96499992E-02  -1.94790406E-08
  -1.96000002E-02  -1.02286535E-08
  -1.95499994E-02  -3.15881499E-09
  -1.95000004E-02   5.46914680E-10
  -1.94499996E-02   1.37000600E-09
  -1.94000006E-02   1.26478128E-09
  -1.93499997E-02   2.79297385E-09
  -1.93000007E-02   7.96372035E-09
  -1.92499999E-02   1.72984116E-08
  -1.92000009E-02   2.95486124E-08
  -1.91500001E-02   4.22078337E-08
  -1.90999992E-02   5.26002815E-08
  -1.90500002E-02   5.90643303E-08
  -1.89999994E-02   6.16967739E-08
  -1.89500004E-02   6.23129850E-08
  -1.88999996E-02   6.36266080E-08
  -1.88500006E-02   6.80062726E-08
  -1.87999997E-02   7.63655166E-08
  -1.87500007E-02   8.76913120E-08
  -1.86999999E-02   9.94352973E-08
  -1.86500009E-02   1.08604958E-07
  -1.86000001E-02   1.13072126E-07
  -1.85499992E-02   1.12509092E-07
  -1.85000002E-02   1.08524326E-07
  -1.84499994E-02   1.03924570E-07
  -1.84000004E-02   1.01424547E-07
  -1.83499996E-02   1.02380234E-07
  -1.83000006E-02   1.06118442E-07
  -1.82499997E-02   1.10174582E-07
  -1.82000007E-02   1.11343596E-07
  -1.81499999E-02   1.07077341E-07
  -1.81000009E-02   9.66018803E-08
  -1.80500001E-02   8.12464265E-08
  -1.79999992E-02   6.38240181E-08
  -1.79500002E-02   4.73342290E-08
  -1.78999994E-02   3.35677406E-08
  -1.78500004E-02   2.22437766E-08
  -1.77999996E-02   1.10760991E-08
  -1.77500006E-02  -3.25234661E-09
  -1.76999997E-02  -2.36355877E-08
  -1.76500008E-02  -5.12631857E-08
  -1.75999999E-02  -8.50924167E-08
  -1.75500009E-02  -1.22319108E-07
  -1.75000001E-02  -1.59645467E-07
  -1.74499992E-02  -1.94780284E-07
  -1.74000002E-02  -2.27497182E-07
  -1.73499994E-02  -2.59766551E-07
  -1.73000004E-02  -2.94895699E-07
  -1.72499996E-02  -3.36059230E-07
  -1.72000006E-02  -3.84874454E-07
  -1.71499997E-02  -4.40667691E-07
  -1.71000008E-02  -5.00766930E-07
  -1.70499999E-02  -5.61691934E-07
  -1.70000009E-02  -6.20715241E-07
  -1.69500001E-02  -6.77093169E-07
  -1.68999992E-02  -7.32409603E-07
  -1.68500002E-02  -7.89870171E-07
  -1.67999994E-02  -8.52858648E-07
  -1.67500004E-02  -9.23402808E-07
  -1.66999996E-02  -1.00123862E-06
  -1.66500006E-02  -1.08389713E-06
  -1.65999997E-02  -1.16778017E-06
  -1.65500008E-02  -1.24974520E-06
  -1.64999999E-02  -1.32848641E-06
  -1.64500009E-02  -1.40509349E-06
  -1.64000001E-02  -1.48253969E-06
  -1.63499992E-02  -1.56431440E-06
  -1.63000003E-02  -1.65282142E-06
  -1.62499994E-02  -1.74826675E-06
  -1.62000004E-02  -1.84852877E-06
  -1.61499996E-02  -1.95007874E-06
  -1.61000006E-02  -2.04953267E-06
  -1.60499997E-02  -2.14513670E-06
  -1.60000008E-02  -2.23752841E-06
  -1.59499999E-02  -2.32942671E-06
  -1.59000009E-02  -2.42438045E-06
  -1.58500001E-02  -2.52514383E-06
  -1.57999992E-02  -2.63239508E-06
  -1.57500003E-02  -2.74437957E-06
  -1.56999994E-02  -2.85767032E-06
  -1.56500004E-02  -2.96868006E-06
  -1.55999996E-02  -3.07522555E-06
  -1.55499997E-02  -3.17747072E-06
  -1.54999997E-02  -3.27782095E-06
  -1.54499998E-02  -3.37983852E-06
  -1.53999999E-02  -3.48664798E-06
  -1.53500000E-02  -3.59950855E-06
  -1.53000001E-02  -3.71722922E-06
  -1.52500002E-02  -3.83670977E-06
  -1.52000003E-02  -3.95434881E-06
  -1.51500003E-02  -4.06767504E-06
  -1.51000004E-02  -4.17645469E-06
  -1.50499996E-02  -4.28280600E-06
  -1.49999997E-02  -4.39027735E-06
  -1.49499997E-02  -4.50228254E-06
  -1.48999998E-02  -4.62062371E-06
  -1.48499999E-02  -4.74471062E-06
  -1.48000000E-02  -4.87185662E-06
  -1.47500001E-02  -4.99851603E-06
  -1.47000002E-02  -5.12190127E-06
  -1.46500003E-02  -5.24128791E-06
  -1.46000003E-02  -5.35839808E-06
  -1.45500004E-02  -5.47665468E-06
  -1.44999996E-02  -5.59965974E-06
  -1.44499997E-02  -5.72966337E-06
  -1.43999998E-02  -5.86663600E-06
  -1.43499998E-02  -6.00835392E-06
  -1.42999999E-02  -6.15148065E-06
  -1.42500000E-02  -6.29315718E-06
  -1.42000001E-02  -6.43233534E-06
  -1.41500002E-02  -6.57036435E-06
  -1.41000003E-02  -6.71047155E-06
  -1.40500003E-02  -6.85639179E-06
  -1.40000004E-02  -7.01080307E-06
  -1.39499996E-02  -7.17425746E-06
  -1.38999997E-02  -7.34505556E-06
  -1.38499998E-02  -7.52004053E-06
  -1.37999998E-02  -7.69615508E-06
  -1.37499999E-02  -7.87193494E-06
  -1.37000000E-02  -8.04828142E-06
  -1.36500001E-02  -8.22823495E-06
  -1.36000002E-02  -8.41561541E-06
  -1.35500003E-02  -8.61333683E-06
  -1.35000004E-02  -8.82228414E-06
  -1.34500004E-02  -9.04119588E-06
  -1.33999996E-02  -9.26724988E-06
  -1.33499997E-02  -9.49735477E-06
  -1.32999998E-02  -9.72970429E-06
  -1.32499998E-02  -9.96468316E-06
  -1.31999999E-02  -1.02049762E-05
  -1.31500000E-02  -1.04544442E-05
  -1.31000001E-02  -1.07164278E-05
  -1.30500002E-02  -1.09924113E-05
  -1.30000003E-02  -1.12814178E-05
  -1.29500004E-02  -1.15806297E-05
  -1.29000004E-02  -1.18869048E-05
  -1.28499996E-02  -1.21982766E-05
  -1.27999997E-02  -1.25147253E-05
  -1.27499998E-02  -1.28381698E-05
  -1.26999998E-02  -1.31719235E-05
  -1.26499999E-02  -1.35194286E-05
  -1.26000000E-02  -1.38827390E-05
  -1.25500001E-02  -1.42615090E-05
  -1.25000002E-02  -1.46532375E-05
  -1.24500003E-02  -1.50547376E-05
  -1.24000004E-02  -1.54637419E-05
  -1.23500004E-02  -1.58800831E-05
  -1.22999996E-02  -1.63057848E-05
  -1.22499997E-02  -1.67441503E-05
  -1.21999998E-02  -1.71982902E-05
  -1.21499998E-02  -1.76699268E-05
  -1.20999999E-02  -1.81588675E-05
  -1.20500000E-02  -1.86629568E-05
  -1.20000001E-02  -1.91788931E-05
  -1.19500002E-02  -1.97038480E-05
  -1.19000003E-02  -2.02371393E-05
  -1.18500004E-02  -2.07807152E-05
  -1.18000004E-02  -2.13382536E-05
  -1.17499996E-02  -2.19137673E-05
  -1.16999997E-02  -2.25100302E-05
  -1.16499998E-02  -2.31274826E-05
  -1.15999999E-02  -2.37643762E-05
  -1.15499999E-02  -2.44178264E-05
  -1.15000000E-02  -2.50851754E-05
  -1.14500001E-02  -2.57650572E-05
  -1.14000002E-02  -2.64580467E-05
  -1.13500003E-02  -2.71665795E-05
  -1.13000004E-02  -2.78938005E-05
  -1.12500004E-02  -2.86418581E-05
  -1.11999996E-02  -2.94109304E-05
  -1.11499997E-02  -3.01992477E-05
  -1.10999998E-02  -3.10041687E-05
  -1.10499999E-02  -3.18239545E-05
  -1.09999999E-02  -3.26586596E-05
  -1.09500000E-02  -3.35105033E-05
  -1.09000001E-02  -3.43835782E-05
  -1.08500002E-02  -3.52824864E-05
  -1.08000003E-02  -3.62111605E-05
  -1.07500004E-02  -3.71712231E-05
  -1.07000005E-02  -3.81610298E-05
  -1.06499996E-02  -3.91769245E-05
  -1.05999997E-02  -4.02153564E-05
  -1.05499998E-02  -4.12744012E-05
  -1.04999999E-02  -4.23541569E-05
  -1.04499999E-02  -4.34567191E-05
  -1.04000000E-02  -4.45850492E-05
  -1.03500001E-02  -4.57416681E-05
  -1.03000002E-02  -4.69280967E-05
  -1.02500003E-02  -4.81439893E-05
  -1.02000004E-02  -4.93873049E-05
  -1.01500005E-02  -5.06560755E-05
  -1.00999996E-02  -5.19503847E-05
  -1.00499997E-02  -5.32729828E-05
  -9.99999978E-03  -5.46285592E-05
  -9.94999986E-03  -5.60224253E-05
  -9.89999995E-03  -5.74583573E-05
  -9.85000003E-03  -5.89378869E-05
  -9.80000012E-03  -6.04607958E-05
  -9.75000020E-03  -6.20248466E-05
  -9.70000029E-03  -6.36270488E-05
  -9.65000037E-03  -6.52659946E-05
  -9.60000046E-03  -6.69423971E-05
  -9.54999961E-03  -6.86590647E-05
  -9.49999969E-03  -7.04205086E-05
  -9.44999978E-03  -7.22301920E-05
  -9.39999986E-03  -7.40884425E-05
  -9.34999995E-03  -7.59936593E-05
  -9.30000003E-03  -7.79431430E-05
  -9.25000012E-03  -7.99337286E-05
  -9.20000020E-03  -8.19639608E-05
  -9.15000029E-03  -8.40349021E-05
  -9.10000037E-03  -8.61502267E-05
  -9.05000046E-03  -8.83150788E-05
  -8.99999961E-03  -9.05344423E-05
  -8.94999970E-03  -9.28115041E-05
  -8.89999978E-03  -9.51467882E-05
  -8.84999987E-03  -9.75387447E-05
  -8.79999995E-03  -9.99857803E-05
  -8.75000004E-03  -1.02487626E-04
  -8.70000012E-03  -1.05046085E-04
  -8.65000021E-03  -1.07665270E-04
  -8.60000029E-03  -1.10350746E-04
  -8.55000038E-03  -1.13106988E-04
  -8.50000046E-03  -1.15935189E-04
  -8.44999962E-03  -1.18833501E-04
  -8.39999970E-03  -1.21798636E-04
  -8.34999979E-03  -1.24827406E-04
  -8.29999987E-03  -1.27917374E-04
  -8.24999996E-03  -1.31068242E-04
  -8.20000004E-03  -1.34282614E-04
  -8.15000013E-03  -1.37564988E-04
  -8.10000021E-03  -1.40920092E-04
  -8.05000030E-03  -1.44350357E-04
  -8.00000038E-03  -1.47854458E-04
  -7.95000046E-03  -1.51428671E-04
  -7.89999962E-03  -1.55069967E-04
  -7.84999970E-03  -1.58779338E-04
  -7.79999979E-03  -1.62558485E-04
  -7.74999987E-03  -1.66409940E-04
  -7.69999996E-03  -1.70340252E-04
  -7.65000004E-03  -1.74356872E-04
  -7.60000013E-03  -1.78464601E-04
  -7.55000021E-03  -1.82663687E-04
  -7.49999983E-03  -1.86950027E-04
  -7.44999992E-03  -1.91319748E-04
  -7.40000000E-03  -1.95771543E-04
  -7.35000009E-03  -2.00307739E-04
  -7.30000017E-03  -2.04932847E-04
  -7.24999979E-03  -2.09649705E-04
  -7.19999988E-03  -2.14460830E-04
  -7.14999996E-03  -2.19369249E-04
  -7.10000005E-03  -2.24375559E-04
  -7.05000013E-03  -2.29476558E-04
  -7.00000022E-03  -2.34667677E-04
  -6.94999984E-03  -2.39944915E-04
  -6.89999992E-03  -2.45306495E-04
  -6.85000001E-03  -2.50757555E-04
  -6.80000009E-03  -2.56307889E-04
  -6.75000018E-03  -2.61964393E-04
  -6.69999979E-03  -2.67728843E-04
  -6.64999988E-03  -2.73599260E-04
  -6.59999996E-03  -2.79573142E-04
  -6.55000005E-03  -2.85649439E-04
  -6.50000013E-03  -2.91828968E-04
  -6.45000022E-03  -2.98112369E-04
  -6.39999984E-03  -3.04503250E-04
  -6.34999992E-03  -3.11009237E-04
  -6.30000001E-03  -3.17637896E-04
  -6.25000009E-03  -3.24395514E-04
  -6.20000018E-03  -3.31283838E-04
  -6.14999980E-03  -3.38298007E-04
  -6.09999988E-03  -3.45429551E-04
  -6.04999997E-03  -3.52676376E-04
  -6.00000005E-03  -3.60042759E-04
  -5.95000014E-03  -3.67534609E-04
  -5.90000022E-03  -3.75157659E-04
  -5.84999984E-03  -3.82914499E-04
  -5.79999993E-03  -3.90805624E-04
  -5.75000001E-03  -3.98834265E-04
  -5.70000010E-03  -4.07003041E-04
  -5.65000018E-03  -4.15307266E-04
  -5.59999980E-03  -4.23737220E-04
  -5.54999989E-03  -4.32292727E-04
  -5.49999997E-03  -4.40984732E-04
  -5.45000006E-03  -4.49825311E-04
  -5.40000014E-03  -4.58821771E-04
  -5.35000023E-03  -4.67976643E-04
  -5.29999984E-03  -4.77291178E-04
  -5.24999993E-03  -4.86767298E-04
  -5.20000001E-03  -4.96405060E-04
  -5.15000010E-03  -5.06203447E-04
  -5.10000018E-03  -5.16161963E-04
  -5.04999980E-03  -5.26282820E-04
  -4.99999989E-03  -5.36576903E-04
  -4.94999997E-03  -5.47057833E-04
  -4.90000006E-03  -5.57730440E-04
  -4.85000014E-03  -5.68587915E-04
  -4.80000023E-03  -5.79620770E-04
  -4.74999985E-03  -5.90825337E-04
  -4.69999993E-03  -6.02204644E-04
  -4.65000002E-03  -6.13758690E-04
  -4.60000010E-03  -6.25491142E-04
  -4.55000019E-03  -6.37411431E-04
  -4.49999981E-03  -6.49525493E-04
  -4.44999989E-03  -6.61839615E-04
  -4.39999998E-03  -6.74359559E-04
  -4.35000006E-03  -6.87086431E-04
  -4.30000015E-03  -7.00016972E-04
  -4.25000023E-03  -7.13148154E-04
  -4.19999985E-03  -7.26479397E-04
  -4.14999994E-03  -7.40018499E-04
  -4.10000002E-03  -7.53780128E-04
  -4.05000011E-03  -7.67778838E-04
  -4.00000019E-03  -7.82020914E-04
  -3.94999981E-03  -7.96498905E-04
  -3.89999989E-03  -8.11205769E-04
  -3.84999998E-03  -8.26141913E-04
  -3.80000006E-03  -8.41311703E-04
  -3.74999992E-03  -8.56717117E-04
  -3.70000000E-03  -8.72354547E-04
  -3.65000009E-03  -8.88225739E-04
  -3.59999994E-03  -9.04342742E-04
  -3.55000002E-03  -9.20722610E-04
  -3.50000011E-03  -9.37371631E-04
  -3.44999996E-03  -9.54279734E-04
  -3.40000005E-03  -9.71425150E-04
  -3.34999990E-03  -9.88803804E-04
  -3.29999998E-03  -1.00643607E-03
  -3.25000007E-03  -1.02433888E-03
  -3.19999992E-03  -1.04251388E-03
  -3.15000000E-03  -1.06095476E-03
  -3.10000009E-03  -1.07966759E-03
  -3.04999994E-03  -1.09866785E-03
  -3.00000003E-03  -1.11797394E-03
  -2.95000011E-03  -1.13757269E-03
  -2.89999996E-03  -1.15742744E-03
  -2.85000005E-03  -1.17754156E-03
  -2.79999990E-03  -1.19794463E-03
  -2.74999999E-03  -1.21866469E-03
  -2.70000007E-03  -1.23971235E-03
  -2.64999992E-03  -1.26107840E-03
  -2.60000001E-03  -1.28274190E-03
  -2.55000009E-03  -1.30469725E-03
  -2.49999994E-03  -1.32696819E-03
  -2.45000003E-03  -1.34957023E-03
  -2.40000011E-03  -1.37248007E-03
  -2.34999997E-03  -1.39566872E-03
  -2.30000005E-03  -1.41914270E-03
  -2.24999990E-03  -1.44294230E-03
  -2.19999999E-03  -1.46710500E-03
  -2.15000007E-03  -1.49161811E-03
  -2.09999993E-03  -1.51643879E-03
  -2.05000001E-03  -1.54153840E-03
  -2.00000009E-03  -1.56694255E-03
  -1.94999995E-03  -1.59269792E-03
  -1.90000003E-03  -1.61880779E-03
  -1.85000000E-03  -1.64523663E-03
  -1.79999997E-03  -1.67197979E-03
  -1.75000005E-03  -1.69907731E-03
  -1.70000002E-03  -1.72656530E-03
  -1.64999999E-03  -1.75444956E-03
  -1.59999996E-03  -1.78268331E-03
  -1.55000004E-03  -1.81121088E-03
  -1.50000001E-03  -1.84004183E-03
  -1.44999998E-03  -1.86923391E-03
  -1.39999995E-03  -1.89882808E-03
  -1.35000004E-03  -1.92879466E-03
  -1.30000000E-03  -1.95909617E-03
  -1.24999997E-03  -1.98973552E-03
  -1.20000006E-03  -2.02072645E-03
  -1.15000003E-03  -2.05208687E-03
  -1.09999999E-03  -2.08380958E-03
  -1.04999996E-03  -2.11586710E-03
  -1.00000005E-03  -2.14823382E-03
  -9.50000016E-04  -2.18093721E-03
  -8.99999985E-04  -2.21401872E-03
  -8.50000011E-04  -2.24748952E-03
  -7.99999980E-04  -2.28136359E-03
  -7.50000007E-04  -2.31560506E-03
  -6.99999975E-04  -2.35017063E-03
  -6.50000002E-04  -2.38508801E-03
  -6.00000028E-04  -2.42037745E-03
  -5.49999997E-04  -2.45601940E-03
  -5.00000024E-04  -2.49200710E-03
  -4.49999992E-04  -2.52833520E-03
  -3.99999990E-04  -2.56502279E-03
  -3.49999988E-04  -2.60212761E-03
  -3.00000014E-04  -2.63964105E-03
  -2.50000012E-04  -2.67749280E-03
  -1.99999995E-04  -2.71566282E-03
  -1.50000007E-04  -2.75416137E-03
  -9.99999975E-05  -2.79298145E-03
  -4.99999987E-05  -2.83212797E-03
   0.00000000      -2.87162629E-03
   4.99999987E-05  -2.91151507E-03
   9.99999975E-05  -2.95180129E-03
   1.50000007E-04  -2.99242861E-03
   1.99999995E-04  -3.03334114E-03
   2.50000012E-04  -3.07455682E-03
   3.00000014E-04  -3.11611802E-03
   3.49999988E-04  -3.15801473E-03
   3.99999990E-04  -3.20020597E-03
   4.49999992E-04  -3.24269035E-03
   5.00000024E-04  -3.28551978E-03
   5.49999997E-04  -3.32872989E-03
   6.00000028E-04  -3.37231718E-03
   6.50000002E-04  -3.41624301E-03
   6.99999975E-04  -3.46044032E-03
   7.50000007E-04  -3.50488001E-03
   7.99999980E-04  -3.54960538E-03
   8.50000011E-04  -3.59466975E-03
   8.99999985E-04  -3.64007615E-03
   9.50000016E-04  -3.68578336E-03
   1.00000005E-03  -3.73175857E-03
   1.04999996E-03  -3.77804111E-03
   1.09999999E-03  -3.82468058E-03
   1.15000003E-03  -3.87161551E-03
   1.20000006E-03  -3.91875021E-03
   1.24999997E-03  -3.96609958E-03
   1.30000000E-03  -4.01369063E-03
   1.35000004E-03  -4.06154757E-03
   1.39999995E-03  -4.10973048E-03
   1.44999998E-03  -4.15821979E-03
   1.50000001E-03  -4.20695310E-03
   1.55000004E-03  -4.25589690E-03
   1.59999996E-03  -4.30508098E-03
   1.64999999E-03  -4.35453234E-03
   1.70000002E-03  -4.40423191E-03
   1.75000005E-03  -4.45412053E-03
   1.79999997E-03  -4.50418564E-03
   1.85000000E-03  -4.55450825E-03
   1.90000003E-03  -4.60513169E-03
   1.94999995E-03  -4.65602987E-03
   2.00000009E-03  -4.70715296E-03
   2.05000001E-03  -4.75845626E-03
   2.09999993E-03  -4.80993139E-03
   2.15000007E-03  -4.86155367E-03
   2.19999999E-03  -4.91333194E-03
   2.24999990E-03  -4.96530207E-03
   2.30000005E-03  -5.01746172E-03
   2.34999997E-03  -5.06983465E-03
   2.40000011E-03  -5.12244180E-03
   2.45000003E-03  -5.17522357E-03
   2.49999994E-03  -5.22813154E-03
   2.55000009E-03  -5.28115733E-03
   2.60000001E-03  -5.33432001E-03
   2.64999992E-03  -5.38764056E-03
   2.70000007E-03  -5.44106448E-03
   2.74999999E-03  -5.49459457E-03
   2.79999990E-03  -5.54834725E-03