  -3.99999991E-02   0.00000000    
  -3.99499983E-02   0.00000000    
  -3.99000011E-02   0.00000000    
  -3.98500003E-02   0.00000000    
  -3.97999994E-02   0.00000000    
  -3.97499986E-02   3.13738832E-25
  -3.97000015E-02   2.86425159E-24
  -3.96500006E-02   1.38311487E-23
  -3.95999998E-02   4.67628288E-23
  -3.95499989E-02   1.23650009E-22
  -3.95000018E-02   2.70491746E-22
  -3.94500010E-02   5.03849272E-22
  -3.94000001E-02   8.04824421E-22
  -3.93499993E-02   1.07598123E-21
  -3.92999984E-02   1.07700319E-21
  -3.92500013E-02   3.42581995E-22
  -3.92000005E-02  -1.89242607E-21
  -3.91499996E-02  -6.70361345E-21
  -3.90999988E-02  -1.53463507E-20
  -3.90500017E-02  -2.89346453E-20
  -3.90000008E-02  -4.79803756E-20
  -3.89500000E-02  -7.19923851E-20
  -3.88999991E-02  -9.94452494E-20
  -3.88499983E-02  -1.28383071E-19
  -3.88000011E-02  -1.57657290E-19
  -3.87500003E-02  -1.88374965E-19
  -3.86999995E-02  -2.24769607E-19
  -3.86499986E-02  -2.73680280E-19
  -3.86000015E-02  -3.42313264E-19
  -3.85500006E-02  -4.34879040E-19
  -3.84999998E-02  -5.49646214E-19
  -3.84499989E-02  -6.78345281E-19
  -3.84000018E-02  -8.09216576E-19
  -3.83500010E-02  -9.33304783E-19
  -3.83000001E-02  -1.05148687E-18
  -3.82499993E-02  -1.17831051E-18
  -3.81999984E-02  -1.33912910E-18
  -3.81500013E-02  -1.55964801E-18
  -3.81000005E-02  -1.85101721E-18
  -3.80499996E-02  -2.19713729E-18
  -3.79999988E-02  -2.55167807E-18
  -3.79500017E-02  -2.84922445E-18
  -3.79000008E-02  -3.02860042E-18
  -3.78500000E-02  -3.05944247E-18
  -3.77999991E-02  -2.95915427E-18
  -3.77499983E-02  -2.78933533E-18
  -3.77000012E-02  -2.62896073E-18
  -3.76500003E-02  -2.53305182E-18
  -3.75999995E-02  -2.49491797E-18
  -3.75499986E-02  -2.43186468E-18
  -3.75000015E-02  -2.20606050E-18
  -3.74500006E-02  -1.67642513E-18
  -3.73999998E-02  -7.60819686E-19
  -3.73499990E-02   5.20952198E-19
  -3.73000018E-02   2.04797036E-18
  -3.72500010E-02   3.64935501E-18
  -3.72000001E-02   5.18813884E-18
  -3.71499993E-02   6.64149849E-18
  -3.70999984E-02   8.13773586E-18
  -3.70500013E-02   9.92623187E-18
  -3.70000005E-02   1.22859201E-17
  -3.69499996E-02   1.54077444E-17
  -3.68999988E-02   1.93024714E-17
  -3.68500017E-02   2.37780065E-17
  -3.68000008E-02   2.85016330E-17
  -3.67500000E-02   3.31247289E-17
  -3.66999991E-02   3.74180841E-17
  -3.66499983E-02   4.13593747E-17
  -3.66000012E-02   4.51342863E-17
  -3.65500003E-02   4.90503413E-17
  -3.64999995E-02   5.33999613E-17
  -3.64499986E-02   5.83299842E-17
  -3.64000015E-02   6.37701460E-17
  -3.63500006E-02   6.94464182E-17
  -3.62999998E-02   7.49708332E-17
  -3.62499990E-02   7.99719474E-17
  -3.62000018E-02   8.42203602E-17
  -3.61500010E-02   8.77104668E-17
  -3.61000001E-02   9.06760152E-17
  -3.60499993E-02   9.35332889E-17
  -3.59999985E-02   9.67582478E-17
  -3.59500013E-02   1.00717161E-16
  -3.59000005E-02   1.05488597E-16
  -3.58499996E-02   1.10737673E-16
  -3.57999988E-02   1.15717485E-16
  -3.57500017E-02   1.19455998E-16
  -3.57000008E-02   1.21126876E-16
  -3.56500000E-02   1.20506041E-16
  -3.55999991E-02   1.18324084E-16
  -3.55499983E-02   1.16294461E-16
  -3.55000012E-02   1.16675427E-16
  -3.54500003E-02   1.21413504E-16
  -3.53999995E-02   1.31153523E-16
  -3.53499986E-02   1.44570856E-16
  -3.53000015E-02   1.58466537E-16
  -3.52500007E-02   1.68811165E-16
  -3.51999998E-02   1.72489234E-16
  -3.51499990E-02   1.69061900E-16
  -3.51000018E-02   1.61665754E-16
  -3.50500010E-02   1.56369522E-16
  -3.50000001E-02   1.59922362E-16
  -3.49499993E-02   1.76628895E-16
  -3.48999985E-02   2.05706226E-16
  -3.48500013E-02   2.40548278E-16
  -3.48000005E-02   2.70678749E-16
  -3.47499996E-02   2.85983152E-16
  -3.46999988E-02   2.81569157E-16
  -3.46500017E-02   2.60938611E-16
  -3.46000008E-02   2.35533446E-16
  -3.45500000E-02   2.20162048E-16
  -3.44999991E-02   2.25803922E-16
  -3.44499983E-02   2.52913291E-16
  -3.44000012E-02   2.88698845E-16
  -3.43500003E-02   3.10514099E-16
  -3.42999995E-02   2.94812358E-16
  -3.42499986E-02   2.28213546E-16
  -3.42000015E-02   1.15533388E-16
  -3.41500007E-02  -1.97872538E-17
  -3.40999998E-02  -1.44417926E-16
  -3.40499990E-02  -2.30295421E-16
  -3.40000018E-02  -2.69769723E-16
  -3.39500010E-02  -2.83207742E-16
  -3.39000002E-02  -3.14003266E-16
  -3.38499993E-02  -4.11363430E-16
  -3.37999985E-02  -6.07372228E-16
  -3.37500013E-02  -8.98726733E-16
  -3.37000005E-02  -1.24289020E-15
  -3.36499996E-02  -1.57281450E-15
  -3.35999988E-02  -1.82585533E-15
  -3.35500017E-02  -1.97482619E-15
  -3.35000008E-02  -2.04624398E-15
  -3.34500000E-02  -2.11487800E-15
  -3.33999991E-02  -2.27374136E-15
  -3.33499983E-02  -2.59061046E-15
  -3.33000012E-02  -3.07036314E-15
  -3.32500003E-02  -3.64235983E-15
  -3.31999995E-02  -4.18255552E-15
  -3.31499986E-02  -4.56441534E-15
  -3.31000015E-02  -4.71782401E-15
  -3.30500007E-02  -4.66844072E-15
  -3.29999998E-02  -4.53576826E-15
  -3.29499990E-02  -4.48542486E-15
  -3.29000019E-02  -4.65278671E-15
  -3.28500010E-02  -5.07135143E-15
  -3.28000002E-02  -5.64115515E-15
  -3.27499993E-02  -6.15766737E-15
  -3.26999985E-02  -6.39476544E-15
  -3.26500013E-02  -6.20839194E-15
  -3.26000005E-02  -5.61328057E-15
  -3.25499997E-02  -4.79233835E-15
  -3.24999988E-02  -4.02595183E-15
  -3.24500017E-02  -3.56571775E-15
  -3.24000008E-02  -3.50693663E-15
  -3.23500000E-02  -3.72130627E-15
  -3.22999991E-02  -3.88946433E-15
  -3.22499983E-02  -3.62948959E-15
  -3.22000012E-02  -2.67077344E-15
  -3.21500003E-02  -9.94976251E-16
  -3.20999995E-02   1.12731244E-15
  -3.20499986E-02   3.23349788E-15
  -3.20000015E-02   4.86786193E-15
  -3.19500007E-02   5.79829840E-15
  -3.18999998E-02   6.14896876E-15
  -3.18499990E-02   6.37618239E-15
  -3.18000019E-02   7.08210854E-15
  -3.17500010E-02   8.73808252E-15
  -3.17000002E-02   1.14402218E-14
  -3.16499993E-02   1.48176183E-14
  -3.15999985E-02   1.81529918E-14
  -3.15500014E-02   2.06804483E-14
  -3.15000005E-02   2.19366981E-14
  -3.14499997E-02   2.20040000E-14
  -3.13999988E-02   2.15182554E-14
  -3.13500017E-02   2.14149275E-14
  -3.13000008E-02   2.25074984E-14
  -3.12500000E-02   2.50823193E-14
  -3.11999992E-02   2.87037782E-14
  -3.11500002E-02   3.23426080E-14
  -3.10999993E-02   3.47974348E-14
  -3.10500003E-02   3.52374956E-14
  -3.09999995E-02   3.36207367E-14
  -3.09500005E-02   3.07775656E-14
  -3.08999997E-02   2.80895268E-14
  -3.08500007E-02   2.68778343E-14
  -3.07999998E-02   2.77646558E-14
  -3.07500008E-02   3.03070184E-14
  -3.07000000E-02   3.31012954E-14
  -3.06499992E-02   3.43513365E-14
  -3.06000002E-02   3.26733845E-14
  -3.05499993E-02   2.77788030E-14
  -3.05000003E-02   2.07018037E-14
  -3.04499995E-02   1.34249911E-14
  -3.04000005E-02   8.02709577E-15
  -3.03499997E-02   5.71327789E-15
  -3.03000007E-02   6.17464742E-15
  -3.02499998E-02   7.60641601E-15
  -3.02000009E-02   7.43167819E-15
  -3.01500000E-02   3.44958382E-15
  -3.00999992E-02  -5.09634949E-15
  -3.00500002E-02  -1.70380457E-14
  -2.99999993E-02  -2.96641916E-14
  -2.99500003E-02  -3.98539200E-14
  -2.98999995E-02  -4.54915240E-14
  -2.98500005E-02  -4.65212992E-14
  -2.97999997E-02  -4.51193783E-14
  -2.97500007E-02  -4.48324273E-14
  -2.96999998E-02  -4.90054029E-14
  -2.96500009E-02  -5.91790343E-14
  -2.96000000E-02  -7.42045043E-14
  -2.95499992E-02  -9.05445762E-14
  -2.95000002E-02  -1.03711216E-13
  -2.94499993E-02  -1.10254653E-13
  -2.94000003E-02  -1.09417012E-13
  -2.93499995E-02  -1.03654390E-13
  -2.93000005E-02  -9.77004868E-14
  -2.92499997E-02  -9.65018470E-14
  -2.92000007E-02  -1.02904989E-13
  -2.91499998E-02  -1.16155390E-13
  -2.91000009E-02  -1.31965985E-13
  -2.90500000E-02  -1.44235210E-13
  -2.89999992E-02  -1.47732182E-13
  -2.89500002E-02  -1.40567598E-13
  -2.88999993E-02  -1.25285985E-13
  -2.88500004E-02  -1.07975362E-13
  -2.87999995E-02  -9.56704402E-14
  -2.87500005E-02  -9.31383402E-14
  -2.86999997E-02  -1.00497085E-13
  -2.86500007E-02  -1.12829146E-13
  -2.85999998E-02  -1.22104367E-13
  -2.85500009E-02  -1.20676066E-13
  -2.85000000E-02  -1.04834978E-13
  -2.84499992E-02  -7.67789288E-14
  -2.84000002E-02  -4.39821214E-14
  -2.83499993E-02  -1.60867718E-14
  -2.83000004E-02  -5.95078497E-16
  -2.82499995E-02   7.22347527E-16
  -2.82000005E-02  -7.00547662E-15
  -2.81499997E-02  -1.37000625E-14
  -2.81000007E-02  -8.69827620E-15
  -2.80499998E-02   1.43323328E-14
  -2.80000009E-02   5.41629628E-14
  -2.79500000E-02   1.02053924E-13
  -2.78999992E-02   1.45265974E-13
  -2.78500002E-02   1.72626236E-13
  -2.77999993E-02   1.79709166E-13
  -2.77500004E-02   1.71221801E-13
  -2.76999995E-02   1.59326830E-13
  -2.76500005E-02   1.58432309E-13
  -2.75999997E-02   1.78636240E-13
  -2.75500007E-02   2.20762522E-13
  -2.74999999E-02   2.75364963E-13
  -2.74500009E-02   3.26389604E-13
  -2.74000000E-02   3.58082487E-13
  -2.73499992E-02   3.62156702E-13
  -2.73000002E-02   3.41942728E-13
  -2.72499993E-02   3.11444772E-13
  -2.72000004E-02   2.89448126E-13
  -2.71499995E-02   2.91103323E-13
  -2.71000005E-02   3.20707030E-13
  -2.70499997E-02   3.69057947E-13
  -2.70000007E-02   4.16855244E-13
  -2.69499999E-02   4.42916727E-13
  -2.69000009E-02   4.33718653E-13
  -2.68500000E-02   3.89961040E-13
  -2.67999992E-02   3.26992475E-13
  -2.67500002E-02   2.68568588E-13
  -2.66999993E-02   2.36440126E-13
  -2.66500004E-02   2.40309536E-13
  -2.65999995E-02   2.72766239E-13
  -2.65500005E-02   3.11777974E-13
  -2.64999997E-02   3.29997938E-13
  -2.64500007E-02   3.06993336E-13
  -2.63999999E-02   2.38964800E-13
  -2.63500009E-02   1.41390019E-13
  -2.63000000E-02   4.30205459E-14
  -2.62499992E-02  -2.64743095E-14
  -2.62000002E-02  -4.99069102E-14
  -2.61499994E-02  -3.09592338E-14
  -2.61000004E-02   6.51681950E-15
  -2.60499995E-02   2.84257684E-14
  -2.60000005E-02   5.52397322E-15
  -2.59499997E-02  -7.29302415E-14
  -2.59000007E-02  -1.93255730E-13
  -2.58499999E-02  -3.22232936E-13
  -2.58000009E-02  -4.21104124E-13
  -2.57500000E-02  -4.62770555E-13
  -2.56999992E-02  -4.44526414E-13
  -2.56500002E-02  -3.90328855E-13
  -2.55999994E-02  -3.41069539E-13
  -2.55500004E-02  -3.36692100E-13
  -2.54999995E-02  -3.97887777E-13
  -2.54500005E-02  -5.15659618E-13
  -2.53999997E-02  -6.53866013E-13
  -2.53500007E-02  -7.64203100E-13
  -2.52999999E-02  -8.07415007E-13
  -2.52500009E-02  -7.71405780E-13
  -2.52000000E-02  -6.77896595E-13
  -2.51499992E-02  -5.74078708E-13
  -2.51000002E-02  -5.12350958E-13
  -2.50499994E-02  -5.26772365E-13
  -2.50000004E-02  -6.16745966E-13
  -2.49499995E-02  -7.45653159E-13
  -2.49000005E-02  -8.55740554E-13
  -2.48499997E-02  -8.93258612E-13
  -2.48000007E-02  -8.32942764E-13
  -2.47499999E-02  -6.90731706E-13
  -2.47000009E-02  -5.18442277E-13
  -2.46500000E-02  -3.82002508E-13
  -2.45999992E-02  -3.32351063E-13
  -2.45500002E-02  -3.81832397E-13
  -2.44999994E-02  -4.96999414E-13
  -2.44500004E-02  -6.11799457E-13
  -2.43999995E-02  -6.56083586E-13
  -2.43500005E-02  -5.87232574E-13
  -2.42999997E-02  -4.10751538E-13
  -2.42500007E-02  -1.80051395E-13
  -2.41999999E-02   2.53925773E-14
  -2.41500009E-02   1.34587111E-13
  -2.41000000E-02   1.17234944E-13
  -2.40499992E-02  -1.01438347E-15
  -2.40000002E-02  -1.47882181E-13
  -2.39499994E-02  -2.35193375E-13
  -2.39000004E-02  -1.98077706E-13
  -2.38499995E-02  -2.53252653E-14
  -2.38000005E-02   2.33162637E-13
  -2.37499997E-02   4.86151972E-13
  -2.37000007E-02   6.40315546E-13
  -2.36499999E-02   6.42069731E-13
  -2.36000009E-02   5.03266103E-13
  -2.35500000E-02   2.98491890E-13
  -2.34999992E-02   1.34012674E-13
  -2.34500002E-02   1.01169114E-13
  -2.33999994E-02   2.34570528E-13
  -2.33500004E-02   4.94109528E-13
  -2.32999995E-02   7.79876543E-13
  -2.32500006E-02   9.74613836E-13
  -2.31999997E-02   9.95730083E-13
  -2.31500007E-02   8.33859566E-13
  -2.30999999E-02   5.60067129E-13
  -2.30500009E-02   2.97187540E-13
  -2.30000000E-02   1.66740767E-13
  -2.29499992E-02   2.34318207E-13
  -2.29000002E-02   4.77944398E-13
  -2.28499994E-02   7.94565531E-13
  -2.28000004E-02   1.04327246E-12
  -2.27499995E-02   1.10728516E-12
  -2.27000006E-02   9.47572099E-13
  -2.26499997E-02   6.23661929E-13
  -2.26000007E-02   2.70984868E-13
  -2.25499999E-02   4.32132967E-14
  -2.25000009E-02   4.41348245E-14
  -2.24500000E-02   2.79268389E-13
  -2.23999992E-02   6.49740949E-13
  -2.23500002E-02   9.92828541E-13
  -2.22999994E-02   1.15276235E-12
  -2.22500004E-02   1.05116014E-12
  -2.21999995E-02   7.25423519E-13
  -2.21500006E-02   3.16609830E-13
  -2.20999997E-02   1.02806278E-14
  -2.20500007E-02  -4.49122212E-14
  -2.19999999E-02   1.94810734E-13
  -2.19500009E-02   6.44880362E-13
  -2.19000001E-02   1.12561978E-12
  -2.18499992E-02   1.43941998E-12
  -2.18000002E-02   1.45884672E-12
  -2.17499994E-02   1.18652083E-12
  -2.17000004E-02   7.58814398E-13
  -2.16499995E-02   3.89594579E-13
  -2.16000006E-02   2.77028807E-13
  -2.15499997E-02   5.13915408E-13
  -2.15000007E-02   1.04192588E-12
  -2.14499999E-02   1.67192551E-12
  -2.14000009E-02   2.16368785E-12
  -2.13500001E-02   2.33140287E-12
  -2.12999992E-02   2.12856794E-12
  -2.12500002E-02   1.67340393E-12
  -2.11999994E-02   1.20122705E-12
  -2.11500004E-02   9.62504490E-13
  -2.10999995E-02   1.11038392E-12
  -2.10500006E-02   1.62779664E-12
  -2.09999997E-02   2.32826822E-12
  -2.09500007E-02   2.93271592E-12
  -2.08999999E-02   3.19048195E-12
  -2.08500009E-02   2.99186825E-12
  -2.08000001E-02   2.42137647E-12
  -2.07499992E-02   1.72567744E-12
  -2.07000002E-02   1.20768142E-12
  -2.06499994E-02   1.09164479E-12
  -2.06000004E-02   1.41882556E-12
  -2.05499995E-02   2.02156217E-12
  -2.05000006E-02   2.59013297E-12
  -2.04499997E-02   2.80562010E-12
  -2.04000007E-02   2.48146620E-12
  -2.03499999E-02   1.65054613E-12
  -2.03000009E-02   5.56857620E-13
  -2.02500001E-02  -4.47674937E-13
  -2.01999992E-02  -1.05820452E-12
  -2.01500002E-02  -1.15600335E-12
  -2.00999994E-02  -8.68649499E-13
  -2.00500004E-02  -5.21724807E-13
  -1.99999996E-02  -5.00058599E-13
  -1.99500006E-02  -1.07771561E-12
  -1.98999997E-02  -2.29190603E-12
  -1.98500007E-02  -3.91877546E-12
  -1.97999999E-02  -5.56525702E-12
  -1.97500009E-02  -6.83958272E-12
  -1.97000001E-02  -7.52657658E-12
  -1.96499992E-02  -7.68930579E-12
  -1.96000002E-02  -7.64914521E-12
  -1.95499994E-02  -7.84928979E-12
  -1.95000004E-02  -8.65914285E-12
  -1.94499996E-02  -1.02053357E-11
  -1.94000006E-02  -1.23059427E-11
  -1.93499997E-02  -1.45405814E-11
  -1.93000007E-02  -1.64292607E-11
  -1.92499999E-02  -1.76432237E-11
  -1.92000009E-02  -1.81543305E-11
  -1.91500001E-02  -1.82541707E-11
  -1.90999992E-02  -1.84303198E-11
  -1.90500002E-02  -1.91508268E-11
  -1.89999994E-02  -2.06506375E-11
  -1.89500004E-02  -2.28156938E-11
  -1.88999996E-02  -2.52195712E-11
  -1.88500006E-02  -2.73008352E-11
  -1.87999997E-02  -2.86059752E-11
  -1.87500007E-02  -2.89910596E-11
  -1.86999999E-02  -2.86906870E-11
  -1.86500009E-02  -2.82194164E-11
  -1.86000001E-02  -2.81449516E-11
  -1.85499992E-02  -2.88308231E-11
  -1.85000002E-02  -3.02628790E-11
  -1.84499994E-02  -3.20396869E-11
  -1.84000004E-02  -3.35358685E-11
  -1.83499996E-02  -3.41702534E-11
  -1.83000006E-02  -3.36618684E-11
  -1.82499997E-02  -3.21589665E-11
  -1.82000007E-02  -3.01797823E-11
  -1.81499999E-02  -2.83862673E-11
  -1.81000009E-02  -2.72874258E-11
  -1.80500001E-02  -2.70029710E-11
  -1.79999992E-02  -2.71947187E-11
  -1.79500002E-02  -2.72010661E-11
  -1.78999994E-02  -2.63199948E-11
  -1.78500004E-02  -2.41181762E-11
  -1.77999996E-02  -2.06286984E-11
  -1.77500006E-02  -1.63460946E-11
  -1.76999997E-02  -1.20155223E-11
  -1.76500008E-02  -8.30483512E-12
  -1.75999999E-02  -5.50305808E-12
  -1.75500009E-02  -3.38075835E-12
  -1.75000001E-02  -1.27894928E-12
  -1.74499992E-02   1.60718682E-12
  -1.74000002E-02   5.87143225E-12
  -1.73499994E-02   1.16240411E-11
  -1.73000004E-02   1.84274609E-11
  -1.72499996E-02   2.54742703E-11
  -1.72000006E-02   3.19339659E-11
  -1.71499997E-02   3.73179786E-11
  -1.71000008E-02   4.17003168E-11
  -1.70499999E-02   4.56917039E-11
  -1.70000009E-02   5.01725640E-11
  -1.69500001E-02   5.58980917E-11
  -1.68999992E-02   6.31484864E-11
  -1.68500002E-02   7.15816018E-11
  -1.67999994E-02   8.03586364E-11
  -1.67500004E-02   8.84933585E-11
  -1.66999996E-02   9.52745174E-11
  -1.66500006E-02   1.00574583E-10
  -1.65999997E-02   1.04904460E-10
  -1.65500008E-02   1.09183766E-10
  -1.64999999E-02   1.14322406E-10
  -1.64500009E-02   1.20795707E-10
  -1.64000001E-02   1.28402441E-10
  -1.63499992E-02   1.36317888E-10
  -1.63000003E-02   1.43425133E-10
  -1.62499994E-02   1.48783277E-10
  -1.62000004E-02   1.52026974E-10
  -1.61499996E-02   1.53517643E-10
  -1.61000006E-02   1.54173438E-10
  -1.60499997E-02   1.55046587E-10
  -1.60000008E-02   1.56830673E-10
  -1.59499999E-02   1.59516289E-10
  -1.59000009E-02   1.62351285E-10
  -1.58500001E-02   1.64130473E-10
  -1.57999992E-02   1.63692795E-10
  -1.57500003E-02   1.60408936E-10
  -1.56999994E-02   1.54442362E-10
  -1.56500004E-02   1.46662460E-10
  -1.55999996E-02   1.38241210E-10
  -1.55499997E-02   1.30106384E-10
  -1.54999997E-02   1.22491725E-10
  -1.54499998E-02   1.14786479E-10
  -1.53999999E-02   1.05757555E-10
  -1.53500000E-02   9.40532860E-11
  -1.53000001E-02   7.87703722E-11
  -1.52500002E-02   5.98331593E-11
  -1.52000003E-02   3.80125931E-11
  -1.51500003E-02   1.45692451E-11
  -1.51000004E-02  -9.32836620E-12
  -1.50499996E-02  -3.31557559E-11
  -1.49999997E-02  -5.73086613E-11
  -1.49499997E-02  -8.29749880E-11
  -1.48999998E-02  -1.11651438E-10
  -1.48499999E-02  -1.44512791E-10
  -1.48000000E-02  -1.81911305E-10
  -1.47500001E-02  -2.23231308E-10
  -1.47000002E-02  -2.67170563E-10
  -1.46500003E-02  -3.12331244E-10
  -1.46000003E-02  -3.57863850E-10
  -1.45500004E-02  -4.03878903E-10
  -1.44999996E-02  -4.51438664E-10
  -1.44499997E-02  -5.02125175E-10
  -1.43999998E-02  -5.57368152E-10
  -1.43499998E-02  -6.17827234E-10
  -1.42999999E-02  -6.83103796E-10
  -1.42500000E-02  -7.51916862E-10
  -1.42000001E-02  -8.22672874E-10
  -1.41500002E-02  -8.94183894E-10
  -1.41000003E-02  -9.66217661E-10
  -1.40500003E-02  -1.03963294E-09
  -1.40000004E-02  -1.11603105E-09
  -1.39499996E-02  -1.19707200E-09
  -1.38999997E-02  -1.28375122E-09
  -1.38499998E-02  -1.37595824E-09
  -1.37999998E-02  -1.47251777E-09
  -1.37499999E-02  -1.57170377E-09
  -1.37000000E-02  -1.67200631E-09
  -1.36500001E-02  -1.77281523E-09
  -1.36000002E-02  -1.87471549E-09
  -1.35500003E-02  -1.97925809E-09
  -1.35000004E-02  -2.08829753E-09
  -1.34500004E-02  -2.20318364E-09
  -1.33999996E-02  -2.32416464E-09
  -1.33499997E-02  -2.45026799E-09
  -1.32999998E-02  -2.57972221E-09
  -1.32499998E-02  -2.71073985E-09
  -1.31999999E-02  -2.84231993E-09
  -1.31500000E-02  -2.97471714E-09
  -1.31000001E-02  -3.10936055E-09
  -1.30500002E-02  -3.24825455E-09
  -1.30000003E-02  -3.39311201E-09
  -1.29500004E-02  -3.54460750E-09
  -1.29000004E-02  -3.70207953E-09
  -1.28499996E-02  -3.86382171E-09
  -1.27999997E-02  -4.02784206E-09
  -1.27499998E-02  -4.19276525E-09
  -1.26999998E-02  -4.35847269E-09
  -1.26499999E-02  -4.52620252E-09
  -1.26000000E-02  -4.69804862E-09
  -1.25500001E-02  -4.87607643E-09
  -1.25000002E-02  -5.06143927E-09
  -1.24500003E-02  -5.25389199E-09
  -1.24000004E-02  -5.45191181E-09
  -1.23500004E-02  -5.65339819E-09
  -1.22999996E-02  -5.85663429E-09
  -1.22499997E-02  -6.06110095E-09
  -1.21999998E-02  -6.26776986E-09
  -1.21499998E-02  -6.47874820E-09
  -1.20999999E-02  -6.69641764E-09
  -1.20500000E-02  -6.92244040E-09
  -1.20000001E-02  -7.15707937E-09
  -1.19500002E-02  -7.39912576E-09
  -1.19000003E-02  -7.64648611E-09
  -1.18500004E-02  -7.89716825E-09
  -1.18000004E-02  -8.15024137E-09
  -1.17499996E-02  -8.40634318E-09
  -1.16999997E-02  -8.66750227E-09
  -1.16499998E-02  -8.93635033E-09
  -1.15999999E-02  -9.21505183E-09
  -1.15499999E-02  -9.50443901E-09
  -1.15000000E-02  -9.80372317E-09
  -1.14500001E-02  -1.01109263E-08
  -1.14000002E-02  -1.04238449E-08
  -1.13500003E-02  -1.07411298E-08
  -1.13000004E-02  -1.10630136E-08
  -1.12500004E-02  -1.13913341E-08
  -1.11999996E-02  -1.17288783E-08
  -1.11499997E-02  -1.20782806E-08
  -1.10999998E-02  -1.24409869E-08
  -1.10499999E-02  -1.28167397E-08
  -1.09999999E-02  -1.32038078E-08
  -1.09500000E-02  -1.35998768E-08
  -1.09000001E-02  -1.40032084E-08
  -1.08500002E-02  -1.44135628E-08
  -1.08000003E-02  -1.48324810E-08
  -1.07500004E-02  -1.52627724E-08
  -1.07000005E-02  -1.57074460E-08
  -1.06499996E-02  -1.61685456E-08
  -1.05999997E-02  -1.66463998E-08
  -1.05499998E-02  -1.71396231E-08
  -1.04999999E-02  -1.76458723E-08
  -1.04499999E-02  -1.81630551E-08
  -1.04000000E-02  -1.86904199E-08
  -1.03500001E-02  -1.92290912E-08
  -1.03000002E-02  -1.97817744E-08
  -1.02500003E-02  -2.03517683E-08
  -1.02000004E-02  -2.09416999E-08
  -1.01500005E-02  -2.15525553E-08
  -1.00999996E-02  -2.21834338E-08
  -1.00499997E-02  -2.28321095E-08
  -9.99999978E-03  -2.34962219E-08
  -9.94999986E-03  -2.41745131E-08
  -9.89999995E-03  -2.48676049E-08
  -9.85000003E-03  -2.55779664E-08
  -9.80000012E-03  -2.63090527E-08
  -9.75000020E-03  -2.70640008E-08
  -9.70000029E-03  -2.78444787E-08
  -9.65000037E-03  -2.86501471E-08
  -9.60000046E-03  -2.94790219E-08
  -9.54999961E-03  -3.03285574E-08
  -9.49999969E-03  -3.11970005E-08
  -9.44999978E-03  -3.20844009E-08
  -9.39999986E-03  -3.29928547E-08
  -9.34999995E-03  -3.39258257E-08
  -9.30000003E-03  -3.48869023E-08
  -9.25000012E-03  -3.58784504E-08
  -9.20000020E-03  -3.69008326E-08
  -9.15000029E-03  -3.79524892E-08
  -9.10000037E-03  -3.90308870E-08
  -9.05000046E-03  -4.01338909E-08
  -8.99999961E-03  -4.12610142E-08
  -8.94999970E-03  -4.24139195E-08
  -8.89999978E-03  -4.35960104E-08
  -8.84999987E-03  -4.48112374E-08
  -8.79999995E-03  -4.60626914E-08
  -8.75000004E-03  -4.73515271E-08
  -8.70000012E-03  -4.86767640E-08
  -8.65000021E-03  -5.00360215E-08
  -8.60000029E-03  -5.14269125E-08
  -8.55000038E-03  -5.28483994E-08
  -8.50000046E-03  -5.43016228E-08
  -8.44999962E-03  -5.57897621E-08
  -8.39999970E-03  -5.73170311E-08
  -8.34999979E-03  -5.88871529E-08
  -8.29999987E-03  -6.05021384E-08
  -8.24999996E-03  -6.21617531E-08
  -8.20000004E-03  -6.38640003E-08
  -8.15000013E-03  -6.56063932E-08
  -8.10000021E-03  -6.73874752E-08
  -8.05000030E-03  -6.92078785E-08
  -8.00000038E-03  -7.10705237E-08
  -7.95000046E-03  -7.29797947E-08
  -7.89999962E-03  -7.49400755E-08
  -7.84999970E-03  -7.69543291E-08
  -7.79999979E-03  -7.90232662E-08
  -7.74999987E-03  -8.11455010E-08
  -7.69999996E-03  -8.33186746E-08
  -7.65000004E-03  -8.55410462E-08
  -7.60000013E-03  -8.78127437E-08
  -7.55000021E-03  -9.01363251E-08
  -7.49999983E-03  -9.25162027E-08
  -7.44999992E-03  -9.49572936E-08
  -7.40000000E-03  -9.74634560E-08
  -7.35000009E-03  -1.00036388E-07
  -7.30000017E-03  -1.02675479E-07
  -7.24999979E-03  -1.05378696E-07
  -7.19999988E-03  -1.08144071E-07
  -7.14999996E-03  -1.10971307E-07
  -7.10000005E-03  -1.13862498E-07
  -7.05000013E-03  -1.16821965E-07
  -7.00000022E-03  -1.19855073E-07
  -6.94999984E-03  -1.22966597E-07
  -6.89999992E-03  -1.26159307E-07
  -6.85000001E-03  -1.29433587E-07
  -6.80000009E-03  -1.32787932E-07
  -6.75000018E-03  -1.36220450E-07
  -6.69999979E-03  -1.39730460E-07
  -6.64999988E-03  -1.43319625E-07
  -6.59999996E-03  -1.46992093E-07
  -6.55000005E-03  -1.50753507E-07
  -6.50000013E-03  -1.54609396E-07
  -6.45000022E-03  -1.58563665E-07
  -6.39999984E-03  -1.62617781E-07
  -6.34999992E-03  -1.66770974E-07
  -6.30000001E-03  -1.71021526E-07
  -6.25000009E-03  -1.75368470E-07
  -6.20000018E-03  -1.79812957E-07
  -6.14999980E-03  -1.84358740E-07
  -6.09999988E-03  -1.89011558E-07
  -6.04999997E-03  -1.93777595E-07
  -6.00000005E-03  -1.98661823E-07
  -5.95000014E-03  -2.03666843E-07
  -5.90000022E-03  -2.08792784E-07
  -5.84999984E-03  -2.14038337E-07
  -5.79999993E-03  -2.19402324E-07
  -5.75000001E-03  -2.24885468E-07
  -5.70000010E-03  -2.30491096E-07
  -5.65000018E-03  -2.36224878E-07
  -5.59999980E-03  -2.42093506E-07
  -5.54999989E-03  -2.48102992E-07
  -5.49999997E-03  -2.54257145E-07
  -5.45000006E-03  -2.60557158E-07
  -5.40000014E-03  -2.67002378E-07
  -5.35000023E-03  -2.73591667E-07
  -5.29999984E-03  -2.80325338E-07
  -5.24999993E-03  -2.87206149E-07
  -5.20000001E-03  -2.94239612E-07
  -5.15000010E-03  -3.01432635E-07
  -5.10000018E-03  -3.08792153E-07
  -5.04999980E-03  -3.16323110E-07
  -4.99999989E-03  -3.24027980E-07
  -4.94999997E-03  -3.31906762E-07
  -4.90000006E-03  -3.39958575E-07
  -4.85000014E-03  -3.48183363E-07
  -4.80000023E-03  -3.56583428E-07
  -4.74999985E-03  -3.65163913E-07
  -4.69999993E-03  -3.73931897E-07
  -4.65000002E-03  -3.82894996E-07
  -4.60000010E-03  -3.92059519E-07
  -4.55000019E-03  -4.01429105E-07
  -4.49999981E-03  -4.11004919E-07
  -4.44999989E-03  -4.20786506E-07
  -4.39999998E-03  -4.30773753E-07
  -4.35000006E-03  -4.40968535E-07
  -4.30000015E-03  -4.51375513E-07
  -4.25000023E-03  -4.62001879E-07
  -4.19999985E-03  -4.72855817E-07
  -4.14999994E-03  -4.83944802E-07
  -4.10000002E-03  -4.95273923E-07
  -4.05000011E-03  -5.06845424E-07
  -4.00000019E-03  -5.18659647E-07
  -3.94999981E-03  -5.30716477E-07
  -3.89999989E-03  -5.43017450E-07
  -3.84999998E-03  -5.55566714E-07
  -3.80000006E-03  -5.68371377E-07
  -3.74999992E-03  -5.81440077E-07
  -3.70000000E-03  -5.94781397E-07
  -3.65000009E-03  -6.08401706E-07
  -3.59999994E-03  -6.22304754E-07
  -3.55000002E-03  -6.36491734E-07
  -3.50000011E-03  -6.50962988E-07
  -3.44999996E-03  -6.65719767E-07
  -3.40000005E-03  -6.80765822E-07
  -3.34999990E-03  -6.96108145E-07
  -3.29999998E-03  -7.11755661E-07
  -3.25000007E-03  -7.27717804E-07
  -3.19999992E-03  -7.44002705E-07
  -3.15000000E-03  -7.60615478E-07
  -3.10000009E-03  -7.77558512E-07
  -3.04999994E-03  -7.94832772E-07
  -3.00000003E-03  -8.12439509E-07
  -2.95000011E-03  -8.30382078E-07
  -2.89999996E-03  -8.48667071E-07
  -2.85000005E-03  -8.67303640E-07
  -2.79999990E-03  -8.86302075E-07
  -2.74999999E-03  -9.05671698E-07
  -2.70000007E-03  -9.25419386E-07
  -2.64999992E-03  -9.45548891E-07
  -2.60000001E-03  -9.66061748E-07
  -2.55000009E-03  -9.86959321E-07
  -2.49999994E-03  -1.00824468E-06
  -2.45000003E-03  -1.02992396E-06
  -2.40000011E-03  -1.05200650E-06
  -2.34999997E-03  -1.07450307E-06
  -2.30000005E-03  -1.09742439E-06
  -2.24999990E-03  -1.12077885E-06
  -2.19999999E-03  -1.14457168E-06
  -2.15000007E-03  -1.16880551E-06
  -2.09999993E-03  -1.19348203E-06
  -2.05000001E-03  -1.21860398E-06
  -2.00000009E-03  -1.24417727E-06
  -1.94999995E-03  -1.27021087E-06
  -1.90000003E-03  -1.29671628E-06
  -1.85000000E-03  -1.32370508E-06
  -1.79999997E-03  -1.35118694E-06
  -1.75000005E-03  -1.37916879E-06
  -1.70000002E-03  -1.40765451E-06
  -1.64999999E-03  -1.43664624E-06
  -1.59999996E-03  -1.46614673E-06
  -1.55000004E-03  -1.49616108E-06
  -1.50000001E-03  -1.52669804E-06
  -1.44999998E-03  -1.55776888E-06
  -1.39999995E-03  -1.58938610E-06
  -1.35000004E-03  -1.62156084E-06
  -1.30000000E-03  -1.65430163E-06
  -1.24999997E-03  -1.68761346E-06
  -1.20000006E-03  -1.72149885E-06
  -1.15000003E-03  -1.75596074E-06
  -1.09999999E-03  -1.79100391E-06
  -1.04999996E-03  -1.82663621E-06
  -1.00000005E-03  -1.86286888E-06
  -9.50000016E-04  -1.89971536E-06
  -8.99999985E-04  -1.93718802E-06
  -8.50000011E-04  -1.97529653E-06
  -7.99999980E-04  -2.01404714E-06
  -7.50000007E-04  -2.05344350E-06
  -6.99999975E-04  -2.09348809E-06
  -6.50000002E-04  -2.13418502E-06
  -6.00000028E-04  -2.17554157E-06
  -5.49999997E-04  -2.21756909E-06
  -5.00000024E-04  -2.26028033E-06
  -4.49999992E-04  -2.30368892E-06
  -3.99999990E-04  -2.34780646E-06
  -3.49999988E-04  -2.39264023E-06
  -3.00000014E-04  -2.43819409E-06
  -2.50000012E-04  -2.48447077E-06
  -1.99999995E-04  -2.53147368E-06
  -1.50000007E-04  -2.57920919E-06
  -9.99999975E-05  -2.62768754E-06
  -4.99999987E-05  -2.67692280E-06
   0.00000000      -2.72692841E-06
   4.99999987E-05  -2.77771665E-06
   9.99999975E-05  -2.82929659E-06
   1.50000007E-04  -2.88167303E-06
   1.99999995E-04  -2.93484868E-06
   2.50000012E-04  -2.98882583E-06
   3.00000014E-04  -3.04361060E-06
   3.49999988E-04  -3.09921211E-06
   3.99999990E-04  -3.15564330E-06
   4.49999992E-04  -3.21291805E-06
   5.00000024E-04  -3.27105022E-06
   5.49999997E-04  -3.33004914E-06
   6.00000028E-04  -3.38992072E-06
   6.50000002E-04  -3.45066746E-06
   6.99999975E-04  -3.51229210E-06
   7.50000007E-04  -3.57479826E-06
   7.99999980E-04  -3.63819390E-06
   8.50000011E-04  -3.70249086E-06
   8.99999985E-04  -3.76770390E-06
   9.50000016E-04  -3.83384622E-06
   1.00000005E-03  -3.90092828E-06
   1.04999996E-03  -3.96895666E-06
   1.09999999E-03  -4.03793501E-06
   1.15000003E-03  -4.10786333E-06
   1.20000006E-03  -4.17874480E-06
   1.24999997E-03  -4.25058533E-06
   1.30000000E-03  -4.32339584E-06
   1.35000004E-03  -4.39718906E-06
   1.39999995E-03  -4.47198045E-06
   1.44999998E-03  -4.54778046E-06
   1.50000001E-03  -4.62459684E-06
   1.55000004E-03  -4.70243140E-06
   1.59999996E-03  -4.78128413E-06
   1.64999999E-03  -4.86115641E-06
   1.70000002E-03  -4.94205187E-06
   1.75000005E-03  -5.02397961E-06
   1.79999997E-03  -5.10695190E-06
   1.85000000E-03  -5.19098194E-06
   1.90000003E-03  -5.27608199E-06
   1.94999995E-03  -5.36225843E-06
   2.00000009E-03  -5.44951354E-06
   2.05000001E-03  -5.53784685E-06
   2.09999993E-03  -5.62725654E-06
   2.15000007E-03  -5.71774399E-06
   2.19999999E-03  -5.80931692E-06
   2.24999990E-03  -5.90198488E-06
   2.30000005E-03  -5.99575969E-06
   2.34999997E-03  -6.09065273E-06
   2.40000011E-03  -6.18667127E-06
   2.45000003E-03  -6.28381667E-06
   2.49999994E-03  -6.38208667E-06
   2.55000009E-03  -6.48147716E-06
   2.60000001E-03  -6.58198815E-06
   2.64999992E-03  -6.68362327E-06
   2.70000007E-03  -6.78638935E-06
   2.74999999E-03  -6.89029821E-06
   2.79999990E-03  -6.99535940E-06