  -3.99999991E-02   0.00000000    
  -3.99499983E-02   0.00000000    
  -3.99000011E-02   0.00000000    
  -3.98500003E-02   0.00000000    
  -3.97999994E-02  -9.03035789E-20
  -3.97499986E-02  -8.05147261E-19
  -3.97000015E-02  -3.64948612E-18
  -3.96500006E-02  -1.10854320E-17
  -3.95999998E-02  -2.48390211E-17
  -3.95499989E-02  -4.19583660E-17
  -3.95000018E-02  -4.98835669E-17
  -3.94500010E-02  -2.39838537E-17
  -3.94000001E-02   6.82759510E-17
  -3.93499993E-02   2.54797251E-16
  -3.92999984E-02   5.41600543E-16
  -3.92500013E-02   9.00196335E-16
  -3.92000005E-02   1.27048695E-15
  -3.91499996E-02   1.58444120E-15
  -3.90999988E-02   1.80391908E-15
  -3.90500017E-02   1.95423058E-15
  -3.90000008E-02   2.13177356E-15
  -3.89500000E-02   2.47431538E-15
  -3.88999991E-02   3.10267766E-15
  -3.88499983E-02   4.06142557E-15
  -3.88000011E-02   5.29118231E-15
  -3.87500003E-02   6.65124829E-15
  -3.86999995E-02   7.98479240E-15
  -3.86499986E-02   9.19464259E-15
  -3.86000015E-02   1.02898664E-14
  -3.85500006E-02   1.13773753E-14
  -3.84999998E-02   1.26021037E-14
  -3.84499989E-02   1.40680729E-14
  -3.84000018E-02   1.57833324E-14
  -3.83500010E-02   1.76556174E-14
  -3.83000001E-02   1.95298540E-14
  -3.82499993E-02   2.12268540E-14
  -3.81999984E-02   2.25405513E-14
  -3.81500013E-02   2.31875930E-14
  -3.81000005E-02   2.27564244E-14
  -3.80499996E-02   2.07318988E-14
  -3.79999988E-02   1.66422967E-14
  -3.79500017E-02   1.02930173E-14
  -3.79000008E-02   1.96139945E-15
  -3.78500000E-02  -7.60512005E-15
  -3.77999991E-02  -1.74798361E-14
  -3.77499983E-02  -2.70790165E-14
  -3.77000012E-02  -3.66925525E-14
  -3.76500003E-02  -4.77152328E-14
  -3.75999995E-02  -6.23425397E-14
  -3.75499986E-02  -8.27300942E-14
  -3.75000015E-02  -1.09925774E-13
  -3.74500006E-02  -1.43106122E-13
  -3.73999998E-02  -1.79624409E-13
  -3.73499990E-02  -2.16052450E-13
  -3.73000018E-02  -2.49887161E-13
  -3.72500010E-02  -2.81150347E-13
  -3.72000001E-02  -3.13001144E-13
  -3.71499993E-02  -3.50828307E-13
  -3.70999984E-02  -3.99983567E-13
  -3.70500013E-02  -4.63046160E-13
  -3.70000005E-02  -5.37901700E-13
  -3.69499996E-02  -6.17722724E-13
  -3.68999988E-02  -6.93166986E-13
  -3.68500017E-02  -7.56063127E-13
  -3.68000008E-02  -8.03018947E-13
  -3.67500000E-02  -8.37219888E-13
  -3.66999991E-02  -8.67358919E-13
  -3.66499983E-02  -9.03909976E-13
  -3.66000012E-02  -9.54240376E-13
  -3.65500003E-02  -1.01872167E-12
  -3.64999995E-02  -1.08967447E-12
  -3.64499986E-02  -1.15378182E-12
  -3.64000015E-02  -1.19708692E-12
  -3.63500006E-02  -1.21053243E-12
  -3.62999998E-02  -1.19371722E-12
  -3.62499990E-02  -1.15525016E-12
  -3.62000018E-02  -1.10945942E-12
  -3.61500010E-02  -1.07066016E-12
  -3.61000001E-02  -1.04710609E-12
  -3.60499993E-02  -1.03682677E-12
  -3.59999985E-02  -1.02686295E-12
  -3.59500013E-02  -9.96309589E-13
  -3.59000005E-02  -9.22468915E-13
  -3.58499996E-02  -7.88583337E-13
  -3.57999988E-02  -5.91027119E-13
  -3.57500017E-02  -3.43512924E-13
  -3.57000008E-02  -7.59991706E-14
  -3.56500000E-02   1.73041079E-13
  -3.55999991E-02   3.70240595E-13
  -3.55499983E-02   5.03220566E-13
  -3.55000012E-02   5.92493231E-13
  -3.54500003E-02   6.92454069E-13
  -3.53999995E-02   8.77099012E-13
  -3.53499986E-02   1.21195957E-12
  -3.53000015E-02   1.72117583E-12
  -3.52500007E-02   2.36419326E-12
  -3.51999998E-02   3.03656709E-12
  -3.51499990E-02   3.60181004E-12
  -3.51000018E-02   3.94758922E-12
  -3.50500010E-02   4.04518953E-12
  -3.50000001E-02   3.98350623E-12
  -3.49499993E-02   3.95397430E-12
  -3.48999985E-02   4.18162033E-12
  -3.48500013E-02   4.82361026E-12
  -3.48000005E-02   5.87841364E-12
  -3.47499996E-02   7.15355249E-12
  -3.46999988E-02   8.32123519E-12
  -3.46500017E-02   9.05321391E-12
  -3.46000008E-02   9.18400078E-12
  -3.45500000E-02   8.82615422E-12
  -3.44999991E-02   8.36935209E-12
  -3.44499983E-02   8.33963107E-12
  -3.44000012E-02   9.16126376E-12
  -3.43500003E-02   1.09217314E-11
  -3.42999995E-02   1.32587535E-11
  -3.42499986E-02   1.54499798E-11
  -3.42000015E-02   1.66991924E-11
  -3.41500007E-02   1.65128449E-11
  -3.40999998E-02   1.49955031E-11
  -3.40499990E-02   1.29020440E-11
  -3.40000018E-02   1.13769463E-11
  -3.39500010E-02   1.14550877E-11
  -3.39000002E-02   1.35303903E-11
  -3.38499993E-02   1.70503629E-11
  -3.37999985E-02   2.06257910E-11
  -3.37500013E-02   2.25701628E-11
  -3.37000005E-02   2.16723809E-11
  -3.36499996E-02   1.78587110E-11
  -3.35999988E-02   1.23997496E-11
  -3.35500017E-02   7.48903890E-12
  -3.35000008E-02   5.30341092E-12
  -3.34500000E-02   6.92790573E-12
  -3.33999991E-02   1.16528254E-11
  -3.33499983E-02   1.70433979E-11
  -3.33000012E-02   1.98620478E-11
  -3.32500003E-02   1.75163339E-11
  -3.31999995E-02   9.40062177E-12
  -3.31499986E-02  -2.53824305E-12
  -3.31000015E-02  -1.43953625E-11
  -3.30500007E-02  -2.19325235E-11
  -3.29999998E-02  -2.25823960E-11
  -3.29499990E-02  -1.69082769E-11
  -3.29000019E-02  -8.73758618E-12
  -3.28500010E-02  -3.73044781E-12
  -3.28000002E-02  -6.87555698E-12
  -3.27499993E-02  -1.99909325E-11
  -3.26999985E-02  -4.04424653E-11
  -3.26500013E-02  -6.18549795E-11
  -3.26000005E-02  -7.67199845E-11
  -3.25499997E-02  -7.98718175E-11
  -3.24999988E-02  -7.12559595E-11
  -3.24500017E-02  -5.65637849E-11
  -3.24000008E-02  -4.51690491E-11
  -3.23500000E-02  -4.60390198E-11
  -3.22999991E-02  -6.33524691E-11
  -3.22499983E-02  -9.39018516E-11
  -3.22000012E-02  -1.27738126E-10
  -3.21500003E-02  -1.52120982E-10
  -3.20999995E-02  -1.57252378E-10
  -3.20499986E-02  -1.41240436E-10
  -3.20000015E-02  -1.11825847E-10
  -3.19500007E-02  -8.36852809E-11
  -3.18999998E-02  -7.21214130E-11
  -3.18499990E-02  -8.57721255E-11
  -3.18000019E-02  -1.21725949E-10
  -3.17500010E-02  -1.65640071E-10
  -3.17000002E-02  -1.97334996E-10
  -3.16499993E-02  -1.99767050E-10
  -3.15999985E-02  -1.67444864E-10
  -3.15500014E-02  -1.10214733E-10
  -3.15000005E-02  -5.01352466E-11
  -3.14499997E-02  -1.22293555E-11
  -3.13999988E-02  -1.29029504E-11
  -3.13500017E-02  -5.13087003E-11
  -3.13000008E-02  -1.08052449E-10
  -3.12500000E-02  -1.52573398E-10
  -3.11999992E-02  -1.56530774E-10
  -3.11500002E-02  -1.07416721E-10
  -3.10999993E-02  -1.59572078E-11
  -3.10500003E-02   8.67942593E-11
  -3.09999995E-02   1.62252878E-10
  -3.09500005E-02   1.81838392E-10
  -3.08999997E-02   1.41377493E-10
  -3.08500007E-02   6.52650572E-11
  -3.07999998E-02  -2.51401894E-12
  -3.07500008E-02  -1.74369408E-11
  -3.07000000E-02   4.45411867E-11
  -3.06499992E-02   1.73767153E-10
  -3.06000002E-02   3.28397143E-10
  -3.05499993E-02   4.51208737E-10
  -3.05000003E-02   4.95112396E-10
  -3.04499995E-02   4.46081311E-10
  -3.04000005E-02   3.32472355E-10
  -3.03499997E-02   2.15194848E-10
  -3.03000007E-02   1.61746366E-10
  -3.02499998E-02   2.14988180E-10
  -3.02000009E-02   3.70910080E-10
  -3.01500000E-02   5.76574233E-10
  -3.00999992E-02   7.50847162E-10
  -3.00500002E-02   8.20023938E-10
  -2.99999993E-02   7.52816143E-10
  -2.99500003E-02   5.78236070E-10
  -2.98999995E-02   3.76637666E-10
  -2.98500005E-02   2.46006382E-10
  -2.97999997E-02   2.57366600E-10
  -2.97500007E-02   4.19348944E-10
  -2.96999998E-02   6.69211520E-10
  -2.96500009E-02   8.96537011E-10
  -2.96000000E-02   9.91002502E-10
  -2.95499992E-02   8.93707885E-10
  -2.95000002E-02   6.28352814E-10
  -2.94499993E-02   2.96218050E-10
  -2.94000003E-02   3.46344203E-11
  -2.93499995E-02  -4.43453017E-11
  -2.93000005E-02   9.20913207E-11
  -2.92499997E-02   3.76598586E-10
  -2.92000007E-02   6.65896838E-10
  -2.91499998E-02   8.02048428E-10
  -2.91000009E-02   6.84858115E-10
  -2.90500000E-02   3.22477156E-10
  -2.89999992E-02  -1.64845165E-10
  -2.89500002E-02  -5.92836225E-10
  -2.88999993E-02  -7.94301458E-10
  -2.88500004E-02  -6.97814306E-10
  -2.87999995E-02  -3.67278707E-10
  -2.87500005E-02   1.86359175E-11
  -2.86999997E-02   2.41661885E-10
  -2.86500007E-02   1.42461293E-10
  -2.85999998E-02  -3.01621422E-10
  -2.85500009E-02  -9.56970281E-10
  -2.85000000E-02  -1.58512259E-09
  -2.84499992E-02  -1.94597249E-09
  -2.84000002E-02  -1.90830263E-09
  -2.83499993E-02  -1.51696744E-09
  -2.83000004E-02  -9.82917414E-10
  -2.82499995E-02  -5.95828720E-10
  -2.82000005E-02  -5.94890137E-10
  -2.81499997E-02  -1.05484799E-09
  -2.81000007E-02  -1.84088411E-09
  -2.80499998E-02  -2.65738298E-09
  -2.80000009E-02  -3.17381299E-09
  -2.79500000E-02  -3.17433768E-09
  -2.78999992E-02  -2.66361178E-09
  -2.78500002E-02  -1.87738269E-09
  -2.77999993E-02  -1.18735632E-09
  -2.77500004E-02  -9.37885436E-10
  -2.76999995E-02  -1.28565314E-09
  -2.76500005E-02  -2.11629114E-09
  -2.75999997E-02  -3.08073611E-09
  -2.75500007E-02  -3.74150755E-09
  -2.74999999E-02  -3.76796150E-09
  -2.74500009E-02  -3.09359782E-09
  -2.74000000E-02  -1.96104044E-09
  -2.73499992E-02  -8.27725000E-10
  -2.73000002E-02  -1.67817496E-10
  -2.72499993E-02  -2.55501731E-10
  -2.72000004E-02  -1.02802666E-09
  -2.71499995E-02  -2.09571138E-09
  -2.71000005E-02  -2.90236701E-09
  -2.70499997E-02  -2.97081404E-09
  -2.70000007E-02  -2.12563056E-09
  -2.69499999E-02  -5.89902571E-10
  -2.69000009E-02   1.09506704E-09
  -2.68500000E-02   2.29977748E-09
  -2.67999992E-02   2.58898769E-09
  -2.67500002E-02   1.93021554E-09
  -2.66999993E-02   7.29086569E-10
  -2.66500004E-02  -3.33642280E-10
  -2.65999995E-02  -5.99203742E-10
  -2.65500005E-02   2.66696110E-10
  -2.64999997E-02   2.10386419E-09
  -2.64500007E-02   4.30445768E-09
  -2.63999999E-02   6.06631501E-09
  -2.63500009E-02   6.74766154E-09
  -2.63000000E-02   6.16652196E-09
  -2.62499992E-02   4.70556216E-09
  -2.62000002E-02   3.16485194E-09
  -2.61499994E-02   2.41710807E-09
  -2.61000004E-02   3.01269032E-09
  -2.60499995E-02   4.91175456E-09
  -2.60000005E-02   7.47173878E-09
  -2.59499997E-02   9.70834968E-09
  -2.59000007E-02   1.07246168E-08
  -2.58499999E-02   1.01210054E-08
  -2.58000009E-02   8.19922086E-09
  -2.57500000E-02   5.85719828E-09
  -2.56999992E-02   4.20830482E-09
  -2.56500002E-02   4.08469303E-09
  -2.55999994E-02   5.64495428E-09
  -2.55500004E-02   8.26917734E-09
  -2.54999995E-02   1.08025420E-08
  -2.54500005E-02   1.20531398E-08
  -2.53999997E-02   1.13299405E-08
  -2.53500007E-02   8.77864093E-09
  -2.52999999E-02   5.35373568E-09
  -2.52500009E-02   2.42272691E-09
  -2.52000000E-02   1.16507537E-09
  -2.51499992E-02   2.02902517E-09
  -2.51000002E-02   4.49512960E-09
  -2.50499994E-02   7.26757277E-09
  -2.50000004E-02   8.82592843E-09
  -2.49499995E-02   8.10370526E-09
  -2.49000005E-02   4.99205344E-09
  -2.48499997E-02   4.32768960E-10
  -2.48000007E-02  -3.95978317E-09
  -2.47499999E-02  -6.59763710E-09
  -2.47000009E-02  -6.63693767E-09
  -2.46500000E-02  -4.39049863E-09
  -2.45999992E-02  -1.23513877E-09
  -2.45500002E-02   9.66425717E-10
  -2.44999994E-02   6.88876234E-10
  -2.44500004E-02  -2.54884003E-09
  -2.43999995E-02  -7.91773136E-09
  -2.43500005E-02  -1.35933522E-08
  -2.42999997E-02  -1.75336758E-08
  -2.42500007E-02  -1.83886968E-08
  -2.41999999E-02  -1.61364557E-08
  -2.41500009E-02  -1.21464758E-08
  -2.41000000E-02  -8.61752714E-09
  -2.40499992E-02  -7.61706076E-09
  -2.40000002E-02  -1.01391802E-08
  -2.39499994E-02  -1.56072630E-08
  -2.39000004E-02  -2.20645191E-08
  -2.38499995E-02  -2.69953038E-08
  -2.38000005E-02  -2.84329431E-08
  -2.37499997E-02  -2.58659938E-08
  -2.37000007E-02  -2.05256647E-08
  -2.36499999E-02  -1.48990313E-08
  -2.36000009E-02  -1.16556818E-08
  -2.35500000E-02  -1.24478987E-08
  -2.34999992E-02  -1.71204686E-08
  -2.34500002E-02  -2.37033895E-08
  -2.33999994E-02  -2.92228766E-08
  -2.33500004E-02  -3.09983257E-08
  -2.32999995E-02  -2.78601995E-08
  -2.32500006E-02  -2.07364952E-08
  -2.31999997E-02  -1.23179023E-08
  -2.31500007E-02  -5.91545346E-09
  -2.30999999E-02  -3.99327105E-09
  -2.30500009E-02  -7.02476832E-09
  -2.30000000E-02  -1.32008324E-08
  -2.29499992E-02  -1.91554523E-08
  -2.29000002E-02  -2.14221352E-08
  -2.28499994E-02  -1.79936297E-08
  -2.28000004E-02  -9.28617538E-09
  -2.27499995E-02   1.94975214E-09
  -2.27000006E-02   1.17733121E-08
  -2.26499997E-02   1.67776300E-08
  -2.26000007E-02   1.56403477E-08
  -2.25499999E-02   9.79493731E-09
  -2.25000009E-02   2.88626256E-09
  -2.24500000E-02  -7.91424370E-10
  -2.23999992E-02   1.79040438E-09
  -2.23500002E-02   1.09753850E-08
  -2.22999994E-02   2.41572593E-08
  -2.22500004E-02   3.68325104E-08
  -2.21999995E-02   4.45467272E-08
  -2.21500006E-02   4.48919835E-08
  -2.20999997E-02   3.86577454E-08
  -2.20500007E-02   2.95852072E-08
  -2.19999999E-02   2.27834249E-08
  -2.19500009E-02   2.24704753E-08
  -2.19000001E-02   3.00317353E-08
  -2.18499992E-02   4.32815028E-08
  -2.18000002E-02   5.73049199E-08
  -2.17499994E-02   6.65594868E-08
  -2.17000004E-02   6.73363019E-08
  -2.16499995E-02   5.94861227E-08
  -2.16000006E-02   4.66063739E-08
  -2.15499997E-02   3.45490747E-08
  -2.15000007E-02   2.88606543E-08
  -2.14499999E-02   3.22676641E-08
  -2.14000009E-02   4.33419380E-08
  -2.13500001E-02   5.69882701E-08
  -2.12999992E-02   6.66000943E-08
  -2.12500002E-02   6.69721913E-08
  -2.11999994E-02   5.66862468E-08
  -2.11500004E-02   3.88770935E-08
  -2.10999995E-02   1.99781685E-08
  -2.10500006E-02   6.94022129E-09
  -2.09999997E-02   4.12216394E-09
  -2.09500007E-02   1.12418865E-08
  -2.08999999E-02   2.33459243E-08
  -2.08500009E-02   3.28811680E-08
  -2.08000001E-02   3.30083161E-08
  -2.07499992E-02   2.07083364E-08
  -2.07000002E-02  -1.72263037E-09
  -2.06499994E-02  -2.75170553E-08
  -2.06000004E-02  -4.83175882E-08
  -2.05499995E-02  -5.78682666E-08
  -2.05000006E-02  -5.48817916E-08
  -2.04499997E-02  -4.37656666E-08
  -2.04000007E-02  -3.28099219E-08
  -2.03499999E-02  -3.05680850E-08
  -2.03000009E-02  -4.20002451E-08
  -2.02500001E-02  -6.61051729E-08
  -2.01999992E-02  -9.61548139E-08
  -2.01500002E-02  -1.22509576E-07
  -2.00999994E-02  -1.36831360E-07
  -2.00500004E-02  -1.35844317E-07
  -1.99999996E-02  -1.22937777E-07
  -1.99500006E-02  -1.06822469E-07
  -1.98999997E-02  -9.77513750E-08
  -1.98500007E-02  -1.02928198E-07
  -1.97999999E-02  -1.23142527E-07
  -1.97500009E-02  -1.52182707E-07
  -1.97000001E-02  -1.79376116E-07
  -1.96499992E-02  -1.94211438E-07
  -1.96000002E-02  -1.91028690E-07
  -1.95499994E-02  -1.71671502E-07
  -1.95000004E-02  -1.44847945E-07
  -1.94499996E-02  -1.22388286E-07
  -1.94000006E-02  -1.13988882E-07
  -1.93499997E-02  -1.22759033E-07
  -1.93000007E-02  -1.43595884E-07
  -1.92499999E-02  -1.65200959E-07
  -1.92000009E-02  -1.74938947E-07
  -1.91500001E-02  -1.64439157E-07
  -1.90999992E-02  -1.33444132E-07
  -1.90500002E-02  -9.01266262E-08
  -1.89999994E-02  -4.76307704E-08
  -1.89500004E-02  -1.82836377E-08
  -1.88999996E-02  -8.01094835E-09
  -1.88500006E-02  -1.34709843E-08
  -1.87999997E-02  -2.32699495E-08
  -1.87500007E-02  -2.28275052E-08
  -1.86999999E-02  -8.09417977E-10
  -1.86500009E-02   4.57176590E-08
  -1.86000001E-02   1.09757877E-07
  -1.85499992E-02   1.77269840E-07
  -1.85000002E-02   2.33287452E-07
  -1.84499994E-02   2.68617725E-07
  -1.84000004E-02   2.84124440E-07
  -1.83499996E-02   2.90611553E-07
  -1.83000006E-02   3.04241098E-07
  -1.82499997E-02   3.39424133E-07
  -1.82000007E-02   4.02308757E-07
  -1.81499999E-02   4.87801572E-07
  -1.81000009E-02   5.81551546E-07
  -1.80500001E-02   6.66133928E-07
  -1.79999992E-02   7.28768214E-07
  -1.79500002E-02   7.67147583E-07
  -1.78999994E-02   7.90717650E-07
  -1.78500004E-02   8.16716351E-07
  -1.77999996E-02   8.62619515E-07
  -1.77500006E-02   9.38290668E-07
  -1.76999997E-02   1.04134620E-06
  -1.76500008E-02   1.15789430E-06
  -1.75999999E-02   1.26844691E-06
  -1.75500009E-02   1.35648054E-06
  -1.75000001E-02   1.41587361E-06
  -1.74499992E-02   1.45385945E-06
  -1.74000002E-02   1.48806498E-06
  -1.73499994E-02   1.53882218E-06
  -1.73000004E-02   1.62008678E-06
  -1.72499996E-02   1.73299884E-06
  -1.72000006E-02   1.86503416E-06
  -1.71499997E-02   1.99525562E-06
  -1.71000008E-02   2.10345297E-06
  -1.70499999E-02   2.17916590E-06
  -1.70000009E-02   2.22654921E-06
  -1.69500001E-02   2.26280349E-06
  -1.68999992E-02   2.31073318E-06
  -1.68500002E-02   2.38863345E-06
  -1.67999994E-02   2.50196967E-06
  -1.67500004E-02   2.64062055E-06
  -1.66999996E-02   2.78303696E-06
  -1.66500006E-02   2.90560706E-06
  -1.65999997E-02   2.99314934E-06
  -1.65500008E-02   3.04586047E-06
  -1.64999999E-02   3.07953701E-06
  -1.64500009E-02   3.11882150E-06
  -1.64000001E-02   3.18635671E-06
  -1.63499992E-02   3.29260615E-06
  -1.63000003E-02   3.43091688E-06
  -1.62499994E-02   3.58013790E-06
  -1.62000004E-02   3.71377769E-06
  -1.61499996E-02   3.81174618E-06
  -1.61000006E-02   3.86947386E-06
  -1.60499997E-02   3.90027935E-06
  -1.60000008E-02   3.92979655E-06
  -1.59499999E-02   3.98478778E-06
  -1.59000009E-02   4.08123924E-06
  -1.58500001E-02   4.21704408E-06
  -1.57999992E-02   4.37262543E-06
  -1.57500003E-02   4.51939150E-06
  -1.56999994E-02   4.63238484E-06
  -1.56500004E-02   4.70155373E-06
  -1.55999996E-02   4.73658019E-06
  -1.55499997E-02   4.76298919E-06
  -1.54999997E-02   4.81111192E-06
  -1.54499998E-02   4.90269804E-06
  -1.53999999E-02   5.04111858E-06
  -1.53500000E-02   5.20959838E-06
  -1.53000001E-02   5.37842197E-06
  -1.52500002E-02   5.51805215E-06
  -1.52000003E-02   5.61240313E-06
  -1.51500003E-02   5.66635572E-06
  -1.51000004E-02   5.70404836E-06
  -1.50499996E-02   5.75854847E-06
  -1.49999997E-02   5.85734961E-06
  -1.49499997E-02   6.01010424E-06
  -1.48999998E-02   6.20412266E-06
  -1.48499999E-02   6.40975441E-06
  -1.48000000E-02   6.59344596E-06
  -1.47500001E-02   6.73275872E-06
  -1.47000002E-02   6.82666996E-06
  -1.46500003E-02   6.89652052E-06
  -1.46000003E-02   6.97696942E-06
  -1.45500004E-02   7.10086761E-06
  -1.44999996E-02   7.28469377E-06
  -1.44499997E-02   7.52105143E-06
  -1.43999998E-02   7.78170215E-06
  -1.43499998E-02   8.02993964E-06
  -1.42999999E-02   8.23693699E-06
  -1.42500000E-02   8.39484073E-06
  -1.42000001E-02   8.52072390E-06
  -1.41500002E-02   8.64948015E-06
  -1.41000003E-02   8.81863980E-06
  -1.40500003E-02   9.05180423E-06
  -1.40000004E-02   9.34803120E-06
  -1.39499996E-02   9.68199583E-06
  -1.38999997E-02   1.00150246E-05
  -1.38499998E-02   1.03122256E-05
  -1.37999998E-02   1.05582167E-05
  -1.37499999E-02   1.07643755E-05
  -1.37000000E-02   1.09642569E-05
  -1.36500001E-02   1.11990576E-05
  -1.36000002E-02   1.14994546E-05
  -1.35500003E-02   1.18718790E-05
  -1.35000004E-02   1.22954207E-05
  -1.34500004E-02   1.27308449E-05
  -1.33999996E-02   1.31379020E-05
  -1.33499997E-02   1.34933580E-05
  -1.32999998E-02   1.38016139E-05
  -1.32499998E-02   1.40932261E-05
  -1.31999999E-02   1.44117375E-05
  -1.31500000E-02   1.47945248E-05
  -1.31000001E-02   1.52561670E-05
  -1.30500002E-02   1.57817321E-05
  -1.30000003E-02   1.63330951E-05
  -1.29500004E-02   1.68657189E-05
  -1.29000004E-02   1.73485187E-05
  -1.28499996E-02   1.77779111E-05
  -1.27999997E-02   1.81798332E-05
  -1.27499998E-02   1.85986519E-05
  -1.26999998E-02   1.90777155E-05
  -1.26499999E-02   1.96401197E-05
  -1.26000000E-02   2.02782649E-05
  -1.25500001E-02   2.09569334E-05
  -1.25000002E-02   2.16287408E-05
  -1.24500003E-02   2.22551535E-05
  -1.24000004E-02   2.28238241E-05
  -1.23500004E-02   2.33545070E-05
  -1.22999996E-02   2.38906996E-05
  -1.22499997E-02   2.44806361E-05
  -1.21999998E-02   2.51559995E-05
  -1.21499998E-02   2.59177596E-05
  -1.20999999E-02   2.67354717E-05
  -1.20500000E-02   2.75606144E-05
  -1.20000001E-02   2.83481440E-05
  -1.19500002E-02   2.90766948E-05
  -1.19000003E-02   2.97584393E-05
  -1.18500004E-02   3.04341611E-05
  -1.18000004E-02   3.11555559E-05
  -1.17499996E-02   3.19624378E-05
  -1.16999997E-02   3.28651040E-05
  -1.16499998E-02   3.38395657E-05
  -1.15999999E-02   3.48380454E-05
  -1.15499999E-02   3.58101570E-05
  -1.15000000E-02   3.67254688E-05
  -1.14500001E-02   3.75873897E-05
  -1.14000002E-02   3.84321684E-05
  -1.13500003E-02   3.93132650E-05
  -1.13000004E-02   4.02778787E-05
  -1.12500004E-02   4.13461930E-05
  -1.11999996E-02   4.25023645E-05
  -1.11499997E-02   4.37014605E-05
  -1.10999998E-02   4.48894716E-05
  -1.10499999E-02   4.60274277E-05
  -1.09999999E-02   4.71091334E-05
  -1.09500000E-02   4.81644020E-05
  -1.09000001E-02   4.92463660E-05
  -1.08500002E-02   5.04082054E-05
  -1.08000003E-02   5.16798791E-05
  -1.07500004E-02   5.30548277E-05
  -1.07000005E-02   5.44928007E-05
  -1.06499996E-02   5.59378568E-05
  -1.05999997E-02   5.73433790E-05
  -1.05499998E-02   5.86930873E-05
  -1.04999999E-02   6.00088097E-05
  -1.04499999E-02   6.13412922E-05
  -1.04000000E-02   6.27482950E-05
  -1.03500001E-02   6.42691157E-05
  -1.03000002E-02   6.59073557E-05
  -1.02500003E-02   6.76295676E-05
  -1.02000004E-02   6.93801776E-05
  -1.01500005E-02   7.11063112E-05
  -1.00999996E-02   7.27815932E-05
  -1.00499997E-02   7.44185090E-05
  -9.99999978E-03   7.60634066E-05
  -9.94999986E-03   7.77763416E-05
  -9.89999995E-03   7.96049426E-05
  -9.85000003E-03   8.15634703E-05
  -9.80000012E-03   8.36265463E-05
  -9.75000020E-03   8.57406994E-05
  -9.70000029E-03   8.78482970E-05
  -9.65000037E-03   8.99134393E-05
  -9.60000046E-03   9.19382510E-05
  -9.54999961E-03   9.39624369E-05
  -9.49999969E-03   9.60462785E-05
  -9.44999978E-03   9.82441634E-05
  -9.39999986E-03   1.00580881E-04
  -9.34999995E-03   1.03041013E-04
  -9.30000003E-03   1.05575804E-04
  -9.25000012E-03   1.08125023E-04
  -9.20000020E-03   1.10644120E-04
  -9.15000029E-03   1.13124515E-04
  -9.10000037E-03   1.15597970E-04
  -9.05000046E-03   1.18122909E-04
  -8.99999961E-03   1.20759199E-04
  -8.94999970E-03   1.23541962E-04
  -8.89999978E-03   1.26466126E-04
  -8.84999987E-03   1.29489199E-04
  -8.79999995E-03   1.32550456E-04
  -8.75000004E-03   1.35597846E-04
  -8.70000012E-03   1.38611678E-04
  -8.65000021E-03   1.41613971E-04
  -8.60000029E-03   1.44659134E-04
  -8.55000038E-03   1.47810220E-04
  -8.50000046E-03   1.51111337E-04
  -8.44999962E-03   1.54568421E-04
  -8.39999970E-03   1.58147028E-04
  -8.34999979E-03   1.61787801E-04
  -8.29999987E-03   1.65433055E-04
  -8.24999996E-03   1.69053237E-04
  -8.20000004E-03   1.72660191E-04
  -8.15000013E-03   1.76302230E-04
  -8.10000021E-03   1.80043498E-04
  -8.05000030E-03   1.83935801E-04
  -8.00000038E-03   1.87996513E-04
  -7.95000046E-03   1.92201100E-04
  -7.89999962E-03   1.96494570E-04
  -7.84999970E-03   2.00816386E-04
  -7.79999979E-03   2.05127406E-04
  -7.74999987E-03   2.09428195E-04
  -7.69999996E-03   2.13759136E-04
  -7.65000004E-03   2.18182904E-04
  -7.60000013E-03   2.22757153E-04
  -7.55000021E-03   2.27509954E-04
  -7.49999983E-03   2.32427454E-04
  -7.44999992E-03   2.37460568E-04
  -7.40000000E-03   2.42547525E-04
  -7.35000009E-03   2.47641554E-04
  -7.30000017E-03   2.52731872E-04
  -7.24999979E-03   2.57849140E-04
  -7.19999988E-03   2.63052061E-04
  -7.14999996E-03   2.68402131E-04
  -7.10000005E-03   2.73937301E-04
  -7.05000013E-03   2.79655331E-04
  -7.00000022E-03   2.85515824E-04
  -6.94999984E-03   2.91457691E-04
  -6.89999992E-03   2.97428196E-04
  -6.85000001E-03   3.03406472E-04
  -6.80000009E-03   3.09412280E-04
  -6.75000018E-03   3.15499317E-04
  -6.69999979E-03   3.21731379E-04
  -6.64999988E-03   3.28153808E-04
  -6.59999996E-03   3.34775308E-04
  -6.55000005E-03   3.41564853E-04
  -6.50000013E-03   3.48466012E-04
  -6.45000022E-03   3.55422235E-04
  -6.39999984E-03   3.62402439E-04
  -6.34999992E-03   3.69415851E-04
  -6.30000001E-03   3.76507698E-04
  -6.25000009E-03   3.83740029E-04
  -6.20000018E-03   3.91164707E-04
  -6.14999980E-03   3.98800999E-04
  -6.09999988E-03   4.06628707E-04
  -6.04999997E-03   4.14596783E-04
  -6.00000005E-03   4.22646321E-04
  -5.95000014E-03   4.30738583E-04
  -5.90000022E-03   4.38871415E-04
  -5.84999984E-03   4.47080849E-04
  -5.79999993E-03   4.55425790E-04
  -5.75000001E-03   4.63961740E-04
  -5.70000010E-03   4.72718704E-04
  -5.65000018E-03   4.81687137E-04
  -5.59999980E-03   4.90823411E-04
  -5.54999989E-03   5.00070688E-04
  -5.49999997E-03   5.09383681E-04
  -5.45000006E-03   5.18749410E-04
  -5.40000014E-03   5.28193486E-04
  -5.35000023E-03   5.37768297E-04
  -5.29999984E-03   5.47531352E-04
  -5.24999993E-03   5.57520718E-04
  -5.20000001E-03   5.67738141E-04
  -5.15000010E-03   5.78149455E-04
  -5.10000018E-03   5.88699535E-04
  -5.04999980E-03   5.99337509E-04
  -4.99999989E-03   6.10040210E-04
  -4.94999997E-03   6.20821491E-04
  -4.90000006E-03   6.31727627E-04
  -4.85000014E-03   6.42815954E-04
  -4.80000023E-03   6.54130534E-04
  -4.74999985E-03   6.65683590E-04
  -4.69999993E-03   6.77448814E-04
  -4.65000002E-03   6.89376553E-04
  -4.60000010E-03   7.01416284E-04
  -4.55000019E-03   7.13537098E-04
  -4.49999981E-03   7.25740974E-04
  -4.44999989E-03   7.38063885E-04
  -4.39999998E-03   7.50560255E-04
  -4.35000006E-03   7.63277756E-04
  -4.30000015E-03   7.76238623E-04
  -4.25000023E-03   7.89429119E-04
  -4.19999985E-03   8.02806462E-04
  -4.14999994E-03   8.16318847E-04
  -4.10000002E-03   8.29927099E-04
  -4.05000011E-03   8.43621732E-04
  -4.00000019E-03   8.57429288E-04
  -3.94999981E-03   8.71398195E-04
  -3.89999989E-03   8.85577814E-04
  -3.84999998E-03   8.99998297E-04
  -3.80000006E-03   9.14657081E-04
  -3.74999992E-03   9.29520815E-04
  -3.70000000E-03   9.44539730E-04
  -3.65000009E-03   9.59669705E-04
  -3.59999994E-03   9.74890601E-04
  -3.55000002E-03   9.90215107E-04
  -3.50000011E-03   1.00568461E-03
  -3.44999996E-03   1.02134875E-03
  -3.40000005E-03   1.03724434E-03
  -3.34999990E-03   1.05337973E-03
  -3.29999998E-03   1.06973178E-03
  -3.25000007E-03   1.08625763E-03
  -3.19999992E-03   1.10290980E-03
  -3.15000000E-03   1.11965823E-03
  -3.10000009E-03   1.13650528E-03
  -3.04999994E-03   1.15348201E-03
  -3.00000003E-03   1.17063290E-03
  -2.95000011E-03   1.18799962E-03
  -2.89999996E-03   1.20560231E-03
  -2.85000005E-03   1.22342783E-03
  -2.79999990E-03   1.24143623E-03
  -2.74999999E-03   1.25958212E-03
  -2.70000007E-03   1.27782836E-03
  -2.64999992E-03   1.29616063E-03
  -2.60000001E-03   1.31459918E-03
  -2.55000009E-03   1.33318757E-03
  -2.49999994E-03   1.35196885E-03
  -2.45000003E-03   1.37097156E-03
  -2.40000011E-03   1.39019510E-03
  -2.34999997E-03   1.40960829E-03
  -2.30000005E-03   1.42916245E-03
  -2.24999990E-03   1.44881371E-03
  -2.19999999E-03   1.46853796E-03
  -2.15000007E-03   1.48834381E-03
  -2.09999993E-03   1.50826760E-03
  -2.05000001E-03   1.52835611E-03
  -2.00000009E-03   1.54864939E-03
  -1.94999995E-03   1.56915619E-03
  -1.90000003E-03   1.58984924E-03
  -1.85000000E-03   1.61068270E-03
  -1.79999997E-03   1.63160742E-03
  -1.75000005E-03   1.65258965E-03
  -1.70000002E-03   1.67362997E-03
  -1.64999999E-03   1.69475481E-03
  -1.59999996E-03   1.71600666E-03
  -1.55000004E-03   1.73742545E-03
  -1.50000001E-03   1.75903051E-03
  -1.44999998E-03   1.78081181E-03
  -1.39999995E-03   1.80272828E-03
  -1.35000004E-03   1.82472647E-03
  -1.30000000E-03   1.84676377E-03
  -1.24999997E-03   1.86882331E-03
  -1.20000006E-03   1.89091673E-03
  -1.15000003E-03   1.91308267E-03
  -1.09999999E-03   1.93537283E-03
  -1.04999996E-03   1.95781677E-03
  -1.00000005E-03   1.98041392E-03
  -9.50000016E-04   2.00313632E-03
  -8.99999985E-04   2.02592835E-03
  -8.50000011E-04   2.04873318E-03
  -7.99999980E-04   2.07151938E-03
  -7.50000007E-04   2.09428836E-03
  -6.99999975E-04   2.11707363E-03
  -6.50000002E-04   2.13992619E-03
  -6.00000028E-04   2.16289004E-03
  -5.49999997E-04   2.18597753E-03
  -5.00000024E-04   2.20916537E-03
  -4.49999992E-04   2.23239954E-03
  -3.99999990E-04   2.25561531E-03
  -3.49999988E-04   2.27876264E-03
  -3.00000014E-04   2.30182661E-03
  -2.50000012E-04   2.32482981E-03
  -1.99999995E-04   2.34782067E-03
  -1.50000007E-04   2.37085670E-03
  -9.99999975E-05   2.39397422E-03
  -4.99999987E-05   2.41716416E-03
   0.00000000       2.44037365E-03
   4.99999987E-05   2.46352726E-03
   9.99999975E-05   2.48655351E-03
   1.50000007E-04   2.50942237E-03
   1.99999995E-04   2.53215129E-03
   2.50000012E-04   2.55478802E-03
   3.00000014E-04   2.57739658E-03
   3.49999988E-04   2.60002352E-03
   3.99999990E-04   2.62267236E-03
   4.49999992E-04   2.64529581E-03
   5.00000024E-04   2.66781636E-03
   5.49999997E-04   2.69015739E-03
   6.00000028E-04   2.71226629E-03
   6.50000002E-04   2.73413979E-03
   6.99999975E-04   2.75582145E-03
   7.50000007E-04   2.77737994E-03
   7.99999980E-04   2.79887253E-03
   8.50000011E-04   2.82031740E-03
   8.99999985E-04   2.84168660E-03
   9.50000016E-04   2.86289863E-03
   1.00000005E-03   2.88385851E-03
   1.04999996E-03   2.90450756E-03
   1.09999999E-03   2.92482204E-03
   1.15000003E-03   2.94482661E-03
   1.20000006E-03   2.96458881E-03
   1.24999997E-03   2.98417662E-03
   1.30000000E-03   3.00362334E-03
   1.35000004E-03   3.02291755E-03
   1.39999995E-03   3.04199872E-03
   1.44999998E-03   3.06077162E-03
   1.50000001E-03   3.07914801E-03
   1.55000004E-03   3.09708691E-03
   1.59999996E-03   3.11459671E-03
   1.64999999E-03   3.13172699E-03
   1.70000002E-03   3.14855296E-03
   1.75000005E-03   3.16513353E-03
   1.79999997E-03   3.18147568E-03
   1.85000000E-03   3.19752656E-03
   1.90000003E-03   3.21319909E-03
   1.94999995E-03   3.22839431E-03
   2.00000009E-03   3.24303843E-03
   2.05000001E-03   3.25710163E-03
   2.09999993E-03   3.27061932E-03
   2.15000007E-03   3.28367716E-03
   2.19999999E-03   3.29635246E-03
   2.24999990E-03   3.30868247E-03
   2.30000005E-03   3.32064438E-03
   2.34999997E-03   3.33215157E-03
   2.40000011E-03   3.34308716E-03
   2.45000003E-03   3.35334544E-03
   2.49999994E-03   3.36287683E-03
   2.55000009E-03   3.37169529E-03
   2.60000001E-03   3.37987649E-03
   2.64999992E-03   3.38752475E-03
   2.70000007E-03   3.39469989E-03
   2.74999999E-03   3.40141193E-03
   2.79999990E-03   3.40760057E-03