  -3.99999991E-02   0.00000000    
  -3.99499983E-02   0.00000000    
  -3.99000011E-02   0.00000000    
  -3.98500003E-02   0.00000000    
  -3.97999994E-02   1.80928947E-18
  -3.97499986E-02   2.14073168E-17
  -3.97000015E-02   1.31381441E-16
  -3.96500006E-02   5.54645697E-16
  -3.95999998E-02   1.80267246E-15
  -3.95499989E-02   4.78777200E-15
  -3.95000018E-02   1.07721381E-14
  -3.94500010E-02   2.10168051E-14
  -3.94000001E-02   3.61270021E-14
  -3.93499993E-02   5.53479822E-14
  -3.92999984E-02   7.63154392E-14
  -3.92500013E-02   9.57853995E-14
  -3.92000005E-02   1.11483956E-13
  -3.91499996E-02   1.24481060E-13
  -3.90999988E-02   1.40773555E-13
  -3.90500017E-02   1.70612737E-13
  -3.90000008E-02   2.24912808E-13
  -3.89500000E-02   3.09677766E-13
  -3.88999991E-02   4.21016032E-13
  -3.88499983E-02   5.43913926E-13
  -3.88000011E-02   6.56794877E-13
  -3.87500003E-02   7.41158220E-13
  -3.86999995E-02   7.92420166E-13
  -3.86499986E-02   8.26171271E-13
  -3.86000015E-02   8.74878295E-13
  -3.85500006E-02   9.73927536E-13
  -3.84999998E-02   1.14154975E-12
  -3.84499989E-02   1.36190495E-12
  -3.84000018E-02   1.58144223E-12
  -3.83500010E-02   1.72402414E-12
  -3.83000001E-02   1.72142010E-12
  -3.82499993E-02   1.54671523E-12
  -3.81999984E-02   1.23400574E-12
  -3.81500013E-02   8.71721857E-13
  -3.81000005E-02   5.68230467E-13
  -3.80499996E-02   4.02115136E-13
  -3.79999988E-02   3.78952132E-13
  -3.79500017E-02   4.16196347E-13
  -3.79000008E-02   3.66930471E-13
  -3.78500000E-02   7.57609104E-14
  -3.77999991E-02  -5.56199455E-13
  -3.77499983E-02  -1.52721434E-12
  -3.77000012E-02  -2.73441708E-12
  -3.76500003E-02  -4.02030232E-12
  -3.75999995E-02  -5.24678695E-12
  -3.75499986E-02  -6.36272935E-12
  -3.75000015E-02  -7.43245222E-12
  -3.74500006E-02  -8.61054977E-12
  -3.73999998E-02  -1.00732929E-11
  -3.73499990E-02  -1.19367198E-11
  -3.73000018E-02  -1.41965563E-11
  -3.72500010E-02  -1.67140728E-11
  -3.72000001E-02  -1.92512933E-11
  -3.71499993E-02  -2.15389512E-11
  -3.70999984E-02  -2.33504934E-11
  -3.70500013E-02  -2.45585184E-11
  -3.70000005E-02  -2.51624381E-11
  -3.69499996E-02  -2.52891007E-11
  -3.68999988E-02  -2.51728464E-11
  -3.68500017E-02  -2.51160516E-11
  -3.68000008E-02  -2.54233648E-11
  -3.67500000E-02  -2.63048333E-11
  -3.66999991E-02  -2.77618692E-11
  -3.66499983E-02  -2.94983794E-11
  -3.66000012E-02  -3.09171716E-11
  -3.65500003E-02  -3.12472409E-11
  -3.64999995E-02  -2.97945384E-11
  -3.64499986E-02  -2.62356994E-11
  -3.64000015E-02  -2.08188050E-11
  -3.63500006E-02  -1.43379510E-11
  -3.62999998E-02  -7.82742534E-12
  -3.62499990E-02  -2.05621891E-12
  -3.62000018E-02   2.96271428E-12
  -3.61500010E-02   8.17792448E-12
  -3.61000001E-02   1.52264312E-11
  -3.60499993E-02   2.56960755E-11
  -3.59999985E-02   4.01956905E-11
  -3.59500013E-02   5.76851067E-11
  -3.59000005E-02   7.54964632E-11
  -3.58499996E-02   9.02180899E-11
  -3.57999988E-02   9.91968521E-11
  -3.57500017E-02   1.02030238E-10
  -3.57000008E-02   1.01277868E-10
  -3.56500000E-02   1.01850230E-10
  -3.55999991E-02   1.09090556E-10
  -3.55499983E-02   1.26235092E-10
  -3.55000012E-02   1.52395541E-10
  -3.54500003E-02   1.82175539E-10
  -3.53999995E-02   2.07426978E-10
  -3.53499986E-02   2.20668844E-10
  -3.53000015E-02   2.18763188E-10
  -3.52500007E-02   2.05056958E-10
  -3.51999998E-02   1.88652316E-10
  -3.51499990E-02   1.80677362E-10
  -3.51000018E-02   1.88911262E-10
  -3.50500010E-02   2.13170287E-10
  -3.50000001E-02   2.43882747E-10
  -3.49499993E-02   2.65092559E-10
  -3.48999985E-02   2.61133087E-10
  -3.48500013E-02   2.24271199E-10
  -3.48000005E-02   1.59711702E-10
  -3.47499996E-02   8.50910384E-11
  -3.46999988E-02   2.38674983E-11
  -3.46500017E-02  -5.06958668E-12
  -3.46000008E-02   2.95015162E-12
  -3.45500000E-02   3.42790483E-11
  -3.44999991E-02   6.11690559E-11
  -3.44499983E-02   5.33835996E-11
  -3.44000012E-02  -7.45910191E-12
  -3.43500003E-02  -1.17434035E-10
  -3.42999995E-02  -2.49348736E-10
  -3.42499986E-02  -3.62974928E-10
  -3.42000015E-02  -4.22931495E-10
  -3.41500007E-02  -4.16483098E-10
  -3.40999998E-02  -3.62562397E-10
  -3.40499990E-02  -3.06493941E-10
  -3.40000018E-02  -3.01168784E-10
  -3.39500010E-02  -3.82111981E-10
  -3.39000002E-02  -5.47780321E-10
  -3.38499993E-02  -7.55282392E-10
  -3.37999985E-02  -9.35470257E-10
  -3.37500013E-02  -1.02245079E-09
  -3.37000005E-02  -9.85015403E-10
  -3.36499996E-02  -8.45104875E-10
  -3.35999988E-02  -6.72962241E-10
  -3.35500017E-02  -5.58673163E-10
  -3.35000008E-02  -5.71124037E-10
  -3.34500000E-02  -7.22684079E-10
  -3.33999991E-02  -9.57176893E-10
  -3.33499983E-02  -1.16942889E-09
  -3.33000012E-02  -1.25039690E-09
  -3.32500003E-02  -1.13895615E-09
  -3.31999995E-02  -8.56235249E-10
  -3.31499986E-02  -5.04223052E-10
  -3.31000015E-02  -2.25597513E-10
  -3.30500007E-02  -1.39962944E-10
  -3.29999998E-02  -2.84506863E-10
  -3.29499990E-02  -5.87801197E-10
  -3.29000019E-02  -8.92528607E-10
  -3.28500010E-02  -1.02115671E-09
  -3.28000002E-02  -8.57546589E-10
  -3.27499993E-02  -4.07299056E-10
  -3.26999985E-02   1.93783989E-10
  -3.26500013E-02   7.31951388E-10
  -3.26000005E-02   1.00926068E-09
  -3.25499997E-02   9.38149669E-10
  -3.24999988E-02   5.92044191E-10
  -3.24500017E-02   1.84071355E-10
  -3.24000008E-02  -2.24173145E-11
  -3.23500000E-02   1.64889588E-10
  -3.22999991E-02   7.68910213E-10
  -3.22499983E-02   1.61637770E-09
  -3.22000012E-02   2.40159048E-09
  -3.21500003E-02   2.81843593E-09
  -3.20999995E-02   2.70418177E-09
  -3.20499986E-02   2.12811391E-09
  -3.20000015E-02   1.37849743E-09
  -3.19500007E-02   8.45458203E-10
  -3.18999998E-02   8.46310078E-10
  -3.18499990E-02   1.47081403E-09
  -3.18000019E-02   2.52076249E-09
  -3.17500010E-02   3.57982821E-09
  -3.17000002E-02   4.19115587E-09
  -3.16499993E-02   4.06770084E-09
  -3.15999985E-02   3.23905835E-09
  -3.15500014E-02   2.06093542E-09
  -3.15000005E-02   1.07231912E-09
  -3.14499997E-02   7.55825902E-10
  -3.13999988E-02   1.30642419E-09
  -3.13500017E-02   2.51770826E-09
  -3.13000008E-02   3.84786603E-09
  -3.12500000E-02   4.64777994E-09
  -3.11999992E-02   4.45636994E-09
  -3.11500002E-02   3.22984994E-09
  -3.10999993E-02   1.39286538E-09
  -3.10500003E-02  -3.25164673E-10
  -3.09999995E-02  -1.20732890E-09
  -3.09500005E-02  -8.82840356E-10
  -3.08999997E-02   4.77473949E-10
  -3.08500007E-02   2.20442842E-09
  -3.07999998E-02   3.40849304E-09
  -3.07500008E-02   3.37875217E-09
  -3.07000000E-02   1.92493954E-09
  -3.06499992E-02  -5.00554931E-10
  -3.06000002E-02  -2.97195202E-09
  -3.05499993E-02  -4.49068827E-09
  -3.05000003E-02  -4.44569004E-09
  -3.04499995E-02  -2.92277424E-09
  -3.04000005E-02  -7.09391823E-10
  -3.03499997E-02   1.02695519E-09
  -3.03000007E-02   1.25779620E-09
  -3.02499998E-02  -4.18578144E-10
  -3.02000009E-02  -3.54931018E-09
  -3.01500000E-02  -6.98105440E-09
  -3.00999992E-02  -9.34798905E-09
  -3.00500002E-02  -9.68786029E-09
  -2.99999993E-02  -7.90830512E-09
  -2.99500003E-02  -4.87850649E-09
  -2.98999995E-02  -2.08168172E-09
  -2.98500005E-02  -9.63644609E-10
  -2.97999997E-02  -2.26138464E-09
  -2.97500007E-02  -5.62124836E-09
  -2.96999998E-02  -9.69991909E-09
  -2.96500009E-02  -1.27288775E-08
  -2.96000000E-02  -1.33074209E-08
  -2.95499992E-02  -1.10703997E-08
  -2.95000002E-02  -6.91504010E-09
  -2.94499993E-02  -2.65759259E-09
  -2.94000003E-02  -2.46915016E-10
  -2.93499995E-02  -8.73691730E-10
  -2.93000005E-02  -4.38053105E-09
  -2.92499997E-02  -9.26104171E-09
  -2.92000007E-02  -1.32796103E-08
  -2.91499998E-02  -1.44591263E-08
  -2.91000009E-02  -1.20010784E-08
  -2.90500000E-02  -6.71114986E-09
  -2.89999992E-02  -7.09289960E-10
  -2.89500002E-02   3.47848372E-09
  -2.88999993E-02   4.05984313E-09
  -2.88500004E-02   8.34850300E-10
  -2.87999995E-02  -4.63512517E-09
  -2.87500005E-02  -9.65984093E-09
  -2.86999997E-02  -1.16024514E-08
  -2.86500007E-02  -9.09499320E-09
  -2.85999998E-02  -2.73025624E-09
  -2.85500009E-02   5.11296694E-09
  -2.85000000E-02   1.12725766E-08
  -2.84499992E-02   1.32130502E-08
  -2.84000002E-02   1.02151620E-08
  -2.83499993E-02   3.78979026E-09
  -2.83000004E-02  -2.90985125E-09
  -2.82499995E-02  -6.45442588E-09
  -2.82000005E-02  -4.69319739E-09
  -2.81499997E-02   2.20575469E-09
  -2.81000007E-02   1.17287149E-08
  -2.80499998E-02   2.00600638E-08
  -2.80000009E-02   2.37662601E-08
  -2.79500000E-02   2.13780051E-08
  -2.78999992E-02   1.41428425E-08
  -2.78500002E-02   5.56852875E-09
  -2.77999993E-02  -8.59487828E-11
  -2.77500004E-02   2.72974143E-10
  -2.76999995E-02   7.10729742E-09
  -2.76500005E-02   1.79203337E-08
  -2.75999997E-02   2.82657417E-08
  -2.75500007E-02   3.36880994E-08
  -2.74999999E-02   3.17486695E-08
  -2.74500009E-02   2.32164794E-08
  -2.74000000E-02   1.18481633E-08
  -2.73499992E-02   2.80001466E-09
  -2.73000002E-02   3.40747541E-10
  -2.72499993E-02   5.87836313E-09
  -2.72000004E-02   1.72111090E-08
  -2.71499995E-02   2.93906091E-08
  -2.71000005E-02   3.68662576E-08
  -2.70499997E-02   3.59844172E-08
  -2.70000007E-02   2.67192313E-08
  -2.69499999E-02   1.28191830E-08
  -2.69000009E-02   2.43430803E-10
  -2.68500000E-02  -5.46503642E-09
  -2.67999992E-02  -1.71509040E-09
  -2.67500002E-02   9.84351001E-09
  -2.66999993E-02   2.39091378E-08
  -2.66500004E-02   3.37965069E-08
  -2.65999995E-02   3.44155637E-08
  -2.65500005E-02   2.46350158E-08
  -2.64999997E-02   7.93646482E-09
  -2.64500007E-02  -8.99809205E-09
  -2.63999999E-02  -1.91977598E-08
  -2.63500009E-02  -1.85461229E-08
  -2.63000000E-02  -7.74035414E-09
  -2.62499992E-02   7.86194487E-09
  -2.62000002E-02   2.05108819E-08
  -2.61499994E-02   2.34918680E-08
  -2.61000004E-02   1.41998386E-08
  -2.60499995E-02  -4.54332083E-09
  -2.60000005E-02  -2.55828549E-08
  -2.59499997E-02  -4.05214067E-08
  -2.59000007E-02  -4.34731433E-08
  -2.58499999E-02  -3.38052679E-08
  -2.58000009E-02  -1.65942833E-08
  -2.57500000E-02  -5.16524712E-10
  -2.56999992E-02   5.95622485E-09
  -2.56500002E-02  -1.60836766E-09
  -2.55999994E-02  -2.14688960E-08
  -2.55500004E-02  -4.62935397E-08
  -2.54999995E-02  -6.62825030E-08
  -2.54500005E-02  -7.34988461E-08
  -2.53999997E-02  -6.54906529E-08
  -2.53500007E-02  -4.65489620E-08
  -2.52999999E-02  -2.59628656E-08
  -2.52500009E-02  -1.39691769E-08
  -2.52000000E-02  -1.71549832E-08
  -2.51499992E-02  -3.53705580E-08
  -2.51000002E-02  -6.15893754E-08
  -2.50499994E-02  -8.48648156E-08
  -2.50000004E-02  -9.51413810E-08
  -2.49499995E-02  -8.78056099E-08
  -2.49000005E-02  -6.59182433E-08
  -2.48499997E-02  -3.90552586E-08
  -2.48000007E-02  -1.91824920E-08
  -2.47499999E-02  -1.53374806E-08
  -2.47000009E-02  -2.94791995E-08
  -2.46500000E-02  -5.54065878E-08
  -2.45999992E-02  -8.13177508E-08
  -2.45500002E-02  -9.49581462E-08
  -2.44999994E-02  -8.91120919E-08
  -2.44500004E-02  -6.49763194E-08
  -2.43999995E-02  -3.18407523E-08
  -2.43500005E-02  -3.12143666E-09
  -2.42999997E-02   9.56691526E-09
  -2.42500007E-02   1.68441250E-09
  -2.41999999E-02  -2.20038601E-08
  -2.41500009E-02  -4.93243419E-08
  -2.41000000E-02  -6.59736799E-08
  -2.40499992E-02  -6.18947382E-08
  -2.40000002E-02  -3.59123966E-08
  -2.39499994E-02   3.49894336E-09
  -2.39000004E-02   4.17602841E-08
  -2.38499995E-02   6.45625278E-08
  -2.38000005E-02   6.42790070E-08
  -2.37499997E-02   4.35378880E-08
  -2.37000007E-02   1.42805279E-08
  -2.36499999E-02  -7.38202299E-09
  -2.36000009E-02  -8.30731750E-09
  -2.35500000E-02   1.57014508E-08
  -2.34999992E-02   5.77900714E-08
  -2.34500002E-02   1.02856312E-07
  -2.33999994E-02   1.34118579E-07
  -2.33500004E-02   1.40590259E-07
  -2.32999995E-02   1.22125968E-07
  -2.32500006E-02   8.97184904E-08
  -2.31999997E-02   6.08040907E-08
  -2.31500007E-02   5.15680085E-08
  -2.30999999E-02   6.96341473E-08
  -2.30500009E-02   1.10427564E-07
  -2.30000000E-02   1.58924109E-07
  -2.29499992E-02   1.96122897E-07
  -2.29000002E-02   2.07443804E-07
  -2.28499994E-02   1.89327281E-07
  -2.28000004E-02   1.51039103E-07
  -2.27499995E-02   1.10768212E-07
  -2.27000006E-02   8.76461570E-08
  -2.26499997E-02   9.31799491E-08
  -2.26000007E-02   1.25926277E-07
  -2.25499999E-02   1.71862155E-07
  -2.25000009E-02   2.10403201E-07
  -2.24500000E-02   2.23486794E-07
  -2.23999992E-02   2.03710499E-07
  -2.23500002E-02   1.57858636E-07
  -2.22999994E-02   1.04143091E-07
  -2.22500004E-02   6.42687894E-08
  -2.21999995E-02   5.37773950E-08
  -2.21500006E-02   7.49618252E-08
  -2.20999997E-02   1.15575418E-07
  -2.20500007E-02   1.54025869E-07
  -2.19999999E-02   1.68851386E-07
  -2.19500009E-02   1.48316005E-07
  -2.19000001E-02   9.58299893E-08
  -2.18499992E-02   2.86929165E-08
  -2.18000002E-02  -2.93982634E-08
  -2.17499994E-02  -5.88325122E-08
  -2.17000004E-02  -5.29176596E-08
  -2.16499995E-02  -2.10790017E-08
  -2.16000006E-02   1.51060835E-08
  -2.15499997E-02   3.13849782E-08
  -2.15000007E-02   1.16684866E-08
  -2.14499999E-02  -4.45990729E-08
  -2.14000009E-02  -1.21896164E-07
  -2.13500001E-02  -1.95263027E-07
  -2.12999992E-02  -2.41269419E-07
  -2.12500002E-02  -2.48472077E-07
  -2.11999994E-02  -2.22674075E-07
  -2.11500004E-02  -1.84551169E-07
  -2.10999995E-02  -1.60590005E-07
  -2.10500006E-02  -1.71290608E-07
  -2.09999997E-02  -2.21870877E-07
  -2.09500007E-02  -2.99667448E-07
  -2.08999999E-02  -3.79492434E-07
  -2.08500009E-02  -4.34662610E-07
  -2.08000001E-02  -4.48845100E-07
  -2.07499992E-02  -4.23431004E-07
  -2.07000002E-02  -3.77076674E-07
  -2.06499994E-02  -3.37513029E-07
  -2.06000004E-02  -3.29183962E-07
  -2.05499995E-02  -3.62192594E-07
  -2.05000006E-02  -4.27518245E-07
  -2.04499997E-02  -5.00725946E-07
  -2.04000007E-02  -5.52618928E-07
  -2.03499999E-02  -5.62157140E-07
  -2.03000009E-02  -5.25893313E-07
  -2.02500001E-02  -4.59667319E-07
  -2.01999992E-02  -3.91709989E-07
  -2.01500002E-02  -3.50142216E-07
  -2.00999994E-02  -3.50392725E-07
  -2.00500004E-02  -3.88157332E-07
  -1.99999996E-02  -4.41104163E-07
  -1.99500006E-02  -4.78651202E-07
  -1.98999997E-02  -4.75527088E-07
  -1.98500007E-02  -4.23089887E-07
  -1.97999999E-02  -3.33323612E-07
  -1.97500009E-02  -2.33658199E-07
  -1.97000001E-02  -1.54843306E-07
  -1.96499992E-02  -1.17234926E-07
  -1.96000002E-02  -1.21611095E-07
  -1.95499994E-02  -1.48661499E-07
  -1.95000004E-02  -1.67452953E-07
  -1.94499996E-02  -1.49162588E-07
  -1.94000006E-02  -7.99863287E-08
  -1.93499997E-02   3.25471134E-08
  -1.93000007E-02   1.62724916E-07
  -1.92499999E-02   2.77921828E-07
  -1.92000009E-02   3.53015992E-07
  -1.91500001E-02   3.81529446E-07
  -1.90999992E-02   3.78503387E-07
  -1.90500002E-02   3.73778448E-07
  -1.89999994E-02   3.98626952E-07
  -1.89500004E-02   4.71676174E-07
  -1.88999996E-02   5.90406501E-07
  -1.88500006E-02   7.32049159E-07
  -1.87999997E-02   8.63526566E-07
  -1.87500007E-02   9.56032977E-07
  -1.86999999E-02   9.97764232E-07
  -1.86500009E-02   9.99103577E-07
  -1.86000001E-02   9.87919634E-07
  -1.85499992E-02   9.97037432E-07
  -1.85000002E-02   1.04945218E-06
  -1.84499994E-02   1.14787917E-06
  -1.84000004E-02   1.27331282E-06
  -1.83499996E-02   1.39325789E-06
  -1.83000006E-02   1.47597973E-06
  -1.82499997E-02   1.50442759E-06
  -1.82000007E-02   1.48361664E-06
  -1.81499999E-02   1.43817374E-06
  -1.81000009E-02   1.40114173E-06
  -1.80500001E-02   1.39903625E-06
  -1.79999992E-02   1.43982209E-06
  -1.79500002E-02   1.50918117E-06
  -1.78999994E-02   1.57672980E-06
  -1.78500004E-02   1.60940283E-06
  -1.77999996E-02   1.58602575E-06
  -1.77500006E-02   1.50657399E-06
  -1.76999997E-02   1.39198676E-06
  -1.76500008E-02   1.27464750E-06
  -1.75999999E-02   1.18379603E-06
  -1.75500009E-02   1.13237661E-06
  -1.75000001E-02   1.11120255E-06
  -1.74499992E-02   1.09299856E-06
  -1.74000002E-02   1.04448418E-06
  -1.73499994E-02   9.41071391E-07
  -1.73000004E-02   7.77607568E-07
  -1.72499996E-02   5.70407906E-07
  -1.72000006E-02   3.49703754E-07
  -1.71499997E-02   1.45951788E-07
  -1.71000008E-02  -2.38510580E-08
  -1.70499999E-02  -1.63738903E-07
  -1.70000009E-02  -2.96892381E-07
  -1.69500001E-02  -4.55208635E-07
  -1.68999992E-02  -6.65034122E-07
  -1.68500002E-02  -9.35466403E-07
  -1.67999994E-02  -1.25442409E-06
  -1.67500004E-02  -1.59417584E-06
  -1.66999996E-02  -1.92377456E-06
  -1.66500006E-02  -2.22279164E-06
  -1.65999997E-02  -2.49022992E-06
  -1.65500008E-02  -2.74465492E-06
  -1.64999999E-02  -3.01562113E-06
  -1.64500009E-02  -3.33028311E-06
  -1.64000001E-02  -3.70121734E-06
  -1.63499992E-02  -4.12094550E-06
  -1.63000003E-02  -4.56543830E-06
  -1.62499994E-02  -5.00493252E-06
  -1.62000004E-02  -5.41717372E-06
  -1.61499996E-02  -5.79709558E-06
  -1.61000006E-02  -6.15865611E-06
  -1.60499997E-02  -6.52812560E-06
  -1.60000008E-02  -6.93195079E-06
  -1.59499999E-02  -7.38472500E-06
  -1.59000009E-02  -7.88266334E-06
  -1.58500001E-02  -8.40534358E-06
  -1.57999992E-02  -8.92485878E-06
  -1.57500003E-02  -9.41817598E-06
  -1.56999994E-02  -9.87704880E-06
  -1.56500004E-02  -1.03111624E-05
  -1.55999996E-02  -1.07431897E-05
  -1.55499997E-02  -1.11981890E-05
  -1.54999997E-02  -1.16921801E-05
  -1.54499998E-02  -1.22250176E-05
  -1.53999999E-02  -1.27806907E-05
  -1.53500000E-02  -1.33347539E-05
  -1.53000001E-02  -1.38653959E-05
  -1.52500002E-02  -1.43630314E-05
  -1.52000003E-02  -1.48341542E-05
  -1.51500003E-02  -1.52978409E-05
  -1.51000004E-02  -1.57767408E-05
  -1.50499996E-02  -1.62866399E-05
  -1.49999997E-02  -1.68293955E-05
  -1.49499997E-02  -1.73923436E-05
  -1.48999998E-02  -1.79543185E-05
  -1.48499999E-02  -1.84953969E-05
  -1.48000000E-02  -1.90057235E-05
  -1.47500001E-02  -1.94895438E-05
  -1.47000002E-02  -1.99628539E-05
  -1.46500003E-02  -2.04457319E-05
  -1.46000003E-02  -2.09531390E-05
  -1.45500004E-02  -2.14883676E-05
  -1.44999996E-02  -2.20421025E-05
  -1.44499997E-02  -2.25972981E-05
  -1.43999998E-02  -2.31374215E-05
  -1.43499998E-02  -2.36542382E-05
  -1.42999999E-02  -2.41515445E-05
  -1.42500000E-02  -2.46431664E-05
  -1.42000001E-02  -2.51464189E-05
  -1.41500002E-02  -2.56742878E-05
  -1.41000003E-02  -2.62297617E-05
  -1.40500003E-02  -2.68051463E-05
  -1.40000004E-02  -2.73864371E-05
  -1.39499996E-02  -2.79603337E-05
  -1.38999997E-02  -2.85207989E-05
  -1.38499998E-02  -2.90719709E-05
  -1.37999998E-02  -2.96262369E-05
  -1.37499999E-02  -3.01984073E-05
  -1.37000000E-02  -3.07989503E-05
  -1.36500001E-02  -3.14296703E-05
  -1.36000002E-02  -3.20836953E-05
  -1.35500003E-02  -3.27496855E-05
  -1.35000004E-02  -3.34181495E-05
  -1.34500004E-02  -3.40867846E-05
  -1.33999996E-02  -3.47621353E-05
  -1.33499997E-02  -3.54567310E-05
  -1.32999998E-02  -3.61834500E-05
  -1.32499998E-02  -3.69497830E-05
  -1.31999999E-02  -3.77547221E-05
  -1.31500000E-02  -3.85899657E-05
  -1.31000001E-02  -3.94448034E-05
  -1.30500002E-02  -4.03121885E-05
  -1.30000003E-02  -4.11930414E-05
  -1.29500004E-02  -4.20965989E-05
  -1.29000004E-02  -4.30365544E-05
  -1.28499996E-02  -4.40247131E-05
  -1.27999997E-02  -4.50657099E-05
  -1.27499998E-02  -4.61551608E-05
  -1.26999998E-02  -4.72823122E-05
  -1.26499999E-02  -4.84360316E-05
  -1.26000000E-02  -4.96112953E-05
  -1.25500001E-02  -5.08130688E-05
  -1.25000002E-02  -5.20548419E-05
  -1.24500003E-02  -5.33530765E-05
  -1.24000004E-02  -5.47203090E-05
  -1.23500004E-02  -5.61592133E-05
  -1.22999996E-02  -5.76616294E-05
  -1.22499997E-02  -5.92129145E-05
  -1.21999998E-02  -6.07996517E-05
  -1.21499998E-02  -6.24170279E-05
  -1.20999999E-02  -6.40722501E-05
  -1.20500000E-02  -6.57823548E-05
  -1.20000001E-02  -6.75671326E-05
  -1.19500002E-02  -6.94400078E-05
  -1.19000003E-02  -7.14014532E-05
  -1.18500004E-02  -7.34390123E-05
  -1.18000004E-02  -7.55330693E-05
  -1.17499996E-02  -7.76663655E-05
  -1.16999997E-02  -7.98330948E-05
  -1.16499998E-02  -8.20429923E-05
  -1.15999999E-02  -8.43182133E-05
  -1.15499999E-02  -8.66842456E-05
  -1.15000000E-02  -8.91587842E-05
  -1.14500001E-02  -9.17436191E-05
  -1.14000002E-02  -9.44237690E-05
  -1.13500003E-02  -9.71747359E-05
  -1.13000004E-02  -9.99740732E-05
  -1.12500004E-02  -1.02812526E-04
  -1.11999996E-02  -1.05699452E-04
  -1.11499997E-02  -1.08659755E-04
  -1.10999998E-02  -1.11723035E-04
  -1.10499999E-02  -1.14910188E-04
  -1.09999999E-02  -1.18223928E-04
  -1.09500000E-02  -1.21646815E-04
  -1.09000001E-02  -1.25149207E-04
  -1.08500002E-02  -1.28703527E-04
  -1.08000003E-02  -1.32297544E-04
  -1.07500004E-02  -1.35941707E-04
  -1.07000005E-02  -1.39665892E-04
  -1.06499996E-02  -1.43507365E-04
  -1.05999997E-02  -1.47495084E-04
  -1.05499998E-02  -1.51636385E-04
  -1.04999999E-02  -1.55914167E-04
  -1.04499999E-02  -1.60295021E-04
  -1.04000000E-02  -1.64745099E-04
  -1.03500001E-02  -1.69246152E-04
  -1.03000002E-02  -1.73805034E-04
  -1.02500003E-02  -1.78452436E-04
  -1.02000004E-02  -1.83229786E-04
  -1.01500005E-02  -1.88171500E-04
  -1.00999996E-02  -1.93289321E-04
  -1.00499997E-02  -1.98566981E-04
  -9.99999978E-03  -2.03968302E-04
  -9.94999986E-03  -2.09453312E-04
  -9.89999995E-03  -2.14997970E-04
  -9.85000003E-03  -2.20606569E-04
  -9.80000012E-03  -2.26311473E-04
  -9.75000020E-03  -2.32160412E-04
  -9.70000029E-03  -2.38196255E-04
  -9.65000037E-03  -2.44439318E-04
  -9.60000046E-03  -2.50878627E-04
  -9.54999961E-03  -2.57477717E-04
  -9.49999969E-03  -2.64192582E-04
  -9.44999978E-03  -2.70993798E-04
  -9.39999986E-03  -2.77881772E-04
  -9.34999995E-03  -2.84888898E-04
  -9.30000003E-03  -2.92066747E-04
  -9.25000012E-03  -2.99464213E-04
  -9.20000020E-03  -3.07107141E-04
  -9.15000029E-03  -3.14986537E-04
  -9.10000037E-03  -3.23063781E-04
  -9.05000046E-03  -3.31289135E-04
  -8.99999961E-03  -3.39625578E-04
  -8.94999970E-03  -3.48066358E-04
  -8.89999978E-03  -3.56640143E-04
  -8.84999987E-03  -3.65400832E-04
  -8.79999995E-03  -3.74404597E-04
  -8.75000004E-03  -3.83686158E-04
  -8.70000012E-03  -3.93245165E-04
  -8.65000021E-03  -4.03048005E-04
  -8.60000029E-03  -4.13045142E-04
  -8.55000038E-03  -4.23194957E-04
  -8.50000046E-03  -4.33485664E-04
  -8.44999962E-03  -4.43944184E-04
  -8.39999970E-03  -4.54626512E-04
  -8.34999979E-03  -4.65595105E-04
  -8.29999987E-03  -4.76891204E-04
  -8.24999996E-03  -4.88520076E-04
  -8.20000004E-03  -5.00450667E-04
  -8.15000013E-03  -5.12630795E-04
  -8.10000021E-03  -5.25012671E-04
  -8.05000030E-03  -5.37576387E-04
  -8.00000038E-03  -5.50342025E-04
  -7.95000046E-03  -5.63361857E-04
  -7.89999962E-03  -5.76699502E-04
  -7.84999970E-03  -5.90403331E-04
  -7.79999979E-03  -6.04484580E-04
  -7.74999987E-03  -6.18914666E-04
  -7.69999996E-03  -6.33641670E-04
  -7.65000004E-03  -6.48615358E-04
  -7.60000013E-03  -6.63812738E-04
  -7.55000021E-03  -6.79250399E-04
  -7.49999983E-03  -6.94982125E-04
  -7.44999992E-03  -7.11075845E-04
  -7.40000000E-03  -7.27588253E-04
  -7.35000009E-03  -7.44538789E-04
  -7.30000017E-03  -7.61902018E-04
  -7.24999979E-03  -7.79625378E-04
  -7.19999988E-03  -7.97655317E-04
  -7.14999996E-03  -8.15964420E-04
  -7.10000005E-03  -8.34565493E-04
  -7.05000013E-03  -8.53509293E-04
  -7.00000022E-03  -8.72865552E-04
  -6.94999984E-03  -8.92693002E-04
  -6.89999992E-03  -9.13013180E-04
  -6.85000001E-03  -9.33804607E-04
  -6.80000009E-03  -9.55014722E-04
  -6.75000018E-03  -9.76587995E-04
  -6.69999979E-03  -9.98494215E-04
  -6.64999988E-03  -1.02074305E-03
  -6.59999996E-03  -1.04338303E-03
  -6.55000005E-03  -1.06648135E-03
  -6.50000013E-03  -1.09009596E-03
  -6.45000022E-03  -1.11425342E-03
  -6.39999984E-03  -1.13893987E-03
  -6.34999992E-03  -1.16410607E-03
  -6.30000001E-03  -1.18969893E-03
  -6.25000009E-03  -1.21568737E-03
  -6.20000018E-03  -1.24207779E-03
  -6.14999980E-03  -1.26892130E-03
  -6.09999988E-03  -1.29629043E-03
  -6.04999997E-03  -1.32424396E-03
  -6.00000005E-03  -1.35280471E-03
  -5.95000014E-03  -1.38196163E-03
  -5.90000022E-03  -1.41167454E-03
  -5.84999984E-03  -1.44189398E-03
  -5.79999993E-03  -1.47258618E-03
  -5.75000001E-03  -1.50375429E-03
  -5.70000010E-03  -1.53544173E-03
  -5.65000018E-03  -1.56771636E-03
  -5.59999980E-03  -1.60064292E-03
  -5.54999989E-03  -1.63425086E-03
  -5.49999997E-03  -1.66852737E-03
  -5.45000006E-03  -1.70342554E-03
  -5.40000014E-03  -1.73889287E-03
  -5.35000023E-03  -1.77489978E-03
  -5.29999984E-03  -1.81145465E-03
  -5.24999993E-03  -1.84860732E-03
  -5.20000001E-03  -1.88642857E-03
  -5.15000010E-03  -1.92497938E-03
  -5.10000018E-03  -1.96428876E-03
  -5.04999980E-03  -2.00434611E-03
  -4.99999989E-03  -2.04510801E-03
  -4.94999997E-03  -2.08652159E-03
  -4.90000006E-03  -2.12855940E-03
  -4.85000014E-03  -2.17123376E-03
  -4.80000023E-03  -2.21459754E-03
  -4.74999985E-03  -2.25872756E-03
  -4.69999993E-03  -2.30368669E-03
  -4.65000002E-03  -2.34949868E-03
  -4.60000010E-03  -2.39614490E-03
  -4.55000019E-03  -2.44358112E-03
  -4.49999981E-03  -2.49175308E-03
  -4.44999989E-03  -2.54062447E-03
  -4.39999998E-03  -2.59020668E-03
  -4.35000006E-03  -2.64055282E-03
  -4.30000015E-03  -2.69174273E-03
  -4.25000023E-03  -2.74385279E-03
  -4.19999985E-03  -2.79691606E-03
  -4.14999994E-03  -2.85091088E-03
  -4.10000002E-03  -2.90578115E-03
  -4.05000011E-03  -2.96145701E-03
  -4.00000019E-03  -3.01789818E-03
  -3.94999981E-03  -3.07511888E-03
  -3.89999989E-03  -3.13319033E-03
  -3.84999998E-03  -3.19221080E-03
  -3.80000006E-03  -3.25226272E-03
  -3.74999992E-03  -3.31338379E-03
  -3.70000000E-03  -3.37554794E-03
  -3.65000009E-03  -3.43867857E-03
  -3.59999994E-03  -3.50269349E-03
  -3.55000002E-03  -3.56755243E-03
  -3.50000011E-03  -3.63327609E-03
  -3.44999996E-03  -3.69993015E-03
  -3.40000005E-03  -3.76761192E-03
  -3.34999990E-03  -3.83640220E-03
  -3.29999998E-03  -3.90634267E-03
  -3.25000007E-03  -3.97742074E-03
  -3.19999992E-03  -4.04954934E-03
  -3.15000000E-03  -4.12264233E-03
  -3.10000009E-03  -4.19664616E-03
  -3.04999994E-03  -4.27155197E-03
  -3.00000003E-03  -4.34742915E-03
  -2.95000011E-03  -4.42438992E-03
  -2.89999996E-03  -4.50253719E-03
  -2.85000005E-03  -4.58193943E-03
  -2.79999990E-03  -4.66258870E-03
  -2.74999999E-03  -4.74438723E-03
  -2.70000007E-03  -4.82722791E-03
  -2.64999992E-03  -4.91102086E-03
  -2.60000001E-03  -4.99574840E-03
  -2.55000009E-03  -5.08148223E-03
  -2.49999994E-03  -5.16834855E-03
  -2.45000003E-03  -5.25648659E-03
  -2.40000011E-03  -5.34597645E-03
  -2.34999997E-03  -5.43680647E-03
  -2.30000005E-03  -5.52886724E-03
  -2.24999990E-03  -5.62199764E-03
  -2.19999999E-03  -5.71608543E-03
  -2.15000007E-03  -5.81111573E-03
  -2.09999993E-03  -5.90714812E-03
  -2.05000001E-03  -6.00432651E-03
  -2.00000009E-03  -6.10281480E-03
  -1.94999995E-03  -6.20271452E-03
  -1.90000003E-03  -6.30403496E-03
  -1.85000000E-03  -6.40665926E-03
  -1.79999997E-03  -6.51040580E-03
  -1.75000005E-03  -6.61513489E-03
  -1.70000002E-03  -6.72078738E-03
  -1.64999999E-03  -6.82741310E-03
  -1.59999996E-03  -6.93517737E-03
  -1.55000004E-03  -7.04425434E-03
  -1.50000001E-03  -7.15477625E-03
  -1.44999998E-03  -7.26678269E-03
  -1.39999995E-03  -7.38016283E-03
  -1.35000004E-03  -7.49471411E-03
  -1.30000000E-03  -7.61024095E-03
  -1.24999997E-03  -7.72663299E-03
  -1.20000006E-03  -7.84393027E-03
  -1.15000003E-03  -7.96229579E-03
  -1.09999999E-03  -8.08195025E-03
  -1.04999996E-03  -8.20310786E-03
  -1.00000005E-03  -8.32583010E-03
  -9.50000016E-04  -8.44997913E-03
  -8.99999985E-04  -8.57531745E-03
  -8.50000011E-04  -8.70158523E-03
  -7.99999980E-04  -8.82859528E-03
  -7.50000007E-04  -8.95636622E-03
  -6.99999975E-04  -9.08510759E-03
  -6.50000002E-04  -9.21509601E-03
  -6.00000028E-04  -9.34655964E-03
  -5.49999997E-04  -9.47960000E-03
  -5.00000024E-04  -9.61409509E-03
  -4.49999992E-04  -9.74975247E-03
  -3.99999990E-04  -9.88628529E-03
  -3.49999988E-04  -1.00235036E-02
  -3.00000014E-04  -1.01613617E-02
  -2.50000012E-04  -1.03000533E-02
  -1.99999995E-04  -1.04399044E-02
  -1.50000007E-04  -1.05811739E-02
  -9.99999975E-05  -1.07239587E-02
  -4.99999987E-05  -1.08681656E-02
   0.00000000      -1.10135069E-02
   4.99999987E-05  -1.11596100E-02
   9.99999975E-05  -1.13062691E-02
   1.50000007E-04  -1.14534441E-02
   1.99999995E-04  -1.16012758E-02
   2.50000012E-04  -1.17500778E-02
   3.00000014E-04  -1.19001353E-02
   3.49999988E-04  -1.20515935E-02
   3.99999990E-04  -1.22043649E-02
   4.49999992E-04  -1.23581672E-02
   5.00000024E-04  -1.25126531E-02
   5.49999997E-04  -1.26675516E-02
   6.00000028E-04  -1.28227687E-02
   6.50000002E-04  -1.29784150E-02
   6.99999975E-04  -1.31347654E-02
   7.50000007E-04  -1.32921217E-02
   7.99999980E-04  -1.34507352E-02
   8.50000011E-04  -1.36106117E-02
   8.99999985E-04  -1.37714632E-02
   9.50000016E-04  -1.39328511E-02
   1.00000005E-03  -1.40944133E-02
   1.04999996E-03  -1.42559893E-02
   1.09999999E-03  -1.44176139E-02
   1.15000003E-03  -1.45795904E-02
   1.20000006E-03  -1.47423316E-02
   1.24999997E-03  -1.49061382E-02
   1.30000000E-03  -1.50710447E-02
   1.35000004E-03  -1.52367642E-02
   1.39999995E-03  -1.54027902E-02
   1.44999998E-03  -1.55686857E-02
   1.50000001E-03  -1.57342311E-02
   1.55000004E-03  -1.58994775E-02
   1.59999996E-03  -1.60647221E-02
   1.64999999E-03  -1.62303522E-02
   1.70000002E-03  -1.63967088E-02
   1.75000005E-03  -1.65638495E-02
   1.79999997E-03  -1.67314857E-02
   1.85000000E-03  -1.68991592E-02
   1.90000003E-03  -1.70664657E-02
   1.94999995E-03  -1.72330830E-02
   2.00000009E-03  -1.73989255E-02
   2.05000001E-03  -1.75642706E-02
   2.09999993E-03  -1.77295282E-02
   2.15000007E-03  -1.78950801E-02
   2.19999999E-03  -1.80610586E-02
   2.24999990E-03  -1.82272717E-02
   2.30000005E-03  -1.83933098E-02
   2.34999997E-03  -1.85585767E-02
   2.40000011E-03  -1.87226366E-02
   2.45000003E-03  -1.88853759E-02
   2.49999994E-03  -1.90469716E-02
   2.55000009E-03  -1.92078855E-02
   2.60000001E-03  -1.93685535E-02
   2.64999992E-03  -1.95292216E-02
   2.70000007E-03  -1.96897611E-02
   2.74999999E-03  -1.98497437E-02
   2.79999990E-03  -2.00085919E-02