  -3.99999991E-02   0.00000000    
  -3.99499983E-02   0.00000000    
  -3.99000011E-02   0.00000000    
  -3.98500003E-02   0.00000000    
  -3.97999994E-02   7.28454487E-19
  -3.97499986E-02   5.90828394E-18
  -3.97000015E-02   2.56418942E-17
  -3.96500006E-02   7.83057541E-17
  -3.95999998E-02   1.87249630E-16
  -3.95499989E-02   3.70890078E-16
  -3.95000018E-02   6.30129091E-16
  -3.94500010E-02   9.41552083E-16
  -3.94000001E-02   1.26411059E-15
  -3.93499993E-02   1.56010160E-15
  -3.92999984E-02   1.82203119E-15
  -3.92500013E-02   2.09104292E-15
  -3.92000005E-02   2.45372189E-15
  -3.91499996E-02   3.01261688E-15
  -3.90999988E-02   3.83905613E-15
  -3.90500017E-02   4.92923497E-15
  -3.90000008E-02   6.18864972E-15
  -3.89500000E-02   7.45999450E-15
  -3.88999991E-02   8.58753850E-15
  -3.88499983E-02   9.48827080E-15
  -3.88000011E-02   1.01916554E-14
  -3.87500003E-02   1.08229643E-14
  -3.86999995E-02   1.15332362E-14
  -3.86499986E-02   1.24064636E-14
  -3.86000015E-02   1.33875234E-14
  -3.85500006E-02   1.42675246E-14
  -3.84999998E-02   1.47393965E-14
  -3.84499989E-02   1.45041619E-14
  -3.84000018E-02   1.33802263E-14
  -3.83500010E-02   1.13598994E-14
  -3.83000001E-02   8.57946882E-15
  -3.82499993E-02   5.21446018E-15
  -3.81999984E-02   1.35469145E-15
  -3.81500013E-02  -3.07408310E-15
  -3.81000005E-02  -8.30325731E-15
  -3.80499996E-02  -1.46398684E-14
  -3.79999988E-02  -2.23605704E-14
  -3.79500017E-02  -3.16387135E-14
  -3.79000008E-02  -4.25393329E-14
  -3.78500000E-02  -5.50788866E-14
  -3.77999991E-02  -6.93110798E-14
  -3.77499983E-02  -8.53816597E-14
  -3.77000012E-02  -1.03506010E-13
  -3.76500003E-02  -1.23866534E-13
  -3.75999995E-02  -1.46484563E-13
  -3.75499986E-02  -1.71154500E-13
  -3.75000015E-02  -1.97502537E-13
  -3.74500006E-02  -2.25152796E-13
  -3.73999998E-02  -2.53901202E-13
  -3.73499990E-02  -2.83772273E-13
  -3.73000018E-02  -3.14893917E-13
  -3.72500010E-02  -3.47236129E-13
  -3.72000001E-02  -3.80355822E-13
  -3.71499993E-02  -4.13317492E-13
  -3.70999984E-02  -4.44894555E-13
  -3.70500013E-02  -4.74022893E-13
  -3.70000005E-02  -5.00322819E-13
  -3.69499996E-02  -5.24405714E-13
  -3.68999988E-02  -5.47713188E-13
  -3.68500017E-02  -5.71825952E-13
  -3.68000008E-02  -5.97469665E-13
  -3.67500000E-02  -6.23678626E-13
  -3.66999991E-02  -6.47603011E-13
  -3.66499983E-02  -6.65197823E-13
  -3.66000012E-02  -6.72610513E-13
  -3.65500003E-02  -6.67695337E-13
  -3.64999995E-02  -6.50930644E-13
  -3.64499986E-02  -6.25202039E-13
  -3.64000015E-02  -5.94391615E-13
  -3.63500006E-02  -5.61292928E-13
  -3.62999998E-02  -5.25795770E-13
  -3.62499990E-02  -4.84312460E-13
  -3.62000018E-02  -4.30947026E-13
  -3.61500010E-02  -3.60092761E-13
  -3.61000001E-02  -2.69348264E-13
  -3.60499993E-02  -1.61302815E-13
  -3.59999985E-02  -4.31098604E-14
  -3.59500013E-02   7.62607954E-14
  -3.59000005E-02   1.90050314E-13
  -3.58499996E-02   2.97206975E-13
  -3.57999988E-02   4.03569674E-13
  -3.57500017E-02   5.19846373E-13
  -3.57000008E-02   6.56942653E-13
  -3.56500000E-02   8.20551038E-13
  -3.55999991E-02   1.00753997E-12
  -3.55499983E-02   1.20612830E-12
  -3.55000012E-02   1.40021783E-12
  -3.54500003E-02   1.57624521E-12
  -3.53999995E-02   1.72946987E-12
  -3.53499986E-02   1.86654381E-12
  -3.53000015E-02   2.00269770E-12
  -3.52500007E-02   2.15433899E-12
  -3.51999998E-02   2.33017186E-12
  -3.51499990E-02   2.52500906E-12
  -3.51000018E-02   2.71959560E-12
  -3.50500010E-02   2.88723255E-12
  -3.50000001E-02   3.00480149E-12
  -3.49499993E-02   3.06338288E-12
  -3.48999985E-02   3.07332718E-12
  -3.48500013E-02   3.06074697E-12
  -3.48000005E-02   3.05623409E-12
  -3.47499996E-02   3.08042545E-12
  -3.46999988E-02   3.13300427E-12
  -3.46500017E-02   3.19067581E-12
  -3.46000008E-02   3.21586464E-12
  -3.45500000E-02   3.17292546E-12
  -3.44999991E-02   3.04481657E-12
  -3.44499983E-02   2.84235005E-12
  -3.44000012E-02   2.60098540E-12
  -3.43500003E-02   2.36560532E-12
  -3.42999995E-02   2.16950308E-12
  -3.42499986E-02   2.01711803E-12
  -3.42000015E-02   1.87910668E-12
  -3.41500007E-02   1.70316918E-12
  -3.40999998E-02   1.43681074E-12
  -3.40499990E-02   1.05221333E-12
  -3.40000018E-02   5.61610762E-13
  -3.39500010E-02   1.51682645E-14
  -3.39000002E-02  -5.18975000E-13
  -3.38499993E-02  -9.84450043E-13
  -3.37999985E-02  -1.36292757E-12
  -3.37500013E-02  -1.68430049E-12
  -3.37000005E-02  -2.01483773E-12
  -3.36499996E-02  -2.42733177E-12
  -3.35999988E-02  -2.96608549E-12
  -3.35500017E-02  -3.62296521E-12
  -3.35000008E-02  -4.33665387E-12
  -3.34500000E-02  -5.01709698E-12
  -3.33999991E-02  -5.58532604E-12
  -3.33499983E-02  -6.01088753E-12
  -3.33000012E-02  -6.32901674E-12
  -3.32500003E-02  -6.62802539E-12
  -3.31999995E-02  -7.01073618E-12
  -3.31499986E-02  -7.54625789E-12
  -3.31000015E-02  -8.23400115E-12
  -3.30500007E-02  -8.99758480E-12
  -3.29999998E-02  -9.71340543E-12
  -3.29499990E-02  -1.02627585E-11
  -3.29000019E-02  -1.05846538E-11
  -3.28500010E-02  -1.07047600E-11
  -3.28000002E-02  -1.07256608E-11
  -3.27499993E-02  -1.07807947E-11
  -3.26999985E-02  -1.09716481E-11
  -3.26500013E-02  -1.13166403E-11
  -3.26000005E-02  -1.17362734E-11
  -3.25499997E-02  -1.20835234E-11
  -3.24999988E-02  -1.22077435E-11
  -3.24500017E-02  -1.20240658E-11
  -3.24000008E-02  -1.15561111E-11
  -3.23500000E-02  -1.09305022E-11
  -3.22999991E-02  -1.03230263E-11
  -3.22499983E-02  -9.87884254E-12
  -3.22000012E-02  -9.64247085E-12
  -3.21500003E-02  -9.53064971E-12
  -3.20999995E-02  -9.36290802E-12
  -3.20499986E-02  -8.93855736E-12
  -3.20000015E-02  -8.12675448E-12
  -3.19500007E-02  -6.92853717E-12
  -3.18999998E-02  -5.48081068E-12
  -3.18499990E-02  -3.99789316E-12
  -3.18000019E-02  -2.67496724E-12
  -3.17500010E-02  -1.59667331E-12
  -3.17000002E-02  -6.93663659E-13
  -3.16499993E-02   2.30439040E-13
  -3.15999985E-02   1.41094916E-12
  -3.15500014E-02   3.01111306E-12
  -3.15000005E-02   5.03885648E-12
  -3.14499997E-02   7.33131698E-12
  -3.13999988E-02   9.61759752E-12
  -3.13500017E-02   1.16342240E-11
  -3.13000008E-02   1.32422788E-11
  -3.12500000E-02   1.44920803E-11
  -3.11999992E-02   1.56033467E-11
  -3.11500002E-02   1.68664752E-11
  -3.10999993E-02   1.85072149E-11
  -3.10500003E-02   2.05757598E-11
  -3.09999995E-02   2.29123023E-11
  -3.09500005E-02   2.52078688E-11
  -3.08999997E-02   2.71358873E-11
  -3.08500007E-02   2.84963581E-11
  -3.07999998E-02   2.93064149E-11
  -3.07500008E-02   2.97934628E-11
  -3.07000000E-02   3.02904889E-11
  -3.06499992E-02   3.10785495E-11
  -3.06000002E-02   3.22474061E-11
  -3.05499993E-02   3.36395876E-11
  -3.05000003E-02   3.49069142E-11
  -3.04499995E-02   3.56576053E-11
  -3.04000005E-02   3.56294820E-11
  -3.03499997E-02   3.48104497E-11
  -3.03000007E-02   3.34490595E-11
  -3.02499998E-02   3.19465773E-11
  -3.02000009E-02   3.06764093E-11
  -3.01500000E-02   2.98116636E-11
  -3.00999992E-02   2.92406203E-11
  -3.00500002E-02   2.86116703E-11
  -2.99999993E-02   2.74909262E-11
  -2.99500003E-02   2.55631800E-11
  -2.98999995E-02   2.27845711E-11
  -2.98500005E-02   1.94149592E-11
  -2.97999997E-02   1.59112376E-11
  -2.97500007E-02   1.27263937E-11
  -2.96999998E-02   1.01042152E-11
  -2.96500009E-02   7.96414670E-12
  -2.96000000E-02   5.93230586E-12
  -2.95499992E-02   3.50905958E-12
  -2.95000002E-02   3.00126758E-13
  -2.94499993E-02  -3.79306178E-12
  -2.94000003E-02  -8.51254570E-12
  -2.93499995E-02  -1.33441444E-11
  -2.93000005E-02  -1.77372249E-11
  -2.92499997E-02  -2.13461800E-11
  -2.92000007E-02  -2.41832353E-11
  -2.91499998E-02  -2.66102175E-11
  -2.91000009E-02  -2.91691012E-11
  -2.90500000E-02  -3.23254409E-11
  -2.89999992E-02  -3.62408922E-11
  -2.89500002E-02  -4.06806429E-11
  -2.88999993E-02  -4.51022622E-11
  -2.88500004E-02  -4.88898817E-11
  -2.87999995E-02  -5.16296381E-11
  -2.87500005E-02  -5.33004717E-11
  -2.86999997E-02  -5.42900308E-11
  -2.86500007E-02  -5.52237180E-11
  -2.85999998E-02  -5.66807261E-11
  -2.85500009E-02  -5.89247262E-11
  -2.85000000E-02  -6.17733156E-11
  -2.84499992E-02  -6.46694295E-11
  -2.84000002E-02  -6.69264782E-11
  -2.83499993E-02  -6.80384499E-11
  -2.83000004E-02  -6.79135775E-11
  -2.82499995E-02  -6.69222941E-11
  -2.82000005E-02  -6.57332036E-11
  -2.81499997E-02  -6.50082904E-11
  -2.81000007E-02  -6.50951029E-11
  -2.80499998E-02  -6.58585131E-11
  -2.80000009E-02  -6.67333064E-11
  -2.79500000E-02  -6.69787559E-11
  -2.78999992E-02  -6.60223473E-11
  -2.78500002E-02  -6.37357320E-11
  -2.77999993E-02  -6.05137399E-11
  -2.77500004E-02  -5.71146533E-11
  -2.76999995E-02  -5.43294680E-11
  -2.76500005E-02  -5.26282282E-11
  -2.75999997E-02  -5.19459233E-11
  -2.75500007E-02  -5.17096088E-11
  -2.74999999E-02  -5.10996696E-11
  -2.74500009E-02  -4.94295750E-11
  -2.74000000E-02  -4.64714135E-11
  -2.73499992E-02  -4.25753877E-11
  -2.73000002E-02  -3.85237710E-11
  -2.72499993E-02  -3.51810733E-11
  -2.72000004E-02  -3.30982255E-11
  -2.71499995E-02  -3.22534395E-11
  -2.71000005E-02  -3.20530859E-11
  -2.70499997E-02  -3.15986681E-11
  -2.70000007E-02  -3.01023928E-11
  -2.69499999E-02  -2.72621457E-11
  -2.69000009E-02  -2.34208365E-11
  -2.68500000E-02  -1.94307938E-11
  -2.67999992E-02  -1.62787093E-11
  -2.67500002E-02  -1.46390105E-11
  -2.66999993E-02  -1.45608439E-11
  -2.66500004E-02  -1.54366502E-11
  -2.65999995E-02  -1.62732380E-11
  -2.65500005E-02  -1.61462736E-11
  -2.64999997E-02  -1.46311210E-11
  -2.64500007E-02  -1.20090726E-11
  -2.63999999E-02  -9.14748312E-12
  -2.63500009E-02  -7.10168816E-12
  -2.63000000E-02  -6.61715691E-12
  -2.62499992E-02  -7.76156917E-12
  -2.62000002E-02  -9.86187781E-12
  -2.61499994E-02  -1.17839228E-11
  -2.61000004E-02  -1.24336132E-11
  -2.60499995E-02  -1.12520635E-11
  -2.60000005E-02  -8.47384749E-12
  -2.59499997E-02  -5.02153310E-12
  -2.59000007E-02  -2.07566711E-12
  -2.58499999E-02  -5.11604648E-13
  -2.58000009E-02  -4.61695081E-13
  -2.57500000E-02  -1.20989091E-12
  -2.56999992E-02  -1.47684577E-12
  -2.56500002E-02   2.70485386E-14
  -2.55999994E-02   4.03138764E-12
  -2.55500004E-02   1.03838370E-11
  -2.54999995E-02   1.81339180E-11
  -2.54500005E-02   2.59946214E-11
  -2.53999997E-02   3.29768643E-11
  -2.53500007E-02   3.89049036E-11
  -2.52999999E-02   4.45678668E-11
  -2.52500009E-02   5.14250621E-11
  -2.52000000E-02   6.09884365E-11
  -2.51499992E-02   7.41600809E-11
  -2.51000002E-02   9.08317033E-11
  -2.50499994E-02   1.09940265E-10
  -2.50000004E-02   1.29966871E-10
  -2.49499995E-02   1.49659174E-10
  -2.49000005E-02   1.68646569E-10
  -2.48499997E-02   1.87657501E-10
  -2.48000007E-02   2.08225395E-10
  -2.47499999E-02   2.32004915E-10
  -2.47000009E-02   2.60005767E-10
  -2.46500000E-02   2.92099983E-10
  -2.45999992E-02   3.27041005E-10
  -2.45500002E-02   3.63002267E-10
  -2.44999994E-02   3.98399286E-10
  -2.44500004E-02   4.32620190E-10
  -2.43999995E-02   4.66319261E-10
  -2.43500005E-02   5.01121034E-10
  -2.42999997E-02   5.38852407E-10
  -2.42500007E-02   5.80644199E-10
  -2.41999999E-02   6.26316332E-10
  -2.41500009E-02   6.74341583E-10
  -2.41000000E-02   7.22423954E-10
  -2.40499992E-02   7.68442143E-10
  -2.40000002E-02   8.11330558E-10
  -2.39499994E-02   8.51485826E-10
  -2.39000004E-02   8.90493290E-10
  -2.38499995E-02   9.30280464E-10
  -2.38000005E-02   9.72071312E-10
  -2.37499997E-02   1.01562425E-09
  -2.37000007E-02   1.05911757E-09
  -2.36499999E-02   1.09975784E-09
  -2.36000009E-02   1.13485332E-09
  -2.35500000E-02   1.16286758E-09
  -2.34999992E-02   1.18396359E-09
  -2.34500002E-02   1.19976606E-09
  -2.33999994E-02   1.21242694E-09
  -2.33500004E-02   1.22340427E-09
  -2.32999995E-02   1.23251154E-09
  -2.32500006E-02   1.23768784E-09
  -2.31999997E-02   1.23562083E-09
  -2.31500007E-02   1.22295940E-09
  -2.30999999E-02   1.19757659E-09
  -2.30500009E-02   1.15929599E-09
  -2.30000000E-02   1.10972975E-09
  -2.29499992E-02   1.05127429E-09
  -2.29000002E-02   9.85702964E-10
  -2.28499994E-02   9.12995901E-10
  -2.28000004E-02   8.30960134E-10
  -2.27499995E-02   7.35841055E-10
  -2.27000006E-02   6.23678276E-10
  -2.26499997E-02   4.91800822E-10
  -2.26000007E-02   3.39776068E-10
  -2.25499999E-02   1.69353240E-10
  -2.25000009E-02  -1.66027418E-11
  -2.24500000E-02  -2.15728491E-10
  -2.23999992E-02  -4.27601260E-10
  -2.23500002E-02  -6.54326426E-10
  -2.22999994E-02  -8.99977148E-10
  -2.22500004E-02  -1.16910637E-09
  -2.21999995E-02  -1.46498924E-09
  -2.21500006E-02  -1.78839787E-09
  -2.20999997E-02  -2.13749307E-09
  -2.20500007E-02  -2.50891063E-09
  -2.19999999E-02  -2.89958857E-09
  -2.19500009E-02  -3.30850503E-09
  -2.19000001E-02  -3.73752362E-09
  -2.18499992E-02  -4.19093293E-09
  -2.18000002E-02  -4.67383998E-09
  -2.17499994E-02  -5.19013277E-09
  -2.17000004E-02  -5.74092818E-09
  -2.16499995E-02  -6.32423625E-09
  -2.16000006E-02  -6.93603086E-09
  -2.15499997E-02  -7.57227969E-09
  -2.15000007E-02  -8.23102564E-09
  -2.14499999E-02  -8.91356144E-09
  -2.14000009E-02  -9.62413882E-09
  -2.13500001E-02  -1.03682973E-08
  -2.12999992E-02  -1.11505480E-08
  -2.12500002E-02  -1.19724506E-08
  -2.11999994E-02  -1.28319906E-08
  -2.11500004E-02  -1.37245664E-08
  -2.10999995E-02  -1.46451935E-08
  -2.10500006E-02  -1.55909383E-08
  -2.09999997E-02  -1.65624723E-08
  -2.09500007E-02  -1.75640036E-08
  -2.08999999E-02  -1.86015949E-08
  -2.08500009E-02  -1.96805381E-08
  -2.08000001E-02  -2.08030464E-08
  -2.07499992E-02  -2.19672298E-08
  -2.07000002E-02  -2.31679653E-08
  -2.06499994E-02  -2.43992311E-08
  -2.06000004E-02  -2.56569077E-08
  -2.05499995E-02  -2.69408122E-08
  -2.05000006E-02  -2.82549326E-08
  -2.04499997E-02  -2.96058200E-08
  -2.04000007E-02  -3.09997148E-08
  -2.03499999E-02  -3.24397966E-08
  -2.03000009E-02  -3.39247244E-08
  -2.02500001E-02  -3.54492613E-08
  -2.01999992E-02  -3.70066964E-08
  -2.01500002E-02  -3.85919847E-08
  -2.00999994E-02  -4.02042737E-08
  -2.00500004E-02  -4.18475530E-08
  -1.99999996E-02  -4.35291376E-08
  -1.99500006E-02  -4.52566056E-08
  -1.98999997E-02  -4.70345789E-08
  -1.98500007E-02  -4.88627343E-08
  -1.97999999E-02  -5.07361015E-08
  -1.97500009E-02  -5.26474722E-08
  -1.97000001E-02  -5.45908989E-08
  -1.96499992E-02  -5.65647511E-08
  -1.96000002E-02  -5.85728550E-08
  -1.95499994E-02  -6.06232504E-08
  -1.95000004E-02  -6.27249790E-08
  -1.94499996E-02  -6.48844178E-08
  -1.94000006E-02  -6.71027465E-08
  -1.93499997E-02  -6.93757727E-08
  -1.93000007E-02  -7.16962845E-08
  -1.92499999E-02  -7.40577590E-08
  -1.92000009E-02  -7.64580150E-08
  -1.91500001E-02  -7.89009036E-08
  -1.90999992E-02  -8.13953562E-08
  -1.90500002E-02  -8.39521590E-08
  -1.89999994E-02  -8.65798242E-08
  -1.89500004E-02  -8.92814356E-08
  -1.88999996E-02  -9.20539875E-08
  -1.88500006E-02  -9.48904528E-08
  -1.87999997E-02  -9.77837757E-08
  -1.87500007E-02  -1.00730986E-07
  -1.86999999E-02  -1.03735651E-07
  -1.86500009E-02  -1.06807292E-07
  -1.86000001E-02  -1.09958286E-07
  -1.85499992E-02  -1.13199327E-07
  -1.85000002E-02  -1.16535674E-07
  -1.84499994E-02  -1.19965819E-07
  -1.84000004E-02  -1.23483190E-07
  -1.83499996E-02  -1.27080398E-07
  -1.83000006E-02  -1.30753747E-07
  -1.82499997E-02  -1.34506365E-07
  -1.82000007E-02  -1.38348327E-07
  -1.81499999E-02  -1.42293544E-07
  -1.81000009E-02  -1.46355035E-07
  -1.80500001E-02  -1.50540501E-07
  -1.79999992E-02  -1.54850227E-07
  -1.79500002E-02  -1.59278429E-07
  -1.78999994E-02  -1.63817347E-07
  -1.78500004E-02  -1.68462336E-07
  -1.77999996E-02  -1.73215767E-07
  -1.77500006E-02  -1.78087646E-07
  -1.76999997E-02  -1.83092965E-07
  -1.76500008E-02  -1.88246815E-07
  -1.75999999E-02  -1.93559217E-07
  -1.75500009E-02  -1.99032428E-07
  -1.75000001E-02  -2.04661617E-07
  -1.74499992E-02  -2.10438870E-07
  -1.74000002E-02  -2.16358643E-07
  -1.73499994E-02  -2.22422358E-07
  -1.73000004E-02  -2.28639863E-07
  -1.72499996E-02  -2.35027187E-07
  -1.72000006E-02  -2.41601498E-07
  -1.71499997E-02  -2.48375471E-07
  -1.71000008E-02  -2.55353768E-07
  -1.70499999E-02  -2.62532865E-07
  -1.70000009E-02  -2.69904916E-07
  -1.69500001E-02  -2.77463414E-07
  -1.68999992E-02  -2.85208586E-07
  -1.68500002E-02  -2.93149498E-07
  -1.67999994E-02  -3.01302691E-07
  -1.67500004E-02  -3.09686953E-07
  -1.66999996E-02  -3.18317433E-07
  -1.66500006E-02  -3.27201036E-07
  -1.65999997E-02  -3.36335830E-07
  -1.65500008E-02  -3.45714312E-07
  -1.64999999E-02  -3.55329263E-07
  -1.64500009E-02  -3.65179659E-07
  -1.64000001E-02  -3.75273942E-07
  -1.63499992E-02  -3.85629136E-07
  -1.63000003E-02  -3.96265904E-07
  -1.62499994E-02  -4.07202151E-07
  -1.62000004E-02  -4.18447911E-07
  -1.61499996E-02  -4.30003467E-07
  -1.61000006E-02  -4.41862340E-07
  -1.60499997E-02  -4.54016970E-07
  -1.60000008E-02  -4.66465366E-07
  -1.59499999E-02  -4.79215032E-07
  -1.59000009E-02  -4.92283164E-07
  -1.58500001E-02  -5.05692014E-07
  -1.57999992E-02  -5.19462162E-07
  -1.57500003E-02  -5.33606851E-07
  -1.56999994E-02  -5.48129094E-07
  -1.56500004E-02  -5.63024116E-07
  -1.55999996E-02  -5.78284585E-07
  -1.55499997E-02  -5.93908226E-07
  -1.54999997E-02  -6.09902145E-07
  -1.54499998E-02  -6.26284191E-07
  -1.53999999E-02  -6.43078636E-07
  -1.53500000E-02  -6.60309581E-07
  -1.53000001E-02  -6.77994137E-07
  -1.52500002E-02  -6.96139296E-07
  -1.52000003E-02  -7.14742782E-07
  -1.51500003E-02  -7.33798629E-07
  -1.51000004E-02  -7.53304562E-07
  -1.50499996E-02  -7.73267686E-07
  -1.49999997E-02  -7.93706420E-07
  -1.49499997E-02  -8.14647024E-07
  -1.48999998E-02  -8.36116897E-07
  -1.48499999E-02  -8.58137469E-07
  -1.48000000E-02  -8.80719710E-07
  -1.47500001E-02  -9.03864589E-07
  -1.47000002E-02  -9.27568010E-07
  -1.46500003E-02  -9.51828667E-07
  -1.46000003E-02  -9.76654178E-07
  -1.45500004E-02  -1.00206375E-06
  -1.44999996E-02  -1.02808599E-06
  -1.44499997E-02  -1.05475215E-06
  -1.43999998E-02  -1.08208826E-06
  -1.43499998E-02  -1.11011036E-06
  -1.42999999E-02  -1.13882356E-06
  -1.42500000E-02  -1.16822685E-06
  -1.42000001E-02  -1.19831998E-06
  -1.41500002E-02  -1.22911126E-06
  -1.41000003E-02  -1.26062082E-06
  -1.40500003E-02  -1.29287946E-06
  -1.40000004E-02  -1.32592163E-06
  -1.39499996E-02  -1.35977825E-06
  -1.38999997E-02  -1.39447025E-06
  -1.38499998E-02  -1.43000727E-06
  -1.37999998E-02  -1.46639104E-06
  -1.37499999E-02  -1.50362325E-06
  -1.37000000E-02  -1.54171312E-06
  -1.36500001E-02  -1.58068190E-06
  -1.36000002E-02  -1.62056222E-06
  -1.35500003E-02  -1.66139239E-06
  -1.35000004E-02  -1.70320766E-06
  -1.34500004E-02  -1.74603417E-06
  -1.33999996E-02  -1.78988671E-06
  -1.33499997E-02  -1.83477073E-06
  -1.32999998E-02  -1.88069043E-06
  -1.32499998E-02  -1.92765629E-06
  -1.31999999E-02  -1.97569079E-06
  -1.31500000E-02  -2.02482829E-06
  -1.31000001E-02  -2.07510993E-06
  -1.30500002E-02  -2.12657551E-06
  -1.30000003E-02  -2.17925549E-06
  -1.29500004E-02  -2.23316988E-06
  -1.29000004E-02  -2.28832778E-06
  -1.28499996E-02  -2.34473578E-06
  -1.27999997E-02  -2.40240593E-06
  -1.27499998E-02  -2.46136165E-06
  -1.26999998E-02  -2.52163841E-06
  -1.26499999E-02  -2.58328078E-06
  -1.26000000E-02  -2.64633240E-06
  -1.25500001E-02  -2.71082990E-06
  -1.25000002E-02  -2.77679783E-06
  -1.24500003E-02  -2.84425028E-06
  -1.24000004E-02  -2.91319702E-06
  -1.23500004E-02  -2.98365194E-06
  -1.22999996E-02  -3.05563981E-06
  -1.22499997E-02  -3.12919747E-06
  -1.21999998E-02  -3.20437084E-06
  -1.21499998E-02  -3.28120859E-06
  -1.20999999E-02  -3.35975119E-06
  -1.20500000E-02  -3.44002819E-06
  -1.20000001E-02  -3.52205825E-06
  -1.19500002E-02  -3.60585364E-06
  -1.19000003E-02  -3.69143027E-06
  -1.18500004E-02  -3.77881361E-06
  -1.18000004E-02  -3.86804277E-06
  -1.17499996E-02  -3.95916686E-06
  -1.16999997E-02  -4.05223864E-06
  -1.16499998E-02  -4.14730312E-06
  -1.15999999E-02  -4.24439622E-06
  -1.15499999E-02  -4.34354024E-06
  -1.15000000E-02  -4.44475154E-06
  -1.14500001E-02  -4.54804785E-06
  -1.14000002E-02  -4.65345693E-06
  -1.13500003E-02  -4.76101923E-06
  -1.13000004E-02  -4.87078523E-06
  -1.12500004E-02  -4.98281133E-06
  -1.11999996E-02  -5.09714755E-06
  -1.11499997E-02  -5.21383390E-06
  -1.10999998E-02  -5.33289858E-06
  -1.10499999E-02  -5.45436160E-06
  -1.09999999E-02  -5.57824524E-06
  -1.09500000E-02  -5.70457951E-06
  -1.09000001E-02  -5.83340761E-06
  -1.08500002E-02  -5.96478321E-06
  -1.08000003E-02  -6.09876679E-06
  -1.07500004E-02  -6.23541246E-06
  -1.07000005E-02  -6.37476660E-06
  -1.06499996E-02  -6.51686196E-06
  -1.05999997E-02  -6.66172400E-06
  -1.05499998E-02  -6.80937683E-06
  -1.04999999E-02  -6.95985318E-06
  -1.04499999E-02  -7.11319717E-06
  -1.04000000E-02  -7.26946428E-06
  -1.03500001E-02  -7.42871907E-06
  -1.03000002E-02  -7.59102113E-06
  -1.02500003E-02  -7.75642093E-06
  -1.02000004E-02  -7.92496030E-06
  -1.01500005E-02  -8.09666653E-06
  -1.00999996E-02  -8.27157055E-06
  -1.00499997E-02  -8.44970691E-06
  -9.99999978E-03  -8.63112473E-06
  -9.94999986E-03  -8.81588312E-06
  -9.89999995E-03  -9.00404848E-06
  -9.85000003E-03  -9.19568720E-06
  -9.80000012E-03  -9.39085658E-06
  -9.75000020E-03  -9.58959936E-06
  -9.70000029E-03  -9.79195192E-06
  -9.65000037E-03  -9.99794702E-06
  -9.60000046E-03  -1.02076210E-05
  -9.54999961E-03  -1.04210239E-05
  -9.49999969E-03  -1.06382186E-05
  -9.44999978E-03  -1.08592722E-05
  -9.39999986E-03  -1.10842566E-05
  -9.34999995E-03  -1.13132292E-05
  -9.30000003E-03  -1.15462408E-05
  -9.25000012E-03  -1.17833306E-05
  -9.20000020E-03  -1.20245331E-05
  -9.15000029E-03  -1.22698884E-05
  -9.10000037E-03  -1.25194510E-05
  -9.05000046E-03  -1.27732856E-05
  -8.99999961E-03  -1.30314656E-05
  -8.94999970E-03  -1.32940631E-05
  -8.89999978E-03  -1.35611444E-05
  -8.84999987E-03  -1.38327632E-05
  -8.79999995E-03  -1.41089622E-05
  -8.75000004E-03  -1.43897814E-05
  -8.70000012E-03  -1.46752636E-05
  -8.65000021E-03  -1.49654634E-05
  -8.60000029E-03  -1.52604480E-05
  -8.55000038E-03  -1.55602938E-05
  -8.50000046E-03  -1.58650728E-05
  -8.44999962E-03  -1.61748558E-05
  -8.39999970E-03  -1.64896956E-05
  -8.34999979E-03  -1.68096376E-05
  -8.29999987E-03  -1.71347183E-05
  -8.24999996E-03  -1.74649867E-05
  -8.20000004E-03  -1.78004921E-05
  -8.15000013E-03  -1.81413034E-05
  -8.10000021E-03  -1.84874934E-05
  -8.05000030E-03  -1.88391441E-05
  -8.00000038E-03  -1.91963227E-05
  -7.95000046E-03  -1.95590910E-05
  -7.89999962E-03  -1.99274909E-05
  -7.84999970E-03  -2.03015643E-05
  -7.79999979E-03  -2.06813565E-05
  -7.74999987E-03  -2.10669241E-05
  -7.69999996E-03  -2.14583324E-05
  -7.65000004E-03  -2.18556615E-05
  -7.60000013E-03  -2.22589897E-05
  -7.55000021E-03  -2.26683860E-05
  -7.49999983E-03  -2.30839087E-05
  -7.44999992E-03  -2.35056032E-05
  -7.40000000E-03  -2.39335077E-05
  -7.35000009E-03  -2.43676677E-05
  -7.30000017E-03  -2.48081287E-05
  -7.24999979E-03  -2.52549617E-05
  -7.19999988E-03  -2.57082374E-05
  -7.14999996E-03  -2.61680289E-05
  -7.10000005E-03  -2.66344086E-05
  -7.05000013E-03  -2.71074277E-05
  -7.00000022E-03  -2.75871353E-05
  -6.94999984E-03  -2.80735585E-05
  -6.89999992E-03  -2.85667411E-05
  -6.85000001E-03  -2.90667249E-05
  -6.80000009E-03  -2.95735754E-05
  -6.75000018E-03  -3.00873617E-05
  -6.69999979E-03  -3.06081565E-05
  -6.64999988E-03  -3.11360309E-05
  -6.59999996E-03  -3.16710357E-05
  -6.55000005E-03  -3.22132073E-05
  -6.50000013E-03  -3.27625785E-05
  -6.45000022E-03  -3.33191747E-05
  -6.39999984E-03  -3.38830396E-05
  -6.34999992E-03  -3.44542277E-05
  -6.30000001E-03  -3.50327973E-05
  -6.25000009E-03  -3.56188248E-05
  -6.20000018E-03  -3.62123646E-05
  -6.14999980E-03  -3.68134642E-05
  -6.09999988E-03  -3.74221527E-05
  -6.04999997E-03  -3.80384517E-05
  -6.00000005E-03  -3.86623760E-05
  -5.95000014E-03  -3.92939546E-05
  -5.90000022E-03  -3.99332312E-05
  -5.84999984E-03  -4.05802530E-05
  -5.79999993E-03  -4.12350782E-05
  -5.75000001E-03  -4.18977579E-05
  -5.70000010E-03  -4.25683356E-05
  -5.65000018E-03  -4.32468187E-05
  -5.59999980E-03  -4.39332289E-05
  -5.54999989E-03  -4.46275662E-05
  -5.49999997E-03  -4.53298417E-05
  -5.45000006E-03  -4.60400806E-05
  -5.40000014E-03  -4.67583232E-05
  -5.35000023E-03  -4.74846129E-05
  -5.29999984E-03  -4.82189935E-05
  -5.24999993E-03  -4.89614831E-05
  -5.20000001E-03  -4.97120818E-05
  -5.15000010E-03  -5.04707859E-05
  -5.10000018E-03  -5.12375809E-05
  -5.04999980E-03  -5.20124668E-05
  -4.99999989E-03  -5.27954398E-05
  -4.94999997E-03  -5.35865183E-05
  -4.90000006E-03  -5.43857168E-05
  -4.85000014E-03  -5.51930607E-05
  -4.80000023E-03  -5.60085500E-05
  -4.74999985E-03  -5.68321739E-05
  -4.69999993E-03  -5.76638922E-05
  -4.65000002E-03  -5.85036723E-05
  -4.60000010E-03  -5.93514815E-05
  -4.55000019E-03  -6.02072942E-05
  -4.49999981E-03  -6.10711068E-05
  -4.44999989E-03  -6.19429047E-05
  -4.39999998E-03  -6.28226990E-05
  -4.35000006E-03  -6.37104677E-05
  -4.30000015E-03  -6.46061453E-05
  -4.25000023E-03  -6.55097028E-05
  -4.19999985E-03  -6.64210602E-05
  -4.14999994E-03  -6.73401591E-05
  -4.10000002E-03  -6.82669488E-05
  -4.05000011E-03  -6.92013928E-05
  -4.00000019E-03  -7.01434328E-05
  -3.94999981E-03  -7.10930617E-05
  -3.89999989E-03  -7.20502212E-05
  -3.84999998E-03  -7.30148167E-05
  -3.80000006E-03  -7.39867755E-05
  -3.74999992E-03  -7.49659885E-05
  -3.70000000E-03  -7.59523537E-05
  -3.65000009E-03  -7.69457765E-05
  -3.59999994E-03  -7.79461916E-05
  -3.55000002E-03  -7.89535188E-05
  -3.50000011E-03  -7.99676709E-05
  -3.44999996E-03  -8.09885823E-05
  -3.40000005E-03  -8.20161149E-05
  -3.34999990E-03  -8.30501594E-05
  -3.29999998E-03  -8.40905559E-05
  -3.25000007E-03  -8.51371733E-05
  -3.19999992E-03  -8.61898661E-05
  -3.15000000E-03  -8.72485398E-05
  -3.10000009E-03  -8.83130633E-05
  -3.04999994E-03  -8.93833130E-05
  -3.00000003E-03  -9.04591652E-05
  -2.95000011E-03  -9.15404671E-05
  -2.89999996E-03  -9.26270295E-05
  -2.85000005E-03  -9.37186851E-05
  -2.79999990E-03  -9.48152447E-05
  -2.74999999E-03  -9.59165045E-05
  -2.70000007E-03  -9.70222973E-05
  -2.64999992E-03  -9.81324629E-05
  -2.60000001E-03  -9.92468413E-05
  -2.55000009E-03  -1.00365229E-04
  -2.49999994E-03  -1.01487414E-04
  -2.45000003E-03  -1.02613187E-04
  -2.40000011E-03  -1.03742292E-04
  -2.34999997E-03  -1.04874489E-04
  -2.30000005E-03  -1.06009553E-04
  -2.24999990E-03  -1.07147265E-04
  -2.19999999E-03  -1.08287386E-04
  -2.15000007E-03  -1.09429697E-04
  -2.09999993E-03  -1.10573950E-04
  -2.05000001E-03  -1.11719877E-04
  -2.00000009E-03  -1.12867201E-04
  -1.94999995E-03  -1.14015609E-04
  -1.90000003E-03  -1.15164825E-04
  -1.85000000E-03  -1.16314550E-04
  -1.79999997E-03  -1.17464508E-04
  -1.75000005E-03  -1.18614422E-04
  -1.70000002E-03  -1.19763979E-04
  -1.64999999E-03  -1.20912882E-04
  -1.59999996E-03  -1.22060803E-04
  -1.55000004E-03  -1.23207385E-04
  -1.50000001E-03  -1.24352242E-04
  -1.44999998E-03  -1.25495048E-04
  -1.39999995E-03  -1.26635437E-04
  -1.35000004E-03  -1.27773063E-04
  -1.30000000E-03  -1.28907544E-04
  -1.24999997E-03  -1.30038563E-04
  -1.20000006E-03  -1.31165725E-04
  -1.15000003E-03  -1.32288624E-04
  -1.09999999E-03  -1.33406866E-04
  -1.04999996E-03  -1.34520000E-04
  -1.00000005E-03  -1.35627590E-04
  -9.50000016E-04  -1.36729199E-04
  -8.99999985E-04  -1.37824420E-04
  -8.50000011E-04  -1.38912830E-04
  -7.99999980E-04  -1.39994037E-04
  -7.50000007E-04  -1.41067576E-04
  -6.99999975E-04  -1.42132980E-04
  -6.50000002E-04  -1.43189769E-04
  -6.00000028E-04  -1.44237376E-04
  -5.49999997E-04  -1.45275291E-04
  -5.00000024E-04  -1.46303035E-04
  -4.49999992E-04  -1.47320141E-04
  -3.99999990E-04  -1.48326100E-04
  -3.49999988E-04  -1.49320433E-04
  -3.00000014E-04  -1.50302614E-04
  -2.50000012E-04  -1.51272063E-04
  -1.99999995E-04  -1.52228211E-04
  -1.50000007E-04  -1.53170433E-04
  -9.99999975E-05  -1.54098161E-04
  -4.99999987E-05  -1.55010785E-04
   0.00000000      -1.55907750E-04
   4.99999987E-05  -1.56788548E-04
   9.99999975E-05  -1.57652568E-04
   1.50000007E-04  -1.58499242E-04
   1.99999995E-04  -1.59327916E-04
   2.50000012E-04  -1.60137890E-04
   3.00000014E-04  -1.60928510E-04
   3.49999988E-04  -1.61699078E-04
   3.99999990E-04  -1.62448952E-04
   4.49999992E-04  -1.63177509E-04
   5.00000024E-04  -1.63884106E-04
   5.49999997E-04  -1.64568090E-04
   6.00000028E-04  -1.65228776E-04
   6.50000002E-04  -1.65865451E-04
   6.99999975E-04  -1.66477344E-04
   7.50000007E-04  -1.67063699E-04
   7.99999980E-04  -1.67623759E-04
   8.50000011E-04  -1.68156781E-04
   8.99999985E-04  -1.68662038E-04
   9.50000016E-04  -1.69138832E-04
   1.00000005E-03  -1.69586434E-04
   1.04999996E-03  -1.70004059E-04
   1.09999999E-03  -1.70390937E-04
   1.15000003E-03  -1.70746222E-04
   1.20000006E-03  -1.71069056E-04
   1.24999997E-03  -1.71358610E-04
   1.30000000E-03  -1.71614098E-04
   1.35000004E-03  -1.71834676E-04
   1.39999995E-03  -1.72019543E-04
   1.44999998E-03  -1.72167885E-04
   1.50000001E-03  -1.72278902E-04
   1.55000004E-03  -1.72351720E-04
   1.59999996E-03  -1.72385437E-04
   1.64999999E-03  -1.72379121E-04
   1.70000002E-03  -1.72331871E-04
   1.75000005E-03  -1.72242784E-04
   1.79999997E-03  -1.72110973E-04
   1.85000000E-03  -1.71935520E-04
   1.90000003E-03  -1.71715597E-04
   1.94999995E-03  -1.71450287E-04
   2.00000009E-03  -1.71138672E-04
   2.05000001E-03  -1.70779778E-04
   2.09999993E-03  -1.70372601E-04
   2.15000007E-03  -1.69916151E-04
   2.19999999E-03  -1.69409439E-04
   2.24999990E-03  -1.68851504E-04
   2.30000005E-03  -1.68241429E-04
   2.34999997E-03  -1.67578255E-04
   2.40000011E-03  -1.66861035E-04
   2.45000003E-03  -1.66088779E-04
   2.49999994E-03  -1.65260470E-04
   2.55000009E-03  -1.64375044E-04
   2.60000001E-03  -1.63431439E-04
   2.64999992E-03  -1.62428609E-04
   2.70000007E-03  -1.61365519E-04
   2.74999999E-03  -1.60241179E-04
   2.79999990E-03  -1.59054616E-04