  -3.99999991E-02   0.00000000    
  -3.99499983E-02   0.00000000    
  -3.99000011E-02   0.00000000    
  -3.98500003E-02   0.00000000    
  -3.97999994E-02  -2.02429759E-19
  -3.97499986E-02  -1.76727531E-18
  -3.97000015E-02  -8.28407652E-18
  -3.96500006E-02  -2.83377122E-17
  -3.95999998E-02  -8.02312652E-17
  -3.95499989E-02  -1.99630856E-16
  -3.95000018E-02  -4.49206506E-16
  -3.94500010E-02  -9.28134870E-16
  -3.94000001E-02  -1.77847696E-15
  -3.93499993E-02  -3.18069681E-15
  -3.92999984E-02  -5.32277537E-15
  -3.92500013E-02  -8.33204796E-15
  -3.92000005E-02  -1.21924684E-14
  -3.91499996E-02  -1.67167068E-14
  -3.90999988E-02  -2.16480598E-14
  -3.90500017E-02  -2.68912852E-14
  -3.90000008E-02  -3.27533817E-14
  -3.89500000E-02  -4.00210125E-14
  -3.88999991E-02  -4.97778834E-14
  -3.88499983E-02  -6.30178012E-14
  -3.88000011E-02  -8.02126445E-14
  -3.87500003E-02  -1.00998589E-13
  -3.86999995E-02  -1.24118164E-13
  -3.86499986E-02  -1.47757742E-13
  -3.86000015E-02  -1.70358682E-13
  -3.85500006E-02  -1.91708466E-13
  -3.84999998E-02  -2.13711102E-13
  -3.84499989E-02  -2.40077408E-13
  -3.84000018E-02  -2.74627760E-13
  -3.83500010E-02  -3.18820599E-13
  -3.83000001E-02  -3.69837299E-13
  -3.82499993E-02  -4.20431160E-13
  -3.81999984E-02  -4.60832110E-13
  -3.81500013E-02  -4.81966084E-13
  -3.81000005E-02  -4.78752942E-13
  -3.80499996E-02  -4.52291768E-13
  -3.79999988E-02  -4.09969937E-13
  -3.79500017E-02  -3.62910494E-13
  -3.79000008E-02  -3.21053568E-13
  -3.78500000E-02  -2.87634039E-13
  -3.77999991E-02  -2.55956308E-13
  -3.77499983E-02  -2.10823356E-13
  -3.77000012E-02  -1.34480602E-13
  -3.76500003E-02  -1.40337071E-14
  -3.75999995E-02   1.53714945E-13
  -3.75499986E-02   3.62422467E-13
  -3.75000015E-02   6.00850261E-13
  -3.74500006E-02   8.59521438E-13
  -3.73999998E-02   1.13673545E-12
  -3.73499990E-02   1.44191852E-12
  -3.73000018E-02   1.79476150E-12
  -3.72500010E-02   2.21931523E-12
  -3.72000001E-02   2.73417660E-12
  -3.71499993E-02   3.34268702E-12
  -3.70999984E-02   4.02825776E-12
  -3.70500013E-02   4.75759926E-12
  -3.70000005E-02   5.48996265E-12
  -3.69499996E-02   6.18734317E-12
  -3.68999988E-02   6.82165218E-12
  -3.68500017E-02   7.37852574E-12
  -3.68000008E-02   7.85969033E-12
  -3.67500000E-02   8.28419364E-12
  -3.66999991E-02   8.68583851E-12
  -3.66499983E-02   9.10412631E-12
  -3.66000012E-02   9.56979895E-12
  -3.65500003E-02   1.00905603E-11
  -3.64999995E-02   1.06434098E-11
  -3.64499986E-02   1.11769803E-11
  -3.64000015E-02   1.16236448E-11
  -3.63500006E-02   1.19185894E-11
  -3.62999998E-02   1.20208982E-11
  -3.62499990E-02   1.19277218E-11
  -3.62000018E-02   1.16697147E-11
  -3.61500010E-02   1.12810880E-11
  -3.61000001E-02   1.07522732E-11
  -3.60499993E-02   9.99049194E-12
  -3.59999985E-02   8.81935931E-12
  -3.59500013E-02   7.03377244E-12
  -3.59000005E-02   4.49659103E-12
  -3.58499996E-02   1.23546149E-12
  -3.57999988E-02  -2.51137501E-12
  -3.57500017E-02  -6.33648602E-12
  -3.57000008E-02  -9.79527136E-12
  -3.56500000E-02  -1.25907349E-11
  -3.55999991E-02  -1.47384032E-11
  -3.55499983E-02  -1.66276212E-11
  -3.55000012E-02  -1.89218207E-11
  -3.54500003E-02  -2.23069688E-11
  -3.53999995E-02  -2.71792536E-11
  -3.53499986E-02  -3.34166271E-11
  -3.53000015E-02  -4.03644201E-11
  -3.52500007E-02  -4.70767800E-11
  -3.51999998E-02  -5.27309620E-11
  -3.51499990E-02  -5.70331803E-11
  -3.51000018E-02  -6.04144929E-11
  -3.50500010E-02  -6.38895326E-11
  -3.50000001E-02  -6.85951573E-11
  -3.49499993E-02  -7.51844559E-11
  -3.48999985E-02  -8.33542471E-11
  -3.48500013E-02  -9.17707230E-11
  -3.48000005E-02  -9.85063420E-11
  -3.47499996E-02  -1.01859653E-10
  -3.46999988E-02  -1.01206571E-10
  -3.46500017E-02  -9.74536771E-11
  -3.46000008E-02  -9.28004548E-11
  -3.45500000E-02  -8.98233432E-11
  -3.44999991E-02  -9.02403707E-11
  -3.44499983E-02  -9.39199551E-11
  -3.44000012E-02  -9.86534257E-11
  -3.43500003E-02  -1.00911911E-10
  -3.42999995E-02  -9.73583991E-11
  -3.42499986E-02  -8.64855479E-11
  -3.42000015E-02  -6.95927344E-11
  -3.41500007E-02  -5.05197863E-11
  -3.40999998E-02  -3.40836942E-11
  -3.40499990E-02  -2.38062989E-11
  -3.40000018E-02  -1.99615619E-11
  -3.39500010E-02  -1.89529763E-11
  -3.39000002E-02  -1.45076893E-11
  -3.38499993E-02  -3.41062194E-13
  -3.37999985E-02   2.68208442E-11
  -3.37500013E-02   6.52775403E-11
  -3.37000005E-02   1.08519693E-10
  -3.36499996E-02   1.47698673E-10
  -3.35999988E-02   1.75489512E-10
  -3.35500017E-02   1.89657873E-10
  -3.35000008E-02   1.94576966E-10
  -3.34500000E-02   1.99720698E-10
  -3.33999991E-02   2.15516729E-10
  -3.33499983E-02   2.48281007E-10
  -3.33000012E-02   2.96603381E-10
  -3.32500003E-02   3.51107365E-10
  -3.31999995E-02   3.98061806E-10
  -3.31499986E-02   4.25496166E-10
  -3.31000015E-02   4.29119601E-10
  -3.30500007E-02   4.15162682E-10
  -3.29999998E-02   3.98448108E-10
  -3.29499990E-02   3.96110450E-10
  -3.29000019E-02   4.19520307E-10
  -3.28500010E-02   4.68107553E-10
  -3.28000002E-02   5.28257382E-10
  -3.27499993E-02   5.78343096E-10
  -3.26999985E-02   5.98097849E-10
  -3.26500013E-02   5.78245618E-10
  -3.26000005E-02   5.25772592E-10
  -3.25499997E-02   4.61880645E-10
  -3.24999988E-02   4.12923723E-10
  -3.24500017E-02   3.98037547E-10
  -3.24000008E-02   4.19091040E-10
  -3.23500000E-02   4.57988480E-10
  -3.22999991E-02   4.83308560E-10
  -3.22499983E-02   4.63984295E-10
  -3.22000012E-02   3.84154014E-10
  -3.21500003E-02   2.52204369E-10
  -3.20999995E-02   9.91405777E-11
  -3.20499986E-02  -3.39413532E-11
  -3.20000015E-02  -1.14293366E-10
  -3.19500007E-02  -1.33589514E-10
  -3.18999998E-02  -1.13777834E-10
  -3.18499990E-02  -9.90877450E-11
  -3.18000019E-02  -1.36855929E-10
  -3.17500010E-02  -2.55343996E-10
  -3.17000002E-02  -4.48802689E-10
  -3.16499993E-02  -6.77404965E-10
  -3.15999985E-02  -8.83231766E-10
  -3.15500014E-02  -1.01600117E-09
  -3.15000005E-02  -1.05712239E-09
  -3.14499997E-02  -1.03052644E-09
  -3.13999988E-02  -9.94090255E-10
  -3.13500017E-02  -1.01424080E-09
  -3.13000008E-02  -1.13454002E-09
  -3.12500000E-02  -1.35273603E-09
  -3.11999992E-02  -1.61782876E-09
  -3.11500002E-02  -1.85003168E-09
  -3.10999993E-02  -1.97586369E-09
  -3.10500003E-02  -1.96289496E-09
  -3.09999995E-02  -1.83773441E-09
  -3.09500005E-02  -1.67756620E-09
  -3.08999997E-02  -1.57731417E-09
  -3.08500007E-02  -1.60614611E-09
  -3.07999998E-02  -1.77303949E-09
  -3.07500008E-02  -2.01826511E-09
  -3.07000000E-02  -2.23659580E-09
  -3.06499992E-02  -2.32346919E-09
  -3.06000002E-02  -2.22387309E-09
  -3.05499993E-02  -1.96111527E-09
  -3.05000003E-02  -1.63062452E-09
  -3.04499995E-02  -1.35941003E-09
  -3.04000005E-02  -1.24804755E-09
  -3.03499997E-02  -1.32129918E-09
  -3.03000007E-02  -1.51104318E-09
  -3.02499998E-02  -1.68160796E-09
  -3.02000009E-02  -1.68837555E-09
  -3.01500000E-02  -1.44433443E-09
  -3.00999992E-02  -9.63978786E-10
  -3.00500002E-02  -3.62672753E-10
  -2.99999993E-02   1.90888486E-10
  -2.99500003E-02   5.49677082E-10
  -2.98999995E-02   6.57345345E-10
  -2.98500005E-02   5.78683379E-10
  -2.97999997E-02   4.75152584E-10
  -2.97500007E-02   5.33961098E-10
  -2.96999998E-02   8.81230255E-10
  -2.96500009E-02   1.51883894E-09
  -2.96000000E-02   2.31572472E-09
  -2.95499992E-02   3.06064352E-09
  -2.95000002E-02   3.55514618E-09
  -2.94499993E-02   3.70567310E-09
  -2.94000003E-02   3.57183816E-09
  -2.93499995E-02   3.34603989E-09
  -2.93000005E-02   3.27025429E-09
  -2.92499997E-02   3.52549523E-09
  -2.92000007E-02   4.14395673E-09
  -2.91499998E-02   4.98578112E-09
  -2.91000009E-02   5.79442450E-09
  -2.90500000E-02   6.30874375E-09
  -2.89999992E-02   6.38261977E-09
  -2.89500002E-02   6.05706596E-09
  -2.88999993E-02   5.54918023E-09
  -2.88500004E-02   5.15909093E-09
  -2.87999995E-02   5.13405007E-09
  -2.87500005E-02   5.55055335E-09
  -2.86999997E-02   6.26990548E-09
  -2.86500007E-02   6.99123470E-09
  -2.85999998E-02   7.38192485E-09
  -2.85500009E-02   7.22867233E-09
  -2.85000000E-02   6.54033450E-09
  -2.84499992E-02   5.55308333E-09
  -2.84000002E-02   4.63134198E-09
  -2.83499993E-02   4.10565049E-09
  -2.83000004E-02   4.11932888E-09
  -2.82499995E-02   4.55467442E-09
  -2.82000005E-02   5.07591080E-09
  -2.81499997E-02   5.27380095E-09
  -2.81000007E-02   4.84968865E-09
  -2.80499998E-02   3.75609766E-09
  -2.80000009E-02   2.22758301E-09
  -2.79500000E-02   6.83728074E-10
  -2.78999992E-02  -4.56036375E-10
  -2.78500002E-02  -9.64030744E-10
  -2.77999993E-02  -9.14667564E-10
  -2.77500004E-02  -6.60133226E-10
  -2.76999995E-02  -6.77678247E-10
  -2.76500005E-02  -1.35390810E-09
  -2.75999997E-02  -2.80250201E-09
  -2.75500007E-02  -4.79975037E-09
  -2.74999999E-02  -6.87158641E-09
  -2.74500009E-02  -8.49777049E-09
  -2.74000000E-02  -9.34419120E-09
  -2.73499992E-02  -9.41830791E-09
  -2.73000002E-02  -9.07418940E-09
  -2.72499993E-02  -8.85999984E-09
  -2.72000004E-02  -9.27241661E-09
  -2.71499995E-02  -1.05267972E-08
  -2.71000005E-02  -1.24480382E-08
  -2.70499997E-02  -1.45353640E-08
  -2.70000007E-02  -1.61768714E-08
  -2.69499999E-02  -1.69211045E-08
  -2.69000009E-02  -1.66843392E-08
  -2.68500000E-02  -1.57976654E-08
  -2.67999992E-02  -1.48676378E-08
  -2.67500002E-02  -1.45079877E-08
  -2.66999993E-02  -1.50600510E-08
  -2.66500004E-02  -1.64281015E-08
  -2.65999995E-02  -1.81072615E-08
  -2.65500005E-02  -1.93967100E-08
  -2.64999997E-02  -1.97071550E-08
  -2.64500007E-02  -1.88265457E-08
  -2.63999999E-02  -1.70236376E-08
  -2.63500009E-02  -1.49387720E-08
  -2.63000000E-02  -1.33052875E-08
  -2.62499992E-02  -1.26225315E-08
  -2.62000002E-02  -1.29259519E-08
  -2.61499994E-02  -1.37598226E-08
  -2.61000004E-02  -1.43698644E-08
  -2.60499995E-02  -1.40346534E-08
  -2.60000005E-02  -1.23907240E-08
  -2.59499997E-02  -9.60522772E-09
  -2.59000007E-02  -6.31534780E-09
  -2.58499999E-02  -3.35631078E-09
  -2.58000009E-02  -1.39458833E-09
  -2.57500000E-02  -6.27903562E-10
  -2.56999992E-02  -6.87372659E-10
  -2.56500002E-02  -7.90341237E-10
  -2.55999994E-02  -8.14922227E-11
  -2.55500004E-02   1.98513117E-09
  -2.54999995E-02   5.39243672E-09
  -2.54500005E-02   9.55085788E-09
  -2.53999997E-02   1.35429019E-08
  -2.53500007E-02   1.65187259E-08
  -2.52999999E-02   1.80700734E-08
  -2.52500009E-02   1.84162303E-08
  -2.52000000E-02   1.83155926E-08
  -2.51499992E-02   1.87355997E-08
  -2.51000002E-02   2.04215489E-08
  -2.50499994E-02   2.35531878E-08
  -2.50000004E-02   2.76433028E-08
  -2.49499995E-02   3.17292717E-08
  -2.49000005E-02   3.47799514E-08
  -2.48499997E-02   3.61432377E-08
  -2.48000007E-02   3.58377683E-08
  -2.47499999E-02   3.45566207E-08
  -2.47000009E-02   3.33745334E-08
  -2.46500000E-02   3.32804326E-08
  -2.45999992E-02   3.47367823E-08
  -2.45500002E-02   3.74603957E-08
  -2.44999994E-02   4.05263556E-08
  -2.44500004E-02   4.27571720E-08
  -2.43999995E-02   4.32331646E-08
  -2.43500005E-02   4.17020765E-08
  -2.42999997E-02   3.87054300E-08
  -2.42500007E-02   3.53587843E-08
  -2.41999999E-02   3.28736895E-08
  -2.41500009E-02   3.20249534E-08
  -2.41000000E-02   3.27961764E-08
  -2.40499992E-02   3.43641453E-08
  -2.40000002E-02   3.54383189E-08
  -2.39499994E-02   3.48161997E-08
  -2.39000004E-02   3.19162332E-08
  -2.38499995E-02   2.70531366E-08
  -2.38000005E-02   2.13271338E-08
  -2.37499997E-02   1.61648366E-08
  -2.37000007E-02   1.27031452E-08
  -2.36499999E-02   1.12834631E-08
  -2.36000009E-02   1.12816609E-08
  -2.35500000E-02   1.13585976E-08
  -2.34999992E-02   1.00348556E-08
  -2.34500002E-02   6.34564268E-09
  -2.33999994E-02   2.89374996E-10
  -2.33500004E-02  -7.13452852E-09
  -2.32999995E-02  -1.43285961E-08
  -2.32500006E-02  -1.97775272E-08
  -2.31999997E-02  -2.27149251E-08
  -2.31500007E-02  -2.34805952E-08
  -2.30999999E-02  -2.33997817E-08
  -2.30500009E-02  -2.42214675E-08
  -2.30000000E-02  -2.73493548E-08
  -2.29499992E-02  -3.31984324E-08
  -2.29000002E-02  -4.09660110E-08
  -2.28499994E-02  -4.89339271E-08
  -2.28000004E-02  -5.51869874E-08
  -2.27499995E-02  -5.84440336E-08
  -2.27000006E-02  -5.86369815E-08
  -2.26499997E-02  -5.69720271E-08
  -2.26000007E-02  -5.54276376E-08
  -2.25499999E-02  -5.58925564E-08
  -2.25000009E-02  -5.93144698E-08
  -2.24500000E-02  -6.52383676E-08
  -2.23999992E-02  -7.19537994E-08
  -2.23500002E-02  -7.72071047E-08
  -2.22999994E-02  -7.91819588E-08
  -2.22500004E-02  -7.73206281E-08
  -2.21999995E-02  -7.26138012E-08
  -2.21500006E-02  -6.72105571E-08
  -2.20999997E-02  -6.34975876E-08
  -2.20500007E-02  -6.30406944E-08
  -2.19999999E-02  -6.58569306E-08
  -2.19500009E-02  -7.03542611E-08
  -2.19000001E-02  -7.39895398E-08
  -2.18499992E-02  -7.43749524E-08
  -2.18000002E-02  -7.03535008E-08
  -2.17499994E-02  -6.25605949E-08
  -2.17000004E-02  -5.32018269E-08
  -2.16499995E-02  -4.51200570E-08
  -2.16000006E-02  -4.05448901E-08
  -2.15499997E-02  -4.00749656E-08
  -2.15000007E-02  -4.23598294E-08
  -2.14499999E-02  -4.46490169E-08
  -2.14000009E-02  -4.39899281E-08
  -2.13500001E-02  -3.85586283E-08
  -2.12999992E-02  -2.85298736E-08
  -2.12500002E-02  -1.60776938E-08
  -2.11999994E-02  -4.47714710E-09
  -2.11500004E-02   3.31884409E-09
  -2.10999995E-02   6.00527938E-09
  -2.10500006E-02   4.55304239E-09
  -2.09999997E-02   1.83365978E-09
  -2.09500007E-02   1.37780987E-09
  -2.08999999E-02   5.79740833E-09
  -2.08500009E-02   1.55715014E-08
  -2.08000001E-02   2.87550996E-08
  -2.07499992E-02   4.17715462E-08
  -2.07000002E-02   5.09641609E-08
  -2.06499994E-02   5.42297443E-08
  -2.06000004E-02   5.20002779E-08
  -2.05499995E-02   4.71099817E-08
  -2.05000006E-02   4.35746088E-08
  -2.04499997E-02   4.48025155E-08
  -2.04000007E-02   5.20275734E-08
  -2.03499999E-02   6.36774615E-08
  -2.03000009E-02   7.59905845E-08
  -2.02500001E-02   8.46390833E-08
  -2.01999992E-02   8.66543317E-08
  -2.01500002E-02   8.17941626E-08
  -2.00999994E-02   7.27188336E-08
  -2.00500004E-02   6.38647606E-08
  -1.99999996E-02   5.94901692E-08
  -1.99500006E-02   6.17539513E-08
  -1.98999997E-02   6.96965330E-08
  -1.98500007E-02   7.96057265E-08
  -1.97999999E-02   8.66364900E-08
  -1.97500009E-02   8.69835333E-08
  -1.97000001E-02   7.96389230E-08
  -1.96499992E-02   6.69290756E-08
  -1.96000002E-02   5.35576419E-08
  -1.95499994E-02   4.45496511E-08
  -1.95000004E-02   4.29996732E-08
  -1.94499996E-02   4.86384408E-08
  -1.94000006E-02   5.78852308E-08
  -1.93499997E-02   6.53978418E-08
  -1.93000007E-02   6.64538291E-08
  -1.92499999E-02   5.91047176E-08
  -1.92000009E-02   4.51264839E-08
  -1.91500001E-02   2.93114031E-08
  -1.90999992E-02   1.73846431E-08
  -1.90500002E-02   1.34569254E-08
  -1.89999994E-02   1.81529920E-08
  -1.89500004E-02   2.82751120E-08
  -1.88999996E-02   3.81854122E-08
  -1.88500006E-02   4.23173638E-08
  -1.87999997E-02   3.77036073E-08
  -1.87500007E-02   2.53784549E-08
  -1.86999999E-02   1.00006350E-08
  -1.86500009E-02  -2.16707763E-09
  -1.86000001E-02  -6.03972827E-09
  -1.85499992E-02  -1.21481488E-11
  -1.85000002E-02   1.32655069E-08
  -1.84499994E-02   2.80140942E-08
  -1.84000004E-02   3.78780989E-08
  -1.83499996E-02   3.87787331E-08
  -1.83000006E-02   3.07869215E-08
  -1.82499997E-02   1.81549336E-08
  -1.82000007E-02   7.46311635E-09
  -1.81499999E-02   4.68833283E-09
  -1.81000009E-02   1.25002630E-08
  -1.80500001E-02   2.90081239E-08
  -1.79999992E-02   4.85441021E-08
  -1.79500002E-02   6.41583640E-08
  -1.78999994E-02   7.07222441E-08
  -1.78500004E-02   6.72507028E-08
  -1.77999996E-02   5.73872896E-08
  -1.77500006E-02   4.78077027E-08
  -1.76999997E-02   4.52312605E-08
  -1.76500008E-02   5.33682822E-08
  -1.75999999E-02   7.11780572E-08
  -1.75500009E-02   9.32368494E-08
  -1.75000001E-02   1.12080528E-07
  -1.74499992E-02   1.21491283E-07
  -1.74000002E-02   1.19259681E-07
  -1.73499994E-02   1.08173005E-07
  -1.73000004E-02   9.47663139E-08
  -1.72499996E-02   8.63799272E-08
  -1.72000006E-02   8.78237145E-08
  -1.71499997E-02   9.91435414E-08
  -1.71000008E-02   1.15505756E-07
  -1.70499999E-02   1.29270617E-07
  -1.70000009E-02   1.33347271E-07
  -1.69500001E-02   1.24336978E-07
  -1.68999992E-02   1.04048574E-07
  -1.68500002E-02   7.86873713E-08
  -1.67999994E-02   5.60642341E-08
  -1.67500004E-02   4.20621795E-08
  -1.66999996E-02   3.79375180E-08
  -1.66500006E-02   3.96707307E-08
  -1.65999997E-02   3.96746209E-08
  -1.65500008E-02   3.01147374E-08
  -1.64999999E-02   6.36151487E-09
  -1.64500009E-02  -3.09681738E-08
  -1.64000001E-02  -7.62991306E-08
  -1.63499992E-02  -1.21607229E-07
  -1.63000003E-02  -1.60031760E-07
  -1.62499994E-02  -1.88981218E-07
  -1.62000004E-02  -2.11343163E-07
  -1.61499996E-02  -2.34238499E-07
  -1.61000006E-02  -2.65872359E-07
  -1.60499997E-02  -3.11878580E-07
  -1.60000008E-02  -3.72793693E-07
  -1.59499999E-02  -4.43803856E-07
  -1.59000009E-02  -5.16881926E-07
  -1.58500001E-02  -5.84364102E-07
  -1.57999992E-02  -6.42384009E-07
  -1.57500003E-02  -6.92628532E-07
  -1.56999994E-02  -7.41607778E-07
  -1.56500004E-02  -7.97766972E-07
  -1.55999996E-02  -8.67716153E-07
  -1.55499997E-02  -9.53261292E-07
  -1.54999997E-02  -1.05056847E-06
  -1.54499998E-02  -1.15182911E-06
  -1.53999999E-02  -1.24869189E-06
  -1.53500000E-02  -1.33594983E-06
  -1.53000001E-02  -1.41382782E-06
  -1.52500002E-02  -1.48784136E-06
  -1.52000003E-02  -1.56628676E-06
  -1.51500003E-02  -1.65647737E-06
  -1.51000004E-02  -1.76141873E-06
  -1.50499996E-02  -1.87838964E-06
  -1.49999997E-02  -2.00006480E-06
  -1.49499997E-02  -2.11769293E-06
  -1.48999998E-02  -2.22491303E-06
  -1.48499999E-02  -2.32053367E-06
  -1.48000000E-02  -2.40899772E-06
  -1.47500001E-02  -2.49835421E-06
  -1.47000002E-02  -2.59662829E-06
  -1.46500003E-02  -2.70819373E-06
  -1.46000003E-02  -2.83177769E-06
  -1.45500004E-02  -2.96097983E-06
  -1.44999996E-02  -3.08707581E-06
  -1.44499997E-02  -3.20285517E-06
  -1.43999998E-02  -3.30577268E-06
  -1.43499998E-02  -3.39902022E-06
  -1.42999999E-02  -3.49006177E-06
  -1.42500000E-02  -3.58726197E-06
  -1.42000001E-02  -3.69611530E-06
  -1.41500002E-02  -3.81676227E-06
  -1.41000003E-02  -3.94387143E-06
  -1.40500003E-02  -4.06899244E-06
  -1.40000004E-02  -4.18426953E-06
  -1.39499996E-02  -4.28592512E-06
  -1.38999997E-02  -4.37594326E-06
  -1.38499998E-02  -4.46116337E-06
  -1.37999998E-02  -4.55024838E-06
  -1.37499999E-02  -4.64981258E-06
  -1.37000000E-02  -4.76153855E-06
  -1.36500001E-02  -4.88145861E-06
  -1.36000002E-02  -5.00177157E-06
  -1.35500003E-02  -5.11433655E-06
  -1.35000004E-02  -5.21435095E-06
  -1.34500004E-02  -5.30255465E-06
  -1.33999996E-02  -5.38492895E-06
  -1.33499997E-02  -5.47014406E-06
  -1.32999998E-02  -5.56574105E-06
  -1.32499998E-02  -5.67485813E-06
  -1.31999999E-02  -5.79485777E-06
  -1.31500000E-02  -5.91857406E-06
  -1.31000001E-02  -6.03766102E-06
  -1.30500002E-02  -6.14638975E-06
  -1.30000003E-02  -6.24425047E-06
  -1.29500004E-02  -6.33626996E-06
  -1.29000004E-02  -6.43097565E-06
  -1.28499996E-02  -6.53676079E-06
  -1.27999997E-02  -6.65834796E-06
  -1.27499998E-02  -6.79484810E-06
  -1.26999998E-02  -6.94031996E-06
  -1.26499999E-02  -7.08658126E-06
  -1.26000000E-02  -7.22703726E-06
  -1.25500001E-02  -7.35982985E-06
  -1.25000002E-02  -7.48870661E-06
  -1.24500003E-02  -7.62144100E-06
  -1.24000004E-02  -7.76645538E-06
  -1.23500004E-02  -7.92926039E-06
  -1.22999996E-02  -8.11028531E-06
  -1.22499997E-02  -8.30479530E-06
  -1.21999998E-02  -8.50518063E-06
  -1.21499998E-02  -8.70461190E-06
  -1.20999999E-02  -8.90035972E-06
  -1.20500000E-02  -9.09536539E-06
  -1.20000001E-02  -9.29710950E-06
  -1.19500002E-02  -9.51428137E-06
  -1.19000003E-02  -9.75298099E-06
  -1.18500004E-02  -1.00141424E-05
  -1.18000004E-02  -1.02932472E-05
  -1.17499996E-02  -1.05823510E-05
  -1.16999997E-02  -1.08734512E-05
  -1.16499998E-02  -1.11619111E-05
  -1.15999999E-02  -1.14486429E-05
  -1.15499999E-02  -1.17400086E-05
  -1.15000000E-02  -1.20452760E-05
  -1.14500001E-02  -1.23724913E-05
  -1.14000002E-02  -1.27251778E-05
  -1.13500003E-02  -1.31013376E-05
  -1.13000004E-02  -1.34948568E-05
  -1.12500004E-02  -1.38986707E-05
  -1.11999996E-02  -1.43081825E-05
  -1.11499997E-02  -1.47232795E-05
  -1.10999998E-02  -1.51480672E-05
  -1.10499999E-02  -1.55889247E-05
  -1.09999999E-02  -1.60515610E-05
  -1.09500000E-02  -1.65380479E-05
  -1.09000001E-02  -1.70449912E-05
  -1.08500002E-02  -1.75646564E-05
  -1.08000003E-02  -1.80883999E-05
  -1.07500004E-02  -1.86105262E-05
  -1.07000005E-02  -1.91310701E-05
  -1.06499996E-02  -1.96558813E-05
  -1.05999997E-02  -2.01943585E-05
  -1.05499998E-02  -2.07558296E-05
  -1.04999999E-02  -2.13461626E-05
  -1.04499999E-02  -2.19660287E-05
  -1.04000000E-02  -2.26110387E-05
  -1.03500001E-02  -2.32738512E-05
  -1.03000002E-02  -2.39475467E-05
  -1.02500003E-02  -2.46287000E-05
  -1.02000004E-02  -2.53187573E-05
  -1.01500005E-02  -2.60230681E-05
  -1.00999996E-02  -2.67475225E-05
  -1.00499997E-02  -2.74949962E-05
  -9.99999978E-03  -2.82637884E-05
  -9.94999986E-03  -2.90482130E-05
  -9.89999995E-03  -2.98408722E-05
  -9.85000003E-03  -3.06358452E-05
  -9.80000012E-03  -3.14312238E-05
  -9.75000020E-03  -3.22299929E-05
  -9.70000029E-03  -3.30394541E-05
  -9.65000037E-03  -3.38684367E-05
  -9.60000046E-03  -3.47236273E-05
  -9.54999961E-03  -3.56069613E-05
  -9.49999969E-03  -3.65151500E-05
  -9.44999978E-03  -3.74423253E-05
  -9.39999986E-03  -3.83835286E-05
  -9.34999995E-03  -3.93371956E-05
  -9.30000003E-03  -4.03060185E-05
  -9.25000012E-03  -4.12960217E-05
  -9.20000020E-03  -4.23145284E-05
  -9.15000029E-03  -4.33671739E-05
  -9.10000037E-03  -4.44555590E-05
  -9.05000046E-03  -4.55759146E-05
  -8.99999961E-03  -4.67204591E-05
  -8.94999970E-03  -4.78814509E-05
  -8.89999978E-03  -4.90545572E-05
  -8.84999987E-03  -5.02404546E-05
  -8.79999995E-03  -5.14438725E-05
  -8.75000004E-03  -5.26711010E-05
  -8.70000012E-03  -5.39277316E-05
  -8.65000021E-03  -5.52165948E-05
  -8.60000029E-03  -5.65367300E-05
  -8.55000038E-03  -5.78846775E-05
  -8.50000046E-03  -5.92565630E-05
  -8.44999962E-03  -6.06505855E-05
  -8.39999970E-03  -6.20695937E-05
  -8.34999979E-03  -6.35208271E-05
  -8.29999987E-03  -6.50132351E-05
  -8.24999996E-03  -6.65543776E-05
  -8.20000004E-03  -6.81476740E-05
  -8.15000013E-03  -6.97921205E-05
  -8.10000021E-03  -7.14839698E-05
  -8.05000030E-03  -7.32187400E-05
  -8.00000038E-03  -7.49931860E-05
  -7.95000046E-03  -7.68072568E-05
  -7.89999962E-03  -7.86652454E-05
  -7.84999970E-03  -8.05733871E-05
  -7.79999979E-03  -8.25368261E-05
  -7.74999987E-03  -8.45572940E-05
  -7.69999996E-03  -8.66320115E-05
  -7.65000004E-03  -8.87554706E-05
  -7.60000013E-03  -9.09229566E-05
  -7.55000021E-03  -9.31318573E-05
  -7.49999983E-03  -9.53826966E-05
  -7.44999992E-03  -9.76797892E-05
  -7.40000000E-03  -1.00031124E-04
  -7.35000009E-03  -1.02444537E-04
  -7.30000017E-03  -1.04924577E-04
  -7.24999979E-03  -1.07472981E-04
  -7.19999988E-03  -1.10087873E-04
  -7.14999996E-03  -1.12765731E-04
  -7.10000005E-03  -1.15504743E-04
  -7.05000013E-03  -1.18307362E-04
  -7.00000022E-03  -1.21179342E-04
  -6.94999984E-03  -1.24126338E-04
  -6.89999992E-03  -1.27152598E-04
  -6.85000001E-03  -1.30261004E-04
  -6.80000009E-03  -1.33451409E-04
  -6.75000018E-03  -1.36720570E-04
  -6.69999979E-03  -1.40063377E-04
  -6.64999988E-03  -1.43475147E-04
  -6.59999996E-03  -1.46955630E-04
  -6.55000005E-03  -1.50507884E-04
  -6.50000013E-03  -1.54135647E-04
  -6.45000022E-03  -1.57842587E-04
  -6.39999984E-03  -1.61630596E-04
  -6.34999992E-03  -1.65500489E-04
  -6.30000001E-03  -1.69449835E-04
  -6.25000009E-03  -1.73473527E-04
  -6.20000018E-03  -1.77570037E-04
  -6.14999980E-03  -1.81741721E-04
  -6.09999988E-03  -1.85993849E-04
  -6.04999997E-03  -1.90333609E-04
  -6.00000005E-03  -1.94766675E-04
  -5.95000014E-03  -1.99293325E-04
  -5.90000022E-03  -2.03912277E-04
  -5.84999984E-03  -2.08627098E-04
  -5.79999993E-03  -2.13439911E-04
  -5.75000001E-03  -2.18347181E-04
  -5.70000010E-03  -2.23343770E-04
  -5.65000018E-03  -2.28429257E-04
  -5.59999980E-03  -2.33611368E-04
  -5.54999989E-03  -2.38898865E-04
  -5.49999997E-03  -2.44293740E-04
  -5.45000006E-03  -2.49787525E-04
  -5.40000014E-03  -2.55370513E-04
  -5.35000023E-03  -2.61044304E-04
  -5.29999984E-03  -2.66813615E-04
  -5.24999993E-03  -2.72677309E-04
  -5.20000001E-03  -2.78630469E-04
  -5.15000010E-03  -2.84670037E-04
  -5.10000018E-03  -2.90804019E-04
  -5.04999980E-03  -2.97044578E-04
  -4.99999989E-03  -3.03393026E-04
  -4.94999997E-03  -3.09844530E-04
  -4.90000006E-03  -3.16396676E-04
  -4.85000014E-03  -3.23052052E-04
  -4.80000023E-03  -3.29820585E-04
  -4.74999985E-03  -3.36711499E-04
  -4.69999993E-03  -3.43727937E-04
  -4.65000002E-03  -3.50868009E-04
  -4.60000010E-03  -3.58128833E-04
  -4.55000019E-03  -3.65512533E-04
  -4.49999981E-03  -3.73021292E-04
  -4.44999989E-03  -3.80652607E-04
  -4.39999998E-03  -3.88401066E-04
  -4.35000006E-03  -3.96262185E-04
  -4.30000015E-03  -4.04239137E-04
  -4.25000023E-03  -4.12341178E-04
  -4.19999985E-03  -4.20570868E-04
  -4.14999994E-03  -4.28920903E-04
  -4.10000002E-03  -4.37384821E-04
  -4.05000011E-03  -4.45963524E-04
  -4.00000019E-03  -4.54664987E-04
  -3.94999981E-03  -4.63495817E-04
  -3.89999989E-03  -4.72459680E-04
  -3.84999998E-03  -4.81562893E-04
  -3.80000006E-03  -4.90810198E-04
  -3.74999992E-03  -5.00201713E-04
  -3.70000000E-03  -5.09736594E-04
  -3.65000009E-03  -5.19419322E-04
  -3.59999994E-03  -5.29253914E-04
  -3.55000002E-03  -5.39239380E-04
  -3.50000011E-03  -5.49374090E-04
  -3.44999996E-03  -5.59662643E-04
  -3.40000005E-03  -5.70115400E-04
  -3.34999990E-03  -5.80736087E-04
  -3.29999998E-03  -5.91520744E-04
  -3.25000007E-03  -6.02467393E-04
  -3.19999992E-03  -6.13570213E-04
  -3.15000000E-03  -6.24821696E-04
  -3.10000009E-03  -6.36220851E-04
  -3.04999994E-03  -6.47777633E-04
  -3.00000003E-03  -6.59511832E-04
  -2.95000011E-03  -6.71432004E-04
  -2.89999996E-03  -6.83523482E-04
  -2.85000005E-03  -6.95781782E-04
  -2.79999990E-03  -7.08213774E-04
  -2.74999999E-03  -7.20817770E-04
  -2.70000007E-03  -7.33592780E-04
  -2.64999992E-03  -7.46532052E-04
  -2.60000001E-03  -7.59637100E-04
  -2.55000009E-03  -7.72926083E-04
  -2.49999994E-03  -7.86418794E-04
  -2.45000003E-03  -8.00127222E-04
  -2.40000011E-03  -8.14049738E-04
  -2.34999997E-03  -8.28172080E-04
  -2.30000005E-03  -8.42483249E-04
  -2.24999990E-03  -8.56983650E-04
  -2.19999999E-03  -8.71679804E-04
  -2.15000007E-03  -8.86582595E-04
  -2.09999993E-03  -9.01705469E-04
  -2.05000001E-03  -9.17049532E-04
  -2.00000009E-03  -9.32612631E-04
  -1.94999995E-03  -9.48403031E-04
  -1.90000003E-03  -9.64411767E-04
  -1.85000000E-03  -9.80616314E-04
  -1.79999997E-03  -9.97009105E-04
  -1.75000005E-03  -1.01359293E-03
  -1.70000002E-03  -1.03037141E-03
  -1.64999999E-03  -1.04735722E-03
  -1.59999996E-03  -1.06456899E-03
  -1.55000004E-03  -1.08203024E-03
  -1.50000001E-03  -1.09975250E-03
  -1.44999998E-03  -1.11772749E-03
  -1.39999995E-03  -1.13591924E-03
  -1.35000004E-03  -1.15430716E-03
  -1.30000000E-03  -1.17292034E-03
  -1.24999997E-03  -1.19178765E-03
  -1.20000006E-03  -1.21092016E-03
  -1.15000003E-03  -1.23031531E-03
  -1.09999999E-03  -1.24996970E-03
  -1.04999996E-03  -1.26989756E-03
  -1.00000005E-03  -1.29011448E-03
  -9.50000016E-04  -1.31060462E-03
  -8.99999985E-04  -1.33131770E-03
  -8.50000011E-04  -1.35221076E-03
  -7.99999980E-04  -1.37329742E-03
  -7.50000007E-04  -1.39464112E-03
  -6.99999975E-04  -1.41629449E-03
  -6.50000002E-04  -1.43824832E-03
  -6.00000028E-04  -1.46046665E-03
  -5.49999997E-04  -1.48294191E-03
  -5.00000024E-04  -1.50567945E-03
  -4.49999992E-04  -1.52868626E-03
  -3.99999990E-04  -1.55195710E-03
  -3.49999988E-04  -1.57545495E-03
  -3.00000014E-04  -1.59916747E-03
  -2.50000012E-04  -1.62314402E-03
  -1.99999995E-04  -1.64746621E-03
  -1.50000007E-04  -1.67217117E-03
  -9.99999975E-05  -1.69720978E-03
  -4.99999987E-05  -1.72249414E-03
   0.00000000      -1.74798502E-03
   4.99999987E-05  -1.77372165E-03
   9.99999975E-05  -1.79975142E-03
   1.50000007E-04  -1.82607805E-03
   1.99999995E-04  -1.85267162E-03
   2.50000012E-04  -1.87953503E-03
   3.00000014E-04  -1.90672593E-03
   3.49999988E-04  -1.93428400E-03
   3.99999990E-04  -1.96217885E-03
   4.49999992E-04  -1.99031876E-03
   5.00000024E-04  -2.01862562E-03
   5.49999997E-04  -2.04712362E-03
   6.00000028E-04  -2.07590149E-03
   6.50000002E-04  -2.10503465E-03
   6.99999975E-04  -2.13452545E-03
   7.50000007E-04  -2.16430263E-03
   7.99999980E-04  -2.19433592E-03
   8.50000011E-04  -2.22466164E-03
   8.99999985E-04  -2.25529727E-03
   9.50000016E-04  -2.28617922E-03
   1.00000005E-03  -2.31724139E-03
   1.04999996E-03  -2.34849681E-03
   1.09999999E-03  -2.38002441E-03
   1.15000003E-03  -2.41193175E-03
   1.20000006E-03  -2.44423747E-03
   1.24999997E-03  -2.47686077E-03
   1.30000000E-03  -2.50970689E-03
   1.35000004E-03  -2.54274416E-03
   1.39999995E-03  -2.57601403E-03
   1.44999998E-03  -2.60953978E-03
   1.50000001E-03  -2.64327205E-03
   1.55000004E-03  -2.67718360E-03
   1.59999996E-03  -2.71132169E-03
   1.64999999E-03  -2.74578645E-03
   1.70000002E-03  -2.78062024E-03
   1.75000005E-03  -2.81573227E-03
   1.79999997E-03  -2.85098492E-03
   1.85000000E-03  -2.88632372E-03
   1.90000003E-03  -2.92181363E-03
   1.94999995E-03  -2.95751449E-03
   2.00000009E-03  -2.99343886E-03
   2.05000001E-03  -3.02958628E-03
   2.09999993E-03  -3.06598120E-03
   2.15000007E-03  -3.10267508E-03
   2.19999999E-03  -3.13966395E-03
   2.24999990E-03  -3.17683723E-03
   2.30000005E-03  -3.21406382E-03
   2.34999997E-03  -3.25134187E-03
   2.40000011E-03  -3.28875356E-03
   2.45000003E-03  -3.32635106E-03
   2.49999994E-03  -3.36414808E-03
   2.55000009E-03  -3.40214837E-03
   2.60000001E-03  -3.44037078E-03
   2.64999992E-03  -3.47879087E-03
   2.70000007E-03  -3.51732294E-03
   2.74999999E-03  -3.55588668E-03
   2.79999990E-03  -3.59444250E-03