  -3.99999991E-02   0.00000000    
  -3.99499983E-02   0.00000000    
  -3.99000011E-02  -8.32148817E-14
  -3.98500003E-02  -6.30625814E-13
  -3.97999994E-02  -2.54346327E-12
  -3.97499986E-02  -7.22681767E-12
  -3.97000015E-02  -1.61428960E-11
  -3.96500006E-02  -3.00751160E-11
  -3.95999998E-02  -4.85292848E-11
  -3.95499989E-02  -6.96774374E-11
  -3.95000018E-02  -9.10079165E-11
  -3.94500010E-02  -1.10599793E-10
  -3.94000001E-02  -1.28705394E-10
  -3.93499993E-02  -1.48996232E-10
  -3.92999984E-02  -1.78568882E-10
  -3.92500013E-02  -2.26087538E-10
  -3.92000005E-02  -2.98455233E-10
  -3.91499996E-02  -3.97576999E-10
  -3.90999988E-02  -5.19087606E-10
  -3.90500017E-02  -6.53923304E-10
  -3.90000008E-02  -7.92010568E-10
  -3.89500000E-02  -9.26333676E-10
  -3.88999991E-02  -1.05577347E-09
  -3.88499983E-02  -1.18591659E-09
  -3.88000011E-02  -1.32773192E-09
  -3.87500003E-02  -1.49441104E-09
  -3.86999995E-02  -1.69709247E-09
  -3.86499986E-02  -1.94072380E-09
  -3.86000015E-02  -2.22146768E-09
  -3.85500006E-02  -2.52645149E-09
  -3.84999998E-02  -2.83571211E-09
  -3.84499989E-02  -3.12583048E-09
  -3.84000018E-02  -3.37514772E-09
  -3.83500010E-02  -3.57063534E-09
  -3.83000001E-02  -3.71527276E-09
  -3.82499993E-02  -3.83257737E-09
  -3.81999984E-02  -3.96381816E-09
  -3.81500013E-02  -4.15536272E-09
  -3.81000005E-02  -4.43847981E-09
  -3.80499996E-02  -4.80915707E-09
  -3.79999988E-02  -5.21785992E-09
  -3.79500017E-02  -5.57693181E-09
  -3.79000008E-02  -5.78683013E-09
  -3.78500000E-02  -5.77381121E-09
  -3.77999991E-02  -5.52430413E-09
  -3.77499983E-02  -5.09871523E-09
  -3.77000012E-02  -4.61299798E-09
  -3.76500003E-02  -4.18975299E-09
  -3.75999995E-02  -3.89703247E-09
  -3.75499986E-02  -3.70383368E-09
  -3.75000015E-02  -3.47865003E-09
  -3.74500006E-02  -3.04005665E-09
  -3.73999998E-02  -2.24285213E-09
  -3.73499990E-02  -1.06200160E-09
  -3.73000018E-02   3.68837155E-10
  -3.72500010E-02   1.79197968E-09
  -3.72000001E-02   2.92969826E-09
  -3.71499993E-02   3.61839536E-09
  -3.70999984E-02   3.91173094E-09
  -3.70500013E-02   4.09591827E-09
  -3.70000005E-02   4.59394744E-09
  -3.69499996E-02   5.78671822E-09
  -3.68999988E-02   7.82488119E-09
  -3.68500017E-02   1.05213305E-08
  -3.68000008E-02   1.33879583E-08
  -3.67500000E-02   1.58186086E-08
  -3.66999991E-02   1.73493913E-08
  -3.66499983E-02   1.78812947E-08
  -3.66000012E-02   1.77544042E-08
  -3.65500003E-02   1.76213462E-08
  -3.64999995E-02   1.81578876E-08
  -3.64499986E-02   1.97311945E-08
  -3.64000015E-02   2.21802026E-08
  -3.63500006E-02   2.48262175E-08
  -3.62999998E-02   2.67344422E-08
  -3.62499990E-02   2.71287313E-08
  -3.62000018E-02   2.57774655E-08
  -3.61500010E-02   2.31625474E-08
  -3.61000001E-02   2.03280752E-08
  -3.60499993E-02   1.84484570E-08
  -3.59999985E-02   1.82936493E-08
  -3.59500013E-02   1.98348005E-08
  -3.59000005E-02   2.21884591E-08
  -3.58499996E-02   2.39542377E-08
  -3.57999988E-02   2.38198314E-08
  -3.57500017E-02   2.11712941E-08
  -3.57000008E-02   1.64232290E-08
  -3.56500000E-02   1.08926130E-08
  -3.55999991E-02   6.24079055E-09
  -3.55499983E-02   3.71436393E-09
  -3.55000012E-02   3.52915652E-09
  -3.54500003E-02   4.70025885E-09
  -3.53999995E-02   5.43191758E-09
  -3.53499986E-02   3.92280741E-09
  -3.53000015E-02  -7.65544683E-10
  -3.52500007E-02  -8.18339707E-09
  -3.51999998E-02  -1.65817315E-08
  -3.51499990E-02  -2.36157298E-08
  -3.51000018E-02  -2.73754939E-08
  -3.50500010E-02  -2.72858021E-08
  -3.50000001E-02  -2.44478624E-08
  -3.49499993E-02  -2.12282050E-08
  -3.48999985E-02  -2.02381134E-08
  -3.48500013E-02  -2.31414639E-08
  -3.48000005E-02  -2.98367731E-08
  -3.47499996E-02  -3.84165659E-08
  -3.46999988E-02  -4.59654075E-08
  -3.46500017E-02  -4.98678467E-08
  -3.46000008E-02  -4.90429990E-08
  -3.45500000E-02  -4.45287043E-08
  -3.44999991E-02  -3.91133952E-08
  -3.44499983E-02  -3.61395465E-08
  -3.44000012E-02  -3.79896932E-08
  -3.43500003E-02  -4.49364777E-08
  -3.42999995E-02  -5.49039285E-08
  -3.42499986E-02  -6.42942624E-08
  -3.42000015E-02  -6.95494649E-08
  -3.41500007E-02  -6.87609329E-08
  -3.40999998E-02  -6.25882706E-08
  -3.40499990E-02  -5.40389351E-08
  -3.40000018E-02  -4.71724029E-08
  -3.39500010E-02  -4.52906868E-08
  -3.39000002E-02  -4.94289161E-08
  -3.38499993E-02  -5.78439838E-08
  -3.37999985E-02  -6.67614870E-08
  -3.37500013E-02  -7.20736537E-08
  -3.37000005E-02  -7.12372596E-08
  -3.36499996E-02  -6.45044196E-08
  -3.35999988E-02  -5.48963435E-08
  -3.35500017E-02  -4.68903352E-08
  -3.35000008E-02  -4.43849153E-08
  -3.34500000E-02  -4.88614056E-08
  -3.33999991E-02  -5.85956101E-08
  -3.33499983E-02  -6.93093583E-08
  -3.33000012E-02  -7.59984786E-08
  -3.32500003E-02  -7.51307425E-08
  -3.31999995E-02  -6.62260931E-08
  -3.31499986E-02  -5.20953307E-08
  -3.31000015E-02  -3.76065614E-08
  -3.30500007E-02  -2.75114100E-08
  -3.29999998E-02  -2.42989326E-08
  -3.29499990E-02  -2.70512981E-08
  -3.29000019E-02  -3.18383435E-08
  -3.28500010E-02  -3.34918049E-08
  -3.28000002E-02  -2.79639636E-08
  -3.27499993E-02  -1.41981413E-08
  -3.26999985E-02   5.34745048E-09
  -3.26500013E-02   2.57709427E-08
  -3.26000005E-02   4.19170867E-08
  -3.25499997E-02   5.07057685E-08
  -3.24999988E-02   5.25529487E-08
  -3.24500017E-02   5.12402956E-08
  -3.24000008E-02   5.22809493E-08
  -3.23500000E-02   6.05028063E-08
  -3.22999991E-02   7.79254776E-08
  -3.22499983E-02   1.02879447E-07
  -3.22000012E-02   1.30755950E-07
  -3.21500003E-02   1.56037103E-07
  -3.20999995E-02   1.74680537E-07
  -3.20499986E-02   1.85786732E-07
  -3.20000015E-02   1.91821940E-07
  -3.19500007E-02   1.97332611E-07
  -3.18999998E-02   2.06762309E-07
  -3.18499990E-02   2.22367603E-07
  -3.18000019E-02   2.43161509E-07
  -3.17500010E-02   2.65337263E-07
  -3.17000002E-02   2.83955302E-07
  -3.16499993E-02   2.95112613E-07
  -3.15999985E-02   2.97609319E-07
  -3.15500014E-02   2.93375933E-07
  -3.15000005E-02   2.86505127E-07
  -3.14499997E-02   2.81366795E-07
  -3.13999988E-02   2.80678591E-07
  -3.13500017E-02   2.84384299E-07
  -3.13000008E-02   2.89792922E-07
  -3.12500000E-02   2.92848284E-07
  -3.11999992E-02   2.89910503E-07
  -3.11500002E-02   2.79241732E-07
  -3.10999993E-02   2.61565361E-07
  -3.10500003E-02   2.39514947E-07
  -3.09999995E-02   2.16293884E-07
  -3.09500005E-02   1.94199075E-07
  -3.08999997E-02   1.73678487E-07
  -3.08500007E-02   1.53297478E-07
  -3.07999998E-02   1.30543370E-07
  -3.07500008E-02   1.03026778E-07
  -3.07000000E-02   6.95073226E-08
  -3.06499992E-02   3.03219565E-08
  -3.06000002E-02  -1.28836346E-08
  -3.05499993E-02  -5.78951820E-08
  -3.05000003E-02  -1.02742007E-07
  -3.04499995E-02  -1.46224437E-07
  -3.04000005E-02  -1.88001053E-07
  -3.03499997E-02  -2.28324723E-07
  -3.03000007E-02  -2.67674608E-07
  -3.02499998E-02  -3.06522310E-07
  -3.02000009E-02  -3.45316465E-07
  -3.01500000E-02  -3.84580744E-07
  -3.00999992E-02  -4.24923201E-07
  -3.00500002E-02  -4.66814811E-07
  -2.99999993E-02  -5.10187704E-07
  -2.99500003E-02  -5.54094072E-07
  -2.98999995E-02  -5.96719417E-07
  -2.98500005E-02  -6.35906417E-07
  -2.97999997E-02  -6.70057091E-07
  -2.97500007E-02  -6.99008353E-07
  -2.96999998E-02  -7.24375070E-07
  -2.96500009E-02  -7.49027720E-07
  -2.96000000E-02  -7.75774595E-07
  -2.95499992E-02  -8.05761431E-07
  -2.95000002E-02  -8.37360631E-07
  -2.94499993E-02  -8.66224184E-07
  -2.94000003E-02  -8.86698786E-07
  -2.93499995E-02  -8.94146183E-07
  -2.93000005E-02  -8.87179510E-07
  -2.92499997E-02  -8.68710060E-07
  -2.92000007E-02  -8.45124362E-07
  -2.91499998E-02  -8.23731853E-07
  -2.91000009E-02  -8.09483822E-07
  -2.90500000E-02  -8.02438592E-07
  -2.89999992E-02  -7.97259020E-07
  -2.89500002E-02  -7.85194914E-07
  -2.88999993E-02  -7.57865905E-07
  -2.88500004E-02  -7.11229973E-07
  -2.87999995E-02  -6.47872241E-07
  -2.87500005E-02  -5.76362424E-07
  -2.86999997E-02  -5.07698189E-07
  -2.86500007E-02  -4.50244158E-07
  -2.85999998E-02  -4.05421190E-07
  -2.85500009E-02  -3.66261133E-07
  -2.85000000E-02  -3.19787119E-07
  -2.84499992E-02  -2.52455322E-07
  -2.84000002E-02  -1.56387060E-07
  -2.83499993E-02  -3.35511707E-08
  -2.83000004E-02   1.04215744E-07
  -2.82499995E-02   2.39699034E-07
  -2.82000005E-02   3.57579097E-07
  -2.81499997E-02   4.51351895E-07
  -2.81000007E-02   5.26689632E-07
  -2.80499998E-02   5.99439772E-07
  -2.80000009E-02   6.88815476E-07
  -2.79500000E-02   8.08579216E-07
  -2.78999992E-02   9.60150373E-07
  -2.78500002E-02   1.13095064E-06
  -2.77999993E-02   1.29909415E-06
  -2.77500004E-02   1.44266767E-06
  -2.76999995E-02   1.54961231E-06
  -2.76500005E-02   1.62368519E-06
  -2.75999997E-02   1.68352028E-06
  -2.75500007E-02   1.75479431E-06
  -2.74999999E-02   1.85865633E-06
  -2.74500009E-02   2.00149589E-06
  -2.74000000E-02   2.17079332E-06
  -2.73499992E-02   2.33930518E-06
  -2.73000002E-02   2.47616117E-06
  -2.72499993E-02   2.56018711E-06
  -2.72000004E-02   2.58950104E-06
  -2.71499995E-02   2.58280579E-06
  -2.71000005E-02   2.57135730E-06
  -2.70499997E-02   2.58481646E-06
  -2.70000007E-02   2.63715174E-06
  -2.69499999E-02   2.71904310E-06
  -2.69000009E-02   2.80056406E-06
  -2.68500000E-02   2.84342423E-06
  -2.67999992E-02   2.81766870E-06
  -2.67500002E-02   2.71543672E-06
  -2.66999993E-02   2.55535724E-06
  -2.66500004E-02   2.37509516E-06
  -2.65999995E-02   2.21486494E-06
  -2.65500005E-02   2.09901032E-06
  -2.64999997E-02   2.02393653E-06
  -2.64500007E-02   1.95820189E-06
  -2.63999999E-02   1.85528882E-06
  -2.63500009E-02   1.67379403E-06
  -2.63000000E-02   1.39618726E-06
  -2.62499992E-02   1.03755292E-06
  -2.62000002E-02   6.39937809E-07
  -2.61499994E-02   2.54226393E-07
  -2.61000004E-02  -8.27450108E-08
  -2.60499995E-02  -3.65616984E-07
  -2.60000005E-02  -6.24338043E-07
  -2.59499997E-02  -9.12048563E-07
  -2.59000007E-02  -1.28184024E-06
  -2.58499999E-02  -1.76251422E-06
  -2.58000009E-02  -2.34433105E-06
  -2.57500000E-02  -2.98157011E-06
  -2.56999992E-02  -3.61145931E-06
  -2.56500002E-02  -4.18153104E-06
  -2.55999994E-02  -4.67331802E-06
  -2.55500004E-02  -5.11158532E-06
  -2.54999995E-02  -5.55435145E-06
  -2.54500005E-02  -6.06754475E-06
  -2.53999997E-02  -6.69520932E-06
  -2.53500007E-02  -7.43858254E-06
  -2.52999999E-02  -8.25388997E-06
  -2.52500009E-02  -9.07048161E-06
  -2.52000000E-02  -9.82175879E-06
  -2.51499992E-02  -1.04753144E-05
  -2.51000002E-02  -1.10485253E-05
  -2.50499994E-02  -1.16020647E-05
  -2.50000004E-02  -1.22134852E-05
  -2.49499995E-02  -1.29421933E-05
  -2.49000005E-02  -1.38014148E-05
  -2.48499997E-02  -1.47500541E-05
  -2.48000007E-02  -1.57089307E-05
  -2.47499999E-02  -1.65947295E-05
  -2.47000009E-02  -1.73569406E-05
  -2.46500000E-02  -1.80011939E-05
  -2.45999992E-02  -1.85879398E-05
  -2.45500002E-02  -1.92063235E-05
  -2.44999994E-02  -1.99343031E-05
  -2.44500004E-02  -2.08027759E-05
  -2.43999995E-02  -2.17799352E-05
  -2.43500005E-02  -2.27836481E-05
  -2.42999997E-02  -2.37170188E-05
  -2.42500007E-02  -2.45117171E-05
  -2.41999999E-02  -2.51596357E-05
  -2.41500009E-02  -2.57181382E-05
  -2.41000000E-02  -2.62858139E-05
  -2.40499992E-02  -2.69587617E-05
  -2.40000002E-02  -2.77867566E-05
  -2.39499994E-02  -2.87490839E-05
  -2.39000004E-02  -2.97615952E-05
  -2.38499995E-02  -3.07125956E-05
  -2.38000005E-02  -3.15122597E-05
  -2.37499997E-02  -3.21335574E-05
  -2.37000007E-02  -3.26258123E-05
  -2.36499999E-02  -3.30941548E-05
  -2.36000009E-02  -3.36535159E-05
  -2.35500000E-02  -3.43770480E-05
  -2.34999992E-02  -3.52621391E-05
  -2.34500002E-02  -3.62302017E-05
  -2.33999994E-02  -3.71606911E-05
  -2.33500004E-02  -3.79450248E-05
  -2.32999995E-02  -3.85365274E-05
  -2.32500006E-02  -3.89733141E-05
  -2.31999997E-02  -3.93634800E-05
  -2.31500007E-02  -3.98382945E-05
  -2.30999999E-02  -4.04938182E-05
  -2.30500009E-02  -4.13470880E-05
  -2.30000000E-02  -4.23272140E-05
  -2.29499992E-02  -4.33060231E-05
  -2.29000002E-02  -4.41554184E-05
  -2.28499994E-02  -4.48058854E-05
  -2.28000004E-02  -4.52796994E-05
  -2.27499995E-02  -4.56835405E-05
  -2.27000006E-02  -4.61625714E-05
  -2.26499997E-02  -4.68363978E-05
  -2.26000007E-02  -4.77452486E-05
  -2.25499999E-02  -4.88310725E-05
  -2.25000009E-02  -4.99629277E-05
  -2.24500000E-02  -5.09958918E-05
  -2.23999992E-02  -5.18376255E-05
  -2.23500002E-02  -5.24924217E-05
  -2.22999994E-02  -5.30623765E-05
  -2.22500004E-02  -5.37044616E-05
  -2.21999995E-02  -5.45619514E-05
  -2.21500006E-02  -5.57006788E-05
  -2.20999997E-02  -5.70790144E-05
  -2.20500007E-02  -5.85658418E-05
  -2.19999999E-02  -5.99994564E-05
  -2.19500009E-02  -6.12611911E-05
  -2.19000001E-02  -6.23306332E-05
  -2.18499992E-02  -6.32972224E-05
  -2.18000002E-02  -6.43224776E-05
  -2.17499994E-02  -6.55688709E-05
  -2.17000004E-02  -6.71270027E-05
  -2.16499995E-02  -6.89746157E-05
  -2.16000006E-02  -7.09860324E-05
  -2.15499997E-02  -7.29881576E-05
  -2.15000007E-02  -7.48391540E-05
  -2.14499999E-02  -7.64942888E-05
  -2.14000009E-02  -7.80287955E-05
  -2.13500001E-02  -7.96067907E-05
  -2.12999992E-02  -8.14092054E-05
  -2.12500002E-02  -8.35533137E-05
  -2.11999994E-02  -8.60400469E-05
  -2.11500004E-02  -8.87525166E-05
  -2.10999995E-02  -9.15084456E-05
  -2.10500006E-02  -9.41428225E-05
  -2.09999997E-02  -9.65828003E-05
  -2.09500007E-02  -9.88822721E-05
  -2.08999999E-02  -1.01199556E-04
  -2.08500009E-02  -1.03727543E-04
  -2.08000001E-02  -1.06606843E-04
  -2.07499992E-02  -1.09862012E-04
  -2.07000002E-02  -1.13389688E-04
  -2.06499994E-02  -1.17004347E-04
  -2.06000004E-02  -1.20522425E-04
  -2.05499995E-02  -1.23846679E-04
  -2.05000006E-02  -1.27012725E-04
  -2.04499997E-02  -1.30175162E-04
  -2.04000007E-02  -1.33540001E-04
  -2.03499999E-02  -1.37273382E-04
  -2.03000009E-02  -1.41426659E-04
  -2.02500001E-02  -1.45913567E-04
  -2.01999992E-02  -1.50548192E-04
  -2.01500002E-02  -1.55128742E-04
  -2.00999994E-02  -1.59529736E-04
  -2.00500004E-02  -1.63759672E-04
  -1.99999996E-02  -1.67959559E-04
  -1.99500006E-02  -1.72340209E-04
  -1.98999997E-02  -1.77088092E-04
  -1.98500007E-02  -1.82281379E-04
  -1.97999999E-02  -1.87854152E-04
  -1.97500009E-02  -1.93626503E-04
  -1.97000001E-02  -1.99386137E-04
  -1.96499992E-02  -2.04985248E-04
  -1.96000002E-02  -2.10409489E-04
  -1.95499994E-02  -2.15786655E-04
  -1.95000004E-02  -2.21331531E-04
  -1.94499996E-02  -2.27250974E-04
  -1.94000006E-02  -2.33650571E-04
  -1.93499997E-02  -2.40487701E-04
  -1.93000007E-02  -2.47591379E-04
  -1.92499999E-02  -2.54739949E-04
  -1.92000009E-02  -2.61762587E-04
  -1.91500001E-02  -2.68618314E-04
  -1.90999992E-02  -2.75417755E-04
  -1.90500002E-02  -2.82373687E-04
  -1.89999994E-02  -2.89705931E-04
  -1.89500004E-02  -2.97543418E-04
  -1.88999996E-02  -3.05866037E-04
  -1.88500006E-02  -3.14513658E-04
  -1.87999997E-02  -3.23259941E-04
  -1.87500007E-02  -3.31916322E-04
  -1.86999999E-02  -3.40419327E-04
  -1.86500009E-02  -3.48862784E-04
  -1.86000001E-02  -3.57457640E-04
  -1.85499992E-02  -3.66438588E-04
  -1.85000002E-02  -3.75959644E-04
  -1.84499994E-02  -3.86026397E-04
  -1.84000004E-02  -3.96494986E-04
  -1.83499996E-02  -4.07138374E-04
  -1.83000006E-02  -4.17751435E-04
  -1.82499997E-02  -4.28246451E-04
  -1.82000007E-02  -4.38695482E-04
  -1.81499999E-02  -4.49301529E-04
  -1.81000009E-02  -4.60308074E-04
  -1.80500001E-02  -4.71889565E-04
  -1.79999992E-02  -4.84075019E-04
  -1.79500002E-02  -4.96735389E-04
  -1.78999994E-02  -5.09642647E-04
  -1.78500004E-02  -5.22575399E-04
  -1.77999996E-02  -5.35422587E-04
  -1.77500006E-02  -5.48237644E-04
  -1.76999997E-02  -5.61215566E-04
  -1.76500008E-02  -5.74608392E-04
  -1.75999999E-02  -5.88613737E-04
  -1.75500009E-02  -6.03286200E-04
  -1.75000001E-02  -6.18514896E-04
  -1.74499992E-02  -6.34077005E-04
  -1.74000002E-02  -6.49741502E-04
  -1.73499994E-02  -6.65378349E-04
  -1.73000004E-02  -6.81021600E-04
  -1.72499996E-02  -6.96854549E-04
  -1.72000006E-02  -7.13130576E-04
  -1.71499997E-02  -7.30057829E-04
  -1.71000008E-02  -7.47706916E-04
  -1.70499999E-02  -7.65978417E-04
  -1.70000009E-02  -7.84648408E-04
  -1.69500001E-02  -8.03474919E-04
  -1.68999992E-02  -8.22308473E-04
  -1.68500002E-02  -8.41162226E-04
  -1.67999994E-02  -8.60211265E-04
  -1.67500004E-02  -8.79714498E-04
  -1.66999996E-02  -8.99898005E-04
  -1.66500006E-02  -9.20855324E-04
  -1.65999997E-02  -9.42508283E-04
  -1.65500008E-02  -9.64642852E-04
  -1.64999999E-02  -9.87009378E-04
  -1.64500009E-02  -1.00944249E-03
  -1.64000001E-02  -1.03193708E-03
  -1.63499992E-02  -1.05465215E-03
  -1.63000003E-02  -1.07784430E-03
  -1.62499994E-02  -1.10175065E-03
  -1.62000004E-02  -1.12647994E-03
  -1.61499996E-02  -1.15196710E-03
  -1.61000006E-02  -1.17800198E-03
  -1.60499997E-02  -1.20432826E-03
  -1.60000008E-02  -1.23076211E-03
  -1.59499999E-02  -1.25727989E-03
  -1.59000009E-02  -1.28403341E-03
  -1.58500001E-02  -1.31128181E-03
  -1.57999992E-02  -1.33927842E-03
  -1.57500003E-02  -1.36815768E-03
  -1.56999994E-02  -1.39787560E-03
  -1.56500004E-02  -1.42823183E-03
  -1.55999996E-02  -1.45896780E-03
  -1.55499997E-02  -1.48988352E-03
  -1.54999997E-02  -1.52093684E-03
  -1.54499998E-02  -1.55227096E-03
  -1.53999999E-02  -1.58414373E-03
  -1.53500000E-02  -1.61681918E-03
  -1.53000001E-02  -1.65044877E-03
  -1.52500002E-02  -1.68500096E-03
  -1.52000003E-02  -1.72028039E-03
  -1.51500003E-02  -1.75601628E-03
  -1.51000004E-02  -1.79199292E-03
  -1.50499996E-02  -1.82815397E-03
  -1.49999997E-02  -1.86462759E-03
  -1.49499997E-02  -1.90167688E-03
  -1.48999998E-02  -1.93958788E-03
  -1.48499999E-02  -1.97853451E-03
  -1.48000000E-02  -2.01850431E-03
  -1.47500001E-02  -2.05930858E-03
  -1.47000002E-02  -2.10067094E-03
  -1.46500003E-02  -2.14235741E-03
  -1.46000003E-02  -2.18429323E-03
  -1.45500004E-02  -2.22660182E-03
  -1.44999996E-02  -2.26955465E-03
  -1.44499997E-02  -2.31344579E-03
  -1.43999998E-02  -2.35845847E-03
  -1.43499998E-02  -2.40459619E-03
  -1.42999999E-02  -2.45168013E-03
  -1.42500000E-02  -2.49942718E-03
  -1.42000001E-02  -2.54759099E-03
  -1.41500002E-02  -2.59607867E-03
  -1.41000003E-02  -2.64499895E-03
  -1.40500003E-02  -2.69461842E-03
  -1.40000004E-02  -2.74523837E-03
  -1.39499996E-02  -2.79706391E-03
  -1.38999997E-02  -2.85011204E-03
  -1.38499998E-02  -2.90420884E-03
  -1.37999998E-02  -2.95907329E-03
  -1.37499999E-02  -3.01445415E-03
  -1.37000000E-02  -3.07024340E-03
  -1.36500001E-02  -3.12653882E-03
  -1.36000002E-02  -3.18361074E-03
  -1.35500003E-02  -3.24176834E-03
  -1.35000004E-02  -3.30123422E-03
  -1.34500004E-02  -3.36204399E-03
  -1.33999996E-02  -3.42402956E-03
  -1.33499997E-02  -3.48690175E-03
  -1.32999998E-02  -3.55037907E-03
  -1.32499998E-02  -3.61433229E-03
  -1.31999999E-02  -3.67884664E-03
  -1.31500000E-02  -3.74418194E-03
  -1.31000001E-02  -3.81066534E-03
  -1.30500002E-02  -3.87853594E-03
  -1.30000003E-02  -3.94783122E-03
  -1.29500004E-02  -4.01838869E-03
  -1.29000004E-02  -4.08992870E-03
  -1.28499996E-02  -4.16216347E-03
  -1.27999997E-02  -4.23494354E-03
  -1.27499998E-02  -4.30835597E-03
  -1.26999998E-02  -4.38265922E-03
  -1.26499999E-02  -4.45817411E-03
  -1.26000000E-02  -4.53514606E-03
  -1.25500001E-02  -4.61362489E-03
  -1.25000002E-02  -4.69346205E-03
  -1.24500003E-02  -4.77436837E-03
  -1.24000004E-02  -4.85604024E-03
  -1.23500004E-02  -4.93831700E-03
  -1.22999996E-02  -5.02124149E-03
  -1.22499997E-02  -5.10504283E-03
  -1.21999998E-02  -5.19004697E-03
  -1.21499998E-02  -5.27651561E-03
  -1.20999999E-02  -5.36452141E-03
  -1.20500000E-02  -5.45391766E-03
  -1.20000001E-02  -5.54440683E-03
  -1.19500002E-02  -5.63568296E-03
  -1.19000003E-02  -5.72757516E-03
  -1.18500004E-02  -5.82011370E-03
  -1.18000004E-02  -5.91352582E-03
  -1.17499996E-02  -6.00814354E-03
  -1.16999997E-02  -6.10424299E-03
  -1.16499998E-02  -6.20192802E-03
  -1.15999999E-02  -6.30107289E-03
  -1.15499999E-02  -6.40136702E-03
  -1.15000000E-02  -6.50246814E-03
  -1.14500001E-02  -6.60415040E-03
  -1.14000002E-02  -6.70640869E-03
  -1.13500003E-02  -6.80944091E-03
  -1.13000004E-02  -6.91355672E-03
  -1.12500004E-02  -7.01905880E-03
  -1.11999996E-02  -7.12608825E-03
  -1.11499997E-02  -7.23451748E-03
  -1.10999998E-02  -7.34403729E-03
  -1.10499999E-02  -7.45432964E-03
  -1.09999999E-02  -7.56514398E-03
  -1.09500000E-02  -7.67645519E-03
  -1.09000001E-02  -7.78849935E-03
  -1.08500002E-02  -7.90161453E-03
  -1.08000003E-02  -8.01609643E-03
  -1.07500004E-02  -8.13207123E-03
  -1.07000005E-02  -8.24944675E-03
  -1.06499996E-02  -8.36791098E-03
  -1.05999997E-02  -8.48706532E-03
  -1.05499998E-02  -8.60661548E-03
  -1.04999999E-02  -8.72649159E-03
  -1.04499999E-02  -8.84687155E-03
  -1.04000000E-02  -8.96807201E-03
  -1.03500001E-02  -9.09039192E-03
  -1.03000002E-02  -9.21403244E-03
  -1.02500003E-02  -9.33892652E-03
  -1.02000004E-02  -9.46476590E-03
  -1.01500005E-02  -9.59119760E-03
  -1.00999996E-02  -9.71791614E-03
  -1.00499997E-02  -9.84478835E-03
  -9.99999978E-03  -9.97192133E-03
  -9.94999986E-03  -1.00996234E-02
  -9.89999995E-03  -1.02282614E-02
  -9.85000003E-03  -1.03580588E-02
  -9.80000012E-03  -1.04889795E-02
  -9.75000020E-03  -1.06207523E-02
  -9.70000029E-03  -1.07529769E-02
  -9.65000037E-03  -1.08852880E-02
  -9.60000046E-03  -1.10174967E-02
  -9.54999961E-03  -1.11496737E-02
  -9.49999969E-03  -1.12820966E-02
  -9.44999978E-03  -1.14150988E-02
  -9.39999986E-03  -1.15489000E-02
  -9.34999995E-03  -1.16835050E-02
  -9.30000003E-03  -1.18186409E-02
  -9.25000012E-03  -1.19538531E-02
  -9.20000020E-03  -1.20887281E-02
  -9.15000029E-03  -1.22230854E-02
  -9.10000037E-03  -1.23570198E-02
  -9.05000046E-03  -1.24907997E-02
  -8.99999961E-03  -1.26247639E-02
  -8.94999970E-03  -1.27591752E-02
  -8.89999978E-03  -1.28940716E-02
  -8.84999987E-03  -1.30292084E-02
  -8.79999995E-03  -1.31641431E-02
  -8.75000004E-03  -1.32984612E-02
  -8.70000012E-03  -1.34319160E-02
  -8.65000021E-03  -1.35645084E-02
  -8.60000029E-03  -1.36964601E-02
  -8.55000038E-03  -1.38281202E-02
  -8.50000046E-03  -1.39597384E-02
  -8.44999962E-03  -1.40912961E-02
  -8.39999970E-03  -1.42225428E-02
  -8.34999979E-03  -1.43530592E-02
  -8.29999987E-03  -1.44824004E-02
  -8.24999996E-03  -1.46102803E-02
  -8.20000004E-03  -1.47366719E-02
  -8.15000013E-03  -1.48617588E-02
  -8.10000021E-03  -1.49858622E-02
  -8.05000030E-03  -1.51092261E-02
  -8.00000038E-03  -1.52318850E-02
  -7.95000046E-03  -1.53536163E-02
  -7.89999962E-03  -1.54740345E-02
  -7.84999970E-03  -1.55927138E-02
  -7.79999979E-03  -1.57093573E-02
  -7.74999987E-03  -1.58238467E-02
  -7.69999996E-03  -1.59363113E-02
  -7.65000004E-03  -1.60470847E-02
  -7.60000013E-03  -1.61564238E-02
  -7.55000021E-03  -1.62643641E-02
  -7.49999983E-03  -1.63706746E-02
  -7.44999992E-03  -1.64749753E-02
  -7.40000000E-03  -1.65767986E-02
  -7.35000009E-03  -1.66757107E-02
  -7.30000017E-03  -1.67715568E-02
  -7.24999979E-03  -1.68644469E-02
  -7.19999988E-03  -1.69546679E-02
  -7.14999996E-03  -1.70425102E-02
  -7.10000005E-03  -1.71280596E-02
  -7.05000013E-03  -1.72111243E-02
  -7.00000022E-03  -1.72912776E-02
  -6.94999984E-03  -1.73680130E-02
  -6.89999992E-03  -1.74409375E-02
  -6.85000001E-03  -1.75098442E-02
  -6.80000009E-03  -1.75747890E-02
  -6.75000018E-03  -1.76360328E-02
  -6.69999979E-03  -1.76937878E-02
  -6.64999988E-03  -1.77481286E-02
  -6.59999996E-03  -1.77988634E-02
  -6.55000005E-03  -1.78456064E-02
  -6.50000013E-03  -1.78878978E-02
  -6.45000022E-03  -1.79252941E-02
  -6.39999984E-03  -1.79576762E-02
  -6.34999992E-03  -1.79851502E-02
  -6.30000001E-03  -1.80078987E-02
  -6.25000009E-03  -1.80260427E-02
  -6.20000018E-03  -1.80395432E-02
  -6.14999980E-03  -1.80482380E-02
  -6.09999988E-03  -1.80517118E-02
  -6.04999997E-03  -1.80494450E-02
  -6.00000005E-03  -1.80410761E-02
  -5.95000014E-03  -1.80264264E-02
  -5.90000022E-03  -1.80055127E-02
  -5.84999984E-03  -1.79784782E-02
  -5.79999993E-03  -1.79454442E-02
  -5.75000001E-03  -1.79064013E-02
  -5.70000010E-03  -1.78611260E-02
  -5.65000018E-03  -1.78091992E-02
  -5.59999980E-03  -1.77501459E-02
  -5.54999989E-03  -1.76835991E-02
  -5.49999997E-03  -1.76093318E-02
  -5.45000006E-03  -1.75273120E-02
  -5.40000014E-03  -1.74376890E-02
  -5.35000023E-03  -1.73405856E-02
  -5.29999984E-03  -1.72359981E-02
  -5.24999993E-03  -1.71237774E-02
  -5.20000001E-03  -1.70034729E-02
  -5.15000010E-03  -1.68745704E-02
  -5.10000018E-03  -1.67366900E-02
  -5.04999980E-03  -1.65895652E-02
  -4.99999989E-03  -1.64331775E-02
  -4.94999997E-03  -1.62676051E-02
  -4.90000006E-03  -1.60928592E-02
  -4.85000014E-03  -1.59088764E-02
  -4.80000023E-03  -1.57154966E-02
  -4.74999985E-03  -1.55122764E-02
  -4.69999993E-03  -1.52986702E-02
  -4.65000002E-03  -1.50742568E-02
  -4.60000010E-03  -1.48387505E-02
  -4.55000019E-03  -1.45920236E-02
  -4.49999981E-03  -1.43341683E-02
  -4.44999989E-03  -1.40654780E-02
  -4.39999998E-03  -1.37859248E-02
  -4.35000006E-03  -1.34951863E-02
  -4.30000015E-03  -1.31927412E-02
  -4.25000023E-03  -1.28779635E-02
  -4.19999985E-03  -1.25504360E-02
  -4.14999994E-03  -1.22099258E-02
  -4.10000002E-03  -1.18565243E-02
  -4.05000011E-03  -1.14904158E-02
  -4.00000019E-03  -1.11117046E-02
  -3.94999981E-03  -1.07203061E-02
  -3.89999989E-03  -1.03157992E-02
  -3.84999998E-03  -9.89761110E-03
  -3.80000006E-03  -9.46514308E-03
  -3.74999992E-03  -9.01787169E-03
  -3.70000000E-03  -8.55554175E-03
  -3.65000009E-03  -8.07822496E-03
  -3.59999994E-03  -7.58606661E-03
  -3.55000002E-03  -7.07912166E-03
  -3.50000011E-03  -6.55741058E-03
  -3.44999996E-03  -6.02058414E-03
  -3.40000005E-03  -5.46799693E-03
  -3.34999990E-03  -4.89894766E-03
  -3.29999998E-03  -4.31283331E-03
  -3.25000007E-03  -3.70949600E-03
  -3.19999992E-03  -3.08907172E-03
  -3.15000000E-03  -2.45179073E-03
  -3.10000009E-03  -1.79793849E-03
  -3.04999994E-03  -1.12752209E-03
  -3.00000003E-03  -4.40030301E-04
  -2.95000011E-03   2.65258510E-04
  -2.89999996E-03   9.88999731E-04
  -2.85000005E-03   1.73179572E-03
  -2.79999990E-03   2.49404693E-03
  -2.74999999E-03   3.27566848E-03
  -2.70000007E-03   4.07635747E-03
  -2.64999992E-03   4.89587896E-03
  -2.60000001E-03   5.73408417E-03
  -2.55000009E-03   6.59125904E-03
  -2.49999994E-03   7.46815465E-03
  -2.45000003E-03   8.36568698E-03
  -2.40000011E-03   9.28463601E-03
  -2.34999997E-03   1.02253687E-02
  -2.30000005E-03   1.11878915E-02
  -2.24999990E-03   1.21717546E-02
  -2.19999999E-03   1.31764291E-02
  -2.15000007E-03   1.42016541E-02
  -2.09999993E-03   1.52477622E-02
  -2.05000001E-03   1.63156018E-02
  -2.00000009E-03   1.74060445E-02
  -1.94999995E-03   1.85199231E-02
  -1.90000003E-03   1.96575839E-02
  -1.85000000E-03   2.08189543E-02
  -1.79999997E-03   2.20035631E-02
  -1.75000005E-03   2.32107136E-02
  -1.70000002E-03   2.44401973E-02
  -1.64999999E-03   2.56923158E-02
  -1.59999996E-03   2.69678980E-02
  -1.55000004E-03   2.82680802E-02
  -1.50000001E-03   2.95938198E-02
  -1.44999998E-03   3.09455171E-02
  -1.39999995E-03   3.23229283E-02
  -1.35000004E-03   3.37255225E-02
  -1.30000000E-03   3.51526849E-02
  -1.24999997E-03   3.66039723E-02
  -1.20000006E-03   3.80794890E-02
  -1.15000003E-03   3.95799764E-02
  -1.09999999E-03   4.11066115E-02
  -1.04999996E-03   4.26605903E-02
  -1.00000005E-03   4.42424007E-02
  -9.50000016E-04   4.58519086E-02
  -8.99999985E-04   4.74883541E-02
  -8.50000011E-04   4.91507277E-02
  -7.99999980E-04   5.08383662E-02
  -7.50000007E-04   5.25512286E-02
  -6.99999975E-04   5.42901643E-02
  -6.50000002E-04   5.60564436E-02
  -6.00000028E-04   5.78513779E-02
  -5.49999997E-04   5.96757270E-02
  -5.00000024E-04   6.15293309E-02
  -4.49999992E-04   6.34113476E-02
  -3.99999990E-04   6.53207153E-02
  -3.49999988E-04   6.72565103E-02
  -3.00000014E-04   6.92185760E-02
  -2.50000012E-04   7.12076202E-02
  -1.99999995E-04   7.32249692E-02
  -1.50000007E-04   7.52720907E-02
  -9.99999975E-05   7.73498267E-02
  -4.99999987E-05   7.94580281E-02
   0.00000000       8.15957934E-02
   4.99999987E-05   8.37617517E-02
   9.99999975E-05   8.59548077E-02
   1.50000007E-04   8.81745517E-02
   1.99999995E-04   9.04215500E-02
   2.50000012E-04   9.26970914E-02
   3.00000014E-04   9.50026810E-02
   3.49999988E-04   9.73394439E-02
   3.99999990E-04   9.97073576E-02
   4.49999992E-04  0.102105387    
   5.00000024E-04  0.104531989    
   5.49999997E-04  0.106985852    
   6.00000028E-04  0.109466396    
   6.50000002E-04  0.111973740    
   6.99999975E-04  0.114509009    
   7.50000007E-04  0.117073923    
   7.99999980E-04  0.119669788    
   8.50000011E-04  0.122297011    
   8.99999985E-04  0.124954917    
   9.50000016E-04  0.127641886    
   1.00000005E-03  0.130355924    
   1.04999996E-03  0.133095860    
   1.09999999E-03  0.135861605    
   1.15000003E-03  0.138654113    
   1.20000006E-03  0.141475186    
   1.24999997E-03  0.144326389    
   1.30000000E-03  0.147208318    
   1.35000004E-03  0.150120303    
   1.39999995E-03  0.153060511    
   1.44999998E-03  0.156026676    
   1.50000001E-03  0.159017086    
   1.55000004E-03  0.162031502    
   1.59999996E-03  0.165071025    
   1.64999999E-03  0.168137372    
   1.70000002E-03  0.171232089    
   1.75000005E-03  0.174355954    
   1.79999997E-03  0.177508265    
   1.85000000E-03  0.180686966    
   1.90000003E-03  0.183889776    
   1.94999995E-03  0.187114999    
   2.00000009E-03  0.190362185    
   2.05000001E-03  0.193631813    
   2.09999993E-03  0.196925223    
   2.15000007E-03  0.200244203    
   2.19999999E-03  0.203589797    
   2.24999990E-03  0.206961513    
   2.30000005E-03  0.210357442    
   2.34999997E-03  0.213774830    
   2.40000011E-03  0.217211708    
   2.45000003E-03  0.220667213    
   2.49999994E-03  0.224141449    
   2.55000009E-03  0.227635637    
   2.60000001E-03  0.231151566    
   2.64999992E-03  0.234690383    
   2.70000007E-03  0.238251895    
   2.74999999E-03  0.241834328    
   2.79999990E-03  0.245434955    