  -3.99999991E-02   0.00000000    
  -3.99499983E-02   0.00000000    
  -3.99000011E-02   0.00000000    
  -3.98500003E-02   0.00000000    
  -3.97999994E-02  -1.85252950E-18
  -3.97499986E-02  -2.11456051E-17
  -3.97000015E-02  -1.25872841E-16
  -3.96500006E-02  -5.18022904E-16
  -3.95999998E-02  -1.64866906E-15
  -3.95499989E-02  -4.30490350E-15
  -3.95000018E-02  -9.55721081E-15
  -3.94500010E-02  -1.84641646E-14
  -3.94000001E-02  -3.15445674E-14
  -3.93499993E-02  -4.82316993E-14
  -3.92999984E-02  -6.67125792E-14
  -3.92500013E-02  -8.45546506E-14
  -3.92000005E-02  -1.00203252E-13
  -3.91499996E-02  -1.14849224E-13
  -3.90999988E-02  -1.33617265E-13
  -3.90500017E-02  -1.64944393E-13
  -3.90000008E-02  -2.17684662E-13
  -3.89500000E-02  -2.96741391E-13
  -3.88999991E-02  -3.99267858E-13
  -3.88499983E-02  -5.13872419E-13
  -3.88000011E-02  -6.24303343E-13
  -3.87500003E-02  -7.16951888E-13
  -3.86999995E-02  -7.89114705E-13
  -3.86499986E-02  -8.53594376E-13
  -3.86000015E-02  -9.35947283E-13
  -3.85500006E-02  -1.06370110E-12
  -3.84999998E-02  -1.25112767E-12
  -3.84499989E-02  -1.48662408E-12
  -3.84000018E-02  -1.73020040E-12
  -3.83500010E-02  -1.92493851E-12
  -3.83000001E-02  -2.01960519E-12
  -3.82499993E-02  -1.99304180E-12
  -3.81999984E-02  -1.86820828E-12
  -3.81500013E-02  -1.70701777E-12
  -3.81000005E-02  -1.58551178E-12
  -3.80499996E-02  -1.55866607E-12
  -3.79999988E-02  -1.63039851E-12
  -3.79500017E-02  -1.74359539E-12
  -3.79000008E-02  -1.79690551E-12
  -3.78500000E-02  -1.68285318E-12
  -3.77999991E-02  -1.33102166E-12
  -3.77499983E-02  -7.36235129E-13
  -3.77000012E-02   4.24875860E-14
  -3.76500003E-02   9.12973256E-13
  -3.75999995E-02   1.79692079E-12
  -3.75499986E-02   2.67062544E-12
  -3.75000015E-02   3.57998093E-12
  -3.74500006E-02   4.62295003E-12
  -3.73999998E-02   5.90825175E-12
  -3.73499990E-02   7.50928920E-12
  -3.73000018E-02   9.43255283E-12
  -3.72500010E-02   1.16109362E-11
  -3.72000001E-02   1.39203588E-11
  -3.71499993E-02   1.62094435E-11
  -3.70999984E-02   1.83308264E-11
  -3.70500013E-02   2.01681779E-11
  -3.70000005E-02   2.16599655E-11
  -3.69499996E-02   2.28231010E-11
  -3.68999988E-02   2.37732455E-11
  -3.68500017E-02   2.47272498E-11
  -3.68000008E-02   2.59664842E-11
  -3.67500000E-02   2.77487859E-11
  -3.66999991E-02   3.01833766E-11
  -3.66499983E-02   3.31166726E-11
  -3.66000012E-02   3.60957340E-11
  -3.65500003E-02   3.84605368E-11
  -3.64999995E-02   3.95631791E-11
  -3.64499986E-02   3.90408782E-11
  -3.64000015E-02   3.70170387E-11
  -3.63500006E-02   3.41060687E-11
  -3.62999998E-02   3.11685712E-11
  -3.62499990E-02   2.88827139E-11
  -3.62000018E-02   2.73144094E-11
  -3.61500010E-02   2.57174820E-11
  -3.61000001E-02   2.27300956E-11
  -3.60499993E-02   1.69613889E-11
  -3.59999985E-02   7.74950416E-12
  -3.59500013E-02  -4.27371593E-12
  -3.59000005E-02  -1.71593521E-11
  -3.58499996E-02  -2.83000515E-11
  -3.57999988E-02  -3.55839802E-11
  -3.57500017E-02  -3.85582712E-11
  -3.57000008E-02  -3.90086505E-11
  -3.56500000E-02  -4.05398527E-11
  -3.55999991E-02  -4.71677489E-11
  -3.55499983E-02  -6.14372511E-11
  -3.55000012E-02  -8.29178184E-11
  -3.54500003E-02  -1.07895429E-10
  -3.53999995E-02  -1.30624622E-10
  -3.53499986E-02  -1.45782178E-10
  -3.53000015E-02  -1.51096732E-10
  -3.52500007E-02  -1.48868445E-10
  -3.51999998E-02  -1.45439591E-10
  -3.51499990E-02  -1.48554585E-10
  -3.51000018E-02  -1.63596164E-10
  -3.50500010E-02  -1.90398974E-10
  -3.50000001E-02  -2.22317012E-10
  -3.49499993E-02  -2.48357251E-10
  -3.48999985E-02  -2.57793509E-10
  -3.48500013E-02  -2.45360149E-10
  -3.48000005E-02  -2.14559412E-10
  -3.47499996E-02  -1.77188139E-10
  -3.46999988E-02  -1.48782889E-10
  -3.46500017E-02  -1.41645862E-10
  -3.46000008E-02  -1.58526053E-10
  -3.45500000E-02  -1.90117283E-10
  -3.44999991E-02  -2.18075613E-10
  -3.44499983E-02  -2.22777061E-10
  -3.44000012E-02  -1.92625360E-10
  -3.43500003E-02  -1.30570471E-10
  -3.42999995E-02  -5.43304429E-11
  -3.42499986E-02   1.05432755E-11
  -3.42000015E-02   4.22313851E-11
  -3.41500007E-02   3.37579339E-11
  -3.40999998E-02  -1.82064997E-12
  -3.40499990E-02  -3.53744464E-11
  -3.40000018E-02  -3.39560151E-11
  -3.39500010E-02   2.36325542E-11
  -3.39000002E-02   1.35124648E-10
  -3.38499993E-02   2.73027989E-10
  -3.37999985E-02   3.94775546E-10
  -3.37500013E-02   4.61204325E-10
  -3.37000005E-02   4.55373517E-10
  -3.36499996E-02   3.92721106E-10
  -3.35999988E-02   3.16784543E-10
  -3.35500017E-02   2.81057455E-10
  -3.35000008E-02   3.24282379E-10
  -3.34500000E-02   4.50371934E-10
  -3.33999991E-02   6.23055774E-10
  -3.33499983E-02   7.79278364E-10
  -3.33000012E-02   8.56757054E-10
  -3.32500003E-02   8.23862922E-10
  -3.31999995E-02   6.97728098E-10
  -3.31499986E-02   5.40778811E-10
  -3.31000015E-02   4.35292524E-10
  -3.30500007E-02   4.46052001E-10
  -3.29999998E-02   5.87790039E-10
  -3.29499990E-02   8.13360490E-10
  -3.29000019E-02   1.03014264E-09
  -3.28500010E-02   1.13941334E-09
  -3.28000002E-02   1.08202514E-09
  -3.27499993E-02   8.69276151E-10
  -3.26999985E-02   5.83087079E-10
  -3.26500013E-02   3.42833067E-10
  -3.26000005E-02   2.51809851E-10
  -3.25499997E-02   3.47063073E-10
  -3.24999988E-02   5.76656667E-10
  -3.24500017E-02   8.17380830E-10
  -3.24000008E-02   9.27743549E-10
  -3.23500000E-02   8.13927981E-10
  -3.22999991E-02   4.78461326E-10
  -3.22499983E-02   2.71372994E-11
  -3.22000012E-02  -3.72411380E-10
  -3.21500003E-02  -5.64703007E-10
  -3.20999995E-02  -4.80528672E-10
  -3.20499986E-02  -1.76208728E-10
  -3.20000015E-02   1.83210946E-10
  -3.19500007E-02   3.93130944E-10
  -3.18999998E-02   3.02258885E-10
  -3.18499990E-02  -1.12810400E-10
  -3.18000019E-02  -7.27688243E-10
  -3.17500010E-02  -1.31820876E-09
  -3.17000002E-02  -1.65856928E-09
  -3.16499993E-02  -1.62694280E-09
  -3.15999985E-02  -1.26942357E-09
  -3.15500014E-02  -7.89369459E-10
  -3.15000005E-02  -4.62050481E-10
  -3.14499997E-02  -5.09639886E-10
  -3.13999988E-02  -9.92618765E-10
  -3.13500017E-02  -1.76973780E-09
  -3.13000008E-02  -2.54994870E-09
  -3.12500000E-02  -3.01808112E-09
  -3.11999992E-02  -2.98022385E-09
  -3.11500002E-02  -2.46200571E-09
  -3.10999993E-02  -1.71073877E-09
  -3.10500003E-02  -1.09427412E-09
  -3.09999995E-02  -9.37316558E-10
  -3.09500005E-02  -1.36774581E-09
  -3.08999997E-02  -2.24527463E-09
  -3.08500007E-02  -3.21070992E-09
  -3.07999998E-02  -3.84003673E-09
  -3.07500008E-02  -3.83761645E-09
  -3.07000000E-02  -3.18063331E-09
  -3.06499992E-02  -2.14455653E-09
  -3.06000002E-02  -1.19084564E-09
  -3.05499993E-02  -7.61418761E-10
  -3.05000003E-02  -1.07047615E-09
  -3.04499995E-02  -1.99070693E-09
  -3.04000005E-02  -3.09233705E-09
  -3.03499997E-02  -3.82550702E-09
  -3.03000007E-02  -3.76908060E-09
  -3.02499998E-02  -2.83375945E-09
  -3.02000009E-02  -1.32244127E-09
  -3.01500000E-02   1.88084354E-10
  -3.00999992E-02   1.09881959E-09
  -3.00500002E-02   1.06387787E-09
  -2.99999993E-02   1.62857061E-10
  -2.99500003E-02  -1.11512188E-09
  -2.98999995E-02  -2.07801709E-09
  -2.98500005E-02  -2.14197127E-09
  -2.97999997E-02  -1.10783316E-09
  -2.97500007E-02   7.26982585E-10
  -2.96999998E-02   2.68147771E-09
  -2.96500009E-02   3.98768485E-09
  -2.96000000E-02   4.14247081E-09
  -2.95499992E-02   3.15409010E-09
  -2.95000002E-02   1.56397995E-09
  -2.94499993E-02   2.22674962E-10
  -2.94000003E-02  -8.83766324E-11
  -2.93499995E-02   9.78510495E-10
  -2.93000005E-02   3.15542237E-09
  -2.92499997E-02   5.65255975E-09
  -2.92000007E-02   7.49704387E-09
  -2.91499998E-02   7.97156030E-09
  -2.91000009E-02   6.95480828E-09
  -2.90500000E-02   5.00214403E-09
  -2.89999992E-02   3.11765747E-09
  -2.89500002E-02   2.30931363E-09
  -2.88999993E-02   3.12311954E-09
  -2.88500004E-02   5.37053690E-09
  -2.87999995E-02   8.18337664E-09
  -2.87500005E-02   1.03850253E-08
  -2.86999997E-02   1.10201892E-08
  -2.86500007E-02   9.80533521E-09
  -2.85999998E-02   7.28854932E-09
  -2.85500009E-02   4.63260674E-09
  -2.85000000E-02   3.10534731E-09
  -2.84499992E-02   3.50001339E-09
  -2.84000002E-02   5.74973669E-09
  -2.83499993E-02   8.92173357E-09
  -2.83000004E-02   1.16094396E-08
  -2.82499995E-02   1.25581341E-08
  -2.82000005E-02   1.12455059E-08
  -2.81499997E-02   8.14826251E-09
  -2.81000007E-02   4.55980986E-09
  -2.80499998E-02   2.02544670E-09
  -2.80000009E-02   1.64021030E-09
  -2.79500000E-02   3.52726248E-09
  -2.78999992E-02   6.74381218E-09
  -2.78500002E-02   9.67425962E-09
  -2.77999993E-02   1.07482379E-08
  -2.77500004E-02   9.16552167E-09
  -2.76999995E-02   5.29461675E-09
  -2.76500005E-02   5.49356338E-10
  -2.75999997E-02  -3.21945404E-09
  -2.75500007E-02  -4.55598315E-09
  -2.74999999E-02  -3.08111603E-09
  -2.74500009E-02   2.94568370E-10
  -2.74000000E-02   3.74131881E-09
  -2.73499992E-02   5.31517985E-09
  -2.73000002E-02   3.84352816E-09
  -2.72499993E-02  -5.12274112E-10
  -2.72000004E-02  -6.28650421E-09
  -2.71499995E-02  -1.13377947E-08
  -2.71000005E-02  -1.38089318E-08
  -2.70499997E-02  -1.29884477E-08
  -2.70000007E-02  -9.67507763E-09
  -2.69499999E-02  -5.86075943E-09
  -2.69000009E-02  -3.85442922E-09
  -2.68500000E-02  -5.22989918E-09
  -2.67999992E-02  -1.00747819E-08
  -2.67500002E-02  -1.68955072E-08
  -2.66999993E-02  -2.32442474E-08
  -2.66500004E-02  -2.68044129E-08
  -2.65999995E-02  -2.64521507E-08
  -2.65500005E-02  -2.28061907E-08
  -2.64999997E-02  -1.79970012E-08
  -2.64500007E-02  -1.47356980E-08
  -2.63999999E-02  -1.50868544E-08
  -2.63500009E-02  -1.94983922E-08
  -2.63000000E-02  -2.65416542E-08
  -2.62499992E-02  -3.35035288E-08
  -2.62000002E-02  -3.75861191E-08
  -2.61499994E-02  -3.71829678E-08
  -2.61000004E-02  -3.26488099E-08
  -2.60499995E-02  -2.61935380E-08
  -2.60000005E-02  -2.09214566E-08
  -2.59499997E-02  -1.94296348E-08
  -2.59000007E-02  -2.25946444E-08
  -2.58499999E-02  -2.91102928E-08
  -2.58000009E-02  -3.60120502E-08
  -2.57500000E-02  -3.99785165E-08
  -2.56999992E-02  -3.88373280E-08
  -2.56500002E-02  -3.25913838E-08
  -2.55999994E-02  -2.34801760E-08
  -2.55500004E-02  -1.50188590E-08
  -2.54999995E-02  -1.04247420E-08
  -2.54500005E-02  -1.11344196E-08
  -2.53999997E-02  -1.60944111E-08
  -2.53500007E-02  -2.21738556E-08
  -2.52999999E-02  -2.55432475E-08
  -2.52500009E-02  -2.34150725E-08
  -2.52000000E-02  -1.53579212E-08
  -2.51499992E-02  -3.56795860E-09
  -2.51000002E-02   8.05795608E-09
  -2.50499994E-02   1.56576228E-08
  -2.50000004E-02   1.71744805E-08
  -2.49499995E-02   1.33519551E-08
  -2.49000005E-02   7.47148388E-09
  -2.48499997E-02   3.91720834E-09
  -2.48000007E-02   6.19187679E-09
  -2.47499999E-02   1.52789497E-08
  -2.47000009E-02   2.91130835E-08
  -2.46500000E-02   4.34344507E-08
  -2.45999992E-02   5.36742526E-08
  -2.45500002E-02   5.70348924E-08
  -2.44999994E-02   5.38142508E-08
  -2.44500004E-02   4.73434305E-08
  -2.43999995E-02   4.25266613E-08
  -2.43500005E-02   4.36148966E-08
  -2.42999997E-02   5.22150891E-08
  -2.42500007E-02   6.64581989E-08
  -2.41999999E-02   8.17428045E-08
  -2.41500009E-02   9.27580501E-08
  -2.41000000E-02   9.58923891E-08
  -2.40499992E-02   9.09312519E-08
  -2.40000002E-02   8.12414811E-08
  -2.39499994E-02   7.23140587E-08
  -2.39000004E-02   6.92882907E-08
  -2.38499995E-02   7.45675308E-08
  -2.38000005E-02   8.66263790E-08
  -2.37499997E-02   1.00592203E-07
  -2.37000007E-02   1.10383596E-07
  -2.36499999E-02   1.11465177E-07
  -2.36000009E-02   1.02967270E-07
  -2.35500000E-02   8.81760087E-08
  -2.34999992E-02   7.31218464E-08
  -2.34500002E-02   6.38634603E-08
  -2.33999994E-02   6.36823145E-08
  -2.33500004E-02   7.14793487E-08
  -2.32999995E-02   8.21480057E-08
  -2.32500006E-02   8.88084486E-08
  -2.31999997E-02   8.59259970E-08
  -2.31500007E-02   7.19006863E-08
  -2.30999999E-02   4.99184694E-08
  -2.30500009E-02   2.66216329E-08
  -2.30000000E-02   9.14931508E-09
  -2.29499992E-02   1.86716020E-09
  -2.29000002E-02   4.28615632E-09
  -2.28499994E-02   1.11646337E-08
  -2.28000004E-02   1.48083545E-08
  -2.27499995E-02   8.56914628E-09
  -2.27000006E-02  -1.00399902E-08
  -2.26499997E-02  -3.80625238E-08
  -2.26000007E-02  -6.82940851E-08
  -2.25499999E-02  -9.24744228E-08
  -2.25000009E-02  -1.05057431E-07
  -2.24500000E-02  -1.05833841E-07
  -2.23999992E-02  -1.00160769E-07
  -2.23500002E-02  -9.66228342E-08
  -2.22999994E-02  -1.03131136E-07
  -2.22500004E-02  -1.23217305E-07
  -2.21999995E-02  -1.54241008E-07
  -2.21500006E-02  -1.88394566E-07
  -2.20999997E-02  -2.16120284E-07
  -2.20500007E-02  -2.30431127E-07
  -2.19999999E-02  -2.30164304E-07
  -2.19500009E-02  -2.20633737E-07
  -2.19000001E-02  -2.11304965E-07
  -2.18499992E-02  -2.11483538E-07
  -2.18000002E-02  -2.25953855E-07
  -2.17499994E-02  -2.52584243E-07
  -2.17000004E-02  -2.83063059E-07
  -2.16499995E-02  -3.06515858E-07
  -2.16000006E-02  -3.14414280E-07
  -2.15499997E-02  -3.04543988E-07
  -2.15000007E-02  -2.82168998E-07
  -2.14499999E-02  -2.57773365E-07
  -2.14000009E-02  -2.42325228E-07
  -2.13500001E-02  -2.42181812E-07
  -2.12999992E-02  -2.55980439E-07
  -2.12500002E-02  -2.75010422E-07
  -2.11999994E-02  -2.86994378E-07
  -2.11500004E-02  -2.81628701E-07
  -2.10999995E-02  -2.55371788E-07
  -2.10500006E-02  -2.13245926E-07
  -2.09999997E-02  -1.66733230E-07
  -2.09500007E-02  -1.28628344E-07
  -2.08999999E-02  -1.07141254E-07
  -2.08500009E-02  -1.01956644E-07
  -2.08000001E-02  -1.04129320E-07
  -2.07499992E-02  -9.99758143E-08
  -2.07000002E-02  -7.72780808E-08
  -2.06499994E-02  -3.09993275E-08
  -2.06000004E-02   3.41454438E-08
  -2.05499995E-02   1.05543414E-07
  -2.05000006E-02   1.68233342E-07
  -2.04499997E-02   2.11694271E-07
  -2.04000007E-02   2.34774262E-07
  -2.03499999E-02   2.46429067E-07
  -2.03000009E-02   2.61810072E-07
  -2.02500001E-02   2.95375798E-07
  -2.01999992E-02   3.54124154E-07
  -2.01500002E-02   4.34072319E-07
  -2.00999994E-02   5.21701963E-07
  -2.00500004E-02   5.99843077E-07
  -1.99999996E-02   6.55403539E-07
  -1.99500006E-02   6.85428574E-07
  -1.98999997E-02   6.98643987E-07
  -1.98500007E-02   7.11642770E-07
  -1.97999999E-02   7.41322594E-07
  -1.97500009E-02   7.96958886E-07
  -1.97000001E-02   8.75558385E-07
  -1.96499992E-02   9.62731292E-07
  -1.96000002E-02   1.03883508E-06
  -1.95499994E-02   1.08770757E-06
  -1.95000004E-02   1.10403676E-06
  -1.94499996E-02   1.09593395E-06
  -1.94000006E-02   1.08139272E-06
  -1.93499997E-02   1.08009863E-06
  -1.93000007E-02   1.10423525E-06
  -1.92499999E-02   1.15249281E-06
  -1.92000009E-02   1.21012863E-06
  -1.91500001E-02   1.25521808E-06
  -1.90999992E-02   1.26838620E-06
  -1.90500002E-02   1.24163034E-06
  -1.89999994E-02   1.18215121E-06
  -1.89500004E-02   1.10928852E-06
  -1.88999996E-02   1.04578567E-06
  -1.88500006E-02   1.00724685E-06
  -1.87999997E-02   9.94589413E-07
  -1.87500007E-02   9.93043727E-07
  -1.86999999E-02   9.78339813E-07
  -1.86500009E-02   9.27429369E-07
  -1.86000001E-02   8.28939960E-07
  -1.85499992E-02   6.88551381E-07
  -1.85000002E-02   5.26690769E-07
  -1.84499994E-02   3.69407275E-07
  -1.84000004E-02   2.36434133E-07
  -1.83499996E-02   1.31848338E-07
  -1.83000006E-02   4.16889492E-08
  -1.82499997E-02  -6.01972303E-08
  -1.82000007E-02  -2.00550488E-07
  -1.81499999E-02  -3.94510892E-07
  -1.81000009E-02  -6.38427423E-07
  -1.80500001E-02  -9.11092854E-07
  -1.79999992E-02  -1.18305115E-06
  -1.79500002E-02  -1.42992110E-06
  -1.78999994E-02  -1.64373091E-06
  -1.78500004E-02  -1.83701229E-06
  -1.77999996E-02  -2.03759646E-06
  -1.77500006E-02  -2.27626742E-06
  -1.76999997E-02  -2.57273632E-06
  -1.76500008E-02  -2.92633308E-06
  -1.75999999E-02  -3.31578894E-06
  -1.75500009E-02  -3.70841462E-06
  -1.75000001E-02  -4.07472044E-06
  -1.74499992E-02  -4.40191661E-06
  -1.74000002E-02  -4.70008399E-06
  -1.73499994E-02  -4.99800899E-06
  -1.73000004E-02  -5.33034336E-06
  -1.72499996E-02  -5.72176305E-06
  -1.72000006E-02  -6.17527985E-06
  -1.71499997E-02  -6.67018185E-06
  -1.71000008E-02  -7.17075682E-06
  -1.70499999E-02  -7.64207925E-06
  -1.70000009E-02  -8.06580738E-06
  -1.69500001E-02  -8.44878195E-06
  -1.68999992E-02  -8.82032691E-06
  -1.68500002E-02  -9.21922947E-06
  -1.67999994E-02  -9.67609321E-06
  -1.67500004E-02  -1.01990245E-05
  -1.66999996E-02  -1.07692667E-05
  -1.66500006E-02  -1.13489914E-05
  -1.65999997E-02  -1.18979488E-05
  -1.65500008E-02  -1.23916234E-05
  -1.64999999E-02  -1.28325973E-05
  -1.64500009E-02  -1.32498062E-05
  -1.64000001E-02  -1.36857925E-05
  -1.63499992E-02  -1.41774271E-05
  -1.63000003E-02  -1.47388046E-05
  -1.62499994E-02  -1.53541696E-05
  -1.62000004E-02  -1.59842803E-05
  -1.61499996E-02  -1.65836354E-05
  -1.61000006E-02  -1.71209376E-05
  -1.60499997E-02  -1.75935420E-05
  -1.60000008E-02  -1.80292263E-05
  -1.59499999E-02  -1.84741475E-05
  -1.59000009E-02  -1.89721741E-05
  -1.58500001E-02  -1.95448629E-05
  -1.57999992E-02  -2.01812345E-05
  -1.57500003E-02  -2.08420661E-05
  -1.56999994E-02  -2.14772263E-05
  -1.56500004E-02  -2.20483525E-05
  -1.55999996E-02  -2.25465810E-05
  -1.55499997E-02  -2.29972411E-05
  -1.54999997E-02  -2.34491235E-05
  -1.54499998E-02  -2.39528708E-05
  -1.53999999E-02  -2.45380943E-05
  -1.53500000E-02  -2.51995953E-05
  -1.53000001E-02  -2.58991968E-05
  -1.52500002E-02  -2.65825838E-05
  -1.52000003E-02  -2.72038869E-05
  -1.51500003E-02  -2.77469462E-05
  -1.51000004E-02  -2.82334404E-05
  -1.50499996E-02  -2.87141120E-05
  -1.49999997E-02  -2.92465957E-05
  -1.49499997E-02  -2.98697196E-05
  -1.48999998E-02  -3.05859285E-05
  -1.48499999E-02  -3.13598903E-05
  -1.48000000E-02  -3.21342450E-05
  -1.47500001E-02  -3.28556926E-05
  -1.47000002E-02  -3.34997239E-05
  -1.46500003E-02  -3.40828265E-05
  -1.46000003E-02  -3.46561283E-05
  -1.45500004E-02  -3.52833667E-05
  -1.44999996E-02  -3.60126869E-05
  -1.44499997E-02  -3.68549699E-05
  -1.43999998E-02  -3.77788019E-05
  -1.43499998E-02  -3.87244618E-05
  -1.42999999E-02  -3.96310643E-05
  -1.42500000E-02  -4.04647872E-05
  -1.42000001E-02  -4.12353002E-05
  -1.41500002E-02  -4.19926655E-05
  -1.41000003E-02  -4.28059975E-05
  -1.40500003E-02  -4.37331546E-05
  -1.40000004E-02  -4.47949351E-05
  -1.39499996E-02  -4.59657203E-05
  -1.38999997E-02  -4.71849999E-05
  -1.38499998E-02  -4.83850563E-05
  -1.37999998E-02  -4.95221866E-05
  -1.37499999E-02  -5.05976168E-05
  -1.37000000E-02  -5.16584987E-05
  -1.36500001E-02  -5.27779121E-05
  -1.36000002E-02  -5.40228248E-05
  -1.35500003E-02  -5.54242797E-05
  -1.35000004E-02  -5.69634904E-05
  -1.34500004E-02  -5.85802081E-05
  -1.33999996E-02  -6.02001019E-05
  -1.33499997E-02  -6.17689584E-05
  -1.32999998E-02  -6.32782321E-05
  -1.32499998E-02  -6.47703127E-05
  -1.31999999E-02  -6.63207829E-05
  -1.31500000E-02  -6.80054291E-05
  -1.31000001E-02  -6.98665826E-05
  -1.30500002E-02  -7.18940719E-05
  -1.30000003E-02  -7.40299729E-05
  -1.29500004E-02  -7.61947958E-05
  -1.29000004E-02  -7.83239593E-05
  -1.28499996E-02  -8.03980074E-05
  -1.27999997E-02  -8.24528033E-05
  -1.27499998E-02  -8.45648901E-05
  -1.26999998E-02  -8.68179413E-05
  -1.26499999E-02  -8.92654061E-05
  -1.26000000E-02  -9.19066806E-05
  -1.25500001E-02  -9.46873333E-05
  -1.25000002E-02  -9.75236107E-05
  -1.24500003E-02  -1.00340716E-04
  -1.24000004E-02  -1.03107355E-04
  -1.23500004E-02  -1.05851090E-04
  -1.22999996E-02  -1.08647284E-04
  -1.22499997E-02  -1.11586029E-04
  -1.21999998E-02  -1.14732371E-04
  -1.21499998E-02  -1.18097232E-04
  -1.20999999E-02  -1.21632300E-04
  -1.20500000E-02  -1.25251841E-04
  -1.20000001E-02  -1.28872052E-04
  -1.19500002E-02  -1.32449946E-04
  -1.19000003E-02  -1.36003975E-04
  -1.18500004E-02  -1.39607233E-04
  -1.18000004E-02  -1.43355748E-04
  -1.17499996E-02  -1.47325918E-04
  -1.16999997E-02  -1.51540517E-04
  -1.16499998E-02  -1.55958216E-04
  -1.15999999E-02  -1.60492607E-04
  -1.15499999E-02  -1.65051548E-04
  -1.15000000E-02  -1.69579187E-04
  -1.14500001E-02  -1.74083252E-04
  -1.14000002E-02  -1.78632414E-04
  -1.13500003E-02  -1.83326658E-04
  -1.13000004E-02  -1.88253529E-04
  -1.12500004E-02  -1.93449028E-04
  -1.11999996E-02  -1.98881913E-04
  -1.11499997E-02  -2.04467913E-04
  -1.10999998E-02  -2.10108701E-04
  -1.10499999E-02  -2.15737673E-04
  -1.09999999E-02  -2.21351467E-04
  -1.09500000E-02  -2.27013414E-04
  -1.09000001E-02  -2.32826700E-04
  -1.08500002E-02  -2.38889072E-04
  -1.08000003E-02  -2.45249481E-04
  -1.07500004E-02  -2.51886697E-04
  -1.07000005E-02  -2.58719287E-04
  -1.06499996E-02  -2.65642739E-04
  -1.05999997E-02  -2.72578414E-04
  -1.05499998E-02  -2.79510597E-04
  -1.04999999E-02  -2.86494644E-04
  -1.04499999E-02  -2.93634628E-04
  -1.04000000E-02  -3.01037828E-04
  -1.03500001E-02  -3.08766845E-04
  -1.03000002E-02  -3.16813064E-04
  -1.02500003E-02  -3.25101893E-04
  -1.02000004E-02  -3.33526725E-04
  -1.01500005E-02  -3.41999519E-04
  -1.00999996E-02  -3.50492337E-04
  -1.00499997E-02  -3.59051948E-04
  -9.99999978E-03  -3.67781817E-04
  -9.94999986E-03  -3.76797339E-04
  -9.89999995E-03  -3.86175234E-04
  -9.85000003E-03  -3.95920360E-04
  -9.80000012E-03  -4.05964267E-04
  -9.75000020E-03  -4.16197960E-04
  -9.70000029E-03  -4.26523649E-04
  -9.65000037E-03  -4.36899601E-04
  -9.60000046E-03  -4.47362370E-04
  -9.54999961E-03  -4.58012451E-04
  -9.49999969E-03  -4.68970276E-04
  -9.44999978E-03  -4.80324496E-04
  -9.39999986E-03  -4.92092397E-04
  -9.34999995E-03  -5.04213793E-04
  -9.30000003E-03  -5.16580476E-04
  -9.25000012E-03  -5.29086916E-04
  -9.20000020E-03  -5.41681075E-04
  -9.15000029E-03  -5.54390252E-04
  -9.10000037E-03  -5.67311887E-04
  -9.05000046E-03  -5.80572232E-04
  -8.99999961E-03  -5.94271114E-04
  -8.94999970E-03  -6.08440372E-04
  -8.89999978E-03  -6.23030355E-04
  -8.84999987E-03  -6.37934660E-04
  -8.79999995E-03  -6.53042924E-04
  -8.75000004E-03  -6.68290886E-04
  -8.70000012E-03  -6.83693856E-04
  -8.65000021E-03  -6.99342461E-04
  -8.60000029E-03  -7.15363829E-04
  -8.55000038E-03  -7.31867331E-04
  -8.50000046E-03  -7.48896564E-04
  -8.44999962E-03  -7.66409794E-04
  -8.39999970E-03  -7.84302771E-04
  -8.34999979E-03  -8.02460185E-04
  -8.29999987E-03  -8.20807996E-04
  -8.24999996E-03  -8.39349523E-04
  -8.20000004E-03  -8.58169049E-04
  -8.15000013E-03  -8.77397135E-04
  -8.10000021E-03  -8.97151709E-04
  -8.05000030E-03  -9.17488418E-04
  -8.00000038E-03  -9.38379497E-04
  -7.95000046E-03  -9.59727447E-04
  -7.89999962E-03  -9.81412013E-04
  -7.84999970E-03  -1.00335083E-03
  -7.79999979E-03  -1.02553878E-03
  -7.74999987E-03  -1.04805222E-03
  -7.69999996E-03  -1.07102073E-03
  -7.65000004E-03  -1.09457085E-03
  -7.60000013E-03  -1.11876987E-03
  -7.55000021E-03  -1.14359800E-03
  -7.49999983E-03  -1.16896129E-03
  -7.44999992E-03  -1.19473820E-03
  -7.40000000E-03  -1.22083665E-03
  -7.35000009E-03  -1.24724093E-03
  -7.30000017E-03  -1.27402169E-03
  -7.24999979E-03  -1.30130746E-03
  -7.19999988E-03  -1.32923026E-03
  -7.14999996E-03  -1.35786645E-03
  -7.10000005E-03  -1.38720602E-03
  -7.05000013E-03  -1.41716120E-03
  -7.00000022E-03  -1.44760963E-03
  -6.94999984E-03  -1.47845282E-03
  -6.89999992E-03  -1.50966400E-03
  -6.85000001E-03  -1.54130848E-03
  -6.80000009E-03  -1.57351478E-03
  -6.75000018E-03  -1.60641794E-03
  -6.69999979E-03  -1.64010806E-03
  -6.64999988E-03  -1.67458912E-03
  -6.59999996E-03  -1.70977996E-03
  -6.55000005E-03  -1.74555613E-03
  -6.50000013E-03  -1.78181089E-03
  -6.45000022E-03  -1.81850640E-03
  -6.39999984E-03  -1.85570214E-03
  -6.34999992E-03  -1.89352455E-03
  -6.30000001E-03  -1.93211518E-03
  -6.25000009E-03  -1.97157636E-03
  -6.20000018E-03  -2.01191753E-03
  -6.14999980E-03  -2.05306569E-03
  -6.09999988E-03  -2.09489628E-03
  -6.04999997E-03  -2.13728985E-03
  -6.00000005E-03  -2.18019844E-03
  -5.95000014E-03  -2.22366862E-03
  -5.90000022E-03  -2.26782728E-03
  -5.84999984E-03  -2.31282879E-03
  -5.79999993E-03  -2.35878211E-03
  -5.75000001E-03  -2.40570982E-03
  -5.70000010E-03  -2.45354348E-03
  -5.65000018E-03  -2.50215386E-03
  -5.59999980E-03  -2.55141244E-03
  -5.54999989E-03  -2.60126079E-03
  -5.49999997E-03  -2.65174499E-03
  -5.45000006E-03  -2.70298752E-03
  -5.40000014E-03  -2.75514415E-03
  -5.35000023E-03  -2.80834245E-03
  -5.29999984E-03  -2.86261411E-03
  -5.24999993E-03  -2.91789370E-03
  -5.20000001E-03  -2.97405757E-03
  -5.15000010E-03  -3.03097581E-03
  -5.10000018E-03  -3.08857462E-03
  -5.04999980E-03  -3.14687937E-03
  -4.99999989E-03  -3.20600881E-03
  -4.94999997E-03  -3.26612103E-03
  -4.90000006E-03  -3.32734664E-03
  -4.85000014E-03  -3.38973454E-03
  -4.80000023E-03  -3.45323118E-03
  -4.74999985E-03  -3.51770106E-03
  -4.69999993E-03  -3.58300470E-03
  -4.65000002E-03  -3.64906481E-03
  -4.60000010E-03  -3.71589279E-03
  -4.55000019E-03  -3.78360250E-03
  -4.49999981E-03  -3.85235879E-03
  -4.44999989E-03  -3.92230088E-03
  -4.39999998E-03  -3.99348699E-03
  -4.35000006E-03  -4.06587170E-03
  -4.30000015E-03  -4.13933257E-03
  -4.25000023E-03  -4.21372056E-03
  -4.19999985E-03  -4.28894255E-03
  -4.14999994E-03  -4.36500320E-03
  -4.10000002E-03  -4.44200123E-03
  -4.05000011E-03  -4.52010008E-03
  -4.00000019E-03  -4.59944922E-03
  -3.94999981E-03  -4.68011899E-03
  -3.89999989E-03  -4.76207677E-03
  -3.84999998E-03  -4.84518614E-03
  -3.80000006E-03  -4.92928969E-03
  -3.74999992E-03  -5.01428498E-03
  -3.70000000E-03  -5.10015199E-03
  -3.65000009E-03  -5.18698106E-03
  -3.59999994E-03  -5.27493749E-03
  -3.55000002E-03  -5.36418147E-03
  -3.50000011E-03  -5.45480428E-03
  -3.44999996E-03  -5.54678310E-03
  -3.40000005E-03  -5.63999498E-03
  -3.34999990E-03  -5.73426299E-03
  -3.29999998E-03  -5.82944788E-03
  -3.25000007E-03  -5.92551986E-03
  -3.19999992E-03  -6.02256041E-03
  -3.15000000E-03  -6.12074975E-03
  -3.10000009E-03  -6.22027973E-03
  -3.04999994E-03  -6.32123929E-03
  -3.00000003E-03  -6.42360980E-03
  -2.95000011E-03  -6.52726088E-03
  -2.89999996E-03  -6.63199043E-03
  -2.85000005E-03  -6.73765969E-03
  -2.79999990E-03  -6.84422720E-03
  -2.74999999E-03  -6.95176004E-03
  -2.70000007E-03  -7.06043141E-03
  -2.64999992E-03  -7.17042806E-03
  -2.60000001E-03  -7.28185568E-03
  -2.55000009E-03  -7.39470124E-03
  -2.49999994E-03  -7.50885252E-03
  -2.45000003E-03  -7.62413489E-03
  -2.40000011E-03  -7.74036907E-03
  -2.34999997E-03  -7.85746425E-03
  -2.30000005E-03  -7.97546655E-03
  -2.24999990E-03  -8.09453707E-03
  -2.19999999E-03  -8.21488164E-03
  -2.15000007E-03  -8.33665300E-03
  -2.09999993E-03  -8.45986605E-03
  -2.05000001E-03  -8.58440064E-03
  -2.00000009E-03  -8.71004537E-03
  -1.94999995E-03  -8.83660931E-03
  -1.90000003E-03  -8.96398351E-03
  -1.85000000E-03  -9.09218471E-03
  -1.79999997E-03  -9.22139641E-03
  -1.75000005E-03  -9.35184862E-03
  -1.70000002E-03  -9.48368013E-03
  -1.64999999E-03  -9.61691421E-03
  -1.59999996E-03  -9.75142885E-03
  -1.55000004E-03  -9.88698844E-03
  -1.50000001E-03  -1.00233760E-02
  -1.44999998E-03  -1.01604871E-02
  -1.39999995E-03  -1.02983462E-02
  -1.35000004E-03  -1.04371179E-02
  -1.30000000E-03  -1.05770249E-02
  -1.24999997E-03  -1.07182143E-02
  -1.20000006E-03  -1.08607123E-02
  -1.15000003E-03  -1.10043883E-02
  -1.09999999E-03  -1.11490041E-02
  -1.04999996E-03  -1.12943538E-02
  -1.00000005E-03  -1.14402911E-02
  -9.50000016E-04  -1.15868300E-02
  -8.99999985E-04  -1.17341513E-02
  -8.50000011E-04  -1.18824476E-02
  -7.99999980E-04  -1.20318709E-02
  -7.50000007E-04  -1.21824630E-02
  -6.99999975E-04  -1.23341186E-02
  -6.50000002E-04  -1.24866152E-02
  -6.00000028E-04  -1.26396939E-02
  -5.49999997E-04  -1.27931945E-02
  -5.00000024E-04  -1.29471114E-02
  -4.49999992E-04  -1.31015778E-02
  -3.99999990E-04  -1.32567920E-02
  -3.49999988E-04  -1.34129310E-02
  -3.00000014E-04  -1.35700591E-02
  -2.50000012E-04  -1.37281008E-02
  -1.99999995E-04  -1.38868699E-02
  -1.50000007E-04  -1.40460711E-02
  -9.99999975E-05  -1.42054372E-02
  -4.99999987E-05  -1.43648721E-02
   0.00000000      -1.45244710E-02
   4.99999987E-05  -1.46844564E-02
   9.99999975E-05  -1.48450900E-02
   1.50000007E-04  -1.50065022E-02
   1.99999995E-04  -1.51686491E-02
   2.50000012E-04  -1.53313009E-02
   3.00000014E-04  -1.54941333E-02
   3.49999988E-04  -1.56568605E-02
   3.99999990E-04  -1.58193354E-02
   4.49999992E-04  -1.59816276E-02
   5.00000024E-04  -1.61439516E-02
   5.49999997E-04  -1.63065940E-02
   6.00000028E-04  -1.64697245E-02
   6.50000002E-04  -1.66332833E-02
   6.99999975E-04  -1.67970490E-02
   7.50000007E-04  -1.69606730E-02
   7.99999980E-04  -1.71238258E-02
   8.50000011E-04  -1.72863360E-02
   8.99999985E-04  -1.74482279E-02
   9.50000016E-04  -1.76096577E-02
   1.00000005E-03  -1.77709199E-02
   1.04999996E-03  -1.79322287E-02
   1.09999999E-03  -1.80935562E-02
   1.15000003E-03  -1.82546973E-02
   1.20000006E-03  -1.84153188E-02
   1.24999997E-03  -1.85750779E-02
   1.30000000E-03  -1.87337641E-02
   1.35000004E-03  -1.88913029E-02
   1.39999995E-03  -1.90478340E-02
   1.44999998E-03  -1.92036498E-02
   1.50000001E-03  -1.93589889E-02
   1.55000004E-03  -1.95139349E-02
   1.59999996E-03  -1.96682885E-02
   1.64999999E-03  -1.98216345E-02
   1.70000002E-03  -1.99735984E-02
   1.75000005E-03  -2.01238953E-02
   1.79999997E-03  -2.02723946E-02
   1.85000000E-03  -2.04192270E-02
   1.90000003E-03  -2.05647424E-02
   1.94999995E-03  -2.07092427E-02
   2.00000009E-03  -2.08527707E-02
   2.05000001E-03  -2.09951177E-02
   2.09999993E-03  -2.11358927E-02
   2.15000007E-03  -2.12746877E-02
   2.19999999E-03  -2.14111377E-02
   2.24999990E-03  -2.15451103E-02
   2.30000005E-03  -2.16768030E-02
   2.34999997E-03  -2.18064822E-02
   2.40000011E-03  -2.19343789E-02
   2.45000003E-03  -2.20605526E-02
   2.49999994E-03  -2.21848711E-02
   2.55000009E-03  -2.23069582E-02
   2.60000001E-03  -2.24263240E-02
   2.64999992E-03  -2.25426536E-02
   2.70000007E-03  -2.26558279E-02
   2.74999999E-03  -2.27659605E-02
   2.79999990E-03  -2.28733346E-02