  -3.99999991E-02   0.00000000    
  -3.99499983E-02   0.00000000    
  -3.99000011E-02   0.00000000    
  -3.98500003E-02   0.00000000    
  -3.97999994E-02   3.25960305E-22
  -3.97499986E-02   2.88329817E-21
  -3.97000015E-02   1.33897252E-20
  -3.96500006E-02   4.25095710E-20
  -3.95999998E-02   1.00929412E-19
  -3.95499989E-02   1.82552079E-19
  -3.95000018E-02   2.34124632E-19
  -3.94500010E-02   1.19316629E-19
  -3.94000001E-02  -4.03031759E-19
  -3.93499993E-02  -1.66057077E-18
  -3.92999984E-02  -3.99120725E-18
  -3.92500013E-02  -7.61817131E-18
  -3.92000005E-02  -1.25245228E-17
  -3.91499996E-02  -1.84047190E-17
  -3.90999988E-02  -2.47629536E-17
  -3.90500017E-02  -3.11681324E-17
  -3.90000008E-02  -3.75813960E-17
  -3.89500000E-02  -4.45944549E-17
  -3.88999991E-02  -5.34132558E-17
  -3.88499983E-02  -6.55172176E-17
  -3.88000011E-02  -8.20874055E-17
  -3.87500003E-02  -1.03448319E-16
  -3.86999995E-02  -1.28818729E-16
  -3.86499986E-02  -1.56568005E-16
  -3.86000015E-02  -1.84948598E-16
  -3.85500006E-02  -2.13015498E-16
  -3.84999998E-02  -2.41281835E-16
  -3.84499989E-02  -2.71705908E-16
  -3.84000018E-02  -3.06877787E-16
  -3.83500010E-02  -3.48672616E-16
  -3.83000001E-02  -3.96963050E-16
  -3.82499993E-02  -4.49044458E-16
  -3.81999984E-02  -5.00149027E-16
  -3.81500013E-02  -5.44917947E-16
  -3.81000005E-02  -5.79214152E-16
  -3.80499996E-02  -6.01442150E-16
  -3.79999988E-02  -6.12730558E-16
  -3.79500017E-02  -6.15843033E-16
  -3.79000008E-02  -6.13285788E-16
  -3.78500000E-02  -6.05476885E-16
  -3.77999991E-02  -5.89834940E-16
  -3.77499983E-02  -5.61217985E-16
  -3.77000012E-02  -5.13494137E-16
  -3.76500003E-02  -4.41487416E-16
  -3.75999995E-02  -3.42398987E-16
  -3.75499986E-02  -2.16128014E-16
  -3.75000015E-02  -6.45143703E-17
  -3.74500006E-02   1.09966575E-16
  -3.73999998E-02   3.05388729E-16
  -3.73499990E-02   5.21038818E-16
  -3.73000018E-02   7.57587697E-16
  -3.72500010E-02   1.01705872E-15
  -3.72000001E-02   1.30278019E-15
  -3.71499993E-02   1.61913418E-15
  -3.70999984E-02   1.97058679E-15
  -3.70500013E-02   2.35957290E-15
  -3.70000005E-02   2.78345657E-15
  -3.69499996E-02   3.23174028E-15
  -3.68999988E-02   3.68540944E-15
  -3.68500017E-02   4.12003814E-15
  -3.68000008E-02   4.51281451E-15
  -3.67500000E-02   4.85131514E-15
  -3.66999991E-02   5.13992594E-15
  -3.66499983E-02   5.39951952E-15
  -3.66000012E-02   5.65827157E-15
  -3.65500003E-02   5.93568714E-15
  -3.64999995E-02   6.22624739E-15
  -3.64499986E-02   6.49112857E-15
  -3.64000015E-02   6.66446582E-15
  -3.63500006E-02   6.67470136E-15
  -3.62999998E-02   6.47388340E-15
  -3.62499990E-02   6.06199796E-15
  -3.62000018E-02   5.49303280E-15
  -3.61500010E-02   4.85588827E-15
  -3.61000001E-02   4.23465694E-15
  -3.60499993E-02   3.66420566E-15
  -3.59999985E-02   3.10255717E-15
  -3.59500013E-02   2.43705969E-15
  -3.59000005E-02   1.52733339E-15
  -3.58499996E-02   2.69868376E-16
  -3.57999988E-02  -1.34438126E-15
  -3.57500017E-02  -3.20936591E-15
  -3.57000008E-02  -5.13661447E-15
  -3.56500000E-02  -6.93346273E-15
  -3.55999991E-02  -8.49499677E-15
  -3.55499983E-02  -9.86591536E-15
  -3.55000012E-02  -1.12366120E-14
  -3.54500003E-02  -1.28650930E-14
  -3.53999995E-02  -1.49521204E-14
  -3.53499986E-02  -1.75244984E-14
  -3.53000015E-02  -2.03856470E-14
  -3.52500007E-02  -2.31679656E-14
  -3.51999998E-02  -2.54761066E-14
  -3.51499990E-02  -2.70640190E-14
  -3.51000018E-02  -2.79641338E-14
  -3.50500010E-02  -2.84994298E-14
  -3.50000001E-02  -2.91571848E-14
  -3.49499993E-02  -3.03677236E-14
  -3.48999985E-02  -3.22833157E-14
  -3.48500013E-02  -3.46643084E-14
  -3.48000005E-02  -3.69408483E-14
  -3.47499996E-02  -3.84418043E-14
  -3.46999988E-02  -3.87003966E-14
  -3.46500017E-02  -3.76981771E-14
  -3.46000008E-02  -3.59227588E-14
  -3.45500000E-02  -3.41902173E-14
  -3.44999991E-02  -3.32910410E-14
  -3.44499983E-02  -3.36097693E-14
  -3.44000012E-02  -3.48972899E-14
  -3.43500003E-02  -3.63208338E-14
  -3.42999995E-02  -3.67968663E-14
  -3.42499986E-02  -3.54775379E-14
  -3.42000015E-02  -3.21748379E-14
  -3.41500007E-02  -2.75145185E-14
  -3.40999998E-02  -2.27203120E-14
  -3.40499990E-02  -1.90953464E-14
  -3.40000018E-02  -1.74184482E-14
  -3.39500010E-02  -1.75339412E-14
  -3.39000002E-02  -1.83473079E-14
  -3.38499993E-02  -1.82652237E-14
  -3.37999985E-02  -1.59107855E-14
  -3.37500013E-02  -1.07988552E-14
  -3.37000005E-02  -3.64741027E-15
  -3.36499996E-02   3.85498077E-15
  -3.35999988E-02   9.76336931E-15
  -3.35500017E-02   1.27763561E-14
  -3.35000008E-02   1.29123930E-14
  -3.34500000E-02   1.16237671E-14
  -3.33999991E-02   1.12468569E-14
  -3.33499983E-02   1.39920822E-14
  -3.33000012E-02   2.09108379E-14
  -3.32500003E-02   3.13228820E-14
  -3.31999995E-02   4.30094464E-14
  -3.31499986E-02   5.31412208E-14
  -3.31000015E-02   5.95628893E-14
  -3.30500007E-02   6.18595412E-14
  -3.29999998E-02   6.16889352E-14
  -3.29499990E-02   6.21686405E-14
  -3.29000019E-02   6.65339095E-14
  -3.28500010E-02   7.66389854E-14
  -3.28000002E-02   9.19896348E-14
  -3.27499993E-02   1.09795758E-13
  -3.26999985E-02   1.26091493E-13
  -3.26500013E-02   1.37475711E-13
  -3.26000005E-02   1.42705536E-13
  -3.25499997E-02   1.43392527E-13
  -3.24999988E-02   1.43417586E-13
  -3.24500017E-02   1.47251623E-13
  -3.24000008E-02   1.57888554E-13
  -3.23500000E-02   1.75322905E-13
  -3.22999991E-02   1.96310836E-13
  -3.22499983E-02   2.15604769E-13
  -3.22000012E-02   2.28181243E-13
  -3.21500003E-02   2.31491936E-13
  -3.20999995E-02   2.26698570E-13
  -3.20499986E-02   2.18261254E-13
  -3.20000015E-02   2.11974278E-13
  -3.19500007E-02   2.12268015E-13
  -3.18999998E-02   2.19982412E-13
  -3.18499990E-02   2.31669068E-13
  -3.18000019E-02   2.40833530E-13
  -3.17500010E-02   2.40656399E-13
  -3.17000002E-02   2.27024888E-13
  -3.16499993E-02   2.00497510E-13
  -3.15999985E-02   1.66240380E-13
  -3.15500014E-02   1.31855098E-13
  -3.15000005E-02   1.03983858E-13
  -3.14499997E-02   8.51875265E-14
  -3.13999988E-02   7.25455259E-14
  -3.13500017E-02   5.87115805E-14
  -3.13000008E-02   3.50684617E-14
  -3.12500000E-02  -4.35580764E-15
  -3.11999992E-02  -5.99659143E-14
  -3.11500002E-02  -1.26058533E-13
  -3.10999993E-02  -1.93028062E-13
  -3.10500003E-02  -2.51445430E-13
  -3.09999995E-02  -2.96235774E-13
  -3.09500005E-02  -3.29050995E-13
  -3.08999997E-02  -3.57666533E-13
  -3.08500007E-02  -3.92535722E-13
  -3.07999998E-02  -4.41939562E-13
  -3.07500008E-02  -5.07877811E-13
  -3.07000000E-02  -5.84607395E-13
  -3.06499992E-02  -6.60615605E-13
  -3.06000002E-02  -7.23285527E-13
  -3.05499993E-02  -7.64253786E-13
  -3.05000003E-02  -7.83061333E-13
  -3.04499995E-02  -7.87368651E-13
  -3.04000005E-02  -7.89499000E-13
  -3.03499997E-02  -8.00729437E-13
  -3.03000007E-02  -8.25833000E-13
  -3.02499998E-02  -8.60364893E-13
  -3.02000009E-02  -8.92040239E-13
  -3.01500000E-02  -9.05748079E-13
  -3.00999992E-02  -8.90077454E-13
  -3.00500002E-02  -8.42458752E-13
  -2.99999993E-02  -7.70537442E-13
  -2.99500003E-02  -6.89010860E-13
  -2.98999995E-02  -6.13185989E-13
  -2.98500005E-02  -5.52049942E-13
  -2.97999997E-02  -5.03972081E-13
  -2.97500007E-02  -4.57085324E-13
  -2.96999998E-02  -3.94352438E-13
  -2.96500009E-02  -3.01205675E-13
  -2.96000000E-02  -1.72403243E-13
  -2.95499992E-02  -1.49780057E-14
  -2.95000002E-02   1.54196913E-13
  -2.94499993E-02   3.15320957E-13
  -2.94000003E-02   4.54097101E-13
  -2.93499995E-02   5.67930685E-13
  -2.93000005E-02   6.67018741E-13
  -2.92499997E-02   7.69659401E-13
  -2.92000007E-02   8.93697388E-13
  -2.91499998E-02   1.04782990E-12
  -2.91000009E-02   1.22669160E-12
  -2.90500000E-02   1.41207163E-12
  -2.89999992E-02   1.57993128E-12
  -2.89500002E-02   1.71027211E-12
  -2.88999993E-02   1.79551740E-12
  -2.88500004E-02   1.84360014E-12
  -2.87999995E-02   1.87420262E-12
  -2.87500005E-02   1.90962415E-12
  -2.86999997E-02   1.96421807E-12
  -2.86500007E-02   2.03710529E-12
  -2.85999998E-02   2.11154618E-12
  -2.85500009E-02   2.16146567E-12
  -2.85000000E-02   2.16242432E-12
  -2.84499992E-02   2.10224893E-12
  -2.84000002E-02   1.98654006E-12
  -2.83499993E-02   1.83643335E-12
  -2.83000004E-02   1.67939545E-12
  -2.82499995E-02   1.53698332E-12
  -2.82000005E-02   1.41498315E-12
  -2.81499997E-02   1.30043144E-12
  -2.81000007E-02   1.16706471E-12
  -2.80499998E-02   9.86997051E-13
  -2.80000009E-02   7.43563739E-13
  -2.79500000E-02   4.39603025E-13
  -2.78999992E-02   9.73270265E-14
  -2.78500002E-02  -2.50393917E-13
  -2.77999993E-02  -5.73662591E-13
  -2.77500004E-02  -8.58118481E-13
  -2.76999995E-02  -1.11077358E-12
  -2.76500005E-02  -1.35632011E-12
  -2.75999997E-02  -1.62532401E-12
  -2.75500007E-02  -1.93939591E-12
  -2.74999999E-02  -2.29993325E-12
  -2.74500009E-02  -2.68559936E-12
  -2.74000000E-02  -3.05991278E-12
  -2.73499992E-02  -3.38582049E-12
  -2.73000002E-02  -3.64090138E-12
  -2.72499993E-02  -3.82640490E-12
  -2.72000004E-02  -3.96591484E-12
  -2.71499995E-02  -4.09398600E-12
  -2.71000005E-02  -4.23961517E-12
  -2.70499997E-02  -4.41183852E-12
  -2.70000007E-02  -4.59398925E-12
  -2.69499999E-02  -4.74940356E-12
  -2.69000009E-02  -4.83629976E-12
  -2.68500000E-02  -4.82538055E-12
  -2.67999992E-02  -4.71232775E-12
  -2.67500002E-02  -4.51948418E-12
  -2.66999993E-02  -4.28573409E-12
  -2.66500004E-02  -4.04888362E-12
  -2.65999995E-02  -3.82831093E-12
  -2.65500005E-02  -3.61568544E-12
  -2.64999997E-02  -3.37812569E-12
  -2.64500007E-02  -3.07263329E-12
  -2.63999999E-02  -2.66556547E-12
  -2.63500009E-02  -2.14849492E-12
  -2.63000000E-02  -1.54326259E-12
  -2.62499992E-02  -8.93743738E-13
  -2.62000002E-02  -2.47767058E-13
  -2.61499994E-02   3.62866394E-13
  -2.61000004E-02   9.35308146E-13
  -2.60499995E-02   1.49559434E-12
  -2.60000005E-02   2.08538026E-12
  -2.59499997E-02   2.74123823E-12
  -2.59000007E-02   3.47571342E-12
  -2.58499999E-02   4.26871993E-12
  -2.58000009E-02   5.07334799E-12
  -2.57500000E-02   5.83369767E-12
  -2.56999992E-02   6.50692391E-12
  -2.56500002E-02   7.07960687E-12
  -2.55999994E-02   7.57099071E-12
  -2.55500004E-02   8.02142901E-12
  -2.54999995E-02   8.47103464E-12
  -2.54500005E-02   8.93806036E-12
  -2.53999997E-02   9.40677397E-12
  -2.53500007E-02   9.83049319E-12
  -2.52999999E-02   1.01486319E-11
  -2.52500009E-02   1.03102847E-11
  -2.52000000E-02   1.02938153E-11
  -2.51499992E-02   1.01135636E-11
  -2.51000002E-02   9.81052652E-12
  -2.50499994E-02   9.43105836E-12
  -2.50000004E-02   9.00314198E-12
  -2.49499995E-02   8.52097472E-12
  -2.49000005E-02   7.94497627E-12
  -2.48499997E-02   7.21741287E-12
  -2.48000007E-02   6.28674153E-12
  -2.47499999E-02   5.12973908E-12
  -2.47000009E-02   3.76137489E-12
  -2.46500000E-02   2.22784855E-12
  -2.45999992E-02   5.85851951E-13
  -2.45500002E-02  -1.12264495E-12
  -2.44999994E-02  -2.88859344E-12
  -2.44500004E-02  -4.73873892E-12
  -2.43999995E-02  -6.72170219E-12
  -2.43500005E-02  -8.88349290E-12
  -2.42999997E-02  -1.12435321E-11
  -2.42500007E-02  -1.37821291E-11
  -2.41999999E-02  -1.64451491E-11
  -2.41500009E-02  -1.91638493E-11
  -2.41000000E-02  -2.18808669E-11
  -2.40499992E-02  -2.45704498E-11
  -2.40000002E-02  -2.72436674E-11
  -2.39499994E-02  -2.99361230E-11
  -2.39000004E-02  -3.26837411E-11
  -2.38499995E-02  -3.54977783E-11
  -2.38000005E-02  -3.83505484E-11
  -2.37499997E-02  -4.11785571E-11
  -2.37000007E-02  -4.39016982E-11
  -2.36499999E-02  -4.64497885E-11
  -2.36000009E-02  -4.87842336E-11
  -2.35500000E-02  -5.09048463E-11
  -2.34999992E-02  -5.28386709E-11
  -2.34500002E-02  -5.46159055E-11
  -2.33999994E-02  -5.62442072E-11
  -2.33500004E-02  -5.76933085E-11
  -2.32999995E-02  -5.88972135E-11
  -2.32500006E-02  -5.97731309E-11
  -2.31999997E-02  -6.02484312E-11
  -2.31500007E-02  -6.02831188E-11
  -2.30999999E-02  -5.98773878E-11
  -2.30500009E-02  -5.90607493E-11
  -2.30000000E-02  -5.78677210E-11
  -2.29499992E-02  -5.63116671E-11
  -2.29000002E-02  -5.43689954E-11
  -2.28499994E-02  -5.19815128E-11
  -2.28000004E-02  -4.90759794E-11
  -2.27499995E-02  -4.55918185E-11
  -2.27000006E-02  -4.15041161E-11
  -2.26499997E-02  -3.68310313E-11
  -2.26000007E-02  -3.16219863E-11
  -2.25499999E-02  -2.59322147E-11
  -2.25000009E-02  -1.97956755E-11
  -2.24500000E-02  -1.32093208E-11
  -2.23999992E-02  -6.13650797E-12
  -2.23500002E-02   1.47173636E-12
  -2.22999994E-02   9.64748594E-12
  -2.22500004E-02   1.83824587E-11
  -2.21999995E-02   2.76217799E-11
  -2.21500006E-02   3.72783332E-11
  -2.20999997E-02   4.72609278E-11
  -2.20500007E-02   5.75034013E-11
  -2.19999999E-02   6.79802117E-11
  -2.19500009E-02   7.87009416E-11
  -2.19000001E-02   8.96854258E-11
  -2.18499992E-02   1.00931374E-10
  -2.18000002E-02   1.12389424E-10
  -2.17499994E-02   1.23958302E-10
  -2.17000004E-02   1.35502942E-10
  -2.16499995E-02   1.46887433E-10
  -2.16000006E-02   1.58007718E-10
  -2.15499997E-02   1.68808120E-10
  -2.15000007E-02   1.79273069E-10
  -2.14499999E-02   1.89397414E-10
  -2.14000009E-02   1.99148378E-10
  -2.13500001E-02   2.08437961E-10
  -2.12999992E-02   2.17118795E-10
  -2.12500002E-02   2.25006958E-10
  -2.11999994E-02   2.31921982E-10
  -2.11500004E-02   2.37725756E-10
  -2.10999995E-02   2.42341147E-10
  -2.10500006E-02   2.45741594E-10
  -2.09999997E-02   2.47914633E-10
  -2.09500007E-02   2.48816301E-10
  -2.08999999E-02   2.48337712E-10
  -2.08500009E-02   2.46300008E-10
  -2.08000001E-02   2.42482645E-10
  -2.07499992E-02   2.36671710E-10
  -2.07000002E-02   2.28707844E-10
  -2.06499994E-02   2.18509030E-10
  -2.06000004E-02   2.06059114E-10
  -2.05499995E-02   1.91363161E-10
  -2.05000006E-02   1.74392029E-10
  -2.04499997E-02   1.55039551E-10
  -2.04000007E-02   1.33115477E-10
  -2.03499999E-02   1.08377328E-10
  -2.03000009E-02   8.05903261E-11
  -2.02500001E-02   4.95864044E-11
  -2.01999992E-02   1.52962677E-11
  -2.01500002E-02  -2.22624211E-11
  -2.00999994E-02  -6.30372005E-11
  -2.00500004E-02  -1.07010255E-10
  -1.99999996E-02  -1.54253360E-10
  -1.99500006E-02  -2.04942188E-10
  -1.98999997E-02  -2.59321203E-10
  -1.98500007E-02  -3.17633281E-10
  -1.97999999E-02  -3.80045134E-10
  -1.97500009E-02  -4.46601867E-10
  -1.97000001E-02  -5.17236587E-10
  -1.96499992E-02  -5.91828364E-10
  -1.96000002E-02  -6.70287714E-10
  -1.95499994E-02  -7.52628182E-10
  -1.95000004E-02  -8.38992542E-10
  -1.94499996E-02  -9.29618160E-10
  -1.94000006E-02  -1.02475461E-09
  -1.93499997E-02  -1.12457166E-09
  -1.93000007E-02  -1.22909694E-09
  -1.92499999E-02  -1.33821543E-09
  -1.92000009E-02  -1.45173273E-09
  -1.91500001E-02  -1.56947566E-09
  -1.90999992E-02  -1.69138581E-09
  -1.90500002E-02  -1.81756221E-09
  -1.89999994E-02  -1.94823313E-09
  -1.89500004E-02  -2.08366346E-09
  -1.88999996E-02  -2.22404450E-09
  -1.88500006E-02  -2.36940711E-09
  -1.87999997E-02  -2.51960763E-09
  -1.87500007E-02  -2.67439249E-09
  -1.86999999E-02  -2.83351209E-09
  -1.86500009E-02  -2.99684033E-09
  -1.86000001E-02  -3.16443916E-09
  -1.85499992E-02  -3.33654260E-09
  -1.85000002E-02  -3.51345819E-09
  -1.84499994E-02  -3.69543440E-09
  -1.84000004E-02  -3.88254895E-09
  -1.83499996E-02  -4.07467127E-09
  -1.83000006E-02  -4.27152003E-09
  -1.82499997E-02  -4.47279236E-09
  -1.82000007E-02  -4.67831018E-09
  -1.81499999E-02  -4.88811391E-09
  -1.81000009E-02  -5.10246334E-09
  -1.80500001E-02  -5.32173994E-09
  -1.79999992E-02  -5.54629498E-09
  -1.79500002E-02  -5.77630255E-09
  -1.78999994E-02  -6.01169692E-09
  -1.78500004E-02  -6.25221830E-09
  -1.77999996E-02  -6.49754472E-09
  -1.77500006E-02  -6.74747014E-09
  -1.76999997E-02  -7.00203051E-09
  -1.76500008E-02  -7.26153360E-09
  -1.75999999E-02  -7.52646478E-09
  -1.75500009E-02  -7.79732368E-09
  -1.75000001E-02  -8.07443978E-09
  -1.74499992E-02  -8.35787173E-09
  -1.74000002E-02  -8.64743477E-09
  -1.73499994E-02  -8.94282692E-09
  -1.73000004E-02  -9.24384036E-09
  -1.72499996E-02  -9.55051682E-09
  -1.72000006E-02  -9.86322135E-09
  -1.71499997E-02  -1.01825650E-08
  -1.71000008E-02  -1.05092202E-08
  -1.70499999E-02  -1.08437144E-08
  -1.70000009E-02  -1.11862795E-08
  -1.69500001E-02  -1.15368488E-08
  -1.68999992E-02  -1.18951755E-08
  -1.68500002E-02  -1.22610606E-08
  -1.67999994E-02  -1.26345601E-08
  -1.67500004E-02  -1.30160904E-08
  -1.66999996E-02  -1.34063853E-08
  -1.66500006E-02  -1.38063116E-08
  -1.65999997E-02  -1.42166163E-08
  -1.65500008E-02  -1.46377452E-08
  -1.64999999E-02  -1.50697854E-08
  -1.64500009E-02  -1.55125743E-08
  -1.64000001E-02  -1.59659361E-08
  -1.63499992E-02  -1.64299241E-08
  -1.63000003E-02  -1.69049947E-08
  -1.62499994E-02  -1.73919847E-08
  -1.62000004E-02  -1.78919386E-08
  -1.61499996E-02  -1.84058369E-08
  -1.61000006E-02  -1.89343599E-08
  -1.60499997E-02  -1.94777687E-08
  -1.60000008E-02  -2.00360031E-08
  -1.59499999E-02  -2.06089066E-08
  -1.59000009E-02  -2.11965148E-08
  -1.58500001E-02  -2.17992788E-08
  -1.57999992E-02  -2.24181100E-08
  -1.57500003E-02  -2.30542074E-08
  -1.56999994E-02  -2.37087754E-08
  -1.56500004E-02  -2.43827429E-08
  -1.55999996E-02  -2.50765755E-08
  -1.55499997E-02  -2.57903352E-08
  -1.54999997E-02  -2.65238942E-08
  -1.54499998E-02  -2.72772613E-08
  -1.53999999E-02  -2.80508559E-08
  -1.53500000E-02  -2.88456050E-08
  -1.53000001E-02  -2.96628322E-08
  -1.52500002E-02  -3.05039478E-08
  -1.52000003E-02  -3.13701172E-08
  -1.51500003E-02  -3.22620330E-08
  -1.51000004E-02  -3.31798979E-08
  -1.50499996E-02  -3.41236230E-08
  -1.49999997E-02  -3.50931764E-08
  -1.49499997E-02  -3.60889203E-08
  -1.48999998E-02  -3.71117608E-08
  -1.48499999E-02  -3.81630976E-08
  -1.48000000E-02  -3.92445223E-08
  -1.47500001E-02  -4.03574596E-08
  -1.47000002E-02  -4.15028474E-08
  -1.46500003E-02  -4.26810693E-08
  -1.46000003E-02  -4.38921113E-08
  -1.45500004E-02  -4.51359199E-08
  -1.44999996E-02  -4.64127687E-08
  -1.44499997E-02  -4.77235318E-08
  -1.43999998E-02  -4.90696621E-08
  -1.43499998E-02  -5.04529183E-08
  -1.42999999E-02  -5.18749879E-08
  -1.42500000E-02  -5.33370965E-08
  -1.42000001E-02  -5.48398518E-08
  -1.41500002E-02  -5.63833673E-08
  -1.41000003E-02  -5.79675934E-08
  -1.40500003E-02  -5.95927574E-08
  -1.40000004E-02  -6.12596764E-08
  -1.39499996E-02  -6.29698391E-08
  -1.38999997E-02  -6.47251852E-08
  -1.38499998E-02  -6.65276687E-08
  -1.37999998E-02  -6.83788670E-08
  -1.37499999E-02  -7.02796896E-08
  -1.37000000E-02  -7.22304492E-08
  -1.36500001E-02  -7.42311741E-08
  -1.36000002E-02  -7.62820918E-08
  -1.35500003E-02  -7.83840051E-08
  -1.35000004E-02  -8.05384559E-08
  -1.34500004E-02  -8.27475546E-08
  -1.33999996E-02  -8.50135891E-08
  -1.33499997E-02  -8.73384991E-08
  -1.32999998E-02  -8.97235921E-08
  -1.32499998E-02  -9.21695147E-08
  -1.31999999E-02  -9.46764729E-08
  -1.31500000E-02  -9.72447580E-08
  -1.31000001E-02  -9.98752085E-08
  -1.30500002E-02  -1.02569416E-07
  -1.30000003E-02  -1.05329690E-07
  -1.29500004E-02  -1.08158630E-07
  -1.29000004E-02  -1.11058682E-07
  -1.28499996E-02  -1.14031621E-07
  -1.27999997E-02  -1.17078486E-07
  -1.27499998E-02  -1.20199800E-07
  -1.26999998E-02  -1.23396006E-07
  -1.26499999E-02  -1.26668041E-07
  -1.26000000E-02  -1.30017611E-07
  -1.25500001E-02  -1.33447273E-07
  -1.25000002E-02  -1.36959983E-07
  -1.24500003E-02  -1.40558697E-07
  -1.24000004E-02  -1.44245746E-07
  -1.23500004E-02  -1.48022693E-07
  -1.22999996E-02  -1.51890490E-07
  -1.22499997E-02  -1.55849818E-07
  -1.21999998E-02  -1.59901802E-07
  -1.21499998E-02  -1.64048302E-07
  -1.20999999E-02  -1.68292090E-07
  -1.20500000E-02  -1.72636504E-07
  -1.20000001E-02  -1.77085056E-07
  -1.19500002E-02  -1.81640729E-07
  -1.19000003E-02  -1.86305726E-07
  -1.18500004E-02  -1.91081512E-07
  -1.18000004E-02  -1.95969164E-07
  -1.17499996E-02  -2.00970021E-07
  -1.16999997E-02  -2.06086142E-07
  -1.16499998E-02  -2.11320511E-07
  -1.15999999E-02  -2.16676895E-07
  -1.15499999E-02  -2.22159315E-07
  -1.15000000E-02  -2.27771466E-07
  -1.14500001E-02  -2.33516175E-07
  -1.14000002E-02  -2.39395547E-07
  -1.13500003E-02  -2.45411144E-07
  -1.13000004E-02  -2.51564700E-07
  -1.12500004E-02  -2.57858460E-07
  -1.11999996E-02  -2.64295721E-07
  -1.11499997E-02  -2.70880662E-07
  -1.10999998E-02  -2.77617886E-07
  -1.10499999E-02  -2.84511657E-07
  -1.09999999E-02  -2.91565698E-07
  -1.09500000E-02  -2.98782737E-07
  -1.09000001E-02  -3.06164935E-07
  -1.08500002E-02  -3.13714281E-07
  -1.08000003E-02  -3.21433362E-07
  -1.07500004E-02  -3.29325729E-07
  -1.07000005E-02  -3.37395875E-07
  -1.06499996E-02  -3.45648886E-07
  -1.05999997E-02  -3.54089792E-07
  -1.05499998E-02  -3.62723057E-07
  -1.04999999E-02  -3.71552233E-07
  -1.04499999E-02  -3.80580104E-07
  -1.04000000E-02  -3.89809259E-07
  -1.03500001E-02  -3.99242623E-07
  -1.03000002E-02  -4.08884119E-07
  -1.02500003E-02  -4.18738495E-07
  -1.02000004E-02  -4.28811433E-07
  -1.01500005E-02  -4.39108589E-07
  -1.00999996E-02  -4.49635195E-07
  -1.00499997E-02  -4.60395597E-07
  -9.99999978E-03  -4.71393349E-07
  -9.94999986E-03  -4.82631492E-07
  -9.89999995E-03  -4.94113522E-07
  -9.85000003E-03  -5.05843332E-07
  -9.80000012E-03  -5.17826265E-07
  -9.75000020E-03  -5.30068178E-07
  -9.70000029E-03  -5.42575378E-07
  -9.65000037E-03  -5.55353949E-07
  -9.60000046E-03  -5.68409178E-07
  -9.54999961E-03  -5.81745269E-07
  -9.49999969E-03  -5.95365975E-07
  -9.44999978E-03  -6.09275105E-07
  -9.39999986E-03  -6.23477206E-07
  -9.34999995E-03  -6.37977905E-07
  -9.30000003E-03  -6.52783569E-07
  -9.25000012E-03  -6.67901247E-07
  -9.20000020E-03  -6.83337760E-07
  -9.15000029E-03  -6.99099246E-07
  -9.10000037E-03  -7.15190765E-07
  -9.05000046E-03  -7.31616865E-07
  -8.99999961E-03  -7.48381808E-07
  -8.94999970E-03  -7.65490654E-07
  -8.89999978E-03  -7.82949314E-07
  -8.84999987E-03  -8.00764610E-07
  -8.79999995E-03  -8.18943931E-07
  -8.75000004E-03  -8.37494838E-07
  -8.70000012E-03  -8.56424265E-07
  -8.65000021E-03  -8.75738181E-07
  -8.60000029E-03  -8.95441644E-07
  -8.55000038E-03  -9.15539658E-07
  -8.50000046E-03  -9.36037623E-07
  -8.44999962E-03  -9.56941790E-07
  -8.39999970E-03  -9.78259550E-07
  -8.34999979E-03  -9.99998861E-07
  -8.29999987E-03  -1.02216814E-06
  -8.24999996E-03  -1.04477522E-06
  -8.20000004E-03  -1.06782693E-06
  -8.15000013E-03  -1.09132941E-06
  -8.10000021E-03  -1.11528834E-06
  -8.05000030E-03  -1.13970964E-06
  -8.00000038E-03  -1.16460001E-06
  -7.95000046E-03  -1.18996718E-06
  -7.89999962E-03  -1.21582002E-06
  -7.84999970E-03  -1.24216729E-06
  -7.79999979E-03  -1.26901739E-06
  -7.74999987E-03  -1.29637840E-06
  -7.69999996E-03  -1.32425669E-06
  -7.65000004E-03  -1.35265884E-06
  -7.60000013E-03  -1.38159101E-06
  -7.55000021E-03  -1.41106023E-06
  -7.49999983E-03  -1.44107446E-06
  -7.44999992E-03  -1.47164292E-06
  -7.40000000E-03  -1.50277515E-06
  -7.35000009E-03  -1.53448036E-06
  -7.30000017E-03  -1.56676720E-06
  -7.24999979E-03  -1.59964281E-06
  -7.19999988E-03  -1.63311427E-06
  -7.14999996E-03  -1.66718883E-06
  -7.10000005E-03  -1.70187388E-06
  -7.05000013E-03  -1.73717797E-06
  -7.00000022E-03  -1.77311108E-06
  -6.94999984E-03  -1.80968300E-06
  -6.89999992E-03  -1.84690339E-06
  -6.85000001E-03  -1.88478180E-06
  -6.80000009E-03  -1.92332618E-06
  -6.75000018E-03  -1.96254427E-06
  -6.69999979E-03  -2.00244335E-06
  -6.64999988E-03  -2.04303160E-06
  -6.59999996E-03  -2.08431720E-06
  -6.55000005E-03  -2.12631062E-06
  -6.50000013E-03  -2.16902185E-06
  -6.45000022E-03  -2.21246114E-06
  -6.39999984E-03  -2.25663848E-06
  -6.34999992E-03  -2.30156229E-06
  -6.30000001E-03  -2.34724121E-06
  -6.25000009E-03  -2.39368228E-06
  -6.20000018E-03  -2.44089392E-06
  -6.14999980E-03  -2.48888455E-06
  -6.09999988E-03  -2.53766439E-06
  -6.04999997E-03  -2.58724481E-06
  -6.00000005E-03  -2.63763604E-06
  -5.95000014E-03  -2.68884901E-06
  -5.90000022E-03  -2.74089280E-06
  -5.84999984E-03  -2.79377537E-06
  -5.79999993E-03  -2.84750536E-06
  -5.75000001E-03  -2.90209050E-06
  -5.70000010E-03  -2.95753944E-06
  -5.65000018E-03  -3.01386308E-06
  -5.59999980E-03  -3.07107166E-06
  -5.54999989E-03  -3.12917609E-06
  -5.49999997E-03  -3.18818729E-06
  -5.45000006E-03  -3.24811481E-06
  -5.40000014E-03  -3.30896728E-06
  -5.35000023E-03  -3.37075267E-06
  -5.29999984E-03  -3.43347824E-06
  -5.24999993E-03  -3.49715333E-06
  -5.20000001E-03  -3.56178771E-06
  -5.15000010E-03  -3.62739206E-06
  -5.10000018E-03  -3.69397685E-06
  -5.04999980E-03  -3.76155276E-06
  -4.99999989E-03  -3.83012957E-06
  -4.94999997E-03  -3.89971592E-06
  -4.90000006E-03  -3.97031999E-06
  -4.85000014E-03  -4.04194998E-06
  -4.80000023E-03  -4.11461360E-06
  -4.74999985E-03  -4.18832042E-06
  -4.69999993E-03  -4.26308088E-06
  -4.65000002E-03  -4.33890546E-06
  -4.60000010E-03  -4.41580460E-06
  -4.55000019E-03  -4.49378740E-06
  -4.49999981E-03  -4.57286205E-06
  -4.44999989E-03  -4.65303583E-06
  -4.39999998E-03  -4.73431737E-06
  -4.35000006E-03  -4.81671259E-06
  -4.30000015E-03  -4.90023103E-06
  -4.25000023E-03  -4.98488180E-06
  -4.19999985E-03  -5.07067443E-06
  -4.14999994E-03  -5.15761894E-06
  -4.10000002E-03  -5.24572397E-06
  -4.05000011E-03  -5.33499770E-06
  -4.00000019E-03  -5.42544603E-06
  -3.94999981E-03  -5.51707581E-06
  -3.89999989E-03  -5.60989247E-06
  -3.84999998E-03  -5.70390512E-06
  -3.80000006E-03  -5.79912239E-06
  -3.74999992E-03  -5.89555157E-06
  -3.70000000E-03  -5.99320128E-06
  -3.65000009E-03  -6.09207973E-06
  -3.59999994E-03  -6.19219327E-06
  -3.55000002E-03  -6.29354781E-06
  -3.50000011E-03  -6.39614882E-06
  -3.44999996E-03  -6.49999993E-06
  -3.40000005E-03  -6.60510796E-06
  -3.34999990E-03  -6.71148018E-06
  -3.29999998E-03  -6.81912297E-06
  -3.25000007E-03  -6.92804406E-06
  -3.19999992E-03  -7.03824890E-06
  -3.15000000E-03  -7.14974249E-06
  -3.10000009E-03  -7.26252892E-06
  -3.04999994E-03  -7.37661003E-06
  -3.00000003E-03  -7.49198989E-06
  -2.95000011E-03  -7.60867260E-06
  -2.89999996E-03  -7.72666135E-06
  -2.85000005E-03  -7.84596068E-06
  -2.79999990E-03  -7.96657696E-06
  -2.74999999E-03  -8.08851291E-06
  -2.70000007E-03  -8.21177218E-06
  -2.64999992E-03  -8.33635568E-06
  -2.60000001E-03  -8.46226339E-06
  -2.55000009E-03  -8.58949625E-06
  -2.49999994E-03  -8.71805514E-06
  -2.45000003E-03  -8.84794099E-06
  -2.40000011E-03  -8.97915834E-06
  -2.34999997E-03  -9.11170901E-06
  -2.30000005E-03  -9.24559390E-06
  -2.24999990E-03  -9.38081121E-06
  -2.19999999E-03  -9.51736001E-06
  -2.15000007E-03  -9.65523668E-06
  -2.09999993E-03  -9.79443939E-06
  -2.05000001E-03  -9.93496542E-06
  -2.00000009E-03  -1.00768120E-05
  -1.94999995E-03  -1.02199783E-05
  -1.90000003E-03  -1.03644634E-05
  -1.85000000E-03  -1.05102627E-05
  -1.79999997E-03  -1.06573762E-05
  -1.75000005E-03  -1.08057957E-05
  -1.70000002E-03  -1.09555149E-05
  -1.64999999E-03  -1.11065265E-05
  -1.59999996E-03  -1.12588232E-05
  -1.55000004E-03  -1.14123986E-05
  -1.50000001E-03  -1.15672483E-05
  -1.44999998E-03  -1.17233649E-05
  -1.39999995E-03  -1.18807429E-05
  -1.35000004E-03  -1.20393734E-05
  -1.30000000E-03  -1.21992452E-05
  -1.24999997E-03  -1.23603486E-05
  -1.20000006E-03  -1.25226716E-05
  -1.15000003E-03  -1.26862014E-05
  -1.09999999E-03  -1.28509273E-05
  -1.04999996E-03  -1.30168364E-05
  -1.00000005E-03  -1.31839206E-05
  -9.50000016E-04  -1.33521644E-05
  -8.99999985E-04  -1.35215578E-05
  -8.50000011E-04  -1.36920835E-05
  -7.99999980E-04  -1.38637242E-05
  -7.50000007E-04  -1.40364618E-05
  -6.99999975E-04  -1.42102781E-05
  -6.50000002E-04  -1.43851557E-05
  -6.00000028E-04  -1.45610793E-05
  -5.49999997E-04  -1.47380279E-05
  -5.00000024E-04  -1.49159860E-05
  -4.49999992E-04  -1.50949354E-05
  -3.99999990E-04  -1.52748507E-05
  -3.49999988E-04  -1.54557092E-05
  -3.00000014E-04  -1.56374863E-05
  -2.50000012E-04  -1.58201565E-05
  -1.99999995E-04  -1.60036980E-05
  -1.50000007E-04  -1.61880835E-05
  -9.99999975E-05  -1.63732911E-05
  -4.99999987E-05  -1.65592992E-05
   0.00000000      -1.67460748E-05
   4.99999987E-05  -1.69335926E-05
   9.99999975E-05  -1.71218198E-05
   1.50000007E-04  -1.73107255E-05
   1.99999995E-04  -1.75002733E-05
   2.50000012E-04  -1.76904341E-05
   3.00000014E-04  -1.78811752E-05
   3.49999988E-04  -1.80724637E-05
   3.99999990E-04  -1.82642725E-05
   4.49999992E-04  -1.84565597E-05
   5.00000024E-04  -1.86492925E-05
   5.49999997E-04  -1.88424292E-05
   6.00000028E-04  -1.90359297E-05
   6.50000002E-04  -1.92297539E-05
   6.99999975E-04  -1.94238601E-05
   7.50000007E-04  -1.96182100E-05
   7.99999980E-04  -1.98127600E-05
   8.50000011E-04  -2.00074683E-05
   8.99999985E-04  -2.02022948E-05
   9.50000016E-04  -2.03971886E-05
   1.00000005E-03  -2.05921042E-05
   1.04999996E-03  -2.07869944E-05
   1.09999999E-03  -2.09818099E-05
   1.15000003E-03  -2.11764946E-05
   1.20000006E-03  -2.13710027E-05
   1.24999997E-03  -2.15652835E-05
   1.30000000E-03  -2.17592842E-05
   1.35000004E-03  -2.19529538E-05
   1.39999995E-03  -2.21462360E-05
   1.44999998E-03  -2.23390798E-05
   1.50000001E-03  -2.25314252E-05
   1.55000004E-03  -2.27232103E-05
   1.59999996E-03  -2.29143716E-05
   1.64999999E-03  -2.31048507E-05
   1.70000002E-03  -2.32945840E-05
   1.75000005E-03  -2.34835097E-05
   1.79999997E-03  -2.36715696E-05
   1.85000000E-03  -2.38586981E-05
   1.90000003E-03  -2.40448335E-05
   1.94999995E-03  -2.42299066E-05
   2.00000009E-03  -2.44138428E-05
   2.05000001E-03  -2.45965693E-05
   2.09999993E-03  -2.47780172E-05
   2.15000007E-03  -2.49581099E-05
   2.19999999E-03  -2.51367801E-05
   2.24999990E-03  -2.53139588E-05
   2.30000005E-03  -2.54895749E-05
   2.34999997E-03  -2.56635503E-05
   2.40000011E-03  -2.58358086E-05
   2.45000003E-03  -2.60062661E-05
   2.49999994E-03  -2.61748410E-05
   2.55000009E-03  -2.63414440E-05
   2.60000001E-03  -2.65060007E-05
   2.64999992E-03  -2.66684237E-05
   2.70000007E-03  -2.68286331E-05
   2.74999999E-03  -2.69865486E-05
   2.79999990E-03  -2.71420886E-05