  -3.99999991E-02   0.00000000    
  -3.99499983E-02   0.00000000    
  -3.99000011E-02   0.00000000    
  -3.98500003E-02   0.00000000    
  -3.97999994E-02   1.30635096E-19
  -3.97499986E-02   1.15279819E-18
  -3.97000015E-02   5.14757845E-18
  -3.96500006E-02   1.52902665E-17
  -3.95999998E-02   3.30673126E-17
  -3.95499989E-02   5.23989934E-17
  -3.95000018E-02   5.32053356E-17
  -3.94500010E-02   4.17668565E-19
  -3.94000001E-02  -1.44877217E-16
  -3.93499993E-02  -4.00371219E-16
  -3.92999984E-02  -7.31966804E-16
  -3.92500013E-02  -1.03665620E-15
  -3.92000005E-02  -1.16027293E-15
  -3.91499996E-02  -9.59089900E-16
  -3.90999988E-02  -3.87979153E-16
  -3.90500017E-02   4.29695235E-16
  -3.90000008E-02   1.20439011E-15
  -3.89500000E-02   1.58478594E-15
  -3.88999991E-02   1.34036262E-15
  -3.88499983E-02   5.40277054E-16
  -3.88000011E-02  -3.78927151E-16
  -3.87500003E-02  -7.31695753E-16
  -3.86999995E-02   1.23980557E-16
  -3.86499986E-02   2.43571905E-15
  -3.86000015E-02   5.82920832E-15
  -3.85500006E-02   9.36608714E-15
  -3.84999998E-02   1.19331018E-14
  -3.84499989E-02   1.28344736E-14
  -3.84000018E-02   1.23102602E-14
  -3.83500010E-02   1.16716304E-14
  -3.83000001E-02   1.28794096E-14
  -3.82499993E-02   1.76599085E-14
  -3.81999984E-02   2.65290329E-14
  -3.81500013E-02   3.82260243E-14
  -3.81000005E-02   4.99394532E-14
  -3.80499996E-02   5.83610037E-14
  -3.79999988E-02   6.11765142E-14
  -3.79500017E-02   5.83111711E-14
  -3.79000008E-02   5.22583922E-14
  -3.78500000E-02   4.71795725E-14
  -3.77999991E-02   4.70359700E-14
  -3.77499983E-02   5.35452047E-14
  -3.77000012E-02   6.49623178E-14
  -3.76500003E-02   7.64082198E-14
  -3.75999995E-02   8.17778665E-14
  -3.75499986E-02   7.64629855E-14
  -3.75000015E-02   5.96277856E-14
  -3.74500006E-02   3.48744674E-14
  -3.73999998E-02   8.83227936E-15
  -3.73499990E-02  -1.18119642E-14
  -3.73000018E-02  -2.35323557E-14
  -3.72500010E-02  -2.79248670E-14
  -3.72000001E-02  -3.14266909E-14
  -3.71499993E-02  -4.28297433E-14
  -3.70999984E-02  -6.96646517E-14
  -3.70500013E-02  -1.15080783E-13
  -3.70000005E-02  -1.76613850E-13
  -3.69499996E-02  -2.47312777E-13
  -3.68999988E-02  -3.18562234E-13
  -3.68500017E-02  -3.83191742E-13
  -3.68000008E-02  -4.37498155E-13
  -3.67500000E-02  -4.81561568E-13
  -3.66999991E-02  -5.18216112E-13
  -3.66499983E-02  -5.51631278E-13
  -3.66000012E-02  -5.86327373E-13
  -3.65500003E-02  -6.26743503E-13
  -3.64999995E-02  -6.76747612E-13
  -3.64499986E-02  -7.38321568E-13
  -3.64000015E-02  -8.09322173E-13
  -3.63500006E-02  -8.81379876E-13
  -3.62999998E-02  -9.39853555E-13
  -3.62499990E-02  -9.67467209E-13
  -3.62000018E-02  -9.51516535E-13
  -3.61500010E-02  -8.91975946E-13
  -3.61000001E-02  -8.05923091E-13
  -3.60499993E-02  -7.24018393E-13
  -3.59999985E-02  -6.77967990E-13
  -3.59500013E-02  -6.82965674E-13
  -3.59000005E-02  -7.23494181E-13
  -3.58499996E-02  -7.51703116E-13
  -3.57999988E-02  -7.03270287E-13
  -3.57500017E-02  -5.27232338E-13
  -3.57000008E-02  -2.17403664E-13
  -3.56500000E-02   1.71405506E-13
  -3.55999991E-02   5.35452650E-13
  -3.55499983E-02   7.63576756E-13
  -3.55000012E-02   7.93656265E-13
  -3.54500003E-02   6.57701866E-13
  -3.53999995E-02   4.88769778E-13
  -3.53499986E-02   4.76672575E-13
  -3.53000015E-02   7.83482654E-13
  -3.52500007E-02   1.45351103E-12
  -3.51999998E-02   2.36309236E-12
  -3.51499990E-02   3.24470008E-12
  -3.51000018E-02   3.78882689E-12
  -3.50500010E-02   3.78782465E-12
  -3.50000001E-02   3.25724842E-12
  -3.49499993E-02   2.46905556E-12
  -3.48999985E-02   1.86321249E-12
  -3.48500013E-02   1.85960470E-12
  -3.48000005E-02   2.64659063E-12
  -3.47499996E-02   4.04809302E-12
  -3.46999988E-02   5.54949012E-12
  -3.46500017E-02   6.49650429E-12
  -3.46000008E-02   6.39666748E-12
  -3.45500000E-02   5.18968809E-12
  -3.44999991E-02   3.34661574E-12
  -3.44499983E-02   1.72074583E-12
  -3.44000012E-02   1.18498635E-12
  -3.43500003E-02   2.20250489E-12
  -3.42999995E-02   4.53363258E-12
  -3.42499986E-02   7.24544426E-12
  -3.42000015E-02   9.06525115E-12
  -3.41500007E-02   8.95467207E-12
  -3.40999998E-02   6.65312944E-12
  -3.40499990E-02   2.91789422E-12
  -3.40000018E-02  -7.01570854E-13
  -3.39500010E-02  -2.51020840E-12
  -3.39000002E-02  -1.47598708E-12
  -3.38499993E-02   2.17451447E-12
  -3.37999985E-02   6.89544125E-12
  -3.37500013E-02   1.03986030E-11
  -3.37000005E-02   1.06712451E-11
  -3.36499996E-02   6.99509721E-12
  -3.35999988E-02   4.68240030E-13
  -3.35500017E-02  -6.29061126E-12
  -3.35000008E-02  -1.02173981E-11
  -3.34500000E-02  -9.23370842E-12
  -3.33999991E-02  -3.38191411E-12
  -3.33499983E-02   4.92493676E-12
  -3.33000012E-02   1.17701248E-11
  -3.32500003E-02   1.34340334E-11
  -3.31999995E-02   8.20602527E-12
  -3.31499986E-02  -2.55602722E-12
  -3.31000015E-02  -1.47198278E-11
  -3.30500007E-02  -2.30427032E-11
  -3.29999998E-02  -2.35609952E-11
  -3.29499990E-02  -1.56354842E-11
  -3.29000019E-02  -2.62826024E-12
  -3.28500010E-02   9.26816089E-12
  -3.28000002E-02   1.36904819E-11
  -3.27499993E-02   7.13659210E-12
  -3.26999985E-02  -9.04791346E-12
  -3.26500013E-02  -2.87963715E-11
  -3.26000005E-02  -4.37258355E-11
  -3.25499997E-02  -4.69066661E-11
  -3.24999988E-02  -3.63312089E-11
  -3.24500017E-02  -1.63863471E-11
  -3.24000008E-02   3.58247958E-12
  -3.23500000E-02   1.32267053E-11
  -3.22999991E-02   6.03299702E-12
  -3.22499983E-02  -1.71802433E-11
  -3.22000012E-02  -4.79132463E-11
  -3.21500003E-02  -7.32606545E-11
  -3.20999995E-02  -8.16048271E-11
  -3.20499986E-02  -6.82457910E-11
  -3.20000015E-02  -3.82771731E-11
  -3.19500007E-02  -5.07429211E-12
  -3.18999998E-02   1.53016749E-11
  -3.18499990E-02   1.15035342E-11
  -3.18000019E-02  -1.72510669E-11
  -3.17500010E-02  -5.98050290E-11
  -3.17000002E-02  -9.72301961E-11
  -3.16499993E-02  -1.11067079E-10
  -3.15999985E-02  -9.20955187E-11
  -3.15500014E-02  -4.55246570E-11
  -3.15000005E-02   1.01774301E-11
  -3.14499997E-02   5.08240013E-11
  -3.13999988E-02   5.74108538E-11
  -3.13500017E-02   2.55158672E-11
  -3.13000008E-02  -3.13745106E-11
  -3.12500000E-02  -8.67008063E-11
  -3.11999992E-02  -1.12235013E-10
  -3.11500002E-02  -9.12228071E-11
  -3.10999993E-02  -2.72093320E-11
  -3.10500003E-02   5.59679872E-11
  -3.09999995E-02   1.23737770E-10
  -3.09500005E-02   1.46175516E-10
  -3.08999997E-02   1.12432612E-10
  -3.08500007E-02   3.73449986E-11
  -3.07999998E-02  -4.35097687E-11
  -3.07500008E-02  -8.88933926E-11
  -3.07000000E-02  -7.08303555E-11
  -3.06499992E-02   1.12187403E-11
  -3.06000002E-02   1.27957311E-10
  -3.05499993E-02   2.31655750E-10
  -3.05000003E-02   2.77057655E-10
  -3.04499995E-02   2.42703468E-10
  -3.04000005E-02   1.42708872E-10
  -3.03499997E-02   2.27706083E-11
  -3.03000007E-02  -5.88940563E-11
  -3.02499998E-02  -5.78558798E-11
  -3.02000009E-02   3.47519444E-11
  -3.01500000E-02   1.85504792E-10
  -3.00999992E-02   3.31228739E-10
  -3.00500002E-02   4.06326306E-10
  -2.99999993E-02   3.73168302E-10
  -2.99500003E-02   2.41576981E-10
  -2.98999995E-02   6.75443590E-11
  -2.98500005E-02  -6.96579114E-11
  -2.97999997E-02  -1.02795349E-10
  -2.97500007E-02  -8.80654057E-12
  -2.96999998E-02   1.77427559E-10
  -2.96500009E-02   3.75332931E-10
  -2.96000000E-02   4.92956009E-10
  -2.95499992E-02   4.68852401E-10
  -2.95000002E-02   3.02578601E-10
  -2.94499993E-02   5.88731702E-11
  -2.94000003E-02  -1.58127067E-10
  -2.93499995E-02  -2.50599569E-10
  -2.93000005E-02  -1.72740919E-10
  -2.92499997E-02   4.47383519E-11
  -2.92000007E-02   3.04027331E-10
  -2.91499998E-02   4.81300111E-10
  -2.91000009E-02   4.82406892E-10
  -2.90500000E-02   2.88275459E-10
  -2.89999992E-02  -3.16364053E-11
  -2.89500002E-02  -3.46021350E-10
  -2.88999993E-02  -5.18630749E-10
  -2.88500004E-02  -4.70916528E-10
  -2.87999995E-02  -2.21784674E-10
  -2.87500005E-02   1.15280473E-10
  -2.86999997E-02   3.78923837E-10
  -2.86500007E-02   4.31473662E-10
  -2.85999998E-02   2.23766325E-10
  -2.85500009E-02  -1.77062323E-10
  -2.85000000E-02  -6.11780182E-10
  -2.84499992E-02  -8.97080132E-10
  -2.84000002E-02  -9.08563280E-10
  -2.83499993E-02  -6.41289855E-10
  -2.83000004E-02  -2.18735460E-10
  -2.82499995E-02   1.56869198E-10
  -2.82000005E-02   2.93227220E-10
  -2.81499997E-02   9.70429501E-11
  -2.81000007E-02  -3.77488096E-10
  -2.80499998E-02  -9.45299283E-10
  -2.80000009E-02  -1.36810385E-09
  -2.79500000E-02  -1.46071377E-09
  -2.78999992E-02  -1.17874244E-09
  -2.78500002E-02  -6.46419751E-10
  -2.77999993E-02  -1.08555019E-10
  -2.77500004E-02   1.75340700E-10
  -2.76999995E-02   4.92691409E-11
  -2.76500005E-02  -4.62252625E-10
  -2.75999997E-02  -1.15583665E-09
  -2.75500007E-02  -1.73283687E-09
  -2.74999999E-02  -1.93085414E-09
  -2.74500009E-02  -1.64537761E-09
  -2.74000000E-02  -9.85377890E-10
  -2.73499992E-02  -2.34071124E-10
  -2.73000002E-02   2.71977468E-10
  -2.72499993E-02   2.94209906E-10
  -2.72000004E-02  -1.93796187E-10
  -2.71499995E-02  -9.83446879E-10
  -2.71000005E-02  -1.71447390E-09
  -2.70499997E-02  -2.03166306E-09
  -2.70000007E-02  -1.74699555E-09
  -2.69499999E-02  -9.33451760E-10
  -2.69000009E-02   9.56513549E-11
  -2.68500000E-02   9.17880882E-10
  -2.67999992E-02   1.18892707E-09
  -2.67500002E-02   8.03159206E-10
  -2.66999993E-02  -4.69624964E-11
  -2.66500004E-02  -9.44488487E-10
  -2.65999995E-02  -1.42732359E-09
  -2.65500005E-02  -1.19658139E-09
  -2.64999997E-02  -2.60415384E-10
  -2.64500007E-02   1.05516951E-09
  -2.63999999E-02   2.23961427E-09
  -2.63500009E-02   2.82120327E-09
  -2.63000000E-02   2.58306554E-09
  -2.62499992E-02   1.67317948E-09
  -2.62000002E-02   5.53506685E-10
  -2.61499994E-02  -1.95952504E-10
  -2.61000004E-02  -1.35702158E-10
  -2.60499995E-02   8.26759883E-10
  -2.60000005E-02   2.37865527E-09
  -2.59499997E-02   3.92495947E-09
  -2.59000007E-02   4.84499108E-09
  -2.58499999E-02   4.77202322E-09
  -2.58000009E-02   3.77003939E-09
  -2.57500000E-02   2.32291364E-09
  -2.56999992E-02   1.13268905E-09
  -2.56500002E-02   8.10113532E-10
  -2.55999994E-02   1.59307878E-09
  -2.55500004E-02   3.22184546E-09
  -2.54999995E-02   5.03440933E-09
  -2.54500005E-02   6.24828500E-09
  -2.53999997E-02   6.30903152E-09
  -2.53500007E-02   5.15046850E-09
  -2.52999999E-02   3.24494276E-09
  -2.52500009E-02   1.41192680E-09
  -2.52000000E-02   4.61385402E-10
  -2.51499992E-02   8.26395119E-10
  -2.51000002E-02   2.35088393E-09
  -2.50499994E-02   4.33509628E-09
  -2.50000004E-02   5.82899595E-09
  -2.49499995E-02   6.05120931E-09
  -2.49000005E-02   4.74918993E-09
  -2.48499997E-02   2.33523756E-09
  -2.48000007E-02  -2.72415673E-10
  -2.47499999E-02  -2.04373229E-09
  -2.47000009E-02  -2.29764230E-09
  -2.46500000E-02  -1.02383235E-09
  -2.45999992E-02   1.08562870E-09
  -2.45500002E-02   2.92097080E-09
  -2.44999994E-02   3.43989437E-09
  -2.44500004E-02   2.14207985E-09
  -2.43999995E-02  -6.81858292E-10
  -2.43500005E-02  -4.04857836E-09
  -2.42999997E-02  -6.69700650E-09
  -2.42500007E-02  -7.64536168E-09
  -2.41999999E-02  -6.64428557E-09
  -2.41500009E-02  -4.31725988E-09
  -2.41000000E-02  -1.91246285E-09
  -2.40499992E-02  -7.62689023E-10
  -2.40000002E-02  -1.68566550E-09
  -2.39499994E-02  -4.59316674E-09
  -2.39000004E-02  -8.49361381E-09
  -2.38499995E-02  -1.19024079E-08
  -2.38000005E-02  -1.34907143E-08
  -2.37499997E-02  -1.26891386E-08
  -2.37000007E-02  -9.97210137E-09
  -2.36499999E-02  -6.68217170E-09
  -2.36000009E-02  -4.45589787E-09
  -2.35500000E-02  -4.49488224E-09
  -2.34999992E-02  -7.00510094E-09
  -2.34500002E-02  -1.10639018E-08
  -2.33999994E-02  -1.49910662E-08
  -2.33500004E-02  -1.70757311E-08
  -2.32999995E-02  -1.63447869E-08
  -2.32500006E-02  -1.30276980E-08
  -2.31999997E-02  -8.49668513E-09
  -2.31500007E-02  -4.68950834E-09
  -2.30999999E-02  -3.25587557E-09
  -2.30500009E-02  -4.80213291E-09
  -2.30000000E-02  -8.57856808E-09
  -2.29499992E-02  -1.27667912E-08
  -2.29000002E-02  -1.52597686E-08
  -2.28499994E-02  -1.46009098E-08
  -2.28000004E-02  -1.06645626E-08
  -2.27499995E-02  -4.76153250E-09
  -2.27000006E-02   8.98946417E-10
  -2.26499997E-02   4.17163415E-09
  -2.26000007E-02   3.94355215E-09
  -2.25499999E-02   6.71682154E-10
  -2.25000009E-02  -3.76791176E-09
  -2.24500000E-02  -6.87629154E-09
  -2.23999992E-02  -6.63737776E-09
  -2.23500002E-02  -2.44579268E-09
  -2.22999994E-02   4.56776528E-09
  -2.22500004E-02   1.19816912E-08
  -2.21999995E-02   1.71257355E-08
  -2.21500006E-02   1.82715993E-08
  -2.20999997E-02   1.54404134E-08
  -2.20500007E-02   1.04497904E-08
  -2.19999999E-02   6.15280449E-09
  -2.19500009E-02   5.18387955E-09
  -2.19000001E-02   8.75980533E-09
  -2.18499992E-02   1.60781770E-08
  -2.18000002E-02   2.46048657E-08
  -2.17499994E-02   3.11513659E-08
  -2.17000004E-02   3.32834453E-08
  -2.16499995E-02   3.04375831E-08
  -2.16000006E-02   2.42322837E-08
  -2.15499997E-02   1.78069683E-08
  -2.15000007E-02   1.44537760E-08
  -2.14499999E-02   1.61351803E-08
  -2.14000009E-02   2.25515144E-08
  -2.13500001E-02   3.11966879E-08
  -2.12999992E-02   3.84095173E-08
  -2.12500002E-02   4.09796819E-08
  -2.11999994E-02   3.76029980E-08
  -2.11500004E-02   2.95255624E-08
  -2.10999995E-02   2.00605026E-08
  -2.10500006E-02   1.31587479E-08
  -2.09999997E-02   1.16473862E-08
  -2.09500007E-02   1.59185127E-08
  -2.08999999E-02   2.36734969E-08
  -2.08500009E-02   3.08713339E-08
  -2.08000001E-02   3.34919008E-08
  -2.07499992E-02   2.93456033E-08
  -2.07000002E-02   1.91159799E-08
  -2.06499994E-02   6.14194917E-09
  -2.06000004E-02  -5.00122610E-09
  -2.05499995E-02  -1.05203082E-08
  -2.05000006E-02  -9.13134901E-09
  -2.04499997E-02  -2.70930456E-09
  -2.04000007E-02   4.46509452E-09
  -2.03499999E-02   7.56457474E-09
  -2.03000009E-02   3.37691208E-09
  -2.02500001E-02  -8.19510149E-09
  -2.01999992E-02  -2.39901752E-08
  -2.01500002E-02  -3.89062400E-08
  -2.00999994E-02  -4.81293831E-08
  -2.00500004E-02  -4.92975971E-08
  -1.99999996E-02  -4.36236860E-08
  -1.99500006E-02  -3.54418290E-08
  -1.98999997E-02  -3.03363166E-08
  -1.98500007E-02  -3.26537162E-08
  -1.97999999E-02  -4.35001617E-08
  -1.97500009E-02  -6.01385892E-08
  -1.97000001E-02  -7.70967077E-08
  -1.96499992E-02  -8.85355149E-08
  -1.96000002E-02  -9.08482320E-08
  -1.95499994E-02  -8.43273256E-08
  -1.95000004E-02  -7.31241272E-08
  -1.94499996E-02  -6.34722213E-08
  -1.94000006E-02  -6.09263253E-08
  -1.93499997E-02  -6.78312304E-08
  -1.93000007E-02  -8.21654211E-08
  -1.92499999E-02  -9.83162352E-08
  -1.92000009E-02  -1.09489854E-07
  -1.91500001E-02  -1.10716464E-07
  -1.90999992E-02  -1.01115099E-07
  -1.90500002E-02  -8.43809431E-08
  -1.89999994E-02  -6.72292941E-08
  -1.89500004E-02  -5.64423210E-08
  -1.88999996E-02  -5.58097497E-08
  -1.88500006E-02  -6.43356373E-08
  -1.87999997E-02  -7.65495045E-08
  -1.87500007E-02  -8.48359036E-08
  -1.86999999E-02  -8.27870679E-08
  -1.86500009E-02  -6.80982524E-08
  -1.86000001E-02  -4.36938947E-08
  -1.85499992E-02  -1.65344165E-08
  -1.85000002E-02   5.41778977E-09
  -1.84499994E-02   1.67557594E-08
  -1.84000004E-02   1.71239183E-08
  -1.83499996E-02   1.15058389E-08
  -1.83000006E-02   8.12090484E-09
  -1.82499997E-02   1.48166279E-08
  -1.82000007E-02   3.55401895E-08
  -1.81499999E-02   6.84752024E-08
  -1.81000009E-02   1.06719689E-07
  -1.80500001E-02   1.41260884E-07
  -1.79999992E-02   1.64965570E-07
  -1.79500002E-02   1.75818926E-07
  -1.78999994E-02   1.77940862E-07
  -1.78500004E-02   1.79872615E-07
  -1.77999996E-02   1.90840041E-07
  -1.77500006E-02   2.16623746E-07
  -1.76999997E-02   2.56880156E-07
  -1.76500008E-02   3.05147751E-07
  -1.75999999E-02   3.51595929E-07
  -1.75500009E-02   3.87344329E-07
  -1.75000001E-02   4.08450319E-07
  -1.74499992E-02   4.17769201E-07
  -1.74000002E-02   4.23806540E-07
  -1.73499994E-02   4.37011835E-07
  -1.73000004E-02   4.65120451E-07
  -1.72499996E-02   5.09611311E-07
  -1.72000006E-02   5.64893242E-07
  -1.71499997E-02   6.20641913E-07
  -1.71000008E-02   6.66306960E-07
  -1.70499999E-02   6.95814549E-07
  -1.70000009E-02   7.10362428E-07
  -1.69500001E-02   7.18014974E-07
  -1.68999992E-02   7.30213912E-07
  -1.68500002E-02   7.56706015E-07
  -1.67999994E-02   8.01125850E-07
  -1.67500004E-02   8.59228010E-07
  -1.66999996E-02   9.20614696E-07
  -1.66500006E-02   9.73251986E-07
  -1.65999997E-02   1.00881050E-06
  -1.65500008E-02   1.02645288E-06
  -1.64999999E-02   1.03334264E-06
  -1.64500009E-02   1.04158050E-06
  -1.64000001E-02   1.06287359E-06
  -1.63499992E-02   1.10327665E-06
  -1.63000003E-02   1.16036665E-06
  -1.62499994E-02   1.22415793E-06
  -1.62000004E-02   1.28142040E-06
  -1.61499996E-02   1.32153502E-06
  -1.61000006E-02   1.34129039E-06
  -1.60499997E-02   1.34645688E-06
  -1.60000008E-02   1.34937272E-06
  -1.59499999E-02   1.36354936E-06
  -1.59000009E-02   1.39765666E-06
  -1.58500001E-02   1.45156594E-06
  -1.57999992E-02   1.51625807E-06
  -1.57500003E-02   1.57771126E-06
  -1.56999994E-02   1.62309698E-06
  -1.56500004E-02   1.64655296E-06
  -1.55999996E-02   1.65194388E-06
  -1.55499997E-02   1.65132360E-06
  -1.54999997E-02   1.65970937E-06
  -1.54499998E-02   1.68844406E-06
  -1.53999999E-02   1.74008676E-06
  -1.53500000E-02   1.80714540E-06
  -1.53000001E-02   1.87528542E-06
  -1.52500002E-02   1.92965194E-06
  -1.52000003E-02   1.96153042E-06
  -1.51500003E-02   1.97237455E-06
  -1.51000004E-02   1.97336249E-06
  -1.50499996E-02   1.98059820E-06
  -1.49999997E-02   2.00803265E-06
  -1.49499997E-02   2.06123582E-06
  -1.48999998E-02   2.13481303E-06
  -1.48499999E-02   2.21468099E-06
  -1.48000000E-02   2.28426597E-06
  -1.47500001E-02   2.33191054E-06
  -1.47000002E-02   2.35620155E-06
  -1.46500003E-02   2.36681035E-06
  -1.46000003E-02   2.38038615E-06
  -1.45500004E-02   2.41327166E-06
  -1.44999996E-02   2.47424623E-06
  -1.44499997E-02   2.56053386E-06
  -1.43999998E-02   2.65891435E-06
  -1.43499998E-02   2.75151683E-06
  -1.42999999E-02   2.82377459E-06
  -1.42500000E-02   2.87102148E-06
  -1.42000001E-02   2.90076969E-06
  -1.41500002E-02   2.92957884E-06
  -1.41000003E-02   2.97583392E-06
  -1.40500003E-02   3.05161211E-06
  -1.40000004E-02   3.15724810E-06
  -1.39499996E-02   3.28106034E-06
  -1.38999997E-02   3.40444353E-06
  -1.38499998E-02   3.51010999E-06
  -1.37999998E-02   3.58987381E-06
  -1.37499999E-02   3.64847142E-06
  -1.37000000E-02   3.70166072E-06
  -1.36500001E-02   3.76937942E-06
  -1.36000002E-02   3.86693637E-06
  -1.35500003E-02   3.99815690E-06
  -1.35000004E-02   4.15356544E-06
  -1.34500004E-02   4.31446870E-06
  -1.33999996E-02   4.46120839E-06
  -1.33499997E-02   4.58196519E-06
  -1.32999998E-02   4.67814561E-06
  -1.32499998E-02   4.76396144E-06
  -1.31999999E-02   4.86028375E-06
  -1.31500000E-02   4.98544341E-06
  -1.31000001E-02   5.14705334E-06
  -1.30500002E-02   5.33851062E-06
  -1.30000003E-02   5.54178268E-06
  -1.29500004E-02   5.73535544E-06
  -1.29000004E-02   5.90381978E-06
  -1.28499996E-02   6.04483284E-06
  -1.27999997E-02   6.17034857E-06
  -1.27499998E-02   6.30148725E-06
  -1.26999998E-02   6.45924274E-06
  -1.26499999E-02   6.65515608E-06
  -1.26000000E-02   6.88607633E-06
  -1.25500001E-02   7.13542249E-06
  -1.25000002E-02   7.38045992E-06
  -1.24500003E-02   7.60238618E-06
  -1.24000004E-02   7.79478978E-06
  -1.23500004E-02   7.96668519E-06
  -1.22999996E-02   8.13868064E-06
  -1.22499997E-02   8.33394006E-06
  -1.21999998E-02   8.56793667E-06
  -1.21499998E-02   8.84150631E-06
  -1.20999999E-02   9.14035172E-06
  -1.20500000E-02   9.44128988E-06
  -1.20000001E-02   9.72255475E-06
  -1.19500002E-02   9.97355255E-06
  -1.19000003E-02   1.01997321E-05
  -1.18500004E-02   1.04203600E-05
  -1.18000004E-02   1.06601146E-05
  -1.17499996E-02   1.09381681E-05
  -1.16999997E-02   1.12596481E-05
  -1.16499998E-02   1.16132724E-05
  -1.15999999E-02   1.19762708E-05
  -1.15499999E-02   1.23244781E-05
  -1.15000000E-02   1.26431514E-05
  -1.14500001E-02   1.29336977E-05
  -1.14000002E-02   1.32132682E-05
  -1.13500003E-02   1.35073160E-05
  -1.13000004E-02   1.38383875E-05
  -1.12500004E-02   1.42161589E-05
  -1.11999996E-02   1.46330704E-05
  -1.11499997E-02   1.50676269E-05
  -1.10999998E-02   1.54939517E-05
  -1.10499999E-02   1.58933453E-05
  -1.09999999E-02   1.62627475E-05
  -1.09500000E-02   1.66163099E-05
  -1.09000001E-02   1.69793293E-05
  -1.08500002E-02   1.73771368E-05
  -1.08000003E-02   1.78239279E-05
  -1.07500004E-02   1.83164466E-05
  -1.07000005E-02   1.88353843E-05
  -1.06499996E-02   1.93540018E-05
  -1.05999997E-02   1.98500857E-05
  -1.05499998E-02   2.03159670E-05
  -1.04999999E-02   2.07621688E-05
  -1.04499999E-02   2.12129362E-05
  -1.04000000E-02   2.16956942E-05
  -1.03500001E-02   2.22289345E-05
  -1.03000002E-02   2.28140325E-05
  -1.02500003E-02   2.34347081E-05
  -1.02000004E-02   2.40642530E-05
  -1.01500005E-02   2.46774562E-05
  -1.00999996E-02   2.52619593E-05
  -1.00499997E-02   2.58239888E-05
  -9.99999978E-03   2.63858219E-05
  -9.94999986E-03   2.69760640E-05
  -9.89999995E-03   2.76171086E-05
  -9.85000003E-03   2.83152694E-05
  -9.80000012E-03   2.90579446E-05
  -9.75000020E-03   2.98193281E-05
  -9.70000029E-03   3.05719586E-05
  -9.65000037E-03   3.12990342E-05
  -9.60000046E-03   3.20020663E-05
  -9.54999961E-03   3.27004200E-05
  -9.49999969E-03   3.34229699E-05
  -9.44999978E-03   3.41954146E-05
  -9.39999986E-03   3.50290247E-05
  -9.34999995E-03   3.59157129E-05
  -9.30000003E-03   3.68316578E-05
  -9.25000012E-03   3.77479591E-05
  -9.20000020E-03   3.86436514E-05
  -9.15000029E-03   3.95152601E-05
  -9.10000037E-03   4.03785161E-05
  -9.05000046E-03   4.12615409E-05
  -8.99999961E-03   4.21926416E-05
  -8.94999970E-03   4.31878179E-05
  -8.89999978E-03   4.42437304E-05
  -8.84999987E-03   4.53393550E-05
  -8.79999995E-03   4.64453551E-05
  -8.75000004E-03   4.75371817E-05
  -8.70000012E-03   4.86061872E-05
  -8.65000021E-03   4.96637513E-05
  -8.60000029E-03   5.07364639E-05
  -8.55000038E-03   5.18544002E-05
  -8.50000046E-03   5.30379803E-05
  -8.44999962E-03   5.42890157E-05
  -8.39999970E-03   5.55900406E-05
  -8.34999979E-03   5.69122094E-05
  -8.29999987E-03   5.82281464E-05
  -8.24999996E-03   5.95244019E-05
  -8.20000004E-03   6.08076698E-05
  -8.15000013E-03   6.21018989E-05
  -8.10000021E-03   6.34379103E-05
  -8.05000030E-03   6.48398491E-05
  -8.00000038E-03   6.63148094E-05
  -7.95000046E-03   6.78497090E-05
  -7.89999962E-03   6.94172631E-05
  -7.84999970E-03   7.09882806E-05
  -7.79999979E-03   7.25446662E-05
  -7.74999987E-03   7.40878095E-05
  -7.69999996E-03   7.56381196E-05
  -7.65000004E-03   7.72261119E-05
  -7.60000013E-03   7.88791367E-05
  -7.55000021E-03   8.06095122E-05
  -7.49999983E-03   8.24091330E-05
  -7.44999992E-03   8.42533118E-05
  -7.40000000E-03   8.61119697E-05
  -7.35000009E-03   8.79632353E-05
  -7.30000017E-03   8.98031649E-05
  -7.24999979E-03   9.16478530E-05
  -7.19999988E-03   9.35264252E-05
  -7.14999996E-03   9.54684147E-05
  -7.10000005E-03   9.74909271E-05
  -7.05000013E-03   9.95911687E-05
  -7.00000022E-03   1.01748003E-04
  -6.94999984E-03   1.03931277E-04
  -6.89999992E-03   1.06115869E-04
  -6.85000001E-03   1.08292799E-04
  -6.80000009E-03   1.10473215E-04
  -6.75000018E-03   1.12684102E-04
  -6.69999979E-03   1.14956332E-04
  -6.64999988E-03   1.17311029E-04
  -6.59999996E-03   1.19750781E-04
  -6.55000005E-03   1.22258803E-04
  -6.50000013E-03   1.24806393E-04
  -6.45000022E-03   1.27366016E-04
  -6.39999984E-03   1.29923690E-04
  -6.34999992E-03   1.32485598E-04
  -6.30000001E-03   1.35075257E-04
  -6.25000009E-03   1.37723619E-04
  -6.20000018E-03   1.40455522E-04
  -6.14999980E-03   1.43278841E-04
  -6.09999988E-03   1.46181643E-04
  -6.04999997E-03   1.49137370E-04
  -6.00000005E-03   1.52116860E-04
  -5.95000014E-03   1.55101938E-04
  -5.90000022E-03   1.58093288E-04
  -5.84999984E-03   1.61110380E-04
  -5.79999993E-03   1.64183031E-04
  -5.75000001E-03   1.67338556E-04
  -5.70000010E-03   1.70590225E-04
  -5.65000018E-03   1.73931126E-04
  -5.59999980E-03   1.77337759E-04
  -5.54999989E-03   1.80780960E-04
  -5.49999997E-03   1.84238830E-04
  -5.45000006E-03   1.87706770E-04
  -5.40000014E-03   1.91199593E-04
  -5.35000023E-03   1.94744905E-04
  -5.29999984E-03   1.98371577E-04
  -5.24999993E-03   2.02097202E-04
  -5.20000001E-03   2.05920514E-04
  -5.15000010E-03   2.09822247E-04
  -5.10000018E-03   2.13773645E-04
  -5.04999980E-03   2.17749810E-04
  -4.99999989E-03   2.21740906E-04
  -4.94999997E-03   2.25756259E-04
  -4.90000006E-03   2.29820886E-04
  -4.85000014E-03   2.33964136E-04
  -4.80000023E-03   2.38207183E-04
  -4.74999985E-03   2.42554219E-04
  -4.69999993E-03   2.46989948E-04
  -4.65000002E-03   2.51487480E-04
  -4.60000010E-03   2.56020663E-04
  -4.55000019E-03   2.60574918E-04
  -4.49999981E-03   2.65153823E-04
  -4.44999989E-03   2.69778277E-04
  -4.39999998E-03   2.74477294E-04
  -4.35000006E-03   2.79274944E-04
  -4.30000015E-03   2.84180453E-04
  -4.25000023E-03   2.89184070E-04
  -4.19999985E-03   2.94261787E-04
  -4.14999994E-03   2.99386040E-04
  -4.10000002E-03   3.04538233E-04
  -4.05000011E-03   3.09716503E-04
  -4.00000019E-03   3.14937090E-04
  -3.94999981E-03   3.20226914E-04
  -3.89999989E-03   3.25611531E-04
  -3.84999998E-03   3.31104820E-04
  -3.80000006E-03   3.36702622E-04
  -3.74999992E-03   3.42384883E-04
  -3.70000000E-03   3.48124740E-04
  -3.65000009E-03   3.53900308E-04
  -3.59999994E-03   3.59703961E-04
  -3.55000002E-03   3.65545566E-04
  -3.50000011E-03   3.71449161E-04
  -3.44999996E-03   3.77441378E-04
  -3.40000005E-03   3.83540377E-04
  -3.34999990E-03   3.89747787E-04
  -3.29999998E-03   3.96048155E-04
  -3.25000007E-03   4.02416452E-04
  -3.19999992E-03   4.08828026E-04
  -3.15000000E-03   4.15269635E-04
  -3.10000009E-03   4.21746081E-04
  -3.04999994E-03   4.28277534E-04
  -3.00000003E-03   4.34889400E-04
  -2.95000011E-03   4.41603072E-04
  -2.89999996E-03   4.48426610E-04
  -2.85000005E-03   4.55349364E-04
  -2.79999990E-03   4.62348078E-04
  -2.74999999E-03   4.69397579E-04
  -2.70000007E-03   4.76479967E-04
  -2.64999992E-03   4.83592303E-04
  -2.60000001E-03   4.90749837E-04
  -2.55000009E-03   4.97977831E-04
  -2.49999994E-03   5.05299889E-04
  -2.45000003E-03   5.12728933E-04
  -2.40000011E-03   5.20260306E-04
  -2.34999997E-03   5.27874101E-04
  -2.30000005E-03   5.35544183E-04
  -2.24999990E-03   5.43248840E-04
  -2.19999999E-03   5.50979283E-04
  -2.15000007E-03   5.58744592E-04
  -2.09999993E-03   5.66567061E-04
  -2.05000001E-03   5.74471895E-04
  -2.00000009E-03   5.82477660E-04
  -1.94999995E-03   5.90586453E-04
  -1.90000003E-03   5.98781975E-04
  -1.85000000E-03   6.07038266E-04
  -1.79999997E-03   6.15329714E-04
  -1.75000005E-03   6.23642060E-04
  -1.70000002E-03   6.31979492E-04
  -1.64999999E-03   6.40359998E-04
  -1.59999996E-03   6.48808200E-04
  -1.55000004E-03   6.57344994E-04
  -1.50000001E-03   6.65977946E-04
  -1.44999998E-03   6.74698269E-04
  -1.39999995E-03   6.83482096E-04
  -1.35000004E-03   6.92301604E-04
  -1.30000000E-03   7.01137236E-04
  -1.24999997E-03   7.09984626E-04
  -1.20000006E-03   7.18855241E-04
  -1.15000003E-03   7.27772305E-04
  -1.09999999E-03   7.36762129E-04
  -1.04999996E-03   7.45837460E-04
  -1.00000005E-03   7.54994689E-04
  -9.50000016E-04   7.64216704E-04
  -8.99999985E-04   7.73474574E-04
  -8.50000011E-04   7.82741175E-04
  -7.99999980E-04   7.92004517E-04
  -7.50000007E-04   8.01270711E-04
  -6.99999975E-04   8.10560246E-04
  -6.50000002E-04   8.19899724E-04
  -6.00000028E-04   8.29309749E-04
  -5.49999997E-04   8.38794222E-04
  -5.00000024E-04   8.48338823E-04
  -4.49999992E-04   8.57916137E-04
  -3.99999990E-04   8.67495371E-04
  -3.49999988E-04   8.77054816E-04
  -3.00000014E-04   8.86591384E-04
  -2.50000012E-04   8.96121026E-04
  -1.99999995E-04   9.05669585E-04
  -1.50000007E-04   9.15263430E-04
  -9.99999975E-05   9.24917753E-04
  -4.99999987E-05   9.34625568E-04
   0.00000000       9.44360101E-04
   4.99999987E-05   9.54086834E-04
   9.99999975E-05   9.63774684E-04
   1.50000007E-04   9.73411428E-04
   1.99999995E-04   9.83008067E-04
   2.50000012E-04   9.92591726E-04
   3.00000014E-04   1.00219296E-03
   3.49999988E-04   1.01183122E-03
   3.99999990E-04   1.02150638E-03
   4.49999992E-04   1.03119609E-03
   5.00000024E-04   1.04086462E-03
   5.49999997E-04   1.05047633E-03
   6.00000028E-04   1.06001040E-03
   6.50000002E-04   1.06946938E-03
   6.99999975E-04   1.07887643E-03
   7.50000007E-04   1.08826440E-03
   7.99999980E-04   1.09765911E-03
   8.50000011E-04   1.10706675E-03
   8.99999985E-04   1.11647125E-03
   9.50000016E-04   1.12583709E-03
   1.00000005E-03   1.13512261E-03
   1.04999996E-03   1.14430150E-03
   1.09999999E-03   1.15336617E-03
   1.15000003E-03   1.16233050E-03
   1.20000006E-03   1.17122743E-03
   1.24999997E-03   1.18008908E-03
   1.30000000E-03   1.18893164E-03
   1.35000004E-03   1.19774812E-03
   1.39999995E-03   1.20650930E-03
   1.44999998E-03   1.21517316E-03
   1.50000001E-03   1.22370059E-03
   1.55000004E-03   1.23207388E-03
   1.59999996E-03   1.24029769E-03
   1.64999999E-03   1.24839612E-03
   1.70000002E-03   1.25640666E-03
   1.75000005E-03   1.26435771E-03
   1.79999997E-03   1.27225451E-03
   1.85000000E-03   1.28007424E-03
   1.90000003E-03   1.28777593E-03
   1.94999995E-03   1.29531405E-03
   2.00000009E-03   1.30265218E-03
   2.05000001E-03   1.30977959E-03
   2.09999993E-03   1.31671480E-03
   2.15000007E-03   1.32349983E-03
   2.19999999E-03   1.33017416E-03
   2.24999990E-03   1.33675593E-03
   2.30000005E-03   1.34323561E-03
   2.34999997E-03   1.34957198E-03
   2.40000011E-03   1.35571032E-03
   2.45000003E-03   1.36160222E-03
   2.49999994E-03   1.36722450E-03
   2.55000009E-03   1.37258519E-03
   2.60000001E-03   1.37772376E-03
   2.64999992E-03   1.38269225E-03
   2.70000007E-03   1.38752093E-03
   2.74999999E-03   1.39221281E-03
   2.79999990E-03   1.39673741E-03