  -3.99999991E-02   0.00000000    
  -3.99499983E-02   0.00000000    
  -3.99000011E-02   0.00000000    
  -3.98500003E-02   0.00000000    
  -3.97999994E-02  -1.05159775E-19
  -3.97499986E-02  -9.29646784E-19
  -3.97000015E-02  -4.16255524E-18
  -3.96500006E-02  -1.24183533E-17
  -3.95999998E-02  -2.70558470E-17
  -3.95499989E-02  -4.34993704E-17
  -3.95000018E-02  -4.60000863E-17
  -3.94500010E-02  -6.49881769E-18
  -3.94000001E-02   1.07177137E-16
  -3.93499993E-02   3.12297051E-16
  -3.92999984E-02   5.87722916E-16
  -3.92500013E-02   8.60270008E-16
  -3.92000005E-02   1.01710943E-15
  -3.91499996E-02   9.50941338E-16
  -3.90999988E-02   6.25026088E-16
  -3.90500017E-02   1.24923834E-16
  -3.90000008E-02  -3.42420560E-16
  -3.89500000E-02  -5.23409769E-16
  -3.88999991E-02  -2.48186292E-16
  -3.88499983E-02   4.42633822E-16
  -3.88000011E-02   1.25093891E-15
  -3.87500003E-02   1.70485106E-15
  -3.86999995E-02   1.36206604E-15
  -3.86499986E-02   4.99647497E-17
  -3.86000015E-02  -1.98276882E-15
  -3.85500006E-02  -4.11070383E-15
  -3.84999998E-02  -5.59767907E-15
  -3.84499989E-02  -5.99197841E-15
  -3.84000018E-02  -5.46275900E-15
  -3.83500010E-02  -4.87658044E-15
  -3.83000001E-02  -5.51059180E-15
  -3.82499993E-02  -8.47774694E-15
  -3.81999984E-02  -1.41138398E-14
  -3.81500013E-02  -2.16453696E-14
  -3.81000005E-02  -2.93634881E-14
  -3.80499996E-02  -3.52987056E-14
  -3.79999988E-02  -3.81290221E-14
  -3.79500017E-02  -3.78944516E-14
  -3.79000008E-02  -3.61293874E-14
  -3.78500000E-02  -3.52657018E-14
  -3.77999991E-02  -3.75092312E-14
  -3.77499983E-02  -4.36865882E-14
  -3.77000012E-02  -5.26389032E-14
  -3.76500003E-02  -6.15304316E-14
  -3.75999995E-02  -6.70132691E-14
  -3.75499986E-02  -6.67456609E-14
  -3.75000015E-02  -6.05362318E-14
  -3.74500006E-02  -5.05214495E-14
  -3.73999998E-02  -4.02324285E-14
  -3.73499990E-02  -3.29511707E-14
  -3.73000018E-02  -3.01192244E-14
  -3.72500010E-02  -3.05546773E-14
  -3.72000001E-02  -3.08550691E-14
  -3.71499993E-02  -2.67951639E-14
  -3.70999984E-02  -1.50506692E-14
  -3.70500013E-02   5.56311250E-15
  -3.70000005E-02   3.38741757E-14
  -3.69499996E-02   6.71423434E-14
  -3.68999988E-02   1.02314187E-13
  -3.68500017E-02   1.37020183E-13
  -3.68000008E-02   1.69856750E-13
  -3.67500000E-02   2.00042701E-13
  -3.66999991E-02   2.26995723E-13
  -3.66499983E-02   2.50406494E-13
  -3.66000012E-02   2.70939629E-13
  -3.65500003E-02   2.91040900E-13
  -3.64999995E-02   3.14940023E-13
  -3.64499986E-02   3.47165656E-13
  -3.64000015E-02   3.89748048E-13
  -3.63500006E-02   4.39362820E-13
  -3.62999998E-02   4.86302676E-13
  -3.62499990E-02   5.16771847E-13
  -3.62000018E-02   5.18476971E-13
  -3.61500010E-02   4.87429107E-13
  -3.61000001E-02   4.32390126E-13
  -3.60499993E-02   3.73610512E-13
  -3.59999985E-02   3.34802851E-13
  -3.59500013E-02   3.30898747E-13
  -3.59000005E-02   3.57261150E-13
  -3.58499996E-02   3.86739116E-13
  -3.57999988E-02   3.78247672E-13
  -3.57500017E-02   2.95123355E-13
  -3.57000008E-02   1.25732378E-13
  -3.56500000E-02  -1.04233584E-13
  -3.55999991E-02  -3.36362990E-13
  -3.55499983E-02  -5.02546409E-13
  -3.55000012E-02  -5.58432315E-13
  -3.54500003E-02  -5.11967530E-13
  -3.53999995E-02  -4.30880022E-13
  -3.53499986E-02  -4.20579343E-13
  -3.53000015E-02  -5.77673109E-13
  -3.52500007E-02  -9.38094329E-13
  -3.51999998E-02  -1.44543307E-12
  -3.51499990E-02  -1.95965705E-12
  -3.51000018E-02  -2.30954752E-12
  -3.50500010E-02  -2.37051676E-12
  -3.50000001E-02  -2.13325798E-12
  -3.49499993E-02  -1.72714848E-12
  -3.48999985E-02  -1.37884582E-12
  -3.48500013E-02  -1.31577355E-12
  -3.48000005E-02  -1.65348692E-12
  -3.47499996E-02  -2.32042662E-12
  -3.46999988E-02  -3.06348241E-12
  -3.46500017E-02  -3.54426362E-12
  -3.46000008E-02  -3.49222430E-12
  -3.45500000E-02  -2.84731548E-12
  -3.44999991E-02  -1.81996107E-12
  -3.44499983E-02  -8.26555729E-13
  -3.44000012E-02  -3.14310427E-13
  -3.43500003E-02  -5.46001720E-13
  -3.42999995E-02  -1.44499853E-12
  -3.42499986E-02  -2.58524539E-12
  -3.42000015E-02  -3.35112146E-12
  -3.41500007E-02  -3.21185157E-12
  -3.40999998E-02  -1.99128301E-12
  -3.40499990E-02  -2.34861669E-16
  -3.40000018E-02   2.05130509E-12
  -3.39500010E-02   3.34759108E-12
  -3.39000002E-02   3.34896325E-12
  -3.38499993E-02   2.08684502E-12
  -3.37999985E-02   2.17202734E-13
  -3.37500013E-02  -1.22338652E-12
  -3.37000005E-02  -1.27665326E-12
  -3.36499996E-02   4.60639448E-13
  -3.35999988E-02   3.57173275E-12
  -3.35500017E-02   6.92060341E-12
  -3.35000008E-02   9.11280860E-12
  -3.34500000E-02   9.13547449E-12
  -3.33999991E-02   6.88768096E-12
  -3.33499983E-02   3.33256925E-12
  -3.33000012E-02   1.55128514E-13
  -3.32500003E-02  -9.64600145E-13
  -3.31999995E-02   8.44380176E-13
  -3.31499986E-02   5.14046791E-12
  -3.31000015E-02   1.02401273E-11
  -3.30500007E-02   1.38894486E-11
  -3.29999998E-02   1.42775557E-11
  -3.29499990E-02   1.09420788E-11
  -3.29000019E-02   5.12280713E-12
  -3.28500010E-02  -6.60933222E-13
  -3.28000002E-02  -3.68432108E-12
  -3.27499993E-02  -2.29365940E-12
  -3.26999985E-02   3.20392671E-12
  -3.26500013E-02   1.04993384E-11
  -3.26000005E-02   1.61893797E-11
  -3.25499997E-02   1.72908441E-11
  -3.24999988E-02   1.26967117E-11
  -3.24500017E-02   3.87646035E-12
  -3.24000008E-02  -5.58167445E-12
  -3.23500000E-02  -1.14742035E-11
  -3.22999991E-02  -1.09121210E-11
  -3.22499983E-02  -3.79952016E-12
  -3.22000012E-02   6.87945100E-12
  -3.21500003E-02   1.62049211E-11
  -3.20999995E-02   1.94784328E-11
  -3.20499986E-02   1.44582601E-11
  -3.20000015E-02   2.62198466E-12
  -3.19500007E-02  -1.12223945E-11
  -3.18999998E-02  -2.09304015E-11
  -3.18499990E-02  -2.18105499E-11
  -3.18000019E-02  -1.29574337E-11
  -3.17500010E-02   2.00970620E-12
  -3.17000002E-02   1.62800017E-11
  -3.16499993E-02   2.27935709E-11
  -3.15999985E-02   1.75363526E-11
  -3.15500014E-02   1.66524130E-12
  -3.15000005E-02  -1.86262984E-11
  -3.14499997E-02  -3.46130589E-11
  -3.13999988E-02  -3.89187953E-11
  -3.13500017E-02  -2.90570883E-11
  -3.13000008E-02  -8.94828309E-12
  -3.12500000E-02   1.24462628E-11
  -3.11999992E-02   2.49430997E-11
  -3.11500002E-02   2.17990643E-11
  -3.10999993E-02   3.09771740E-12
  -3.10500003E-02  -2.38121502E-11
  -3.09999995E-02  -4.72363849E-11
  -3.09500005E-02  -5.62827632E-11
  -3.08999997E-02  -4.59866312E-11
  -3.08500007E-02  -2.00228775E-11
  -3.07999998E-02   1.04227547E-11
  -3.07500008E-02   3.13534719E-11
  -3.07000000E-02   3.22801959E-11
  -3.06499992E-02   1.13247718E-11
  -3.06000002E-02  -2.33449631E-11
  -3.05499993E-02  -5.66515237E-11
  -3.05000003E-02  -7.31493199E-11
  -3.04499995E-02  -6.41487280E-11
  -3.04000005E-02  -3.21531170E-11
  -3.03499997E-02   9.61540136E-12
  -3.03000007E-02   4.26820558E-11
  -3.02499998E-02   5.15465587E-11
  -3.02000009E-02   3.10254947E-11
  -3.01500000E-02  -1.07433454E-11
  -3.00999992E-02  -5.52825216E-11
  -3.00500002E-02  -8.17145587E-11
  -2.99999993E-02  -7.62763880E-11
  -2.99500003E-02  -3.91011321E-11
  -2.98999995E-02   1.50237496E-11
  -2.98500005E-02   6.26157251E-11
  -2.97999997E-02   8.18042717E-11
  -2.97500007E-02   6.24762811E-11
  -2.96999998E-02   1.15755088E-11
  -2.96500009E-02  -4.91512386E-11
  -2.96000000E-02  -9.23346122E-11
  -2.95499992E-02  -9.72403894E-11
  -2.95000002E-02  -5.96326946E-11
  -2.94499993E-02   5.41575508E-12
  -2.94000003E-02   6.94256805E-11
  -2.93499995E-02   1.02867243E-10
  -2.93000005E-02   8.86310539E-11
  -2.92499997E-02   3.04924072E-11
  -2.92000007E-02  -4.75633838E-11
  -2.91499998E-02  -1.11301329E-10
  -2.91000009E-02  -1.31379435E-10
  -2.90500000E-02  -9.69949260E-11
  -2.89999992E-02  -2.17160318E-11
  -2.89500002E-02   6.15448456E-11
  -2.88999993E-02   1.14638486E-10
  -2.88500004E-02   1.11351456E-10
  -2.87999995E-02   4.99442848E-11
  -2.87500005E-02  -4.48842040E-11
  -2.86999997E-02  -1.31991099E-10
  -2.86500007E-02  -1.71731102E-10
  -2.85999998E-02  -1.44026846E-10
  -2.85500009E-02  -5.83388823E-11
  -2.85000000E-02   4.93667156E-11
  -2.84499992E-02   1.31846353E-10
  -2.84000002E-02   1.51604743E-10
  -2.83499993E-02   9.84016618E-11
  -2.83000004E-02  -4.87720584E-12
  -2.82499995E-02  -1.11156681E-10
  -2.82000005E-02  -1.69488909E-10
  -2.81499997E-02  -1.48003249E-10
  -2.81000007E-02  -4.91768778E-11
  -2.80499998E-02   8.98291025E-11
  -2.80000009E-02   2.12545065E-10
  -2.79500000E-02   2.67957878E-10
  -2.78999992E-02   2.33826708E-10
  -2.78500002E-02   1.27924824E-10
  -2.77999993E-02   1.62693860E-12
  -2.77500004E-02  -8.19674675E-11
  -2.76999995E-02  -7.60955396E-11
  -2.76500005E-02   2.78674462E-11
  -2.75999997E-02   1.94966751E-10
  -2.75500007E-02   3.60682512E-10
  -2.74999999E-02   4.58820815E-10
  -2.74500009E-02   4.51217924E-10
  -2.74000000E-02   3.45916906E-10
  -2.73499992E-02   1.95174460E-10
  -2.73000002E-02   7.34355909E-11
  -2.72499993E-02   4.44625586E-11
  -2.72000004E-02   1.32036090E-10
  -2.71499995E-02   3.07570330E-10
  -2.71000005E-02   5.00851416E-10
  -2.70499997E-02   6.29914731E-10
  -2.70000007E-02   6.37308262E-10
  -2.69499999E-02   5.16652221E-10
  -2.69000009E-02   3.17196464E-10
  -2.68500000E-02   1.23538332E-10
  -2.67999992E-02   1.87426134E-11
  -2.67500002E-02   4.68622953E-11
  -2.66999993E-02   1.91692162E-10
  -2.66500004E-02   3.81875254E-10
  -2.65999995E-02   5.20984256E-10
  -2.65500005E-02   5.29927824E-10
  -2.64999997E-02   3.83050813E-10
  -2.64500007E-02   1.21489527E-10
  -2.63999999E-02  -1.62996477E-10
  -2.63500009E-02  -3.67465447E-10
  -2.63000000E-02  -4.23588581E-10
  -2.62499992E-02  -3.29450051E-10
  -2.62000002E-02  -1.52594368E-10
  -2.61499994E-02  -1.97730244E-12
  -2.61000004E-02   1.96464268E-11
  -2.60499995E-02  -1.37806599E-10
  -2.60000005E-02  -4.47305359E-10
  -2.59499997E-02  -8.13987211E-10
  -2.59000007E-02  -1.11512410E-09
  -2.58499999E-02  -1.25386623E-09
  -2.58000009E-02  -1.20311927E-09
  -2.57500000E-02  -1.01956754E-09
  -2.56999992E-02  -8.20584933E-10
  -2.56500002E-02  -7.33184680E-10
  -2.55999994E-02  -8.36995084E-10
  -2.55500004E-02  -1.12663456E-09
  -2.54999995E-02  -1.51097979E-09
  -2.54500005E-02  -1.85083493E-09
  -2.53999997E-02  -2.01934269E-09
  -2.53500007E-02  -1.95878136E-09
  -2.52999999E-02  -1.70817993E-09
  -2.52500009E-02  -1.38846201E-09
  -2.52000000E-02  -1.15045062E-09
  -2.51499992E-02  -1.10789400E-09
  -2.51000002E-02  -1.28506705E-09
  -2.50499994E-02  -1.60288427E-09
  -2.50000004E-02  -1.91092631E-09
  -2.49499995E-02  -2.05241668E-09
  -2.49000005E-02  -1.93401295E-09
  -2.48499997E-02  -1.56926272E-09
  -2.48000007E-02  -1.07546061E-09
  -2.47499999E-02  -6.23938012E-10
  -2.47000009E-02  -3.64720781E-10
  -2.46500000E-02  -3.58613167E-10
  -2.45999992E-02  -5.47408618E-10
  -2.45500002E-02  -7.76711861E-10
  -2.44999994E-02  -8.62650229E-10
  -2.44500004E-02  -6.73794742E-10
  -2.43999995E-02  -1.91941255E-10
  -2.43500005E-02   4.76142015E-10
  -2.42999997E-02   1.14266629E-09
  -2.42500007E-02   1.62029878E-09
  -2.41999999E-02   1.80561244E-09
  -2.41500009E-02   1.72708214E-09
  -2.41000000E-02   1.53508917E-09
  -2.40499992E-02   1.43685730E-09
  -2.40000002E-02   1.60408509E-09
  -2.39499994E-02   2.09406936E-09
  -2.39000004E-02   2.82014478E-09
  -2.38499995E-02   3.58602881E-09
  -2.38000005E-02   4.17028767E-09
  -2.37499997E-02   4.42422499E-09
  -2.37000007E-02   4.33949010E-09
  -2.36499999E-02   4.05421696E-09
  -2.36000009E-02   3.79340914E-09
  -2.35500000E-02   3.76877862E-09
  -2.34999992E-02   4.08215817E-09
  -2.34500002E-02   4.67606931E-09
  -2.33999994E-02   5.35484990E-09
  -2.33500004E-02   5.86848437E-09
  -2.32999995E-02   6.02283512E-09
  -2.32500006E-02   5.76721204E-09
  -2.31999997E-02   5.21930499E-09
  -2.31500007E-02   4.61487915E-09
  -2.30999999E-02   4.20328172E-09
  -2.30500009E-02   4.13475743E-09
  -2.30000000E-02   4.39024861E-09
  -2.29499992E-02   4.78626738E-09
  -2.29000002E-02   5.05416775E-09
  -2.28499994E-02   4.95950125E-09
  -2.28000004E-02   4.40833725E-09
  -2.27499995E-02   3.49222051E-09
  -2.27000006E-02   2.45027865E-09
  -2.26499997E-02   1.56405044E-09
  -2.26000007E-02   1.03138387E-09
  -2.25499999E-02   8.76098694E-10
  -2.25000009E-02   9.34954558E-10
  -2.24500000E-02   9.29182786E-10
  -2.23999992E-02   5.89626070E-10
  -2.23500002E-02  -2.20320512E-10
  -2.22999994E-02  -1.43972179E-09
  -2.22500004E-02  -2.83346302E-09
  -2.21999995E-02  -4.09472856E-09
  -2.21500006E-02  -4.98128871E-09
  -2.20999997E-02  -5.42421663E-09
  -2.20500007E-02  -5.55925572E-09
  -2.19999999E-02  -5.66551073E-09
  -2.19500009E-02  -6.03808115E-09
  -2.19000001E-02  -6.85171164E-09
  -2.18499992E-02  -8.07740452E-09
  -2.18000002E-02  -9.49066159E-09
  -2.17499994E-02  -1.07687068E-08
  -2.17000004E-02  -1.16334595E-08
  -2.16499995E-02  -1.19755992E-08
  -2.16000006E-02  -1.19029187E-08
  -2.15499997E-02  -1.16901253E-08
  -2.15000007E-02  -1.16520358E-08
  -2.14499999E-02  -1.19974040E-08
  -2.14000009E-02  -1.27300730E-08
  -2.13500001E-02  -1.36431471E-08
  -2.12999992E-02  -1.44096548E-08
  -2.12500002E-02  -1.47289407E-08
  -2.11999994E-02  -1.44620644E-08
  -2.11500004E-02  -1.36939455E-08
  -2.10999995E-02  -1.26931861E-08
  -2.10500006E-02  -1.17873800E-08
  -2.09999997E-02  -1.12108207E-08
  -2.09500007E-02  -1.09946923E-08
  -2.08999999E-02  -1.09507354E-08
  -2.08500009E-02  -1.07565512E-08
  -2.08000001E-02  -1.01036832E-08
  -2.07499992E-02  -8.84025653E-09
  -2.07000002E-02  -7.04200920E-09
  -2.06499994E-02  -4.97834707E-09
  -2.06000004E-02  -2.98862379E-09
  -2.05499995E-02  -1.32580125E-09
  -2.05000006E-02  -4.02192793E-11
  -2.04499997E-02   1.04199183E-09
  -2.04000007E-02   2.23523489E-09
  -2.03499999E-02   3.84409882E-09
  -2.03000009E-02   6.01649042E-09
  -2.02500001E-02   8.66933902E-09
  -2.01999992E-02   1.15223555E-08
  -2.01500002E-02   1.42247005E-08
  -2.00999994E-02   1.65154592E-08
  -2.00500004E-02   1.83422433E-08
  -1.99999996E-02   1.98813268E-08
  -1.99500006E-02   2.14488463E-08
  -1.98999997E-02   2.33442243E-08
  -1.98500007E-02   2.56997499E-08
  -1.97999999E-02   2.84082127E-08
  -1.97500009E-02   3.11642232E-08
  -1.97000001E-02   3.36009656E-08
  -1.96499992E-02   3.54581751E-08
  -1.96000002E-02   3.67010387E-08
  -1.95499994E-02   3.75320219E-08
  -1.95000004E-02   3.82879755E-08
  -1.94499996E-02   3.92700876E-08
  -1.94000006E-02   4.05877003E-08
  -1.93499997E-02   4.20920756E-08
  -1.93000007E-02   4.34344720E-08
  -1.92499999E-02   4.42235262E-08
  -1.92000009E-02   4.42081998E-08
  -1.91500001E-02   4.33978897E-08
  -1.90999992E-02   4.20593480E-08
  -1.90500002E-02   4.05880343E-08
  -1.89999994E-02   3.93125283E-08
  -1.89500004E-02   3.83251368E-08
  -1.88999996E-02   3.74224776E-08
  -1.88500006E-02   3.61892845E-08
  -1.87999997E-02   3.41901867E-08
  -1.87500007E-02   3.11802886E-08
  -1.86999999E-02   2.72326783E-08
  -1.86500009E-02   2.27169785E-08
  -1.86000001E-02   1.81328392E-08
  -1.85499992E-02   1.38728193E-08
  -1.85000002E-02   1.00268140E-08
  -1.84499994E-02   6.32525321E-09
  -1.84000004E-02   2.25551089E-09
  -1.83499996E-02  -2.69624878E-09
  -1.83000006E-02  -8.78866846E-09
  -1.82499997E-02  -1.58776761E-08
  -1.82000007E-02  -2.34548398E-08
  -1.81499999E-02  -3.08627648E-08
  -1.81000009E-02  -3.75931393E-08
  -1.80500001E-02  -4.35281962E-08
  -1.79999992E-02  -4.90063954E-08
  -1.79500002E-02  -5.46713430E-08
  -1.78999994E-02  -6.11647408E-08
  -1.78500004E-02  -6.88018318E-08
  -1.77999996E-02  -7.73839162E-08
  -1.77500006E-02  -8.62451088E-08
  -1.76999997E-02  -9.45235215E-08
  -1.76500008E-02  -1.01540465E-07
  -1.75999999E-02  -1.07112939E-07
  -1.75500009E-02  -1.11647402E-07
  -1.75000001E-02  -1.15958066E-07
  -1.74499992E-02  -1.20881339E-07
  -1.74000002E-02  -1.26857401E-07
  -1.73499994E-02  -1.33675130E-07
  -1.73000004E-02  -1.40509925E-07
  -1.72499996E-02  -1.46252148E-07
  -1.72000006E-02  -1.49987599E-07
  -1.71499997E-02  -1.51411840E-07
  -1.71000008E-02  -1.50980739E-07
  -1.70499999E-02  -1.49712207E-07
  -1.70000009E-02  -1.48714349E-07
  -1.69500001E-02  -1.48645796E-07
  -1.68999992E-02  -1.49357987E-07
  -1.68500002E-02  -1.49896195E-07
  -1.67999994E-02  -1.48876509E-07
  -1.67500004E-02  -1.45083433E-07
  -1.66999996E-02  -1.38021008E-07
  -1.66500006E-02  -1.28157922E-07
  -1.65999997E-02  -1.16738434E-07
  -1.65500008E-02  -1.05224345E-07
  -1.64999999E-02  -9.46089571E-08
  -1.64500009E-02  -8.49150652E-08
  -1.64000001E-02  -7.51181943E-08
  -1.63499992E-02  -6.35511270E-08
  -1.63000003E-02  -4.86276157E-08
  -1.62499994E-02  -2.95645926E-08
  -1.62000004E-02  -6.76931000E-09
  -1.61499996E-02   1.83008471E-08
  -1.61000006E-02   4.37685159E-08
  -1.60499997E-02   6.81878518E-08
  -1.60000008E-02   9.12352576E-08
  -1.59499999E-02   1.13915114E-07
  -1.59000009E-02   1.38162207E-07
  -1.58500001E-02   1.65996823E-07
  -1.57999992E-02   1.98601626E-07
  -1.57500003E-02   2.35738327E-07
  -1.56999994E-02   2.75786789E-07
  -1.56500004E-02   3.16418692E-07
  -1.55999996E-02   3.55623769E-07
  -1.55499997E-02   3.92632899E-07
  -1.54999997E-02   4.28312433E-07
  -1.54499998E-02   4.64826684E-07
  -1.53999999E-02   5.04692423E-07
  -1.53500000E-02   5.49629078E-07
  -1.53000001E-02   5.99723876E-07
  -1.52500002E-02   6.53304824E-07
  -1.52000003E-02   7.07610297E-07
  -1.51500003E-02   7.59982072E-07
  -1.51000004E-02   8.09058633E-07
  -1.50499996E-02   8.55426322E-07
  -1.49999997E-02   9.01410885E-07
  -1.49499997E-02   9.50067147E-07
  -1.48999998E-02   1.00379657E-06
  -1.48499999E-02   1.06320670E-06
  -1.48000000E-02   1.12673854E-06
  -1.47500001E-02   1.19126412E-06
  -1.47000002E-02   1.25342126E-06
  -1.46500003E-02   1.31110335E-06
  -1.46000003E-02   1.36444169E-06
  -1.45500004E-02   1.41580972E-06
  -1.44999996E-02   1.46881030E-06
  -1.44499997E-02   1.52667042E-06
  -1.43999998E-02   1.59074477E-06
  -1.43499998E-02   1.65981385E-06
  -1.42999999E-02   1.73052206E-06
  -1.42500000E-02   1.79880237E-06
  -1.42000001E-02   1.86167551E-06
  -1.41500002E-02   1.91862227E-06
  -1.41000003E-02   1.97190070E-06
  -1.40500003E-02   2.02561591E-06
  -1.40000004E-02   2.08392339E-06
  -1.39499996E-02   2.14914940E-06
  -1.38999997E-02   2.22067251E-06
  -1.38499998E-02   2.29510147E-06
  -1.37999998E-02   2.36771189E-06
  -1.37499999E-02   2.43453451E-06
  -1.37000000E-02   2.49417803E-06
  -1.36500001E-02   2.54855695E-06
  -1.36000002E-02   2.60215415E-06
  -1.35500003E-02   2.66010466E-06
  -1.35000004E-02   2.72591228E-06
  -1.34500004E-02   2.79984351E-06
  -1.33999996E-02   2.87872172E-06
  -1.33499997E-02   2.95726591E-06
  -1.32999998E-02   3.03043839E-06
  -1.32499998E-02   3.09574898E-06
  -1.31999999E-02   3.15449347E-06
  -1.31500000E-02   3.21133621E-06
  -1.31000001E-02   3.27235853E-06
  -1.30500002E-02   3.34240963E-06
  -1.30000003E-02   3.42293561E-06
  -1.29500004E-02   3.51126687E-06
  -1.29000004E-02   3.60172999E-06
  -1.28499996E-02   3.68816700E-06
  -1.27999997E-02   3.76674620E-06
  -1.27499998E-02   3.83780889E-06
  -1.26999998E-02   3.90590276E-06
  -1.26499999E-02   3.97793065E-06
  -1.26000000E-02   4.06018671E-06
  -1.25500001E-02   4.15557497E-06
  -1.25000002E-02   4.26226779E-06
  -1.24500003E-02   4.37445397E-06
  -1.24000004E-02   4.48490937E-06
  -1.23500004E-02   4.58825798E-06
  -1.22999996E-02   4.68351118E-06
  -1.22499997E-02   4.77471758E-06
  -1.21999998E-02   4.86936779E-06
  -1.21499998E-02   4.97520205E-06
  -1.20999999E-02   5.09682332E-06
  -1.20500000E-02   5.23361814E-06
  -1.20000001E-02   5.37996084E-06
  -1.19500002E-02   5.52767096E-06
  -1.19000003E-02   5.66968765E-06
  -1.18500004E-02   5.80334881E-06
  -1.18000004E-02   5.93177856E-06
  -1.17499996E-02   6.06272351E-06
  -1.16999997E-02   6.20528044E-06
  -1.16499998E-02   6.36593404E-06
  -1.15999999E-02   6.54565065E-06
  -1.15499999E-02   6.73937211E-06
  -1.15000000E-02   6.93818947E-06
  -1.14500001E-02   7.13329428E-06
  -1.14000002E-02   7.31999035E-06
  -1.13500003E-02   7.49998480E-06
  -1.13000004E-02   7.68087284E-06
  -1.12500004E-02   7.87293448E-06
  -1.11999996E-02   8.08469031E-06
  -1.11499997E-02   8.31909801E-06
  -1.10999998E-02   8.57216037E-06
  -1.10499999E-02   8.83462872E-06
  -1.09999999E-02   9.09604114E-06
  -1.09500000E-02   9.34945911E-06
  -1.09000001E-02   9.59471708E-06
  -1.08500002E-02   9.83872906E-06
  -1.08000003E-02   1.00926254E-05
  -1.07500004E-02   1.03669190E-05
  -1.07000005E-02   1.06668458E-05
  -1.06499996E-02   1.09899811E-05
  -1.05999997E-02   1.13271562E-05
  -1.05499998E-02   1.16664569E-05
  -1.04999999E-02   1.19985616E-05
  -1.04499999E-02   1.23210211E-05
  -1.04000000E-02   1.26395671E-05
  -1.03500001E-02   1.29658238E-05
  -1.03000002E-02   1.33123149E-05
  -1.02500003E-02   1.36869348E-05
  -1.02000004E-02   1.40894035E-05
  -1.01500005E-02   1.45112745E-05
  -1.00999996E-02   1.49395928E-05
  -1.00499997E-02   1.53626243E-05
  -9.99999978E-03   1.57752311E-05
  -9.94999986E-03   1.61813932E-05
  -9.89999995E-03   1.65926540E-05
  -9.85000003E-03   1.70232470E-05
  -9.80000012E-03   1.74838569E-05
  -9.75000020E-03   1.79768449E-05
  -9.70000029E-03   1.84951259E-05
  -9.65000037E-03   1.90251703E-05
  -9.60000046E-03   1.95530192E-05
  -9.54999961E-03   2.00706127E-05
  -9.49999969E-03   2.05795714E-05
  -9.44999978E-03   2.10908056E-05
  -9.39999986E-03   2.16199332E-05
  -9.34999995E-03   2.21804803E-05
  -9.30000003E-03   2.27779656E-05
  -9.25000012E-03   2.34074178E-05
  -9.20000020E-03   2.40554818E-05
  -9.15000029E-03   2.47063435E-05
  -9.10000037E-03   2.53488888E-05
  -9.05000046E-03   2.59819517E-05
  -8.99999961E-03   2.66151146E-05
  -8.94999970E-03   2.72647558E-05
  -8.89999978E-03   2.79470987E-05
  -8.84999987E-03   2.86711347E-05
  -8.79999995E-03   2.94346173E-05
  -8.75000004E-03   3.02250119E-05
  -8.70000012E-03   3.10250980E-05
  -8.65000021E-03   3.18206985E-05
  -8.60000029E-03   3.26071568E-05
  -8.55000038E-03   3.33918324E-05
  -8.50000046E-03   3.41912601E-05
  -8.44999962E-03   3.50240916E-05
  -8.39999970E-03   3.59029764E-05
  -8.34999979E-03   3.68291403E-05
  -8.29999987E-03   3.77918332E-05
  -8.24999996E-03   3.87730033E-05
  -8.20000004E-03   3.97555850E-05
  -8.15000013E-03   4.07313237E-05
  -8.10000021E-03   4.17047486E-05
  -8.05000030E-03   4.26917504E-05
  -8.00000038E-03   4.37128983E-05
  -7.95000046E-03   4.47845414E-05
  -7.89999962E-03   4.59117946E-05
  -7.84999970E-03   4.70863088E-05
  -7.79999979E-03   4.82901160E-05
  -7.74999987E-03   4.95036547E-05
  -7.69999996E-03   5.07147015E-05
  -7.65000004E-03   5.19242130E-05
  -7.60000013E-03   5.31463556E-05
  -7.55000021E-03   5.44027025E-05
  -7.49999983E-03   5.57128769E-05
  -7.44999992E-03   5.70862285E-05
  -7.40000000E-03   5.85177622E-05
  -7.35000009E-03   5.99903069E-05
  -7.30000017E-03   6.14823002E-05
  -7.24999979E-03   6.29775532E-05
  -7.19999988E-03   6.44730244E-05
  -7.14999996E-03   6.59804718E-05
  -7.10000005E-03   6.75217816E-05
  -7.05000013E-03   6.91196474E-05
  -7.00000022E-03   7.07877844E-05
  -6.94999984E-03   7.25251884E-05
  -6.89999992E-03   7.43164346E-05
  -6.85000001E-03   7.61389529E-05
  -6.80000009E-03   7.79732509E-05
  -6.75000018E-03   7.98114124E-05
  -6.69999979E-03   8.16616084E-05
  -6.64999988E-03   8.35449537E-05
  -6.59999996E-03   8.54865066E-05
  -6.55000005E-03   8.75042970E-05
  -6.50000013E-03   8.96017445E-05
  -6.45000022E-03   9.17663492E-05
  -6.39999984E-03   9.39752645E-05
  -6.34999992E-03   9.62054255E-05
  -6.30000001E-03   9.84442959E-05
  -6.25000009E-03   1.00695761E-04
  -6.20000018E-03   1.02979036E-04
  -6.14999980E-03   1.05320658E-04
  -6.09999988E-03   1.07742795E-04
  -6.04999997E-03   1.10254106E-04
  -6.00000005E-03   1.12845955E-04
  -5.95000014E-03   1.15496106E-04
  -5.90000022E-03   1.18179014E-04
  -5.84999984E-03   1.20877296E-04
  -5.79999993E-03   1.23590115E-04
  -5.75000001E-03   1.26334271E-04
  -5.70000010E-03   1.29136650E-04
  -5.65000018E-03   1.32023226E-04
  -5.59999980E-03   1.35007896E-04
  -5.54999989E-03   1.38086296E-04
  -5.49999997E-03   1.41238226E-04
  -5.45000006E-03   1.44436519E-04
  -5.40000014E-03   1.47659506E-04
  -5.35000023E-03   1.50901120E-04
  -5.29999984E-03   1.54173977E-04
  -5.24999993E-03   1.57504153E-04
  -5.20000001E-03   1.60920405E-04
  -5.15000010E-03   1.64441895E-04
  -5.10000018E-03   1.68069731E-04
  -5.04999980E-03   1.71786989E-04
  -4.99999989E-03   1.75566107E-04
  -4.94999997E-03   1.79381372E-04
  -4.90000006E-03   1.83220764E-04
  -4.85000014E-03   1.87092242E-04
  -4.80000023E-03   1.91020968E-04
  -4.74999985E-03   1.95037923E-04
  -4.69999993E-03   1.99167232E-04
  -4.65000002E-03   2.03415577E-04
  -4.60000010E-03   2.07769684E-04
  -4.55000019E-03   2.12202795E-04
  -4.49999981E-03   2.16686720E-04
  -4.44999989E-03   2.21204784E-04
  -4.39999998E-03   2.25759679E-04
  -4.35000006E-03   2.30372461E-04
  -4.30000015E-03   2.35074316E-04
  -4.25000023E-03   2.39893518E-04
  -4.19999985E-03   2.44843046E-04
  -4.14999994E-03   2.49915232E-04
  -4.10000002E-03   2.55085586E-04
  -4.05000011E-03   2.60323955E-04
  -4.00000019E-03   2.65608076E-04
  -3.94999981E-03   2.70934368E-04
  -3.89999989E-03   2.76320090E-04
  -3.84999998E-03   2.81796179E-04
  -3.80000006E-03   2.87394359E-04
  -3.74999992E-03   2.93133140E-04
  -3.70000000E-03   2.99010600E-04
  -3.65000009E-03   3.05005495E-04
  -3.59999994E-03   3.11087701E-04
  -3.55000002E-03   3.17231548E-04
  -3.50000011E-03   3.23426793E-04
  -3.44999996E-03   3.29684961E-04
  -3.40000005E-03   3.36035242E-04
  -3.34999990E-03   3.42511776E-04
  -3.29999998E-03   3.49138514E-04
  -3.25000007E-03   3.55919590E-04
  -3.19999992E-03   3.62838036E-04
  -3.15000000E-03   3.69864021E-04
  -3.10000009E-03   3.76968179E-04
  -3.04999994E-03   3.84134415E-04
  -3.00000003E-03   3.91368958E-04
  -2.95000011E-03   3.98697390E-04
  -2.89999996E-03   4.06154315E-04
  -2.85000005E-03   4.13768954E-04
  -2.79999990E-03   4.21551929E-04
  -2.74999999E-03   4.29491338E-04
  -2.70000007E-03   4.37558803E-04
  -2.64999992E-03   4.45722835E-04
  -2.60000001E-03   4.53961606E-04
  -2.55000009E-03   4.62274329E-04
  -2.49999994E-03   4.70683124E-04
  -2.45000003E-03   4.79221897E-04
  -2.40000011E-03   4.87922982E-04
  -2.34999997E-03   4.96803026E-04
  -2.30000005E-03   5.05856879E-04
  -2.24999990E-03   5.15060732E-04
  -2.19999999E-03   5.24381001E-04
  -2.15000007E-03   5.33791084E-04
  -2.09999993E-03   5.43284637E-04
  -2.05000001E-03   5.52876445E-04
  -2.00000009E-03   5.62597532E-04
  -1.94999995E-03   5.72482124E-04
  -1.90000003E-03   5.82552748E-04
  -1.85000000E-03   5.92810276E-04
  -1.79999997E-03   6.03235036E-04
  -1.75000005E-03   6.13796583E-04
  -1.70000002E-03   6.24463661E-04
  -1.64999999E-03   6.35222823E-04
  -1.59999996E-03   6.46083034E-04
  -1.55000004E-03   6.57071068E-04
  -1.50000001E-03   6.68221095E-04
  -1.44999998E-03   6.79559424E-04
  -1.39999995E-03   6.91094261E-04
  -1.35000004E-03   7.02812453E-04
  -1.30000000E-03   7.14684546E-04
  -1.24999997E-03   7.26677536E-04
  -1.20000006E-03   7.38772796E-04
  -1.15000003E-03   7.50972948E-04
  -1.09999999E-03   7.63298711E-04
  -1.04999996E-03   7.75782682E-04
  -1.00000005E-03   7.88455945E-04
  -9.50000016E-04   8.01332819E-04
  -8.99999985E-04   8.14404688E-04
  -8.50000011E-04   8.27644835E-04
  -7.99999980E-04   8.41019442E-04
  -7.50000007E-04   8.54504120E-04
  -6.99999975E-04   8.68093979E-04
  -6.50000002E-04   8.81804910E-04
  -6.00000028E-04   8.95667705E-04
  -5.49999997E-04   9.09714727E-04
  -5.00000024E-04   9.23965825E-04
  -4.49999992E-04   9.38421057E-04
  -3.99999990E-04   9.53057082E-04
  -3.49999988E-04   9.67836939E-04
  -3.00000014E-04   9.82731814E-04
  -2.50000012E-04   9.97732277E-04
  -1.99999995E-04   1.01284892E-03
  -1.50000007E-04   1.02811051E-03
  -9.99999975E-05   1.04354869E-03
  -4.99999987E-05   1.05918548E-03
   0.00000000       1.07502658E-03
   4.99999987E-05   1.09105406E-03
   9.99999975E-05   1.10723730E-03
   1.50000007E-04   1.12354441E-03
   1.99999995E-04   1.13995583E-03
   2.50000012E-04   1.15647633E-03
   3.00000014E-04   1.17312674E-03
   3.49999988E-04   1.18993665E-03
   3.99999990E-04   1.20693108E-03
   4.49999992E-04   1.22412317E-03
   5.00000024E-04   1.24150433E-03
   5.49999997E-04   1.25904288E-03
   6.00000028E-04   1.27670844E-03
   6.50000002E-04   1.29447947E-03
   6.99999975E-04   1.31235085E-03
   7.50000007E-04   1.33033434E-03
   7.99999980E-04   1.34845404E-03
   8.50000011E-04   1.36674021E-03
   8.99999985E-04   1.38520927E-03
   9.50000016E-04   1.40385563E-03
   1.00000005E-03   1.42265810E-03
   1.04999996E-03   1.44158560E-03
   1.09999999E-03   1.46060926E-03
   1.15000003E-03   1.47971860E-03
   1.20000006E-03   1.49892096E-03
   1.24999997E-03   1.51823764E-03
   1.30000000E-03   1.53769902E-03
   1.35000004E-03   1.55732548E-03
   1.39999995E-03   1.57711457E-03
   1.44999998E-03   1.59704499E-03
   1.50000001E-03   1.61708531E-03
   1.55000004E-03   1.63720408E-03
   1.59999996E-03   1.65738934E-03
   1.64999999E-03   1.67764572E-03
   1.70000002E-03   1.69798883E-03
   1.75000005E-03   1.71844254E-03
   1.79999997E-03   1.73902337E-03
   1.85000000E-03   1.75973505E-03
   1.90000003E-03   1.78056594E-03
   1.94999995E-03   1.80148846E-03
   2.00000009E-03   1.82247616E-03
   2.05000001E-03   1.84351008E-03
   2.09999993E-03   1.86458440E-03
   2.15000007E-03   1.88570586E-03
   2.19999999E-03   1.90689263E-03
   2.24999990E-03   1.92816928E-03
   2.30000005E-03   1.94954057E-03
   2.34999997E-03   1.97099498E-03
   2.40000011E-03   1.99250947E-03
   2.45000003E-03   2.01405631E-03
   2.49999994E-03   2.03561597E-03
   2.55000009E-03   2.05718144E-03
   2.60000001E-03   2.07875739E-03
   2.64999992E-03   2.10035476E-03
   2.70000007E-03   2.12199078E-03
   2.74999999E-03   2.14367453E-03
   2.79999990E-03   2.16539670E-03