  -3.99999991E-02   0.00000000    
  -3.99499983E-02   0.00000000    
  -3.99000011E-02   0.00000000    
  -3.98500003E-02   0.00000000    
  -3.97999994E-02   0.00000000    
  -3.97499986E-02   1.28758498E-24
  -3.97000015E-02   1.13699193E-23
  -3.96500006E-02   5.21009275E-23
  -3.95999998E-02   1.62472643E-22
  -3.95499989E-02   3.79378179E-22
  -3.95000018E-02   6.82305209E-22
  -3.94500010E-02   9.09986319E-22
  -3.94000001E-02   6.94027556E-22
  -3.93499993E-02  -5.16089768E-22
  -3.92999984E-02  -3.27279684E-21
  -3.92500013E-02  -7.80209921E-21
  -3.92000005E-02  -1.36493121E-20
  -3.91499996E-02  -1.95185463E-20
  -3.90999988E-02  -2.35207919E-20
  -3.90500017E-02  -2.38855058E-20
  -3.90000008E-02  -1.99120452E-20
  -3.89500000E-02  -1.26806271E-20
  -3.88999991E-02  -4.99253017E-21
  -3.88499983E-02  -2.78677093E-22
  -3.88000011E-02  -7.43283980E-22
  -3.87500003E-02  -5.54849450E-21
  -3.86999995E-02  -1.00735646E-20
  -3.86499986E-02  -6.97572558E-21
  -3.86000015E-02   1.10305706E-20
  -3.85500006E-02   4.77502255E-20
  -3.84999998E-02   1.01177146E-19
  -3.84499989E-02   1.63864622E-19
  -3.84000018E-02   2.26533001E-19
  -3.83500010E-02   2.83783179E-19
  -3.83000001E-02   3.39306928E-19
  -3.82499993E-02   4.07589938E-19
  -3.81999984E-02   5.10282602E-19
  -3.81500013E-02   6.67866195E-19
  -3.81000005E-02   8.89883385E-19
  -3.80499996E-02   1.16842839E-18
  -3.79999988E-02   1.47882057E-18
  -3.79500017E-02   1.78843417E-18
  -3.79000008E-02   2.07069095E-18
  -3.78500000E-02   2.31808867E-18
  -3.77999991E-02   2.54760317E-18
  -3.77499983E-02   2.79453499E-18
  -3.77000012E-02   3.09606569E-18
  -3.76500003E-02   3.47114185E-18
  -3.75999995E-02   3.90609450E-18
  -3.75499986E-02   4.35379691E-18
  -3.75000015E-02   4.74839474E-18
  -3.74500006E-02   5.03020111E-18
  -3.73999998E-02   5.16978577E-18
  -3.73499990E-02   5.17963501E-18
  -3.73000018E-02   5.10669340E-18
  -3.72500010E-02   5.00763645E-18
  -3.72000001E-02   4.91701261E-18
  -3.71499993E-02   4.82238356E-18
  -3.70999984E-02   4.65818077E-18
  -3.70500013E-02   4.32195335E-18
  -3.70000005E-02   3.70663189E-18
  -3.69499996E-02   2.73518457E-18
  -3.68999988E-02   1.38316541E-18
  -3.68500017E-02  -3.19472817E-19
  -3.68000008E-02  -2.30638738E-18
  -3.67500000E-02  -4.50349220E-18
  -3.66999991E-02  -6.85598849E-18
  -3.66499983E-02  -9.34451214E-18
  -3.66000012E-02  -1.19875709E-17
  -3.65500003E-02  -1.48332708E-17
  -3.64999995E-02  -1.79453459E-17
  -3.64499986E-02  -2.13866472E-17
  -3.64000015E-02  -2.52001450E-17
  -3.63500006E-02  -2.93869776E-17
  -3.62999998E-02  -3.38849509E-17
  -3.62499990E-02  -3.85574923E-17
  -3.62000018E-02  -4.32067801E-17
  -3.61500010E-02  -4.76197026E-17
  -3.61000001E-02  -5.16398732E-17
  -3.60499993E-02  -5.52385390E-17
  -3.59999985E-02  -5.85440520E-17
  -3.59500013E-02  -6.17959636E-17
  -3.59000005E-02  -6.52200149E-17
  -3.58499996E-02  -6.88647580E-17
  -3.57999988E-02  -7.24775123E-17
  -3.57500017E-02  -7.55021677E-17
  -3.57000008E-02  -7.72401867E-17
  -3.56500000E-02  -7.71391846E-17
  -3.55999991E-02  -7.50917207E-17
  -3.55499983E-02  -7.15864734E-17
  -3.55000012E-02  -6.75878426E-17
  -3.54500003E-02  -6.41313791E-17
  -3.53999995E-02  -6.17713534E-17
  -3.53499986E-02  -6.01316961E-17
  -3.53000015E-02  -5.78224725E-17
  -3.52500007E-02  -5.28582176E-17
  -3.51999998E-02  -4.34864531E-17
  -3.51499990E-02  -2.91008426E-17
  -3.51000018E-02  -1.07955979E-17
  -3.50500010E-02   8.79709477E-18
  -3.50000001E-02   2.64573587E-17
  -3.49499993E-02   3.98020616E-17
  -3.48999985E-02   4.85670626E-17
  -3.48500013E-02   5.50810835E-17
  -3.48000005E-02   6.35434853E-17
  -3.47499996E-02   7.82465214E-17
  -3.46999988E-02   1.01438992E-16
  -3.46500017E-02   1.31833955E-16
  -3.46000008E-02   1.64618709E-16
  -3.45500000E-02   1.93221410E-16
  -3.44999991E-02   2.12252706E-16
  -3.44499983E-02   2.20352657E-16
  -3.44000012E-02   2.21507361E-16
  -3.43500003E-02   2.23924886E-16
  -3.42999995E-02   2.36628368E-16
  -3.42499986E-02   2.65087484E-16
  -3.42000015E-02   3.07900500E-16
  -3.41500007E-02   3.56337099E-16
  -3.40999998E-02   3.97416530E-16
  -3.40499990E-02   4.19547939E-16
  -3.40000018E-02   4.18341817E-16
  -3.39500010E-02   3.99756299E-16
  -3.39000002E-02   3.78633839E-16
  -3.38499993E-02   3.72671918E-16
  -3.37999985E-02   3.94127527E-16
  -3.37500013E-02   4.43003181E-16
  -3.37000005E-02   5.05267647E-16
  -3.36499996E-02   5.57693904E-16
  -3.35999988E-02   5.77870017E-16
  -3.35500017E-02   5.55202092E-16
  -3.35000008E-02   4.97667326E-16
  -3.34500000E-02   4.30440492E-16
  -3.33999991E-02   3.85964565E-16
  -3.33499983E-02   3.89153141E-16
  -3.33000012E-02   4.44270740E-16
  -3.32500003E-02   5.30073960E-16
  -3.31999995E-02   6.06626097E-16
  -3.31499986E-02   6.31969429E-16
  -3.31000015E-02   5.81827408E-16
  -3.30500007E-02   4.63197797E-16
  -3.29999998E-02   3.14535732E-16
  -3.29499990E-02   1.90825128E-16
  -3.29000019E-02   1.38939966E-16
  -3.28500010E-02   1.74026426E-16
  -3.28000002E-02   2.68405153E-16
  -3.27499993E-02   3.59788626E-16
  -3.26999985E-02   3.77073789E-16
  -3.26500013E-02   2.73295551E-16
  -3.26000005E-02   5.06953454E-17
  -3.25499997E-02  -2.35039017E-16
  -3.24999988E-02  -4.95722538E-16
  -3.24500017E-02  -6.49537263E-16
  -3.24000008E-02  -6.61121391E-16
  -3.23500000E-02  -5.63784018E-16
  -3.22999991E-02  -4.51254897E-16
  -3.22499983E-02  -4.39641599E-16
  -3.22000012E-02  -6.14618224E-16
  -3.21500003E-02  -9.87524055E-16
  -3.20999995E-02  -1.48226584E-15
  -3.20499986E-02  -1.96244405E-15
  -3.20000015E-02  -2.28986252E-15
  -3.19500007E-02  -2.38968154E-15
  -3.18999998E-02  -2.29179566E-15
  -3.18499990E-02  -2.12632544E-15
  -3.18000019E-02  -2.07079777E-15
  -3.17500010E-02  -2.26940392E-15
  -3.17000002E-02  -2.76003229E-15
  -3.16499993E-02  -3.44456790E-15
  -3.15999985E-02  -4.12079581E-15
  -3.15500014E-02  -4.56670741E-15
  -3.15000005E-02  -4.64223522E-15
  -3.14499997E-02  -4.36183597E-15
  -3.13999988E-02  -3.90082304E-15
  -3.13500017E-02  -3.52630107E-15
  -3.13000008E-02  -3.47845748E-15
  -3.12500000E-02  -3.85381695E-15
  -3.11999992E-02  -4.54581746E-15
  -3.11500002E-02  -5.27589548E-15
  -3.10999993E-02  -5.70841846E-15
  -3.10500003E-02  -5.60257661E-15
  -3.09999995E-02  -4.93277472E-15
  -3.09500005E-02  -3.91798690E-15
  -3.08999997E-02  -2.93841489E-15
  -3.08500007E-02  -2.36910457E-15
  -3.07999998E-02  -2.40192053E-15
  -3.07500008E-02  -2.93878949E-15
  -3.07000000E-02  -3.61251632E-15
  -3.06499992E-02  -3.93605453E-15
  -3.06000002E-02  -3.52068863E-15
  -3.05499993E-02  -2.26623242E-15
  -3.05000003E-02  -4.31582504E-16
  -3.04499995E-02   1.45722362E-15
  -3.04000005E-02   2.83136454E-15
  -3.03499997E-02   3.34132898E-15
  -3.03000007E-02   3.03680412E-15
  -3.02499998E-02   2.37354831E-15
  -3.02000009E-02   2.03048155E-15
  -3.01500000E-02   2.60793461E-15
  -3.00999992E-02   4.33918292E-15
  -3.00500002E-02   6.95132327E-15
  -2.99999993E-02   9.75198265E-15
  -2.99500003E-02   1.19184176E-14
  -2.98999995E-02   1.28690791E-14
  -2.98500005E-02   1.25501670E-14
  -2.97999997E-02   1.14969756E-14
  -2.97500007E-02   1.06247400E-14
  -2.96999998E-02   1.08266989E-14
  -2.96500009E-02   1.25527928E-14
  -2.96000000E-02   1.55640034E-14
  -2.95499992E-02   1.89894809E-14
  -2.95000002E-02   2.16814871E-14
  -2.94499993E-02   2.27241423E-14
  -2.94000003E-02   2.18701163E-14
  -2.93499995E-02   1.96972091E-14
  -2.93000005E-02   1.73927289E-14
  -2.92499997E-02   1.62402694E-14
  -2.92000007E-02   1.70271037E-14
  -2.91499998E-02   1.96420317E-14
  -2.91000009E-02   2.30633011E-14
  -2.90500000E-02   2.57683431E-14
  -2.89999992E-02   2.64032977E-14
  -2.89500002E-02   2.44190112E-14
  -2.88999993E-02   2.03762669E-14
  -2.88500004E-02   1.57571218E-14
  -2.87999995E-02   1.23374669E-14
  -2.87500005E-02   1.13829996E-14
  -2.86999997E-02   1.30294021E-14
  -2.86500007E-02   1.61453967E-14
  -2.85999998E-02   1.87727438E-14
  -2.85500009E-02   1.89762333E-14
  -2.85000000E-02   1.57366152E-14
  -2.84499992E-02   9.47661308E-15
  -2.84000002E-02   1.95441968E-15
  -2.83499993E-02  -4.46504567E-15
  -2.83000004E-02  -7.86276799E-15
  -2.82499995E-02  -7.67605228E-15
  -2.82000005E-02  -5.03804355E-15
  -2.81499997E-02  -2.35527760E-15
  -2.81000007E-02  -2.27224847E-15
  -2.80499998E-02  -6.46353308E-15
  -2.80000009E-02  -1.47996578E-14
  -2.79500000E-02  -2.52928934E-14
  -2.78999992E-02  -3.48938001E-14
  -2.78500002E-02  -4.08217636E-14
  -2.77999993E-02  -4.18486894E-14
  -2.77500004E-02  -3.89430885E-14
  -2.76999995E-02  -3.49419590E-14
  -2.76500005E-02  -3.33458982E-14
  -2.75999997E-02  -3.67410976E-14
  -2.75500007E-02  -4.55515820E-14
  -2.74999999E-02  -5.77127728E-14
  -2.74500009E-02  -6.94672184E-14
  -2.74000000E-02  -7.69796011E-14
  -2.73499992E-02  -7.80754652E-14
  -2.73000002E-02  -7.33134663E-14
  -2.72499993E-02  -6.58635811E-14
  -2.72000004E-02  -6.01824024E-14
  -2.71499995E-02  -6.00276325E-14
  -2.71000005E-02  -6.66854877E-14
  -2.70499997E-02  -7.82338604E-14
  -2.70000007E-02  -9.02337287E-14
  -2.69499999E-02  -9.76081873E-14
  -2.69000009E-02  -9.69126038E-14
  -2.68500000E-02  -8.79788592E-14
  -2.67999992E-02  -7.41498605E-14
  -2.67500002E-02  -6.09244575E-14
  -2.66999993E-02  -5.35497753E-14
  -2.66500004E-02  -5.46063947E-14
  -2.65999995E-02  -6.26884273E-14
  -2.65500005E-02  -7.28363360E-14
  -2.64999997E-02  -7.86136767E-14
  -2.64500007E-02  -7.49633374E-14
  -2.63999999E-02  -6.05799116E-14
  -2.63500009E-02  -3.86925836E-14
  -2.63000000E-02  -1.58229092E-14
  -2.62499992E-02   1.01689185E-15
  -2.62000002E-02   7.48556643E-15
  -2.61499994E-02   4.01232604E-15
  -2.61000004E-02  -4.17364431E-15
  -2.60499995E-02  -9.19806206E-15
  -2.60000005E-02  -4.00644128E-15
  -2.59499997E-02   1.43735240E-14
  -2.59000007E-02   4.32651012E-14
  -2.58499999E-02   7.52643323E-14
  -2.58000009E-02   1.01350040E-13
  -2.57500000E-02   1.14872725E-13
  -2.56999992E-02   1.14652062E-13
  -2.56500002E-02   1.05734696E-13
  -2.55999994E-02   9.73594171E-14
  -2.55500004E-02   9.89235888E-14
  -2.54999995E-02   1.15689088E-13
  -2.54500005E-02   1.46164642E-13
  -2.53999997E-02   1.82429375E-13
  -2.53500007E-02   2.13386031E-13
  -2.52999999E-02   2.29602876E-13
  -2.52500009E-02   2.27621443E-13
  -2.52000000E-02   2.11753764E-13
  -2.51499992E-02   1.92441346E-13
  -2.51000002E-02   1.81764638E-13
  -2.50499994E-02   1.88009764E-13
  -2.50000004E-02   2.11711155E-13
  -2.49499995E-02   2.45027983E-13
  -2.49000005E-02   2.74884987E-13
  -2.48499997E-02   2.88622370E-13
  -2.48000007E-02   2.79709253E-13
  -2.47499999E-02   2.50937698E-13
  -2.47000009E-02   2.13543159E-13
  -2.46500000E-02   1.82471659E-13
  -2.45999992E-02   1.69766978E-13
  -2.45500002E-02   1.78987386E-13
  -2.44999994E-02   2.03221053E-13
  -2.44500004E-02   2.27752767E-13
  -2.43999995E-02   2.36376701E-13
  -2.43500005E-02   2.18658357E-13
  -2.42999997E-02   1.74905527E-13
  -2.42500007E-02   1.16504151E-13
  -2.41999999E-02   6.12710363E-14
  -2.41500009E-02   2.57106822E-14
  -2.41000000E-02   1.75420049E-14
  -2.40499992E-02   3.18798366E-14
  -2.40000002E-02   5.29477415E-14
  -2.39499994E-02   6.07796420E-14
  -2.39000004E-02   4.00933152E-14
  -2.38499995E-02  -1.25782766E-14
  -2.38000005E-02  -8.67872194E-14
  -2.37499997E-02  -1.62256981E-13
  -2.37000007E-02  -2.17565305E-13
  -2.36499999E-02  -2.39695660E-13
  -2.36000009E-02  -2.30185039E-13
  -2.35500000E-02  -2.04956996E-13
  -2.34999992E-02  -1.87659485E-13
  -2.34500002E-02  -1.99248075E-13
  -2.33999994E-02  -2.48359438E-13
  -2.33500004E-02  -3.26846243E-13
  -2.32999995E-02  -4.12693886E-13
  -2.32500006E-02  -4.79299543E-13
  -2.31999997E-02  -5.07187554E-13
  -2.31500007E-02  -4.92979409E-13
  -2.30999999E-02  -4.51469997E-13
  -2.30500009E-02  -4.09602528E-13
  -2.30000000E-02  -3.94739769E-13
  -2.29499992E-02  -4.22289970E-13
  -2.29000002E-02  -4.88237326E-13
  -2.28499994E-02  -5.70131344E-13
  -2.28000004E-02  -6.36419899E-13
  -2.27499995E-02  -6.60245784E-13
  -2.27000006E-02  -6.31667570E-13
  -2.26499997E-02  -5.62741694E-13
  -2.26000007E-02  -4.82903160E-13
  -2.25499999E-02  -4.26353045E-13
  -2.25000009E-02  -4.16824642E-13
  -2.24500000E-02  -4.56485869E-13
  -2.23999992E-02  -5.24130002E-13
  -2.23500002E-02  -5.83820373E-13
  -2.22999994E-02  -6.00494914E-13
  -2.22500004E-02  -5.55769894E-13
  -2.21999995E-02  -4.56841542E-13
  -2.21500006E-02  -3.34223046E-13
  -2.20999997E-02  -2.28919910E-13
  -2.20500007E-02  -1.74422420E-13
  -2.19999999E-02  -1.81423168E-13
  -2.19500009E-02  -2.32234072E-13
  -2.19000001E-02  -2.87769239E-13
  -2.18499992E-02  -3.04411742E-13
  -2.18000002E-02  -2.53538672E-13
  -2.17499994E-02  -1.35018990E-13
  -2.17000004E-02   2.16030485E-14
  -2.16499995E-02   1.69217206E-13
  -2.16000006E-02   2.63582044E-13
  -2.15499997E-02   2.83197023E-13
  -2.15000007E-02   2.39659014E-13
  -2.14499999E-02   1.73509509E-13
  -2.14000009E-02   1.36927362E-13
  -2.13500001E-02   1.70582407E-13
  -2.12999992E-02   2.84849130E-13
  -2.12500002E-02   4.53976022E-13
  -2.11999994E-02   6.26283530E-13
  -2.11500004E-02   7.46362824E-13
  -2.10999995E-02   7.79715864E-13
  -2.10500006E-02   7.28849327E-13
  -2.09999997E-02   6.33297071E-13
  -2.09500007E-02   5.53014503E-13
  -2.08999999E-02   5.42038853E-13
  -2.08500009E-02   6.23922572E-13
  -2.08000001E-02   7.80035758E-13
  -2.07499992E-02   9.56428946E-13
  -2.07000002E-02   1.08679667E-12
  -2.06499994E-02   1.12176533E-12
  -2.06000004E-02   1.05156476E-12
  -2.05499995E-02   9.11679803E-13
  -2.05000006E-02   7.68385897E-13
  -2.04499997E-02   6.90001875E-13
  -2.04000007E-02   7.16302777E-13
  -2.03499999E-02   8.39764998E-13
  -2.03000009E-02   1.00744846E-12
  -2.02500001E-02   1.14333553E-12
  -2.01999992E-02   1.18175500E-12
  -2.01500002E-02   1.09724090E-12
  -2.00999994E-02   9.17309848E-13
  -2.00500004E-02   7.11879937E-13
  -1.99999996E-02   5.63341366E-13
  -1.99500006E-02   5.30103901E-13
  -1.98999997E-02   6.19773547E-13
  -1.98500007E-02   7.84295209E-13
  -1.97999999E-02   9.39920017E-13
  -1.97500009E-02   1.00380468E-12
  -1.97000001E-02   9.31332268E-13
  -1.96499992E-02   7.37433498E-13
  -1.96000002E-02   4.91855851E-13
  -1.95499994E-02   2.89713728E-13
  -1.95000004E-02   2.09780544E-13
  -1.94499996E-02   2.78858750E-13
  -1.94000006E-02   4.58383765E-13
  -1.93499997E-02   6.59927570E-13
  -1.93000007E-02   7.83498592E-13
  -1.92499999E-02   7.62134605E-13
  -1.92000009E-02   5.92976840E-13
  -1.91500001E-02   3.40500089E-13
  -1.90999992E-02   1.09641103E-13
  -1.90500002E-02   4.55530142E-18
  -1.89999994E-02   6.11251907E-14
  -1.89500004E-02   2.68868613E-13
  -1.88999996E-02   5.34146891E-13
  -1.88500006E-02   7.40955799E-13
  -1.87999997E-02   7.97516675E-13
  -1.87500007E-02   6.77973302E-13
  -1.86999999E-02   4.35703719E-13
  -1.86500009E-02   1.81493695E-13
  -1.86000001E-02   3.53814607E-14
  -1.85499992E-02   7.30182516E-14
  -1.85000002E-02   2.90418026E-13
  -1.84499994E-02   6.03377754E-13
  -1.84000004E-02   8.82765052E-13
  -1.83499996E-02   1.01083508E-12
  -1.83000006E-02   9.33920367E-13
  -1.82499997E-02   6.87817804E-13
  -1.82000007E-02   3.83779407E-13
  -1.81499999E-02   1.60348202E-13
  -1.81000009E-02   1.21700718E-13
  -1.80500001E-02   2.89744113E-13
  -1.79999992E-02   5.91756733E-13
  -1.79500002E-02   8.90026605E-13
  -1.78999994E-02   1.04129997E-12
  -1.78500004E-02   9.60214222E-13
  -1.77999996E-02   6.58437172E-13
  -1.77500006E-02   2.41407941E-13
  -1.76999997E-02  -1.36927701E-13
  -1.76500008E-02  -3.42185183E-13
  -1.75999999E-02  -3.20529573E-13
  -1.75500009E-02  -1.25151896E-13
  -1.75000001E-02   1.04468422E-13
  -1.74499992E-02   2.02379576E-13
  -1.74000002E-02   4.92786421E-14
  -1.73499994E-02  -3.73434411E-13
  -1.73000004E-02  -9.73271377E-13
  -1.72499996E-02  -1.58562768E-12
  -1.72000006E-02  -2.04584635E-12
  -1.71499997E-02  -2.26296260E-12
  -1.71000008E-02  -2.26219911E-12
  -1.70499999E-02  -2.17650724E-12
  -1.70000009E-02  -2.18973884E-12
  -1.69500001E-02  -2.45571554E-12
  -1.68999992E-02  -3.02876994E-12
  -1.68500002E-02  -3.83704483E-12
  -1.67999994E-02  -4.71143393E-12
  -1.67500004E-02  -5.45849607E-12
  -1.66999996E-02  -5.94575647E-12
  -1.66500006E-02  -6.16159250E-12
  -1.65999997E-02  -6.22242795E-12
  -1.65500008E-02  -6.32282247E-12
  -1.64999999E-02  -6.64951774E-12
  -1.64500009E-02  -7.29697726E-12
  -1.64000001E-02  -8.22218335E-12
  -1.63499992E-02  -9.25964947E-12
  -1.63000003E-02  -1.01912957E-11
  -1.62499994E-02  -1.08411205E-11
  -1.62000004E-02  -1.11530316E-11
  -1.61499996E-02  -1.12167073E-11
  -1.61000006E-02  -1.12288989E-11
  -1.60499997E-02  -1.14060922E-11
  -1.60000008E-02  -1.18864285E-11
  -1.59499999E-02  -1.26644381E-11
  -1.59000009E-02  -1.35882963E-11
  -1.58500001E-02  -1.44221770E-11
  -1.57999992E-02  -1.49471234E-11
  -1.57500003E-02  -1.50563520E-11
  -1.56999994E-02  -1.48023382E-11
  -1.56500004E-02  -1.43737930E-11
  -1.55999996E-02  -1.40113849E-11
  -1.55499997E-02  -1.38986010E-11
  -1.54999997E-02  -1.40758551E-11
  -1.54499998E-02  -1.44165825E-11
  -1.53999999E-02  -1.46771553E-11
  -1.53500000E-02  -1.45998248E-11
  -1.53000001E-02  -1.40238515E-11
  -1.52500002E-02  -1.29555030E-11
  -1.52000003E-02  -1.15649174E-11
  -1.51500003E-02  -1.01100005E-11
  -1.51000004E-02  -8.81981901E-12
  -1.50499996E-02  -7.78857447E-12
  -1.49999997E-02  -6.92768542E-12
  -1.49499997E-02  -5.99837107E-12
  -1.48999998E-02  -4.71156230E-12
  -1.48499999E-02  -2.85204933E-12
  -1.48000000E-02  -3.71940488E-13
  -1.47500001E-02   2.58852596E-12
  -1.47000002E-02   5.76356627E-12
  -1.46500003E-02   8.88125684E-12
  -1.46000003E-02   1.17877912E-11
  -1.45500004E-02   1.45211655E-11
  -1.44999996E-02   1.73009367E-11
  -1.44499997E-02   2.04368952E-11
  -1.43999998E-02   2.41960705E-11
  -1.43499998E-02   2.86863155E-11
  -1.42999999E-02   3.38086885E-11
  -1.42500000E-02   3.93008612E-11
  -1.42000001E-02   4.48537561E-11
  -1.41500002E-02   5.02507584E-11
  -1.41000003E-02   5.54681197E-11
  -1.40500003E-02   6.06910425E-11
  -1.40000004E-02   6.62373698E-11
  -1.39499996E-02   7.24206667E-11
  -1.38999997E-02   7.94133023E-11
  -1.38499998E-02   8.71697783E-11
  -1.37999998E-02   9.54456167E-11
  -1.37499999E-02   1.03904919E-10
  -1.37000000E-02   1.12269923E-10
  -1.36500001E-02   1.20447138E-10
  -1.36000002E-02   1.28573444E-10
  -1.35500003E-02   1.36960540E-10
  -1.35000004E-02   1.45960841E-10
  -1.34500004E-02   1.55813348E-10
  -1.33999996E-02   1.66537395E-10
  -1.33499997E-02   1.77922371E-10
  -1.32999998E-02   1.89619334E-10
  -1.32499998E-02   2.01295494E-10
  -1.31999999E-02   2.12783346E-10
  -1.31500000E-02   2.24159066E-10
  -1.31000001E-02   2.35713588E-10
  -1.30500002E-02   2.47828286E-10
  -1.30000003E-02   2.60808541E-10
  -1.29500004E-02   2.74749057E-10
  -1.29000004E-02   2.89490709E-10
  -1.28499996E-02   3.04689496E-10
  -1.27999997E-02   3.19968829E-10
  -1.27499998E-02   3.35087930E-10
  -1.26999998E-02   3.50052959E-10
  -1.26499999E-02   3.65119601E-10
  -1.26000000E-02   3.80686177E-10
  -1.25500001E-02   3.97121114E-10
  -1.25000002E-02   4.14602602E-10
  -1.24500003E-02   4.33039937E-10
  -1.24000004E-02   4.52114124E-10
  -1.23500004E-02   4.71419515E-10
  -1.22999996E-02   4.90646301E-10
  -1.22499997E-02   5.09723541E-10
  -1.21999998E-02   5.28857125E-10
  -1.21499998E-02   5.48447232E-10
  -1.20999999E-02   5.68918301E-10
  -1.20500000E-02   5.90536342E-10
  -1.20000001E-02   6.13295248E-10
  -1.19500002E-02   6.36922570E-10
  -1.19000003E-02   6.61003197E-10
  -1.18500004E-02   6.85168922E-10
  -1.18000004E-02   7.09268810E-10
  -1.17499996E-02   7.33446359E-10
  -1.16999997E-02   7.58086927E-10
  -1.16499998E-02   7.83658249E-10
  -1.15999999E-02   8.10512879E-10
  -1.15499999E-02   8.38739911E-10
  -1.15000000E-02   8.68131789E-10
  -1.14500001E-02   8.98283226E-10
  -1.14000002E-02   9.28778388E-10
  -1.13500003E-02   9.59385571E-10
  -1.13000004E-02   9.90173055E-10
  -1.12500004E-02   1.02149311E-09
  -1.11999996E-02   1.05384157E-09
  -1.11499997E-02   1.08765252E-09
  -1.10999998E-02   1.12311827E-09
  -1.10499999E-02   1.16011623E-09
  -1.09999999E-02   1.19827326E-09
  -1.09500000E-02   1.23714328E-09
  -1.09000001E-02   1.27641775E-09
  -1.08500002E-02   1.31607936E-09
  -1.08000003E-02   1.35642642E-09
  -1.07500004E-02   1.39796030E-09
  -1.07000005E-02   1.44118084E-09
  -1.06499996E-02   1.48638235E-09
  -1.05999997E-02   1.53353741E-09
  -1.05499998E-02   1.58232372E-09
  -1.04999999E-02   1.63228076E-09
  -1.04499999E-02   1.68303049E-09
  -1.04000000E-02   1.73446268E-09
  -1.03500001E-02   1.78680426E-09
  -1.03000002E-02   1.84054116E-09
  -1.02500003E-02   1.89622429E-09
  -1.02000004E-02   1.95424787E-09
  -1.01500005E-02   2.01469130E-09
  -1.00999996E-02   2.07730566E-09
  -1.00499997E-02   2.14163931E-09
  -9.99999978E-03   2.20725882E-09
  -9.94999986E-03   2.27396013E-09
  -9.89999995E-03   2.34188380E-09
  -9.85000003E-03   2.41147502E-09
  -9.80000012E-03   2.48331378E-09
  -9.75000020E-03   2.55788013E-09
  -9.70000029E-03   2.63536526E-09
  -9.65000037E-03   2.71560729E-09
  -9.60000046E-03   2.79818368E-09
  -9.54999961E-03   2.88261925E-09
  -9.49999969E-03   2.96861802E-09
  -9.44999978E-03   3.05621883E-09
  -9.39999986E-03   3.14580428E-09
  -9.34999995E-03   3.23795946E-09
  -9.30000003E-03   3.33323857E-09
  -9.25000012E-03   3.43194739E-09
  -9.20000020E-03   3.53403262E-09
  -9.15000029E-03   3.63913011E-09
  -9.10000037E-03   3.74675135E-09
  -9.05000046E-03   3.85652665E-09
  -8.99999961E-03   3.96839628E-09
  -8.94999970E-03   4.08266798E-09
  -8.89999978E-03   4.19991419E-09
  -8.84999987E-03   4.32074909E-09
  -8.79999995E-03   4.44559145E-09
  -8.75000004E-03   4.57450922E-09
  -8.70000012E-03   4.70722039E-09
  -8.65000021E-03   4.84324625E-09
  -8.60000029E-03   4.98215691E-09
  -8.55000038E-03   5.12379073E-09
  -8.50000046E-03   5.26836530E-09
  -8.44999962E-03   5.41641265E-09
  -8.39999970E-03   5.56858248E-09
  -8.34999979E-03   5.72539616E-09
  -8.29999987E-03   5.88705262E-09
  -8.24999996E-03   6.05337513E-09
  -8.20000004E-03   6.22392893E-09
  -8.15000013E-03   6.39825304E-09
  -8.10000021E-03   6.57610144E-09
  -8.05000030E-03   6.75759804E-09
  -8.00000038E-03   6.94322555E-09
  -7.95000046E-03   7.13366166E-09
  -7.89999962E-03   7.32952499E-09
  -7.84999970E-03   7.53115614E-09
  -7.79999979E-03   7.73851205E-09
  -7.74999987E-03   7.95123878E-09
  -7.69999996E-03   8.16887358E-09
  -7.65000004E-03   8.39110648E-09
  -7.60000013E-03   8.61796678E-09
  -7.55000021E-03   8.84986751E-09
  -7.49999983E-03   9.08748632E-09
  -7.44999992E-03   9.33151778E-09
  -7.40000000E-03   9.58243618E-09
  -7.35000009E-03   9.84034276E-09
  -7.30000017E-03   1.01049826E-08
  -7.24999979E-03   1.03759241E-08
  -7.19999988E-03   1.06528084E-08
  -7.14999996E-03   1.09355769E-08
  -7.10000005E-03   1.12245671E-08
  -7.05000013E-03   1.15204326E-08
  -7.00000022E-03   1.18239329E-08
  -6.94999984E-03   1.21356685E-08
  -6.89999992E-03   1.24559012E-08
  -6.85000001E-03   1.27845103E-08
  -6.80000009E-03   1.31211282E-08
  -6.75000018E-03   1.34653861E-08
  -6.69999979E-03   1.38171528E-08
  -6.64999988E-03   1.41766838E-08
  -6.59999996E-03   1.45445949E-08
  -6.55000005E-03   1.49216834E-08
  -6.50000013E-03   1.53086681E-08
  -6.45000022E-03   1.57059716E-08
  -6.39999984E-03   1.61136189E-08
  -6.34999992E-03   1.65313363E-08
  -6.30000001E-03   1.69587633E-08
  -6.25000009E-03   1.73957062E-08
  -6.20000018E-03   1.78423356E-08
  -6.14999980E-03   1.82992075E-08
  -6.09999988E-03   1.87671247E-08
  -6.04999997E-03   1.92469010E-08
  -6.00000005E-03   1.97391046E-08
  -5.95000014E-03   2.02439256E-08
  -5.90000022E-03   2.07612079E-08
  -5.84999984E-03   2.12906262E-08
  -5.79999993E-03   2.18319567E-08
  -5.75000001E-03   2.23852847E-08
  -5.70000010E-03   2.29511006E-08
  -5.65000018E-03   2.35301911E-08
  -5.59999980E-03   2.41234499E-08
  -5.54999989E-03   2.47315839E-08
  -5.49999997E-03   2.53549537E-08
  -5.45000006E-03   2.59935469E-08
  -5.40000014E-03   2.66471094E-08
  -5.35000023E-03   2.73154122E-08
  -5.29999984E-03   2.79984693E-08
  -5.24999993E-03   2.86966912E-08
  -5.20000001E-03   2.94108329E-08
  -5.15000010E-03   3.01418233E-08
  -5.10000018E-03   3.08904937E-08
  -5.04999980E-03   3.16573612E-08
  -4.99999989E-03   3.24425642E-08
  -4.94999997E-03   3.32459571E-08
  -4.90000006E-03   3.40673161E-08
  -4.85000014E-03   3.49066092E-08
  -4.80000023E-03   3.57641596E-08
  -4.74999985E-03   3.66406709E-08
  -4.69999993E-03   3.75370952E-08
  -4.65000002E-03   3.84543561E-08
  -4.60000010E-03   3.93931430E-08
  -4.55000019E-03   4.03537719E-08
  -4.49999981E-03   4.13362287E-08
  -4.44999989E-03   4.23403463E-08
  -4.39999998E-03   4.33660645E-08
  -4.35000006E-03   4.44136425E-08
  -4.30000015E-03   4.54837235E-08
  -4.25000023E-03   4.65772594E-08
  -4.19999985E-03   4.76952629E-08
  -4.14999994E-03   4.88385794E-08
  -4.10000002E-03   5.00076958E-08
  -4.05000011E-03   5.12027576E-08
  -4.00000019E-03   5.24236654E-08
  -3.94999981E-03   5.36703695E-08
  -3.89999989E-03   5.49430723E-08
  -3.84999998E-03   5.62423459E-08
  -3.80000006E-03   5.75691068E-08
  -3.74999992E-03   5.89244351E-08
  -3.70000000E-03   6.03093184E-08
  -3.65000009E-03   6.17244424E-08
  -3.59999994E-03   6.31700914E-08
  -3.55000002E-03   6.46463079E-08
  -3.50000011E-03   6.61530777E-08
  -3.44999996E-03   6.76905429E-08
  -3.40000005E-03   6.92592366E-08
  -3.34999990E-03   7.08600609E-08
  -3.29999998E-03   7.24941458E-08
  -3.25000007E-03   7.41625854E-08
  -3.19999992E-03   7.58662608E-08
  -3.15000000E-03   7.76056694E-08
  -3.10000009E-03   7.93809818E-08
  -3.04999994E-03   8.11922405E-08
  -3.00000003E-03   8.30395948E-08
  -2.95000011E-03   8.49235207E-08
  -2.89999996E-03   8.68448780E-08
  -2.85000005E-03   8.88048035E-08
  -2.79999990E-03   9.08045266E-08
  -2.74999999E-03   9.28450632E-08
  -2.70000007E-03   9.49271239E-08
  -2.64999992E-03   9.70510499E-08
  -2.60000001E-03   9.92169618E-08
  -2.55000009E-03   1.01425030E-07
  -2.49999994E-03   1.03675688E-07
  -2.45000003E-03   1.05969740E-07
  -2.40000011E-03   1.08308349E-07
  -2.34999997E-03   1.10692795E-07
  -2.30000005E-03   1.13124287E-07
  -2.24999990E-03   1.15603719E-07
  -2.19999999E-03   1.18131624E-07
  -2.15000007E-03   1.20708251E-07
  -2.09999993E-03   1.23333805E-07
  -2.05000001E-03   1.26008729E-07
  -2.00000009E-03   1.28733731E-07
  -1.94999995E-03   1.31509964E-07
  -1.90000003E-03   1.34338805E-07
  -1.85000000E-03   1.37221591E-07
  -1.79999997E-03   1.40159386E-07
  -1.75000005E-03   1.43152931E-07
  -1.70000002E-03   1.46202623E-07
  -1.64999999E-03   1.49308718E-07
  -1.59999996E-03   1.52471628E-07
  -1.55000004E-03   1.55692035E-07
  -1.50000001E-03   1.58971076E-07
  -1.44999998E-03   1.62310101E-07
  -1.39999995E-03   1.65710560E-07
  -1.35000004E-03   1.69173717E-07
  -1.30000000E-03   1.72700510E-07
  -1.24999997E-03   1.76291451E-07
  -1.20000006E-03   1.79946909E-07
  -1.15000003E-03   1.83667268E-07
  -1.09999999E-03   1.87453182E-07
  -1.04999996E-03   1.91305730E-07
  -1.00000005E-03   1.95226278E-07
  -9.50000016E-04   1.99216345E-07
  -8.99999985E-04   2.03277381E-07
  -8.50000011E-04   2.07410494E-07
  -7.99999980E-04   2.11616410E-07
  -7.50000007E-04   2.15895568E-07
  -6.99999975E-04   2.20248367E-07
  -6.50000002E-04   2.24675418E-07
  -6.00000028E-04   2.29177672E-07
  -5.49999997E-04   2.33756509E-07
  -5.00000024E-04   2.38413492E-07
  -4.49999992E-04   2.43150225E-07
  -3.99999990E-04   2.47967961E-07
  -3.49999988E-04   2.52867636E-07
  -3.00000014E-04   2.57849820E-07
  -2.50000012E-04   2.62914824E-07
  -1.99999995E-04   2.68063275E-07
  -1.50000007E-04   2.73296024E-07
  -9.99999975E-05   2.78614323E-07
  -4.99999987E-05   2.84019762E-07
   0.00000000       2.89514077E-07
   4.99999987E-05   2.95098658E-07
   9.99999975E-05   3.00774701E-07
   1.50000007E-04   3.06542859E-07
   1.99999995E-04   3.12403586E-07
   2.50000012E-04   3.18357365E-07
   3.00000014E-04   3.24404908E-07
   3.49999988E-04   3.30547351E-07
   3.99999990E-04   3.36786343E-07
   4.49999992E-04   3.43123560E-07
   5.00000024E-04   3.49560707E-07
   5.49999997E-04   3.56099065E-07
   6.00000028E-04   3.62739456E-07
   6.50000002E-04   3.69482336E-07
   6.99999975E-04   3.76328160E-07
   7.50000007E-04   3.83277552E-07
   7.99999980E-04   3.90331479E-07
   8.50000011E-04   3.97491391E-07
   8.99999985E-04   4.04759049E-07
   9.50000016E-04   4.12136245E-07
   1.00000005E-03   4.19624399E-07
   1.04999996E-03   4.27224506E-07
   1.09999999E-03   4.34937050E-07
   1.15000003E-03   4.42762399E-07
   1.20000006E-03   4.50700952E-07
   1.24999997E-03   4.58753533E-07
   1.30000000E-03   4.66921506E-07
   1.35000004E-03   4.75206576E-07
   1.39999995E-03   4.83610620E-07
   1.44999998E-03   4.92135200E-07
   1.50000001E-03   5.00781482E-07
   1.55000004E-03   5.09549977E-07
   1.59999996E-03   5.18441084E-07
   1.64999999E-03   5.27454915E-07
   1.70000002E-03   5.36592040E-07
   1.75000005E-03   5.45853709E-07
   1.79999997E-03   5.55241400E-07
   1.85000000E-03   5.64757102E-07
   1.90000003E-03   5.74402407E-07
   1.94999995E-03   5.84178622E-07
   2.00000009E-03   5.94086373E-07
   2.05000001E-03   6.04125773E-07
   2.09999993E-03   6.14296880E-07
   2.15000007E-03   6.24600034E-07
   2.19999999E-03   6.35035917E-07
   2.24999990E-03   6.45606008E-07
   2.30000005E-03   6.56312011E-07
   2.34999997E-03   6.67155803E-07
   2.40000011E-03   6.78138747E-07
   2.45000003E-03   6.89261526E-07
   2.49999994E-03   7.00524254E-07
   2.55000009E-03   7.11926532E-07
   2.60000001E-03   7.23468418E-07
   2.64999992E-03   7.35150309E-07
   2.70000007E-03   7.46973228E-07
   2.74999999E-03   7.58939052E-07
   2.79999990E-03   7.71049258E-07