  -3.99999991E-02   0.00000000    
  -3.99499983E-02   0.00000000    
  -3.99000011E-02   0.00000000    
  -3.98500003E-02   3.81289731E-19
  -3.97999994E-02   3.83208583E-18
  -3.97499986E-02   1.93482277E-17
  -3.97000015E-02   6.45981339E-17
  -3.96500006E-02   1.56971855E-16
  -3.95999998E-02   2.83133098E-16
  -3.95499989E-02   3.48677566E-16
  -3.95000018E-02   1.32235528E-16
  -3.94500010E-02  -7.10844714E-16
  -3.94000001E-02  -2.55130877E-15
  -3.93499993E-02  -5.59024339E-15
  -3.92999984E-02  -9.63200297E-15
  -3.92500013E-02  -1.39640310E-14
  -3.92000005E-02  -1.74936732E-14
  -3.91499996E-02  -1.91983050E-14
  -3.90999988E-02  -1.87575971E-14
  -3.90500017E-02  -1.70492028E-14
  -3.90000008E-02  -1.61393302E-14
  -3.89500000E-02  -1.85791730E-14
  -3.88999991E-02  -2.61844040E-14
  -3.88499983E-02  -3.88443211E-14
  -3.88000011E-02  -5.40468312E-14
  -3.87500003E-02  -6.75751976E-14
  -3.86999995E-02  -7.52855826E-14
  -3.86499986E-02  -7.52528126E-14
  -3.86000015E-02  -6.92023275E-14
  -3.85500006E-02  -6.22843181E-14
  -3.84999998E-02  -6.09326568E-14
  -3.84499989E-02  -6.95396160E-14
  -3.84000018E-02  -8.74872684E-14
  -3.83500010E-02  -1.08206785E-13
  -3.83000001E-02  -1.21160758E-13
  -3.82499993E-02  -1.16221282E-13
  -3.81999984E-02  -8.85443045E-14
  -3.81500013E-02  -4.15007418E-14
  -3.81000005E-02   1.40780815E-14
  -3.80499996E-02   6.43886799E-14
  -3.79999988E-02   9.90378230E-14
  -3.79500017E-02   1.16350980E-13
  -3.79000008E-02   1.24899684E-13
  -3.78500000E-02   1.40176147E-13
  -3.77999991E-02   1.77661176E-13
  -3.77499983E-02   2.45433556E-13
  -3.77000012E-02   3.39934894E-13
  -3.76500003E-02   4.47139694E-13
  -3.75999995E-02   5.48748438E-13
  -3.75499986E-02   6.30456191E-13
  -3.75000015E-02   6.88256472E-13
  -3.74500006E-02   7.29772145E-13
  -3.73999998E-02   7.70194726E-13
  -3.73499990E-02   8.25102844E-13
  -3.73000018E-02   9.03774017E-13
  -3.72500010E-02   1.00594478E-12
  -3.72000001E-02   1.12283750E-12
  -3.71499993E-02   1.24094799E-12
  -3.70999984E-02   1.34591752E-12
  -3.70500013E-02   1.42446146E-12
  -3.70000005E-02   1.46437344E-12
  -3.69499996E-02   1.45467319E-12
  -3.68999988E-02   1.38839201E-12
  -3.68500017E-02   1.26849312E-12
  -3.68000008E-02   1.11393436E-12
  -3.67500000E-02   9.60282635E-13
  -3.66999991E-02   8.50140433E-13
  -3.66499983E-02   8.13676654E-13
  -3.66000012E-02   8.46656566E-13
  -3.65500003E-02   8.98339454E-13
  -3.64999995E-02   8.80440415E-13
  -3.64499986E-02   6.99875650E-13
  -3.64000015E-02   3.05175590E-13
  -3.63500006E-02  -2.74474318E-13
  -3.62999998E-02  -9.20858225E-13
  -3.62499990E-02  -1.46224471E-12
  -3.62000018E-02  -1.74582690E-12
  -3.61500010E-02  -1.71831581E-12
  -3.61000001E-02  -1.47419902E-12
  -3.60499993E-02  -1.23859527E-12
  -3.59999985E-02  -1.27880746E-12
  -3.59500013E-02  -1.77523599E-12
  -3.59000005E-02  -2.71039311E-12
  -3.58499996E-02  -3.83743731E-12
  -3.57999988E-02  -4.76043857E-12
  -3.57500017E-02  -5.10684854E-12
  -3.57000008E-02  -4.72115793E-12
  -3.56500000E-02  -3.78426847E-12
  -3.55999991E-02  -2.78336230E-12
  -3.55499983E-02  -2.31971733E-12
  -3.55000012E-02  -2.82268956E-12
  -3.54500003E-02  -4.29858276E-12
  -3.53999995E-02  -6.24846138E-12
  -3.53499986E-02  -7.82655798E-12
  -3.53000015E-02  -8.20106656E-12
  -3.52500007E-02  -6.97023906E-12
  -3.51999998E-02  -4.43462107E-12
  -3.51499990E-02  -1.56634222E-12
  -3.51000018E-02   3.57368513E-13
  -3.50500010E-02   3.27267727E-13
  -3.50000001E-02  -1.86945620E-12
  -3.49499993E-02  -5.43211309E-12
  -3.48999985E-02  -8.79314069E-12
  -3.48500013E-02  -1.02741930E-11
  -3.48000005E-02  -8.88795634E-12
  -3.47499996E-02  -4.91310118E-12
  -3.46999988E-02   7.02578864E-14
  -3.46500017E-02   3.77464856E-12
  -3.46000008E-02   4.22217773E-12
  -3.45500000E-02   7.43619955E-13
  -3.44999991E-02  -5.52906202E-12
  -3.44499983E-02  -1.19801929E-11
  -3.44000012E-02  -1.55848182E-11
  -3.43500003E-02  -1.43126778E-11
  -3.42999995E-02  -8.22222238E-12
  -3.42499986E-02   3.21590600E-13
  -3.42000015E-02   7.51488802E-12
  -3.41500007E-02   9.77605670E-12
  -3.40999998E-02   5.49046225E-12
  -3.40499990E-02  -3.99326709E-12
  -3.40000018E-02  -1.46798667E-11
  -3.39500010E-02  -2.15500673E-11
  -3.39000002E-02  -2.08511351E-11
  -3.38499993E-02  -1.20256912E-11
  -3.37999985E-02   1.68756209E-12
  -3.37500013E-02   1.44114408E-11
  -3.37000005E-02   2.01766780E-11
  -3.36499996E-02   1.57816381E-11
  -3.35999988E-02   2.62713852E-12
  -3.35500017E-02  -1.34591210E-11
  -3.35000008E-02  -2.45319806E-11
  -3.34500000E-02  -2.40862261E-11
  -3.33999991E-02  -1.02896597E-11
  -3.33499983E-02   1.26823673E-11
  -3.33000012E-02   3.60336483E-11
  -3.32500003E-02   5.00598035E-11
  -3.31999995E-02   4.86457020E-11
  -3.31499986E-02   3.24868049E-11
  -3.31000015E-02   9.38686802E-12
  -3.30500007E-02  -8.78005394E-12
  -3.29999998E-02  -1.13108403E-11
  -3.29499990E-02   6.16221657E-12
  -3.29000019E-02   3.90330789E-11
  -3.28500010E-02   7.50817672E-11
  -3.28000002E-02   9.95424715E-11
  -3.27499993E-02   1.01810706E-10
  -3.26999985E-02   8.07663658E-11
  -3.26500013E-02   4.60841122E-11
  -3.26000005E-02   1.45744007E-11
  -3.25499997E-02   2.86220266E-12
  -3.24999988E-02   1.95451086E-11
  -3.24500017E-02   6.04753331E-11
  -3.24000008E-02   1.09636307E-10
  -3.23500000E-02   1.45652490E-10
  -3.22999991E-02   1.51326368E-10
  -3.22499983E-02   1.21968199E-10
  -3.22000012E-02   6.85186213E-11
  -3.21500003E-02   1.35978546E-11
  -3.20999995E-02  -1.82098243E-11
  -3.20499986E-02  -1.17225821E-11
  -3.20000015E-02   3.10205854E-11
  -3.19500007E-02   9.04164729E-11
  -3.18999998E-02   1.37147127E-10
  -3.18499990E-02   1.45157247E-10
  -3.18000019E-02   1.04070530E-10
  -3.17500010E-02   2.52037800E-11
  -3.17000002E-02  -6.20938995E-11
  -3.16499993E-02  -1.22766505E-10
  -3.15999985E-02  -1.31915270E-10
  -3.15500014E-02  -8.70623990E-11
  -3.15000005E-02  -1.08519322E-11
  -3.14499997E-02   5.77341543E-11
  -3.13999988E-02   8.03523151E-11
  -3.13500017E-02   3.71369394E-11
  -3.13000008E-02  -6.28238850E-11
  -3.12500000E-02  -1.83730933E-10
  -3.11999992E-02  -2.77837114E-10
  -3.11500002E-02  -3.06708492E-10
  -3.10999993E-02  -2.59551741E-10
  -3.10500003E-02  -1.59929001E-10
  -3.09999995E-02  -5.70056780E-11
  -3.09500005E-02  -4.39738914E-12
  -3.08999997E-02  -3.56193963E-11
  -3.08500007E-02  -1.47279175E-10
  -3.07999998E-02  -2.98263830E-10
  -3.07500008E-02  -4.26286423E-10
  -3.07000000E-02  -4.75215034E-10
  -3.06499992E-02  -4.21227081E-10
  -3.06000002E-02  -2.85655749E-10
  -3.05499993E-02  -1.27813912E-10
  -3.05000003E-02  -1.99214777E-11
  -3.04499995E-02  -1.46386410E-11
  -3.04000005E-02  -1.19724994E-10
  -3.03499997E-02  -2.91899865E-10
  -3.03000007E-02  -4.53826532E-10
  -3.02499998E-02  -5.27720756E-10
  -3.02000009E-02  -4.71064743E-10
  -3.01500000E-02  -2.98124248E-10
  -3.00999992E-02  -7.65853977E-11
  -3.00500002E-02   1.00523548E-10
  -2.99999993E-02   1.56092611E-10
  -2.99500003E-02   6.51529941E-11
  -2.98999995E-02  -1.30833594E-10
  -2.98500005E-02  -3.39360623E-10
  -2.97999997E-02  -4.56479493E-10
  -2.97500007E-02  -4.13766882E-10
  -2.96999998E-02  -2.11538190E-10
  -2.96500009E-02   7.76197231E-11
  -2.96000000E-02   3.38164885E-10
  -2.95499992E-02   4.62062028E-10
  -2.95000002E-02   3.98410360E-10
  -2.94499993E-02   1.79516721E-10
  -2.94000003E-02  -8.96917471E-11
  -2.93499995E-02  -2.75925754E-10
  -2.93000005E-02  -2.76943135E-10
  -2.92499997E-02  -6.97519265E-11
  -2.92000007E-02   2.74933964E-10
  -2.91499998E-02   6.20233309E-10
  -2.91000009E-02   8.22125812E-10
  -2.90500000E-02   7.94602439E-10
  -2.89999992E-02   5.51561852E-10
  -2.89500002E-02   2.05265666E-10
  -2.88999993E-02  -8.00089231E-11
  -2.88500004E-02  -1.60149533E-10
  -2.87999995E-02   2.23888564E-11
  -2.87500005E-02   4.08412998E-10
  -2.86999997E-02   8.43433545E-10
  -2.86500007E-02   1.14334586E-09
  -2.85999998E-02   1.17652987E-09
  -2.85500009E-02   9.25832910E-10
  -2.85000000E-02   5.01396591E-10
  -2.84499992E-02   9.63066432E-11
  -2.84000002E-02  -9.73528758E-11
  -2.83499993E-02   2.42855788E-11
  -2.83000004E-02   4.25801727E-10
  -2.82499995E-02   9.42306122E-10
  -2.82000005E-02   1.34836298E-09
  -2.81499997E-02   1.45736068E-09
  -2.81000007E-02   1.20763088E-09
  -2.80499998E-02   6.95742075E-10
  -2.80000009E-02   1.39622647E-10
  -2.79500000E-02  -2.14794987E-10
  -2.78999992E-02  -2.03572936E-10
  -2.78500002E-02   1.77638695E-10
  -2.77999993E-02   7.64858121E-10
  -2.77500004E-02   1.29270417E-09
  -2.76999995E-02   1.50990598E-09
  -2.76500005E-02   1.29321420E-09
  -2.75999997E-02   7.08198944E-10
  -2.75500007E-02  -1.26889081E-11
  -2.74999999E-02  -5.68256331E-10
  -2.74500009E-02  -7.21697369E-10
  -2.74000000E-02  -4.10040307E-10
  -2.73499992E-02   2.20420626E-10
  -2.73000002E-02   8.71654360E-10
  -2.72499993E-02   1.22214394E-09
  -2.72000004E-02   1.07084275E-09
  -2.71499995E-02   4.32573449E-10
  -2.71000005E-02  -4.60019522E-10
  -2.70499997E-02  -1.25249577E-09
  -2.70000007E-02  -1.62318492E-09
  -2.69499999E-02  -1.42896128E-09
  -2.69000009E-02  -7.76272047E-10
  -2.68500000E-02   1.74069127E-11
  -2.67999992E-02   5.58501301E-10
  -2.67500002E-02   5.51582280E-10
  -2.66999993E-02  -6.39834991E-11
  -2.66500004E-02  -1.07785825E-09
  -2.65999995E-02  -2.09304818E-09
  -2.65500005E-02  -2.69725553E-09
  -2.64999997E-02  -2.64743227E-09
  -2.64500007E-02  -1.98503813E-09
  -2.63999999E-02  -1.02763764E-09
  -2.63500009E-02  -2.36085984E-10
  -2.63000000E-02  -1.24484789E-11
  -2.62499992E-02  -5.16944709E-10
  -2.62000002E-02  -1.58686353E-09
  -2.61499994E-02  -2.79755819E-09
  -2.61000004E-02  -3.64323904E-09
  -2.60499995E-02  -3.76066955E-09
  -2.60000005E-02  -3.09684878E-09
  -2.59499997E-02  -1.94342697E-09
  -2.59000007E-02  -8.17697687E-10
  -2.58499999E-02  -2.38202402E-10
  -2.58000009E-02  -4.91955920E-10
  -2.57500000E-02  -1.49745405E-09
  -2.56999992E-02  -2.82824764E-09
  -2.56500002E-02  -3.89206001E-09
  -2.55999994E-02  -4.19045865E-09
  -2.55500004E-02  -3.54537466E-09
  -2.54999995E-02  -2.18975105E-09
  -2.54500005E-02  -6.77046641E-10
  -2.53999997E-02   3.55955571E-10
  -2.53500007E-02   4.71666373E-10
  -2.52999999E-02  -3.65578595E-10
  -2.52500009E-02  -1.76008197E-09
  -2.52000000E-02  -3.04757353E-09
  -2.51499992E-02  -3.58363872E-09
  -2.51000002E-02  -3.03270720E-09
  -2.50499994E-02  -1.52819035E-09
  -2.50000004E-02   3.72139014E-10
  -2.49499995E-02   1.92213179E-09
  -2.49000005E-02   2.51507415E-09
  -2.48499997E-02   1.95945971E-09
  -2.48000007E-02   5.77586090E-10
  -2.47499999E-02  -9.22772636E-10
  -2.47000009E-02  -1.75331027E-09
  -2.46500000E-02  -1.39575629E-09
  -2.45999992E-02   1.57442406E-10
  -2.45500002E-02   2.38347564E-09
  -2.44999994E-02   4.44618031E-09
  -2.44500004E-02   5.55986812E-09
  -2.43999995E-02   5.34166489E-09
  -2.43500005E-02   3.99436706E-09
  -2.42999997E-02   2.23286700E-09
  -2.42500007E-02   9.79338499E-10
  -2.41999999E-02   9.56598023E-10
  -2.41500009E-02   2.35849718E-09
  -2.41000000E-02   4.74702189E-09
  -2.40499992E-02   7.22878468E-09
  -2.40000002E-02   8.84015972E-09
  -2.39499994E-02   8.97492125E-09
  -2.39000004E-02   7.66443264E-09
  -2.38499995E-02   5.58087665E-09
  -2.38000005E-02   3.75415521E-09
  -2.37499997E-02   3.12085335E-09
  -2.37000007E-02   4.10207734E-09
  -2.36499999E-02   6.39963682E-09
  -2.36000009E-02   9.10778297E-09
  -2.35500000E-02   1.10993543E-08
  -2.34999992E-02   1.15214798E-08
  -2.34500002E-02   1.01824336E-08
  -2.33999994E-02   7.65395836E-09
  -2.33500004E-02   5.03567099E-09
  -2.32999995E-02   3.47767148E-09
  -2.32500006E-02   3.66799768E-09
  -2.31999997E-02   5.51278978E-09
  -2.31500007E-02   8.15693824E-09
  -2.30999999E-02   1.03448832E-08
  -2.30500009E-02   1.09693845E-08
  -2.30000000E-02   9.56822976E-09
  -2.29499992E-02   6.54598198E-09
  -2.29000002E-02   3.01489012E-09
  -2.28499994E-02   3.16346671E-10
  -2.28000004E-02  -5.71655778E-10
  -2.27499995E-02   5.20396726E-10
  -2.27000006E-02   2.85801804E-09
  -2.26499997E-02   5.10790077E-09
  -2.26000007E-02   5.91750338E-09
  -2.25499999E-02   4.51733984E-09
  -2.25000009E-02   1.07810871E-09
  -2.24500000E-02  -3.34233174E-09
  -2.23999992E-02  -7.24811677E-09
  -2.23500002E-02  -9.35985423E-09
  -2.22999994E-02  -9.18765242E-09
  -2.22500004E-02  -7.26559923E-09
  -2.21999995E-02  -4.93559638E-09
  -2.21500006E-02  -3.76654530E-09
  -2.20999997E-02  -4.85932761E-09
  -2.20500007E-02  -8.34441849E-09
  -2.19999999E-02  -1.33000073E-08
  -2.19500009E-02  -1.81362942E-08
  -2.19000001E-02  -2.12851692E-08
  -2.18499992E-02  -2.18950280E-08
  -2.18000002E-02  -2.02217336E-08
  -2.17499994E-02  -1.75354060E-08
  -2.17000004E-02  -1.55743454E-08
  -2.16499995E-02  -1.57792623E-08
  -2.16000006E-02  -1.86436679E-08
  -2.15499997E-02  -2.34715856E-08
  -2.15000007E-02  -2.86584694E-08
  -2.14499999E-02  -3.23810383E-08
  -2.14000009E-02  -3.33978640E-08
  -2.13500001E-02  -3.16073780E-08
  -2.12999992E-02  -2.81107813E-08
  -2.12500002E-02  -2.47423273E-08
  -2.11999994E-02  -2.32654216E-08
  -2.11500004E-02  -2.45848533E-08
  -2.10999995E-02  -2.83250454E-08
  -2.10500006E-02  -3.29685044E-08
  -2.09999997E-02  -3.65031312E-08
  -2.09500007E-02  -3.73007119E-08
  -2.08999999E-02  -3.48415341E-08
  -2.08500009E-02  -2.99607308E-08
  -2.08000001E-02  -2.44989202E-08
  -2.07499992E-02  -2.05014068E-08
  -2.07000002E-02  -1.93126954E-08
  -2.06499994E-02  -2.09659436E-08
  -2.06000004E-02  -2.41427056E-08
  -2.05499995E-02  -2.67305342E-08
  -2.05000006E-02  -2.67414233E-08
  -2.04499997E-02  -2.31904096E-08
  -2.04000007E-02  -1.65453820E-08
  -2.03499999E-02  -8.54145910E-09
  -2.03000009E-02  -1.43215895E-09
  -2.02500001E-02   3.00056224E-09
  -2.01999992E-02   4.24346425E-09
  -2.01500002E-02   3.30016148E-09
  -2.00999994E-02   2.27272223E-09
  -2.00500004E-02   3.45087559E-09
  -1.99999996E-02   8.30365376E-09
  -1.99500006E-02   1.68183263E-08
  -1.98999997E-02   2.74832033E-08
  -1.98500007E-02   3.79312546E-08
  -1.97999999E-02   4.59705873E-08
  -1.97500009E-02   5.05526856E-08
  -1.97000001E-02   5.22499448E-08
  -1.96499992E-02   5.30244257E-08
  -1.96000002E-02   5.53805606E-08
  -1.95499994E-02   6.12667890E-08
  -1.95000004E-02   7.12066139E-08
  -1.94499996E-02   8.40453254E-08
  -1.94000006E-02   9.74326895E-08
  -1.93499997E-02   1.08838925E-07
  -1.93000007E-02   1.16662640E-07
  -1.92499999E-02   1.20944136E-07
  -1.92000009E-02   1.23365623E-07
  -1.91500001E-02   1.26527667E-07
  -1.90999992E-02   1.32812005E-07
  -1.90500002E-02   1.43327171E-07
  -1.89999994E-02   1.57399455E-07
  -1.89500004E-02   1.72840657E-07
  -1.88999996E-02   1.86886453E-07
  -1.88500006E-02   1.97399132E-07
  -1.87999997E-02   2.03808582E-07
  -1.87500007E-02   2.07376402E-07
  -1.86999999E-02   2.10658030E-07
  -1.86500009E-02   2.16390703E-07
  -1.86000001E-02   2.26288762E-07
  -1.85499992E-02   2.40274375E-07
  -1.85000002E-02   2.56486800E-07
  -1.84499994E-02   2.72074288E-07
  -1.84000004E-02   2.84430200E-07
  -1.83499996E-02   2.92335955E-07
  -1.83000006E-02   2.96508034E-07
  -1.82499997E-02   2.99301433E-07
  -1.82000007E-02   3.03692786E-07
  -1.81499999E-02   3.11980671E-07
  -1.81000009E-02   3.24768365E-07
  -1.80500001E-02   3.40679151E-07
  -1.79999992E-02   3.56936710E-07
  -1.79500002E-02   3.70564749E-07
  -1.78999994E-02   3.79687776E-07
  -1.78500004E-02   3.84364483E-07
  -1.77999996E-02   3.86582428E-07
  -1.77500006E-02   3.89408456E-07
  -1.76999997E-02   3.95660749E-07
  -1.76500008E-02   4.06676605E-07
  -1.75999999E-02   4.21714589E-07
  -1.75500009E-02   4.38262703E-07
  -1.75000001E-02   4.53122169E-07
  -1.74499992E-02   4.63803929E-07
  -1.74000002E-02   4.69628844E-07
  -1.73499994E-02   4.72046963E-07
  -1.73000004E-02   4.74032561E-07
  -1.72499996E-02   4.78806726E-07
  -1.72000006E-02   4.88440662E-07
  -1.71499997E-02   5.02948808E-07
  -1.71000008E-02   5.20271158E-07
  -1.70499999E-02   5.37161270E-07
  -1.70000009E-02   5.50599623E-07
  -1.69500001E-02   5.59124032E-07
  -1.68999992E-02   5.63491710E-07
  -1.68500002E-02   5.66379356E-07
  -1.67999994E-02   5.71243049E-07
  -1.67500004E-02   5.80832193E-07
  -1.66999996E-02   5.95997392E-07
  -1.66500006E-02   6.15311819E-07
  -1.65999997E-02   6.35685979E-07
  -1.65500008E-02   6.53713698E-07
  -1.64999999E-02   6.67166205E-07
  -1.64500009E-02   6.75985291E-07
  -1.64000001E-02   6.82341238E-07
  -1.63499992E-02   6.89722810E-07
  -1.63000003E-02   7.01445742E-07
  -1.62499994E-02   7.19220623E-07
  -1.62000004E-02   7.42407792E-07
  -1.61499996E-02   7.68288203E-07
  -1.61000006E-02   7.93242066E-07
  -1.60499997E-02   8.14327734E-07
  -1.60000008E-02   8.30579665E-07
  -1.59499999E-02   8.43459986E-07
  -1.59000009E-02   8.56258623E-07
  -1.58500001E-02   8.72691544E-07
  -1.57999992E-02   8.95302321E-07
  -1.57500003E-02   9.24361018E-07
  -1.56999994E-02   9.57739985E-07
  -1.56500004E-02   9.91827164E-07
  -1.55999996E-02   1.02309707E-06
  -1.55499997E-02   1.04965488E-06
  -1.54999997E-02   1.07208484E-06
  -1.54499998E-02   1.09323457E-06
  -1.53999999E-02   1.11700956E-06
  -1.53500000E-02   1.14669785E-06
  -1.53000001E-02   1.18355013E-06
  -1.52500002E-02   1.22622669E-06
  -1.52000003E-02   1.27136741E-06
  -1.51500003E-02   1.31504339E-06
  -1.51000004E-02   1.35446442E-06
  -1.50499996E-02   1.38920814E-06
  -1.49999997E-02   1.42143256E-06
  -1.49499997E-02   1.45497620E-06
  -1.48999998E-02   1.49371544E-06
  -1.48499999E-02   1.53989060E-06
  -1.48000000E-02   1.59313345E-06
  -1.47500001E-02   1.65060408E-06
  -1.47000002E-02   1.70821318E-06
  -1.46500003E-02   1.76239450E-06
  -1.46000003E-02   1.81165660E-06
  -1.45500004E-02   1.85725730E-06
  -1.44999996E-02   1.90269850E-06
  -1.44499997E-02   1.95223788E-06
  -1.43999998E-02   2.00905447E-06
  -1.43499998E-02   2.07386893E-06
  -1.42999999E-02   2.14461284E-06
  -1.42500000E-02   2.21730193E-06
  -1.42000001E-02   2.28775411E-06
  -1.41500002E-02   2.35341304E-06
  -1.41000003E-02   2.41447515E-06
  -1.40500003E-02   2.47383468E-06
  -1.40000004E-02   2.53586927E-06
  -1.39499996E-02   2.60457000E-06
  -1.38999997E-02   2.68181407E-06
  -1.38499998E-02   2.76653645E-06
  -1.37999998E-02   2.85517172E-06
  -1.37499999E-02   2.94318284E-06
  -1.37000000E-02   3.02702165E-06
  -1.36500001E-02   3.10568839E-06
  -1.36000002E-02   3.18121670E-06
  -1.35500003E-02   3.25783662E-06
  -1.35000004E-02   3.34017227E-06
  -1.34500004E-02   3.43125180E-06
  -1.33999996E-02   3.53119572E-06
  -1.33499997E-02   3.63716117E-06
  -1.32999998E-02   3.74453862E-06
  -1.32499998E-02   3.84894520E-06
  -1.31999999E-02   3.94815015E-06
  -1.31500000E-02   4.04307912E-06
  -1.31000001E-02   4.13748057E-06
  -1.30500002E-02   4.23633901E-06
  -1.30000003E-02   4.34374624E-06
  -1.29500004E-02   4.46114836E-06
  -1.29000004E-02   4.58670365E-06
  -1.28499996E-02   4.71606108E-06
  -1.27999997E-02   4.84424982E-06
  -1.27499998E-02   4.96785151E-06
  -1.26999998E-02   5.08652465E-06
  -1.26499999E-02   5.20321237E-06
  -1.26000000E-02   5.32293825E-06
  -1.25500001E-02   5.45068860E-06
  -1.25000002E-02   5.58925649E-06
  -1.24500003E-02   5.73803118E-06
  -1.24000004E-02   5.89324691E-06
  -1.23500004E-02   6.04962133E-06
  -1.22999996E-02   6.20266064E-06
  -1.22499997E-02   6.35065408E-06
  -1.21999998E-02   6.49550020E-06
  -1.21499998E-02   6.64194977E-06
  -1.20999999E-02   6.79560253E-06
  -1.20500000E-02   6.96053530E-06
  -1.20000001E-02   7.13754298E-06
  -1.19500002E-02   7.32379067E-06
  -1.19000003E-02   7.51403286E-06
  -1.18500004E-02   7.70288443E-06
  -1.18000004E-02   7.88720263E-06
  -1.17499996E-02   8.06751632E-06
  -1.16999997E-02   8.24791186E-06
  -1.16499998E-02   8.43433190E-06
  -1.15999999E-02   8.63201058E-06
  -1.15499999E-02   8.84326073E-06
  -1.15000000E-02   9.06648529E-06
  -1.14500001E-02   9.29685211E-06
  -1.14000002E-02   9.52838673E-06
  -1.13500003E-02   9.75665444E-06
  -1.13000004E-02   9.98073938E-06
  -1.12500004E-02   1.02037229E-05
  -1.11999996E-02   1.04314840E-05
  -1.11499997E-02   1.06701764E-05
  -1.10999998E-02   1.09236071E-05
  -1.10499999E-02   1.11915797E-05
  -1.09999999E-02   1.14699533E-05
  -1.09500000E-02   1.17524787E-05
  -1.09000001E-02   1.20334880E-05
  -1.08500002E-02   1.23104428E-05
  -1.08000003E-02   1.25851639E-05
  -1.07500004E-02   1.28631000E-05
  -1.07000005E-02   1.31510751E-05
  -1.06499996E-02   1.34543689E-05
  -1.05999997E-02   1.37744428E-05
  -1.05499998E-02   1.41082819E-05
  -1.04999999E-02   1.44497453E-05
  -1.04499999E-02   1.47922756E-05
  -1.04000000E-02   1.51317936E-05
  -1.03500001E-02   1.54686004E-05
  -1.03000002E-02   1.58073635E-05
  -1.02500003E-02   1.61551561E-05
  -1.02000004E-02   1.65184647E-05
  -1.01500005E-02   1.69004052E-05
  -1.00999996E-02   1.72993223E-05
  -1.00499997E-02   1.77095390E-05
  -9.99999978E-03   1.81238174E-05
  -9.94999986E-03   1.85366371E-05
  -9.89999995E-03   1.89466482E-05
  -9.85000003E-03   1.93572978E-05
  -9.80000012E-03   1.97755326E-05
  -9.75000020E-03   2.02087431E-05
  -9.70000029E-03   2.06616460E-05
  -9.65000037E-03   2.11343104E-05
  -9.60000046E-03   2.16219923E-05
  -9.54999961E-03   2.21172068E-05
  -9.49999969E-03   2.26132015E-05
  -9.44999978E-03   2.31069243E-05
  -9.39999986E-03   2.36004635E-05
  -9.34999995E-03   2.41003636E-05
  -9.30000003E-03   2.46147229E-05
  -9.25000012E-03   2.51498368E-05
  -9.20000020E-03   2.57074389E-05
  -9.15000029E-03   2.62840276E-05
  -9.10000037E-03   2.68723670E-05
  -9.05000046E-03   2.74646063E-05
  -8.99999961E-03   2.80559852E-05
  -8.94999970E-03   2.86469312E-05
  -8.89999978E-03   2.92428158E-05
  -8.84999987E-03   2.98518953E-05
  -8.79999995E-03   3.04817495E-05
  -8.75000004E-03   3.11359981E-05
  -8.70000012E-03   3.18127677E-05
  -8.65000021E-03   3.25053770E-05
  -8.60000029E-03   3.32054515E-05
  -8.55000038E-03   3.39065737E-05
  -8.50000046E-03   3.46072120E-05
  -8.44999962E-03   3.53115429E-05
  -8.39999970E-03   3.60277809E-05
  -8.34999979E-03   3.67647444E-05
  -8.29999987E-03   3.75278687E-05
  -8.24999996E-03   3.83170554E-05
  -8.20000004E-03   3.91266622E-05
  -8.15000013E-03   3.99480632E-05
  -8.10000021E-03   4.07735970E-05
  -8.05000030E-03   4.15998802E-05
  -8.00000038E-03   4.24295067E-05
  -7.95000046E-03   4.32700290E-05
  -7.89999962E-03   4.41308002E-05
  -7.84999970E-03   4.50189291E-05
  -7.79999979E-03   4.59362018E-05
  -7.74999987E-03   4.68782637E-05
  -7.69999996E-03   4.78364927E-05
  -7.65000004E-03   4.88020596E-05
  -7.60000013E-03   4.97696674E-05
  -7.55000021E-03   5.07400873E-05
  -7.49999983E-03   5.17200060E-05
  -7.44999992E-03   5.27190059E-05
  -7.40000000E-03   5.37456435E-05
  -7.35000009E-03   5.48036405E-05
  -7.30000017E-03   5.58901993E-05
  -7.24999979E-03   5.69973745E-05
  -7.19999988E-03   5.81157365E-05
  -7.14999996E-03   5.92386605E-05
  -7.10000005E-03   6.03650915E-05
  -7.05000013E-03   6.15002282E-05
  -7.00000022E-03   6.26534893E-05
  -6.94999984E-03   6.38344427E-05
  -6.89999992E-03   6.50485672E-05
  -6.85000001E-03   6.62948223E-05
  -6.80000009E-03   6.75662450E-05
  -6.75000018E-03   6.88531945E-05
  -6.69999979E-03   7.01475656E-05
  -6.64999988E-03   7.14464695E-05
  -6.59999996E-03   7.27535880E-05
  -6.55000005E-03   7.40775868E-05
  -6.50000013E-03   7.54285138E-05
  -6.45000022E-03   7.68131504E-05
  -6.39999984E-03   7.82320058E-05
  -6.34999992E-03   7.96796812E-05
  -6.30000001E-03   8.11468199E-05
  -6.25000009E-03   8.26242758E-05
  -6.20000018E-03   8.41074216E-05
  -6.14999980E-03   8.55981416E-05
  -6.09999988E-03   8.71042357E-05
  -6.04999997E-03   8.86359921E-05
  -6.00000005E-03   9.02018146E-05
  -5.95000014E-03   9.18043661E-05
  -5.90000022E-03   9.34393320E-05
  -5.84999984E-03   9.50977410E-05
  -5.79999993E-03   9.67697270E-05
  -5.75000001E-03   9.84491053E-05
  -5.70000010E-03   1.00136247E-04
  -5.65000018E-03   1.01837562E-04
  -5.59999980E-03   1.03563158E-04
  -5.54999989E-03   1.05322331E-04
  -5.49999997E-03   1.07119209E-04
  -5.45000006E-03   1.08951113E-04
  -5.40000014E-03   1.10809953E-04
  -5.35000023E-03   1.12685615E-04
  -5.29999984E-03   1.14570357E-04
  -5.24999993E-03   1.16462514E-04
  -5.20000001E-03   1.18367083E-04
  -5.15000010E-03   1.20293502E-04
  -5.10000018E-03   1.22251731E-04
  -5.04999980E-03   1.24247657E-04
  -4.99999989E-03   1.26280371E-04
  -4.94999997E-03   1.28342799E-04
  -4.90000006E-03   1.30425047E-04
  -4.85000014E-03   1.32518689E-04
  -4.80000023E-03   1.34620030E-04
  -4.74999985E-03   1.36732371E-04
  -4.69999993E-03   1.38864474E-04
  -4.65000002E-03   1.41026321E-04
  -4.60000010E-03   1.43225072E-04
  -4.55000019E-03   1.45462196E-04
  -4.49999981E-03   1.47731960E-04
  -4.44999989E-03   1.50024192E-04
  -4.39999998E-03   1.52329318E-04
  -4.35000006E-03   1.54641893E-04
  -4.30000015E-03   1.56963652E-04
  -4.25000023E-03   1.59302625E-04
  -4.19999985E-03   1.61668955E-04
  -4.14999994E-03   1.64070938E-04
  -4.10000002E-03   1.66511178E-04
  -4.05000011E-03   1.68984800E-04
  -4.00000019E-03   1.71482301E-04
  -3.94999981E-03   1.73993030E-04
  -3.89999989E-03   1.76510424E-04
  -3.84999998E-03   1.79035182E-04
  -3.80000006E-03   1.81574374E-04
  -3.74999992E-03   1.84138262E-04
  -3.70000000E-03   1.86735779E-04
  -3.65000009E-03   1.89371087E-04
  -3.59999994E-03   1.92040607E-04
  -3.55000002E-03   1.94734748E-04
  -3.50000011E-03   1.97442627E-04
  -3.44999996E-03   2.00156574E-04
  -3.40000005E-03   2.02875992E-04
  -3.34999990E-03   2.05606630E-04
  -3.29999998E-03   2.08357975E-04
  -3.25000007E-03   2.11139457E-04
  -3.19999992E-03   2.13955980E-04
  -3.15000000E-03   2.16805973E-04
  -3.10000009E-03   2.19681300E-04
  -3.04999994E-03   2.22570467E-04
  -3.00000003E-03   2.25464144E-04
  -2.95000011E-03   2.28359626E-04
  -2.89999996E-03   2.31261671E-04
  -2.85000005E-03   2.34179344E-04
  -2.79999990E-03   2.37122644E-04
  -2.74999999E-03   2.40097535E-04
  -2.70000007E-03   2.43102986E-04
  -2.64999992E-03   2.46132113E-04
  -2.60000001E-03   2.49174336E-04
  -2.55000009E-03   2.52219441E-04
  -2.49999994E-03   2.55261897E-04
  -2.45000003E-03   2.58304412E-04
  -2.40000011E-03   2.61356152E-04
  -2.34999997E-03   2.64428236E-04
  -2.30000005E-03   2.67528259E-04
  -2.24999990E-03   2.70657067E-04
  -2.19999999E-03   2.73807993E-04
  -2.15000007E-03   2.76968727E-04
  -2.09999993E-03   2.80127715E-04
  -2.05000001E-03   2.83278263E-04
  -2.00000009E-03   2.86421855E-04
  -1.94999995E-03   2.89567542E-04
  -1.90000003E-03   2.92726560E-04
  -1.85000000E-03   2.95907521E-04
  -1.79999997E-03   2.99112755E-04
  -1.75000005E-03   3.02336295E-04
  -1.70000002E-03   3.05565249E-04
  -1.64999999E-03   3.08785617E-04
  -1.59999996E-03   3.11989133E-04
  -1.55000004E-03   3.15175334E-04
  -1.50000001E-03   3.18352715E-04
  -1.44999998E-03   3.21535772E-04
  -1.39999995E-03   3.24735913E-04
  -1.35000004E-03   3.27955786E-04
  -1.30000000E-03   3.31188465E-04
  -1.24999997E-03   3.34420503E-04
  -1.20000006E-03   3.37636855E-04
  -1.15000003E-03   3.40827304E-04
  -1.09999999E-03   3.43991094E-04
  -1.04999996E-03   3.47135559E-04
  -1.00000005E-03   3.50274146E-04
  -9.50000016E-04   3.53420270E-04
  -8.99999985E-04   3.56577948E-04
  -8.50000011E-04   3.59741243E-04
  -7.99999980E-04   3.62896855E-04
  -7.50000007E-04   3.66027409E-04
  -6.99999975E-04   3.69120302E-04
  -6.50000002E-04   3.72172974E-04
  -6.00000028E-04   3.75194038E-04
  -5.49999997E-04   3.78197466E-04
  -5.00000024E-04   3.81195394E-04
  -4.49999992E-04   3.84194136E-04
  -3.99999990E-04   3.87189561E-04
  -3.49999988E-04   3.90167988E-04
  -3.00000014E-04   3.93111142E-04
  -2.50000012E-04   3.96004558E-04
  -1.99999995E-04   3.98843578E-04
  -1.50000007E-04   4.01635276E-04
  -9.99999975E-05   4.04393213E-04
  -4.99999987E-05   4.07132029E-04
   0.00000000       4.09861677E-04
   4.99999987E-05   4.12579713E-04
   9.99999975E-05   4.15272109E-04
   1.50000007E-04   4.17917356E-04
   1.99999995E-04   4.20496654E-04
   2.50000012E-04   4.23003308E-04
   3.00000014E-04   4.25443286E-04
   3.49999988E-04   4.27831954E-04
   3.99999990E-04   4.30187560E-04
   4.49999992E-04   4.32521105E-04
   5.00000024E-04   4.34830319E-04
   5.49999997E-04   4.37100360E-04
   6.00000028E-04   4.39308729E-04
   6.50000002E-04   4.41434182E-04
   6.99999975E-04   4.43467812E-04
   7.50000007E-04   4.45415062E-04
   7.99999980E-04   4.47290309E-04
   8.50000011E-04   4.49112093E-04
   8.99999985E-04   4.50893742E-04
   9.50000016E-04   4.52637614E-04
   1.00000005E-03   4.54330380E-04
   1.04999996E-03   4.55947593E-04
   1.09999999E-03   4.57465125E-04
   1.15000003E-03   4.58869181E-04
   1.20000006E-03   4.60162264E-04
   1.24999997E-03   4.61361167E-04
   1.30000000E-03   4.62487864E-04
   1.35000004E-03   4.63558652E-04
   1.39999995E-03   4.64577635E-04
   1.44999998E-03   4.65530524E-04
   1.50000001E-03   4.66390426E-04
   1.55000004E-03   4.67130129E-04
   1.59999996E-03   4.67731617E-04
   1.64999999E-03   4.68194194E-04
   1.70000002E-03   4.68533690E-04
   1.75000005E-03   4.68775514E-04
   1.79999997E-03   4.68941580E-04
   1.85000000E-03   4.69039689E-04
   1.90000003E-03   4.69058694E-04
   1.94999995E-03   4.68970946E-04
   2.00000009E-03   4.68743820E-04
   2.05000001E-03   4.68351907E-04
   2.09999993E-03   4.67790145E-04
   2.15000007E-03   4.67075326E-04
   2.19999999E-03   4.66235244E-04
   2.24999990E-03   4.65295656E-04
   2.30000005E-03   4.64268291E-04
   2.34999997E-03   4.63146978E-04
   2.40000011E-03   4.61906660E-04
   2.45000003E-03   4.60511277E-04
   2.49999994E-03   4.58930183E-04
   2.55000009E-03   4.57149959E-04
   2.60000001E-03   4.55179048E-04
   2.64999992E-03   4.53046639E-04
   2.70000007E-03   4.50785097E-04
   2.74999999E-03   4.48414299E-04
   2.79999990E-03   4.45933896E-04