  -3.99999991E-02   0.00000000    
  -3.99499983E-02   0.00000000    
  -3.99000011E-02   0.00000000    
  -3.98500003E-02  -2.86149854E-14
  -3.97999994E-02  -2.32559225E-13
  -3.97499986E-02  -9.83051314E-13
  -3.97000015E-02  -2.86520525E-12
  -3.96500006E-02  -6.41895131E-12
  -3.95999998E-02  -1.16733272E-11
  -3.95499989E-02  -1.77691421E-11
  -3.95000018E-02  -2.30585950E-11
  -3.94500010E-02  -2.58413967E-11
  -3.94000001E-02  -2.54563055E-11
  -3.93499993E-02  -2.31115699E-11
  -3.92999984E-02  -2.18587561E-11
  -3.92500013E-02  -2.54934910E-11
  -3.92000005E-02  -3.67118384E-11
  -3.91499996E-02  -5.53288595E-11
  -3.90999988E-02  -7.75565445E-11
  -3.90500017E-02  -9.70419578E-11
  -3.90000008E-02  -1.07540366E-10
  -3.89500000E-02  -1.06071610E-10
  -3.88999991E-02  -9.48399692E-11
  -3.88499983E-02  -8.06251801E-11
  -3.88000011E-02  -7.16638623E-11
  -3.87500003E-02  -7.34537361E-11
  -3.86999995E-02  -8.55564092E-11
  -3.86499986E-02  -1.01029948E-10
  -3.86000015E-02  -1.08926722E-10
  -3.85500006E-02  -9.89289275E-11
  -3.84999998E-02  -6.61443053E-11
  -3.84499989E-02  -1.37370384E-11
  -3.84000018E-02   4.82187242E-11
  -3.83500010E-02   1.07491682E-10
  -3.83000001E-02   1.55795377E-10
  -3.82499993E-02   1.92954597E-10
  -3.81999984E-02   2.26817135E-10
  -3.81500013E-02   2.69085837E-10
  -3.81000005E-02   3.29591632E-10
  -3.80499996E-02   4.12174933E-10
  -3.79999988E-02   5.14092435E-10
  -3.79500017E-02   6.28805175E-10
  -3.79000008E-02   7.50377704E-10
  -3.78500000E-02   8.77072470E-10
  -3.77999991E-02   1.01207931E-09
  -3.77499983E-02   1.16065169E-09
  -3.77000012E-02   1.32503186E-09
  -3.76500003E-02   1.50044943E-09
  -3.75999995E-02   1.67555902E-09
  -3.75499986E-02   1.83807269E-09
  -3.75000015E-02   1.98240069E-09
  -3.74500006E-02   2.11382245E-09
  -3.73999998E-02   2.24526242E-09
  -3.73499990E-02   2.38750486E-09
  -3.73000018E-02   2.53840460E-09
  -3.72500010E-02   2.67811195E-09
  -3.72000001E-02   2.77473933E-09
  -3.71499993E-02   2.79962453E-09
  -3.70999984E-02   2.74591727E-09
  -3.70500013E-02   2.64077649E-09
  -3.70000005E-02   2.54200572E-09
  -3.69499996E-02   2.51570986E-09
  -3.68999988E-02   2.60151900E-09
  -3.68500017E-02   2.78151857E-09
  -3.68000008E-02   2.97170155E-09
  -3.67500000E-02   3.04655479E-09
  -3.66999991E-02   2.89087687E-09
  -3.66499983E-02   2.45674969E-09
  -3.66000012E-02   1.79719084E-09
  -3.65500003E-02   1.05580455E-09
  -3.64999995E-02   4.10763951E-10
  -3.64499986E-02  -6.53461703E-12
  -3.64000015E-02  -1.82372839E-10
  -3.63500006E-02  -2.44429671E-10
  -3.62999998E-02  -4.18318352E-10
  -3.62499990E-02  -9.27208921E-10
  -3.62000018E-02  -1.87608662E-09
  -3.61500010E-02  -3.17757798E-09
  -3.61000001E-02  -4.56399762E-09
  -3.60499993E-02  -5.69224134E-09
  -3.59999985E-02  -6.30145669E-09
  -3.59500013E-02  -6.35176223E-09
  -3.59000005E-02  -6.07321793E-09
  -3.58499996E-02  -5.88978644E-09
  -3.57999988E-02  -6.23918917E-09
  -3.57500017E-02  -7.36219929E-09
  -3.57000008E-02  -9.15932397E-09
  -3.56500000E-02  -1.11935616E-08
  -3.55999991E-02  -1.28572646E-08
  -3.55499983E-02  -1.36424987E-08
  -3.55000012E-02  -1.33946259E-08
  -3.54500003E-02  -1.24221149E-08
  -3.53999995E-02  -1.13921104E-08
  -3.53499986E-02  -1.10393810E-08
  -3.53000015E-02  -1.18105641E-08
  -3.52500007E-02  -1.36093057E-08
  -3.51999998E-02  -1.57759619E-08
  -3.51499990E-02  -1.73369870E-08
  -3.51000018E-02  -1.74340737E-08
  -3.50500010E-02  -1.57473927E-08
  -3.50000001E-02  -1.27090241E-08
  -3.49499993E-02  -9.38054612E-09
  -3.48999985E-02  -7.01689418E-09
  -3.48500013E-02  -6.49306164E-09
  -3.48000005E-02  -7.85493626E-09
  -3.47499996E-02  -1.02212212E-08
  -3.46999988E-02  -1.21156303E-08
  -3.46500017E-02  -1.21098678E-08
  -3.46000008E-02  -9.50003720E-09
  -3.45500000E-02  -4.69975392E-09
  -3.44999991E-02   8.60104266E-10
  -3.44499983E-02   5.32072253E-09
  -3.44000012E-02   7.23822069E-09
  -3.43500003E-02   6.30324060E-09
  -3.42999995E-02   3.58477825E-09
  -3.42499986E-02   1.14078724E-09
  -3.42000015E-02   1.12642440E-09
  -3.41500007E-02   4.78141970E-09
  -3.40999998E-02   1.17666490E-08
  -3.40499990E-02   2.01909547E-08
  -3.40000018E-02   2.73686211E-08
  -3.39500010E-02   3.10065573E-08
  -3.39000002E-02   3.02962455E-08
  -3.38499993E-02   2.63914863E-08
  -3.37999985E-02   2.20023608E-08
  -3.37500013E-02   2.02303490E-08
  -3.37000005E-02   2.31357760E-08
  -3.36499996E-02   3.06920853E-08
  -3.35999988E-02   4.06478335E-08
  -3.35500017E-02   4.94268484E-08
  -3.35000008E-02   5.37158940E-08
  -3.34500000E-02   5.20399084E-08
  -3.33999991E-02   4.55829223E-08
  -3.33499983E-02   3.78174541E-08
  -3.33000012E-02   3.30348442E-08
  -3.32500003E-02   3.43895650E-08
  -3.31999995E-02   4.23381508E-08
  -3.31499986E-02   5.42278578E-08
  -3.31000015E-02   6.53040928E-08
  -3.30500007E-02   7.07611605E-08
  -3.29999998E-02   6.79490668E-08
  -3.29499990E-02   5.77187365E-08
  -3.29000019E-02   4.42256223E-08
  -3.28500010E-02   3.31897994E-08
  -3.28000002E-02   2.93306002E-08
  -3.27499993E-02   3.41207063E-08
  -3.26999985E-02   4.49221282E-08
  -3.26500013E-02   5.59834632E-08
  -3.26000005E-02   6.09402164E-08
  -3.25499997E-02   5.57414808E-08
  -3.24999988E-02   4.06676186E-08
  -3.24500017E-02   2.04505834E-08
  -3.24000008E-02   2.33370168E-09
  -3.23500000E-02  -7.14360660E-09
  -3.22999991E-02  -5.21481702E-09
  -3.22499983E-02   5.62263880E-09
  -3.22000012E-02   1.84707645E-08
  -3.21500003E-02   2.49735681E-08
  -3.20999995E-02   1.90856966E-08
  -3.20499986E-02  -3.26228697E-11
  -3.20000015E-02  -2.73751013E-08
  -3.19500007E-02  -5.41094707E-08
  -3.18999998E-02  -7.14545791E-08
  -3.18499990E-02  -7.47139808E-08
  -3.18000019E-02  -6.56103083E-08
  -3.17500010E-02  -5.17613117E-08
  -3.17000002E-02  -4.34037908E-08
  -3.16499993E-02  -4.87493388E-08
  -3.15999985E-02  -7.00545968E-08
  -3.15500014E-02  -1.02256536E-07
  -3.15000005E-02  -1.34924250E-07
  -3.14499997E-02  -1.56780700E-07
  -3.13999988E-02  -1.60826986E-07
  -3.13500017E-02  -1.47734397E-07
  -3.13000008E-02  -1.25864148E-07
  -3.12500000E-02  -1.07755660E-07
  -3.11999992E-02  -1.04543055E-07
  -3.11500002E-02  -1.20775042E-07
  -3.10999993E-02  -1.52034318E-07
  -3.10500003E-02  -1.86566837E-07
  -3.09999995E-02  -2.10339778E-07
  -3.09500005E-02  -2.13347576E-07
  -3.08999997E-02  -1.94322382E-07
  -3.08500007E-02  -1.61622935E-07
  -3.07999998E-02  -1.29742560E-07
  -3.07500008E-02  -1.12869131E-07
  -3.07000000E-02  -1.18338711E-07
  -3.06499992E-02  -1.42983794E-07
  -3.06000002E-02  -1.74162054E-07
  -3.05499993E-02  -1.95171083E-07
  -3.05000003E-02  -1.92733850E-07
  -3.04499995E-02  -1.63203438E-07
  -3.04000005E-02  -1.14599885E-07
  -3.03499997E-02  -6.33933226E-08
  -3.03000007E-02  -2.73143517E-08
  -3.02499998E-02  -1.73373955E-08
  -3.02000009E-02  -3.24752740E-08
  -3.01500000E-02  -5.98635808E-08
  -3.00999992E-02  -8.02772249E-08
  -3.00500002E-02  -7.67387149E-08
  -2.99999993E-02  -4.23829150E-08
  -2.99500003E-02   1.60433995E-08
  -2.98999995E-02   8.07910610E-08
  -2.98500005E-02   1.30834124E-07
  -2.97999997E-02   1.51347720E-07
  -2.97500007E-02   1.40664042E-07
  -2.96999998E-02   1.11444606E-07
  -2.96500009E-02   8.53419877E-08
  -2.96000000E-02   8.33765128E-08
  -2.95499992E-02   1.16282685E-07
  -2.95000002E-02   1.79231037E-07
  -2.94499993E-02   2.53472678E-07
  -2.94000003E-02   3.14369572E-07
  -2.93499995E-02   3.42344407E-07
  -2.93000005E-02   3.31849435E-07
  -2.92499997E-02   2.94212640E-07
  -2.92000007E-02   2.52890402E-07
  -2.91499998E-02   2.33073266E-07
  -2.91000009E-02   2.50216601E-07
  -2.90500000E-02   3.02688278E-07
  -2.89999992E-02   3.71999647E-07
  -2.89500002E-02   4.30728591E-07
  -2.88999993E-02   4.54741411E-07
  -2.88500004E-02   4.34262915E-07
  -2.87999995E-02   3.78718624E-07
  -2.87500005E-02   3.12972418E-07
  -2.86999997E-02   2.66438889E-07
  -2.86500007E-02   2.59834422E-07
  -2.85999998E-02   2.95528736E-07
  -2.85500009E-02   3.55975175E-07
  -2.85000000E-02   4.11141031E-07
  -2.84499992E-02   4.31791932E-07
  -2.84000002E-02   4.02745769E-07
  -2.83499993E-02   3.30074556E-07
  -2.83000004E-02   2.38833167E-07
  -2.82499995E-02   1.62117473E-07
  -2.82000005E-02   1.26220201E-07
  -2.81499997E-02   1.38544365E-07
  -2.81000007E-02   1.83840356E-07
  -2.80499998E-02   2.30672981E-07
  -2.80000009E-02   2.45415805E-07
  -2.79500000E-02   2.07582445E-07
  -2.78999992E-02   1.19551387E-07
  -2.78500002E-02   6.12987883E-09
  -2.77999993E-02  -9.60875397E-08
  -2.77500004E-02  -1.54972227E-07
  -2.76999995E-02  -1.57473664E-07
  -2.76500005E-02  -1.15914744E-07
  -2.75999997E-02  -6.29159160E-08
  -2.75500007E-02  -3.69957860E-08
  -2.74999999E-02  -6.51797052E-08
  -2.74500009E-02  -1.50446581E-07
  -2.74000000E-02  -2.69816042E-07
  -2.73499992E-02  -3.84166356E-07
  -2.73000002E-02  -4.55567857E-07
  -2.72499993E-02  -4.64419116E-07
  -2.72000004E-02  -4.18601360E-07
  -2.71499995E-02  -3.50331703E-07
  -2.71000005E-02  -3.01892754E-07
  -2.70499997E-02  -3.06493291E-07
  -2.70000007E-02  -3.72857130E-07
  -2.69499999E-02  -4.80622475E-07
  -2.69000009E-02  -5.88865078E-07
  -2.68500000E-02  -6.54137750E-07
  -2.67999992E-02  -6.50019956E-07
  -2.67500002E-02  -5.79328628E-07
  -2.66999993E-02  -4.73306102E-07
  -2.66500004E-02  -3.77908123E-07
  -2.65999995E-02  -3.33176871E-07
  -2.65500005E-02  -3.54938095E-07
  -2.64999997E-02  -4.27177099E-07
  -2.64500007E-02  -5.08752350E-07
  -2.63999999E-02  -5.51659241E-07
  -2.63500009E-02  -5.22751122E-07
  -2.63000000E-02  -4.19102975E-07
  -2.62499992E-02  -2.69913158E-07
  -2.62000002E-02  -1.23833502E-07
  -2.61499994E-02  -2.72323817E-08
  -2.61000004E-02  -3.11894688E-09
  -2.60499995E-02  -4.03320328E-08
  -2.60000005E-02  -9.80952137E-08
  -2.59499997E-02  -1.24138552E-07
  -2.59000007E-02  -7.83838416E-08
  -2.58499999E-02   4.84803309E-08
  -2.58000009E-02   2.30070100E-07
  -2.57500000E-02   4.15500438E-07
  -2.56999992E-02   5.51882351E-07
  -2.56500002E-02   6.08079120E-07
  -2.55999994E-02   5.88927207E-07
  -2.55500004E-02   5.33293814E-07
  -2.54999995E-02   4.96590701E-07
  -2.54500005E-02   5.25458120E-07
  -2.53999997E-02   6.36029142E-07
  -2.53500007E-02   8.05739489E-07
  -2.52999999E-02   9.82634788E-07
  -2.52500009E-02   1.10822020E-06
  -2.52000000E-02   1.14366128E-06
  -2.51499992E-02   1.08745201E-06
  -2.51000002E-02   9.76367232E-07
  -2.50499994E-02   8.68998484E-07
  -2.50000004E-02   8.19100990E-07
  -2.49499995E-02   8.50740889E-07
  -2.49000005E-02   9.46598220E-07
  -2.48499997E-02   1.05495269E-06
  -2.48000007E-02   1.11244128E-06
  -2.47499999E-02   1.07243636E-06
  -2.47000009E-02   9.26174891E-07
  -2.46500000E-02   7.06895378E-07
  -2.45999992E-02   4.74853124E-07
  -2.45500002E-02   2.89789085E-07
  -2.44999994E-02   1.83261022E-07
  -2.44500004E-02   1.43484712E-07
  -2.43999995E-02   1.19802593E-07
  -2.43500005E-02   4.50338256E-08
  -2.42999997E-02  -1.34245226E-07
  -2.42500007E-02  -4.33226205E-07
  -2.41999999E-02  -8.21484434E-07
  -2.41500009E-02  -1.23631969E-06
  -2.41000000E-02  -1.61102537E-06
  -2.40499992E-02  -1.90537423E-06
  -2.40000002E-02  -2.12440909E-06
  -2.39499994E-02  -2.31677882E-06
  -2.39000004E-02  -2.55309806E-06
  -2.38499995E-02  -2.89395552E-06
  -2.38000005E-02  -3.36207654E-06
  -2.37499997E-02  -3.93143000E-06
  -2.37000007E-02  -4.53851135E-06
  -2.36499999E-02  -5.11093231E-06
  -2.36000009E-02  -5.60045555E-06
  -2.35500000E-02  -6.00537896E-06
  -2.34999992E-02  -6.37185440E-06
  -2.34500002E-02  -6.77323715E-06
  -2.33999994E-02  -7.27663019E-06
  -2.33500004E-02  -7.91179082E-06
  -2.32999995E-02  -8.65670972E-06
  -2.32500006E-02  -9.44669500E-06
  -2.31999997E-02  -1.02031372E-05
  -2.31500007E-02  -1.08690274E-05
  -2.30999999E-02  -1.14350269E-05
  -2.30500009E-02  -1.19440174E-05
  -2.30000000E-02  -1.24717335E-05
  -2.29499992E-02  -1.30920535E-05
  -2.29000002E-02  -1.38426958E-05
  -2.28499994E-02  -1.47070914E-05
  -2.28000004E-02  -1.56209771E-05
  -2.27499995E-02  -1.65010097E-05
  -2.27000006E-02  -1.72825512E-05
  -2.26499997E-02  -1.79493654E-05
  -2.26000007E-02  -1.85414356E-05
  -2.25499999E-02  -1.91370164E-05
  -2.25000009E-02  -1.98168182E-05
  -2.24500000E-02  -2.06265413E-05
  -2.23999992E-02  -2.15549917E-05
  -2.23500002E-02  -2.25380591E-05
  -2.22999994E-02  -2.34870931E-05
  -2.22500004E-02  -2.43290324E-05
  -2.21999995E-02  -2.50399025E-05
  -2.21500006E-02  -2.56561943E-05
  -2.20999997E-02  -2.62585709E-05
  -2.20500007E-02  -2.69350239E-05
  -2.19999999E-02  -2.77401814E-05
  -2.19500009E-02  -2.86694540E-05
  -2.19000001E-02  -2.96601447E-05
  -2.18499992E-02  -3.06193979E-05
  -2.18000002E-02  -3.14665194E-05
  -2.17499994E-02  -3.21704356E-05
  -2.17000004E-02  -3.27648086E-05
  -2.16499995E-02  -3.33336793E-05
  -2.16000006E-02  -3.39736980E-05
  -2.15499997E-02  -3.47500609E-05
  -2.15000007E-02  -3.56662385E-05
  -2.14499999E-02  -3.66617678E-05
  -2.14000009E-02  -3.76395437E-05
  -2.13500001E-02  -3.85103558E-05
  -2.12999992E-02  -3.92344264E-05
  -2.12500002E-02  -3.98408520E-05
  -2.11999994E-02  -4.04154925E-05
  -2.11500004E-02  -4.10625980E-05
  -2.10999995E-02  -4.18574964E-05
  -2.10500006E-02  -4.28119274E-05
  -2.09999997E-02  -4.38682328E-05
  -2.09500007E-02  -4.49256368E-05
  -2.08999999E-02  -4.58868635E-05
  -2.08500009E-02  -4.67038917E-05
  -2.08000001E-02  -4.74018780E-05
  -2.07499992E-02  -4.80697308E-05
  -2.07000002E-02  -4.88210571E-05
  -2.06499994E-02  -4.97432302E-05
  -2.06000004E-02  -5.08576559E-05
  -2.05499995E-02  -5.21099319E-05
  -2.05000006E-02  -5.33947350E-05
  -2.04499997E-02  -5.46043702E-05
  -2.04000007E-02  -5.56793675E-05
  -2.03499999E-02  -5.66374365E-05
  -2.03000009E-02  -5.75674239E-05
  -2.02500001E-02  -5.85902271E-05
  -2.01999992E-02  -5.98044462E-05
  -2.01500002E-02  -6.12414224E-05
  -2.00999994E-02  -6.28505368E-05
  -2.00500004E-02  -6.45222462E-05
  -1.99999996E-02  -6.61385566E-05
  -1.99500006E-02  -6.76283016E-05
  -1.98999997E-02  -6.90018351E-05
  -1.98500007E-02  -7.03487240E-05
  -1.97999999E-02  -7.17988733E-05
  -1.97500009E-02  -7.34644855E-05
  -1.97000001E-02  -7.53892746E-05
  -1.96499992E-02  -7.75281806E-05
  -1.96000002E-02  -7.97675311E-05
  -1.95499994E-02  -8.19771740E-05
  -1.95000004E-02  -8.40708235E-05
  -1.94499996E-02  -8.60470318E-05
  -1.94000006E-02  -8.79920699E-05
  -1.93499997E-02  -9.00419545E-05
  -1.93000007E-02  -9.23213302E-05
  -1.92499999E-02  -9.48866364E-05
  -1.92000009E-02  -9.76996380E-05
  -1.91500001E-02  -1.00644182E-04
  -1.90999992E-02  -1.03578866E-04
  -1.90500002E-02  -1.06402644E-04
  -1.89999994E-02  -1.09102744E-04
  -1.89500004E-02  -1.11762536E-04
  -1.88999996E-02  -1.14525574E-04
  -1.88500006E-02  -1.17531505E-04
  -1.87999997E-02  -1.20852623E-04
  -1.87500007E-02  -1.24460232E-04
  -1.86999999E-02  -1.28236876E-04
  -1.86500009E-02  -1.32029643E-04
  -1.86000001E-02  -1.35720227E-04
  -1.85499992E-02  -1.39280382E-04
  -1.85000002E-02  -1.42787001E-04
  -1.84499994E-02  -1.46389022E-04
  -1.84000004E-02  -1.50240623E-04
  -1.83499996E-02  -1.54431051E-04
  -1.83000006E-02  -1.58943250E-04
  -1.82499997E-02  -1.63660719E-04
  -1.82000007E-02  -1.68420142E-04
  -1.81499999E-02  -1.73085646E-04
  -1.81000009E-02  -1.77612645E-04
  -1.80500001E-02  -1.82070537E-04
  -1.79999992E-02  -1.86613383E-04
  -1.79500002E-02  -1.91411484E-04
  -1.78999994E-02  -1.96574663E-04
  -1.78500004E-02  -2.02102092E-04
  -1.77999996E-02  -2.07882083E-04
  -1.77500006E-02  -2.13743057E-04
  -1.76999997E-02  -2.19531925E-04
  -1.76500008E-02  -2.25185853E-04
  -1.75999999E-02  -2.30763457E-04
  -1.75500009E-02  -2.36420121E-04
  -1.75000001E-02  -2.42339636E-04
  -1.74499992E-02  -2.48651661E-04
  -1.74000002E-02  -2.55372521E-04
  -1.73499994E-02  -2.62397516E-04
  -1.73000004E-02  -2.69547978E-04
  -1.72499996E-02  -2.76653300E-04
  -1.72000006E-02  -2.83630943E-04
  -1.71499997E-02  -2.90526630E-04
  -1.71000008E-02  -2.97496794E-04
  -1.70499999E-02  -3.04740650E-04
  -1.70000009E-02  -3.12411634E-04
  -1.69500001E-02  -3.20548628E-04
  -1.68999992E-02  -3.29059170E-04
  -1.68500002E-02  -3.37762554E-04
  -1.67999994E-02  -3.46473011E-04
  -1.67500004E-02  -3.55087192E-04
  -1.66999996E-02  -3.63635132E-04
  -1.66500006E-02  -3.72269773E-04
  -1.65999997E-02  -3.81201389E-04
  -1.65500008E-02  -3.90604197E-04
  -1.64999999E-02  -4.00538207E-04
  -1.64500009E-02  -4.10922919E-04
  -1.64000001E-02  -4.21574834E-04
  -1.63499992E-02  -4.32291999E-04
  -1.63000003E-02  -4.42948367E-04
  -1.62499994E-02  -4.53555316E-04
  -1.62000004E-02  -4.64259938E-04
  -1.61499996E-02  -4.75282373E-04
  -1.61000006E-02  -4.86820441E-04
  -1.60499997E-02  -4.98961832E-04
  -1.60000008E-02  -5.11645223E-04
  -1.59499999E-02  -5.24690549E-04
  -1.59000009E-02  -5.37882384E-04
  -1.58500001E-02  -5.51071251E-04
  -1.57999992E-02  -5.64245332E-04
  -1.57500003E-02  -5.77540253E-04
  -1.56999994E-02  -5.91181277E-04
  -1.56500004E-02  -6.05383306E-04
  -1.55999996E-02  -6.20255945E-04
  -1.55499997E-02  -6.35754957E-04
  -1.54999997E-02  -6.51703216E-04
  -1.54499998E-02  -6.67872839E-04
  -1.53999999E-02  -6.84090890E-04
  -1.53500000E-02  -7.00321514E-04
  -1.53000001E-02  -7.16687122E-04
  -1.52500002E-02  -7.33415072E-04
  -1.52000003E-02  -7.50739360E-04
  -1.51500003E-02  -7.68796133E-04
  -1.51000004E-02  -7.87564320E-04
  -1.50499996E-02  -8.06876167E-04
  -1.49999997E-02  -8.26495816E-04
  -1.49499997E-02  -8.46228970E-04
  -1.48999998E-02  -8.66013637E-04
  -1.48499999E-02  -8.85952380E-04
  -1.48000000E-02  -9.06269997E-04
  -1.47500001E-02  -9.27212997E-04
  -1.47000002E-02  -9.48941451E-04
  -1.46500003E-02  -9.71456233E-04
  -1.46000003E-02  -9.94599191E-04
  -1.45500004E-02  -1.01812906E-03
  -1.44999996E-02  -1.04183028E-03
  -1.44499997E-02  -1.06561475E-03
  -1.43999998E-02  -1.08956639E-03
  -1.43499998E-02  -1.11390441E-03
  -1.42999999E-02  -1.13888679E-03
  -1.42500000E-02  -1.16469699E-03
  -1.42000001E-02  -1.19136216E-03
  -1.41500002E-02  -1.21874269E-03
  -1.41000003E-02  -1.24659669E-03
  -1.40500003E-02  -1.27469294E-03
  -1.40000004E-02  -1.30291923E-03
  -1.39499996E-02  -1.33133645E-03
  -1.38999997E-02  -1.36015413E-03
  -1.38499998E-02  -1.38963992E-03
  -1.37999998E-02  -1.41999871E-03
  -1.37499999E-02  -1.45127985E-03
  -1.37000000E-02  -1.48336031E-03
  -1.36500001E-02  -1.51600060E-03
  -1.36000002E-02  -1.54895463E-03
  -1.35500003E-02  -1.58208504E-03
  -1.35000004E-02  -1.61543058E-03
  -1.34500004E-02  -1.64919102E-03
  -1.33999996E-02  -1.68363960E-03
  -1.33499997E-02  -1.71900098E-03
  -1.32999998E-02  -1.75535202E-03
  -1.32499998E-02  -1.79258909E-03
  -1.31999999E-02  -1.83047669E-03
  -1.31500000E-02  -1.86875800E-03
  -1.31000001E-02  -1.90727960E-03
  -1.30500002E-02  -1.94606429E-03
  -1.30000003E-02  -1.98529987E-03
  -1.29500004E-02  -2.02526129E-03
  -1.29000004E-02  -2.06619082E-03
  -1.28499996E-02  -2.10818858E-03
  -1.27999997E-02  -2.15116772E-03
  -1.27499998E-02  -2.19489937E-03
  -1.26999998E-02  -2.23912229E-03
  -1.26499999E-02  -2.28365813E-03
  -1.26000000E-02  -2.32850271E-03
  -1.25500001E-02  -2.37383088E-03
  -1.25000002E-02  -2.41991552E-03
  -1.24500003E-02  -2.46701087E-03
  -1.24000004E-02  -2.51523987E-03
  -1.23500004E-02  -2.56454083E-03
  -1.22999996E-02  -2.61470047E-03
  -1.22499997E-02  -2.66545662E-03
  -1.21999998E-02  -2.71662837E-03
  -1.21499998E-02  -2.76819663E-03
  -1.20999999E-02  -2.82031996E-03
  -1.20500000E-02  -2.87326635E-03
  -1.20000001E-02  -2.92729540E-03
  -1.19500002E-02  -2.98254378E-03
  -1.19000003E-02  -3.03896633E-03
  -1.18500004E-02  -3.09636258E-03
  -1.18000004E-02  -3.15447012E-03
  -1.17499996E-02  -3.21308407E-03
  -1.16999997E-02  -3.27216135E-03
  -1.16499998E-02  -3.33184237E-03
  -1.15999999E-02  -3.39238695E-03
  -1.15499999E-02  -3.45406798E-03
  -1.15000000E-02  -3.51704611E-03
  -1.14500001E-02  -3.58130271E-03
  -1.14000002E-02  -3.64665315E-03
  -1.13500003E-02  -3.71283852E-03
  -1.13000004E-02  -3.77964904E-03
  -1.12500004E-02  -3.84702464E-03
  -1.11999996E-02  -3.91508918E-03
  -1.11499997E-02  -3.98409320E-03
  -1.10999998E-02  -4.05429676E-03
  -1.10499999E-02  -4.12586890E-03
  -1.09999999E-02  -4.19880496E-03
  -1.09500000E-02  -4.27291775E-03
  -1.09000001E-02  -4.34793998E-03
  -1.08500002E-02  -4.42365091E-03
  -1.08000003E-02  -4.49997094E-03
  -1.07500004E-02  -4.57700854E-03
  -1.07000005E-02  -4.65501938E-03
  -1.06499996E-02  -4.73428052E-03
  -1.05999997E-02  -4.81497403E-03
  -1.05499998E-02  -4.89710970E-03
  -1.04999999E-02  -4.98052733E-03
  -1.04499999E-02  -5.06496336E-03
  -1.04000000E-02  -5.15018124E-03
  -1.03500001E-02  -5.23608923E-03
  -1.03000002E-02  -5.32276789E-03
  -1.02500003E-02  -5.41045051E-03
  -1.02000004E-02  -5.49941184E-03
  -1.01500005E-02  -5.58984000E-03
  -1.00999996E-02  -5.68175828E-03
  -1.00499997E-02  -5.77499950E-03
  -9.99999978E-03  -5.86928893E-03
  -9.94999986E-03  -5.96437417E-03
  -9.89999995E-03  -6.06014626E-03
  -9.85000003E-03  -6.15668437E-03
  -9.80000012E-03  -6.25421433E-03
  -9.75000020E-03  -6.35302020E-03
  -9.70000029E-03  -6.45330548E-03
  -9.65000037E-03  -6.55509531E-03
  -9.60000046E-03  -6.65823463E-03
  -9.54999961E-03  -6.76246034E-03
  -9.49999969E-03  -6.86751911E-03
  -9.44999978E-03  -6.97328337E-03
  -9.39999986E-03  -7.07982015E-03
  -9.34999995E-03  -7.18736229E-03
  -9.30000003E-03  -7.29618268E-03
  -9.25000012E-03  -7.40648201E-03
  -9.20000020E-03  -7.51830684E-03
  -9.15000029E-03  -7.63150165E-03
  -9.10000037E-03  -7.74578145E-03
  -9.05000046E-03  -7.86086731E-03
  -8.99999961E-03  -7.97660928E-03
  -8.94999970E-03  -8.09304137E-03
  -8.89999978E-03  -8.21036566E-03
  -8.84999987E-03  -8.32886342E-03
  -8.79999995E-03  -8.44875351E-03
  -8.75000004E-03  -8.57008900E-03
  -8.70000012E-03  -8.69272836E-03
  -8.65000021E-03  -8.81639961E-03
  -8.60000029E-03  -8.94080941E-03
  -8.55000038E-03  -9.06577241E-03
  -8.50000046E-03  -9.19132587E-03
  -8.44999962E-03  -9.31767188E-03
  -8.39999970E-03  -9.44509543E-03
  -8.34999979E-03  -9.57384612E-03
  -8.29999987E-03  -9.70399193E-03
  -8.24999996E-03  -9.83538944E-03
  -8.20000004E-03  -9.96774435E-03
  -8.15000013E-03  -1.01007335E-02
  -8.10000021E-03  -1.02341613E-02
  -8.05000030E-03  -1.03680249E-02
  -8.00000038E-03  -1.05025182E-02
  -7.95000046E-03  -1.06379241E-02
  -7.89999962E-03  -1.07744746E-02
  -7.84999970E-03  -1.09122526E-02
  -7.79999979E-03  -1.10511053E-02
  -7.74999987E-03  -1.11907097E-02
  -7.69999996E-03  -1.13307321E-02
  -7.65000004E-03  -1.14709465E-02
  -7.60000013E-03  -1.16112940E-02
  -7.55000021E-03  -1.17519507E-02
  -7.49999983E-03  -1.18932584E-02
  -7.44999992E-03  -1.20354956E-02
  -7.40000000E-03  -1.21787703E-02
  -7.35000009E-03  -1.23229492E-02
  -7.30000017E-03  -1.24676842E-02
  -7.24999979E-03  -1.26125962E-02
  -7.19999988E-03  -1.27574047E-02
  -7.14999996E-03  -1.29020466E-02
  -7.10000005E-03  -1.30466837E-02
  -7.05000013E-03  -1.31916320E-02
  -7.00000022E-03  -1.33371977E-02
  -6.94999984E-03  -1.34835057E-02
  -6.89999992E-03  -1.36304200E-02
  -6.85000001E-03  -1.37775941E-02
  -6.80000009E-03  -1.39245829E-02
  -6.75000018E-03  -1.40710268E-02
  -6.69999979E-03  -1.42168421E-02
  -6.64999988E-03  -1.43622011E-02
  -6.59999996E-03  -1.45074585E-02
  -6.55000005E-03  -1.46529265E-02
  -6.50000013E-03  -1.47987222E-02
  -6.45000022E-03  -1.49447126E-02
  -6.39999984E-03  -1.50904823E-02
  -6.34999992E-03  -1.52355470E-02
  -6.30000001E-03  -1.53795676E-02
  -6.25000009E-03  -1.55224353E-02
  -6.20000018E-03  -1.56643242E-02
  -6.14999980E-03  -1.58055555E-02
  -6.09999988E-03  -1.59464125E-02
  -6.04999997E-03  -1.60870831E-02
  -6.00000005E-03  -1.62274465E-02
  -5.95000014E-03  -1.63670983E-02
  -5.90000022E-03  -1.65055357E-02
  -5.84999984E-03  -1.66423414E-02
  -5.79999993E-03  -1.67773627E-02
  -5.75000001E-03  -1.69107094E-02
  -5.70000010E-03  -1.70426890E-02
  -5.65000018E-03  -1.71736684E-02
  -5.59999980E-03  -1.73038095E-02
  -5.54999989E-03  -1.74329784E-02
  -5.49999997E-03  -1.75608024E-02
  -5.45000006E-03  -1.76867265E-02
  -5.40000014E-03  -1.78102944E-02
  -5.35000023E-03  -1.79313216E-02
  -5.29999984E-03  -1.80498604E-02
  -5.24999993E-03  -1.81661826E-02
  -5.20000001E-03  -1.82806663E-02
  -5.15000010E-03  -1.83935724E-02
  -5.10000018E-03  -1.85047686E-02
  -5.04999980E-03  -1.86137967E-02
  -4.99999989E-03  -1.87201165E-02
  -4.94999997E-03  -1.88232157E-02
  -4.90000006E-03  -1.89228449E-02
  -4.85000014E-03  -1.90191250E-02
  -4.80000023E-03  -1.91123914E-02
  -4.74999985E-03  -1.92029793E-02
  -4.69999993E-03  -1.92911476E-02
  -4.65000002E-03  -1.93768162E-02
  -4.60000010E-03  -1.94595065E-02
  -4.55000019E-03  -1.95386037E-02
  -4.49999981E-03  -1.96135044E-02
  -4.44999989E-03  -1.96838435E-02
  -4.39999998E-03  -1.97496731E-02
  -4.35000006E-03  -1.98113471E-02
  -4.30000015E-03  -1.98693033E-02
  -4.25000023E-03  -1.99238323E-02
  -4.19999985E-03  -1.99749041E-02
  -4.14999994E-03  -2.00220458E-02
  -4.10000002E-03  -2.00645272E-02
  -4.05000011E-03  -2.01016720E-02
  -4.00000019E-03  -2.01330520E-02
  -3.94999981E-03  -2.01587006E-02
  -3.89999989E-03  -2.01789625E-02
  -3.84999998E-03  -2.01943275E-02
  -3.80000006E-03  -2.02051681E-02
  -3.74999992E-03  -2.02115066E-02
  -3.70000000E-03  -2.02129390E-02
  -3.65000009E-03  -2.02086773E-02
  -3.59999994E-03  -2.01978888E-02
  -3.55000002E-03  -2.01801434E-02
  -3.50000011E-03  -2.01553423E-02
  -3.44999996E-03  -2.01237053E-02
  -3.40000005E-03  -2.00857520E-02
  -3.34999990E-03  -2.00419780E-02
  -3.29999998E-03  -1.99925154E-02
  -3.25000007E-03  -1.99369583E-02
  -3.19999992E-03  -1.98745299E-02
  -3.15000000E-03  -1.98043585E-02
  -3.10000009E-03  -1.97257176E-02
  -3.04999994E-03  -1.96383372E-02
  -3.00000003E-03  -1.95425414E-02
  -2.95000011E-03  -1.94389448E-02
  -2.89999996E-03  -1.93280578E-02
  -2.85000005E-03  -1.92101020E-02
  -2.79999990E-03  -1.90847889E-02
  -2.74999999E-03  -1.89513005E-02
  -2.70000007E-03  -1.88087244E-02
  -2.64999992E-03  -1.86562631E-02
  -2.60000001E-03  -1.84934866E-02
  -2.55000009E-03  -1.83206238E-02
  -2.49999994E-03  -1.81381889E-02
  -2.45000003E-03  -1.79468207E-02
  -2.40000011E-03  -1.77470464E-02
  -2.34999997E-03  -1.75386611E-02
  -2.30000005E-03  -1.73208266E-02
  -2.24999990E-03  -1.70924366E-02
  -2.19999999E-03  -1.68525279E-02
  -2.15000007E-03  -1.66006181E-02
  -2.09999993E-03  -1.63367856E-02
  -2.05000001E-03  -1.60614885E-02
  -2.00000009E-03  -1.57754682E-02
  -1.94999995E-03  -1.54793197E-02
  -1.90000003E-03  -1.51729519E-02
  -1.85000000E-03  -1.48556530E-02
  -1.79999997E-03  -1.45263439E-02
  -1.75000005E-03  -1.41839394E-02
  -1.70000002E-03  -1.38277281E-02
  -1.64999999E-03  -1.34576494E-02
  -1.59999996E-03  -1.30742090E-02
  -1.55000004E-03  -1.26781855E-02
  -1.50000001E-03  -1.22701796E-02
  -1.44999998E-03  -1.18503598E-02
  -1.39999995E-03  -1.14182401E-02
  -1.35000004E-03  -1.09726172E-02
  -1.30000000E-03  -1.05122980E-02
  -1.24999997E-03  -1.00364126E-02
  -1.20000006E-03  -9.54472367E-03
  -1.15000003E-03  -9.03774146E-03
  -1.09999999E-03  -8.51625856E-03
  -1.04999996E-03  -7.98096880E-03
  -1.00000005E-03  -7.43211200E-03
  -9.50000016E-04  -6.86927512E-03
  -8.99999985E-04  -6.29145373E-03
  -8.50000011E-04  -5.69730485E-03
  -7.99999980E-04  -5.08585898E-03
  -7.50000007E-04  -4.45677759E-03
  -6.99999975E-04  -3.81025882E-03
  -6.50000002E-04  -3.14703048E-03
  -6.00000028E-04  -2.46805325E-03
  -5.49999997E-04  -1.77384494E-03
  -5.00000024E-04  -1.06401334E-03
  -4.49999992E-04  -3.37569130E-04
  -3.99999990E-04   4.06817126E-04
  -3.49999988E-04   1.17024546E-03
  -3.00000014E-04   1.95313431E-03
  -2.50000012E-04   2.75520794E-03
  -1.99999995E-04   3.57564422E-03
  -1.50000007E-04   4.41355770E-03
  -9.99999975E-05   5.26842522E-03
  -4.99999987E-05   6.14048913E-03
   0.00000000       7.03079067E-03
   4.99999987E-05   7.94062112E-03
   9.99999975E-05   8.87103751E-03
   1.50000007E-04   9.82253533E-03
   1.99999995E-04   1.07949758E-02
   2.50000012E-04   1.17876846E-02
   3.00000014E-04   1.27996858E-02
   3.49999988E-04   1.38303908E-02
   3.99999990E-04   1.48800090E-02
   4.49999992E-04   1.59494206E-02
   5.00000024E-04   1.70397963E-02
   5.49999997E-04   1.81521829E-02
   6.00000028E-04   1.92872118E-02
   6.50000002E-04   2.04448290E-02
   6.99999975E-04   2.16243789E-02
   7.50000007E-04   2.28249002E-02
   7.99999980E-04   2.40456648E-02
   8.50000011E-04   2.52865814E-02
   8.99999985E-04   2.65484024E-02
   9.50000016E-04   2.78323311E-02
   1.00000005E-03   2.91395709E-02
   1.04999996E-03   3.04708704E-02
   1.09999999E-03   3.18261795E-02
   1.15000003E-03   3.32047865E-02
   1.20000006E-03   3.46056931E-02
   1.24999997E-03   3.60281430E-02
   1.30000000E-03   3.74719612E-02
   1.35000004E-03   3.89377587E-02
   1.39999995E-03   4.04267162E-02
   1.44999998E-03   4.19401079E-02
   1.50000001E-03   4.34787050E-02
   1.55000004E-03   4.50424328E-02
   1.59999996E-03   4.66305837E-02
   1.64999999E-03   4.82421815E-02
   1.70000002E-03   4.98764329E-02
   1.75000005E-03   5.15330471E-02
   1.79999997E-03   5.32125346E-02
   1.85000000E-03   5.49159721E-02
   1.90000003E-03   5.66445105E-02
   1.94999995E-03   5.83989471E-02
   2.00000009E-03   6.01793192E-02
   2.05000001E-03   6.19849488E-02
   2.09999993E-03   6.38147220E-02
   2.15000007E-03   6.56676590E-02
   2.19999999E-03   6.75434023E-02
   2.24999990E-03   6.94423467E-02
   2.30000005E-03   7.13655055E-02
   2.34999997E-03   7.33140633E-02
   2.40000011E-03   7.52888247E-02
   2.45000003E-03   7.72899464E-02
   2.49999994E-03   7.93168172E-02
   2.55000009E-03   8.13683569E-02
   2.60000001E-03   8.34434405E-02
   2.64999992E-03   8.55413750E-02
   2.70000007E-03   8.76623988E-02
   2.74999999E-03   8.98074582E-02
   2.79999990E-03   9.19776782E-02