  -3.99999991E-02   0.00000000    
  -3.99499983E-02   0.00000000    
  -3.99000011E-02   0.00000000    
  -3.98500003E-02   0.00000000    
  -3.97999994E-02   1.65202485E-18
  -3.97499986E-02   1.28494815E-17
  -3.97000015E-02   5.07615695E-17
  -3.96500006E-02   1.38266601E-16
  -3.95999998E-02   3.00248219E-16
  -3.95499989E-02   5.72501946E-16
  -3.95000018E-02   1.01763735E-15
  -3.94500010E-02   1.71850894E-15
  -3.94000001E-02   2.73458785E-15
  -3.93499993E-02   4.05978318E-15
  -3.92999984E-02   5.64187428E-15
  -3.92500013E-02   7.46092963E-15
  -3.92000005E-02   9.57713472E-15
  -3.91499996E-02   1.20721440E-14
  -3.90999988E-02   1.49414308E-14
  -3.90500017E-02   1.80931879E-14
  -3.90000008E-02   2.15155246E-14
  -3.89500000E-02   2.54571856E-14
  -3.88999991E-02   3.03871782E-14
  -3.88499983E-02   3.66943482E-14
  -3.88000011E-02   4.43644145E-14
  -3.87500003E-02   5.29043565E-14
  -3.86999995E-02   6.15287918E-14
  -3.86499986E-02   6.94004858E-14
  -3.86000015E-02   7.58090896E-14
  -3.85500006E-02   8.04150922E-14
  -3.84999998E-02   8.36517135E-14
  -3.84499989E-02   8.69765550E-14
  -3.84000018E-02   9.23977623E-14
  -3.83500010E-02   1.01099616E-13
  -3.83000001E-02   1.11886418E-13
  -3.82499993E-02   1.20658691E-13
  -3.81999984E-02   1.21585847E-13
  -3.81500013E-02   1.09439882E-13
  -3.81000005E-02   8.17884375E-14
  -3.80499996E-02   4.00168790E-14
  -3.79999988E-02  -1.10382860E-14
  -3.79500017E-02  -6.45949630E-14
  -3.79000008E-02  -1.14356956E-13
  -3.78500000E-02  -1.57476625E-13
  -3.77999991E-02  -1.96881980E-13
  -3.77499983E-02  -2.41217013E-13
  -3.77000012E-02  -3.01462279E-13
  -3.76500003E-02  -3.85512423E-13
  -3.75999995E-02  -4.93863197E-13
  -3.75499986E-02  -6.19219845E-13
  -3.75000015E-02  -7.50323957E-13
  -3.74500006E-02  -8.77698576E-13
  -3.73999998E-02  -9.98330758E-13
  -3.73499990E-02  -1.11753011E-12
  -3.73000018E-02  -1.24766484E-12
  -3.72500010E-02  -1.40406003E-12
  -3.72000001E-02  -1.59866250E-12
  -3.71499993E-02  -1.83321240E-12
  -3.70999984E-02  -2.09510989E-12
  -3.70500013E-02  -2.35896697E-12
  -3.70000005E-02  -2.59400964E-12
  -3.69499996E-02  -2.77383281E-12
  -3.68999988E-02  -2.88363691E-12
  -3.68500017E-02  -2.92233815E-12
  -3.68000008E-02  -2.90056824E-12
  -3.67500000E-02  -2.83706305E-12
  -3.66999991E-02  -2.75454009E-12
  -3.66499983E-02  -2.67437439E-12
  -3.66000012E-02  -2.60981709E-12
  -3.65500003E-02  -2.55993469E-12
  -3.64999995E-02  -2.50791271E-12
  -3.64499986E-02  -2.42576423E-12
  -3.64000015E-02  -2.28399114E-12
  -3.63500006E-02  -2.06239778E-12
  -3.62999998E-02  -1.75818854E-12
  -3.62499990E-02  -1.38815760E-12
  -3.62000018E-02  -9.82020780E-13
  -3.61500010E-02  -5.65170415E-13
  -3.61000001E-02  -1.34282302E-13
  -3.60499993E-02   3.62972483E-13
  -3.59999985E-02   1.02816085E-12
  -3.59500013E-02   1.98139161E-12
  -3.59000005E-02   3.30470525E-12
  -3.58499996E-02   4.98221733E-12
  -3.57999988E-02   6.86864758E-12
  -3.57500017E-02   8.71051321E-12
  -3.57000008E-02   1.02233152E-11
  -3.56500000E-02   1.12023299E-11
  -3.55999991E-02   1.16240099E-11
  -3.55499983E-02   1.16890863E-11
  -3.55000012E-02   1.17729715E-11
  -3.54500003E-02   1.22850150E-11
  -3.53999995E-02   1.34843916E-11
  -3.53499986E-02   1.53347387E-11
  -3.53000015E-02   1.74788344E-11
  -3.52500007E-02   1.93687739E-11
  -3.51999998E-02   2.05125448E-11
  -3.51499990E-02   2.07307418E-11
  -3.51000018E-02   2.02944345E-11
  -3.50500010E-02   1.98543022E-11
  -3.50000001E-02   2.01607186E-11
  -3.49499993E-02   2.16781159E-11
  -3.48999985E-02   2.42672323E-11
  -3.48500013E-02   2.71082531E-11
  -3.48000005E-02   2.89515634E-11
  -3.47499996E-02   2.86340673E-11
  -3.46999988E-02   2.56531567E-11
  -3.46500017E-02   2.05223182E-11
  -3.46000008E-02   1.46920132E-11
  -3.45500000E-02   1.00026480E-11
  -3.44999991E-02   7.86567859E-12
  -3.44499983E-02   8.53245773E-12
  -3.44000012E-02   1.08203151E-11
  -3.43500003E-02   1.24952991E-11
  -3.42999995E-02   1.12176960E-11
  -3.42499986E-02   5.67053739E-12
  -3.42000015E-02  -3.65330856E-12
  -3.41500007E-02  -1.44410473E-11
  -3.40999998E-02  -2.34442049E-11
  -3.40499990E-02  -2.79527634E-11
  -3.40000018E-02  -2.72180594E-11
  -3.39500010E-02  -2.31151331E-11
  -3.39000002E-02  -1.96111894E-11
  -3.38499993E-02  -2.11351735E-11
  -3.37999985E-02  -3.04958420E-11
  -3.37500013E-02  -4.72995289E-11
  -3.37000005E-02  -6.76967996E-11
  -3.36499996E-02  -8.57479088E-11
  -3.35999988E-02  -9.59513857E-11
  -3.35500017E-02  -9.58650936E-11
  -3.35000008E-02  -8.75704648E-11
  -3.34500000E-02  -7.71361169E-11
  -3.33999991E-02  -7.21017135E-11
  -3.33499983E-02  -7.79650025E-11
  -3.33000012E-02  -9.52570245E-11
  -3.32500003E-02  -1.18691806E-10
  -3.31999995E-02  -1.39042583E-10
  -3.31499986E-02  -1.47145698E-10
  -3.31000015E-02  -1.38336120E-10
  -3.30500007E-02  -1.15223484E-10
  -3.29999998E-02  -8.72844505E-11
  -3.29499990E-02  -6.71116634E-11
  -3.29000019E-02  -6.47501219E-11
  -3.28500010E-02  -8.26214167E-11
  -3.28000002E-02  -1.13528277E-10
  -3.27499993E-02  -1.43023551E-10
  -3.26999985E-02  -1.55472357E-10
  -3.26500013E-02  -1.41295489E-10
  -3.26000005E-02  -1.02050604E-10
  -3.25499997E-02  -5.07060748E-11
  -3.24999988E-02  -6.50332262E-12
  -3.24500017E-02   1.36656571E-11
  -3.24000008E-02   3.58179415E-12
  -3.23500000E-02  -2.82811951E-11
  -3.22999991E-02  -6.13747039E-11
  -3.22499983E-02  -7.17212123E-11
  -3.22000012E-02  -4.30486619E-11
  -3.21500003E-02   2.46512602E-11
  -3.20999995E-02   1.13462281E-10
  -3.20499986E-02   1.94221292E-10
  -3.20000015E-02   2.39151865E-10
  -3.19500007E-02   2.35007180E-10
  -3.18999998E-02   1.90534991E-10
  -3.18499990E-02   1.34225450E-10
  -3.18000019E-02   1.02551578E-10
  -3.17500010E-02   1.23445684E-10
  -3.17000002E-02   2.02411976E-10
  -3.16499993E-02   3.18052112E-10
  -3.15999985E-02   4.29898922E-10
  -3.15500014E-02   4.95877006E-10
  -3.15000005E-02   4.91931385E-10
  -3.14499997E-02   4.24725088E-10
  -3.13999988E-02   3.30834721E-10
  -3.13500017E-02   2.61723143E-10
  -3.13000008E-02   2.60438976E-10
  -3.12500000E-02   3.40390743E-10
  -3.11999992E-02   4.76399531E-10
  -3.11500002E-02   6.13234685E-10
  -3.10999993E-02   6.89003410E-10
  -3.10500003E-02   6.63552546E-10
  -3.09999995E-02   5.38914691E-10
  -3.09500005E-02   3.61583929E-10
  -3.08999997E-02   2.04185654E-10
  -3.08500007E-02   1.33587391E-10
  -3.07999998E-02   1.79381315E-10
  -3.07500008E-02   3.17537552E-10
  -3.07000000E-02   4.77975326E-10
  -3.06499992E-02   5.74210013E-10
  -3.06000002E-02   5.42742074E-10
  -3.05499993E-02   3.74409698E-10
  -3.05000003E-02   1.22438823E-10
  -3.04499995E-02  -1.18208165E-10
  -3.04000005E-02  -2.52488058E-10
  -3.03499997E-02  -2.29871580E-10
  -3.03000007E-02  -7.12075399E-11
  -3.02499998E-02   1.35917708E-10
  -3.02000009E-02   2.73294526E-10
  -3.01500000E-02   2.44955417E-10
  -3.00999992E-02   2.32606625E-11
  -3.00500002E-02  -3.33720468E-10
  -2.99999993E-02  -7.03499259E-10
  -2.99500003E-02  -9.51693946E-10
  -2.98999995E-02  -9.93312432E-10
  -2.98500005E-02  -8.34837588E-10
  -2.97999997E-02  -5.76340642E-10
  -2.97500007E-02  -3.70204367E-10
  -2.96999998E-02  -3.53039681E-10
  -2.96500009E-02  -5.80844983E-10
  -2.96000000E-02  -9.97746219E-10
  -2.95499992E-02  -1.45486179E-09
  -2.95000002E-02  -1.77351933E-09
  -2.94499993E-02  -1.82609794E-09
  -2.94000003E-02  -1.59799707E-09
  -2.93499995E-02  -1.20087462E-09
  -2.93000005E-02  -8.28170477E-10
  -2.92499997E-02  -6.70208888E-10
  -2.92000007E-02  -8.25904789E-10
  -2.91499998E-02  -1.25177158E-09
  -2.91000009E-02  -1.77390203E-09
  -2.90500000E-02  -2.16083018E-09
  -2.89999992E-02  -2.22690510E-09
  -2.89500002E-02  -1.92009098E-09
  -2.88999993E-02  -1.35280154E-09
  -2.88500004E-02  -7.58497209E-10
  -2.87999995E-02  -3.90218552E-10
  -2.87500005E-02  -4.04833778E-10
  -2.86999997E-02  -7.85678911E-10
  -2.86500007E-02  -1.34127431E-09
  -2.85999998E-02  -1.78462123E-09
  -2.85500009E-02  -1.86060267E-09
  -2.85000000E-02  -1.46520962E-09
  -2.84499992E-02  -7.01270542E-10
  -2.84000002E-02   1.58151922E-10
  -2.83499993E-02   7.86390897E-10
  -2.83000004E-02   9.50129975E-10
  -2.82499995E-02   6.20637708E-10
  -2.82000005E-02  -3.51315114E-12
  -2.81499997E-02  -5.76801384E-10
  -2.81000007E-02  -7.58143048E-10
  -2.80499998E-02  -3.67204711E-10
  -2.80000009E-02   5.25792410E-10
  -2.79500000E-02   1.62098224E-09
  -2.78999992E-02   2.51587351E-09
  -2.78500002E-02   2.88495405E-09
  -2.77999993E-02   2.63189381E-09
  -2.77500004E-02   1.94337968E-09
  -2.76999995E-02   1.21561317E-09
  -2.76500005E-02   8.81599682E-10
  -2.75999997E-02   1.21390709E-09
  -2.75500007E-02   2.19203344E-09
  -2.74999999E-02   3.49779827E-09
  -2.74500009E-02   4.64630645E-09
  -2.74000000E-02   5.19844878E-09
  -2.73499992E-02   4.96143304E-09
  -2.73000002E-02   4.08545020E-09
  -2.72499993E-02   3.00820080E-09
  -2.72000004E-02   2.26643038E-09
  -2.71499995E-02   2.25501595E-09
  -2.71000005E-02   3.04127812E-09
  -2.70499997E-02   4.32120117E-09
  -2.70000007E-02   5.54293189E-09
  -2.69499999E-02   6.14781337E-09
  -2.69000009E-02   5.82383830E-09
  -2.68500000E-02   4.65678207E-09
  -2.67999992E-02   3.10638670E-09
  -2.67500002E-02   1.81186888E-09
  -2.66999993E-02   1.30860656E-09
  -2.66500004E-02   1.78125559E-09
  -2.65999995E-02   2.96672464E-09
  -2.65500005E-02   4.25652003E-09
  -2.64999997E-02   4.95932362E-09
  -2.64500007E-02   4.61063854E-09
  -2.63999999E-02   3.19105897E-09
  -2.63500009E-02   1.15117493E-09
  -2.63000000E-02  -7.74909470E-10
  -2.62499992E-02  -1.89045246E-09
  -2.62000002E-02  -1.85094551E-09
  -2.61499994E-02  -8.30493008E-10
  -2.61000004E-02   5.40368805E-10
  -2.60499995E-02   1.44512613E-09
  -2.60000005E-02   1.24481980E-09
  -2.59499997E-02  -2.26404548E-10
  -2.59000007E-02  -2.56934207E-09
  -2.58499999E-02  -4.97961183E-09
  -2.58000009E-02  -6.59551702E-09
  -2.57500000E-02  -6.88336854E-09
  -2.56999992E-02  -5.88779514E-09
  -2.56500002E-02  -4.22995816E-09
  -2.55999994E-02  -2.84634472E-09
  -2.55500004E-02  -2.57734478E-09
  -2.54999995E-02  -3.78580900E-09
  -2.54500005E-02  -6.17791152E-09
  -2.53999997E-02  -8.91318042E-09
  -2.53500007E-02  -1.09631957E-08
  -2.52999999E-02  -1.15656178E-08
  -2.52500009E-02  -1.05726539E-08
  -2.52000000E-02  -8.53431548E-09
  -2.51499992E-02  -6.47104459E-09
  -2.51000002E-02  -5.42831335E-09
  -2.50499994E-02  -6.00643268E-09
  -2.50000004E-02  -8.07568323E-09
  -2.49499995E-02  -1.08100231E-08
  -2.49000005E-02  -1.30339348E-08
  -2.48499997E-02  -1.37365213E-08
  -2.48000007E-02  -1.25278161E-08
  -2.47499999E-02  -9.83148940E-09
  -2.47000009E-02  -6.71977896E-09
  -2.46500000E-02  -4.45395454E-09
  -2.45999992E-02  -3.92712085E-09
  -2.45500002E-02  -5.25547739E-09
  -2.44999994E-02  -7.70497799E-09
  -2.44500004E-02  -9.99566740E-09
  -2.43999995E-02  -1.08587122E-08
  -2.43500005E-02  -9.60464597E-09
  -2.42999997E-02  -6.44931397E-09
  -2.42500007E-02  -2.44509835E-09
  -2.41999999E-02   9.63294111E-10
  -2.41500009E-02   2.57115262E-09
  -2.41000000E-02   1.95730943E-09
  -2.40499992E-02  -3.06134618E-10
  -2.40000002E-02  -2.88107049E-09
  -2.39499994E-02  -4.23888658E-09
  -2.39000004E-02  -3.33772787E-09
  -2.38499995E-02  -1.02654496E-10
  -2.38000005E-02   4.51094406E-09
  -2.37499997E-02   8.91082319E-09
  -2.37000007E-02   1.15559269E-08
  -2.36499999E-02   1.16413910E-08
  -2.36000009E-02   9.47527390E-09
  -2.35500000E-02   6.37036646E-09
  -2.34999992E-02   4.08580236E-09
  -2.34500002E-02   4.05421874E-09
  -2.33999994E-02   6.73258205E-09
  -2.33500004E-02   1.13691287E-08
  -2.32999995E-02   1.63019980E-08
  -2.32500006E-02   1.96718712E-08
  -2.31999997E-02   2.02430961E-08
  -2.31500007E-02   1.79707325E-08
  -2.30999999E-02   1.40538532E-08
  -2.30500009E-02   1.04366613E-08
  -2.30000000E-02   8.96327013E-09
  -2.29499992E-02   1.05524265E-08
  -2.29000002E-02   1.47600367E-08
  -2.28499994E-02   1.99349728E-08
  -2.28000004E-02   2.39159821E-08
  -2.27499995E-02   2.49751952E-08
  -2.27000006E-02   2.25956800E-08
  -2.26499997E-02   1.77326580E-08
  -2.26000007E-02   1.24273312E-08
  -2.25499999E-02   8.92702712E-09
  -2.25000009E-02   8.68947847E-09
  -2.24500000E-02   1.17109957E-08
  -2.23999992E-02   1.64868315E-08
  -2.23500002E-02   2.06394741E-08
  -2.22999994E-02   2.19539587E-08
  -2.22500004E-02   1.93709280E-08
  -2.21999995E-02   1.34940059E-08
  -2.21500006E-02   6.37163078E-09
  -2.20999997E-02   6.29952202E-10
  -2.20500007E-02  -1.67602565E-09
  -2.19999999E-02   1.02196116E-11
  -2.19500009E-02   4.46028059E-09
  -2.19000001E-02   9.16103549E-09
  -2.18499992E-02   1.14007870E-08
  -2.18000002E-02   9.47382528E-09
  -2.17499994E-02   3.47036000E-09
  -2.17000004E-02  -4.71144990E-09
  -2.16499995E-02  -1.21583463E-08
  -2.16000006E-02  -1.62089453E-08
  -2.15499997E-02  -1.56433284E-08
  -2.15000007E-02  -1.12628387E-08
  -2.14499999E-02  -5.58473978E-09
  -2.14000009E-02  -1.76306592E-09
  -2.13500001E-02  -2.19543383E-09
  -2.12999992E-02  -7.42867856E-09
  -2.12500002E-02  -1.58594666E-08
  -2.11999994E-02  -2.43852227E-08
  -2.11500004E-02  -2.97414395E-08
  -2.10999995E-02  -2.99478309E-08
  -2.10500006E-02  -2.52215369E-08
  -2.09999997E-02  -1.79359070E-08
  -2.09500007E-02  -1.16173364E-08
  -2.08999999E-02  -9.40206579E-09
  -2.08500009E-02  -1.26270905E-08
  -2.08000001E-02  -2.01872279E-08
  -2.07499992E-02  -2.89648678E-08
  -2.07000002E-02  -3.51687923E-08
  -2.06499994E-02  -3.60084300E-08
  -2.06000004E-02  -3.09644399E-08
  -2.05499995E-02  -2.20779892E-08
  -2.05000006E-02  -1.31040814E-08
  -2.04499997E-02  -7.87760079E-09
  -2.04000007E-02  -8.60171845E-09
  -2.03499999E-02  -1.48209454E-08
  -2.03000009E-02  -2.35551401E-08
  -2.02500001E-02  -3.05639460E-08
  -2.01999992E-02  -3.22054170E-08
  -2.01500002E-02  -2.70745630E-08
  -2.00999994E-02  -1.66848491E-08
  -2.00500004E-02  -4.86504170E-09
  -1.99999996E-02   3.89041599E-09
  -1.99500006E-02   6.40586784E-09
  -1.98999997E-02   2.26610997E-09
  -1.98500007E-02  -5.94190919E-09
  -1.97999999E-02  -1.37233425E-08
  -1.97500009E-02  -1.66472702E-08
  -1.97000001E-02  -1.23355299E-08
  -1.96499992E-02  -1.58018620E-09
  -1.96000002E-02   1.19300543E-08
  -1.95499994E-02   2.31842936E-08
  -1.95000004E-02   2.80515646E-08
  -1.94499996E-02   2.51405741E-08
  -1.94000006E-02   1.64785963E-08
  -1.93499997E-02   6.68058764E-09
  -1.93000007E-02   9.44942236E-10
  -1.92499999E-02   2.74532841E-09
  -1.92000009E-02   1.22430928E-08
  -1.91500001E-02   2.61443684E-08
  -1.90999992E-02   3.90954433E-08
  -1.90500002E-02   4.60261020E-08
  -1.89999994E-02   4.44138273E-08
  -1.89500004E-02   3.54562673E-08
  -1.88999996E-02   2.36071092E-08
  -1.88500006E-02   1.46488386E-08
  -1.87999997E-02   1.31347484E-08
  -1.87500007E-02   2.03301358E-08
  -1.86999999E-02   3.35819372E-08
  -1.86500009E-02   4.74265320E-08
  -1.86000001E-02   5.59746631E-08
  -1.85499992E-02   5.55333166E-08
  -1.85000002E-02   4.62982435E-08
  -1.84499994E-02   3.23439124E-08
  -1.84000004E-02   1.98831795E-08
  -1.83499996E-02   1.45416630E-08
  -1.83000006E-02   1.88446592E-08
  -1.82499997E-02   3.10410009E-08
  -1.82000007E-02   4.58122109E-08
  -1.81499999E-02   5.65832892E-08
  -1.81000009E-02   5.84322351E-08
  -1.80500001E-02   5.03110194E-08
  -1.79999992E-02   3.55753542E-08
  -1.79500002E-02   2.05589714E-08
  -1.78999994E-02   1.17970620E-08
  -1.78500004E-02   1.31155282E-08
  -1.77999996E-02   2.38821478E-08
  -1.77500006E-02   3.92176105E-08
  -1.76999997E-02   5.21048307E-08
  -1.76500008E-02   5.64858347E-08
  -1.75999999E-02   4.99800699E-08
  -1.75500009E-02   3.50092968E-08
  -1.75000001E-02   1.78007422E-08
  -1.74499992E-02   5.68096237E-09
  -1.74000002E-02   3.84180643E-09
  -1.73499994E-02   1.30087887E-08
  -1.73000004E-02   2.90646263E-08
  -1.72499996E-02   4.48200801E-08
  -1.72000006E-02   5.31743964E-08
  -1.71499997E-02   5.02770554E-08
  -1.71000008E-02   3.72821916E-08
  -1.70499999E-02   1.98980974E-08
  -1.70000009E-02   5.90321703E-09
  -1.69500001E-02   1.70712400E-09
  -1.68999992E-02   9.47375067E-09
  -1.68500002E-02   2.60968989E-08
  -1.67999994E-02   4.45074484E-08
  -1.67500004E-02   5.67572940E-08
  -1.66999996E-02   5.75316896E-08
  -1.66500006E-02   4.65354937E-08
  -1.65999997E-02   2.86760979E-08
  -1.65500008E-02   1.19362360E-08
  -1.64999999E-02   3.86001009E-09
  -1.64500009E-02   8.19146795E-09
  -1.64000001E-02   2.31590107E-08
  -1.63499992E-02   4.21953921E-08
  -1.63000003E-02   5.67881848E-08
  -1.62499994E-02   6.02171895E-08
  -1.62000004E-02   5.05368156E-08
  -1.61499996E-02   3.14654613E-08
  -1.61000006E-02   1.07659401E-08
  -1.60499997E-02  -3.18456772E-09
  -1.60000008E-02  -5.13137355E-09
  -1.59499999E-02   4.67017403E-09
  -1.59000009E-02   2.04903774E-08
  -1.58500001E-02   3.35858594E-08
  -1.57999992E-02   3.60245025E-08
  -1.57500003E-02   2.41917455E-08
  -1.56999994E-02   4.11220030E-10
  -1.56500004E-02  -2.80496035E-08
  -1.55999996E-02  -5.21710639E-08
  -1.55499997E-02  -6.51725287E-08
  -1.54999997E-02  -6.55414212E-08
  -1.54499998E-02  -5.77621257E-08
  -1.53999999E-02  -5.04011624E-08
  -1.53500000E-02  -5.23642179E-08
  -1.53000001E-02  -6.89746003E-08
  -1.52500002E-02  -9.96188874E-08
  -1.52000003E-02  -1.38004623E-07
  -1.51500003E-02  -1.74934286E-07
  -1.51000004E-02  -2.02378217E-07
  -1.50499996E-02  -2.17061029E-07
  -1.49999997E-02  -2.21972442E-07
  -1.49499997E-02  -2.25109105E-07
  -1.48999998E-02  -2.35991152E-07
  -1.48499999E-02  -2.61481205E-07
  -1.48000000E-02  -3.02744610E-07
  -1.47500001E-02  -3.54699637E-07
  -1.47000002E-02  -4.08223201E-07
  -1.46500003E-02  -4.54148449E-07
  -1.46000003E-02  -4.87308114E-07
  -1.45500004E-02  -5.08829146E-07
  -1.44999996E-02  -5.25650307E-07
  -1.44499997E-02  -5.47478749E-07
  -1.43999998E-02  -5.82513508E-07
  -1.43499998E-02  -6.33806565E-07
  -1.42999999E-02  -6.97877056E-07
  -1.42500000E-02  -7.66210007E-07
  -1.42000001E-02  -8.28975772E-07
  -1.41500002E-02  -8.79346430E-07
  -1.41000003E-02  -9.16517934E-07
  -1.40500003E-02  -9.46073214E-07
  -1.40000004E-02  -9.77527179E-07
  -1.39499996E-02  -1.02013701E-06
  -1.38999997E-02  -1.07878805E-06
  -1.38499998E-02  -1.15178852E-06
  -1.37999998E-02  -1.23156451E-06
  -1.37499999E-02  -1.30793717E-06
  -1.37000000E-02  -1.37255620E-06
  -1.36500001E-02  -1.42254453E-06
  -1.36000002E-02  -1.46175341E-06
  -1.35500003E-02  -1.49906487E-06
  -1.35000004E-02  -1.54445001E-06
  -1.34500004E-02  -1.60453783E-06
  -1.33999996E-02  -1.67968074E-06
  -1.33499997E-02  -1.76376761E-06
  -1.32999998E-02  -1.84687099E-06
  -1.32499998E-02  -1.91957201E-06
  -1.31999999E-02  -1.97709028E-06
  -1.31500000E-02  -2.02142724E-06
  -1.31000001E-02  -2.06047912E-06
  -1.30500002E-02  -2.10456710E-06
  -1.30000003E-02  -2.16187891E-06
  -1.29500004E-02  -2.23483630E-06
  -1.29000004E-02  -2.31901890E-06
  -1.28499996E-02  -2.40508098E-06
  -1.27999997E-02  -2.48283573E-06
  -1.27499998E-02  -2.54569864E-06
  -1.26999998E-02  -2.59355238E-06
  -1.26499999E-02  -2.63280640E-06
  -1.26000000E-02  -2.67361406E-06
  -1.25500001E-02  -2.72537318E-06
  -1.25000002E-02  -2.79262258E-06
  -1.24500003E-02  -2.87305488E-06
  -1.24000004E-02  -2.95848622E-06
  -1.23500004E-02  -3.03852789E-06
  -1.22999996E-02  -3.10520181E-06
  -1.22499997E-02  -3.15648708E-06
  -1.21999998E-02  -3.19722676E-06
  -1.21499998E-02  -3.23699851E-06
  -1.20999999E-02  -3.28600663E-06
  -1.20500000E-02  -3.35069603E-06
  -1.20000001E-02  -3.43095280E-06
  -1.19500002E-02  -3.52014285E-06
  -1.19000003E-02  -3.60809145E-06
  -1.18500004E-02  -3.68566180E-06
  -1.18000004E-02  -3.74880733E-06
  -1.17499996E-02  -3.80045685E-06
  -1.16999997E-02  -3.84928671E-06
  -1.16499998E-02  -3.90591458E-06
  -1.15999999E-02  -3.97838858E-06
  -1.15499999E-02  -4.06877007E-06
  -1.15000000E-02  -4.17232332E-06
  -1.14500001E-02  -4.27963414E-06
  -1.14000002E-02  -4.38085135E-06
  -1.13500003E-02  -4.47010598E-06
  -1.13000004E-02  -4.54815108E-06
  -1.12500004E-02  -4.62212847E-06
  -1.11999996E-02  -4.70252780E-06
  -1.11499997E-02  -4.79870778E-06
  -1.10999998E-02  -4.91483388E-06
  -1.10499999E-02  -5.04818172E-06
  -1.09999999E-02  -5.19052810E-06
  -1.09500000E-02  -5.33196544E-06
  -1.09000001E-02  -5.46529509E-06
  -1.08500002E-02  -5.58931515E-06
  -1.08000003E-02  -5.70940938E-06
  -1.07500004E-02  -5.83529345E-06
  -1.07000005E-02  -5.97695907E-06
  -1.06499996E-02  -6.14031524E-06
  -1.05999997E-02  -6.32462115E-06
  -1.05499998E-02  -6.52287963E-06
  -1.04999999E-02  -6.72501983E-06
  -1.04499999E-02  -6.92235244E-06
  -1.04000000E-02  -7.11148959E-06
  -1.03500001E-02  -7.29589374E-06
  -1.03000002E-02  -7.48427874E-06
  -1.02500003E-02  -7.68690643E-06
  -1.02000004E-02  -7.91126604E-06
  -1.01500005E-02  -8.15897783E-06
  -1.00999996E-02  -8.42523968E-06
  -1.00499997E-02  -8.70097392E-06
  -9.99999978E-03  -8.97694281E-06
  -9.94999986E-03  -9.24800770E-06
  -9.89999995E-03  -9.51543007E-06
  -9.85000003E-03  -9.78629669E-06
  -9.80000012E-03  -1.00704920E-05
  -9.75000020E-03  -1.03762686E-05
  -9.70000029E-03  -1.07066498E-05
  -9.65000037E-03  -1.10582578E-05
  -9.60000046E-03  -1.14228151E-05
  -9.54999961E-03  -1.17907839E-05
  -9.49999969E-03  -1.21553276E-05
  -9.44999978E-03  -1.25152901E-05
  -9.39999986E-03  -1.28758693E-05
  -9.34999995E-03  -1.32462237E-05
  -9.30000003E-03  -1.36355820E-05
  -9.25000012E-03  -1.40490611E-05
  -9.20000020E-03  -1.44853930E-05
  -9.15000029E-03  -1.49379393E-05
  -9.10000037E-03  -1.53974815E-05
  -9.05000046E-03  -1.58563435E-05
  -8.99999961E-03  -1.63118766E-05
  -8.94999970E-03  -1.67675207E-05
  -8.89999978E-03  -1.72312721E-05
  -8.84999987E-03  -1.77122292E-05
  -8.79999995E-03  -1.82169442E-05
  -8.75000004E-03  -1.87463957E-05
  -8.70000012E-03  -1.92956213E-05
  -8.65000021E-03  -1.98558901E-05
  -8.60000029E-03  -2.04185653E-05
  -8.55000038E-03  -2.09791815E-05
  -8.50000046E-03  -2.15390883E-05
  -8.44999962E-03  -2.21048485E-05
  -8.39999970E-03  -2.26852226E-05
  -8.34999979E-03  -2.32873263E-05
  -8.29999987E-03  -2.39141209E-05
  -8.24999996E-03  -2.45629017E-05
  -8.20000004E-03  -2.52263253E-05
  -8.15000013E-03  -2.58959408E-05
  -8.10000021E-03  -2.65662620E-05
  -8.05000030E-03  -2.72369452E-05
  -8.00000038E-03  -2.79129017E-05
  -7.95000046E-03  -2.86024133E-05
  -7.89999962E-03  -2.93138692E-05
  -7.84999970E-03  -3.00522952E-05
  -7.79999979E-03  -3.08167400E-05
  -7.74999987E-03  -3.16013393E-05
  -7.69999996E-03  -3.23981949E-05
  -7.65000004E-03  -3.32009731E-05
  -7.60000013E-03  -3.40078732E-05
  -7.55000021E-03  -3.48222493E-05
  -7.49999983E-03  -3.56511810E-05
  -7.44999992E-03  -3.65028536E-05
  -7.40000000E-03  -3.73831645E-05
  -7.35000009E-03  -3.82933540E-05
  -7.30000017E-03  -3.92300171E-05
  -7.24999979E-03  -4.01864854E-05
  -7.19999988E-03  -4.11555739E-05
  -7.14999996E-03  -4.21333571E-05
  -7.10000005E-03  -4.31211774E-05
  -7.05000013E-03  -4.41251323E-05
  -7.00000022E-03  -4.51535816E-05
  -6.94999984E-03  -4.62136741E-05
  -6.89999992E-03  -4.73086766E-05
  -6.85000001E-03  -4.84365155E-05
  -6.80000009E-03  -4.95922905E-05
  -6.75000018E-03  -5.07700242E-05
  -6.69999979E-03  -5.19649111E-05
  -6.64999988E-03  -5.31766345E-05
  -6.59999996E-03  -5.44096183E-05
  -6.55000005E-03  -5.56710402E-05
  -6.50000013E-03  -5.69692456E-05
  -6.45000022E-03  -5.83095025E-05
  -6.39999984E-03  -5.96914433E-05
  -6.34999992E-03  -6.11113064E-05
  -6.30000001E-03  -6.25632747E-05
  -6.25000009E-03  -6.40419166E-05
  -6.20000018E-03  -6.55444601E-05
  -6.14999980E-03  -6.70728987E-05
  -6.09999988E-03  -6.86339117E-05
  -6.04999997E-03  -7.02358375E-05
  -6.00000005E-03  -7.18848678E-05
  -5.95000014E-03  -7.35826761E-05
  -5.90000022E-03  -7.53266140E-05
  -5.84999984E-03  -7.71119594E-05
  -5.79999993E-03  -7.89334008E-05
  -5.75000001E-03  -8.07871475E-05
  -5.70000010E-03  -8.26739852E-05
  -5.65000018E-03  -8.45989343E-05
  -5.59999980E-03  -8.65684706E-05
  -5.54999989E-03  -8.85900154E-05
  -5.49999997E-03  -9.06690548E-05
  -5.45000006E-03  -9.28053269E-05
  -5.40000014E-03  -9.49938403E-05
  -5.35000023E-03  -9.72278358E-05
  -5.29999984E-03  -9.95031514E-05
  -5.24999993E-03  -1.01819809E-04
  -5.20000001E-03  -1.04180413E-04
  -5.15000010E-03  -1.06590101E-04
  -5.10000018E-03  -1.09056004E-04
  -5.04999980E-03  -1.11584697E-04
  -4.99999989E-03  -1.14178481E-04
  -4.94999997E-03  -1.16834461E-04
  -4.90000006E-03  -1.19546283E-04
  -4.85000014E-03  -1.22305981E-04
  -4.80000023E-03  -1.25110091E-04
  -4.74999985E-03  -1.27961554E-04
  -4.69999993E-03  -1.30866363E-04
  -4.65000002E-03  -1.33832044E-04
  -4.60000010E-03  -1.36865288E-04
  -4.55000019E-03  -1.39970536E-04
  -4.49999981E-03  -1.43146986E-04
  -4.44999989E-03  -1.46388847E-04
  -4.39999998E-03  -1.49690197E-04
  -4.35000006E-03  -1.53045752E-04
  -4.30000015E-03  -1.56455193E-04
  -4.25000023E-03  -1.59923628E-04
  -4.19999985E-03  -1.63457691E-04
  -4.14999994E-03  -1.67065693E-04
  -4.10000002E-03  -1.70754065E-04
  -4.05000011E-03  -1.74525063E-04
  -4.00000019E-03  -1.78372720E-04
  -3.94999981E-03  -1.82287011E-04
  -3.89999989E-03  -1.86260993E-04
  -3.84999998E-03  -1.90293431E-04
  -3.80000006E-03  -1.94387205E-04
  -3.74999992E-03  -1.98547263E-04
  -3.70000000E-03  -2.02784213E-04
  -3.65000009E-03  -2.07109159E-04
  -3.59999994E-03  -2.11525927E-04
  -3.55000002E-03  -2.16028828E-04
  -3.50000011E-03  -2.20608053E-04
  -3.44999996E-03  -2.25257332E-04
  -3.40000005E-03  -2.29974554E-04
  -3.34999990E-03  -2.34761450E-04
  -3.29999998E-03  -2.39624394E-04
  -3.25000007E-03  -2.44571507E-04
  -3.19999992E-03  -2.49611971E-04
  -3.15000000E-03  -2.54751852E-04
  -3.10000009E-03  -2.59992259E-04
  -3.04999994E-03  -2.65326671E-04
  -3.00000003E-03  -2.70740013E-04
  -2.95000011E-03  -2.76222563E-04
  -2.89999996E-03  -2.81777786E-04
  -2.85000005E-03  -2.87415489E-04
  -2.79999990E-03  -2.93145509E-04
  -2.74999999E-03  -2.98976840E-04
  -2.70000007E-03  -3.04915244E-04
  -2.64999992E-03  -3.10961623E-04
  -2.60000001E-03  -3.17114289E-04
  -2.55000009E-03  -3.23365675E-04
  -2.49999994E-03  -3.29700997E-04
  -2.45000003E-03  -3.36111465E-04
  -2.40000011E-03  -3.42603860E-04
  -2.34999997E-03  -3.49196169E-04
  -2.30000005E-03  -3.55904776E-04
  -2.24999990E-03  -3.62734660E-04
  -2.19999999E-03  -3.69682413E-04
  -2.15000007E-03  -3.76745185E-04
  -2.09999993E-03  -3.83919862E-04
  -2.05000001E-03  -3.91196518E-04
  -2.00000009E-03  -3.98560922E-04
  -1.94999995E-03  -4.06010018E-04
  -1.90000003E-03  -4.13559610E-04
  -1.85000000E-03  -4.21230681E-04
  -1.79999997E-03  -4.29039588E-04
  -1.75000005E-03  -4.36987903E-04
  -1.70000002E-03  -4.45066078E-04
  -1.64999999E-03  -4.53262357E-04
  -1.59999996E-03  -4.61563584E-04
  -1.55000004E-03  -4.69965074E-04
  -1.50000001E-03  -4.78466915E-04
  -1.44999998E-03  -4.87075566E-04
  -1.39999995E-03  -4.95803950E-04
  -1.35000004E-03  -5.04668395E-04
  -1.30000000E-03  -5.13682666E-04
  -1.24999997E-03  -5.22847171E-04
  -1.20000006E-03  -5.32150385E-04
  -1.15000003E-03  -5.41571528E-04
  -1.09999999E-03  -5.51093661E-04
  -1.04999996E-03  -5.60716144E-04
  -1.00000005E-03  -5.70455159E-04
  -9.50000016E-04  -5.80323336E-04
  -8.99999985E-04  -5.90337790E-04
  -8.50000011E-04  -6.00522035E-04
  -7.99999980E-04  -6.10878516E-04
  -7.50000007E-04  -6.21385174E-04
  -6.99999975E-04  -6.32017909E-04
  -6.50000002E-04  -6.42763858E-04
  -6.00000028E-04  -6.53621799E-04
  -5.49999997E-04  -6.64597901E-04
  -5.00000024E-04  -6.75704214E-04
  -4.49999992E-04  -6.86961226E-04
  -3.99999990E-04  -6.98395888E-04
  -3.49999988E-04  -7.10022694E-04
  -3.00000014E-04  -7.21818011E-04
  -2.50000012E-04  -7.33747438E-04
  -1.99999995E-04  -7.45789555E-04
  -1.50000007E-04  -7.57948030E-04
  -9.99999975E-05  -7.70236482E-04
  -4.99999987E-05  -7.82661198E-04
   0.00000000      -7.95242377E-04
   4.99999987E-05  -8.08015815E-04
   9.99999975E-05  -8.20990477E-04
   1.50000007E-04  -8.34153499E-04
   1.99999995E-04  -8.47476593E-04
   2.50000012E-04  -8.60926462E-04
   3.00000014E-04  -8.74492514E-04
   3.49999988E-04  -8.88175855E-04
   3.99999990E-04  -9.02001688E-04
   4.49999992E-04  -9.16006276E-04
   5.00000024E-04  -9.30205046E-04
   5.49999997E-04  -9.44607134E-04
   6.00000028E-04  -9.59221565E-04
   6.50000002E-04  -9.74021386E-04
   6.99999975E-04  -9.88963293E-04
   7.50000007E-04  -1.00401451E-03
   7.99999980E-04  -1.01916899E-03
   8.50000011E-04  -1.03446632E-03
   8.99999985E-04  -1.04996096E-03
   9.50000016E-04  -1.06568472E-03
   1.00000005E-03  -1.08163594E-03
   1.04999996E-03  -1.09779299E-03
   1.09999999E-03  -1.11413165E-03
   1.15000003E-03  -1.13063795E-03
   1.20000006E-03  -1.14729034E-03
   1.24999997E-03  -1.16405427E-03
   1.30000000E-03  -1.18094089E-03
   1.35000004E-03  -1.19800284E-03
   1.39999995E-03  -1.21529086E-03
   1.44999998E-03  -1.23283383E-03
   1.50000001E-03  -1.25062861E-03
   1.55000004E-03  -1.26864226E-03
   1.59999996E-03  -1.28681480E-03
   1.64999999E-03  -1.30510458E-03
   1.70000002E-03  -1.32350321E-03
   1.75000005E-03  -1.34203944E-03
   1.79999997E-03  -1.36076449E-03
   1.85000000E-03  -1.37971493E-03
   1.90000003E-03  -1.39890797E-03
   1.94999995E-03  -1.41835609E-03
   2.00000009E-03  -1.43804180E-03
   2.05000001E-03  -1.45791250E-03
   2.09999993E-03  -1.47792127E-03
   2.15000007E-03  -1.49802887E-03
   2.19999999E-03  -1.51823449E-03
   2.24999990E-03  -1.53859949E-03
   2.30000005E-03  -1.55919977E-03
   2.34999997E-03  -1.58007198E-03
   2.40000011E-03  -1.60120707E-03
   2.45000003E-03  -1.62257918E-03
   2.49999994E-03  -1.64413045E-03
   2.55000009E-03  -1.66579895E-03
   2.60000001E-03  -1.68756745E-03
   2.64999992E-03  -1.70945073E-03
   2.70000007E-03  -1.73149072E-03
   2.74999999E-03  -1.75372849E-03
   2.79999990E-03  -1.77619921E-03