  -3.99999991E-02   0.00000000    
  -3.99499983E-02   0.00000000    
  -3.99000011E-02   0.00000000    
  -3.98500003E-02   0.00000000    
  -3.97999994E-02  -4.00435886E-19
  -3.97499986E-02  -3.24182463E-18
  -3.97000015E-02  -1.40316583E-17
  -3.96500006E-02  -4.26824369E-17
  -3.95999998E-02  -1.01480794E-16
  -3.95499989E-02  -1.99314052E-16
  -3.95000018E-02  -3.34416310E-16
  -3.94500010E-02  -4.90497457E-16
  -3.94000001E-02  -6.40745484E-16
  -3.93499993E-02  -7.60267339E-16
  -3.92999984E-02  -8.42123650E-16
  -3.92500013E-02  -9.08436801E-16
  -3.92000005E-02  -1.00842671E-15
  -3.91499996E-02  -1.20015918E-15
  -3.90999988E-02  -1.52089954E-15
  -3.90500017E-02  -1.95894983E-15
  -3.90000008E-02  -2.44293852E-15
  -3.89500000E-02  -2.85888443E-15
  -3.88999991E-02  -3.09171600E-15
  -3.88499983E-02  -3.07310774E-15
  -3.88000011E-02  -2.81079350E-15
  -3.87500003E-02  -2.38120782E-15
  -3.86999995E-02  -1.88451215E-15
  -3.86499986E-02  -1.37990455E-15
  -3.86000015E-02  -8.30455083E-16
  -3.85500006E-02  -8.54937353E-17
  -3.84999998E-02   1.08543111E-15
  -3.84499989E-02   2.91574977E-15
  -3.84000018E-02   5.55374982E-15
  -3.83500010E-02   9.00538917E-15
  -3.83000001E-02   1.31397849E-14
  -3.82499993E-02   1.77592299E-14
  -3.81999984E-02   2.27018891E-14
  -3.81500013E-02   2.79278808E-14
  -3.81000005E-02   3.35487694E-14
  -3.80499996E-02   3.97898674E-14
  -3.79999988E-02   4.69063536E-14
  -3.79500017E-02   5.50925814E-14
  -3.79000008E-02   6.44231169E-14
  -3.78500000E-02   7.48473074E-14
  -3.77999991E-02   8.62330498E-14
  -3.77499983E-02   9.84307308E-14
  -3.77000012E-02   1.11317964E-13
  -3.76500003E-02   1.24798744E-13
  -3.75999995E-02   1.38763228E-13
  -3.75499986E-02   1.53043905E-13
  -3.75000015E-02   1.67406155E-13
  -3.74500006E-02   1.81581665E-13
  -3.73999998E-02   1.95312137E-13
  -3.73499990E-02   2.08353747E-13
  -3.73000018E-02   2.20416079E-13
  -3.72500010E-02   2.31060261E-13
  -3.72000001E-02   2.39627030E-13
  -3.71499993E-02   2.45274016E-13
  -3.70999984E-02   2.47162723E-13
  -3.70500013E-02   2.44756499E-13
  -3.70000005E-02   2.38104594E-13
  -3.69499996E-02   2.27937135E-13
  -3.68999988E-02   2.15429291E-13
  -3.68500017E-02   2.01629064E-13
  -3.68000008E-02   1.86735623E-13
  -3.67500000E-02   1.69565737E-13
  -3.66999991E-02   1.47546566E-13
  -3.66499983E-02   1.17381514E-13
  -3.66000012E-02   7.62178813E-14
  -3.65500003E-02   2.28511735E-14
  -3.64999995E-02  -4.16115642E-14
  -3.64499986E-02  -1.14047145E-13
  -3.64000015E-02  -1.90594380E-13
  -3.63500006E-02  -2.68454638E-13
  -3.62999998E-02  -3.47405969E-13
  -3.62499990E-02  -4.30208603E-13
  -3.62000018E-02  -5.21488939E-13
  -3.61500010E-02  -6.25393238E-13
  -3.61000001E-02  -7.42995129E-13
  -3.60499993E-02  -8.70748786E-13
  -3.59999985E-02  -1.00097003E-12
  -3.59500013E-02  -1.12446250E-12
  -3.59000005E-02  -1.23434021E-12
  -3.58499996E-02  -1.32934722E-12
  -3.57999988E-02  -1.41495116E-12
  -3.57500017E-02  -1.50130938E-12
  -3.57000008E-02  -1.59860070E-12
  -3.56500000E-02  -1.71158584E-12
  -3.55999991E-02  -1.83593006E-12
  -3.55499983E-02  -1.95834733E-12
  -3.55000012E-02  -2.06104600E-12
  -3.54500003E-02  -2.12891488E-12
  -3.53999995E-02  -2.15630508E-12
  -3.53499986E-02  -2.15004945E-12
  -3.53000015E-02  -2.12674908E-12
  -3.52500007E-02  -2.10491650E-12
  -3.51999998E-02  -2.09515023E-12
  -3.51499990E-02  -2.09288381E-12
  -3.51000018E-02  -2.07759894E-12
  -3.50500010E-02  -2.01975719E-12
  -3.50000001E-02  -1.89313691E-12
  -3.49499993E-02  -1.68733820E-12
  -3.48999985E-02  -1.41447173E-12
  -3.48500013E-02  -1.10609948E-12
  -3.48000005E-02  -8.00714746E-13
  -3.47499996E-02  -5.26630226E-13
  -3.46999988E-02  -2.87905902E-13
  -3.46500017E-02  -6.03378906E-14
  -3.46000008E-02   1.99516090E-13
  -3.45500000E-02   5.35198242E-13
  -3.44999991E-02   9.69151951E-13
  -3.44499983E-02   1.48932884E-12
  -3.44000012E-02   2.05077253E-12
  -3.43500003E-02   2.59294084E-12
  -3.42999995E-02   3.06609599E-12
  -3.42499986E-02   3.45507715E-12
  -3.42000015E-02   3.78882386E-12
  -3.41500007E-02   4.12967100E-12
  -3.40999998E-02   4.54549419E-12
  -3.40499990E-02   5.07627967E-12
  -3.40000018E-02   5.71044557E-12
  -3.39500010E-02   6.38309501E-12
  -3.39000002E-02   6.99911917E-12
  -3.38499993E-02   7.47256163E-12
  -3.37999985E-02   7.76520515E-12
  -3.37500013E-02   7.90613842E-12
  -3.37000005E-02   7.98142715E-12
  -3.36499996E-02   8.09616783E-12
  -3.35999988E-02   8.32444703E-12
  -3.35500017E-02   8.66982788E-12
  -3.35000008E-02   9.05592702E-12
  -3.34500000E-02   9.35410690E-12
  -3.33999991E-02   9.43835201E-12
  -3.33499983E-02   9.24370910E-12
  -3.33000012E-02   8.80104323E-12
  -3.32500003E-02   8.22972419E-12
  -3.31999995E-02   7.68816694E-12
  -3.31499986E-02   7.30195678E-12
  -3.31000015E-02   7.10139543E-12
  -3.30500007E-02   6.99848990E-12
  -3.29999998E-02   6.81726854E-12
  -3.29499990E-02   6.36748683E-12
  -3.29000019E-02   5.53071564E-12
  -3.28500010E-02   4.31967743E-12
  -3.28000002E-02   2.88131953E-12
  -3.27499993E-02   1.43820242E-12
  -3.26999985E-02   1.91193469E-13
  -3.26500013E-02  -7.73868437E-13
  -3.26000005E-02  -1.53177048E-12
  -3.25499997E-02  -2.29124207E-12
  -3.24999988E-02  -3.30352000E-12
  -3.24500017E-02  -4.74441710E-12
  -3.24000008E-02  -6.62314301E-12
  -3.23500000E-02  -8.76229818E-12
  -3.22999991E-02  -1.08632773E-11
  -3.22499983E-02  -1.26325105E-11
  -3.22000012E-02  -1.39139507E-11
  -3.21500003E-02  -1.47666896E-11
  -3.20999995E-02  -1.54481185E-11
  -3.20499986E-02  -1.63042531E-11
  -3.20000015E-02  -1.76121548E-11
  -3.19500007E-02  -1.94442951E-11
  -3.18999998E-02  -2.16189636E-11
  -3.18499990E-02  -2.37648217E-11
  -3.18000019E-02  -2.54765618E-11
  -3.17500010E-02  -2.64950492E-11
  -3.17000002E-02  -2.68300295E-11
  -3.16499993E-02  -2.67652601E-11
  -3.15999985E-02  -2.67368159E-11
  -3.15500014E-02  -2.71335766E-11
  -3.15000005E-02  -2.81077366E-11
  -3.14499997E-02  -2.94837071E-11
  -3.13999988E-02  -3.08133553E-11
  -3.13500017E-02  -3.15606326E-11
  -3.13000008E-02  -3.13378941E-11
  -3.12500000E-02  -3.00880328E-11
  -3.11999992E-02  -2.81255921E-11
  -3.11500002E-02  -2.60101940E-11
  -3.10999993E-02  -2.43014029E-11
  -3.10500003E-02  -2.33012151E-11
  -3.09999995E-02  -2.29017205E-11
  -3.09500005E-02  -2.26132394E-11
  -3.08999997E-02  -2.17691871E-11
  -3.08500007E-02  -1.98225811E-11
  -3.07999998E-02  -1.66027123E-11
  -3.07500008E-02  -1.24122743E-11
  -3.07000000E-02  -7.91262715E-12
  -3.06499992E-02  -3.83961526E-12
  -3.06000002E-02  -6.72215430E-13
  -3.05499993E-02   1.59612612E-12
  -3.05000003E-02   3.47358579E-12
  -3.04499995E-02   5.75577086E-12
  -3.04000005E-02   9.16838307E-12
  -3.03499997E-02   1.40234699E-11
  -3.03000007E-02   2.00471879E-11
  -3.02499998E-02   2.64658521E-11
  -3.02000009E-02   3.23228388E-11
  -3.01500000E-02   3.68921456E-11
  -3.00999992E-02   4.00042430E-11
  -3.00500002E-02   4.21317807E-11
  -2.99999993E-02   4.41858217E-11
  -2.99500003E-02   4.71033421E-11
  -2.98999995E-02   5.14055985E-11
  -2.98500005E-02   5.69277681E-11
  -2.97999997E-02   6.28506899E-11
  -2.97500007E-02   6.80330098E-11
  -2.96999998E-02   7.15049200E-11
  -2.96500009E-02   7.29052235E-11
  -2.96000000E-02   7.26599614E-11
  -2.95499992E-02   7.18106269E-11
  -2.95000002E-02   7.15554213E-11
  -2.94499993E-02   7.27006927E-11
  -2.94000003E-02   7.52682500E-11
  -2.93499995E-02   7.84431825E-11
  -2.93000005E-02   8.08994677E-11
  -2.92499997E-02   8.13703063E-11
  -2.92000007E-02   7.92140797E-11
  -2.91499998E-02   7.47193210E-11
  -2.91000009E-02   6.90011381E-11
  -2.90500000E-02   6.35211883E-11
  -2.89999992E-02   5.94354010E-11
  -2.89500002E-02   5.70591803E-11
  -2.88999993E-02   5.56967909E-11
  -2.88500004E-02   5.39254960E-11
  -2.87999995E-02   5.02217504E-11
  -2.87500005E-02   4.36577545E-11
  -2.86999997E-02   3.43550709E-11
  -2.86500007E-02   2.34810955E-11
  -2.85999998E-02   1.27738289E-11
  -2.85500009E-02   3.79325044E-12
  -2.85000000E-02  -2.77173098E-12
  -2.84499992E-02  -7.42592272E-12
  -2.84000002E-02  -1.16620281E-11
  -2.83499993E-02  -1.73018700E-11
  -2.83000004E-02  -2.56673172E-11
  -2.82499995E-02  -3.69495337E-11
  -2.82000005E-02  -5.00676237E-11
  -2.81499997E-02  -6.30958202E-11
  -2.81000007E-02  -7.40841208E-11
  -2.80499998E-02  -8.19143711E-11
  -2.80000009E-02  -8.68062774E-11
  -2.79500000E-02  -9.02344172E-11
  -2.78999992E-02  -9.42754416E-11
  -2.78500002E-02  -1.00662735E-10
  -2.77999993E-02  -1.09966272E-10
  -2.77500004E-02  -1.21271576E-10
  -2.76999995E-02  -1.32518663E-10
  -2.76500005E-02  -1.41368500E-10
  -2.75999997E-02  -1.46223825E-10
  -2.75500007E-02  -1.46949480E-10
  -2.74999999E-02  -1.44960002E-10
  -2.74500009E-02  -1.42616419E-10
  -2.74000000E-02  -1.42183598E-10
  -2.73499992E-02  -1.44804099E-10
  -2.73000002E-02  -1.49949525E-10
  -2.72499993E-02  -1.55608859E-10
  -2.72000004E-02  -1.59149388E-10
  -2.71499995E-02  -1.58481409E-10
  -2.71000005E-02  -1.53011839E-10
  -2.70499997E-02  -1.43952739E-10
  -2.70000007E-02  -1.33828601E-10
  -2.69499999E-02  -1.25382427E-10
  -2.69000009E-02  -1.20355392E-10
  -2.68500000E-02  -1.18685020E-10
  -2.67999992E-02  -1.18492466E-10
  -2.67500002E-02  -1.16885945E-10
  -2.66999993E-02  -1.11241127E-10
  -2.66500004E-02  -1.00397225E-10
  -2.65999995E-02  -8.52306004E-11
  -2.65500005E-02  -6.83333043E-11
  -2.64999997E-02  -5.29182219E-11
  -2.64500007E-02  -4.14219319E-11
  -2.63999999E-02  -3.44234884E-11
  -2.63500009E-02  -3.03707684E-11
  -2.63000000E-02  -2.62560650E-11
  -2.62499992E-02  -1.89607167E-11
  -2.62000002E-02  -6.68211450E-12
  -2.61499994E-02   1.01945796E-11
  -2.61000004E-02   2.91840475E-11
  -2.60499995E-02   4.67316741E-11
  -2.60000005E-02   5.97486643E-11
  -2.59499997E-02   6.69763481E-11
  -2.59000007E-02   6.95650204E-11
  -2.58499999E-02   7.05900338E-11
  -2.58000009E-02   7.36967501E-11
  -2.57500000E-02   8.14600332E-11
  -2.56999992E-02   9.41851042E-11
  -2.56500002E-02   1.09695468E-10
  -2.55999994E-02   1.24225019E-10
  -2.55500004E-02   1.34040043E-10
  -2.54999995E-02   1.37082845E-10
  -2.54500005E-02   1.33903874E-10
  -2.53999997E-02   1.27450828E-10
  -2.53500007E-02   1.21785346E-10
  -2.52999999E-02   1.20278523E-10
  -2.52500009E-02   1.24080718E-10
  -2.52000000E-02   1.31555461E-10
  -2.51499992E-02   1.38950976E-10
  -2.51000002E-02   1.42035592E-10
  -2.50499994E-02   1.37987177E-10
  -2.50000004E-02   1.26698554E-10
  -2.49499995E-02   1.10904383E-10
  -2.49000005E-02   9.50488924E-11
  -2.48499997E-02   8.33739952E-11
  -2.48000007E-02   7.80646658E-11
  -2.47499999E-02   7.82791887E-11
  -2.47000009E-02   8.05130823E-11
  -2.46500000E-02   8.01589350E-11
  -2.45999992E-02   7.35886907E-11
  -2.45500002E-02   5.98390434E-11
  -2.44999994E-02   4.11410246E-11
  -2.44500004E-02   2.20364282E-11
  -2.43999995E-02   7.44973874E-12
  -2.43500005E-02   5.56819619E-13
  -2.42999997E-02   1.39787335E-12
  -2.42500007E-02   6.86695622E-12
  -2.41999999E-02   1.21073949E-11
  -2.41500009E-02   1.27162430E-11
  -2.41000000E-02   6.78795648E-12
  -2.40499992E-02  -4.11730372E-12
  -2.40000002E-02  -1.55321693E-11
  -2.39499994E-02  -2.19467292E-11
  -2.39000004E-02  -1.91717857E-11
  -2.38499995E-02  -6.15779693E-12
  -2.38000005E-02   1.45481916E-11
  -2.37499997E-02   3.79330456E-11
  -2.37000007E-02   5.87562984E-11
  -2.36499999E-02   7.39174555E-11
  -2.36000009E-02   8.38987768E-11
  -2.35500000E-02   9.26256710E-11
  -2.34999992E-02   1.05782237E-10
  -2.34500002E-02   1.28307559E-10
  -2.33999994E-02   1.62175398E-10
  -2.33500004E-02   2.05450226E-10
  -2.32999995E-02   2.53059268E-10
  -2.32500006E-02   2.98961744E-10
  -2.31999997E-02   3.38770845E-10
  -2.31500007E-02   3.71666919E-10
  -2.30999999E-02   4.00740191E-10
  -2.30500009E-02   4.31586933E-10
  -2.30000000E-02   4.69758454E-10
  -2.29499992E-02   5.18181720E-10
  -2.29000002E-02   5.75696213E-10
  -2.28499994E-02   6.37373931E-10
  -2.28000004E-02   6.96500135E-10
  -2.27499995E-02   7.47357010E-10
  -2.27000006E-02   7.87580723E-10
  -2.26499997E-02   8.19038282E-10
  -2.26000007E-02   8.46815673E-10
  -2.25499999E-02   8.76747508E-10
  -2.25000009E-02   9.12567688E-10
  -2.24500000E-02   9.53946921E-10
  -2.23999992E-02   9.96301819E-10
  -2.23500002E-02   1.03248199E-09
  -2.22999994E-02   1.05560927E-09
  -2.22500004E-02   1.06181852E-09
  -2.21999995E-02   1.05168418E-09
  -2.21500006E-02   1.02968112E-09
  -2.20999997E-02   1.00190212E-09
  -2.20500007E-02   9.73024106E-10
  -2.19999999E-02   9.43869205E-10
  -2.19500009E-02   9.10646392E-10
  -2.19000001E-02   8.66228755E-10
  -2.18499992E-02   8.02921396E-10
  -2.18000002E-02   7.15501436E-10
  -2.17499994E-02   6.03184280E-10
  -2.17000004E-02   4.69632555E-10
  -2.16499995E-02   3.20986626E-10
  -2.16000006E-02   1.62772282E-10
  -2.15499997E-02  -2.94564395E-12
  -2.15000007E-02  -1.78899937E-10
  -2.14499999E-02  -3.71834924E-10
  -2.14000009E-02  -5.89932880E-10
  -2.13500001E-02  -8.39570191E-10
  -2.12999992E-02  -1.12284448E-09
  -2.12500002E-02  -1.43696555E-09
  -2.11999994E-02  -1.77579584E-09
  -2.11500004E-02  -2.13287943E-09
  -2.10999995E-02  -2.50461007E-09
  -2.10500006E-02  -2.89215163E-09
  -2.09999997E-02  -3.30123684E-09
  -2.09500007E-02  -3.73994036E-09
  -2.08999999E-02  -4.21537472E-09
  -2.08500009E-02  -4.73079664E-09
  -2.08000001E-02  -5.28439026E-09
  -2.07499992E-02  -5.87029048E-09
  -2.07000002E-02  -6.48138521E-09
  -2.06499994E-02  -7.11268111E-09
  -2.06000004E-02  -7.76373810E-09
  -2.05499995E-02  -8.43907433E-09
  -2.05000006E-02  -9.14636367E-09
  -2.04499997E-02  -9.89321780E-09
  -2.04000007E-02  -1.06839479E-08
  -2.03499999E-02  -1.15177698E-08
  -2.03000009E-02  -1.23892168E-08
  -2.02500001E-02  -1.32906344E-08
  -2.01999992E-02  -1.42156038E-08
  -2.01500002E-02  -1.51618398E-08
  -2.00999994E-02  -1.61322262E-08
  -2.00500004E-02  -1.71335781E-08
  -1.99999996E-02  -1.81736333E-08
  -1.99500006E-02  -1.92576319E-08
  -1.98999997E-02  -2.03859898E-08
  -1.98500007E-02  -2.15540776E-08
  -1.97999999E-02  -2.27542483E-08
  -1.97500009E-02  -2.39792080E-08
  -1.97000001E-02  -2.52252192E-08
  -1.96499992E-02  -2.64937530E-08
  -1.96000002E-02  -2.77908434E-08
  -1.95499994E-02  -2.91244238E-08
  -1.95000004E-02  -3.05008072E-08
  -1.94499996E-02  -3.19219176E-08
  -1.94000006E-02  -3.33844135E-08
  -1.93499997E-02  -3.48811611E-08
  -1.93000007E-02  -3.64044048E-08
  -1.92499999E-02  -3.79491745E-08
  -1.92000009E-02  -3.95155020E-08
  -1.91500001E-02  -4.11084500E-08
  -1.90999992E-02  -4.27359232E-08
  -1.90500002E-02  -4.44052617E-08
  -1.89999994E-02  -4.61201140E-08
  -1.89500004E-02  -4.78789595E-08
  -1.88999996E-02  -4.96759647E-08
  -1.88500006E-02  -5.15037506E-08
  -1.87999997E-02  -5.33568887E-08
  -1.87500007E-02  -5.52345476E-08
  -1.86999999E-02  -5.71411576E-08
  -1.86500009E-02  -5.90848117E-08
  -1.86000001E-02  -6.10740329E-08
  -1.85499992E-02  -6.31144701E-08
  -1.85000002E-02  -6.52068550E-08
  -1.84499994E-02  -6.73471732E-08
  -1.84000004E-02  -6.95289941E-08
  -1.83499996E-02  -7.17468396E-08
  -1.83000006E-02  -7.39992103E-08
  -1.82499997E-02  -7.62898438E-08
  -1.82000007E-02  -7.86267478E-08
  -1.81499999E-02  -8.10193725E-08
  -1.81000009E-02  -8.34752001E-08
  -1.80500001E-02  -8.59972786E-08
  -1.79999992E-02  -8.85837821E-08
  -1.79500002E-02  -9.12296798E-08
  -1.78999994E-02  -9.39300122E-08
  -1.78500004E-02  -9.66829461E-08
  -1.77999996E-02  -9.94917642E-08
  -1.77500006E-02  -1.02364382E-07
  -1.76999997E-02  -1.05311095E-07
  -1.76500008E-02  -1.08341162E-07
  -1.75999999E-02  -1.11459997E-07
  -1.75500009E-02  -1.14668097E-07
  -1.75000001E-02  -1.17962159E-07
  -1.74499992E-02  -1.21337791E-07
  -1.74000002E-02  -1.24792848E-07
  -1.73499994E-02  -1.28329731E-07
  -1.73000004E-02  -1.31955630E-07
  -1.72499996E-02  -1.35680850E-07
  -1.72000006E-02  -1.39515677E-07
  -1.71499997E-02  -1.43467375E-07
  -1.71000008E-02  -1.47538572E-07
  -1.70499999E-02  -1.51727633E-07
  -1.70000009E-02  -1.56031064E-07
  -1.69500001E-02  -1.60446618E-07
  -1.68999992E-02  -1.64975972E-07
  -1.68500002E-02  -1.69625622E-07
  -1.67999994E-02  -1.74405756E-07
  -1.67500004E-02  -1.79327472E-07
  -1.66999996E-02  -1.84399795E-07
  -1.66500006E-02  -1.89627428E-07
  -1.65999997E-02  -1.95010614E-07
  -1.65500008E-02  -2.00546907E-07
  -1.64999999E-02  -2.06234077E-07
  -1.64500009E-02  -2.12072919E-07
  -1.64000001E-02  -2.18068706E-07
  -1.63499992E-02  -2.24230831E-07
  -1.63000003E-02  -2.30570407E-07
  -1.62499994E-02  -2.37097368E-07
  -1.62000004E-02  -2.43818135E-07
  -1.61499996E-02  -2.50734701E-07
  -1.61000006E-02  -2.57845841E-07
  -1.60499997E-02  -2.65149623E-07
  -1.60000008E-02  -2.72646361E-07
  -1.59499999E-02  -2.80340544E-07
  -1.59000009E-02  -2.88240926E-07
  -1.58500001E-02  -2.96358849E-07
  -1.57999992E-02  -3.04705452E-07
  -1.57500003E-02  -3.13288950E-07
  -1.56999994E-02  -3.22113493E-07
  -1.56500004E-02  -3.31179393E-07
  -1.55999996E-02  -3.40485457E-07
  -1.55499997E-02  -3.50031684E-07
  -1.54999997E-02  -3.59821570E-07
  -1.54499998E-02  -3.69863017E-07
  -1.53999999E-02  -3.80167023E-07
  -1.53500000E-02  -3.90745441E-07
  -1.53000001E-02  -4.01608190E-07
  -1.52500002E-02  -4.12761523E-07
  -1.52000003E-02  -4.24207769E-07
  -1.51500003E-02  -4.35947186E-07
  -1.51000004E-02  -4.47980312E-07
  -1.50499996E-02  -4.60310730E-07
  -1.49999997E-02  -4.72946141E-07
  -1.49499997E-02  -4.85897772E-07
  -1.48999998E-02  -4.99178896E-07
  -1.48499999E-02  -5.12801478E-07
  -1.48000000E-02  -5.26774556E-07
  -1.47500001E-02  -5.41103361E-07
  -1.47000002E-02  -5.55790393E-07
  -1.46500003E-02  -5.70837642E-07
  -1.46000003E-02  -5.86249143E-07
  -1.45500004E-02  -6.02032856E-07
  -1.44999996E-02  -6.18200431E-07
  -1.44499997E-02  -6.34766138E-07
  -1.43999998E-02  -6.51744188E-07
  -1.43499998E-02  -6.69146630E-07
  -1.42999999E-02  -6.86981991E-07
  -1.42500000E-02  -7.05255673E-07
  -1.42000001E-02  -7.23971880E-07
  -1.41500002E-02  -7.43136297E-07
  -1.41000003E-02  -7.62757509E-07
  -1.40500003E-02  -7.82848588E-07
  -1.40000004E-02  -8.03425735E-07
  -1.39499996E-02  -8.24505946E-07
  -1.38999997E-02  -8.46104797E-07
  -1.38499998E-02  -8.68235190E-07
  -1.37999998E-02  -8.90906051E-07
  -1.37499999E-02  -9.14124485E-07
  -1.37000000E-02  -9.37898278E-07
  -1.36500001E-02  -9.62237436E-07
  -1.36000002E-02  -9.87156227E-07
  -1.35500003E-02  -1.01267244E-06
  -1.35000004E-02  -1.03880598E-06
  -1.34500004E-02  -1.06557582E-06
  -1.33999996E-02  -1.09299856E-06
  -1.33499997E-02  -1.12108717E-06
  -1.32999998E-02  -1.14985232E-06
  -1.32499998E-02  -1.17930404E-06
  -1.31999999E-02  -1.20945413E-06
  -1.31500000E-02  -1.24031828E-06
  -1.31000001E-02  -1.27191652E-06
  -1.30500002E-02  -1.30427088E-06
  -1.30000003E-02  -1.33740434E-06
  -1.29500004E-02  -1.37133748E-06
  -1.29000004E-02  -1.40608813E-06
  -1.28499996E-02  -1.44167063E-06
  -1.27999997E-02  -1.47809794E-06
  -1.27499998E-02  -1.51538427E-06
  -1.26999998E-02  -1.55354655E-06
  -1.26499999E-02  -1.59260583E-06
  -1.26000000E-02  -1.63258619E-06
  -1.25500001E-02  -1.67351311E-06
  -1.25000002E-02  -1.71541137E-06
  -1.24500003E-02  -1.75830246E-06
  -1.24000004E-02  -1.80220400E-06
  -1.23500004E-02  -1.84713190E-06
  -1.22999996E-02  -1.89310231E-06
  -1.22499997E-02  -1.94013364E-06
  -1.21999998E-02  -1.98824841E-06
  -1.21499998E-02  -2.03747391E-06
  -1.20999999E-02  -2.08783899E-06
  -1.20500000E-02  -2.13937278E-06
  -1.20000001E-02  -2.19210096E-06
  -1.19500002E-02  -2.24604537E-06
  -1.19000003E-02  -2.30122555E-06
  -1.18500004E-02  -2.35765879E-06
  -1.18000004E-02  -2.41536554E-06
  -1.17499996E-02  -2.47436924E-06
  -1.16999997E-02  -2.53469898E-06
  -1.16499998E-02  -2.59638568E-06
  -1.15999999E-02  -2.65946164E-06
  -1.15499999E-02  -2.72395664E-06
  -1.15000000E-02  -2.78989728E-06
  -1.14500001E-02  -2.85730630E-06
  -1.14000002E-02  -2.92620484E-06
  -1.13500003E-02  -2.99661497E-06
  -1.13000004E-02  -3.06856282E-06
  -1.12500004E-02  -3.14207978E-06
  -1.11999996E-02  -3.21720040E-06
  -1.11499997E-02  -3.29396107E-06
  -1.10999998E-02  -3.37239521E-06
  -1.10499999E-02  -3.45253397E-06
  -1.09999999E-02  -3.53440350E-06
  -1.09500000E-02  -3.61802722E-06
  -1.09000001E-02  -3.70342832E-06
  -1.08500002E-02  -3.79063431E-06
  -1.08000003E-02  -3.87967884E-06
  -1.07500004E-02  -3.97059830E-06
  -1.07000005E-02  -4.06343452E-06
  -1.06499996E-02  -4.15822569E-06
  -1.05999997E-02  -4.25500866E-06
  -1.05499998E-02  -4.35381344E-06
  -1.04999999E-02  -4.45466867E-06
  -1.04499999E-02  -4.55760119E-06
  -1.04000000E-02  -4.66263964E-06
  -1.03500001E-02  -4.76982041E-06
  -1.03000002E-02  -4.87918442E-06
  -1.02500003E-02  -4.99077487E-06
  -1.02000004E-02  -5.10463678E-06
  -1.01500005E-02  -5.22081109E-06
  -1.00999996E-02  -5.33933326E-06
  -1.00499997E-02  -5.46023375E-06
  -9.99999978E-03  -5.58354304E-06
  -9.94999986E-03  -5.70929342E-06
  -9.89999995E-03  -5.83752126E-06
  -9.85000003E-03  -5.96827067E-06
  -9.80000012E-03  -6.10159123E-06
  -9.75000020E-03  -6.23753158E-06
  -9.70000029E-03  -6.37613903E-06
  -9.65000037E-03  -6.51745495E-06
  -9.60000046E-03  -6.66151482E-06
  -9.54999961E-03  -6.80835001E-06
  -9.49999969E-03  -6.95799736E-06
  -9.44999978E-03  -7.11049643E-06
  -9.39999986E-03  -7.26589633E-06
  -9.34999995E-03  -7.42424982E-06
  -9.30000003E-03  -7.58561282E-06
  -9.25000012E-03  -7.75003900E-06
  -9.20000020E-03  -7.91757338E-06
  -9.15000029E-03  -8.08825644E-06
  -9.10000037E-03  -8.26212545E-06
  -9.05000046E-03  -8.43921680E-06
  -8.99999961E-03  -8.61957324E-06
  -8.94999970E-03  -8.80324205E-06
  -8.89999978E-03  -8.99028055E-06
  -8.84999987E-03  -9.18074966E-06
  -8.79999995E-03  -9.37470577E-06
  -8.75000004E-03  -9.57220163E-06
  -8.70000012E-03  -9.77328182E-06
  -8.65000021E-03  -9.97798634E-06
  -8.60000029E-03  -1.01863534E-05
  -8.55000038E-03  -1.03984285E-05
  -8.50000046E-03  -1.06142652E-05
  -8.44999962E-03  -1.08339218E-05
  -8.39999970E-03  -1.10574629E-05
  -8.34999979E-03  -1.12849539E-05
  -8.29999987E-03  -1.15164512E-05
  -8.24999996E-03  -1.17520058E-05
  -8.20000004E-03  -1.19916613E-05
  -8.15000013E-03  -1.22354559E-05
  -8.10000021E-03  -1.24834360E-05
  -8.05000030E-03  -1.27356552E-05
  -8.00000038E-03  -1.29921755E-05
  -7.95000046E-03  -1.32530649E-05
  -7.89999962E-03  -1.35183891E-05
  -7.84999970E-03  -1.37882089E-05
  -7.79999979E-03  -1.40625780E-05
  -7.74999987E-03  -1.43415400E-05
  -7.69999996E-03  -1.46251350E-05
  -7.65000004E-03  -1.49134094E-05
  -7.60000013E-03  -1.52064158E-05
  -7.55000021E-03  -1.55042162E-05
  -7.49999983E-03  -1.58068797E-05
  -7.44999992E-03  -1.61144835E-05
  -7.40000000E-03  -1.64270950E-05
  -7.35000009E-03  -1.67447688E-05
  -7.30000017E-03  -1.70675557E-05
  -7.24999979E-03  -1.73954941E-05
  -7.19999988E-03  -1.77286311E-05
  -7.14999996E-03  -1.80670158E-05
  -7.10000005E-03  -1.84107139E-05
  -7.05000013E-03  -1.87597925E-05
  -7.00000022E-03  -1.91143317E-05
  -6.94999984E-03  -1.94743989E-05
  -6.89999992E-03  -1.98400558E-05
  -6.85000001E-03  -2.02113479E-05
  -6.80000009E-03  -2.05883152E-05
  -6.75000018E-03  -2.09710033E-05
  -6.69999979E-03  -2.13594594E-05
  -6.64999988E-03  -2.17537436E-05
  -6.59999996E-03  -2.21539303E-05
  -6.55000005E-03  -2.25600907E-05
  -6.50000013E-03  -2.29722973E-05
  -6.45000022E-03  -2.33906139E-05
  -6.39999984E-03  -2.38150897E-05
  -6.34999992E-03  -2.42457663E-05
  -6.30000001E-03  -2.46826839E-05
  -6.25000009E-03  -2.51258862E-05
  -6.20000018E-03  -2.55754312E-05
  -6.14999980E-03  -2.60313846E-05
  -6.09999988E-03  -2.64938244E-05
  -6.04999997E-03  -2.69628272E-05
  -6.00000005E-03  -2.74384511E-05
  -5.95000014E-03  -2.79207488E-05
  -5.90000022E-03  -2.84097641E-05
  -5.84999984E-03  -2.89055151E-05
  -5.79999993E-03  -2.94080510E-05
  -5.75000001E-03  -2.99174153E-05
  -5.70000010E-03  -3.04336718E-05
  -5.65000018E-03  -3.09568859E-05
  -5.59999980E-03  -3.14871359E-05
  -5.54999989E-03  -3.20244908E-05
  -5.49999997E-03  -3.25689871E-05
  -5.45000006E-03  -3.31206684E-05
  -5.40000014E-03  -3.36795529E-05
  -5.35000023E-03  -3.42456733E-05
  -5.29999984E-03  -3.48190624E-05
  -5.24999993E-03  -3.53997748E-05
  -5.20000001E-03  -3.59878759E-05
  -5.15000010E-03  -3.65834312E-05
  -5.10000018E-03  -3.71865062E-05
  -5.04999980E-03  -3.77971446E-05
  -4.99999989E-03  -3.84153791E-05
  -4.94999997E-03  -3.90412242E-05
  -4.90000006E-03  -3.96746873E-05
  -4.85000014E-03  -4.03158010E-05
  -4.80000023E-03  -4.09645982E-05
  -4.74999985E-03  -4.16211296E-05
  -4.69999993E-03  -4.22854573E-05
  -4.65000002E-03  -4.29576285E-05
  -4.60000010E-03  -4.36376904E-05
  -4.55000019E-03  -4.43256540E-05
  -4.49999981E-03  -4.50215266E-05
  -4.44999989E-03  -4.57253082E-05
  -4.39999998E-03  -4.64369987E-05
  -4.35000006E-03  -4.71566200E-05
  -4.30000015E-03  -4.78842012E-05
  -4.25000023E-03  -4.86197932E-05
  -4.19999985E-03  -4.93634325E-05
  -4.14999994E-03  -5.01151553E-05
  -4.10000002E-03  -5.08749617E-05
  -4.05000011E-03  -5.16428408E-05
  -4.00000019E-03  -5.24187672E-05
  -3.94999981E-03  -5.32027334E-05
  -3.89999989E-03  -5.39947323E-05
  -3.84999998E-03  -5.47947639E-05
  -3.80000006E-03  -5.56028463E-05
  -3.74999992E-03  -5.64190232E-05
  -3.70000000E-03  -5.72433055E-05
  -3.65000009E-03  -5.80756714E-05
  -3.59999994E-03  -5.89161136E-05
  -3.55000002E-03  -5.97645703E-05
  -3.50000011E-03  -6.06209906E-05
  -3.44999996E-03  -6.14853416E-05
  -3.40000005E-03  -6.23576052E-05
  -3.34999990E-03  -6.32377778E-05
  -3.29999998E-03  -6.41258521E-05
  -3.25000007E-03  -6.50218280E-05
  -3.19999992E-03  -6.59256766E-05
  -3.15000000E-03  -6.68373468E-05
  -3.10000009E-03  -6.77567587E-05
  -3.04999994E-03  -6.86838539E-05
  -3.00000003E-03  -6.96185307E-05
  -2.95000011E-03  -7.05607454E-05
  -2.89999996E-03  -7.15104543E-05
  -2.85000005E-03  -7.24676429E-05
  -2.79999990E-03  -7.34322748E-05
  -2.74999999E-03  -7.44042991E-05
  -2.70000007E-03  -7.53836284E-05
  -2.64999992E-03  -7.63701682E-05
  -2.60000001E-03  -7.73637948E-05
  -2.55000009E-03  -7.83643991E-05
  -2.49999994E-03  -7.93718718E-05
  -2.45000003E-03  -8.03861476E-05
  -2.40000011E-03  -8.14071536E-05
  -2.34999997E-03  -8.24348172E-05
  -2.30000005E-03  -8.34690727E-05
  -2.24999990E-03  -8.45098184E-05
  -2.19999999E-03  -8.55569160E-05
  -2.15000007E-03  -8.66102055E-05
  -2.09999993E-03  -8.76695121E-05
  -2.05000001E-03  -8.87346687E-05
  -2.00000009E-03  -8.98055659E-05
  -1.94999995E-03  -9.08820875E-05
  -1.90000003E-03  -9.19641316E-05
  -1.85000000E-03  -9.30516035E-05
  -1.79999997E-03  -9.41443723E-05
  -1.75000005E-03  -9.52422488E-05
  -1.70000002E-03  -9.63450293E-05
  -1.64999999E-03  -9.74524810E-05
  -1.59999996E-03  -9.85644074E-05
  -1.55000004E-03  -9.96805975E-05
  -1.50000001E-03  -1.00800906E-04
  -1.44999998E-03  -1.01925209E-04
  -1.39999995E-03  -1.03053346E-04
  -1.35000004E-03  -1.04185157E-04
  -1.30000000E-03  -1.05320418E-04
  -1.24999997E-03  -1.06458872E-04
  -1.20000006E-03  -1.07600237E-04
  -1.15000003E-03  -1.08744243E-04
  -1.09999999E-03  -1.09890643E-04
  -1.04999996E-03  -1.11039211E-04
  -1.00000005E-03  -1.12189751E-04
  -9.50000016E-04  -1.13342052E-04
  -8.99999985E-04  -1.14495917E-04
  -8.50000011E-04  -1.15651092E-04
  -7.99999980E-04  -1.16807278E-04
  -7.50000007E-04  -1.17964119E-04
  -6.99999975E-04  -1.19121280E-04
  -6.50000002E-04  -1.20278433E-04
  -6.00000028E-04  -1.21435267E-04
  -5.49999997E-04  -1.22591533E-04
  -5.00000024E-04  -1.23746999E-04
  -4.49999992E-04  -1.24901402E-04
  -3.99999990E-04  -1.26054467E-04
  -3.49999988E-04  -1.27205843E-04
  -3.00000014E-04  -1.28355110E-04
  -2.50000012E-04  -1.29501816E-04
  -1.99999995E-04  -1.30645596E-04
  -1.50000007E-04  -1.31786044E-04
  -9.99999975E-05  -1.32922854E-04
  -4.99999987E-05  -1.34055736E-04
   0.00000000      -1.35184353E-04
   4.99999987E-05  -1.36308387E-04
   9.99999975E-05  -1.37427429E-04
   1.50000007E-04  -1.38541014E-04
   1.99999995E-04  -1.39648604E-04
   2.50000012E-04  -1.40749733E-04
   3.00000014E-04  -1.41843921E-04
   3.49999988E-04  -1.42930803E-04
   3.99999990E-04  -1.44009988E-04
   4.49999992E-04  -1.45081169E-04
   5.00000024E-04  -1.46143895E-04
   5.49999997E-04  -1.47197730E-04
   6.00000028E-04  -1.48242121E-04
   6.50000002E-04  -1.49276486E-04
   6.99999975E-04  -1.50300242E-04
   7.50000007E-04  -1.51312881E-04
   7.99999980E-04  -1.52313922E-04
   8.50000011E-04  -1.53302899E-04
   8.99999985E-04  -1.54279405E-04
   9.50000016E-04  -1.55242975E-04
   1.00000005E-03  -1.56193099E-04
   1.04999996E-03  -1.57129165E-04
   1.09999999E-03  -1.58050534E-04
   1.15000003E-03  -1.58956565E-04
   1.20000006E-03  -1.59846619E-04
   1.24999997E-03  -1.60720127E-04
   1.30000000E-03  -1.61576580E-04
   1.35000004E-03  -1.62415454E-04
   1.39999995E-03  -1.63236240E-04
   1.44999998E-03  -1.64038342E-04
   1.50000001E-03  -1.64821133E-04
   1.55000004E-03  -1.65583901E-04
   1.59999996E-03  -1.66325917E-04
   1.64999999E-03  -1.67046441E-04
   1.70000002E-03  -1.67744816E-04
   1.75000005E-03  -1.68420433E-04
   1.79999997E-03  -1.69072722E-04
   1.85000000E-03  -1.69701088E-04
   1.90000003E-03  -1.70304949E-04
   1.94999995E-03  -1.70883592E-04
   2.00000009E-03  -1.71436230E-04
   2.05000001E-03  -1.71962034E-04
   2.09999993E-03  -1.72460233E-04
   2.15000007E-03  -1.72930042E-04
   2.19999999E-03  -1.73370761E-04
   2.24999990E-03  -1.73781766E-04
   2.30000005E-03  -1.74162386E-04
   2.34999997E-03  -1.74511966E-04
   2.40000011E-03  -1.74829765E-04
   2.45000003E-03  -1.75114954E-04
   2.49999994E-03  -1.75366673E-04
   2.55000009E-03  -1.75583977E-04
   2.60000001E-03  -1.75766036E-04
   2.64999992E-03  -1.75912079E-04
   2.70000007E-03  -1.76021378E-04
   2.74999999E-03  -1.76093235E-04
   2.79999990E-03  -1.76126909E-04