  -3.99999991E-02   0.00000000    
  -3.99499983E-02   0.00000000    
  -3.99000011E-02   0.00000000    
  -3.98500003E-02   0.00000000    
  -3.97999994E-02  -2.23999037E-17
  -3.97499986E-02  -1.72375533E-16
  -3.97000015E-02  -6.68286443E-16
  -3.96500006E-02  -1.76403982E-15
  -3.95999998E-02  -3.65052438E-15
  -3.95499989E-02  -6.52271147E-15
  -3.95000018E-02  -1.07437456E-14
  -3.94500010E-02  -1.66850396E-14
  -3.94000001E-02  -2.40341533E-14
  -3.93499993E-02  -3.11967859E-14
  -3.92999984E-02  -3.58481115E-14
  -3.92500013E-02  -3.67487887E-14
  -3.92000005E-02  -3.53159816E-14
  -3.91499996E-02  -3.51211946E-14
  -3.90999988E-02  -3.93407434E-14
  -3.90500017E-02  -4.83867639E-14
  -3.90000008E-02  -5.98122490E-14
  -3.89500000E-02  -7.00337751E-14
  -3.88999991E-02  -7.55355387E-14
  -3.88499983E-02  -7.25359781E-14
  -3.88000011E-02  -5.69746277E-14
  -3.87500003E-02  -2.69165336E-14
  -3.86999995E-02   1.40981062E-14
  -3.86499986E-02   5.73444422E-14
  -3.86000015E-02   9.51460861E-14
  -3.85500006E-02   1.28888680E-13
  -3.84999998E-02   1.71222750E-13
  -3.84499989E-02   2.39425125E-13
  -3.84000018E-02   3.45345334E-13
  -3.83500010E-02   4.90406652E-13
  -3.83000001E-02   6.68191902E-13
  -3.82499993E-02   8.69258008E-13
  -3.81999984E-02   1.08245628E-12
  -3.81500013E-02   1.29422666E-12
  -3.81000005E-02   1.49209117E-12
  -3.80499996E-02   1.67349403E-12
  -3.79999988E-02   1.85175204E-12
  -3.79500017E-02   2.04996697E-12
  -3.79000008E-02   2.28505496E-12
  -3.78500000E-02   2.55571931E-12
  -3.77999991E-02   2.84579500E-12
  -3.77499983E-02   3.13886265E-12
  -3.77000012E-02   3.42846194E-12
  -3.76500003E-02   3.71418391E-12
  -3.75999995E-02   3.99071748E-12
  -3.75499986E-02   4.24471916E-12
  -3.75000015E-02   4.46369200E-12
  -3.74500006E-02   4.64514885E-12
  -3.73999998E-02   4.79303403E-12
  -3.73499990E-02   4.90392189E-12
  -3.73000018E-02   4.95851797E-12
  -3.72500010E-02   4.92756140E-12
  -3.72000001E-02   4.78297523E-12
  -3.71499993E-02   4.49850877E-12
  -3.70999984E-02   4.03970173E-12
  -3.70500013E-02   3.36248087E-12
  -3.70000005E-02   2.43646488E-12
  -3.69499996E-02   1.28179824E-12
  -3.68999988E-02  -1.43724889E-14
  -3.68500017E-02  -1.32589751E-12
  -3.68000008E-02  -2.54823896E-12
  -3.67500000E-02  -3.65333284E-12
  -3.66999991E-02  -4.70759109E-12
  -3.66499983E-02  -5.85087014E-12
  -3.66000012E-02  -7.25310567E-12
  -3.65500003E-02  -9.06122746E-12
  -3.64999995E-02  -1.13414703E-11
  -3.64499986E-02  -1.40325937E-11
  -3.64000015E-02  -1.69444354E-11
  -3.63500006E-02  -1.98296466E-11
  -3.62999998E-02  -2.25095411E-11
  -3.62499990E-02  -2.49815724E-11
  -3.62000018E-02  -2.74295968E-11
  -3.61500010E-02  -3.01151153E-11
  -3.61000001E-02  -3.32065937E-11
  -3.60499993E-02  -3.66431711E-11
  -3.59999985E-02  -4.01046765E-11
  -3.59500013E-02  -4.31029691E-11
  -3.59000005E-02  -4.51617355E-11
  -3.58499996E-02  -4.60250553E-11
  -3.57999988E-02  -4.58168052E-11
  -3.57500017E-02  -4.50618848E-11
  -3.57000008E-02  -4.45101803E-11
  -3.56500000E-02  -4.47940643E-11
  -3.55999991E-02  -4.60663764E-11
  -3.55499983E-02  -4.78213580E-11
  -3.55000012E-02  -4.90309841E-11
  -3.54500003E-02  -4.85642256E-11
  -3.53999995E-02  -4.56979801E-11
  -3.53499986E-02  -4.04743218E-11
  -3.53000015E-02  -3.37320623E-11
  -3.52500007E-02  -2.67813844E-11
  -3.51999998E-02  -2.08335450E-11
  -3.51499990E-02  -1.64044073E-11
  -3.51000018E-02  -1.29562307E-11
  -3.50500010E-02  -8.99103882E-12
  -3.50000001E-02  -2.63573711E-12
  -3.49499993E-02   7.49108501E-12
  -3.48999985E-02   2.15374350E-11
  -3.48500013E-02   3.82042419E-11
  -3.48000005E-02   5.52242349E-11
  -3.47499996E-02   7.03465342E-11
  -3.46999988E-02   8.23740451E-11
  -3.46500017E-02   9.17613971E-11
  -3.46000008E-02   1.00473234E-10
  -3.45500000E-02   1.11123617E-10
  -3.44999991E-02   1.25730537E-10
  -3.44499983E-02   1.44621190E-10
  -3.44000012E-02   1.66025499E-10
  -3.43500003E-02   1.86648405E-10
  -3.42999995E-02   2.03073253E-10
  -3.42499986E-02   2.13396384E-10
  -3.42000015E-02   2.18284460E-10
  -3.41500007E-02   2.20852406E-10
  -3.40999998E-02   2.25312588E-10
  -3.40499990E-02   2.34966074E-10
  -3.40000018E-02   2.50464677E-10
  -3.39500010E-02   2.69185590E-10
  -3.39000002E-02   2.86079133E-10
  -3.38499993E-02   2.95702046E-10
  -3.37999985E-02   2.94606367E-10
  -3.37500013E-02   2.83018942E-10
  -3.37000005E-02   2.64956529E-10
  -3.36499996E-02   2.46556942E-10
  -3.35999988E-02   2.33245728E-10
  -3.35500017E-02   2.27014810E-10
  -3.35000008E-02   2.25160959E-10
  -3.34500000E-02   2.21211868E-10
  -3.33999991E-02   2.07729361E-10
  -3.33499983E-02   1.79748383E-10
  -3.33000012E-02   1.37259301E-10
  -3.32500003E-02   8.55351623E-11
  -3.31999995E-02   3.30535530E-11
  -3.31499986E-02  -1.21716890E-11
  -3.31000015E-02  -4.62751365E-11
  -3.30500007E-02  -7.15443052E-11
  -3.29999998E-02  -9.56854110E-11
  -3.29499990E-02  -1.28485375E-10
  -3.29000019E-02  -1.77280621E-10
  -3.28500010E-02  -2.43337295E-10
  -3.28000002E-02  -3.20937860E-10
  -3.27499993E-02  -3.99743461E-10
  -3.26999985E-02  -4.69414674E-10
  -3.26500013E-02  -5.24355170E-10
  -3.26000005E-02  -5.66352798E-10
  -3.25499997E-02  -6.03824490E-10
  -3.24999988E-02  -6.47891241E-10
  -3.24500017E-02  -7.06962378E-10
  -3.24000008E-02  -7.82263865E-10
  -3.23500000E-02  -8.66469285E-10
  -3.22999991E-02  -9.46287826E-10
  -3.22499983E-02  -1.00805286E-09
  -3.22000012E-02  -1.04383180E-09
  -3.21500003E-02  -1.05514486E-09
  -3.20999995E-02  -1.05240094E-09
  -3.20499986E-02  -1.05016551E-09
  -3.20000015E-02  -1.06038200E-09
  -3.19500007E-02  -1.08664688E-09
  -3.18999998E-02  -1.12218124E-09
  -3.18499990E-02  -1.15249055E-09
  -3.18000019E-02  -1.16159804E-09
  -3.17500010E-02  -1.13913223E-09
  -3.17000002E-02  -1.08507359E-09
  -3.16499993E-02  -1.00989284E-09
  -3.15999985E-02  -9.29830046E-10
  -3.15500014E-02  -8.59365412E-10
  -3.15000005E-02  -8.04358968E-10
  -3.14499997E-02  -7.59121044E-10
  -3.13999988E-02  -7.08844372E-10
  -3.13500017E-02  -6.36292019E-10
  -3.13000008E-02  -5.29618682E-10
  -3.12500000E-02  -3.87717330E-10
  -3.11999992E-02  -2.20717888E-10
  -3.11500002E-02  -4.54664223E-11
  -3.10999993E-02   1.21935004E-10
  -3.10500003E-02   2.73153888E-10
  -3.09999995E-02   4.11028239E-10
  -3.09500005E-02   5.47754397E-10
  -3.08999997E-02   6.98661684E-10
  -3.08500007E-02   8.74508632E-10
  -3.07999998E-02   1.07601705E-09
  -3.07500008E-02   1.29324185E-09
  -3.07000000E-02   1.50999258E-09
  -3.06499992E-02   1.71106329E-09
  -3.06000002E-02   1.88875715E-09
  -3.05499993E-02   2.04572070E-09
  -3.05000003E-02   2.19294005E-09
  -3.04499995E-02   2.34401409E-09
  -3.04000005E-02   2.50842502E-09
  -3.03499997E-02   2.68686562E-09
  -3.03000007E-02   2.87070301E-09
  -3.02499998E-02   3.04571612E-09
  -3.02000009E-02   3.19822080E-09
  -3.01500000E-02   3.32057115E-09
  -3.00999992E-02   3.41339512E-09
  -3.00500002E-02   3.48369200E-09
  -2.99999993E-02   3.54010155E-09
  -2.99500003E-02   3.58801033E-09
  -2.98999995E-02   3.62694319E-09
  -2.98500005E-02   3.65119779E-09
  -2.97999997E-02   3.65292796E-09
  -2.97500007E-02   3.62577524E-09
  -2.96999998E-02   3.56713370E-09
  -2.96500009E-02   3.47806095E-09
  -2.96000000E-02   3.36119954E-09
  -2.95499992E-02   3.21816196E-09
  -2.95000002E-02   3.04812042E-09
  -2.94499993E-02   2.84869883E-09
  -2.94000003E-02   2.61869038E-09
  -2.93499995E-02   2.36068276E-09
  -2.93000005E-02   2.08144546E-09
  -2.92499997E-02   1.78907089E-09
  -2.92000007E-02   1.48798063E-09
  -2.91499998E-02   1.17470078E-09
  -2.91000009E-02   8.37355907E-10
  -2.90500000E-02   4.60046667E-10
  -2.89999992E-02   3.06296030E-11
  -2.89500002E-02  -4.51726573E-10
  -2.88999993E-02  -9.73238490E-10
  -2.88500004E-02  -1.50891122E-09
  -2.87999995E-02  -2.03210626E-09
  -2.87500005E-02  -2.52647303E-09
  -2.86999997E-02  -2.99452996E-09
  -2.86500007E-02  -3.45783446E-09
  -2.85999998E-02  -3.94728250E-09
  -2.85500009E-02  -4.48713156E-09
  -2.85000000E-02  -5.08017539E-09
  -2.84499992E-02  -5.70193270E-09
  -2.84000002E-02  -6.30789332E-09
  -2.83499993E-02  -6.85167434E-09
  -2.83000004E-02  -7.30621252E-09
  -2.82499995E-02  -7.67788677E-09
  -2.82000005E-02  -8.00582001E-09
  -2.81499997E-02  -8.34517611E-09
  -2.81000007E-02  -8.74080097E-09
  -2.80499998E-02  -9.20283227E-09
  -2.80000009E-02  -9.69654579E-09
  -2.79500000E-02  -1.01528022E-08
  -2.78999992E-02  -1.04963194E-08
  -2.78500002E-02  -1.06797717E-08
  -2.77999993E-02  -1.07074500E-08
  -2.77500004E-02  -1.06360432E-08
  -2.76999995E-02  -1.05500915E-08
  -2.76500005E-02  -1.05220499E-08
  -2.75999997E-02  -1.05748628E-08
  -2.75500007E-02  -1.06649516E-08
  -2.74999999E-02  -1.06954214E-08
  -2.74500009E-02  -1.05557678E-08
  -2.74000000E-02  -1.01715791E-08
  -2.73499992E-02  -9.54157109E-09
  -2.73000002E-02  -8.74340156E-09
  -2.72499993E-02  -7.90299026E-09
  -2.72000004E-02  -7.13905601E-09
  -2.71499995E-02  -6.50740661E-09
  -2.71000005E-02  -5.97130212E-09
  -2.70499997E-02  -5.41353096E-09
  -2.70000007E-02  -4.68699879E-09
  -2.69499999E-02  -3.68237041E-09
  -2.69000009E-02  -2.38231612E-09
  -2.68500000E-02  -8.76224648E-10
  -2.67999992E-02   6.73562650E-10
  -2.67500002E-02   2.10106177E-09
  -2.66999993E-02   3.31145600E-09
  -2.66500004E-02   4.32687575E-09
  -2.65999995E-02   5.28005595E-09
  -2.65500005E-02   6.35582165E-09
  -2.64999997E-02   7.70501085E-09
  -2.64500007E-02   9.36968991E-09
  -2.63999999E-02   1.12549960E-08
  -2.63500009E-02   1.31629294E-08
  -2.63000000E-02   1.48753880E-08
  -2.62499992E-02   1.62499703E-08
  -2.62000002E-02   1.72847621E-08
  -2.61499994E-02   1.81211490E-08
  -2.61000004E-02   1.89805647E-08
  -2.60499995E-02   2.00614547E-08
  -2.60000005E-02   2.14420801E-08
  -2.59499997E-02   2.30345147E-08
  -2.59000007E-02   2.46134970E-08
  -2.58499999E-02   2.59099959E-08
  -2.58000009E-02   2.67291895E-08
  -2.57500000E-02   2.70394800E-08
  -2.56999992E-02   2.69903424E-08
  -2.56500002E-02   2.68478946E-08
  -2.55999994E-02   2.68750409E-08
  -2.55500004E-02   2.72088378E-08
  -2.54999995E-02   2.77906675E-08
  -2.54500005E-02   2.83831572E-08
  -2.53999997E-02   2.86686337E-08
  -2.53500007E-02   2.83872001E-08
  -2.52999999E-02   2.74534795E-08
  -2.52500009E-02   2.59983661E-08
  -2.52000000E-02   2.43150247E-08
  -2.51499992E-02   2.27301253E-08
  -2.51000002E-02   2.14566125E-08
  -2.50499994E-02   2.04947188E-08
  -2.50000004E-02   1.96270893E-08
  -2.49499995E-02   1.85126492E-08
  -2.49000005E-02   1.68385981E-08
  -2.48499997E-02   1.44634207E-08
  -2.48000007E-02   1.14867635E-08
  -2.47499999E-02   8.21341928E-09
  -2.47000009E-02   5.02543740E-09
  -2.46500000E-02   2.21733143E-09
  -2.45999992E-02  -1.32755348E-10
  -2.45500002E-02  -2.19737029E-09
  -2.44999994E-02  -4.32239533E-09
  -2.44500004E-02  -6.87034429E-09
  -2.43999995E-02  -1.00530677E-08
  -2.43500005E-02  -1.38286298E-08
  -2.42999997E-02  -1.79093380E-08
  -2.42500007E-02  -2.18788898E-08
  -2.41999999E-02  -2.53678838E-08
  -2.41500009E-02  -2.82108399E-08
  -2.41000000E-02  -3.05150394E-08
  -2.40499992E-02  -3.26099681E-08
  -2.40000002E-02  -3.48981182E-08
  -2.39499994E-02  -3.76708336E-08
  -2.39000004E-02  -4.09696277E-08
  -2.38499995E-02  -4.45549944E-08
  -2.38000005E-02  -4.79984230E-08
  -2.37499997E-02  -5.08588016E-08
  -2.37000007E-02  -5.28673638E-08
  -2.36499999E-02  -5.40398730E-08
  -2.36000009E-02  -5.46666996E-08
  -2.35500000E-02  -5.51849197E-08
  -2.34999992E-02  -5.59855877E-08
  -2.34500002E-02  -5.72389354E-08
  -2.33999994E-02  -5.88128088E-08
  -2.33500004E-02  -6.03201116E-08
  -2.32999995E-02  -6.12766158E-08
  -2.32500006E-02  -6.13033180E-08
  -2.31999997E-02  -6.02875474E-08
  -2.31500007E-02  -5.84322990E-08
  -2.30999999E-02  -5.61712490E-08
  -2.30500009E-02  -5.39848664E-08
  -2.30000000E-02  -5.21948245E-08
  -2.29499992E-02  -5.08237363E-08
  -2.29000002E-02  -4.95804287E-08
  -2.28499994E-02  -4.79781512E-08
  -2.28000004E-02  -4.55380409E-08
  -2.27499995E-02  -4.19939994E-08
  -2.27000006E-02  -3.74120930E-08
  -2.26499997E-02  -3.21731122E-08
  -2.26000007E-02  -2.68220095E-08
  -2.25499999E-02  -2.18449401E-08
  -2.25000009E-02  -1.74678512E-08
  -2.24500000E-02  -1.35616132E-08
  -2.23999992E-02  -9.69665326E-09
  -2.23500002E-02  -5.32818101E-09
  -2.22999994E-02  -3.64360243E-11
  -2.22500004E-02   6.27807406E-09
  -2.21999995E-02   1.33285996E-08
  -2.21500006E-02   2.05382538E-08
  -2.20999997E-02   2.72630007E-08
  -2.20500007E-02   3.30521459E-08
  -2.19999999E-02   3.78371645E-08
  -2.19500009E-02   4.19646220E-08
  -2.19000001E-02   4.60518876E-08
  -2.18499992E-02   5.07197484E-08
  -2.18000002E-02   5.63113574E-08
  -2.17499994E-02   6.27180725E-08
  -2.17000004E-02   6.93921649E-08
  -2.16499995E-02   7.55493019E-08
  -2.16000006E-02   8.04833249E-08
  -2.15499997E-02   8.38625525E-08
  -2.15000007E-02   8.58789235E-08
  -2.14499999E-02   8.71768506E-08
  -2.14000009E-02   8.85820839E-08
  -2.13500001E-02   9.07377071E-08
  -2.12999992E-02   9.38007787E-08
  -2.12500002E-02   9.73375478E-08
  -2.11999994E-02   1.00473692E-07
  -2.11500004E-02   1.02247277E-07
  -2.10999995E-02   1.02020294E-07
  -2.10500006E-02   9.97704532E-08
  -2.09999997E-02   9.61284456E-08
  -2.09500007E-02   9.21305272E-08
  -2.08999999E-02   8.87807019E-08
  -2.08500009E-02   8.66066756E-08
  -2.08000001E-02   8.54046505E-08
  -2.07499992E-02   8.42965306E-08
  -2.07000002E-02   8.20916739E-08
  -2.06499994E-02   7.78065967E-08
  -2.06000004E-02   7.11195796E-08
  -2.05499995E-02   6.25534824E-08
  -2.05000006E-02   5.32904316E-08
  -2.04499997E-02   4.46837731E-08
  -2.04000007E-02   3.76716720E-08
  -2.03499999E-02   3.23496465E-08
  -2.03000009E-02   2.79023471E-08
  -2.02500001E-02   2.29426966E-08
  -2.01999992E-02   1.61248987E-08
  -2.01500002E-02   6.77056899E-09
  -2.00999994E-02  -4.77387108E-09
  -2.00500004E-02  -1.72236128E-08
  -1.99999996E-02  -2.88679232E-08
  -1.99500006E-02  -3.82974186E-08
  -1.98999997E-02  -4.50282656E-08
  -1.98500007E-02  -4.97351635E-08
  -1.97999999E-02  -5.39711529E-08
  -1.97500009E-02  -5.94793406E-08
  -1.97000001E-02  -6.73883136E-08
  -1.96499992E-02  -7.76500073E-08
  -1.96000002E-02  -8.89844500E-08
  -1.95499994E-02  -9.93796050E-08
  -1.95000004E-02  -1.06944228E-07
  -1.94499996E-02  -1.10743230E-07
  -1.94000006E-02  -1.11238165E-07
  -1.93499997E-02  -1.10115415E-07
  -1.93000007E-02  -1.09554556E-07
  -1.92499999E-02  -1.11247140E-07
  -1.92000009E-02  -1.15600166E-07
  -1.91500001E-02  -1.21489961E-07
  -1.90999992E-02  -1.26698680E-07
  -1.90500002E-02  -1.28861814E-07
  -1.89999994E-02  -1.26518216E-07
  -1.89500004E-02  -1.19791778E-07
  -1.88999996E-02  -1.10383084E-07
  -1.88500006E-02  -1.00851146E-07
  -1.87999997E-02  -9.34861575E-08
  -1.87500007E-02  -8.92686458E-08
  -1.86999999E-02  -8.73894095E-08
  -1.86500009E-02  -8.55661781E-08
  -1.86000001E-02  -8.10395591E-08
  -1.85499992E-02  -7.18190449E-08
  -1.85000002E-02  -5.76231152E-08
  -1.84499994E-02  -4.00781985E-08
  -1.84000004E-02  -2.20634622E-08
  -1.83499996E-02  -6.47308696E-09
  -1.83000006E-02   5.06304643E-09
  -1.82499997E-02   1.29229072E-08
  -1.82000007E-02   1.93492831E-08
  -1.81499999E-02   2.74564176E-08
  -1.81000009E-02   3.98125621E-08
  -1.80500001E-02   5.72282843E-08
  -1.79999992E-02   7.83050425E-08
  -1.79500002E-02   9.99664138E-08
  -1.78999994E-02   1.18755260E-07
  -1.78500004E-02   1.32337519E-07
  -1.77999996E-02   1.40536415E-07
  -1.77500006E-02   1.45414646E-07
  -1.76999997E-02   1.50343382E-07
  -1.76500008E-02   1.58457070E-07
  -1.75999999E-02   1.71174989E-07
  -1.75500009E-02   1.87458312E-07
  -1.75000001E-02   2.04154787E-07
  -1.74499992E-02   2.17303565E-07
  -1.74000002E-02   2.23835713E-07
  -1.73499994E-02   2.22913059E-07
  -1.73000004E-02   2.16295504E-07
  -1.72499996E-02   2.07549149E-07
  -1.72000006E-02   2.00427550E-07
  -1.71499997E-02   1.97136046E-07
  -1.71000008E-02   1.97260789E-07
  -1.70499999E-02   1.97855798E-07
  -1.70000009E-02   1.94665319E-07
  -1.69500001E-02   1.83958363E-07
  -1.68999992E-02   1.64165556E-07
  -1.68500002E-02   1.36579942E-07
  -1.67999994E-02   1.04785165E-07
  -1.67500004E-02   7.30448519E-08
  -1.66999996E-02   4.43622810E-08
  -1.66500006E-02   1.90784277E-08
  -1.65999997E-02  -5.35164268E-09
  -1.65500008E-02  -3.32911156E-08
  -1.64999999E-02  -6.90232298E-08
  -1.64500009E-02  -1.14851503E-07
  -1.64000001E-02  -1.70051379E-07
  -1.63499992E-02  -2.31155823E-07
  -1.63000003E-02  -2.93469071E-07
  -1.62499994E-02  -3.53151506E-07
  -1.62000004E-02  -4.08948750E-07
  -1.61499996E-02  -4.62789842E-07
  -1.61000006E-02  -5.18948411E-07
  -1.60499997E-02  -5.82135101E-07
  -1.60000008E-02  -6.55386145E-07
  -1.59499999E-02  -7.38670167E-07
  -1.59000009E-02  -8.28832697E-07
  -1.58500001E-02  -9.20919661E-07
  -1.57999992E-02  -1.01033208E-06
  -1.57500003E-02  -1.09485745E-06
  -1.56999994E-02  -1.17565958E-06
  -1.56500004E-02  -1.25677582E-06
  -1.55999996E-02  -1.34329787E-06
  -1.55499997E-02  -1.43905663E-06
  -1.54999997E-02  -1.54487770E-06
  -1.54499998E-02  -1.65814902E-06
  -1.53999999E-02  -1.77386505E-06
  -1.53500000E-02  -1.88676518E-06
  -1.53000001E-02  -1.99361762E-06
  -1.52500002E-02  -2.09462110E-06
  -1.52000003E-02  -2.19329718E-06
  -1.51500003E-02  -2.29488569E-06
  -1.51000004E-02  -2.40397685E-06
  -1.50499996E-02  -2.52239965E-06
  -1.49999997E-02  -2.64832329E-06
  -1.49499997E-02  -2.77699382E-06
  -1.48999998E-02  -2.90276489E-06
  -1.48499999E-02  -3.02153103E-06
  -1.48000000E-02  -3.13250598E-06
  -1.47500001E-02  -3.23856011E-06
  -1.47000002E-02  -3.34496076E-06
  -1.46500003E-02  -3.45701983E-06
  -1.46000003E-02  -3.57771319E-06
  -1.45500004E-02  -3.70631778E-06
  -1.44999996E-02  -3.83867018E-06
  -1.44499997E-02  -3.96896939E-06
  -1.43999998E-02  -4.09233371E-06
  -1.43499998E-02  -4.20696779E-06
  -1.42999999E-02  -4.31496619E-06
  -1.42500000E-02  -4.42138480E-06
  -1.42000001E-02  -4.53202210E-06
  -1.41500002E-02  -4.65091443E-06
  -1.41000003E-02  -4.77849699E-06
  -1.40500003E-02  -4.91140281E-06
  -1.40000004E-02  -5.04395530E-06
  -1.39499996E-02  -5.17065018E-06
  -1.38999997E-02  -5.28867986E-06
  -1.38499998E-02  -5.39924031E-06
  -1.37999998E-02  -5.50707637E-06
  -1.37499999E-02  -5.61845491E-06
  -1.37000000E-02  -5.73850002E-06
  -1.36500001E-02  -5.86899478E-06
  -1.36000002E-02  -6.00761314E-06
  -1.35500003E-02  -6.14895816E-06
  -1.35000004E-02  -6.28705175E-06
  -1.34500004E-02  -6.41808219E-06
  -1.33999996E-02  -6.54206997E-06
  -1.33499997E-02  -6.66304186E-06
  -1.32999998E-02  -6.78740889E-06
  -1.32499998E-02  -6.92123831E-06
  -1.31999999E-02  -7.06769697E-06
  -1.31500000E-02  -7.22567665E-06
  -1.31000001E-02  -7.39033476E-06
  -1.30500002E-02  -7.55540759E-06
  -1.30000003E-02  -7.71605301E-06
  -1.29500004E-02  -7.87109002E-06
  -1.29000004E-02  -8.02371778E-06
  -1.28499996E-02  -8.18022363E-06
  -1.27999997E-02  -8.34732600E-06
  -1.27499998E-02  -8.52938592E-06
  -1.26999998E-02  -8.72674809E-06
  -1.26499999E-02  -8.93558445E-06
  -1.26000000E-02  -9.14957309E-06
  -1.25500001E-02  -9.36298966E-06
  -1.25000002E-02  -9.57332213E-06
  -1.24500003E-02  -9.78249864E-06
  -1.24000004E-02  -9.99620897E-06
  -1.23500004E-02  -1.02214208E-05
  -1.22999996E-02  -1.04635255E-05
  -1.22499997E-02  -1.07239603E-05
  -1.21999998E-02  -1.09995535E-05
  -1.21499998E-02  -1.12841235E-05
  -1.20999999E-02  -1.15713719E-05
  -1.20500000E-02  -1.18578173E-05
  -1.20000001E-02  -1.21444391E-05
  -1.19500002E-02  -1.24364260E-05
  -1.19000003E-02  -1.27411577E-05
  -1.18500004E-02  -1.30651088E-05
  -1.18000004E-02  -1.34111333E-05
  -1.17499996E-02  -1.37771840E-05
  -1.16999997E-02  -1.41571172E-05
  -1.16499998E-02  -1.45434133E-05
  -1.15999999E-02  -1.49304824E-05
  -1.15499999E-02  -1.53173460E-05
  -1.15000000E-02  -1.57080576E-05
  -1.14500001E-02  -1.61096686E-05
  -1.14000002E-02  -1.65293823E-05
  -1.13500003E-02  -1.69715659E-05
  -1.13000004E-02  -1.74360684E-05
  -1.12500004E-02  -1.79185026E-05
  -1.11999996E-02  -1.84121527E-05
  -1.11499997E-02  -1.89114198E-05
  -1.10999998E-02  -1.94145105E-05
  -1.10499999E-02  -1.99244387E-05
  -1.09999999E-02  -2.04476746E-05
  -1.09500000E-02  -2.09913760E-05
  -1.09000001E-02  -2.15601194E-05
  -1.08500002E-02  -2.21534901E-05
  -1.08000003E-02  -2.27663259E-05
  -1.07500004E-02  -2.33908231E-05
  -1.07000005E-02  -2.40197787E-05
  -1.06499996E-02  -2.46497002E-05
  -1.05999997E-02  -2.52827213E-05
  -1.05499998E-02  -2.59260323E-05
  -1.04999999E-02  -2.65888102E-05
  -1.04499999E-02  -2.72785073E-05
  -1.04000000E-02  -2.79980522E-05
  -1.03500001E-02  -2.87452476E-05
  -1.03000002E-02  -2.95140926E-05
  -1.02500003E-02  -3.02972985E-05
  -1.02000004E-02  -3.10897485E-05
  -1.01500005E-02  -3.18913153E-05
  -1.00999996E-02  -3.27069320E-05
  -1.00499997E-02  -3.35439727E-05
  -9.99999978E-03  -3.44089749E-05
  -9.94999986E-03  -3.53045471E-05
  -9.89999995E-03  -3.62279534E-05
  -9.85000003E-03  -3.71728929E-05
  -9.80000012E-03  -3.81327627E-05
  -9.75000020E-03  -3.91028552E-05
  -9.70000029E-03  -4.00828212E-05
  -9.65000037E-03  -4.10780485E-05
  -9.60000046E-03  -4.20975703E-05
  -9.54999961E-03  -4.31503904E-05
  -9.49999969E-03  -4.42419660E-05
  -9.44999978E-03  -4.53720531E-05
  -9.39999986E-03  -4.65354315E-05
  -9.34999995E-03  -4.77250869E-05
  -9.30000003E-03  -4.89352169E-05
  -9.25000012E-03  -5.01643044E-05
  -9.20000020E-03  -5.14163949E-05
  -9.15000029E-03  -5.26994809E-05
  -9.10000037E-03  -5.40224573E-05
  -9.05000046E-03  -5.53911123E-05
  -8.99999961E-03  -5.68058749E-05
  -8.94999970E-03  -5.82624489E-05
  -8.89999978E-03  -5.97536600E-05
  -8.84999987E-03  -6.12726944E-05
  -8.79999995E-03  -6.28162306E-05
  -8.75000004E-03  -6.43862950E-05
  -8.70000012E-03  -6.59900761E-05
  -8.65000021E-03  -6.76371055E-05
  -8.60000029E-03  -6.93349284E-05
  -8.55000038E-03  -7.10864406E-05
  -8.50000046E-03  -7.28886735E-05
  -8.44999962E-03  -7.47352606E-05
  -8.39999970E-03  -7.66209341E-05
  -8.34999979E-03  -7.85436641E-05
  -8.29999987E-03  -8.05059317E-05
  -8.24999996E-03  -8.25144889E-05
  -8.20000004E-03  -8.45783943E-05
  -8.15000013E-03  -8.67058698E-05
  -8.10000021E-03  -8.89000876E-05
  -8.05000030E-03  -9.11591269E-05
  -8.00000038E-03  -9.34772179E-05
  -7.95000046E-03  -9.58466335E-05
  -7.89999962E-03  -9.82628044E-05
  -7.84999970E-03  -1.00726931E-04
  -7.79999979E-03  -1.03244391E-04
  -7.74999987E-03  -1.05822721E-04
  -7.69999996E-03  -1.08469561E-04
  -7.65000004E-03  -1.11188841E-04
  -7.60000013E-03  -1.13979928E-04
  -7.55000021E-03  -1.16837073E-04
  -7.49999983E-03  -1.19752840E-04
  -7.44999992E-03  -1.22722297E-04
  -7.40000000E-03  -1.25746403E-04
  -7.35000009E-03  -1.28831045E-04
  -7.30000017E-03  -1.31984838E-04
  -7.24999979E-03  -1.35216760E-04
  -7.19999988E-03  -1.38532065E-04
  -7.14999996E-03  -1.41931552E-04
  -7.10000005E-03  -1.45411366E-04
  -7.05000013E-03  -1.48965933E-04
  -7.00000022E-03  -1.52590612E-04
  -6.94999984E-03  -1.56283830E-04
  -6.89999992E-03  -1.60048323E-04
  -6.85000001E-03  -1.63891949E-04
  -6.80000009E-03  -1.67823164E-04
  -6.75000018E-03  -1.71846405E-04
  -6.69999979E-03  -1.75961628E-04
  -6.64999988E-03  -1.80164323E-04
  -6.59999996E-03  -1.84448872E-04
  -6.55000005E-03  -1.88809732E-04
  -6.50000013E-03  -1.93243468E-04
  -6.45000022E-03  -1.97751782E-04
  -6.39999984E-03  -2.02342388E-04
  -6.34999992E-03  -2.07025863E-04
  -6.30000001E-03  -2.11807332E-04
  -6.25000009E-03  -2.16685643E-04
  -6.20000018E-03  -2.21658818E-04
  -6.14999980E-03  -2.26723656E-04
  -6.09999988E-03  -2.31875165E-04
  -6.04999997E-03  -2.37112938E-04
  -6.00000005E-03  -2.42440583E-04
  -5.95000014E-03  -2.47860968E-04
  -5.90000022E-03  -2.53380247E-04
  -5.84999984E-03  -2.59009219E-04
  -5.79999993E-03  -2.64755596E-04
  -5.75000001E-03  -2.70615477E-04
  -5.70000010E-03  -2.76576611E-04
  -5.65000018E-03  -2.82630586E-04
  -5.59999980E-03  -2.88778421E-04
  -5.54999989E-03  -2.95027363E-04
  -5.49999997E-03  -3.01383989E-04
  -5.45000006E-03  -3.07847804E-04
  -5.40000014E-03  -3.14419885E-04
  -5.35000023E-03  -3.21108702E-04
  -5.29999984E-03  -3.27919261E-04
  -5.24999993E-03  -3.34846671E-04
  -5.20000001E-03  -3.41881270E-04
  -5.15000010E-03  -3.49015405E-04
  -5.10000018E-03  -3.56250908E-04
  -5.04999980E-03  -3.63600033E-04
  -4.99999989E-03  -3.71072907E-04
  -4.94999997E-03  -3.78675235E-04
  -4.90000006E-03  -3.86409461E-04
  -4.85000014E-03  -3.94273375E-04
  -4.80000023E-03  -4.02266276E-04
  -4.74999985E-03  -4.10389446E-04
  -4.69999993E-03  -4.18644457E-04
  -4.65000002E-03  -4.27027524E-04
  -4.60000010E-03  -4.35536116E-04
  -4.55000019E-03  -4.44179779E-04
  -4.49999981E-03  -4.52971784E-04
  -4.44999989E-03  -4.61916905E-04
  -4.39999998E-03  -4.71009029E-04
  -4.35000006E-03  -4.80240007E-04
  -4.30000015E-03  -4.89605998E-04
  -4.25000023E-03  -4.99110261E-04
  -4.19999985E-03  -5.08756551E-04
  -4.14999994E-03  -5.18542831E-04
  -4.10000002E-03  -5.28470206E-04
  -4.05000011E-03  -5.38545777E-04
  -4.00000019E-03  -5.48781711E-04
  -3.94999981E-03  -5.59185282E-04
  -3.89999989E-03  -5.69755968E-04
  -3.84999998E-03  -5.80489519E-04
  -3.80000006E-03  -5.91379590E-04
  -3.74999992E-03  -6.02425309E-04
  -3.70000000E-03  -6.13637560E-04
  -3.65000009E-03  -6.25030021E-04
  -3.59999994E-03  -6.36607816E-04
  -3.55000002E-03  -6.48370595E-04
  -3.50000011E-03  -6.60317601E-04
  -3.44999996E-03  -6.72453432E-04
  -3.40000005E-03  -6.84778148E-04
  -3.34999990E-03  -6.97286974E-04
  -3.29999998E-03  -7.09973101E-04
  -3.25000007E-03  -7.22835946E-04
  -3.19999992E-03  -7.35884300E-04
  -3.15000000E-03  -7.49127474E-04
  -3.10000009E-03  -7.62572337E-04
  -3.04999994E-03  -7.76217785E-04
  -3.00000003E-03  -7.90068996E-04
  -2.95000011E-03  -8.04127485E-04
  -2.89999996E-03  -8.18383880E-04
  -2.85000005E-03  -8.32844758E-04
  -2.79999990E-03  -8.47518793E-04
  -2.74999999E-03  -8.62402841E-04
  -2.70000007E-03  -8.77500279E-04
  -2.64999992E-03  -8.92820302E-04
  -2.60000001E-03  -9.08376882E-04
  -2.55000009E-03  -9.24173393E-04
  -2.49999994E-03  -9.40199650E-04
  -2.45000003E-03  -9.56451811E-04
  -2.40000011E-03  -9.72932146E-04
  -2.34999997E-03  -9.89650725E-04
  -2.30000005E-03  -1.00661081E-03
  -2.24999990E-03  -1.02381117E-03
  -2.19999999E-03  -1.04125321E-03
  -2.15000007E-03  -1.05894229E-03
  -2.09999993E-03  -1.07689819E-03
  -2.05000001E-03  -1.09512196E-03
  -2.00000009E-03  -1.11359498E-03
  -1.94999995E-03  -1.13230851E-03
  -1.90000003E-03  -1.15126360E-03
  -1.85000000E-03  -1.17047084E-03
  -1.79999997E-03  -1.18995039E-03
  -1.75000005E-03  -1.20970677E-03
  -1.70000002E-03  -1.22972636E-03
  -1.64999999E-03  -1.25000416E-03
  -1.59999996E-03  -1.27054635E-03
  -1.55000004E-03  -1.29136397E-03
  -1.50000001E-03  -1.31246867E-03
  -1.44999998E-03  -1.33386499E-03
  -1.39999995E-03  -1.35553372E-03
  -1.35000004E-03  -1.37746066E-03
  -1.30000000E-03  -1.39968074E-03
  -1.24999997E-03  -1.42222526E-03
  -1.20000006E-03  -1.44508458E-03
  -1.15000003E-03  -1.46823411E-03
  -1.09999999E-03  -1.49165618E-03
  -1.04999996E-03  -1.51536742E-03
  -1.00000005E-03  -1.53939577E-03
  -9.50000016E-04  -1.56375102E-03
  -8.99999985E-04  -1.58839906E-03
  -8.50000011E-04  -1.61330018E-03
  -7.99999980E-04  -1.63847976E-03
  -7.50000007E-04  -1.66398368E-03
  -6.99999975E-04  -1.68982882E-03
  -6.50000002E-04  -1.71598280E-03
  -6.00000028E-04  -1.74240314E-03
  -5.49999997E-04  -1.76909566E-03
  -5.00000024E-04  -1.79610518E-03
  -4.49999992E-04  -1.82346767E-03
  -3.99999990E-04  -1.85116811E-03
  -3.49999988E-04  -1.87915959E-03
  -3.00000014E-04  -1.90741976E-03
  -2.50000012E-04  -1.93597795E-03
  -1.99999995E-04  -1.96490390E-03
  -1.50000007E-04  -1.99420797E-03
  -9.99999975E-05  -2.02382845E-03
  -4.99999987E-05  -2.05370388E-03
   0.00000000      -2.08384101E-03
   4.99999987E-05  -2.11432273E-03
   9.99999975E-05  -2.14518374E-03
   1.50000007E-04  -2.17637164E-03
   1.99999995E-04  -2.20780936E-03
   2.50000012E-04  -2.23948876E-03
   3.00000014E-04  -2.27148831E-03
   3.49999988E-04  -2.30386318E-03
   3.99999990E-04  -2.33658380E-03
   4.49999992E-04  -2.36957753E-03
   5.00000024E-04  -2.40279245E-03
   5.49999997E-04  -2.43626931E-03
   6.00000028E-04  -2.47008586E-03
   6.50000002E-04  -2.50425888E-03
   6.99999975E-04  -2.53875367E-03
   7.50000007E-04  -2.57350854E-03
   7.99999980E-04  -2.60851765E-03
   8.50000011E-04  -2.64383480E-03
   8.99999985E-04  -2.67947186E-03
   9.50000016E-04  -2.71538529E-03
   1.00000005E-03  -2.75155040E-03
   1.04999996E-03  -2.78798910E-03
   1.09999999E-03  -2.82470556E-03
   1.15000003E-03  -2.86170444E-03
   1.20000006E-03  -2.89899274E-03
   1.24999997E-03  -2.93656229E-03
   1.30000000E-03  -2.97438540E-03
   1.35000004E-03  -3.01243528E-03
   1.39999995E-03  -3.05073033E-03
   1.44999998E-03  -3.08928709E-03
   1.50000001E-03  -3.12808086E-03
   1.55000004E-03  -3.16708209E-03
   1.59999996E-03  -3.20628961E-03
   1.64999999E-03  -3.24572227E-03
   1.70000002E-03  -3.28543386E-03
   1.75000005E-03  -3.32541764E-03
   1.79999997E-03  -3.36559187E-03
   1.85000000E-03  -3.40593164E-03
   1.90000003E-03  -3.44645139E-03
   1.94999995E-03  -3.48716835E-03
   2.00000009E-03  -3.52809438E-03
   2.05000001E-03  -3.56922625E-03
   2.09999993E-03  -3.61053296E-03
   2.15000007E-03  -3.65202525E-03
   2.19999999E-03  -3.69374081E-03
   2.24999990E-03  -3.73564870E-03
   2.30000005E-03  -3.77768464E-03
   2.34999997E-03  -3.81984911E-03
   2.40000011E-03  -3.86216165E-03
   2.45000003E-03  -3.90458386E-03
   2.49999994E-03  -3.94710479E-03
   2.55000009E-03  -3.98979150E-03
   2.60000001E-03  -4.03269008E-03
   2.64999992E-03  -4.07573162E-03
   2.70000007E-03  -4.11881553E-03
   2.74999999E-03  -4.16193111E-03
   2.79999990E-03  -4.20514354E-03