  -3.99999991E-02   0.00000000    
  -3.99499983E-02   0.00000000    
  -3.99000011E-02   0.00000000    
  -3.98500003E-02   0.00000000    
  -3.97999994E-02  -9.01362377E-19
  -3.97499986E-02  -1.02934918E-17
  -3.97000015E-02  -6.13011839E-17
  -3.96500006E-02  -2.52386622E-16
  -3.95999998E-02  -8.03563058E-16
  -3.95499989E-02  -2.09899063E-15
  -3.95000018E-02  -4.66157933E-15
  -3.94500010E-02  -9.00914068E-15
  -3.94000001E-02  -1.53967551E-14
  -3.93499993E-02  -2.35498639E-14
  -3.92999984E-02  -3.25847103E-14
  -3.92500013E-02  -4.13129546E-14
  -3.92000005E-02  -4.89720535E-14
  -3.91499996E-02  -5.61379861E-14
  -3.90999988E-02  -6.53085577E-14
  -3.90500017E-02  -8.06044074E-14
  -3.90000008E-02  -1.06359047E-13
  -3.89500000E-02  -1.44986128E-13
  -3.88999991E-02  -1.95118756E-13
  -3.88499983E-02  -2.51211080E-13
  -3.88000011E-02  -3.05327215E-13
  -3.87500003E-02  -3.50800823E-13
  -3.86999995E-02  -3.86276731E-13
  -3.86499986E-02  -4.17975550E-13
  -3.86000015E-02  -4.58371893E-13
  -3.85500006E-02  -5.20942989E-13
  -3.84999998E-02  -6.12727805E-13
  -3.84499989E-02  -7.28135217E-13
  -3.84000018E-02  -8.47675012E-13
  -3.83500010E-02  -9.43516207E-13
  -3.83000001E-02  -9.90523744E-13
  -3.82499993E-02  -9.78204497E-13
  -3.81999984E-02  -9.17634892E-13
  -3.81500013E-02  -8.39011369E-13
  -3.81000005E-02  -7.79562179E-13
  -3.80499996E-02  -7.66330521E-13
  -3.79999988E-02  -8.01433410E-13
  -3.79500017E-02  -8.57070057E-13
  -3.79000008E-02  -8.83634854E-13
  -3.78500000E-02  -8.28328508E-13
  -3.77999991E-02  -6.56346993E-13
  -3.77499983E-02  -3.64812022E-13
  -3.77000012E-02   1.75850562E-14
  -3.76500003E-02   4.45684857E-13
  -3.75999995E-02   8.80911067E-13
  -3.75499986E-02   1.31135998E-12
  -3.75000015E-02   1.75935210E-12
  -3.74500006E-02   2.27300145E-12
  -3.73999998E-02   2.90599554E-12
  -3.73499990E-02   3.69488468E-12
  -3.73000018E-02   4.64336512E-12
  -3.72500010E-02   5.71880477E-12
  -3.72000001E-02   6.86032307E-12
  -3.71499993E-02   7.99345052E-12
  -3.70999984E-02   9.04569215E-12
  -3.70500013E-02   9.95994693E-12
  -3.70000005E-02   1.07061764E-11
  -3.69499996E-02   1.12928122E-11
  -3.68999988E-02   1.17764574E-11
  -3.68500017E-02   1.22629346E-11
  -3.68000008E-02   1.28894551E-11
  -3.67500000E-02   1.37818828E-11
  -3.66999991E-02   1.49939158E-11
  -3.66499983E-02   1.64513438E-11
  -3.66000012E-02   1.79338280E-11
  -3.65500003E-02   1.91192895E-11
  -3.64999995E-02   1.96903240E-11
  -3.64499986E-02   1.94674069E-11
  -3.64000015E-02   1.85077006E-11
  -3.63500006E-02   1.71086791E-11
  -3.62999998E-02   1.56898817E-11
  -3.62499990E-02   1.45841603E-11
  -3.62000018E-02   1.38270237E-11
  -3.61500010E-02   1.30570190E-11
  -3.61000001E-02   1.16092257E-11
  -3.60499993E-02   8.80024786E-12
  -3.59999985E-02   4.29902598E-12
  -3.59500013E-02  -1.59434759E-12
  -3.59000005E-02  -7.93285229E-12
  -3.58499996E-02  -1.34406392E-11
  -3.57999988E-02  -1.70761009E-11
  -3.57500017E-02  -1.86037869E-11
  -3.57000008E-02  -1.88844339E-11
  -3.56500000E-02  -1.96772928E-11
  -3.55999991E-02  -2.29561578E-11
  -3.55499983E-02  -2.99873598E-11
  -3.55000012E-02  -4.05856564E-11
  -3.54500003E-02  -5.29514696E-11
  -3.53999995E-02  -6.42729134E-11
  -3.53499986E-02  -7.19231757E-11
  -3.53000015E-02  -7.47546955E-11
  -3.52500007E-02  -7.38591271E-11
  -3.51999998E-02  -7.23266724E-11
  -3.51499990E-02  -7.39654865E-11
  -3.51000018E-02  -8.14564527E-11
  -3.50500010E-02  -9.47749379E-11
  -3.50000001E-02  -1.10706638E-10
  -3.49499993E-02  -1.23867874E-10
  -3.48999985E-02  -1.28956651E-10
  -3.48500013E-02  -1.23311153E-10
  -3.48000005E-02  -1.08564414E-10
  -3.47499996E-02  -9.04529229E-11
  -3.46999988E-02  -7.66121749E-11
  -3.46500017E-02  -7.31575425E-11
  -3.46000008E-02  -8.15529172E-11
  -3.45500000E-02  -9.73290684E-11
  -3.44999991E-02  -1.11510946E-10
  -3.44499983E-02  -1.14398914E-10
  -3.44000012E-02  -1.00155717E-10
  -3.43500003E-02  -7.00667094E-11
  -3.42999995E-02  -3.27270641E-11
  -3.42499986E-02  -6.96701431E-13
  -3.42000015E-02   1.51701655E-11
  -3.41500007E-02   1.12357554E-11
  -3.40999998E-02  -6.27373761E-12
  -3.40499990E-02  -2.31117313E-11
  -3.40000018E-02  -2.29788324E-11
  -3.39500010E-02   4.80125315E-12
  -3.39000002E-02   5.94192542E-11
  -3.38499993E-02   1.27571981E-10
  -3.37999985E-02   1.88336860E-10
  -3.37500013E-02   2.22229082E-10
  -3.37000005E-02   2.20539406E-10
  -3.36499996E-02   1.90499103E-10
  -3.35999988E-02   1.53358576E-10
  -3.35500017E-02   1.35571332E-10
  -3.35000008E-02   1.56610183E-10
  -3.34500000E-02   2.18919272E-10
  -3.33999991E-02   3.05036274E-10
  -3.33499983E-02   3.83977322E-10
  -3.33000012E-02   4.24733693E-10
  -3.32500003E-02   4.11103790E-10
  -3.31999995E-02   3.50884322E-10
  -3.31499986E-02   2.74476469E-10
  -3.31000015E-02   2.22558805E-10
  -3.30500007E-02   2.27675004E-10
  -3.29999998E-02   2.97941422E-10
  -3.29499990E-02   4.10823514E-10
  -3.29000019E-02   5.20858245E-10
  -3.28500010E-02   5.78908532E-10
  -3.28000002E-02   5.54834512E-10
  -3.27499993E-02   4.53130727E-10
  -3.26999985E-02   3.13520543E-10
  -3.26500013E-02   1.94961630E-10
  -3.26000005E-02   1.49269458E-10
  -3.25499997E-02   1.96015454E-10
  -3.24999988E-02   3.10709347E-10
  -3.24500017E-02   4.32950314E-10
  -3.24000008E-02   4.92291319E-10
  -3.23500000E-02   4.40974313E-10
  -3.22999991E-02   2.78562923E-10
  -3.22499983E-02   5.61447659E-11
  -3.22000012E-02  -1.43521126E-10
  -3.21500003E-02  -2.42428688E-10
  -3.20999995E-02  -2.04408643E-10
  -3.20499986E-02  -5.54130630E-11
  -3.20000015E-02   1.23862975E-10
  -3.19500007E-02   2.31643954E-10
  -3.18999998E-02   1.91137814E-10
  -3.18499990E-02  -1.17591596E-11
  -3.18000019E-02  -3.17451704E-10
  -3.17500010E-02  -6.15415774E-10
  -3.17000002E-02  -7.92436838E-10
  -3.16499993E-02  -7.85426890E-10
  -3.15999985E-02  -6.14312157E-10
  -3.15500014E-02  -3.78151066E-10
  -3.15000005E-02  -2.13777315E-10
  -3.14499997E-02  -2.33835423E-10
  -3.13999988E-02  -4.71921391E-10
  -3.13500017E-02  -8.61085037E-10
  -3.13000008E-02  -1.25804311E-09
  -3.12500000E-02  -1.50481694E-09
  -3.11999992E-02  -1.50139601E-09
  -3.11500002E-02  -1.25612853E-09
  -3.10999993E-02  -8.88813023E-10
  -3.10500003E-02  -5.82003279E-10
  -3.09999995E-02  -4.99985109E-10
  -3.09500005E-02  -7.11228187E-10
  -3.08999997E-02  -1.15070842E-09
  -3.08500007E-02  -1.64210445E-09
  -3.07999998E-02  -1.97311922E-09
  -3.07500008E-02  -1.99194794E-09
  -3.07000000E-02  -1.68113712E-09
  -3.06499992E-02  -1.17305610E-09
  -3.06000002E-02  -6.96358582E-10
  -3.05499993E-02  -4.74429995E-10
  -3.05000003E-02  -6.20436202E-10
  -3.04499995E-02  -1.07775755E-09
  -3.04000005E-02  -1.63618730E-09
  -3.03499997E-02  -2.02068628E-09
  -3.03000007E-02  -2.01547312E-09
  -3.02499998E-02  -1.56767999E-09
  -3.02000009E-02  -8.21211210E-10
  -3.01500000E-02  -6.11986295E-11
  -3.00999992E-02   4.10025791E-10
  -3.00500002E-02   4.11552570E-10
  -2.99999993E-02  -2.64530880E-11
  -2.99500003E-02  -6.66251221E-10
  -2.98999995E-02  -1.16239740E-09
  -2.98500005E-02  -1.21661714E-09
  -2.97999997E-02  -7.18640258E-10
  -2.97500007E-02   1.93057639E-10
  -2.96999998E-02   1.18284238E-09
  -2.96500009E-02   1.86355287E-09
  -2.96000000E-02   1.97337169E-09
  -2.95499992E-02   1.50348589E-09
  -2.95000002E-02   7.14923787E-10
  -2.94499993E-02   3.12910774E-11
  -2.94000003E-02  -1.49034007E-10
  -2.93499995E-02   3.61732089E-10
  -2.93000005E-02   1.44368173E-09
  -2.92499997E-02   2.70947309E-09
  -2.92000007E-02   3.66979935E-09
  -2.91499998E-02   3.95345934E-09
  -2.91000009E-02   3.48293261E-09
  -2.90500000E-02   2.52240540E-09
  -2.89999992E-02   1.57037039E-09
  -2.89500002E-02   1.13945642E-09
  -2.88999993E-02   1.52015878E-09
  -2.88500004E-02   2.63683386E-09
  -2.87999995E-02   4.06645073E-09
  -2.87500005E-02   5.21856780E-09
  -2.86999997E-02   5.60044322E-09
  -2.86500007E-02   5.04860287E-09
  -2.85999998E-02   3.81858545E-09
  -2.85500009E-02   2.48535326E-09
  -2.85000000E-02   1.69219916E-09
  -2.84499992E-02   1.85744908E-09
  -2.84000002E-02   2.97227420E-09
  -2.83499993E-02   4.58648275E-09
  -2.83000004E-02   5.99659122E-09
  -2.82499995E-02   6.55786625E-09
  -2.82000005E-02   5.98181416E-09
  -2.81499997E-02   4.48171766E-09
  -2.81000007E-02   2.69329559E-09
  -2.80499998E-02   1.39815393E-09
  -2.80000009E-02   1.16955534E-09
  -2.79500000E-02   2.10044160E-09
  -2.78999992E-02   3.74199871E-09
  -2.78500002E-02   5.28915356E-09
  -2.77999993E-02   5.93717298E-09
  -2.77500004E-02   5.25192956E-09
  -2.76999995E-02   3.38413431E-09
  -2.76500005E-02   1.02312003E-09
  -2.75999997E-02  -8.98477015E-10
  -2.75500007E-02  -1.62290947E-09
  -2.74999999E-02  -9.21014820E-10
  -2.74500009E-02   7.83291543E-10
  -2.74000000E-02   2.58318500E-09
  -2.73499992E-02   3.48637852E-09
  -2.73000002E-02   2.86573898E-09
  -2.72499993E-02   7.58330954E-10
  -2.72000004E-02  -2.12954232E-09
  -2.71499995E-02  -4.72380046E-09
  -2.71000005E-02  -6.06285777E-09
  -2.70499997E-02  -5.74252645E-09
  -2.70000007E-02  -4.12020862E-09
  -2.69499999E-02  -2.17641705E-09
  -2.69000009E-02  -1.08539699E-09
  -2.68500000E-02  -1.68190983E-09
  -2.67999992E-02  -4.06520906E-09
  -2.67500002E-02  -7.52657048E-09
  -2.66999993E-02  -1.08446017E-08
  -2.66500004E-02  -1.28253674E-08
  -2.65999995E-02  -1.28479707E-08
  -2.65500005E-02  -1.11657306E-08
  -2.64999997E-02  -8.81683881E-09
  -2.64500007E-02  -7.17269932E-09
  -2.63999999E-02  -7.31903738E-09
  -2.63500009E-02  -9.54794555E-09
  -2.63000000E-02  -1.31971847E-08
  -2.62499992E-02  -1.69214474E-08
  -2.62000002E-02  -1.92850518E-08
  -2.61499994E-02  -1.94146441E-08
  -2.61000004E-02  -1.74146546E-08
  -2.60499995E-02  -1.43474903E-08
  -2.60000005E-02  -1.17738050E-08
  -2.59499997E-02  -1.10497487E-08
  -2.59000007E-02  -1.26956516E-08
  -2.58499999E-02  -1.61278404E-08
  -2.58000009E-02  -1.98878958E-08
  -2.57500000E-02  -2.22798526E-08
  -2.56999992E-02  -2.21361169E-08
  -2.56500002E-02  -1.93652383E-08
  -2.55999994E-02  -1.50239483E-08
  -2.55500004E-02  -1.08660938E-08
  -2.54999995E-02  -8.55927684E-09
  -2.54500005E-02  -8.91816665E-09
  -2.53999997E-02  -1.15062733E-08
  -2.53500007E-02  -1.47996930E-08
  -2.52999999E-02  -1.68544023E-08
  -2.52500009E-02  -1.61860694E-08
  -2.52000000E-02  -1.24651214E-08
  -2.51499992E-02  -6.70278988E-09
  -2.51000002E-02  -8.27736157E-10
  -2.50499994E-02   3.17063820E-09
  -2.50000004E-02   4.15202228E-09
  -2.49499995E-02   2.37234343E-09
  -2.49000005E-02  -5.93460558E-10
  -2.48499997E-02  -2.53605248E-09
  -2.48000007E-02  -1.60742541E-09
  -2.47499999E-02   2.81991519E-09
  -2.47000009E-02   9.82833459E-09
  -2.46500000E-02   1.73293628E-08
  -2.45999992E-02   2.29851160E-08
  -2.45500002E-02   2.52696015E-08
  -2.44999994E-02   2.41866438E-08
  -2.44500004E-02   2.13049116E-08
  -2.43999995E-02   1.90744789E-08
  -2.43500005E-02   1.97185237E-08
  -2.42999997E-02   2.41971918E-08
  -2.42500007E-02   3.17220206E-08
  -2.41999999E-02   4.00600833E-08
  -2.41500009E-02   4.65107597E-08
  -2.41000000E-02   4.91256529E-08
  -2.40499992E-02   4.76179878E-08
  -2.40000002E-02   4.35345555E-08
  -2.39499994E-02   3.95901303E-08
  -2.39000004E-02   3.84464087E-08
  -2.38499995E-02   4.14810302E-08
  -2.38000005E-02   4.81122271E-08
  -2.37499997E-02   5.60052094E-08
  -2.37000007E-02   6.20899741E-08
  -2.36499999E-02   6.39451159E-08
  -2.36000009E-02   6.09211739E-08
  -2.35500000E-02   5.44792833E-08
  -2.34999992E-02   4.75675250E-08
  -2.34500002E-02   4.32952483E-08
  -2.33999994E-02   4.34963781E-08
  -2.33500004E-02   4.78405013E-08
  -2.32999995E-02   5.39168141E-08
  -2.32500006E-02   5.82798698E-08
  -2.31999997E-02   5.80024988E-08
  -2.31500007E-02   5.20346397E-08
  -2.30999999E-02   4.17367119E-08
  -2.30500009E-02   3.03184322E-08
  -2.30000000E-02   2.14109939E-08
  -2.29499992E-02   1.74064354E-08
  -2.29000002E-02   1.83230906E-08
  -2.28499994E-02   2.17347846E-08
  -2.28000004E-02   2.38261038E-08
  -2.27499995E-02   2.11184386E-08
  -2.27000006E-02   1.20889601E-08
  -2.26499997E-02  -2.06716577E-09
  -2.26000007E-02  -1.79073645E-08
  -2.25499999E-02  -3.12623243E-08
  -2.25000009E-02  -3.91339761E-08
  -2.24500000E-02  -4.11051460E-08
  -2.23999992E-02  -3.95959887E-08
  -2.23500002E-02  -3.88158803E-08
  -2.22999994E-02  -4.28576215E-08
  -2.22500004E-02  -5.37893357E-08
  -2.21999995E-02  -7.06251342E-08
  -2.21500006E-02  -8.96747281E-08
  -2.20999997E-02  -1.06149066E-07
  -2.20500007E-02  -1.16316343E-07
  -2.19999999E-02  -1.19228318E-07
  -2.19500009E-02  -1.17207748E-07
  -2.19000001E-02  -1.14836624E-07
  -2.18499992E-02  -1.16871419E-07
  -2.18000002E-02  -1.26018335E-07
  -2.17499994E-02  -1.41593034E-07
  -2.17000004E-02  -1.59709842E-07
  -2.16499995E-02  -1.74955971E-07
  -2.16000006E-02  -1.82819619E-07
  -2.15499997E-02  -1.81770815E-07
  -2.15000007E-02  -1.74023583E-07
  -2.14499999E-02  -1.64589423E-07
  -2.14000009E-02  -1.59011236E-07
  -2.13500001E-02  -1.60787621E-07
  -2.12999992E-02  -1.69668866E-07
  -2.12500002E-02  -1.81637276E-07
  -2.11999994E-02  -1.90628569E-07
  -2.11500004E-02  -1.91248319E-07
  -2.10999995E-02  -1.81255885E-07
  -2.10500006E-02  -1.62662005E-07
  -2.09999997E-02  -1.40892993E-07
  -2.09500007E-02  -1.22354308E-07
  -2.08999999E-02  -1.11474897E-07
  -2.08500009E-02  -1.08584466E-07
  -2.08000001E-02  -1.09629212E-07
  -2.07499992E-02  -1.07910630E-07
  -2.07000002E-02  -9.71010934E-08
  -2.06499994E-02  -7.41797450E-08
  -2.06000004E-02  -4.09288603E-08
  -2.05499995E-02  -3.25792660E-09
  -2.05000006E-02   3.13939061E-08
  -2.04499997E-02   5.74325689E-08
  -2.04000007E-02   7.37247419E-08
  -2.03499999E-02   8.42244248E-08
  -2.03000009E-02   9.62648841E-08
  -2.02500001E-02   1.17238706E-07
  -2.01999992E-02   1.51153813E-07
  -2.01500002E-02   1.96651811E-07
  -2.00999994E-02   2.47444319E-07
  -2.00500004E-02   2.95034198E-07
  -1.99999996E-02   3.32528458E-07
  -1.99500006E-02   3.57812610E-07
  -1.98999997E-02   3.74602905E-07
  -1.98500007E-02   3.90830166E-07
  -1.97999999E-02   4.15025738E-07
  -1.97500009E-02   4.52321558E-07
  -1.97000001E-02   5.01898171E-07
  -1.96499992E-02   5.57099781E-07
  -1.96000002E-02   6.08238338E-07
  -1.95499994E-02   6.46869182E-07
  -1.95000004E-02   6.69609506E-07
  -1.94499996E-02   6.79726043E-07
  -1.94000006E-02   6.85699945E-07
  -1.93499997E-02   6.97346820E-07
  -1.93000007E-02   7.21214008E-07
  -1.92499999E-02   7.57354144E-07
  -1.92000009E-02   7.99000645E-07
  -1.91500001E-02   8.35375374E-07
  -1.90999992E-02   8.56419604E-07
  -1.90500002E-02   8.57321083E-07
  -1.89999994E-02   8.40748385E-07
  -1.89500004E-02   8.15699082E-07
  -1.88999996E-02   7.93400659E-07
  -1.88500006E-02   7.82069037E-07
  -1.87999997E-02   7.82907136E-07
  -1.87500007E-02   7.89217779E-07
  -1.86999999E-02   7.89124783E-07
  -1.86500009E-02   7.70749239E-07
  -1.86000001E-02   7.27527549E-07
  -1.85499992E-02   6.61232889E-07
  -1.85000002E-02   5.81249310E-07
  -1.84499994E-02   5.00336000E-07
  -1.84000004E-02   4.28732335E-07
  -1.83499996E-02   3.69269401E-07
  -1.83000006E-02   3.15761923E-07
  -1.82499997E-02   2.55502755E-07
  -1.82000007E-02   1.74823498E-07
  -1.81499999E-02   6.52481233E-08
  -1.81000009E-02  -7.25696196E-08
  -1.80500001E-02  -2.28991027E-07
  -1.79999992E-02  -3.89656378E-07
  -1.79500002E-02  -5.42021041E-07
  -1.78999994E-02  -6.81226766E-07
  -1.78500004E-02  -8.12593953E-07
  -1.77999996E-02  -9.49506841E-07
  -1.77500006E-02  -1.10754672E-06
  -1.76999997E-02  -1.29745877E-06
  -1.76500008E-02  -1.52015241E-06
  -1.75999999E-02  -1.76607512E-06
  -1.75500009E-02  -2.01934176E-06
  -1.75000001E-02  -2.26486100E-06
  -1.74499992E-02  -2.49526443E-06
  -1.74000002E-02  -2.71446152E-06
  -1.73499994E-02  -2.93610697E-06
  -1.73000004E-02  -3.17755871E-06
  -1.72499996E-02  -3.45198578E-06
  -1.72000006E-02  -3.76218077E-06
  -1.71499997E-02  -4.09896575E-06
  -1.71000008E-02  -4.44502257E-06
  -1.70499999E-02  -4.78253332E-06
  -1.70000009E-02  -5.10122845E-06
  -1.69500001E-02  -5.40317433E-06
  -1.68999992E-02  -5.70204247E-06
  -1.68500002E-02  -6.01705733E-06
  -1.67999994E-02  -6.36425784E-06
  -1.67500004E-02  -6.74900957E-06
  -1.66999996E-02  -7.16321802E-06
  -1.66500006E-02  -7.58861142E-06
  -1.65999997E-02  -8.00472844E-06
  -1.65500008E-02  -8.39810582E-06
  -1.64999999E-02  -8.76846752E-06
  -1.64500009E-02  -9.12902760E-06
  -1.64000001E-02  -9.50067715E-06
  -1.63499992E-02  -9.90249737E-06
  -1.63000003E-02  -1.03428929E-05
  -1.62499994E-02  -1.08154127E-05
  -1.62000004E-02  -1.13012238E-05
  -1.61499996E-02  -1.17773052E-05
  -1.61000006E-02  -1.22267338E-05
  -1.60499997E-02  -1.26464247E-05
  -1.60000008E-02  -1.30487615E-05
  -1.59499999E-02  -1.34562251E-05
  -1.59000009E-02  -1.38913156E-05
  -1.58500001E-02  -1.43662510E-05
  -1.57999992E-02  -1.48771660E-05
  -1.57500003E-02  -1.54054687E-05
  -1.56999994E-02  -1.59259798E-05
  -1.56500004E-02  -1.64182602E-05
  -1.55999996E-02  -1.68759798E-05
  -1.55499997E-02  -1.73100852E-05
  -1.54999997E-02  -1.77441980E-05
  -1.54499998E-02  -1.82041476E-05
  -1.53999999E-02  -1.87062997E-05
  -1.53500000E-02  -1.92499629E-05
  -1.53000001E-02  -1.98174021E-05
  -1.52500002E-02  -2.03816016E-05
  -1.52000003E-02  -2.09184527E-05
  -1.51500003E-02  -2.14178890E-05
  -1.51000004E-02  -2.18888399E-05
  -1.50499996E-02  -2.23557090E-05
  -1.49999997E-02  -2.28477911E-05
  -1.49499997E-02  -2.33862429E-05
  -1.48999998E-02  -2.39745423E-05
  -1.48499999E-02  -2.45967967E-05
  -1.48000000E-02  -2.52248228E-05
  -1.47500001E-02  -2.58309756E-05
  -1.47000002E-02  -2.64010141E-05
  -1.46500003E-02  -2.69411139E-05
  -1.46000003E-02  -2.74757222E-05
  -1.45500004E-02  -2.80371514E-05
  -1.44999996E-02  -2.86513969E-05
  -1.44499997E-02  -2.93265384E-05
  -1.43999998E-02  -3.00491411E-05
  -1.43499998E-02  -3.07902883E-05
  -1.42999999E-02  -3.15188008E-05
  -1.42500000E-02  -3.22157757E-05
  -1.42000001E-02  -3.28838360E-05
  -1.41500002E-02  -3.35466757E-05
  -1.41000003E-02  -3.42392232E-05
  -1.40500003E-02  -3.49924994E-05
  -1.40000004E-02  -3.58199359E-05
  -1.39499996E-02  -3.67115099E-05
  -1.38999997E-02  -3.76384196E-05
  -1.38499998E-02  -3.85663952E-05
  -1.37999998E-02  -3.94716481E-05
  -1.37499999E-02  -4.03523700E-05
  -1.37000000E-02  -4.12305635E-05
  -1.36500001E-02  -4.21429868E-05
  -1.36000002E-02  -4.31253029E-05
  -1.35500003E-02  -4.41964221E-05
  -1.35000004E-02  -4.53502944E-05
  -1.34500004E-02  -4.65587800E-05
  -1.33999996E-02  -4.77846443E-05
  -1.33499997E-02  -4.89989034E-05
  -1.32999998E-02  -5.01946415E-05
  -1.32499998E-02  -5.13911000E-05
  -1.31999999E-02  -5.26259755E-05
  -1.31500000E-02  -5.39392859E-05
  -1.31000001E-02  -5.53558712E-05
  -1.30500002E-02  -5.68745309E-05
  -1.30000003E-02  -5.84688460E-05
  -1.29500004E-02  -6.00993808E-05
  -1.29000004E-02  -6.17320111E-05
  -1.28499996E-02  -6.33541204E-05
  -1.27999997E-02  -6.49812500E-05
  -1.27499998E-02  -6.66512060E-05
  -1.26999998E-02  -6.84077604E-05
  -1.26499999E-02  -7.02814723E-05
  -1.26000000E-02  -7.22763871E-05
  -1.25500001E-02  -7.43683922E-05
  -1.25000002E-02  -7.65163641E-05
  -1.24500003E-02  -7.86812598E-05
  -1.24000004E-02  -8.08442273E-05
  -1.23500004E-02  -8.30160643E-05
  -1.22999996E-02  -8.52333978E-05
  -1.22499997E-02  -8.75429178E-05
  -1.21999998E-02  -8.99810839E-05
  -1.21499998E-02  -9.25581262E-05
  -1.20999999E-02  -9.52537011E-05
  -1.20500000E-02  -9.80261539E-05
  -1.20000001E-02  -1.00831923E-04
  -1.19500002E-02  -1.03646016E-04
  -1.19000003E-02  -1.06474159E-04
  -1.18500004E-02  -1.09351298E-04
  -1.18000004E-02  -1.12326743E-04
  -1.17499996E-02  -1.15442635E-04
  -1.16999997E-02  -1.18715536E-04
  -1.16499998E-02  -1.22129233E-04
  -1.15999999E-02  -1.25642415E-04
  -1.15499999E-02  -1.29207649E-04
  -1.15000000E-02  -1.32793430E-04
  -1.14500001E-02  -1.36399467E-04
  -1.14000002E-02  -1.40057717E-04
  -1.13500003E-02  -1.43818921E-04
  -1.13000004E-02  -1.47730811E-04
  -1.12500004E-02  -1.51817090E-04
  -1.11999996E-02  -1.56067341E-04
  -1.11499997E-02  -1.60441923E-04
  -1.10999998E-02  -1.64890778E-04
  -1.10499999E-02  -1.69376857E-04
  -1.09999999E-02  -1.73893830E-04
  -1.09500000E-02  -1.78470393E-04
  -1.09000001E-02  -1.83158569E-04
  -1.08500002E-02  -1.88011181E-04
  -1.08000003E-02  -1.93058906E-04
  -1.07500004E-02  -1.98297072E-04
  -1.07000005E-02  -2.03688352E-04
  -1.06499996E-02  -2.09180100E-04
  -1.05999997E-02  -2.14729444E-04
  -1.05499998E-02  -2.20323651E-04
  -1.04999999E-02  -2.25986718E-04
  -1.04499999E-02  -2.31770406E-04
  -1.04000000E-02  -2.37732151E-04
  -1.03500001E-02  -2.43909599E-04
  -1.03000002E-02  -2.50305340E-04
  -1.02500003E-02  -2.56886618E-04
  -1.02000004E-02  -2.63600523E-04
  -1.01500005E-02  -2.70399934E-04
  -1.00999996E-02  -2.77265965E-04
  -1.00499997E-02  -2.84217647E-04
  -9.99999978E-03  -2.91305507E-04
  -9.94999986E-03  -2.98590603E-04
  -9.89999995E-03  -3.06118396E-04
  -9.85000003E-03  -3.13899363E-04
  -9.80000012E-03  -3.21905070E-04
  -9.75000020E-03  -3.30082636E-04
  -9.70000029E-03  -3.38380662E-04
  -9.65000037E-03  -3.46773129E-04
  -9.60000046E-03  -3.55273194E-04
  -9.54999961E-03  -3.63929314E-04
  -9.49999969E-03  -3.72804701E-04
  -9.44999978E-03  -3.81950784E-04
  -9.39999986E-03  -3.91385081E-04
  -9.34999995E-03  -4.01084835E-04
  -9.30000003E-03  -4.10998822E-04
  -9.25000012E-03  -4.21072298E-04
  -9.20000020E-03  -4.31273773E-04
  -9.15000029E-03  -4.41611395E-04
  -9.10000037E-03  -4.52131615E-04
  -9.05000046E-03  -4.62899887E-04
  -8.99999961E-03  -4.73973050E-04
  -8.94999970E-03  -4.85376688E-04
  -8.89999978E-03  -4.97094763E-04
  -8.84999987E-03  -5.09078673E-04
  -8.79999995E-03  -5.21272712E-04
  -8.75000004E-03  -5.33639628E-04
  -8.70000012E-03  -5.46180818E-04
  -8.65000021E-03  -5.58938365E-04
  -8.60000029E-03  -5.71977289E-04
  -8.55000038E-03  -5.85359463E-04
  -8.50000046E-03  -5.99117309E-04
  -8.44999962E-03  -6.13239594E-04
  -8.39999970E-03  -6.27680100E-04
  -8.34999979E-03  -6.42382132E-04
  -8.29999987E-03  -6.57304015E-04
  -8.24999996E-03  -6.72440394E-04
  -8.20000004E-03  -6.87828753E-04
  -8.15000013E-03  -7.03534984E-04
  -8.10000021E-03  -7.19624397E-04
  -8.05000030E-03  -7.36136048E-04
  -8.00000038E-03  -7.53067608E-04
  -7.95000046E-03  -7.70377810E-04
  -7.89999962E-03  -7.88008445E-04
  -7.84999970E-03  -8.05914402E-04
  -7.79999979E-03  -8.24085728E-04
  -7.74999987E-03  -8.42554786E-04
  -7.69999996E-03  -8.61386827E-04
  -7.65000004E-03  -8.80651583E-04
  -7.60000013E-03  -9.00393352E-04
  -7.55000021E-03  -9.20614577E-04
  -7.49999983E-03  -9.41277714E-04
  -7.44999992E-03  -9.62325023E-04
  -7.40000000E-03  -9.83707723E-04
  -7.35000009E-03  -1.00541033E-03
  -7.30000017E-03  -1.02746161E-03
  -7.24999979E-03  -1.04992441E-03
  -7.19999988E-03  -1.07287173E-03
  -7.14999996E-03  -1.09635259E-03
  -7.10000005E-03  -1.12037489E-03
  -7.05000013E-03  -1.14490511E-03
  -7.00000022E-03  -1.16988679E-03
  -6.94999984E-03  -1.19526882E-03
  -6.89999992E-03  -1.22102967E-03
  -6.85000001E-03  -1.24719483E-03
  -6.80000009E-03  -1.27382646E-03
  -6.75000018E-03  -1.30099710E-03
  -6.69999979E-03  -1.32876378E-03
  -6.64999988E-03  -1.35714258E-03
  -6.59999996E-03  -1.38610543E-03
  -6.55000005E-03  -1.41559658E-03
  -6.50000013E-03  -1.44556025E-03
  -6.45000022E-03  -1.47596991E-03
  -6.39999984E-03  -1.50684721E-03
  -6.34999992E-03  -1.53825304E-03
  -6.30000001E-03  -1.57026283E-03
  -6.25000009E-03  -1.60293968E-03
  -6.20000018E-03  -1.63630291E-03
  -6.14999980E-03  -1.67032843E-03
  -6.09999988E-03  -1.70496118E-03
  -6.04999997E-03  -1.74014166E-03
  -6.00000005E-03  -1.77584041E-03
  -5.95000014E-03  -1.81207294E-03
  -5.90000022E-03  -1.84889755E-03
  -5.84999984E-03  -1.88639574E-03
  -5.79999993E-03  -1.92463223E-03
  -5.75000001E-03  -1.96363381E-03
  -5.70000010E-03  -2.00338126E-03
  -5.65000018E-03  -2.04381626E-03
  -5.59999980E-03  -2.08487641E-03
  -5.54999989E-03  -2.12652679E-03
  -5.49999997E-03  -2.16878229E-03
  -5.45000006E-03  -2.21170043E-03
  -5.40000014E-03  -2.25536246E-03
  -5.35000023E-03  -2.29984312E-03
  -5.29999984E-03  -2.34517199E-03
  -5.24999993E-03  -2.39133020E-03
  -5.20000001E-03  -2.43826746E-03
  -5.15000010E-03  -2.48592091E-03
  -5.10000018E-03  -2.53424910E-03
  -5.04999980E-03  -2.58325739E-03
  -4.99999989E-03  -2.63299979E-03
  -4.94999997E-03  -2.68355734E-03
  -4.90000006E-03  -2.73500383E-03
  -4.85000014E-03  -2.78737908E-03
  -4.80000023E-03  -2.84067192E-03
  -4.74999985E-03  -2.89482437E-03
  -4.69999993E-03  -2.94977101E-03
  -4.65000002E-03  -3.00547131E-03
  -4.60000010E-03  -3.06191994E-03
  -4.55000019E-03  -3.11916973E-03
  -4.49999981E-03  -3.17730545E-03
  -4.44999989E-03  -3.23640252E-03
  -4.39999998E-03  -3.29650496E-03
  -4.35000006E-03  -3.35760694E-03
  -4.30000015E-03  -3.41965980E-03
  -4.25000023E-03  -3.48259206E-03
  -4.19999985E-03  -3.54635273E-03
  -4.14999994E-03  -3.61093692E-03
  -4.10000002E-03  -3.67638771E-03
  -4.05000011E-03  -3.74279078E-03
  -4.00000019E-03  -3.81022925E-03
  -3.94999981E-03  -3.87874851E-03
  -3.89999989E-03  -3.94834718E-03
  -3.84999998E-03  -4.01896797E-03
  -3.80000006E-03  -4.09053639E-03
  -3.74999992E-03  -4.16300120E-03
  -3.70000000E-03  -4.23634937E-03
  -3.65000009E-03  -4.31061955E-03
  -3.59999994E-03  -4.38588951E-03
  -3.55000002E-03  -4.46224166E-03
  -3.50000011E-03  -4.53973655E-03
  -3.44999996E-03  -4.61838115E-03
  -3.40000005E-03  -4.69812378E-03
  -3.34999990E-03  -4.77888016E-03
  -3.29999998E-03  -4.86058276E-03
  -3.25000007E-03  -4.94321017E-03
  -3.19999992E-03  -5.02679124E-03
  -3.15000000E-03  -5.11141494E-03
  -3.10000009E-03  -5.19718323E-03
  -3.04999994E-03  -5.28414920E-03
  -3.00000003E-03  -5.37231797E-03
  -2.95000011E-03  -5.46163647E-03
  -2.89999996E-03  -5.55200828E-03
  -2.85000005E-03  -5.64336404E-03
  -2.79999990E-03  -5.73568745E-03
  -2.74999999E-03  -5.82900224E-03
  -2.70000007E-03  -5.92338527E-03
  -2.64999992E-03  -6.01892872E-03
  -2.60000001E-03  -6.11568755E-03
  -2.55000009E-03  -6.21366594E-03
  -2.49999994E-03  -6.31282944E-03
  -2.45000003E-03  -6.41310262E-03
  -2.40000011E-03  -6.51439745E-03
  -2.34999997E-03  -6.61666226E-03
  -2.30000005E-03  -6.71990775E-03
  -2.24999990E-03  -6.82420004E-03
  -2.19999999E-03  -6.92964671E-03
  -2.15000007E-03  -7.03633158E-03
  -2.09999993E-03  -7.14427372E-03
  -2.05000001E-03  -7.25342147E-03
  -2.00000009E-03  -7.36367004E-03
  -1.94999995E-03  -7.47493142E-03
  -1.90000003E-03  -7.58714741E-03
  -1.85000000E-03  -7.70031428E-03
  -1.79999997E-03  -7.81452004E-03
  -1.75000005E-03  -7.92987738E-03
  -1.70000002E-03  -8.04645382E-03
  -1.64999999E-03  -8.16427451E-03
  -1.59999996E-03  -8.28329101E-03
  -1.55000004E-03  -8.40338692E-03
  -1.50000001E-03  -8.52444489E-03
  -1.44999998E-03  -8.64640530E-03
  -1.39999995E-03  -8.76927562E-03
  -1.35000004E-03  -8.89313780E-03
  -1.30000000E-03  -9.01810732E-03
  -1.24999997E-03  -9.14426055E-03
  -1.20000006E-03  -9.27160960E-03
  -1.15000003E-03  -9.40008182E-03
  -1.09999999E-03  -9.52955149E-03
  -1.04999996E-03  -9.65991989E-03
  -1.00000005E-03  -9.79111996E-03
  -9.50000016E-04  -9.92314704E-03
  -8.99999985E-04  -1.00560859E-02
  -8.50000011E-04  -1.01900343E-02
  -7.99999980E-04  -1.03250714E-02
  -7.50000007E-04  -1.04612131E-02
  -6.99999975E-04  -1.05984006E-02
  -6.50000002E-04  -1.07365223E-02
  -6.00000028E-04  -1.08754430E-02
  -5.49999997E-04  -1.10150743E-02
  -5.00000024E-04  -1.11554014E-02
  -4.49999992E-04  -1.12964856E-02
  -3.99999990E-04  -1.14384321E-02
  -3.49999988E-04  -1.15813315E-02
  -3.00000014E-04  -1.17252069E-02
  -2.50000012E-04  -1.18700201E-02
  -1.99999995E-04  -1.20156836E-02
  -1.50000007E-04  -1.21620363E-02
  -9.99999975E-05  -1.23089151E-02
  -4.99999987E-05  -1.24562569E-02
   0.00000000      -1.26040950E-02
   4.99999987E-05  -1.27525376E-02
   9.99999975E-05  -1.29017280E-02
   1.50000007E-04  -1.30517380E-02
   1.99999995E-04  -1.32025648E-02
   2.50000012E-04  -1.33540928E-02
   3.00000014E-04  -1.35061322E-02
   3.49999988E-04  -1.36584993E-02
   3.99999990E-04  -1.38110640E-02
   4.49999992E-04  -1.39638213E-02
   5.00000024E-04  -1.41168954E-02
   5.49999997E-04  -1.42704844E-02
   6.00000028E-04  -1.44246938E-02
   6.50000002E-04  -1.45795075E-02
   6.99999975E-04  -1.47347869E-02
   7.50000007E-04  -1.48903038E-02
   7.99999980E-04  -1.50458580E-02
   8.50000011E-04  -1.52013171E-02
   8.99999985E-04  -1.53566692E-02
   9.50000016E-04  -1.55119989E-02
   1.00000005E-03  -1.56674739E-02
   1.04999996E-03  -1.58232320E-02
   1.09999999E-03  -1.59792677E-02
   1.15000003E-03  -1.61354430E-02
   1.20000006E-03  -1.62915289E-02
   1.24999997E-03  -1.64473336E-02
   1.30000000E-03  -1.66027099E-02
   1.35000004E-03  -1.67575795E-02
   1.39999995E-03  -1.69120152E-02
   1.44999998E-03  -1.70661751E-02
   1.50000001E-03  -1.72202084E-02
   1.55000004E-03  -1.73741654E-02
   1.59999996E-03  -1.75279099E-02
   1.64999999E-03  -1.76811852E-02
   1.70000002E-03  -1.78337600E-02
   1.75000005E-03  -1.79854259E-02
   1.79999997E-03  -1.81360915E-02
   1.85000000E-03  -1.82858109E-02
   1.90000003E-03  -1.84347648E-02
   1.94999995E-03  -1.85831320E-02
   2.00000009E-03  -1.87309422E-02
   2.05000001E-03  -1.88780744E-02
   2.09999993E-03  -1.90242529E-02
   2.15000007E-03  -1.91692282E-02
   2.19999999E-03  -1.93127878E-02
   2.24999990E-03  -1.94548126E-02
   2.30000005E-03  -1.95953902E-02
   2.34999997E-03  -1.97346415E-02
   2.40000011E-03  -1.98726654E-02
   2.45000003E-03  -2.00094972E-02
   2.49999994E-03  -2.01450828E-02
   2.55000009E-03  -2.02791952E-02
   2.60000001E-03  -2.04115175E-02
   2.64999992E-03  -2.05418281E-02
   2.70000007E-03  -2.06700005E-02
   2.74999999E-03  -2.07960699E-02
   2.79999990E-03  -2.09202096E-02