  -3.99999991E-02   0.00000000    
  -3.99499983E-02   0.00000000    
  -3.99000011E-02   0.00000000    
  -3.98500003E-02   3.58577237E-16
  -3.97999994E-02   3.05203229E-15
  -3.97499986E-02   1.32853780E-14
  -3.97000015E-02   3.95290964E-14
  -3.96500006E-02   9.13747024E-14
  -3.95999998E-02   1.78507586E-13
  -3.95499989E-02   3.14043089E-13
  -3.95000018E-02   5.17444215E-13
  -3.94500010E-02   8.05757804E-13
  -3.94000001E-02   1.17179476E-12
  -3.93499993E-02   1.57012630E-12
  -3.92999984E-02   1.93805692E-12
  -3.92500013E-02   2.24912493E-12
  -3.92000005E-02   2.55500482E-12
  -3.91499996E-02   2.96913145E-12
  -3.90999988E-02   3.59757233E-12
  -3.90500017E-02   4.47742668E-12
  -3.90000008E-02   5.57391329E-12
  -3.89500000E-02   6.81988277E-12
  -3.88999991E-02   8.13815074E-12
  -3.88499983E-02   9.42724371E-12
  -3.88000011E-02   1.05650228E-11
  -3.87500003E-02   1.14833499E-11
  -3.86999995E-02   1.22678118E-11
  -3.86499986E-02   1.31568896E-11
  -3.86000015E-02   1.43803745E-11
  -3.85500006E-02   1.59481022E-11
  -3.84999998E-02   1.75857297E-11
  -3.84499989E-02   1.88910571E-11
  -3.84000018E-02   1.95667024E-11
  -3.83500010E-02   1.95173148E-11
  -3.83000001E-02   1.87658101E-11
  -3.82499993E-02   1.73474343E-11
  -3.81999984E-02   1.53327091E-11
  -3.81500013E-02   1.29201051E-11
  -3.81000005E-02   1.04011478E-11
  -3.80499996E-02   7.93846239E-12
  -3.79999988E-02   5.36403604E-12
  -3.79500017E-02   2.25159605E-12
  -3.79000008E-02  -1.76458002E-12
  -3.78500000E-02  -6.75178836E-12
  -3.77999991E-02  -1.25885144E-11
  -3.77499983E-02  -1.92928763E-11
  -3.77000012E-02  -2.71646143E-11
  -3.76500003E-02  -3.65336754E-11
  -3.75999995E-02  -4.73789480E-11
  -3.75499986E-02  -5.92701929E-11
  -3.75000015E-02  -7.17453666E-11
  -3.74500006E-02  -8.47409504E-11
  -3.73999998E-02  -9.86268081E-11
  -3.73499990E-02  -1.13839292E-10
  -3.73000018E-02  -1.30521247E-10
  -3.72500010E-02  -1.48469598E-10
  -3.72000001E-02  -1.67226524E-10
  -3.71499993E-02  -1.85969115E-10
  -3.70999984E-02  -2.03249750E-10
  -3.70500013E-02  -2.17122778E-10
  -3.70000005E-02  -2.26044697E-10
  -3.69499996E-02  -2.30133357E-10
  -3.68999988E-02  -2.31743041E-10
  -3.68500017E-02  -2.34645026E-10
  -3.68000008E-02  -2.42176612E-10
  -3.67500000E-02  -2.55521826E-10
  -3.66999991E-02  -2.73079281E-10
  -3.66499983E-02  -2.90996255E-10
  -3.66000012E-02  -3.04364201E-10
  -3.65500003E-02  -3.08684245E-10
  -3.64999995E-02  -3.01469683E-10
  -3.64499986E-02  -2.83583601E-10
  -3.64000015E-02  -2.59367916E-10
  -3.63500006E-02  -2.34767483E-10
  -3.62999998E-02  -2.13926044E-10
  -3.62499990E-02  -1.96219763E-10
  -3.62000018E-02  -1.75882878E-10
  -3.61500010E-02  -1.44804543E-10
  -3.61000001E-02  -9.69330657E-11
  -3.60499993E-02  -3.17737676E-11
  -3.59999985E-02   4.47496519E-11
  -3.59500013E-02   1.22270902E-10
  -3.59000005E-02   1.89945795E-10
  -3.58499996E-02   2.41191983E-10
  -3.57999988E-02   2.77638995E-10
  -3.57500017E-02   3.10269310E-10
  -3.57000008E-02   3.56077418E-10
  -3.56500000E-02   4.30585290E-10
  -3.55999991E-02   5.39462086E-10
  -3.55499983E-02   6.74005962E-10
  -3.55000012E-02   8.13685119E-10
  -3.54500003E-02   9.34988531E-10
  -3.53999995E-02   1.02223718E-09
  -3.53499986E-02   1.07511910E-09
  -3.53000015E-02   1.10956222E-09
  -3.52500007E-02   1.15154741E-09
  -3.51999998E-02   1.22600330E-09
  -3.51499990E-02   1.34473788E-09
  -3.51000018E-02   1.49845314E-09
  -3.50500010E-02   1.65747394E-09
  -3.50000001E-02   1.78271442E-09
  -3.49499993E-02   1.84312376E-09
  -3.48999985E-02   1.83130222E-09
  -3.48500013E-02   1.76869808E-09
  -3.48000005E-02   1.69675907E-09
  -3.47499996E-02   1.65782710E-09
  -3.46999988E-02   1.67486658E-09
  -3.46500017E-02   1.73942727E-09
  -3.46000008E-02   1.81330195E-09
  -3.45500000E-02   1.84364246E-09
  -3.44999991E-02   1.78595994E-09
  -3.44499983E-02   1.62572455E-09
  -3.44000012E-02   1.38838219E-09
  -3.43500003E-02   1.13108312E-09
  -3.42999995E-02   9.17454779E-10
  -3.42499986E-02   7.86124388E-10
  -3.42000015E-02   7.28718197E-10
  -3.41500007E-02   6.89622359E-10
  -3.40999998E-02   5.89138571E-10
  -3.40499990E-02   3.59765384E-10
  -3.40000018E-02  -2.11970753E-11
  -3.39500010E-02  -5.17765053E-10
  -3.39000002E-02  -1.04706843E-09
  -3.38499993E-02  -1.51314672E-09
  -3.37999985E-02  -1.84952842E-09
  -3.37500013E-02  -2.05222528E-09
  -3.37000005E-02  -2.18656648E-09
  -3.36499996E-02  -2.36130226E-09
  -3.35999988E-02  -2.67886868E-09
  -3.35500017E-02  -3.18419491E-09
  -3.35000008E-02  -3.83755472E-09
  -3.34500000E-02  -4.52658178E-09
  -3.33999991E-02  -5.11359177E-09
  -3.33499983E-02  -5.49704149E-09
  -3.33000012E-02  -5.65923663E-09
  -3.32500003E-02  -5.67829206E-09
  -3.31999995E-02  -5.69746650E-09
  -3.31499986E-02  -5.86299942E-09
  -3.31000015E-02  -6.25589758E-09
  -3.30500007E-02  -6.84822155E-09
  -3.29999998E-02  -7.50666818E-09
  -3.29499990E-02  -8.04614242E-09
  -3.29000019E-02  -8.31160829E-09
  -3.28500010E-02  -8.25028490E-09
  -3.28000002E-02  -7.93846500E-09
  -3.27499993E-02  -7.54819673E-09
  -3.26999985E-02  -7.26790850E-09
  -3.26500013E-02  -7.21305460E-09
  -3.26000005E-02  -7.36761674E-09
  -3.25499997E-02  -7.58385088E-09
  -3.24999988E-02  -7.64291119E-09
  -3.24500017E-02  -7.35241690E-09
  -3.24000008E-02  -6.63892230E-09
  -3.23500000E-02  -5.59178126E-09
  -3.22999991E-02  -4.43328352E-09
  -3.22499983E-02  -3.42324546E-09
  -3.22000012E-02  -2.73936474E-09
  -3.21500003E-02  -2.38979125E-09
  -3.20999995E-02  -2.20160024E-09
  -3.20499986E-02  -1.89348159E-09
  -3.20000015E-02  -1.20119448E-09
  -3.19500007E-02   3.31928604E-13
  -3.18999998E-02   1.63327318E-09
  -3.18499990E-02   3.44188411E-09
  -3.18000019E-02   5.09888709E-09
  -3.17500010E-02   6.34991126E-09
  -3.17000002E-02   7.13258874E-09
  -3.16499993E-02   7.61334551E-09
  -3.15999985E-02   8.11901746E-09
  -3.15500014E-02   8.98900598E-09
  -3.15000005E-02   1.04142286E-08
  -3.14499997E-02   1.23389547E-08
  -3.13999988E-02   1.44738372E-08
  -3.13500017E-02   1.64164380E-08
  -3.13000008E-02   1.78260837E-08
  -3.12500000E-02   1.85753866E-08
  -3.11999992E-02   1.88104821E-08
  -3.11500002E-02   1.88908054E-08
  -3.10999993E-02   1.92303311E-08
  -3.10500003E-02   2.01069987E-08
  -3.09999995E-02   2.15257838E-08
  -3.09500005E-02   2.32021442E-08
  -3.08999997E-02   2.46799843E-08
  -3.08500007E-02   2.55342876E-08
  -3.07999998E-02   2.55656385E-08
  -3.07500008E-02   2.48949199E-08
  -3.07000000E-02   2.39122233E-08
  -3.06499992E-02   2.31016877E-08
  -3.06000002E-02   2.28201351E-08
  -3.05499993E-02   2.31278143E-08
  -3.05000003E-02   2.37475728E-08
  -3.04499995E-02   2.41748985E-08
  -3.04000005E-02   2.38963000E-08
  -3.03499997E-02   2.26223360E-08
  -3.03000007E-02   2.04286454E-08
  -3.02499998E-02   1.77347843E-08
  -3.02000009E-02   1.51233301E-08
  -3.01500000E-02   1.30784459E-08
  -3.00999992E-02   1.17638228E-08
  -3.00500002E-02   1.09428937E-08
  -2.99999993E-02   1.00792743E-08
  -2.99500003E-02   8.57387406E-09
  -2.98999995E-02   6.03479045E-09
  -2.98500005E-02   2.46189469E-09
  -2.97999997E-02  -1.73693882E-09
  -2.97500007E-02  -5.91113558E-09
  -2.96999998E-02  -9.44778744E-09
  -2.96500009E-02  -1.20455876E-08
  -2.96000000E-02  -1.38565559E-08
  -2.95499992E-02  -1.54251634E-08
  -2.95000002E-02  -1.74470856E-08
  -2.94499993E-02  -2.04545731E-08
  -2.94000003E-02  -2.45715182E-08
  -2.93499995E-02  -2.94486675E-08
  -2.93000005E-02  -3.44070941E-08
  -2.92499997E-02  -3.87271157E-08
  -2.92000007E-02  -4.19575130E-08
  -2.91499998E-02  -4.41105463E-08
  -2.91000009E-02  -4.56550637E-08
  -2.90500000E-02  -4.73049475E-08
  -2.89999992E-02  -4.96905770E-08
  -2.89500002E-02  -5.30587556E-08
  -2.88999993E-02  -5.71405749E-08
  -2.88500004E-02  -6.12530116E-08
  -2.87999995E-02  -6.45914895E-08
  -2.87500005E-02  -6.65819897E-08
  -2.86999997E-02  -6.71341382E-08
  -2.86500007E-02  -6.66818778E-08
  -2.85999998E-02  -6.59940653E-08
  -2.85500009E-02  -6.58353727E-08
  -2.85000000E-02  -6.66219435E-08
  -2.84499992E-02  -6.82216381E-08
  -2.84000002E-02  -6.99905485E-08
  -2.83499993E-02  -7.10383219E-08
  -2.83000004E-02  -7.06119039E-08
  -2.82499995E-02  -6.84283989E-08
  -2.82000005E-02  -6.48039844E-08
  -2.81499997E-02  -6.05159016E-08
  -2.81000007E-02  -5.64580738E-08
  -2.80499998E-02  -5.32433120E-08
  -2.80000009E-02  -5.09274791E-08
  -2.79500000E-02  -4.89756786E-08
  -2.78999992E-02  -4.64854537E-08
  -2.78500002E-02  -4.25752233E-08
  -2.77999993E-02  -3.67751021E-08
  -2.77500004E-02  -2.92502467E-08
  -2.76999995E-02  -2.07530171E-08
  -2.76500005E-02  -1.23147768E-08
  -2.75999997E-02  -4.80669193E-09
  -2.75500007E-02   1.43632872E-09
  -2.74999999E-02   6.75813494E-09
  -2.74500009E-02   1.20247750E-08
  -2.74000000E-02   1.82378397E-08
  -2.73499992E-02   2.60868589E-08
  -2.73000002E-02   3.56345318E-08
  -2.72499993E-02   4.62685321E-08
  -2.72000004E-02   5.69430298E-08
  -2.71499995E-02   6.66129054E-08
  -2.71000005E-02   7.46780273E-08
  -2.70499997E-02   8.12425682E-08
  -2.70000007E-02   8.70671215E-08
  -2.69499999E-02   9.32241591E-08
  -2.69000009E-02   1.00604552E-07
  -2.68500000E-02   1.09496334E-07
  -2.67999992E-02   1.19424726E-07
  -2.67500002E-02   1.29327290E-07
  -2.66999993E-02   1.37989275E-07
  -2.66500004E-02   1.44551464E-07
  -2.65999995E-02   1.48873013E-07
  -2.65500005E-02   1.51590598E-07
  -2.64999997E-02   1.53840105E-07
  -2.64500007E-02   1.56749678E-07
  -2.63999999E-02   1.60917665E-07
  -2.63500009E-02   1.66109203E-07
  -2.63000000E-02   1.71316998E-07
  -2.62499992E-02   1.75171223E-07
  -2.62000002E-02   1.76524381E-07
  -2.61499994E-02   1.74951893E-07
  -2.61000004E-02   1.70944418E-07
  -2.60499995E-02   1.65703938E-07
  -2.60000005E-02   1.60627536E-07
  -2.59499997E-02   1.56696515E-07
  -2.59000007E-02   1.54030232E-07
  -2.58499999E-02   1.51803903E-07
  -2.58000009E-02   1.48578422E-07
  -2.57500000E-02   1.42912484E-07
  -2.56999992E-02   1.33998682E-07
  -2.56500002E-02   1.22037562E-07
  -2.55999994E-02   1.08173431E-07
  -2.55500004E-02   9.40099696E-08
  -2.54999995E-02   8.09142691E-08
  -2.54500005E-02   6.94202527E-08
  -2.53999997E-02   5.89952407E-08
  -2.53500007E-02   4.82747957E-08
  -2.52999999E-02   3.56702436E-08
  -2.52500009E-02   2.00887023E-08
  -2.52000000E-02   1.45588464E-09
  -2.51499992E-02  -1.91959852E-08
  -2.51000002E-02  -4.01304270E-08
  -2.50499994E-02  -5.96378698E-08
  -2.50000004E-02  -7.67781430E-08
  -2.49499995E-02  -9.17948881E-08
  -2.49000005E-02  -1.06003633E-07
  -2.48499997E-02  -1.21193040E-07
  -2.48000007E-02  -1.38803259E-07
  -2.47499999E-02  -1.59245786E-07
  -2.47000009E-02  -1.81668653E-07
  -2.46500000E-02  -2.04275750E-07
  -2.45999992E-02  -2.25069542E-07
  -2.45500002E-02  -2.42699116E-07
  -2.44999994E-02  -2.57041052E-07
  -2.44500004E-02  -2.69248318E-07
  -2.43999995E-02  -2.81223208E-07
  -2.43500005E-02  -2.94731080E-07
  -2.42999997E-02  -3.10550973E-07
  -2.42500007E-02  -3.28052835E-07
  -2.41999999E-02  -3.45405539E-07
  -2.41500009E-02  -3.60333786E-07
  -2.41000000E-02  -3.71085946E-07
  -2.40499992E-02  -3.77184989E-07
  -2.40000002E-02  -3.79632439E-07
  -2.39499994E-02  -3.80462950E-07
  -2.39000004E-02  -3.81836799E-07
  -2.38499995E-02  -3.85057092E-07
  -2.38000005E-02  -3.89945882E-07
  -2.37499997E-02  -3.94869772E-07
  -2.37000007E-02  -3.97418944E-07
  -2.36499999E-02  -3.95454265E-07
  -2.36000009E-02  -3.88051689E-07
  -2.35500000E-02  -3.75905756E-07
  -2.34999992E-02  -3.61009768E-07
  -2.34500002E-02  -3.45758309E-07
  -2.33999994E-02  -3.31871917E-07
  -2.33500004E-02  -3.19619829E-07
  -2.32999995E-02  -3.07687259E-07
  -2.32500006E-02  -2.93748883E-07
  -2.31999997E-02  -2.75504448E-07
  -2.31500007E-02  -2.51727954E-07
  -2.30999999E-02  -2.22857693E-07
  -2.30500009E-02  -1.90845270E-07
  -2.30000000E-02  -1.58315430E-07
  -2.29499992E-02  -1.27413571E-07
  -2.29000002E-02  -9.88689521E-08
  -2.28499994E-02  -7.16993540E-08
  -2.28000004E-02  -4.36894254E-08
  -2.27499995E-02  -1.24297745E-08
  -2.27000006E-02   2.35508644E-08
  -2.26499997E-02   6.40631228E-08
  -2.26000007E-02   1.07265542E-07
  -2.25499999E-02   1.50410713E-07
  -2.25000009E-02   1.91002911E-07
  -2.24500000E-02   2.27861335E-07
  -2.23999992E-02   2.61608420E-07
  -2.23500002E-02   2.94345028E-07
  -2.22999994E-02   3.28651709E-07
  -2.22500004E-02   3.66364930E-07
  -2.21999995E-02   4.07683501E-07
  -2.21500006E-02   4.51013847E-07
  -2.20999997E-02   4.93608866E-07
  -2.20500007E-02   5.32707531E-07
  -2.19999999E-02   5.66676761E-07
  -2.19500009E-02   5.95650420E-07
  -2.19000001E-02   6.21384061E-07
  -2.18499992E-02   6.46389992E-07
  -2.18000002E-02   6.72730948E-07
  -2.17499994E-02   7.01013164E-07
  -2.17000004E-02   7.30034515E-07
  -2.16499995E-02   7.57248131E-07
  -2.16000006E-02   7.79835943E-07
  -2.15499997E-02   7.95901997E-07
  -2.15000007E-02   8.05238642E-07
  -2.14499999E-02   8.09333130E-07
  -2.14000009E-02   8.10624897E-07
  -2.13500001E-02   8.11363634E-07
  -2.12999992E-02   8.12571841E-07
  -2.12500002E-02   8.13565578E-07
  -2.11999994E-02   8.12230326E-07
  -2.11500004E-02   8.05929062E-07
  -2.10999995E-02   7.92643732E-07
  -2.10500006E-02   7.71835630E-07
  -2.09999997E-02   7.44633439E-07
  -2.09500007E-02   7.13262068E-07
  -2.08999999E-02   6.79983657E-07
  -2.08500009E-02   6.46037790E-07
  -2.08000001E-02   6.11089945E-07
  -2.07499992E-02   5.73406453E-07
  -2.07000002E-02   5.30634225E-07
  -2.06499994E-02   4.80846154E-07
  -2.06000004E-02   4.23398035E-07
  -2.05499995E-02   3.59217211E-07
  -2.05000006E-02   2.90408195E-07
  -2.04499997E-02   2.19348479E-07
  -2.04000007E-02   1.47654134E-07
  -2.03499999E-02   7.55065130E-08
  -2.03000009E-02   1.62983083E-09
  -2.02500001E-02  -7.60814487E-08
  -2.01999992E-02  -1.59579344E-07
  -2.01500002E-02  -2.49778310E-07
  -2.00999994E-02  -3.46171873E-07
  -2.00500004E-02  -4.47080055E-07
  -1.99999996E-02  -5.50369123E-07
  -1.99500006E-02  -6.54320388E-07
  -1.98999997E-02  -7.58287911E-07
  -1.98500007E-02  -8.62893842E-07
  -1.97999999E-02  -9.69655275E-07
  -1.97500009E-02  -1.08022175E-06
  -1.97000001E-02  -1.19556830E-06
  -1.96499992E-02  -1.31550962E-06
  -1.96000002E-02  -1.43875968E-06
  -1.95499994E-02  -1.56348813E-06
  -1.95000004E-02  -1.68807605E-06
  -1.94499996E-02  -1.81170503E-06
  -1.94000006E-02  -1.93456026E-06
  -1.93499997E-02  -2.05759056E-06
  -1.93000007E-02  -2.18200535E-06
  -1.92499999E-02  -2.30868636E-06
  -1.92000009E-02  -2.43774389E-06
  -1.91500001E-02  -2.56842054E-06
  -1.90999992E-02  -2.69940870E-06
  -1.90500002E-02  -2.82936389E-06
  -1.89999994E-02  -2.95743166E-06
  -1.89500004E-02  -3.08354834E-06
  -1.88999996E-02  -3.20830213E-06
  -1.88500006E-02  -3.33254820E-06
  -1.87999997E-02  -3.45697117E-06
  -1.87500007E-02  -3.58179318E-06
  -1.86999999E-02  -3.70667362E-06
  -1.86500009E-02  -3.83084944E-06
  -1.86000001E-02  -3.95339703E-06
  -1.85499992E-02  -4.07354992E-06
  -1.85000002E-02  -4.19095704E-06
  -1.84499994E-02  -4.30576893E-06
  -1.84000004E-02  -4.41849988E-06
  -1.83499996E-02  -4.52977747E-06
  -1.83000006E-02  -4.64005097E-06
  -1.82499997E-02  -4.74942726E-06
  -1.82000007E-02  -4.85773899E-06
  -1.81499999E-02  -4.96465509E-06
  -1.81000009E-02  -5.06981678E-06
  -1.80500001E-02  -5.17285662E-06
  -1.79999992E-02  -5.27353450E-06
  -1.79500002E-02  -5.37185451E-06
  -1.78999994E-02  -5.46812907E-06
  -1.78500004E-02  -5.56293617E-06
  -1.77999996E-02  -5.65691698E-06
  -1.77500006E-02  -5.75061040E-06
  -1.76999997E-02  -5.84429108E-06
  -1.76500008E-02  -5.93793129E-06
  -1.75999999E-02  -6.03119270E-06
  -1.75500009E-02  -6.12346321E-06
  -1.75000001E-02  -6.21405206E-06
  -1.74499992E-02  -6.30254954E-06
  -1.74000002E-02  -6.38912434E-06
  -1.73499994E-02  -6.47458046E-06
  -1.73000004E-02  -6.56016027E-06
  -1.72499996E-02  -6.64710205E-06
  -1.72000006E-02  -6.73619934E-06
  -1.71499997E-02  -6.82757718E-06
  -1.71000008E-02  -6.92078083E-06
  -1.70499999E-02  -7.01498675E-06
  -1.70000009E-02  -7.10941140E-06
  -1.69500001E-02  -7.20382241E-06
  -1.68999992E-02  -7.29887051E-06
  -1.68500002E-02  -7.39599272E-06
  -1.67999994E-02  -7.49693299E-06
  -1.67500004E-02  -7.60308012E-06
  -1.66999996E-02  -7.71482792E-06
  -1.66500006E-02  -7.83140513E-06
  -1.65999997E-02  -7.95140477E-06
  -1.65500008E-02  -8.07356810E-06
  -1.64999999E-02  -8.19734487E-06
  -1.64500009E-02  -8.32335627E-06
  -1.64000001E-02  -8.45337490E-06
  -1.63499992E-02  -8.58976364E-06
  -1.63000003E-02  -8.73477984E-06
  -1.62499994E-02  -8.88960221E-06
  -1.62000004E-02  -9.05383513E-06
  -1.61499996E-02  -9.22581876E-06
  -1.61000006E-02  -9.40351219E-06
  -1.60499997E-02  -9.58570399E-06
  -1.60000008E-02  -9.77280433E-06
  -1.59499999E-02  -9.96680137E-06
  -1.59000009E-02  -1.01705518E-05
  -1.58500001E-02  -1.03868379E-05
  -1.57999992E-02  -1.06174339E-05
  -1.57500003E-02  -1.08623744E-05
  -1.56999994E-02  -1.11198224E-05
  -1.56500004E-02  -1.13870119E-05
  -1.55999996E-02  -1.16617221E-05
  -1.55499997E-02  -1.19437582E-05
  -1.54999997E-02  -1.22351539E-05
  -1.54499998E-02  -1.25393708E-05
  -1.53999999E-02  -1.28601769E-05
  -1.53500000E-02  -1.32002060E-05
  -1.53000001E-02  -1.35601822E-05
  -1.52500002E-02  -1.39388449E-05
  -1.52000003E-02  -1.43330763E-05
  -1.51500003E-02  -1.47395913E-05
  -1.51000004E-02  -1.51572149E-05
  -1.50499996E-02  -1.55874495E-05
  -1.49999997E-02  -1.60339896E-05
  -1.49499997E-02  -1.65012916E-05
  -1.48999998E-02  -1.69928880E-05
  -1.48499999E-02  -1.75097975E-05
  -1.48000000E-02  -1.80506449E-05
  -1.47500001E-02  -1.86125835E-05
  -1.47000002E-02  -1.91920790E-05
  -1.46500003E-02  -1.97869322E-05
  -1.46000003E-02  -2.03978143E-05
  -1.45500004E-02  -2.10282360E-05
  -1.44999996E-02  -2.16830740E-05
  -1.44499997E-02  -2.23666248E-05
  -1.43999998E-02  -2.30810074E-05
  -1.43499998E-02  -2.38252887E-05
  -1.42999999E-02  -2.45957508E-05
  -1.42500000E-02  -2.53879371E-05
  -1.42000001E-02  -2.61991809E-05
  -1.41500002E-02  -2.70296368E-05
  -1.41000003E-02  -2.78825555E-05
  -1.40500003E-02  -2.87635503E-05
  -1.40000004E-02  -2.96782218E-05
  -1.39499996E-02  -3.06294642E-05
  -1.38999997E-02  -3.16163532E-05
  -1.38499998E-02  -3.26349837E-05
  -1.37999998E-02  -3.36803896E-05
  -1.37499999E-02  -3.47486566E-05
  -1.37000000E-02  -3.58387369E-05
  -1.36500001E-02  -3.69533991E-05
  -1.36000002E-02  -3.80980819E-05
  -1.35500003E-02  -3.92786278E-05
  -1.35000004E-02  -4.04996681E-05
  -1.34500004E-02  -4.17624033E-05
  -1.33999996E-02  -4.30632826E-05
  -1.33499997E-02  -4.43959616E-05
  -1.32999998E-02  -4.57548704E-05
  -1.32499998E-02  -4.71383173E-05
  -1.31999999E-02  -4.85492674E-05
  -1.31500000E-02  -4.99930247E-05
  -1.31000001E-02  -5.14753992E-05
  -1.30500002E-02  -5.30014440E-05
  -1.30000003E-02  -5.45734983E-05
  -1.29500004E-02  -5.61893939E-05
  -1.29000004E-02  -5.78427025E-05
  -1.28499996E-02  -5.95263082E-05
  -1.27999997E-02  -6.12362419E-05
  -1.27499998E-02  -6.29738934E-05
  -1.26999998E-02  -6.47458874E-05
  -1.26499999E-02  -6.65593980E-05
  -1.26000000E-02  -6.84185725E-05
  -1.25500001E-02  -7.03244368E-05
  -1.25000002E-02  -7.22747354E-05
  -1.24500003E-02  -7.42650664E-05
  -1.24000004E-02  -7.62898417E-05
  -1.23500004E-02  -7.83443611E-05
  -1.22999996E-02  -8.04280717E-05
  -1.22499997E-02  -8.25466195E-05
  -1.21999998E-02  -8.47107876E-05
  -1.21499998E-02  -8.69301948E-05
  -1.20999999E-02  -8.92082826E-05
  -1.20500000E-02  -9.15409837E-05
  -1.20000001E-02  -9.39188758E-05
  -1.19500002E-02  -9.63332495E-05
  -1.19000003E-02  -9.87798485E-05
  -1.18500004E-02  -1.01258323E-04
  -1.18000004E-02  -1.03770210E-04
  -1.17499996E-02  -1.06319298E-04
  -1.16999997E-02  -1.08913206E-04
  -1.16499998E-02  -1.11561072E-04
  -1.15999999E-02  -1.14267998E-04
  -1.15499999E-02  -1.17031064E-04
  -1.15000000E-02  -1.19841920E-04
  -1.14500001E-02  -1.22694270E-04
  -1.14000002E-02  -1.25589402E-04
  -1.13500003E-02  -1.28536165E-04
  -1.13000004E-02  -1.31545850E-04
  -1.12500004E-02  -1.34624555E-04
  -1.11999996E-02  -1.37771742E-04
  -1.11499997E-02  -1.40984004E-04
  -1.10999998E-02  -1.44255813E-04
  -1.10499999E-02  -1.47578423E-04
  -1.09999999E-02  -1.50940890E-04
  -1.09500000E-02  -1.54335517E-04
  -1.09000001E-02  -1.57762624E-04
  -1.08500002E-02  -1.61233897E-04
  -1.08000003E-02  -1.64768018E-04
  -1.07500004E-02  -1.68379658E-04
  -1.07000005E-02  -1.72073545E-04
  -1.06499996E-02  -1.75846944E-04
  -1.05999997E-02  -1.79694936E-04
  -1.05499998E-02  -1.83616547E-04
  -1.04999999E-02  -1.87613754E-04
  -1.04499999E-02  -1.91686995E-04
  -1.04000000E-02  -1.95838613E-04
  -1.03500001E-02  -2.00075810E-04
  -1.03000002E-02  -2.04406490E-04
  -1.02500003E-02  -2.08833211E-04
  -1.02000004E-02  -2.13349747E-04
  -1.01500005E-02  -2.17943903E-04
  -1.00999996E-02  -2.22605158E-04
  -1.00499997E-02  -2.27329729E-04
  -9.99999978E-03  -2.32122082E-04
  -9.94999986E-03  -2.36992113E-04
  -9.89999995E-03  -2.41954607E-04
  -9.85000003E-03  -2.47022021E-04
  -9.80000012E-03  -2.52199708E-04
  -9.75000020E-03  -2.57489301E-04
  -9.70000029E-03  -2.62887741E-04
  -9.65000037E-03  -2.68389180E-04
  -9.60000046E-03  -2.73989281E-04
  -9.54999961E-03  -2.79687694E-04
  -9.49999969E-03  -2.85494054E-04
  -9.44999978E-03  -2.91426142E-04
  -9.39999986E-03  -2.97497900E-04
  -9.34999995E-03  -3.03718058E-04
  -9.30000003E-03  -3.10088129E-04
  -9.25000012E-03  -3.16599821E-04
  -9.20000020E-03  -3.23241489E-04
  -9.15000029E-03  -3.30005336E-04
  -9.10000037E-03  -3.36890662E-04
  -9.05000046E-03  -3.43902677E-04
  -8.99999961E-03  -3.51047318E-04
  -8.94999970E-03  -3.58334597E-04
  -8.89999978E-03  -3.65775311E-04
  -8.84999987E-03  -3.73375253E-04
  -8.79999995E-03  -3.81128077E-04
  -8.75000004E-03  -3.89018591E-04
  -8.70000012E-03  -3.97044176E-04
  -8.65000021E-03  -4.05214319E-04
  -8.60000029E-03  -4.13543457E-04
  -8.55000038E-03  -4.22044686E-04
  -8.50000046E-03  -4.30729066E-04
  -8.44999962E-03  -4.39608993E-04
  -8.39999970E-03  -4.48692997E-04
  -8.34999979E-03  -4.57982853E-04
  -8.29999987E-03  -4.67471080E-04
  -8.24999996E-03  -4.77145193E-04
  -8.20000004E-03  -4.86994890E-04
  -8.15000013E-03  -4.97028173E-04
  -8.10000021E-03  -5.07265679E-04
  -8.05000030E-03  -5.17727342E-04
  -8.00000038E-03  -5.28422650E-04
  -7.95000046E-03  -5.39342174E-04
  -7.89999962E-03  -5.50475204E-04
  -7.84999970E-03  -5.61821798E-04
  -7.79999979E-03  -5.73379628E-04
  -7.74999987E-03  -5.85141359E-04
  -7.69999996E-03  -5.97100996E-04
  -7.65000004E-03  -6.09264360E-04
  -7.60000013E-03  -6.21658110E-04
  -7.55000021E-03  -6.34312106E-04
  -7.49999983E-03  -6.47235196E-04
  -7.44999992E-03  -6.60410326E-04
  -7.40000000E-03  -6.73821778E-04
  -7.35000009E-03  -6.87468972E-04
  -7.30000017E-03  -7.01365469E-04
  -7.24999979E-03  -7.15523551E-04
  -7.19999988E-03  -7.29941763E-04
  -7.14999996E-03  -7.44619290E-04
  -7.10000005E-03  -7.59578485E-04
  -7.05000013E-03  -7.74848857E-04
  -7.00000022E-03  -7.90435588E-04
  -6.94999984E-03  -8.06317024E-04
  -6.89999992E-03  -8.22464004E-04
  -6.85000001E-03  -8.38869659E-04
  -6.80000009E-03  -8.55554186E-04
  -6.75000018E-03  -8.72540288E-04
  -6.69999979E-03  -8.89837684E-04
  -6.64999988E-03  -9.07438283E-04
  -6.59999996E-03  -9.25334869E-04
  -6.55000005E-03  -9.43540595E-04
  -6.50000013E-03  -9.62069433E-04
  -6.45000022E-03  -9.80918761E-04
  -6.39999984E-03  -1.00005919E-03
  -6.34999992E-03  -1.01945933E-03
  -6.30000001E-03  -1.03913702E-03
  -6.25000009E-03  -1.05914345E-03
  -6.20000018E-03  -1.07951881E-03
  -6.14999980E-03  -1.10026798E-03
  -6.09999988E-03  -1.12135673E-03
  -6.04999997E-03  -1.14277331E-03
  -6.00000005E-03  -1.16453297E-03
  -5.95000014E-03  -1.18663884E-03
  -5.90000022E-03  -1.20908080E-03
  -5.84999984E-03  -1.23184605E-03
  -5.79999993E-03  -1.25495309E-03
  -5.75000001E-03  -1.27842941E-03
  -5.70000010E-03  -1.30229536E-03
  -5.65000018E-03  -1.32656819E-03
  -5.59999980E-03  -1.35122915E-03
  -5.54999989E-03  -1.37622748E-03
  -5.49999997E-03  -1.40155118E-03
  -5.45000006E-03  -1.42722041E-03
  -5.40000014E-03  -1.45323819E-03
  -5.35000023E-03  -1.47961406E-03
  -5.29999984E-03  -1.50635082E-03
  -5.24999993E-03  -1.53344870E-03
  -5.20000001E-03  -1.56093796E-03
  -5.15000010E-03  -1.58883329E-03
  -5.10000018E-03  -1.61710707E-03
  -5.04999980E-03  -1.64571987E-03
  -4.99999989E-03  -1.67466246E-03
  -4.94999997E-03  -1.70396315E-03
  -4.90000006E-03  -1.73365814E-03
  -4.85000014E-03  -1.76378270E-03
  -4.80000023E-03  -1.79434707E-03
  -4.74999985E-03  -1.82533986E-03
  -4.69999993E-03  -1.85675023E-03
  -4.65000002E-03  -1.88856700E-03
  -4.60000010E-03  -1.92078704E-03
  -4.55000019E-03  -1.95339043E-03
  -4.49999981E-03  -1.98635622E-03
  -4.44999989E-03  -2.01969501E-03
  -4.39999998E-03  -2.05343170E-03
  -4.35000006E-03  -2.08759238E-03
  -4.30000015E-03  -2.12218077E-03
  -4.25000023E-03  -2.15718476E-03
  -4.19999985E-03  -2.19258480E-03
  -4.14999994E-03  -2.22834805E-03
  -4.10000002E-03  -2.26447009E-03
  -4.05000011E-03  -2.30096071E-03
  -4.00000019E-03  -2.33784108E-03
  -3.94999981E-03  -2.37514917E-03
  -3.89999989E-03  -2.41291011E-03
  -3.84999998E-03  -2.45113624E-03
  -3.80000006E-03  -2.48981034E-03
  -3.74999992E-03  -2.52891681E-03
  -3.70000000E-03  -2.56843865E-03
  -3.65000009E-03  -2.60835723E-03
  -3.59999994E-03  -2.64868303E-03
  -3.55000002E-03  -2.68943375E-03
  -3.50000011E-03  -2.73064827E-03
  -3.44999996E-03  -2.77233077E-03
  -3.40000005E-03  -2.81444541E-03
  -3.34999990E-03  -2.85701733E-03
  -3.29999998E-03  -2.90009077E-03
  -3.25000007E-03  -2.94362684E-03
  -3.19999992E-03  -2.98751844E-03
  -3.15000000E-03  -3.03173997E-03
  -3.10000009E-03  -3.07636266E-03
  -3.04999994E-03  -3.12146521E-03
  -3.00000003E-03  -3.16710956E-03
  -2.95000011E-03  -3.21325613E-03
  -2.89999996E-03  -3.25982948E-03
  -2.85000005E-03  -3.30682634E-03
  -2.79999990E-03  -3.35428049E-03
  -2.74999999E-03  -3.40221985E-03
  -2.70000007E-03  -3.45061091E-03
  -2.64999992E-03  -3.49939056E-03
  -2.60000001E-03  -3.54857533E-03
  -2.55000009E-03  -3.59826791E-03
  -2.49999994E-03  -3.64854606E-03
  -2.45000003E-03  -3.69941373E-03
  -2.40000011E-03  -3.75080062E-03
  -2.34999997E-03  -3.80264269E-03
  -2.30000005E-03  -3.85495648E-03
  -2.24999990E-03  -3.90775641E-03
  -2.19999999E-03  -3.96101968E-03
  -2.15000007E-03  -4.01476584E-03
  -2.09999993E-03  -4.06901725E-03
  -2.05000001E-03  -4.12376458E-03
  -2.00000009E-03  -4.17907629E-03
  -1.94999995E-03  -4.23498917E-03
  -1.90000003E-03  -4.29141521E-03
  -1.85000000E-03  -4.34827665E-03
  -1.79999997E-03  -4.40552132E-03
  -1.75000005E-03  -4.46321722E-03
  -1.70000002E-03  -4.52149985E-03
  -1.64999999E-03  -4.58036270E-03
  -1.59999996E-03  -4.63976664E-03
  -1.55000004E-03  -4.69972333E-03
  -1.50000001E-03  -4.76026861E-03
  -1.44999998E-03  -4.82140481E-03
  -1.39999995E-03  -4.88313800E-03
  -1.35000004E-03  -4.94539132E-03
  -1.30000000E-03  -5.00808284E-03
  -1.24999997E-03  -5.07128611E-03
  -1.20000006E-03  -5.13508171E-03
  -1.15000003E-03  -5.19954320E-03
  -1.09999999E-03  -5.26468409E-03
  -1.04999996E-03  -5.33043360E-03
  -1.00000005E-03  -5.39668044E-03
  -9.50000016E-04  -5.46343252E-03
  -8.99999985E-04  -5.53075410E-03
  -8.50000011E-04  -5.59863122E-03
  -7.99999980E-04  -5.66702569E-03
  -7.50000007E-04  -5.73591562E-03
  -6.99999975E-04  -5.80542115E-03
  -6.50000002E-04  -5.87563682E-03
  -6.00000028E-04  -5.94651280E-03
  -5.49999997E-04  -6.01797970E-03
  -5.00000024E-04  -6.08999189E-03
  -4.49999992E-04  -6.16256613E-03
  -3.99999990E-04  -6.23568986E-03
  -3.49999988E-04  -6.30933838E-03
  -3.00000014E-04  -6.38356525E-03
  -2.50000012E-04  -6.45844545E-03
  -1.99999995E-04  -6.53402228E-03
  -1.50000007E-04  -6.61028270E-03
  -9.99999975E-05  -6.68717455E-03
  -4.99999987E-05  -6.76462380E-03
   0.00000000      -6.84260530E-03
   4.99999987E-05  -6.92121033E-03
   9.99999975E-05  -7.00047426E-03
   1.50000007E-04  -7.08028767E-03
   1.99999995E-04  -7.16062170E-03
   2.50000012E-04  -7.24156946E-03
   3.00000014E-04  -7.32329907E-03
   3.49999988E-04  -7.40581052E-03
   3.99999990E-04  -7.48887425E-03
   4.49999992E-04  -7.57232821E-03
   5.00000024E-04  -7.65622128E-03
   5.49999997E-04  -7.74074905E-03
   6.00000028E-04  -7.82609638E-03
   6.50000002E-04  -7.91218318E-03
   6.99999975E-04  -7.99870677E-03
   7.50000007E-04  -8.08562711E-03
   7.99999980E-04  -8.17328412E-03
   8.50000011E-04  -8.26182496E-03
   8.99999985E-04  -8.35106149E-03
   9.50000016E-04  -8.44075065E-03
   1.00000005E-03  -8.53079930E-03
   1.04999996E-03  -8.62142723E-03
   1.09999999E-03  -8.71284772E-03
   1.15000003E-03  -8.80513154E-03
   1.20000006E-03  -8.89813248E-03
   1.24999997E-03  -8.99164565E-03
   1.30000000E-03  -9.08561051E-03
   1.35000004E-03  -9.18006245E-03
   1.39999995E-03  -9.27522033E-03
   1.44999998E-03  -9.37119219E-03
   1.50000001E-03  -9.46778618E-03
   1.55000004E-03  -9.56473220E-03
   1.59999996E-03  -9.66208708E-03
   1.64999999E-03  -9.76020377E-03
   1.70000002E-03  -9.85923596E-03
   1.75000005E-03  -9.95902717E-03
   1.79999997E-03  -1.00592021E-02
   1.85000000E-03  -1.01595744E-02
   1.90000003E-03  -1.02605196E-02
   1.94999995E-03  -1.03624361E-02
   2.00000009E-03  -1.04651246E-02
   2.05000001E-03  -1.05682323E-02
   2.09999993E-03  -1.06717926E-02
   2.15000007E-03  -1.07759908E-02
   2.19999999E-03  -1.08810812E-02
   2.24999990E-03  -1.09869391E-02
   2.30000005E-03  -1.10931732E-02
   2.34999997E-03  -1.11998264E-02
   2.40000011E-03  -1.13071306E-02
   2.45000003E-03  -1.14151370E-02
   2.49999994E-03  -1.15238456E-02
   2.55000009E-03  -1.16332965E-02
   2.60000001E-03  -1.17433462E-02
   2.64999992E-03  -1.18538300E-02
   2.70000007E-03  -1.19648157E-02
   2.74999999E-03  -1.20765008E-02
   2.79999990E-03  -1.21889105E-02