  -3.99999991E-02   0.00000000    
  -3.99499983E-02   0.00000000    
  -3.99000011E-02   0.00000000    
  -3.98500003E-02   0.00000000    
  -3.97999994E-02   2.95053515E-19
  -3.97499986E-02   2.47441071E-18
  -3.97000015E-02   1.09428782E-17
  -3.96500006E-02   3.39018419E-17
  -3.95999998E-02   8.32379145E-17
  -3.95499989E-02   1.74819911E-16
  -3.95000018E-02   3.30996627E-16
  -3.94500010E-02   5.82963332E-16
  -3.94000001E-02   9.66244576E-16
  -3.93499993E-02   1.50624470E-15
  -3.92999984E-02   2.20329173E-15
  -3.92500013E-02   3.03466049E-15
  -3.92000005E-02   3.98064828E-15
  -3.91499996E-02   5.05834142E-15
  -3.90999988E-02   6.33494586E-15
  -3.90500017E-02   7.90905580E-15
  -3.90000008E-02   9.87757053E-15
  -3.89500000E-02   1.23148180E-14
  -3.88999991E-02   1.52685956E-14
  -3.88499983E-02   1.87547951E-14
  -3.88000011E-02   2.27418504E-14
  -3.87500003E-02   2.71489188E-14
  -3.86999995E-02   3.18888186E-14
  -3.86499986E-02   3.69432099E-14
  -3.86000015E-02   4.24050104E-14
  -3.85500006E-02   4.84307520E-14
  -3.84999998E-02   5.51232372E-14
  -3.84499989E-02   6.24359776E-14
  -3.84000018E-02   7.01733390E-14
  -3.83500010E-02   7.80671304E-14
  -3.83000001E-02   8.58451493E-14
  -3.82499993E-02   9.32422881E-14
  -3.81999984E-02   9.99926053E-14
  -3.81500013E-02   1.05865600E-13
  -3.81000005E-02   1.10734975E-13
  -3.80499996E-02   1.14590398E-13
  -3.79999988E-02   1.17436727E-13
  -3.79500017E-02   1.19150675E-13
  -3.79000008E-02   1.19431903E-13
  -3.78500000E-02   1.17895060E-13
  -3.77999991E-02   1.14191927E-13
  -3.77499983E-02   1.08014116E-13
  -3.77000012E-02   9.89703450E-14
  -3.76500003E-02   8.64962602E-14
  -3.75999995E-02   6.99380468E-14
  -3.75499986E-02   4.87556705E-14
  -3.75000015E-02   2.26408366E-14
  -3.74500006E-02  -8.58047425E-15
  -3.73999998E-02  -4.51645150E-14
  -3.73499990E-02  -8.75734557E-14
  -3.73000018E-02  -1.36410983E-13
  -3.72500010E-02  -1.92272589E-13
  -3.72000001E-02  -2.55638826E-13
  -3.71499993E-02  -3.26783468E-13
  -3.70999984E-02  -4.05566477E-13
  -3.70500013E-02  -4.91135724E-13
  -3.70000005E-02  -5.81825441E-13
  -3.69499996E-02  -6.75560573E-13
  -3.68999988E-02  -7.70721919E-13
  -3.68500017E-02  -8.66981346E-13
  -3.68000008E-02  -9.65532558E-13
  -3.67500000E-02  -1.06852526E-12
  -3.66999991E-02  -1.17801895E-12
  -3.66499983E-02  -1.29496522E-12
  -3.66000012E-02  -1.41856969E-12
  -3.65500003E-02  -1.54615307E-12
  -3.64999995E-02  -1.67358445E-12
  -3.64499986E-02  -1.79633326E-12
  -3.64000015E-02  -1.91091348E-12
  -3.63500006E-02  -2.01604185E-12
  -3.62999998E-02  -2.11267093E-12
  -3.62499990E-02  -2.20259553E-12
  -3.62000018E-02  -2.28627729E-12
  -3.61500010E-02  -2.36119045E-12
  -3.61000001E-02  -2.42173881E-12
  -3.60499993E-02  -2.46084099E-12
  -3.59999985E-02  -2.47238298E-12
  -3.59500013E-02  -2.45341594E-12
  -3.59000005E-02  -2.40520581E-12
  -3.58499996E-02  -2.33263430E-12
  -3.57999988E-02  -2.24187791E-12
  -3.57500017E-02  -2.13693429E-12
  -3.57000008E-02  -2.01639595E-12
  -3.56500000E-02  -1.87230331E-12
  -3.55999991E-02  -1.69227046E-12
  -3.55499983E-02  -1.46434937E-12
  -3.55000012E-02  -1.18235369E-12
  -3.54500003E-02  -8.48843619E-13
  -3.53999995E-02  -4.74118466E-13
  -3.53499986E-02  -7.16030561E-14
  -3.53000015E-02   3.48336214E-13
  -3.52500007E-02   7.83499838E-13
  -3.51999998E-02   1.24168362E-12
  -3.51499990E-02   1.73807008E-12
  -3.51000018E-02   2.28865408E-12
  -3.50500010E-02   2.90203148E-12
  -3.50000001E-02   3.57330420E-12
  -3.49499993E-02   4.28357393E-12
  -3.48999985E-02   5.00611358E-12
  -3.48500013E-02   5.71676734E-12
  -3.48000005E-02   6.40362156E-12
  -3.47499996E-02   7.07108851E-12
  -3.46999988E-02   7.73629598E-12
  -3.46500017E-02   8.41928870E-12
  -3.46000008E-02   9.13132330E-12
  -3.45500000E-02   9.86631176E-12
  -3.44999991E-02   1.05994016E-11
  -3.44499983E-02   1.12940386E-11
  -3.44000012E-02   1.19152639E-11
  -3.43500003E-02   1.24436633E-11
  -3.42999995E-02   1.28830705E-11
  -3.42499986E-02   1.32572920E-11
  -3.42000015E-02   1.35963758E-11
  -3.41500007E-02   1.39185174E-11
  -3.40999998E-02   1.42164076E-11
  -3.40499990E-02   1.44549563E-11
  -3.40000018E-02   1.45819728E-11
  -3.39500010E-02   1.45473989E-11
  -3.39000002E-02   1.43229005E-11
  -3.38499993E-02   1.39130955E-11
  -3.37999985E-02   1.33527677E-11
  -3.37500013E-02   1.26900539E-11
  -3.37000005E-02   1.19619861E-11
  -3.36499996E-02   1.11733582E-11
  -3.35999988E-02   1.02896589E-11
  -3.35500017E-02   9.24901648E-12
  -3.35000008E-02   7.98881274E-12
  -3.34500000E-02   6.47493647E-12
  -3.33999991E-02   4.71967864E-12
  -3.33499983E-02   2.77937222E-12
  -3.33000012E-02   7.32124214E-13
  -3.32500003E-02  -1.35505680E-12
  -3.31999995E-02  -3.45555355E-12
  -3.31499986E-02  -5.59558216E-12
  -3.31000015E-02  -7.84299709E-12
  -3.30500007E-02  -1.02756510E-11
  -3.29999998E-02  -1.29422011E-11
  -3.29499990E-02  -1.58332843E-11
  -3.29000019E-02  -1.88775766E-11
  -3.28500010E-02  -2.19662014E-11
  -3.28000002E-02  -2.49950286E-11
  -3.27499993E-02  -2.79053291E-11
  -3.26999985E-02  -3.07035300E-11
  -3.26500013E-02  -3.34504369E-11
  -3.26000005E-02  -3.62243395E-11
  -3.25499997E-02  -3.90740461E-11
  -3.24999988E-02  -4.19828859E-11
  -3.24500017E-02  -4.48607124E-11
  -3.24000008E-02  -4.75697225E-11
  -3.23500000E-02  -4.99745766E-11
  -3.22999991E-02  -5.19951721E-11
  -3.22499983E-02  -5.36368693E-11
  -3.22000012E-02  -5.49822132E-11
  -3.21500003E-02  -5.61457755E-11
  -3.20999995E-02  -5.72121170E-11
  -3.20499986E-02  -5.81855675E-11
  -3.20000015E-02  -5.89755120E-11
  -3.19500007E-02  -5.94249303E-11
  -3.18999998E-02  -5.93704322E-11
  -3.18499990E-02  -5.87081703E-11
  -3.18000019E-02  -5.74362120E-11
  -3.17500010E-02  -5.56533188E-11
  -3.17000002E-02  -5.35118998E-11
  -3.16499993E-02  -5.11443006E-11
  -3.15999985E-02  -4.85953049E-11
  -3.15500014E-02  -4.57932650E-11
  -3.15000005E-02  -4.25756687E-11
  -3.14499997E-02  -3.87593291E-11
  -3.13999988E-02  -3.42237558E-11
  -3.13500017E-02  -2.89695420E-11
  -3.13000008E-02  -2.31248441E-11
  -3.12500000E-02  -1.68961824E-11
  -3.11999992E-02  -1.04843504E-11
  -3.11500002E-02  -4.00179716E-12
  -3.10999993E-02   2.57175292E-12
  -3.10500003E-02   9.37367631E-12
  -3.09999995E-02   1.65871344E-11
  -3.09500005E-02   2.43443252E-11
  -3.08999997E-02   3.26486060E-11
  -3.08500007E-02   4.13529731E-11
  -3.07999998E-02   5.02068630E-11
  -3.07500008E-02   5.89509344E-11
  -3.07000000E-02   6.74166556E-11
  -3.06499992E-02   7.55850590E-11
  -3.06000002E-02   8.35777003E-11
  -3.05499993E-02   9.15828663E-11
  -3.05000003E-02   9.97487370E-11
  -3.04499995E-02   1.08090266E-10
  -3.04000005E-02   1.16452195E-10
  -3.03499997E-02   1.24547997E-10
  -3.03000007E-02   1.32060640E-10
  -3.02499998E-02   1.38761502E-10
  -3.02000009E-02   1.44592407E-10
  -3.01500000E-02   1.49671331E-10
  -3.00999992E-02   1.54217417E-10
  -3.00500002E-02   1.58428826E-10
  -2.99999993E-02   1.62368535E-10
  -2.99500003E-02   1.65910022E-10
  -2.98999995E-02   1.68767542E-10
  -2.98500005E-02   1.70599451E-10
  -2.97999997E-02   1.71140990E-10
  -2.97500007E-02   1.70308628E-10
  -2.96999998E-02   1.68228570E-10
  -2.96500009E-02   1.65172931E-10
  -2.96000000E-02   1.61428815E-10
  -2.95499992E-02   1.57158356E-10
  -2.95000002E-02   1.52313953E-10
  -2.94499993E-02   1.46648402E-10
  -2.94000003E-02   1.39816714E-10
  -2.93499995E-02   1.31523681E-10
  -2.93000005E-02   1.21652133E-10
  -2.92499997E-02   1.10315639E-10
  -2.92000007E-02   9.78127163E-11
  -2.91499998E-02   8.45015932E-11
  -2.91000009E-02   7.06489658E-11
  -2.90500000E-02   5.63195914E-11
  -2.89999992E-02   4.13576187E-11
  -2.89500002E-02   2.54716578E-11
  -2.88999993E-02   8.38725270E-12
  -2.88500004E-02  -1.00021363E-11
  -2.87999995E-02  -2.95557606E-11
  -2.87500005E-02  -4.99149749E-11
  -2.86999997E-02  -7.06286904E-11
  -2.86500007E-02  -9.13192577E-11
  -2.85999998E-02  -1.11815689E-10
  -2.85500009E-02  -1.32196101E-10
  -2.85000000E-02  -1.52719531E-10
  -2.84499992E-02  -1.73673950E-10
  -2.84000002E-02  -1.95205352E-10
  -2.83499993E-02  -2.17203533E-10
  -2.83000004E-02  -2.39297776E-10
  -2.82499995E-02  -2.60969191E-10
  -2.82000005E-02  -2.81730667E-10
  -2.81499997E-02  -3.01294739E-10
  -2.81000007E-02  -3.19652194E-10
  -2.80499998E-02  -3.37026601E-10
  -2.80000009E-02  -3.53724883E-10
  -2.79500000E-02  -3.69948988E-10
  -2.78999992E-02  -3.85650900E-10
  -2.78500002E-02  -4.00493888E-10
  -2.77999993E-02  -4.13940243E-10
  -2.77500004E-02  -4.25431912E-10
  -2.76999995E-02  -4.34587671E-10
  -2.76500005E-02  -4.41329945E-10
  -2.75999997E-02  -4.45882331E-10
  -2.75500007E-02  -4.48635712E-10
  -2.74999999E-02  -4.49940779E-10
  -2.74500009E-02  -4.49919768E-10
  -2.74000000E-02  -4.48380555E-10
  -2.73499992E-02  -4.44871917E-10
  -2.73000002E-02  -4.38855285E-10
  -2.72499993E-02  -4.29918462E-10
  -2.72000004E-02  -4.17941654E-10
  -2.71499995E-02  -4.03142464E-10
  -2.71000005E-02  -3.85977889E-10
  -2.70499997E-02  -3.66940783E-10
  -2.70000007E-02  -3.46339735E-10
  -2.69499999E-02  -3.24160587E-10
  -2.69000009E-02  -3.00076103E-10
  -2.68500000E-02  -2.73602169E-10
  -2.67999992E-02  -2.44332138E-10
  -2.67500002E-02  -2.12144663E-10
  -2.66999993E-02  -1.77291959E-10
  -2.66500004E-02  -1.40329887E-10
  -2.65999995E-02  -1.01918099E-10
  -2.65500005E-02  -6.25751048E-11
  -2.64999997E-02  -2.24935955E-11
  -2.64500007E-02   1.85009699E-11
  -2.63999999E-02   6.08236725E-11
  -2.63500009E-02   1.04885448E-10
  -2.63000000E-02   1.50836330E-10
  -2.62499992E-02   1.98414424E-10
  -2.62000002E-02   2.46973691E-10
  -2.61499994E-02   2.95682423E-10
  -2.61000004E-02   3.43806900E-10
  -2.60499995E-02   3.90955462E-10
  -2.60000005E-02   4.37175462E-10
  -2.59499997E-02   4.82859364E-10
  -2.59000007E-02   5.28496025E-10
  -2.58499999E-02   5.74371883E-10
  -2.58000009E-02   6.20349661E-10
  -2.57500000E-02   6.65827948E-10
  -2.56999992E-02   7.09905301E-10
  -2.56500002E-02   7.51684659E-10
  -2.55999994E-02   7.90584209E-10
  -2.55500004E-02   8.26513247E-10
  -2.54999995E-02   8.59831928E-10
  -2.54500005E-02   8.91109408E-10
  -2.53999997E-02   9.20788501E-10
  -2.53500007E-02   9.48903067E-10
  -2.52999999E-02   9.74976655E-10
  -2.52500009E-02   9.98149230E-10
  -2.52000000E-02   1.01748099E-09
  -2.51499992E-02   1.03230535E-09
  -2.51000002E-02   1.04247522E-09
  -2.50499994E-02   1.04838715E-09
  -2.50000004E-02   1.05076325E-09
  -2.49499995E-02   1.05028175E-09
  -2.49000005E-02   1.04722286E-09
  -2.48499997E-02   1.04129172E-09
  -2.48000007E-02   1.03170539E-09
  -2.47499999E-02   1.01750475E-09
  -2.47000009E-02   9.97955829E-10
  -2.46500000E-02   9.72860348E-10
  -2.45999992E-02   9.42638634E-10
  -2.45500002E-02   9.08138786E-10
  -2.44999994E-02   8.70254369E-10
  -2.44500004E-02   8.29514069E-10
  -2.43999995E-02   7.85827070E-10
  -2.43500005E-02   7.38510419E-10
  -2.42999997E-02   6.86596002E-10
  -2.42500007E-02   6.29285013E-10
  -2.41999999E-02   5.66342306E-10
  -2.41500009E-02   4.98248276E-10
  -2.41000000E-02   4.26032071E-10
  -2.40499992E-02   3.50857815E-10
  -2.40000002E-02   2.73545631E-10
  -2.39499994E-02   1.94238459E-10
  -2.39000004E-02   1.12365547E-10
  -2.38499995E-02   2.69253092E-11
  -2.38000005E-02  -6.30287697E-11
  -2.37499997E-02  -1.57911309E-10
  -2.37000007E-02  -2.57354610E-10
  -2.36499999E-02  -3.60307284E-10
  -2.36000009E-02  -4.65446459E-10
  -2.35500000E-02  -5.71720671E-10
  -2.34999992E-02  -6.78774092E-10
  -2.34500002E-02  -7.87058141E-10
  -2.33999994E-02  -8.97578456E-10
  -2.33500004E-02  -1.01139042E-09
  -2.32999995E-02  -1.12906751E-09
  -2.32500006E-02  -1.25038235E-09
  -2.31999997E-02  -1.37434519E-09
  -2.31500007E-02  -1.49959278E-09
  -2.30999999E-02  -1.62496039E-09
  -2.30500009E-02  -1.74997983E-09
  -2.30000000E-02  -1.87507343E-09
  -2.29499992E-02  -2.00134220E-09
  -2.29000002E-02  -2.13004059E-09
  -2.28499994E-02  -2.26197727E-09
  -2.28000004E-02  -2.39712072E-09
  -2.27499995E-02  -2.53458876E-09
  -2.27000006E-02  -2.67303291E-09
  -2.26499997E-02  -2.81124879E-09
  -2.26000007E-02  -2.94873392E-09
  -2.25499999E-02  -3.08594439E-09
  -2.25000009E-02  -3.22413030E-09
  -2.24500000E-02  -3.36480821E-09
  -2.23999992E-02  -3.50910212E-09
  -2.23500002E-02  -3.65725272E-09
  -2.22999994E-02  -3.80852860E-09
  -2.22500004E-02  -3.96158661E-09
  -2.21999995E-02  -4.11512691E-09
  -2.21500006E-02  -4.26853619E-09
  -2.20999997E-02  -4.42222570E-09
  -2.20500007E-02  -4.57751748E-09
  -2.19999999E-02  -4.73612083E-09
  -2.19500009E-02  -4.89943242E-09
  -2.19000001E-02  -5.06798115E-09
  -2.18499992E-02  -5.24125321E-09
  -2.18000002E-02  -5.41800205E-09
  -2.17499994E-02  -5.59690116E-09
  -2.17000004E-02  -5.77725201E-09
  -2.16499995E-02  -5.95941563E-09
  -2.16000006E-02  -6.14477091E-09
  -2.15499997E-02  -6.33520658E-09
  -2.15000007E-02  -6.53237286E-09
  -2.14499999E-02  -6.73704692E-09
  -2.14000009E-02  -6.94889657E-09
  -2.13500001E-02  -7.16674808E-09
  -2.12999992E-02  -7.38922745E-09
  -2.12500002E-02  -7.61550112E-09
  -2.11999994E-02  -7.84577026E-09
  -2.11500004E-02  -8.08131073E-09
  -2.10999995E-02  -8.32400815E-09
  -2.10500006E-02  -8.57561666E-09
  -2.09999997E-02  -8.83706086E-09
  -2.09500007E-02  -9.10812847E-09
  -2.08999999E-02  -9.38768707E-09
  -2.08500009E-02  -9.67433333E-09
  -2.08000001E-02  -9.96718530E-09
  -2.07499992E-02  -1.02664277E-08
  -2.07000002E-02  -1.05733831E-08
  -2.06499994E-02  -1.08900666E-08
  -2.06000004E-02  -1.12184217E-08
  -2.05499995E-02  -1.15595764E-08
  -2.05000006E-02  -1.19134622E-08
  -2.04499997E-02  -1.22789725E-08
  -2.04000007E-02  -1.26545991E-08
  -2.03499999E-02  -1.30392745E-08
  -2.03000009E-02  -1.34330138E-08
  -2.02500001E-02  -1.38370790E-08
  -2.01999992E-02  -1.42535859E-08
  -2.01500002E-02  -1.46847157E-08
  -2.00999994E-02  -1.51319171E-08
  -2.00500004E-02  -1.55954361E-08
  -1.99999996E-02  -1.60744271E-08
  -1.99500006E-02  -1.65675349E-08
  -1.98999997E-02  -1.70737451E-08
  -1.98500007E-02  -1.75930595E-08
  -1.97999999E-02  -1.81267588E-08
  -1.97500009E-02  -1.86770706E-08
  -1.97000001E-02  -1.92464142E-08
  -1.96499992E-02  -1.98365608E-08
  -1.96000002E-02  -2.04481072E-08
  -1.95499994E-02  -2.10804778E-08
  -1.95000004E-02  -2.17325056E-08
  -1.94499996E-02  -2.24032810E-08
  -1.94000006E-02  -2.30928876E-08
  -1.93499997E-02  -2.38027091E-08
  -1.93000007E-02  -2.45351277E-08
  -1.92499999E-02  -2.52928256E-08
  -1.92000009E-02  -2.60779167E-08
  -1.91500001E-02  -2.68913602E-08
  -1.90999992E-02  -2.77329182E-08
  -1.90500002E-02  -2.86016881E-08
  -1.89999994E-02  -2.94969205E-08
  -1.89500004E-02  -3.04188106E-08
  -1.88999996E-02  -3.13688950E-08
  -1.88500006E-02  -3.23498028E-08
  -1.87999997E-02  -3.33645502E-08
  -1.87500007E-02  -3.44156312E-08
  -1.86999999E-02  -3.55043817E-08
  -1.86500009E-02  -3.66308655E-08
  -1.86000001E-02  -3.77943898E-08
  -1.85499992E-02  -3.89943011E-08
  -1.85000002E-02  -4.02308586E-08
  -1.84499994E-02  -4.15056292E-08
  -1.84000004E-02  -4.28213767E-08
  -1.83499996E-02  -4.41813448E-08
  -1.83000006E-02  -4.55883900E-08
  -1.82499997E-02  -4.70442174E-08
  -1.82000007E-02  -4.85491789E-08
  -1.81499999E-02  -5.01027166E-08
  -1.81000009E-02  -5.17041769E-08
  -1.80500001E-02  -5.33537339E-08
  -1.79999992E-02  -5.50528405E-08
  -1.79500002E-02  -5.68042253E-08
  -1.78999994E-02  -5.86112066E-08
  -1.78500004E-02  -6.04768360E-08
  -1.77999996E-02  -6.24031102E-08
  -1.77500006E-02  -6.43906759E-08
  -1.76999997E-02  -6.64391280E-08
  -1.76500008E-02  -6.85478341E-08
  -1.75999999E-02  -7.07168013E-08
  -1.75500009E-02  -7.29472873E-08
  -1.75000001E-02  -7.52418288E-08
  -1.74499992E-02  -7.76035733E-08
  -1.74000002E-02  -8.00354698E-08
  -1.73499994E-02  -8.25393940E-08
  -1.73000004E-02  -8.51158646E-08
  -1.72499996E-02  -8.77644197E-08
  -1.72000006E-02  -9.04842565E-08
  -1.71499997E-02  -9.32751760E-08
  -1.71000008E-02  -9.61382014E-08
  -1.70499999E-02  -9.90757272E-08
  -1.70000009E-02  -1.02090972E-07
  -1.69500001E-02  -1.05186999E-07
  -1.68999992E-02  -1.08365896E-07
  -1.68500002E-02  -1.11628324E-07
  -1.67999994E-02  -1.14973702E-07
  -1.67500004E-02  -1.18401033E-07
  -1.66999996E-02  -1.21909821E-07
  -1.66500006E-02  -1.25500833E-07
  -1.65999997E-02  -1.29176129E-07
  -1.65500008E-02  -1.32938681E-07
  -1.64999999E-02  -1.36791613E-07
  -1.64500009E-02  -1.40737214E-07
  -1.64000001E-02  -1.44776308E-07
  -1.63499992E-02  -1.48908498E-07
  -1.63000003E-02  -1.53132802E-07
  -1.62499994E-02  -1.57448738E-07
  -1.62000004E-02  -1.61857031E-07
  -1.61499996E-02  -1.66359953E-07
  -1.61000006E-02  -1.70960746E-07
  -1.60499997E-02  -1.75662919E-07
  -1.60000008E-02  -1.80469243E-07
  -1.59499999E-02  -1.85381282E-07
  -1.59000009E-02  -1.90399348E-07
  -1.58500001E-02  -1.95523043E-07
  -1.57999992E-02  -2.00752055E-07
  -1.57500003E-02  -2.06087464E-07
  -1.56999994E-02  -2.11531898E-07
  -1.56500004E-02  -2.17089266E-07
  -1.55999996E-02  -2.22763731E-07
  -1.55499997E-02  -2.28558889E-07
  -1.54999997E-02  -2.34477298E-07
  -1.54499998E-02  -2.40520222E-07
  -1.53999999E-02  -2.46688273E-07
  -1.53500000E-02  -2.52982346E-07
  -1.53000001E-02  -2.59404317E-07
  -1.52500002E-02  -2.65957794E-07
  -1.52000003E-02  -2.72647952E-07
  -1.51500003E-02  -2.79480446E-07
  -1.51000004E-02  -2.86460306E-07
  -1.50499996E-02  -2.93591512E-07
  -1.49999997E-02  -3.00876707E-07
  -1.49499997E-02  -3.08317851E-07
  -1.48999998E-02  -3.15917077E-07
  -1.48499999E-02  -3.23677625E-07
  -1.48000000E-02  -3.31604383E-07
  -1.47500001E-02  -3.39703746E-07
  -1.47000002E-02  -3.47983189E-07
  -1.46500003E-02  -3.56449704E-07
  -1.46000003E-02  -3.65109230E-07
  -1.45500004E-02  -3.73966344E-07
  -1.44999996E-02  -3.83024627E-07
  -1.44499997E-02  -3.92287774E-07
  -1.43999998E-02  -4.01760531E-07
  -1.43499998E-02  -4.11449207E-07
  -1.42999999E-02  -4.21361705E-07
  -1.42500000E-02  -4.31507004E-07
  -1.42000001E-02  -4.41893917E-07
  -1.41500002E-02  -4.52530657E-07
  -1.41000003E-02  -4.63423675E-07
  -1.40500003E-02  -4.74578542E-07
  -1.40000004E-02  -4.86000658E-07
  -1.39499996E-02  -4.97696419E-07
  -1.38999997E-02  -5.09673839E-07
  -1.38499998E-02  -5.21942809E-07
  -1.37999998E-02  -5.34513731E-07
  -1.37499999E-02  -5.47397292E-07
  -1.37000000E-02  -5.60602928E-07
  -1.36500001E-02  -5.74139165E-07
  -1.36000002E-02  -5.88013734E-07
  -1.35500003E-02  -6.02233456E-07
  -1.35000004E-02  -6.16805835E-07
  -1.34500004E-02  -6.31739852E-07
  -1.33999996E-02  -6.47046932E-07
  -1.33499997E-02  -6.62739467E-07
  -1.32999998E-02  -6.78829906E-07
  -1.32499998E-02  -6.95329447E-07
  -1.31999999E-02  -7.12247925E-07
  -1.31500000E-02  -7.29593978E-07
  -1.31000001E-02  -7.47376191E-07
  -1.30500002E-02  -7.65603829E-07
  -1.30000003E-02  -7.84287408E-07
  -1.29500004E-02  -8.03438809E-07
  -1.29000004E-02  -8.23071503E-07
  -1.28499996E-02  -8.43199473E-07
  -1.27999997E-02  -8.63835965E-07
  -1.27499998E-02  -8.84992119E-07
  -1.26999998E-02  -9.06677144E-07
  -1.26499999E-02  -9.28900363E-07
  -1.26000000E-02  -9.51671609E-07
  -1.25500001E-02  -9.75001853E-07
  -1.25000002E-02  -9.98903829E-07
  -1.24500003E-02  -1.02339106E-06
  -1.24000004E-02  -1.04847845E-06
  -1.23500004E-02  -1.07418043E-06
  -1.22999996E-02  -1.10050985E-06
  -1.22499997E-02  -1.12747841E-06
  -1.21999998E-02  -1.15509670E-06
  -1.21499998E-02  -1.18337550E-06
  -1.20999999E-02  -1.21232767E-06
  -1.20500000E-02  -1.24196765E-06
  -1.20000001E-02  -1.27230999E-06
  -1.19500002E-02  -1.30336923E-06
  -1.19000003E-02  -1.33515971E-06
  -1.18500004E-02  -1.36769393E-06
  -1.18000004E-02  -1.40098450E-06
  -1.17499996E-02  -1.43504190E-06
  -1.16999997E-02  -1.46987657E-06
  -1.16499998E-02  -1.50550034E-06
  -1.15999999E-02  -1.54192855E-06
  -1.15499999E-02  -1.57917850E-06
  -1.15000000E-02  -1.61726825E-06
  -1.14500001E-02  -1.65621486E-06
  -1.14000002E-02  -1.69603345E-06
  -1.13500003E-02  -1.73673823E-06
  -1.13000004E-02  -1.77834340E-06
  -1.12500004E-02  -1.82086205E-06
  -1.11999996E-02  -1.86430725E-06
  -1.11499997E-02  -1.90869332E-06
  -1.10999998E-02  -1.95403504E-06
  -1.10499999E-02  -2.00035015E-06
  -1.09999999E-02  -2.04765456E-06
  -1.09500000E-02  -2.09596396E-06
  -1.09000001E-02  -2.14529200E-06
  -1.08500002E-02  -2.19565186E-06
  -1.08000003E-02  -2.24705786E-06
  -1.07500004E-02  -2.29952775E-06
  -1.07000005E-02  -2.35307925E-06
  -1.06499996E-02  -2.40773261E-06
  -1.05999997E-02  -2.46350828E-06
  -1.05499998E-02  -2.52042514E-06
  -1.04999999E-02  -2.57850297E-06
  -1.04499999E-02  -2.63775905E-06
  -1.04000000E-02  -2.69820862E-06
  -1.03500001E-02  -2.75986667E-06
  -1.03000002E-02  -2.82274868E-06
  -1.02500003E-02  -2.88687215E-06
  -1.02000004E-02  -2.95225777E-06
  -1.01500005E-02  -3.01892669E-06
  -1.00999996E-02  -3.08689914E-06
  -1.00499997E-02  -3.15619468E-06
  -9.99999978E-03  -3.22683354E-06
  -9.94999986E-03  -3.29883460E-06
  -9.89999995E-03  -3.37221627E-06
  -9.85000003E-03  -3.44699674E-06
  -9.80000012E-03  -3.52319535E-06
  -9.75000020E-03  -3.60083391E-06
  -9.70000029E-03  -3.67993653E-06
  -9.65000037E-03  -3.76052526E-06
  -9.60000046E-03  -3.84262012E-06
  -9.54999961E-03  -3.92624042E-06
  -9.49999969E-03  -4.01140642E-06
  -9.44999978E-03  -4.09813902E-06
  -9.39999986E-03  -4.18646141E-06
  -9.34999995E-03  -4.27639452E-06
  -9.30000003E-03  -4.36796472E-06
  -9.25000012E-03  -4.46119884E-06
  -9.20000020E-03  -4.55612326E-06
  -9.15000029E-03  -4.65276435E-06
  -9.10000037E-03  -4.75114575E-06
  -9.05000046E-03  -4.85128794E-06
  -8.99999961E-03  -4.95321365E-06
  -8.94999970E-03  -5.05694561E-06
  -8.89999978E-03  -5.16250884E-06
  -8.84999987E-03  -5.26992881E-06
  -8.79999995E-03  -5.37923279E-06
  -8.75000004E-03  -5.49044717E-06
  -8.70000012E-03  -5.60359786E-06
  -8.65000021E-03  -5.71871260E-06
  -8.60000029E-03  -5.83581777E-06
  -8.55000038E-03  -5.95493657E-06
  -8.50000046E-03  -6.07609354E-06
  -8.44999962E-03  -6.19931552E-06
  -8.39999970E-03  -6.32463298E-06
  -8.34999979E-03  -6.45208002E-06
  -8.29999987E-03  -6.58168756E-06
  -8.24999996E-03  -6.71348744E-06
  -8.20000004E-03  -6.84750421E-06
  -8.15000013E-03  -6.98376653E-06
  -8.10000021E-03  -7.12230803E-06
  -8.05000030E-03  -7.26316148E-06
  -8.00000038E-03  -7.40635460E-06
  -7.95000046E-03  -7.55191968E-06
  -7.89999962E-03  -7.69988765E-06
  -7.84999970E-03  -7.85029988E-06
  -7.79999979E-03  -8.00319322E-06
  -7.74999987E-03  -8.15859494E-06
  -7.69999996E-03  -8.31653415E-06
  -7.65000004E-03  -8.47704541E-06
  -7.60000013E-03  -8.64016056E-06
  -7.55000021E-03  -8.80592052E-06
  -7.49999983E-03  -8.97436530E-06
  -7.44999992E-03  -9.14552857E-06
  -7.40000000E-03  -9.31944760E-06
  -7.35000009E-03  -9.49616151E-06
  -7.30000017E-03  -9.67571395E-06
  -7.24999979E-03  -9.85814313E-06
  -7.19999988E-03  -1.00434781E-05
  -7.14999996E-03  -1.02317526E-05
  -7.10000005E-03  -1.04230048E-05
  -7.05000013E-03  -1.06172856E-05
  -7.00000022E-03  -1.08146414E-05
  -6.94999984E-03  -1.10151141E-05
  -6.89999992E-03  -1.12187417E-05
  -6.85000001E-03  -1.14255654E-05
  -6.80000009E-03  -1.16356350E-05
  -6.75000018E-03  -1.18490007E-05
  -6.69999979E-03  -1.20657023E-05
  -6.64999988E-03  -1.22857809E-05
  -6.59999996E-03  -1.25092774E-05
  -6.55000005E-03  -1.27362500E-05
  -6.50000013E-03  -1.29667551E-05
  -6.45000022E-03  -1.32008436E-05
  -6.39999984E-03  -1.34385573E-05
  -6.34999992E-03  -1.36799326E-05
  -6.30000001E-03  -1.39250133E-05
  -6.25000009E-03  -1.41738592E-05
  -6.20000018E-03  -1.44265296E-05
  -6.14999980E-03  -1.46830725E-05
  -6.09999988E-03  -1.49435291E-05
  -6.04999997E-03  -1.52079547E-05
  -6.00000005E-03  -1.54764111E-05
  -5.95000014E-03  -1.57489576E-05
  -5.90000022E-03  -1.60256423E-05
  -5.84999984E-03  -1.63065070E-05
  -5.79999993E-03  -1.65916008E-05
  -5.75000001E-03  -1.68809856E-05
  -5.70000010E-03  -1.71747324E-05
  -5.65000018E-03  -1.74728993E-05
  -5.59999980E-03  -1.77755464E-05
  -5.54999989E-03  -1.80827319E-05
  -5.49999997E-03  -1.83945140E-05
  -5.45000006E-03  -1.87109581E-05
  -5.40000014E-03  -1.90321152E-05
  -5.35000023E-03  -1.93580399E-05
  -5.29999984E-03  -1.96887886E-05
  -5.24999993E-03  -2.00244194E-05
  -5.20000001E-03  -2.03650052E-05
  -5.15000010E-03  -2.07106132E-05
  -5.10000018E-03  -2.10613052E-05
  -5.04999980E-03  -2.14171414E-05
  -4.99999989E-03  -2.17781671E-05
  -4.94999997E-03  -2.21444388E-05
  -4.90000006E-03  -2.25160238E-05
  -4.85000014E-03  -2.28929875E-05
  -4.80000023E-03  -2.32754010E-05
  -4.74999985E-03  -2.36633259E-05
  -4.69999993E-03  -2.40568297E-05
  -4.65000002E-03  -2.44559833E-05
  -4.60000010E-03  -2.48608612E-05
  -4.55000019E-03  -2.52715308E-05
  -4.49999981E-03  -2.56880412E-05
  -4.44999989E-03  -2.61104524E-05
  -4.39999998E-03  -2.65388317E-05
  -4.35000006E-03  -2.69732573E-05
  -4.30000015E-03  -2.74138019E-05
  -4.25000023E-03  -2.78605439E-05
  -4.19999985E-03  -2.83135378E-05
  -4.14999994E-03  -2.87728617E-05
  -4.10000002E-03  -2.92385703E-05
  -4.05000011E-03  -2.97107272E-05
  -4.00000019E-03  -3.01893888E-05
  -3.94999981E-03  -3.06746188E-05
  -3.89999989E-03  -3.11664917E-05
  -3.84999998E-03  -3.16650767E-05
  -3.80000006E-03  -3.21704611E-05
  -3.74999992E-03  -3.26827249E-05
  -3.70000000E-03  -3.32019190E-05
  -3.65000009E-03  -3.37281090E-05
  -3.59999994E-03  -3.42613748E-05
  -3.55000002E-03  -3.48017711E-05
  -3.50000011E-03  -3.53493560E-05
  -3.44999996E-03  -3.59042133E-05
  -3.40000005E-03  -3.64664265E-05
  -3.34999990E-03  -3.70360794E-05
  -3.29999998E-03  -3.76132484E-05
  -3.25000007E-03  -3.81979989E-05
  -3.19999992E-03  -3.87904074E-05
  -3.15000000E-03  -3.93905248E-05
  -3.10000009E-03  -3.99984274E-05
  -3.04999994E-03  -4.06141844E-05
  -3.00000003E-03  -4.12378649E-05
  -2.95000011E-03  -4.18695527E-05
  -2.89999996E-03  -4.25093313E-05
  -2.85000005E-03  -4.31572807E-05
  -2.79999990E-03  -4.38134630E-05
  -2.74999999E-03  -4.44779653E-05
  -2.70000007E-03  -4.51508240E-05
  -2.64999992E-03  -4.58321047E-05
  -2.60000001E-03  -4.65218836E-05
  -2.55000009E-03  -4.72202373E-05
  -2.49999994E-03  -4.79272421E-05
  -2.45000003E-03  -4.86430035E-05
  -2.40000011E-03  -4.93675834E-05
  -2.34999997E-03  -5.01010763E-05
  -2.30000005E-03  -5.08435660E-05
  -2.24999990E-03  -5.15951106E-05
  -2.19999999E-03  -5.23557610E-05
  -2.15000007E-03  -5.31255791E-05
  -2.09999993E-03  -5.39046559E-05
  -2.05000001E-03  -5.46930823E-05
  -2.00000009E-03  -5.54909493E-05
  -1.94999995E-03  -5.62983441E-05
  -1.90000003E-03  -5.71153505E-05
  -1.85000000E-03  -5.79420230E-05
  -1.79999997E-03  -5.87784198E-05
  -1.75000005E-03  -5.96246136E-05
  -1.70000002E-03  -6.04806773E-05
  -1.64999999E-03  -6.13466691E-05
  -1.59999996E-03  -6.22226798E-05
  -1.55000004E-03  -6.31088260E-05
  -1.50000001E-03  -6.40051730E-05
  -1.44999998E-03  -6.49118010E-05
  -1.39999995E-03  -6.58287972E-05
  -1.35000004E-03  -6.67562199E-05
  -1.30000000E-03  -6.76941418E-05
  -1.24999997E-03  -6.86426210E-05
  -1.20000006E-03  -6.96017232E-05
  -1.15000003E-03  -7.05715429E-05
  -1.09999999E-03  -7.15521674E-05
  -1.04999996E-03  -7.25437058E-05
  -1.00000005E-03  -7.35462527E-05
  -9.50000016E-04  -7.45598591E-05
  -8.99999985E-04  -7.55845758E-05
  -8.50000011E-04  -7.66204830E-05
  -7.99999980E-04  -7.76676534E-05
  -7.50000007E-04  -7.87261451E-05
  -6.99999975E-04  -7.97960238E-05
  -6.50000002E-04  -8.08773912E-05
  -6.00000028E-04  -8.19703637E-05
  -5.49999997E-04  -8.30750068E-05
  -5.00000024E-04  -8.41914080E-05
  -4.49999992E-04  -8.53195961E-05
  -3.99999990E-04  -8.64596223E-05
  -3.49999988E-04  -8.76115882E-05
  -3.00000014E-04  -8.87755450E-05
  -2.50000012E-04  -8.99515580E-05
  -1.99999995E-04  -9.11396928E-05
  -1.50000007E-04  -9.23400294E-05
  -9.99999975E-05  -9.35526914E-05
  -4.99999987E-05  -9.47777589E-05
   0.00000000      -9.60152611E-05
   4.99999987E-05  -9.72652124E-05
   9.99999975E-05  -9.85276929E-05
   1.50000007E-04  -9.98027754E-05
   1.99999995E-04  -1.01090547E-04
   2.50000012E-04  -1.02391095E-04
   3.00000014E-04  -1.03704493E-04
   3.49999988E-04  -1.05030820E-04
   3.99999990E-04  -1.06370135E-04
   4.49999992E-04  -1.07722495E-04
   5.00000024E-04  -1.09087945E-04
   5.49999997E-04  -1.10466484E-04
   6.00000028E-04  -1.11858186E-04
   6.50000002E-04  -1.13263144E-04
   6.99999975E-04  -1.14681388E-04
   7.50000007E-04  -1.16112999E-04
   7.99999980E-04  -1.17558033E-04
   8.50000011E-04  -1.19016564E-04
   8.99999985E-04  -1.20488658E-04
   9.50000016E-04  -1.21974292E-04
   1.00000005E-03  -1.23473510E-04
   1.04999996E-03  -1.24986313E-04
   1.09999999E-03  -1.26512779E-04
   1.15000003E-03  -1.28052983E-04
   1.20000006E-03  -1.29607026E-04
   1.24999997E-03  -1.31174951E-04
   1.30000000E-03  -1.32756788E-04
   1.35000004E-03  -1.34352566E-04
   1.39999995E-03  -1.35962313E-04
   1.44999998E-03  -1.37586001E-04
   1.50000001E-03  -1.39223659E-04
   1.55000004E-03  -1.40875316E-04
   1.59999996E-03  -1.42541016E-04
   1.64999999E-03  -1.44220830E-04
   1.70000002E-03  -1.45914775E-04
   1.75000005E-03  -1.47622879E-04
   1.79999997E-03  -1.49345171E-04
   1.85000000E-03  -1.51081593E-04
   1.90000003E-03  -1.52832159E-04
   1.94999995E-03  -1.54596855E-04
   2.00000009E-03  -1.56375681E-04
   2.05000001E-03  -1.58168623E-04
   2.09999993E-03  -1.59975709E-04
   2.15000007E-03  -1.61796954E-04
   2.19999999E-03  -1.63632372E-04
   2.24999990E-03  -1.65482008E-04
   2.30000005E-03  -1.67345730E-04
   2.34999997E-03  -1.69223495E-04
   2.40000011E-03  -1.71115287E-04
   2.45000003E-03  -1.73021122E-04
   2.49999994E-03  -1.74941015E-04
   2.55000009E-03  -1.76874892E-04
   2.60000001E-03  -1.78822680E-04
   2.64999992E-03  -1.80784395E-04
   2.70000007E-03  -1.82759977E-04
   2.74999999E-03  -1.84749442E-04
   2.79999990E-03  -1.86752673E-04