  -3.99999991E-02   0.00000000    
  -3.99499983E-02   0.00000000    
  -3.99000011E-02   0.00000000    
  -3.98500003E-02   0.00000000    
  -3.97999994E-02   1.84391612E-20
  -3.97499986E-02   1.53910601E-19
  -3.97000015E-02   6.94934440E-19
  -3.96500006E-02   2.23993396E-18
  -3.95999998E-02   5.76120254E-18
  -3.95499989E-02   1.25723074E-17
  -3.95000018E-02   2.42261713E-17
  -3.94500010E-02   4.24123955E-17
  -3.94000001E-02   6.88849809E-17
  -3.93499993E-02   1.05375974E-16
  -3.92999984E-02   1.53446689E-16
  -3.92500013E-02   2.14355319E-16
  -3.92000005E-02   2.89192295E-16
  -3.91499996E-02   3.79568116E-16
  -3.90999988E-02   4.88901223E-16
  -3.90500017E-02   6.23908375E-16
  -3.90000008E-02   7.95481410E-16
  -3.89500000E-02   1.01805800E-15
  -3.88999991E-02   1.30705707E-15
  -3.88499983E-02   1.67491416E-15
  -3.88000011E-02   2.12734675E-15
  -3.87500003E-02   2.66205896E-15
  -3.86999995E-02   3.27156206E-15
  -3.86499986E-02   3.95000474E-15
  -3.86000015E-02   4.70148475E-15
  -3.85500006E-02   5.54557765E-15
  -3.84999998E-02   6.51594494E-15
  -3.84499989E-02   7.65044478E-15
  -3.84000018E-02   8.97528901E-15
  -3.83500010E-02   1.04895950E-14
  -3.83000001E-02   1.21581186E-14
  -3.82499993E-02   1.39175873E-14
  -3.81999984E-02   1.56964556E-14
  -3.81500013E-02   1.74411910E-14
  -3.81000005E-02   1.91377320E-14
  -3.80499996E-02   2.08172357E-14
  -3.79999988E-02   2.25409901E-14
  -3.79500017E-02   2.43685314E-14
  -3.79000008E-02   2.63210643E-14
  -3.78500000E-02   2.83556510E-14
  -3.77999991E-02   3.03618350E-14
  -3.77499983E-02   3.21832540E-14
  -3.77000012E-02   3.36557632E-14
  -3.76500003E-02   3.46458668E-14
  -3.75999995E-02   3.50727409E-14
  -3.75499986E-02   3.49038933E-14
  -3.75000015E-02   3.41260189E-14
  -3.74500006E-02   3.27031391E-14
  -3.73999998E-02   3.05391766E-14
  -3.73499990E-02   2.74599899E-14
  -3.73000018E-02   2.32222688E-14
  -3.72500010E-02   1.75477681E-14
  -3.72000001E-02   1.01742497E-14
  -3.71499993E-02   9.10445328E-16
  -3.70999984E-02  -1.03190475E-14
  -3.70500013E-02  -2.34529057E-14
  -3.70000005E-02  -3.83080645E-14
  -3.69499996E-02  -5.46367185E-14
  -3.68999988E-02  -7.22206515E-14
  -3.68500017E-02  -9.09825329E-14
  -3.68000008E-02  -1.11077678E-13
  -3.67500000E-02  -1.32921208E-13
  -3.66999991E-02  -1.57115301E-13
  -3.66499983E-02  -1.84272709E-13
  -3.66000012E-02  -2.14780125E-13
  -3.65500003E-02  -2.48589073E-13
  -3.64999995E-02  -2.85136091E-13
  -3.64499986E-02  -3.23459521E-13
  -3.64000015E-02  -3.62503349E-13
  -3.63500006E-02  -4.01501776E-13
  -3.62999998E-02  -4.40273577E-13
  -3.62499990E-02  -4.79259861E-13
  -3.62000018E-02  -5.19228649E-13
  -3.61500010E-02  -5.60723451E-13
  -3.61000001E-02  -6.03480048E-13
  -3.60499993E-02  -6.46106974E-13
  -3.59999985E-02  -6.86257149E-13
  -3.59500013E-02  -7.21317537E-13
  -3.59000005E-02  -7.49385200E-13
  -3.58499996E-02  -7.70100672E-13
  -3.57999988E-02  -7.84888756E-13
  -3.57500017E-02  -7.96365252E-13
  -3.57000008E-02  -8.07033043E-13
  -3.56500000E-02  -8.17773583E-13
  -3.55999991E-02  -8.26832797E-13
  -3.55499983E-02  -8.29888296E-13
  -3.55000012E-02  -8.21357739E-13
  -3.54500003E-02  -7.96525931E-13
  -3.53999995E-02  -7.53592935E-13
  -3.53499986E-02  -6.94636080E-13
  -3.53000015E-02  -6.24843872E-13
  -3.52500007E-02  -5.50129874E-13
  -3.51999998E-02  -4.74049185E-13
  -3.51499990E-02  -3.95428265E-13
  -3.51000018E-02  -3.07986221E-13
  -3.50500010E-02  -2.02445835E-13
  -3.50000001E-02  -7.04908137E-14
  -3.49499993E-02   9.10704075E-14
  -3.48999985E-02   2.77913001E-13
  -3.48500013E-02   4.78983444E-13
  -3.48000005E-02   6.80536519E-13
  -3.47499996E-02   8.71932680E-13
  -3.46999988E-02   1.05065902E-12
  -3.46500017E-02   1.22407347E-12
  -3.46000008E-02   1.40662774E-12
  -3.45500000E-02   1.61333642E-12
  -3.44999991E-02   1.85216469E-12
  -3.44499983E-02   2.11884264E-12
  -3.44000012E-02   2.39687263E-12
  -3.43500003E-02   2.66332529E-12
  -3.42999995E-02   2.89831093E-12
  -3.42499986E-02   3.09401072E-12
  -3.42000015E-02   3.25887472E-12
  -3.41500007E-02   3.41443215E-12
  -3.40999998E-02   3.58539457E-12
  -3.40499990E-02   3.78704403E-12
  -3.40000018E-02   4.01563505E-12
  -3.39500010E-02   4.24674662E-12
  -3.39000002E-02   4.44325219E-12
  -3.38499993E-02   4.57016282E-12
  -3.37999985E-02   4.61003805E-12
  -3.37500013E-02   4.57173188E-12
  -3.37000005E-02   4.48765547E-12
  -3.36499996E-02   4.39971497E-12
  -3.35999988E-02   4.33946282E-12
  -3.35500017E-02   4.31130782E-12
  -3.35000008E-02   4.28703384E-12
  -3.34500000E-02   4.21532210E-12
  -3.33999991E-02   4.04321108E-12
  -3.33499983E-02   3.74047364E-12
  -3.33000012E-02   3.31564875E-12
  -3.32500003E-02   2.81535407E-12
  -3.31999995E-02   2.30564764E-12
  -3.31499986E-02   1.84256213E-12
  -3.31000015E-02   1.44471512E-12
  -3.30500007E-02   1.08107251E-12
  -3.29999998E-02   6.80985867E-13
  -3.29499990E-02   1.63779065E-13
  -3.29000019E-02  -5.24256528E-13
  -3.28500010E-02  -1.38211458E-12
  -3.28000002E-02  -2.34929719E-12
  -3.27499993E-02  -3.32810754E-12
  -3.26999985E-02  -4.22476420E-12
  -3.26500013E-02  -4.99161172E-12
  -3.26000005E-02  -5.65078019E-12
  -3.25499997E-02  -6.28680268E-12
  -3.24999988E-02  -7.00926340E-12
  -3.24500017E-02  -7.90068531E-12
  -3.24000008E-02  -8.97294131E-12
  -3.23500000E-02  -1.01532576E-11
  -3.22999991E-02  -1.13086467E-11
  -3.22499983E-02  -1.23002953E-11
  -3.22000012E-02  -1.30447727E-11
  -3.21500003E-02  -1.35540364E-11
  -3.20999995E-02  -1.39340223E-11
  -3.20499986E-02  -1.43394246E-11
  -3.20000015E-02  -1.49025514E-11
  -3.19500007E-02  -1.56674812E-11
  -3.18999998E-02  -1.65604700E-11
  -3.18499990E-02  -1.74128854E-11
  -3.18000019E-02  -1.80296073E-11
  -3.17500010E-02  -1.82742519E-11
  -3.17000002E-02  -1.81328286E-11
  -3.16499993E-02  -1.77248632E-11
  -3.15999985E-02  -1.72534279E-11
  -3.15500014E-02  -1.69132434E-11
  -3.15000005E-02  -1.67968122E-11
  -3.14499997E-02  -1.68420226E-11
  -3.13999988E-02  -1.68482502E-11
  -3.13500017E-02  -1.65579807E-11
  -3.13000008E-02  -1.57703746E-11
  -3.12500000E-02  -1.44363766E-11
  -3.11999992E-02  -1.26902360E-11
  -3.11500002E-02  -1.07989893E-11
  -3.10999993E-02  -9.04818408E-12
  -3.10500003E-02  -7.61264402E-12
  -3.09999995E-02  -6.47089153E-12
  -3.09500005E-02  -5.40519669E-12
  -3.08999997E-02  -4.09216107E-12
  -3.08500007E-02  -2.24737243E-12
  -3.07999998E-02   2.39361048E-13
  -3.07500008E-02   3.24089974E-12
  -3.07000000E-02   6.43480191E-12
  -3.06499992E-02   9.43692520E-12
  -3.06000002E-02   1.19701506E-11
  -3.05499993E-02   1.39925033E-11
  -3.05000003E-02   1.57235787E-11
  -3.04499995E-02   1.75515956E-11
  -3.04000005E-02   1.98574178E-11
  -3.03499997E-02   2.28319065E-11
  -3.03000007E-02   2.63701387E-11
  -3.02499998E-02   3.00950931E-11
  -3.02000009E-02   3.35067529E-11
  -3.01500000E-02   3.61948561E-11
  -3.00999992E-02   3.80212355E-11
  -3.00500002E-02   3.91868274E-11
  -2.99999993E-02   4.01470662E-11
  -2.99500003E-02   4.14069889E-11
  -2.98999995E-02   4.32839771E-11
  -2.98500005E-02   4.57451750E-11
  -2.97999997E-02   4.83975325E-11
  -2.97500007E-02   5.06424173E-11
  -2.96999998E-02   5.19319830E-11
  -2.96500009E-02   5.20150346E-11
  -2.96000000E-02   5.10595212E-11
  -2.95499992E-02   4.95900647E-11
  -2.95000002E-02   4.82602708E-11
  -2.94499993E-02   4.75560771E-11
  -2.94000003E-02   4.75621938E-11
  -2.93499995E-02   4.79009124E-11
  -2.93000005E-02   4.78789716E-11
  -2.92499997E-02   4.67850134E-11
  -2.92000007E-02   4.42090496E-11
  -2.91499998E-02   4.02398115E-11
  -2.91000009E-02   3.54451919E-11
  -2.90500000E-02   3.06355288E-11
  -2.89999992E-02   2.65082314E-11
  -2.89500002E-02   2.33302752E-11
  -2.88999993E-02   2.08043027E-11
  -2.88500004E-02   1.81866657E-11
  -2.87999995E-02   1.46140981E-11
  -2.87500005E-02   9.49907600E-12
  -2.86999997E-02   2.81717228E-12
  -2.86500007E-02  -4.84850484E-12
  -2.85999998E-02  -1.25357502E-11
  -2.85500009E-02  -1.93119999E-11
  -2.85000000E-02  -2.46853562E-11
  -2.84499992E-02  -2.88318501E-11
  -2.84000002E-02  -3.25289656E-11
  -2.83499993E-02  -3.68142114E-11
  -2.83000004E-02  -4.25127572E-11
  -2.82499995E-02  -4.98428243E-11
  -2.82000005E-02  -5.82802626E-11
  -2.81499997E-02  -6.67531794E-11
  -2.81000007E-02  -7.40907891E-11
  -2.80499998E-02  -7.95331162E-11
  -2.80000009E-02  -8.30732427E-11
  -2.79500000E-02  -8.54716575E-11
  -2.78999992E-02  -8.79243622E-11
  -2.78500002E-02  -9.15223869E-11
  -2.77999993E-02  -9.67397065E-11
  -2.77500004E-02  -1.03181713E-10
  -2.76999995E-02  -1.09717666E-10
  -2.76500005E-02  -1.14950847E-10
  -2.75999997E-02  -1.17826721E-10
  -2.75500007E-02  -1.18109800E-10
  -2.74999999E-02  -1.16509802E-10
  -2.74500009E-02  -1.14388242E-10
  -2.74000000E-02  -1.13163277E-10
  -2.73499992E-02  -1.13670379E-10
  -2.73000002E-02  -1.15765023E-10
  -2.72499993E-02  -1.18354174E-10
  -2.72000004E-02  -1.19856292E-10
  -2.71499995E-02  -1.18897073E-10
  -2.71000005E-02  -1.14935332E-10
  -2.70499997E-02  -1.08535576E-10
  -2.70000007E-02  -1.01153155E-10
  -2.69499999E-02  -9.45130849E-11
  -2.69000009E-02  -8.98488714E-11
  -2.68500000E-02  -8.73391706E-11
  -2.67999992E-02  -8.60015670E-11
  -2.67500002E-02  -8.41059097E-11
  -2.66999993E-02  -7.99375149E-11
  -2.66500004E-02  -7.25786098E-11
  -2.65999995E-02  -6.23574803E-11
  -2.65500005E-02  -5.07536027E-11
  -2.64999997E-02  -3.97845541E-11
  -2.64500007E-02  -3.11340086E-11
  -2.63999999E-02  -2.54041822E-11
  -2.63500009E-02  -2.18315956E-11
  -2.63000000E-02  -1.86072963E-11
  -2.62499992E-02  -1.36755650E-11
  -2.62000002E-02  -5.66675092E-12
  -2.61499994E-02   5.45046603E-12
  -2.61000004E-02   1.82983906E-11
  -2.60499995E-02   3.06501179E-11
  -2.60000005E-02   4.03873532E-11
  -2.59499997E-02   4.64384746E-11
  -2.59000007E-02   4.92758161E-11
  -2.58499999E-02   5.07365781E-11
  -2.58000009E-02   5.32281649E-11
  -2.57500000E-02   5.86563784E-11
  -2.56999992E-02   6.75486472E-11
  -2.56500002E-02   7.87705109E-11
  -2.55999994E-02   8.99792185E-11
  -2.55500004E-02   9.86319568E-11
  -2.54999995E-02   1.03113136E-10
  -2.54500005E-02   1.03479621E-10
  -2.53999997E-02   1.01480185E-10
  -2.53500007E-02   9.98207975E-11
  -2.52999999E-02   1.00984464E-10
  -2.52500009E-02   1.06121861E-10
  -2.52000000E-02   1.14511164E-10
  -2.51499992E-02   1.23844199E-10
  -2.51000002E-02   1.31232844E-10
  -2.50499994E-02   1.34504491E-10
  -2.50000004E-02   1.33214745E-10
  -2.49499995E-02   1.28916391E-10
  -2.49000005E-02   1.24544916E-10
  -2.48499997E-02   1.23171723E-10
  -2.48000007E-02   1.26666080E-10
  -2.47499999E-02   1.34861233E-10
  -2.47000009E-02   1.45610066E-10
  -2.46500000E-02   1.55727667E-10
  -2.45999992E-02   1.62421382E-10
  -2.45500002E-02   1.64580946E-10
  -2.44999994E-02   1.63348238E-10
  -2.44500004E-02   1.61693881E-10
  -2.43999995E-02   1.63165315E-10
  -2.43500005E-02   1.70345682E-10
  -2.42999997E-02   1.83705523E-10
  -2.42500007E-02   2.01369893E-10
  -2.41999999E-02   2.19927479E-10
  -2.41500009E-02   2.35944708E-10
  -2.41000000E-02   2.47524140E-10
  -2.40499992E-02   2.55211074E-10
  -2.40000002E-02   2.61826560E-10
  -2.39499994E-02   2.71274919E-10
  -2.39000004E-02   2.86833501E-10
  -2.38499995E-02   3.09676756E-10
  -2.38000005E-02   3.38298223E-10
  -2.37499997E-02   3.69109521E-10
  -2.37000007E-02   3.97975541E-10
  -2.36499999E-02   4.22020391E-10
  -2.36000009E-02   4.40903369E-10
  -2.35500000E-02   4.56982313E-10
  -2.34999992E-02   4.74266071E-10
  -2.34500002E-02   4.96596764E-10
  -2.33999994E-02   5.25856747E-10
  -2.33500004E-02   5.61002467E-10
  -2.32999995E-02   5.98373795E-10
  -2.32500006E-02   6.33169850E-10
  -2.31999997E-02   6.61455113E-10
  -2.31500007E-02   6.81812551E-10
  -2.30999999E-02   6.95896119E-10
  -2.30500009E-02   7.07612302E-10
  -2.30000000E-02   7.21267657E-10
  -2.29499992E-02   7.39486972E-10
  -2.29000002E-02   7.61828156E-10
  -2.28499994E-02   7.84725840E-10
  -2.28000004E-02   8.02816369E-10
  -2.27499995E-02   8.11080036E-10
  -2.27000006E-02   8.06861022E-10
  -2.26499997E-02   7.90858823E-10
  -2.26000007E-02   7.66629760E-10
  -2.25499999E-02   7.38792527E-10
  -2.25000009E-02   7.10714432E-10
  -2.24500000E-02   6.82702839E-10
  -2.23999992E-02   6.51521281E-10
  -2.23500002E-02   6.11471596E-10
  -2.22999994E-02   5.56590329E-10
  -2.22500004E-02   4.82998752E-10
  -2.21999995E-02   3.90361327E-10
  -2.21500006E-02   2.81783957E-10
  -2.20999997E-02   1.62169556E-10
  -2.20500007E-02   3.57379543E-11
  -2.19999999E-02  -9.61971405E-11
  -2.19500009E-02  -2.36195896E-10
  -2.19000001E-02  -3.89949462E-10
  -2.18499992E-02  -5.64128300E-10
  -2.18000002E-02  -7.63756558E-10
  -2.17499994E-02  -9.90277305E-10
  -2.17000004E-02  -1.24118327E-09
  -2.16499995E-02  -1.51140411E-09
  -2.16000006E-02  -1.79585935E-09
  -2.15499997E-02  -2.09205586E-09
  -2.15000007E-02  -2.40156894E-09
  -2.14499999E-02  -2.72972667E-09
  -2.14000009E-02  -3.08360715E-09
  -2.13500001E-02  -3.46921536E-09
  -2.12999992E-02  -3.88908727E-09
  -2.12500002E-02  -4.34139213E-09
  -2.11999994E-02  -4.82096185E-09
  -2.11500004E-02  -5.32181543E-09
  -2.10999995E-02  -5.84006887E-09
  -2.10500006E-02  -6.37594910E-09
  -2.09999997E-02  -6.93398539E-09
  -2.09500007E-02  -7.52128226E-09
  -2.08999999E-02  -8.14460233E-09
  -2.08500009E-02  -8.80755291E-09
  -2.08000001E-02  -9.50913481E-09
  -2.07499992E-02  -1.02443121E-08
  -2.07000002E-02  -1.10063825E-08
  -2.06499994E-02  -1.17901164E-08
  -2.06000004E-02  -1.25942643E-08
  -2.05499995E-02  -1.34223166E-08
  -2.05000006E-02  -1.42811363E-08
  -2.04499997E-02  -1.51780775E-08
  -2.04000007E-02  -1.61178111E-08
  -2.03499999E-02  -1.71003176E-08
  -2.03000009E-02  -1.81209199E-08
  -2.02500001E-02  -1.91723917E-08
  -2.01999992E-02  -2.02482280E-08
  -2.01500002E-02  -2.13456079E-08
  -2.00999994E-02  -2.24667573E-08
  -2.00500004E-02  -2.36180746E-08
  -1.99999996E-02  -2.48073739E-08
  -1.99500006E-02  -2.60404747E-08
  -1.98999997E-02  -2.73186362E-08
  -1.98500007E-02  -2.86380075E-08
  -1.97999999E-02  -2.99913374E-08
  -1.97500009E-02  -3.13712434E-08
  -1.97000001E-02  -3.27735741E-08
  -1.96499992E-02  -3.41993669E-08
  -1.96000002E-02  -3.56545193E-08
  -1.95499994E-02  -3.71473270E-08
  -1.95000004E-02  -3.86848846E-08
  -1.94499996E-02  -4.02700593E-08
  -1.94000006E-02  -4.19002788E-08
  -1.93499997E-02  -4.35687575E-08
  -1.93000007E-02  -4.52676687E-08
  -1.92499999E-02  -4.69917509E-08
  -1.92000009E-02  -4.87408869E-08
  -1.91500001E-02  -5.05204092E-08
  -1.90999992E-02  -5.23390078E-08
  -1.90500002E-02  -5.42051488E-08
  -1.89999994E-02  -5.61236106E-08
  -1.89500004E-02  -5.80936117E-08
  -1.88999996E-02  -6.01095209E-08
  -1.88500006E-02  -6.21636644E-08
  -1.87999997E-02  -6.42501803E-08
  -1.87500007E-02  -6.63680524E-08
  -1.86999999E-02  -6.85221551E-08
  -1.86500009E-02  -7.07215762E-08
  -1.86000001E-02  -7.29762206E-08
  -1.85499992E-02  -7.52929523E-08
  -1.85000002E-02  -7.76731852E-08
  -1.84499994E-02  -8.01128763E-08
  -1.84000004E-02  -8.26049700E-08
  -1.83499996E-02  -8.51432915E-08
  -1.83000006E-02  -8.77260860E-08
  -1.82499997E-02  -9.03576094E-08
  -1.82000007E-02  -9.30471913E-08
  -1.81499999E-02  -9.58059658E-08
  -1.81000009E-02  -9.86428930E-08
  -1.80500001E-02  -1.01561746E-07
  -1.79999992E-02  -1.04560421E-07
  -1.79500002E-02  -1.07632928E-07
  -1.78999994E-02  -1.10773158E-07
  -1.78500004E-02  -1.13978693E-07
  -1.77999996E-02  -1.17253222E-07
  -1.77500006E-02  -1.20606060E-07
  -1.76999997E-02  -1.24049350E-07
  -1.76500008E-02  -1.27594021E-07
  -1.75999999E-02  -1.31246182E-07
  -1.75500009E-02  -1.35005848E-07
  -1.75000001E-02  -1.38868344E-07
  -1.74499992E-02  -1.42827716E-07
  -1.74000002E-02  -1.46880893E-07
  -1.73499994E-02  -1.51030648E-07
  -1.73000004E-02  -1.55285761E-07
  -1.72499996E-02  -1.59658896E-07
  -1.72000006E-02  -1.64162429E-07
  -1.71499997E-02  -1.68804704E-07
  -1.71000008E-02  -1.73587864E-07
  -1.70499999E-02  -1.78508685E-07
  -1.70000009E-02  -1.83561667E-07
  -1.69500001E-02  -1.88743257E-07
  -1.68999992E-02  -1.94055218E-07
  -1.68500002E-02  -1.99505720E-07
  -1.67999994E-02  -2.05107540E-07
  -1.67500004E-02  -2.10874290E-07
  -1.66999996E-02  -2.16816304E-07
  -1.66500006E-02  -2.22937871E-07
  -1.65999997E-02  -2.29237401E-07
  -1.65500008E-02  -2.35710019E-07
  -1.64999999E-02  -2.42351746E-07
  -1.64500009E-02  -2.49163321E-07
  -1.64000001E-02  -2.56151850E-07
  -1.63499992E-02  -2.63329838E-07
  -1.63000003E-02  -2.70711581E-07
  -1.62499994E-02  -2.78309074E-07
  -1.62000004E-02  -2.86128824E-07
  -1.61499996E-02  -2.94171031E-07
  -1.61000006E-02  -3.02431829E-07
  -1.60499997E-02  -3.10907211E-07
  -1.60000008E-02  -3.19597120E-07
  -1.59499999E-02  -3.28507781E-07
  -1.59000009E-02  -3.37651358E-07
  -1.58500001E-02  -3.47042970E-07
  -1.57999992E-02  -3.56696347E-07
  -1.57500003E-02  -3.66620213E-07
  -1.56999994E-02  -3.76817042E-07
  -1.56500004E-02  -3.87284416E-07
  -1.55999996E-02  -3.98018670E-07
  -1.55499997E-02  -4.09019293E-07
  -1.54999997E-02  -4.20291741E-07
  -1.54499998E-02  -4.31847781E-07
  -1.53999999E-02  -4.43703129E-07
  -1.53500000E-02  -4.55873135E-07
  -1.53000001E-02  -4.68369080E-07
  -1.52500002E-02  -4.81196082E-07
  -1.52000003E-02  -4.94353799E-07
  -1.51500003E-02  -5.07839900E-07
  -1.51000004E-02  -5.21653988E-07
  -1.50499996E-02  -5.35801576E-07
  -1.49999997E-02  -5.50294430E-07
  -1.49499997E-02  -5.65149151E-07
  -1.48999998E-02  -5.80383244E-07
  -1.48499999E-02  -5.96010693E-07
  -1.48000000E-02  -6.12039798E-07
  -1.47500001E-02  -6.28473117E-07
  -1.47000002E-02  -6.45310081E-07
  -1.46500003E-02  -6.62551656E-07
  -1.46000003E-02  -6.80203527E-07
  -1.45500004E-02  -6.98277972E-07
  -1.44999996E-02  -7.16792613E-07
  -1.44499997E-02  -7.35766946E-07
  -1.43999998E-02  -7.55218139E-07
  -1.43499998E-02  -7.75157957E-07
  -1.42999999E-02  -7.95592541E-07
  -1.42500000E-02  -8.16524221E-07
  -1.42000001E-02  -8.37955497E-07
  -1.41500002E-02  -8.59893419E-07
  -1.41000003E-02  -8.82350832E-07
  -1.40500003E-02  -9.05346951E-07
  -1.40000004E-02  -9.28903830E-07
  -1.39499996E-02  -9.53041990E-07
  -1.38999997E-02  -9.77777290E-07
  -1.38499998E-02  -1.00311979E-06
  -1.37999998E-02  -1.02907529E-06
  -1.37499999E-02  -1.05564857E-06
  -1.37000000E-02  -1.08284814E-06
  -1.36500001E-02  -1.11068812E-06
  -1.36000002E-02  -1.13918929E-06
  -1.35500003E-02  -1.16837577E-06
  -1.35000004E-02  -1.19827143E-06
  -1.34500004E-02  -1.22889617E-06
  -1.33999996E-02  -1.26026430E-06
  -1.33499997E-02  -1.29238538E-06
  -1.32999998E-02  -1.32526691E-06
  -1.32499998E-02  -1.35891958E-06
  -1.31999999E-02  -1.39335896E-06
  -1.31500000E-02  -1.42860722E-06
  -1.31000001E-02  -1.46469085E-06
  -1.30500002E-02  -1.50163669E-06
  -1.30000003E-02  -1.53946883E-06
  -1.29500004E-02  -1.57820580E-06
  -1.29000004E-02  -1.61786090E-06
  -1.28499996E-02  -1.65844551E-06
  -1.27999997E-02  -1.69997213E-06
  -1.27499998E-02  -1.74245827E-06
  -1.26999998E-02  -1.78592711E-06
  -1.26499999E-02  -1.83040709E-06
  -1.26000000E-02  -1.87592775E-06
  -1.25500001E-02  -1.92251650E-06
  -1.25000002E-02  -1.97019608E-06
  -1.24500003E-02  -2.01898411E-06
  -1.24000004E-02  -2.06889513E-06
  -1.23500004E-02  -2.11994393E-06
  -1.22999996E-02  -2.17214938E-06
  -1.22499997E-02  -2.22553672E-06
  -1.21999998E-02  -2.28013528E-06
  -1.21499998E-02  -2.33597848E-06
  -1.20999999E-02  -2.39309725E-06
  -1.20500000E-02  -2.45151864E-06
  -1.20000001E-02  -2.51126471E-06
  -1.19500002E-02  -2.57235274E-06
  -1.19000003E-02  -2.63480138E-06
  -1.18500004E-02  -2.69863040E-06
  -1.18000004E-02  -2.76386618E-06
  -1.17499996E-02  -2.83054078E-06
  -1.16999997E-02  -2.89868922E-06
  -1.16499998E-02  -2.96834560E-06
  -1.15999999E-02  -3.03954107E-06
  -1.15499999E-02  -3.11230133E-06
  -1.15000000E-02  -3.18664843E-06
  -1.14500001E-02  -3.26260306E-06
  -1.14000002E-02  -3.34018841E-06
  -1.13500003E-02  -3.41943291E-06
  -1.13000004E-02  -3.50036998E-06
  -1.12500004E-02  -3.58303782E-06
  -1.11999996E-02  -3.66747463E-06
  -1.11499997E-02  -3.75371496E-06
  -1.10999998E-02  -3.84178884E-06
  -1.10499999E-02  -3.93172331E-06
  -1.09999999E-02  -4.02354135E-06
  -1.09500000E-02  -4.11726978E-06
  -1.09000001E-02  -4.21293771E-06
  -1.08500002E-02  -4.31058106E-06
  -1.08000003E-02  -4.41024076E-06
  -1.07500004E-02  -4.51195729E-06
  -1.07000005E-02  -4.61577019E-06
  -1.06499996E-02  -4.72171496E-06
  -1.05999997E-02  -4.82982296E-06
  -1.05499998E-02  -4.94012147E-06
  -1.04999999E-02  -5.05264052E-06
  -1.04499999E-02  -5.16741238E-06
  -1.04000000E-02  -5.28447526E-06
  -1.03500001E-02  -5.40387191E-06
  -1.03000002E-02  -5.52564779E-06
  -1.02500003E-02  -5.64984612E-06
  -1.02000004E-02  -5.77650826E-06
  -1.01500005E-02  -5.90566924E-06
  -1.00999996E-02  -6.03736180E-06
  -1.00499997E-02  -6.17161959E-06
  -9.99999978E-03  -6.30847717E-06
  -9.94999986E-03  -6.44797638E-06
  -9.89999995E-03  -6.59016177E-06
  -9.85000003E-03  -6.73508248E-06
  -9.80000012E-03  -6.88278715E-06
  -9.75000020E-03  -7.03332080E-06
  -9.70000029E-03  -7.18672527E-06
  -9.65000037E-03  -7.34303831E-06
  -9.60000046E-03  -7.50229538E-06
  -9.54999961E-03  -7.66453559E-06
  -9.49999969E-03  -7.82980078E-06
  -9.44999978E-03  -7.99814097E-06
  -9.39999986E-03  -8.16960983E-06
  -9.34999995E-03  -8.34425737E-06
  -9.30000003E-03  -8.52213634E-06
  -9.25000012E-03  -8.70329313E-06
  -9.20000020E-03  -8.88776958E-06
  -9.15000029E-03  -9.07560479E-06
  -9.10000037E-03  -9.26684424E-06
  -9.05000046E-03  -9.46152977E-06
  -8.99999961E-03  -9.65971685E-06
  -8.94999970E-03  -9.86145551E-06
  -8.89999978E-03  -1.00668049E-05
  -8.84999987E-03  -1.02758186E-05
  -8.79999995E-03  -1.04885503E-05
  -8.75000004E-03  -1.07050437E-05
  -8.70000012E-03  -1.09253460E-05
  -8.65000021E-03  -1.11495001E-05
  -8.60000029E-03  -1.13775550E-05
  -8.55000038E-03  -1.16095634E-05
  -8.50000046E-03  -1.18455846E-05
  -8.44999962E-03  -1.20856766E-05
  -8.39999970E-03  -1.23298978E-05
  -8.34999979E-03  -1.25783035E-05
  -8.29999987E-03  -1.28309466E-05
  -8.24999996E-03  -1.30878734E-05
  -8.20000004E-03  -1.33491321E-05
  -8.15000013E-03  -1.36147710E-05
  -8.10000021E-03  -1.38848436E-05
  -8.05000030E-03  -1.41594082E-05
  -8.00000038E-03  -1.44385303E-05
  -7.95000046E-03  -1.47222690E-05
  -7.89999962E-03  -1.50106816E-05
  -7.84999970E-03  -1.53038236E-05
  -7.79999979E-03  -1.56017450E-05
  -7.74999987E-03  -1.59044939E-05
  -7.69999996E-03  -1.62121196E-05
  -7.65000004E-03  -1.65246784E-05
  -7.60000013E-03  -1.68422303E-05
  -7.55000021E-03  -1.71648335E-05
  -7.49999983E-03  -1.74925553E-05
  -7.44999992E-03  -1.78254595E-05
  -7.40000000E-03  -1.81636024E-05
  -7.35000009E-03  -1.85070348E-05
  -7.30000017E-03  -1.88558079E-05
  -7.24999979E-03  -1.92099724E-05
  -7.19999988E-03  -1.95695793E-05
  -7.14999996E-03  -1.99346869E-05
  -7.10000005E-03  -2.03053569E-05
  -7.05000013E-03  -2.06816530E-05
  -7.00000022E-03  -2.10636426E-05
  -6.94999984E-03  -2.14513784E-05
  -6.89999992E-03  -2.18449168E-05
  -6.85000001E-03  -2.22443014E-05
  -6.80000009E-03  -2.26495849E-05
  -6.75000018E-03  -2.30608184E-05
  -6.69999979E-03  -2.34780582E-05
  -6.64999988E-03  -2.39013643E-05
  -6.59999996E-03  -2.43307986E-05
  -6.55000005E-03  -2.47664266E-05
  -6.50000013E-03  -2.52083009E-05
  -6.45000022E-03  -2.56564781E-05
  -6.39999984E-03  -2.61110054E-05
  -6.34999992E-03  -2.65719282E-05
  -6.30000001E-03  -2.70392939E-05
  -6.25000009E-03  -2.75131570E-05
  -6.20000018E-03  -2.79935721E-05
  -6.14999980E-03  -2.84805956E-05
  -6.09999988E-03  -2.89742911E-05
  -6.04999997E-03  -2.94747151E-05
  -6.00000005E-03  -2.99819130E-05
  -5.95000014E-03  -3.04959340E-05
  -5.90000022E-03  -3.10168216E-05
  -5.84999984E-03  -3.15446050E-05
  -5.79999993E-03  -3.20793370E-05
  -5.75000001E-03  -3.26210575E-05
  -5.70000010E-03  -3.31698284E-05
  -5.65000018E-03  -3.37256934E-05
  -5.59999980E-03  -3.42887142E-05
  -5.54999989E-03  -3.48589383E-05
  -5.49999997E-03  -3.54363947E-05
  -5.45000006E-03  -3.60211234E-05
  -5.40000014E-03  -3.66131535E-05
  -5.35000023E-03  -3.72125251E-05
  -5.29999984E-03  -3.78192672E-05
  -5.24999993E-03  -3.84334271E-05
  -5.20000001E-03  -3.90550449E-05
  -5.15000010E-03  -3.96841642E-05
  -5.10000018E-03  -4.03208287E-05
  -5.04999980E-03  -4.09650711E-05
  -4.99999989E-03  -4.16169169E-05
  -4.94999997E-03  -4.22763842E-05
  -4.90000006E-03  -4.29434804E-05
  -4.85000014E-03  -4.36182381E-05
  -4.80000023E-03  -4.43006829E-05
  -4.74999985E-03  -4.49908403E-05
  -4.69999993E-03  -4.56887392E-05
  -4.65000002E-03  -4.63944089E-05
  -4.60000010E-03  -4.71078747E-05
  -4.55000019E-03  -4.78291367E-05
  -4.49999981E-03  -4.85582059E-05
  -4.44999989E-03  -4.92950785E-05
  -4.39999998E-03  -5.00397618E-05
  -4.35000006E-03  -5.07922596E-05
  -4.30000015E-03  -5.15525753E-05
  -4.25000023E-03  -5.23207273E-05
  -4.19999985E-03  -5.30967263E-05
  -4.14999994E-03  -5.38805762E-05
  -4.10000002E-03  -5.46722767E-05
  -4.05000011E-03  -5.54718026E-05
  -4.00000019E-03  -5.62791283E-05
  -3.94999981E-03  -5.70942502E-05
  -3.89999989E-03  -5.79171356E-05
  -3.84999998E-03  -5.87477698E-05
  -3.80000006E-03  -5.95861311E-05
  -3.74999992E-03  -6.04322231E-05
  -3.70000000E-03  -6.12860240E-05
  -3.65000009E-03  -6.21475047E-05
  -3.59999994E-03  -6.30166251E-05
  -3.55000002E-03  -6.38933343E-05
  -3.50000011E-03  -6.47775742E-05
  -3.44999996E-03  -6.56693082E-05
  -3.40000005E-03  -6.65684784E-05
  -3.34999990E-03  -6.74750554E-05
  -3.29999998E-03  -6.83889812E-05
  -3.25000007E-03  -6.93102120E-05
  -3.19999992E-03  -7.02386897E-05
  -3.15000000E-03  -7.11743705E-05
  -3.10000009E-03  -7.21171600E-05
  -3.04999994E-03  -7.30669708E-05
  -3.00000003E-03  -7.40237228E-05
  -2.95000011E-03  -7.49873216E-05
  -2.89999996E-03  -7.59577015E-05
  -2.85000005E-03  -7.69347826E-05
  -2.79999990E-03  -7.79184847E-05
  -2.74999999E-03  -7.89087280E-05
  -2.70000007E-03  -7.99054105E-05
  -2.64999992E-03  -8.09084158E-05
  -2.60000001E-03  -8.19176203E-05
  -2.55000009E-03  -8.29328928E-05
  -2.49999994E-03  -8.39540953E-05
  -2.45000003E-03  -8.49811186E-05
  -2.40000011E-03  -8.60138389E-05
  -2.34999997E-03  -8.70521399E-05
  -2.30000005E-03  -8.80959051E-05
  -2.24999990E-03  -8.91450181E-05
  -2.19999999E-03  -9.01993044E-05
  -2.15000007E-03  -9.12585965E-05
  -2.09999993E-03  -9.23227199E-05
  -2.05000001E-03  -9.33914707E-05
  -2.00000009E-03  -9.44646963E-05
  -1.94999995E-03  -9.55422220E-05
  -1.90000003E-03  -9.66239095E-05
  -1.85000000E-03  -9.77095915E-05
  -1.79999997E-03  -9.87991079E-05
  -1.75000005E-03  -9.98922551E-05
  -1.70000002E-03  -1.00988800E-04
  -1.64999999E-03  -1.02088517E-04
  -1.59999996E-03  -1.03191152E-04
  -1.55000004E-03  -1.04296487E-04
  -1.50000001E-03  -1.05404280E-04
  -1.44999998E-03  -1.06514366E-04
  -1.39999995E-03  -1.07626525E-04
  -1.35000004E-03  -1.08740554E-04
  -1.30000000E-03  -1.09856192E-04
  -1.24999997E-03  -1.10973167E-04
  -1.20000006E-03  -1.12091184E-04
  -1.15000003E-03  -1.13209942E-04
  -1.09999999E-03  -1.14329137E-04
  -1.04999996E-03  -1.15448507E-04
  -1.00000005E-03  -1.16567782E-04
  -9.50000016E-04  -1.17686694E-04
  -8.99999985E-04  -1.18804986E-04
  -8.50000011E-04  -1.19922370E-04
  -7.99999980E-04  -1.21038538E-04
  -7.50000007E-04  -1.22153098E-04
  -6.99999975E-04  -1.23265709E-04
  -6.50000002E-04  -1.24375976E-04
  -6.00000028E-04  -1.25483552E-04
  -5.49999997E-04  -1.26588086E-04
  -5.00000024E-04  -1.27689302E-04
  -4.49999992E-04  -1.28786894E-04
  -3.99999990E-04  -1.29880515E-04
  -3.49999988E-04  -1.30969769E-04
  -3.00000014E-04  -1.32054265E-04
  -2.50000012E-04  -1.33133493E-04
  -1.99999995E-04  -1.34207046E-04
  -1.50000007E-04  -1.35274458E-04
  -9.99999975E-05  -1.36335351E-04
  -4.99999987E-05  -1.37389346E-04
   0.00000000      -1.38436095E-04
   4.99999987E-05  -1.39475189E-04
   9.99999975E-05  -1.40506192E-04
   1.50000007E-04  -1.41528610E-04
   1.99999995E-04  -1.42541918E-04
   2.50000012E-04  -1.43545549E-04
   3.00000014E-04  -1.44538993E-04
   3.49999988E-04  -1.45521815E-04
   3.99999990E-04  -1.46493563E-04
   4.49999992E-04  -1.47453815E-04
   5.00000024E-04  -1.48402120E-04
   5.49999997E-04  -1.49337968E-04
   6.00000028E-04  -1.50260777E-04
   6.50000002E-04  -1.51169952E-04
   6.99999975E-04  -1.52064880E-04
   7.50000007E-04  -1.52944966E-04
   7.99999980E-04  -1.53809669E-04
   8.50000011E-04  -1.54658454E-04
   8.99999985E-04  -1.55490809E-04
   9.50000016E-04  -1.56306269E-04
   1.00000005E-03  -1.57104223E-04
   1.04999996E-03  -1.57884046E-04
   1.09999999E-03  -1.58645096E-04
   1.15000003E-03  -1.59386647E-04
   1.20000006E-03  -1.60108015E-04
   1.24999997E-03  -1.60808559E-04
   1.30000000E-03  -1.61487726E-04
   1.35000004E-03  -1.62144890E-04
   1.39999995E-03  -1.62779499E-04
   1.44999998E-03  -1.63390912E-04
   1.50000001E-03  -1.63978446E-04
   1.55000004E-03  -1.64541372E-04
   1.59999996E-03  -1.65078891E-04
   1.64999999E-03  -1.65590245E-04
   1.70000002E-03  -1.66074722E-04
   1.75000005E-03  -1.66531623E-04
   1.79999997E-03  -1.66960293E-04
   1.85000000E-03  -1.67360093E-04
   1.90000003E-03  -1.67730366E-04
   1.94999995E-03  -1.68070343E-04
   2.00000009E-03  -1.68379222E-04
   2.05000001E-03  -1.68656174E-04
   2.09999993E-03  -1.68900340E-04
   2.15000007E-03  -1.69110892E-04
   2.19999999E-03  -1.69287057E-04
   2.24999990E-03  -1.69428124E-04
   2.30000005E-03  -1.69533378E-04
   2.34999997E-03  -1.69602077E-04
   2.40000011E-03  -1.69633480E-04
   2.45000003E-03  -1.69626685E-04
   2.49999994E-03  -1.69580802E-04
   2.55000009E-03  -1.69494873E-04
   2.60000001E-03  -1.69368010E-04
   2.64999992E-03  -1.69199368E-04
   2.70000007E-03  -1.68988146E-04
   2.74999999E-03  -1.68733575E-04
   2.79999990E-03  -1.68434868E-04