  -3.99999991E-02   0.00000000    
  -3.99499983E-02   0.00000000    
  -3.99000011E-02   0.00000000    
  -3.98500003E-02   5.23259359E-19
  -3.97999994E-02   4.62847423E-18
  -3.97499986E-02   2.09710138E-17
  -3.97000015E-02   6.36132662E-17
  -3.96500006E-02   1.40540818E-16
  -3.95999998E-02   2.24873510E-16
  -3.95499989E-02   2.14027054E-16
  -3.95000018E-02  -1.00971582E-16
  -3.94500010E-02  -1.02166859E-15
  -3.94000001E-02  -2.85513207E-15
  -3.93499993E-02  -5.75673110E-15
  -3.92999984E-02  -9.55906751E-15
  -3.92500013E-02  -1.36928949E-14
  -3.92000005E-02  -1.73097942E-14
  -3.91499996E-02  -1.96413032E-14
  -3.90999988E-02  -2.04857714E-14
  -3.90500017E-02  -2.05761244E-14
  -3.90000008E-02  -2.15531989E-14
  -3.89500000E-02  -2.54140377E-14
  -3.88999991E-02  -3.35826405E-14
  -3.88499983E-02  -4.60186122E-14
  -3.88000011E-02  -6.08685059E-14
  -3.87500003E-02  -7.49837407E-14
  -3.86999995E-02  -8.52278453E-14
  -3.86499986E-02  -9.00516369E-14
  -3.86000015E-02  -9.05567871E-14
  -3.85500006E-02  -9.03719306E-14
  -3.84999998E-02  -9.41555861E-14
  -3.84499989E-02  -1.05238734E-13
  -3.84000018E-02  -1.23484990E-13
  -3.83500010E-02  -1.44530763E-13
  -3.83000001E-02  -1.61026100E-13
  -3.82499993E-02  -1.65527070E-13
  -3.81999984E-02  -1.53780905E-13
  -3.81500013E-02  -1.26807310E-13
  -3.81000005E-02  -9.06511940E-14
  -3.80499996E-02  -5.37625669E-14
  -3.79999988E-02  -2.31288699E-14
  -3.79500017E-02  -9.48473507E-16
  -3.79000008E-02   1.65541832E-14
  -3.78500000E-02   3.75460229E-14
  -3.77999991E-02   7.09373153E-14
  -3.77499983E-02   1.22400516E-13
  -3.77000012E-02   1.91958943E-13
  -3.76500003E-02   2.74240401E-13
  -3.75999995E-02   3.61099334E-13
  -3.75499986E-02   4.45117684E-13
  -3.75000015E-02   5.22207874E-13
  -3.74500006E-02   5.92280511E-13
  -3.73999998E-02   6.58188944E-13
  -3.73499990E-02   7.24085885E-13
  -3.73000018E-02   7.94309226E-13
  -3.72500010E-02   8.73052010E-13
  -3.72000001E-02   9.64045900E-13
  -3.71499993E-02   1.06911593E-12
  -3.70999984E-02   1.18519897E-12
  -3.70500013E-02   1.30099761E-12
  -3.70000005E-02   1.39584893E-12
  -3.69499996E-02   1.44349246E-12
  -3.68999988E-02   1.42150072E-12
  -3.68500017E-02   1.32361982E-12
  -3.68000008E-02   1.16893854E-12
  -3.67500000E-02   1.00101817E-12
  -3.66999991E-02   8.73373368E-13
  -3.66499983E-02   8.24453082E-13
  -3.66000012E-02   8.52446802E-13
  -3.65500003E-02   9.03634806E-13
  -3.64999995E-02   8.84574423E-13
  -3.64499986E-02   6.98296672E-13
  -3.64000015E-02   2.91878175E-13
  -3.63500006E-02  -3.06435378E-13
  -3.62999998E-02  -9.82207913E-13
  -3.62499990E-02  -1.57188954E-12
  -3.62000018E-02  -1.93241647E-12
  -3.61500010E-02  -2.01479957E-12
  -3.61000001E-02  -1.90504557E-12
  -3.60499993E-02  -1.80505741E-12
  -3.59999985E-02  -1.95166431E-12
  -3.59500013E-02  -2.50335538E-12
  -3.59000005E-02  -3.44624437E-12
  -3.58499996E-02  -4.57014374E-12
  -3.57999988E-02  -5.53875522E-12
  -3.57500017E-02  -6.03441038E-12
  -3.57000008E-02  -5.91694575E-12
  -3.56500000E-02  -5.31934045E-12
  -3.55999991E-02  -4.62203019E-12
  -3.55499983E-02  -4.29943537E-12
  -3.55000012E-02  -4.69530101E-12
  -3.54500003E-02  -5.82807240E-12
  -3.53999995E-02  -7.32809213E-12
  -3.53499986E-02  -8.55796944E-12
  -3.53000015E-02  -8.88367852E-12
  -3.52500007E-02  -7.98424955E-12
  -3.51999998E-02  -6.05282144E-12
  -3.51499990E-02  -3.77509742E-12
  -3.51000018E-02  -2.06529238E-12
  -3.50500010E-02  -1.65607361E-12
  -3.50000001E-02  -2.72316284E-12
  -3.49499993E-02  -4.73171198E-12
  -3.48999985E-02  -6.60736006E-12
  -3.48500013E-02  -7.18967724E-12
  -3.48000005E-02  -5.78294313E-12
  -3.47499996E-02  -2.54916162E-12
  -3.46999988E-02   1.46586074E-12
  -3.46500017E-02   4.72913982E-12
  -3.46000008E-02   5.89713651E-12
  -3.45500000E-02   4.47802949E-12
  -3.44999991E-02   1.15949795E-12
  -3.44499983E-02  -2.39192997E-12
  -3.44000012E-02  -4.22061301E-12
  -3.43500003E-02  -2.98228846E-12
  -3.42999995E-02   1.35307445E-12
  -3.42499986E-02   7.35195672E-12
  -3.42000015E-02   1.26488637E-11
  -3.41500007E-02   1.49731998E-11
  -3.40999998E-02   1.32306032E-11
  -3.40499990E-02   8.12885696E-12
  -3.40000018E-02   2.00721427E-12
  -3.39500010E-02  -2.12398935E-12
  -3.39000002E-02  -1.94897700E-12
  -3.38499993E-02   2.99524533E-12
  -3.37999985E-02   1.09370308E-11
  -3.37500013E-02   1.85151096E-11
  -3.37000005E-02   2.22353056E-11
  -3.36499996E-02   2.01192622E-11
  -3.35999988E-02   1.27803722E-11
  -3.35500017E-02   3.36770434E-12
  -3.35000008E-02  -3.69308924E-12
  -3.34500000E-02  -4.66884994E-12
  -3.33999991E-02   1.67235572E-12
  -3.33499983E-02   1.32794695E-11
  -3.33000012E-02   2.55159591E-11
  -3.32500003E-02   3.31269630E-11
  -3.31999995E-02   3.26513226E-11
  -3.31499986E-02   2.41798317E-11
  -3.31000015E-02   1.15840844E-11
  -3.30500007E-02   9.91618463E-13
  -3.29999998E-02  -1.91089115E-12
  -3.29499990E-02   5.42877071E-12
  -3.29000019E-02   2.09983558E-11
  -3.28500010E-02   3.88159747E-11
  -3.28000002E-02   5.14182030E-11
  -3.27499993E-02   5.32149533E-11
  -3.26999985E-02   4.32070456E-11
  -3.26500013E-02   2.57549797E-11
  -3.26000005E-02   8.90783974E-12
  -3.25499997E-02   9.05392352E-13
  -3.24999988E-02   6.35798749E-12
  -3.24500017E-02   2.38577734E-11
  -3.24000008E-02   4.62225640E-11
  -3.23500000E-02   6.34271802E-11
  -3.22999991E-02   6.70333095E-11
  -3.22499983E-02   5.41589100E-11
  -3.22000012E-02   2.91201056E-11
  -3.21500003E-02   1.84394427E-12
  -3.20999995E-02  -1.64067770E-11
  -3.20499986E-02  -1.81768003E-11
  -3.20000015E-02  -3.49997613E-12
  -3.19500007E-02   1.96698647E-11
  -3.18999998E-02   3.86667816E-11
  -3.18499990E-02   4.16860088E-11
  -3.18000019E-02   2.32837690E-11
  -3.17500010E-02  -1.27384197E-11
  -3.17000002E-02  -5.45410661E-11
  -3.16499993E-02  -8.72163591E-11
  -3.15999985E-02  -9.94380620E-11
  -3.15500014E-02  -8.88218665E-11
  -3.15000005E-02  -6.34608130E-11
  -3.14499997E-02  -3.87257795E-11
  -3.13999988E-02  -3.05529491E-11
  -3.13500017E-02  -4.81192967E-11
  -3.13000008E-02  -8.92375618E-11
  -3.12500000E-02  -1.40723169E-10
  -3.11999992E-02  -1.83814922E-10
  -3.11500002E-02  -2.02417749E-10
  -3.10999993E-02  -1.90532201E-10
  -3.10500003E-02  -1.55430155E-10
  -3.09999995E-02  -1.14917471E-10
  -3.09500005E-02  -8.96508492E-11
  -3.08999997E-02  -9.37840847E-11
  -3.08500007E-02  -1.28137542E-10
  -3.07999998E-02  -1.79128018E-10
  -3.07500008E-02  -2.24213828E-10
  -3.07000000E-02  -2.41671239E-10
  -3.06499992E-02  -2.20444107E-10
  -3.06000002E-02  -1.65585948E-10
  -3.05499993E-02  -9.66283928E-11
  -3.05000003E-02  -3.93146349E-11
  -3.04499995E-02  -1.41744116E-11
  -3.04000005E-02  -2.70027056E-11
  -3.03499997E-02  -6.56481744E-11
  -3.03000007E-02  -1.04831581E-10
  -3.02499998E-02  -1.17135968E-10
  -3.02000009E-02  -8.54274498E-11
  -3.01500000E-02  -1.11221605E-11
  -3.00999992E-02   8.56185539E-11
  -3.00500002E-02   1.74178852E-10
  -2.99999993E-02   2.26839450E-10
  -2.99500003E-02   2.31331967E-10
  -2.98999995E-02   1.96877584E-10
  -2.98500005E-02   1.50722948E-10
  -2.97999997E-02   1.26379088E-10
  -2.97500007E-02   1.48572210E-10
  -2.96999998E-02   2.21594174E-10
  -2.96500009E-02   3.26450617E-10
  -2.96000000E-02   4.28423574E-10
  -2.95499992E-02   4.92013486E-10
  -2.95000002E-02   4.96776842E-10
  -2.94499993E-02   4.46934684E-10
  -2.94000003E-02   3.70188880E-10
  -2.93499995E-02   3.05897363E-10
  -2.93000005E-02   2.87572910E-10
  -2.92499997E-02   3.27410321E-10
  -2.92000007E-02   4.09896922E-10
  -2.91499998E-02   4.97706210E-10
  -2.91000009E-02   5.47646928E-10
  -2.90500000E-02   5.29827404E-10
  -2.89999992E-02   4.41511439E-10
  -2.89500002E-02   3.09249848E-10
  -2.88999993E-02   1.77936499E-10
  -2.88500004E-02   9.12841400E-11
  -2.87999995E-02   7.22259613E-11
  -2.87500005E-02   1.12052326E-10
  -2.86999997E-02   1.73450324E-10
  -2.86500007E-02   2.06513445E-10
  -2.85999998E-02   1.70924830E-10
  -2.85500009E-02   5.45337456E-11
  -2.85000000E-02  -1.20143326E-10
  -2.84499992E-02  -3.04785808E-10
  -2.84000002E-02  -4.45975451E-10
  -2.83499993E-02  -5.08798947E-10
  -2.83000004E-02  -4.92820229E-10
  -2.82499995E-02  -4.33019759E-10
  -2.82000005E-02  -3.84833332E-10
  -2.81499997E-02  -3.99546979E-10
  -2.81000007E-02  -5.00827824E-10
  -2.80499998E-02  -6.72973344E-10
  -2.80000009E-02  -8.66501149E-10
  -2.79500000E-02  -1.01905873E-09
  -2.78999992E-02  -1.08269893E-09
  -2.78500002E-02  -1.04544917E-09
  -2.77999993E-02  -9.37329103E-10
  -2.77500004E-02  -8.17691970E-10
  -2.76999995E-02  -7.49071194E-10
  -2.76500005E-02  -7.68919706E-10
  -2.75999997E-02  -8.71891281E-10
  -2.75500007E-02  -1.01091369E-09
  -2.74999999E-02  -1.11708065E-09
  -2.74500009E-02  -1.12992593E-09
  -2.74000000E-02  -1.02474140E-09
  -2.73499992E-02  -8.24589286E-10
  -2.73000002E-02  -5.91208749E-10
  -2.72499993E-02  -3.98354072E-10
  -2.72000004E-02  -2.99092001E-10
  -2.71499995E-02  -3.01602965E-10
  -2.71000005E-02  -3.64559327E-10
  -2.70499997E-02  -4.14644735E-10
  -2.70000007E-02  -3.78895443E-10
  -2.69499999E-02  -2.17681900E-10
  -2.69000009E-02   5.64605689E-11
  -2.68500000E-02   3.82945176E-10
  -2.67999992E-02   6.78877399E-10
  -2.67500002E-02   8.75347406E-10
  -2.66999993E-02   9.48198964E-10
  -2.66500004E-02   9.29310073E-10
  -2.65999995E-02   8.92898477E-10
  -2.65500005E-02   9.22467769E-10
  -2.64999997E-02   1.07284659E-09
  -2.64500007E-02   1.34430611E-09
  -2.63999999E-02   1.68065639E-09
  -2.63500009E-02   1.99268335E-09
  -2.63000000E-02   2.19689222E-09
  -2.62499992E-02   2.25243557E-09
  -2.62000002E-02   2.17956297E-09
  -2.61499994E-02   2.05092543E-09
  -2.61000004E-02   1.95913552E-09
  -2.60499995E-02   1.97477523E-09
  -2.60000005E-02   2.11360152E-09
  -2.59499997E-02   2.32791653E-09
  -2.59000007E-02   2.52643084E-09
  -2.58499999E-02   2.61416555E-09
  -2.58000009E-02   2.53472643E-09
  -2.57500000E-02   2.29591257E-09
  -2.56999992E-02   1.96680539E-09
  -2.56500002E-02   1.64717628E-09
  -2.55999994E-02   1.42258405E-09
  -2.55500004E-02   1.32522382E-09
  -2.54999995E-02   1.31835154E-09
  -2.54500005E-02   1.31169420E-09
  -2.53999997E-02   1.20137766E-09
  -2.53500007E-02   9.16676512E-10
  -2.52999999E-02   4.52533538E-10
  -2.52500009E-02  -1.27058947E-10
  -2.52000000E-02  -7.16759929E-10
  -2.51499992E-02  -1.21652977E-09
  -2.51000002E-02  -1.57633884E-09
  -2.50499994E-02  -1.81865389E-09
  -2.50000004E-02  -2.02821604E-09
  -2.49499995E-02  -2.31334996E-09
  -2.49000005E-02  -2.75604384E-09
  -2.48499997E-02  -3.37333295E-09
  -2.48000007E-02  -4.10767687E-09
  -2.47499999E-02  -4.85102980E-09
  -2.47000009E-02  -5.49203083E-09
  -2.46500000E-02  -5.96505512E-09
  -2.45999992E-02  -6.27883123E-09
  -2.45500002E-02  -6.51140164E-09
  -2.44999994E-02  -6.77340894E-09
  -2.44500004E-02  -7.15616411E-09
  -2.43999995E-02  -7.68806796E-09
  -2.43500005E-02  -8.31938696E-09
  -2.42999997E-02  -8.94253915E-09
  -2.42500007E-02  -9.43890210E-09
  -2.41999999E-02  -9.73093517E-09
  -2.41500009E-02  -9.81576687E-09
  -2.41000000E-02  -9.76470726E-09
  -2.40499992E-02  -9.68870939E-09
  -2.40000002E-02  -9.68543468E-09
  -2.39499994E-02  -9.79215198E-09
  -2.39000004E-02  -9.96626248E-09
  -2.38499995E-02  -1.01025908E-08
  -2.38000005E-02  -1.00797894E-08
  -2.37499997E-02  -9.81461312E-09
  -2.37000007E-02  -9.29902555E-09
  -2.36499999E-02  -8.60293259E-09
  -2.36000009E-02  -7.84099186E-09
  -2.35500000E-02  -7.11868742E-09
  -2.34999992E-02  -6.48251808E-09
  -2.34500002E-02  -5.89750249E-09
  -2.33999994E-02  -5.26266719E-09
  -2.33500004E-02  -4.45756054E-09
  -2.32999995E-02  -3.39836492E-09
  -2.32500006E-02  -2.07750595E-09
  -2.31999997E-02  -5.68144476E-10
  -2.31500007E-02   1.00885111E-09
  -2.30999999E-02   2.54024091E-09
  -2.30500009E-02   3.97226119E-09
  -2.30000000E-02   5.33465050E-09
  -2.29499992E-02   6.72526390E-09
  -2.29000002E-02   8.26206126E-09
  -2.28499994E-02   1.00248263E-08
  -2.28000004E-02   1.20139712E-08
  -2.27499995E-02   1.41460781E-08
  -2.27000006E-02   1.62887392E-08
  -2.26499997E-02   1.83187208E-08
  -2.26000007E-02   2.01762003E-08
  -2.25499999E-02   2.18892175E-08
  -2.25000009E-02   2.35563391E-08
  -2.24500000E-02   2.52950514E-08
  -2.23999992E-02   2.71799774E-08
  -2.23500002E-02   2.92002724E-08
  -2.22999994E-02   3.12569099E-08
  -2.22500004E-02   3.32020420E-08
  -2.21999995E-02   3.49024880E-08
  -2.21500006E-02   3.62974966E-08
  -2.20999997E-02   3.74229323E-08
  -2.20500007E-02   3.83895511E-08
  -2.19999999E-02   3.93243802E-08
  -2.19500009E-02   4.03025631E-08
  -2.19000001E-02   4.13022185E-08
  -2.18499992E-02   4.22044053E-08
  -2.18000002E-02   4.28399325E-08
  -2.17499994E-02   4.30617497E-08
  -2.17000004E-02   4.28092051E-08
  -2.16499995E-02   4.21329815E-08
  -2.16000006E-02   4.11673575E-08
  -2.15499997E-02   4.00614901E-08
  -2.15000007E-02   3.89010459E-08
  -2.14499999E-02   3.76573261E-08
  -2.14000009E-02   3.61898280E-08
  -2.13500001E-02   3.43026727E-08
  -2.12999992E-02   3.18301296E-08
  -2.12500002E-02   2.87115771E-08
  -2.11999994E-02   2.50196308E-08
  -2.11500004E-02   2.09260307E-08
  -2.10999995E-02   1.66190635E-08
  -2.10500006E-02   1.22102692E-08
  -2.09999997E-02   7.67390240E-09
  -2.09500007E-02   2.84916535E-09
  -2.08999999E-02  -2.49228260E-09
  -2.08500009E-02  -8.54333138E-09
  -2.08000001E-02  -1.53705848E-08
  -2.07499992E-02  -2.28784973E-08
  -2.07000002E-02  -3.08489305E-08
  -2.06499994E-02  -3.90401347E-08
  -2.06000004E-02  -4.73007162E-08
  -2.05499995E-02  -5.56450246E-08
  -2.05000006E-02  -6.42539604E-08
  -2.04499997E-02  -7.33972456E-08
  -2.04000007E-02  -8.33086489E-08
  -2.03499999E-02  -9.40719787E-08
  -2.03000009E-02  -1.05572013E-07
  -2.02500001E-02  -1.17536771E-07
  -2.01999992E-02  -1.29653898E-07
  -2.01500002E-02  -1.41711169E-07
  -2.00999994E-02  -1.53696334E-07
  -2.00500004E-02  -1.65806895E-07
  -1.99999996E-02  -1.78362100E-07
  -1.99500006E-02  -1.91654337E-07
  -1.98999997E-02  -2.05805833E-07
  -1.98500007E-02  -2.20698013E-07
  -1.97999999E-02  -2.36008617E-07
  -1.97500009E-02  -2.51346592E-07
  -1.97000001E-02  -2.66424365E-07
  -1.96499992E-02  -2.81187766E-07
  -1.96000002E-02  -2.95844870E-07
  -1.95499994E-02  -3.10773657E-07
  -1.95000004E-02  -3.26347447E-07
  -1.94499996E-02  -3.42754674E-07
  -1.94000006E-02  -3.59896546E-07
  -1.93499997E-02  -3.77414210E-07
  -1.93000007E-02  -3.94835411E-07
  -1.92499999E-02  -4.11778672E-07
  -1.92000009E-02  -4.28126867E-07
  -1.91500001E-02  -4.44085316E-07
  -1.90999992E-02  -4.60091456E-07
  -1.90500002E-02  -4.76618595E-07
  -1.89999994E-02  -4.93953337E-07
  -1.89500004E-02  -5.12050292E-07
  -1.88999996E-02  -5.30534919E-07
  -1.88500006E-02  -5.48857827E-07
  -1.87999997E-02  -5.66535846E-07
  -1.87500007E-02  -5.83371161E-07
  -1.86999999E-02  -5.99550219E-07
  -1.86500009E-02  -6.15569604E-07
  -1.86000001E-02  -6.32020260E-07
  -1.85499992E-02  -6.49319134E-07
  -1.85000002E-02  -6.67510733E-07
  -1.84499994E-02  -6.86234330E-07
  -1.84000004E-02  -7.04873173E-07
  -1.83499996E-02  -7.22827679E-07
  -1.83000006E-02  -7.39792938E-07
  -1.82499997E-02  -7.55910833E-07
  -1.82000007E-02  -7.71724217E-07
  -1.81499999E-02  -7.87947727E-07
  -1.81000009E-02  -8.05156162E-07
  -1.80500001E-02  -8.23523919E-07
  -1.79999992E-02  -8.42736881E-07
  -1.79500002E-02  -8.62128275E-07
  -1.78999994E-02  -8.80978632E-07
  -1.78500004E-02  -8.98849407E-07
  -1.77999996E-02  -9.15801763E-07
  -1.77500006E-02  -9.32396631E-07
  -1.76999997E-02  -9.49469836E-07
  -1.76500008E-02  -9.67775463E-07
  -1.75999999E-02  -9.87654744E-07
  -1.75500009E-02  -1.00888383E-06
  -1.75000001E-02  -1.03077036E-06
  -1.74499992E-02  -1.05247091E-06
  -1.74000002E-02  -1.07338360E-06
  -1.73499994E-02  -1.09344376E-06
  -1.73000004E-02  -1.11318707E-06
  -1.72499996E-02  -1.13354406E-06
  -1.72000006E-02  -1.15545402E-06
  -1.71499997E-02  -1.17945342E-06
  -1.71000008E-02  -1.20544632E-06
  -1.70499999E-02  -1.23274901E-06
  -1.70000009E-02  -1.26039890E-06
  -1.69500001E-02  -1.28760610E-06
  -1.68999992E-02  -1.31413401E-06
  -1.68500002E-02  -1.34044410E-06
  -1.67999994E-02  -1.36752953E-06
  -1.67500004E-02  -1.39650399E-06
  -1.66999996E-02  -1.42812860E-06
  -1.66500006E-02  -1.46247658E-06
  -1.65999997E-02  -1.49890593E-06
  -1.65500008E-02  -1.53635654E-06
  -1.64999999E-02  -1.57383670E-06
  -1.64500009E-02  -1.61089383E-06
  -1.64000001E-02  -1.64785240E-06
  -1.63499992E-02  -1.68571569E-06
  -1.63000003E-02  -1.72575710E-06
  -1.62499994E-02  -1.76896776E-06
  -1.62000004E-02  -1.81562996E-06
  -1.61499996E-02  -1.86519708E-06
  -1.61000006E-02  -1.91653521E-06
  -1.60499997E-02  -1.96844098E-06
  -1.60000008E-02  -2.02020465E-06
  -1.59499999E-02  -2.07195626E-06
  -1.59000009E-02  -2.12465147E-06
  -1.58500001E-02  -2.17968795E-06
  -1.57999992E-02  -2.23830671E-06
  -1.57500003E-02  -2.30104342E-06
  -1.56999994E-02  -2.36750316E-06
  -1.56500004E-02  -2.43653631E-06
  -1.55999996E-02  -2.50674793E-06
  -1.55499997E-02  -2.57714350E-06
  -1.54999997E-02  -2.64759774E-06
  -1.54499998E-02  -2.71895055E-06
  -1.53999999E-02  -2.79266851E-06
  -1.53500000E-02  -2.87022726E-06
  -1.53000001E-02  -2.95245127E-06
  -1.52500002E-02  -3.03914635E-06
  -1.52000003E-02  -3.12919678E-06
  -1.51500003E-02  -3.22105848E-06
  -1.51000004E-02  -3.31345586E-06
  -1.50499996E-02  -3.40596853E-06
  -1.49999997E-02  -3.49925403E-06
  -1.49499997E-02  -3.59480077E-06
  -1.48999998E-02  -3.69429449E-06
  -1.48499999E-02  -3.79887138E-06
  -1.48000000E-02  -3.90862442E-06
  -1.47500001E-02  -4.02255046E-06
  -1.47000002E-02  -4.13900034E-06
  -1.46500003E-02  -4.25642656E-06
  -1.46000003E-02  -4.37408471E-06
  -1.45500004E-02  -4.49239087E-06
  -1.44999996E-02  -4.61277841E-06
  -1.44499997E-02  -4.73710679E-06
  -1.43999998E-02  -4.86684439E-06
  -1.43499998E-02  -5.00243596E-06
  -1.42999999E-02  -5.14308431E-06
  -1.42500000E-02  -5.28709961E-06
  -1.42000001E-02  -5.43268743E-06
  -1.41500002E-02  -5.57875001E-06
  -1.41000003E-02  -5.72539193E-06
  -1.40500003E-02  -5.87395107E-06
  -1.40000004E-02  -6.02642513E-06
  -1.39499996E-02  -6.18462172E-06
  -1.38999997E-02  -6.34938351E-06
  -1.38499998E-02  -6.52019708E-06
  -1.37999998E-02  -6.69542578E-06
  -1.37499999E-02  -6.87306419E-06
  -1.37000000E-02  -7.05166985E-06
  -1.36500001E-02  -7.23101948E-06
  -1.36000002E-02  -7.41228359E-06
  -1.35500003E-02  -7.59756585E-06
  -1.35000004E-02  -7.78896083E-06
  -1.34500004E-02  -7.98769270E-06
  -1.33999996E-02  -8.19360775E-06
  -1.33499997E-02  -8.40522534E-06
  -1.32999998E-02  -8.62045817E-06
  -1.32499998E-02  -8.83755911E-06
  -1.31999999E-02  -9.05590241E-06
  -1.31500000E-02  -9.27638212E-06
  -1.31000001E-02  -9.50105914E-06
  -1.30500002E-02  -9.73228634E-06
  -1.30000003E-02  -9.97174448E-06
  -1.29500004E-02  -1.02197309E-05
  -1.29000004E-02  -1.04750416E-05
  -1.28499996E-02  -1.07355063E-05
  -1.27999997E-02  -1.09990578E-05
  -1.27499998E-02  -1.12647203E-05
  -1.26999998E-02  -1.15330749E-05
  -1.26499999E-02  -1.18060698E-05
  -1.26000000E-02  -1.20862551E-05
  -1.25500001E-02  -1.23757163E-05
  -1.25000002E-02  -1.26752029E-05
  -1.24500003E-02  -1.29838327E-05
  -1.24000004E-02  -1.32995274E-05
  -1.23500004E-02  -1.36200197E-05
  -1.22999996E-02  -1.39438889E-05
  -1.22499997E-02  -1.42712925E-05
  -1.21999998E-02  -1.46039920E-05
  -1.21499998E-02  -1.49446223E-05
  -1.20999999E-02  -1.52956454E-05
  -1.20500000E-02  -1.56582937E-05
  -1.20000001E-02  -1.60321324E-05
  -1.19500002E-02  -1.64152825E-05
  -1.19000003E-02  -1.68052757E-05
  -1.18500004E-02  -1.72003238E-05
  -1.18000004E-02  -1.76001431E-05
  -1.17499996E-02  -1.80061124E-05
  -1.16999997E-02  -1.84208129E-05
  -1.16499998E-02  -1.88470312E-05
  -1.15999999E-02  -1.92865737E-05
  -1.15499999E-02  -1.97393983E-05
  -1.15000000E-02  -2.02038336E-05
  -1.14500001E-02  -2.06774403E-05
  -1.14000002E-02  -2.11580937E-05
  -1.13500003E-02  -2.16450571E-05
  -1.13000004E-02  -2.21393821E-05
  -1.12500004E-02  -2.26435295E-05
  -1.11999996E-02  -2.31604190E-05
  -1.11499997E-02  -2.36922533E-05
  -1.10999998E-02  -2.42394708E-05
  -1.10499999E-02  -2.48008000E-05
  -1.09999999E-02  -2.53738999E-05
  -1.09500000E-02  -2.59563130E-05
  -1.09000001E-02  -2.65467170E-05
  -1.08500002E-02  -2.71456156E-05
  -1.08000003E-02  -2.77553154E-05
  -1.07500004E-02  -2.83788831E-05
  -1.07000005E-02  -2.90188400E-05
  -1.06499996E-02  -2.96762482E-05
  -1.05999997E-02  -3.03503784E-05
  -1.05499998E-02  -3.10390096E-05
  -1.04999999E-02  -3.17394952E-05
  -1.04499999E-02  -3.24500979E-05
  -1.04000000E-02  -3.31708725E-05
  -1.03500001E-02  -3.39037215E-05
  -1.03000002E-02  -3.46515844E-05
  -1.02500003E-02  -3.54172662E-05
  -1.02000004E-02  -3.62024257E-05
  -1.01500005E-02  -3.70067573E-05
  -1.00999996E-02  -3.78282311E-05
  -1.00499997E-02  -3.86642387E-05
  -9.99999978E-03  -3.95127026E-05
  -9.94999986E-03  -4.03730555E-05
  -9.89999995E-03  -4.12465379E-05
  -9.85000003E-03  -4.21359036E-05
  -9.80000012E-03  -4.30443142E-05
  -9.75000020E-03  -4.39738651E-05
  -9.70000029E-03  -4.49249310E-05
  -9.65000037E-03  -4.58959767E-05
  -9.60000046E-03  -4.68842882E-05
  -9.54999961E-03  -4.78873626E-05
  -9.49999969E-03  -4.89042468E-05
  -9.44999978E-03  -4.99358939E-05
  -9.39999986E-03  -5.09848578E-05
  -9.34999995E-03  -5.20543763E-05
  -9.30000003E-03  -5.31468686E-05
  -9.25000012E-03  -5.42632079E-05
  -9.20000020E-03  -5.54023827E-05
  -9.15000029E-03  -5.65617920E-05
  -9.10000037E-03  -5.77386782E-05
  -9.05000046E-03  -5.89315241E-05
  -8.99999961E-03  -6.01408683E-05
  -8.94999970E-03  -6.13689845E-05
  -8.89999978E-03  -6.26186593E-05
  -8.84999987E-03  -6.38926649E-05
  -8.79999995E-03  -6.51925366E-05
  -8.75000004E-03  -6.65174593E-05
  -8.70000012E-03  -6.78651268E-05
  -8.65000021E-03  -6.92328103E-05
  -8.60000029E-03  -7.06186547E-05
  -8.55000038E-03  -7.20227326E-05
  -8.50000046E-03  -7.34468485E-05
  -8.44999962E-03  -7.48940874E-05
  -8.39999970E-03  -7.63674034E-05
  -8.34999979E-03  -7.78686008E-05
  -8.29999987E-03  -7.93975269E-05
  -8.24999996E-03  -8.09523044E-05
  -8.20000004E-03  -8.25303359E-05
  -8.15000013E-03  -8.41293586E-05
  -8.10000021E-03  -8.57488048E-05
  -8.05000030E-03  -8.73901081E-05
  -8.00000038E-03  -8.90559386E-05
  -7.95000046E-03  -9.07494541E-05
  -7.89999962E-03  -9.24726337E-05
  -7.84999970E-03  -9.42256593E-05
  -7.79999979E-03  -9.60071993E-05
  -7.74999987E-03  -9.78144817E-05
  -7.69999996E-03  -9.96448507E-05
  -7.65000004E-03  -1.01496953E-04
  -7.60000013E-03  -1.03371785E-04
  -7.55000021E-03  -1.05272178E-04
  -7.49999983E-03  -1.07201668E-04
  -7.44999992E-03  -1.09162647E-04
  -7.40000000E-03  -1.11155518E-04
  -7.35000009E-03  -1.13178816E-04
  -7.30000017E-03  -1.15229719E-04
  -7.24999979E-03  -1.17306161E-04
  -7.19999988E-03  -1.19407196E-04
  -7.14999996E-03  -1.21533267E-04
  -7.10000005E-03  -1.23686768E-04
  -7.05000013E-03  -1.25870894E-04
  -7.00000022E-03  -1.28087762E-04
  -6.94999984E-03  -1.30337925E-04
  -6.89999992E-03  -1.32620640E-04
  -6.85000001E-03  -1.34933536E-04
  -6.80000009E-03  -1.37274008E-04
  -6.75000018E-03  -1.39640426E-04
  -6.69999979E-03  -1.42033008E-04
  -6.64999988E-03  -1.44453967E-04
  -6.59999996E-03  -1.46906023E-04
  -6.55000005E-03  -1.49391708E-04
  -6.50000013E-03  -1.51912274E-04
  -6.45000022E-03  -1.54466921E-04
  -6.39999984E-03  -1.57053306E-04
  -6.34999992E-03  -1.59668212E-04
  -6.30000001E-03  -1.62309399E-04
  -6.25000009E-03  -1.64976998E-04
  -6.20000018E-03  -1.67673090E-04
  -6.14999980E-03  -1.70400876E-04
  -6.09999988E-03  -1.73163833E-04
  -6.04999997E-03  -1.75964029E-04
  -6.00000005E-03  -1.78800605E-04
  -5.95000014E-03  -1.81670228E-04
  -5.90000022E-03  -1.84569159E-04
  -5.84999984E-03  -1.87495330E-04
  -5.79999993E-03  -1.90448336E-04
  -5.75000001E-03  -1.93429471E-04
  -5.70000010E-03  -1.96442124E-04
  -5.65000018E-03  -1.99489572E-04
  -5.59999980E-03  -2.02573821E-04
  -5.54999989E-03  -2.05695193E-04
  -5.49999997E-03  -2.08851299E-04
  -5.45000006E-03  -2.12038052E-04
  -5.40000014E-03  -2.15251086E-04
  -5.35000023E-03  -2.18489164E-04
  -5.29999984E-03  -2.21754613E-04
  -5.24999993E-03  -2.25050753E-04
  -5.20000001E-03  -2.28380930E-04
  -5.15000010E-03  -2.31747297E-04
  -5.10000018E-03  -2.35150132E-04
  -5.04999980E-03  -2.38587134E-04
  -4.99999989E-03  -2.42054841E-04
  -4.94999997E-03  -2.45550065E-04
  -4.90000006E-03  -2.49070261E-04
  -4.85000014E-03  -2.52615486E-04
  -4.80000023E-03  -2.56189116E-04
  -4.74999985E-03  -2.59795168E-04
  -4.69999993E-03  -2.63436465E-04
  -4.65000002E-03  -2.67113326E-04
  -4.60000010E-03  -2.70823803E-04
  -4.55000019E-03  -2.74564081E-04
  -4.49999981E-03  -2.78329244E-04
  -4.44999989E-03  -2.82117253E-04
  -4.39999998E-03  -2.85928050E-04
  -4.35000006E-03  -2.89763528E-04
  -4.30000015E-03  -2.93627614E-04
  -4.25000023E-03  -2.97523104E-04
  -4.19999985E-03  -3.01451248E-04
  -4.14999994E-03  -3.05410998E-04
  -4.10000002E-03  -3.09398689E-04
  -4.05000011E-03  -3.13410186E-04
  -4.00000019E-03  -3.17440863E-04
  -3.94999981E-03  -3.21490050E-04
  -3.89999989E-03  -3.25562083E-04
  -3.84999998E-03  -3.29659466E-04
  -3.80000006E-03  -3.33783508E-04
  -3.74999992E-03  -3.37935198E-04
  -3.70000000E-03  -3.42113286E-04
  -3.65000009E-03  -3.46314948E-04
  -3.59999994E-03  -3.50536517E-04
  -3.55000002E-03  -3.54774937E-04
  -3.50000011E-03  -3.59028083E-04
  -3.44999996E-03  -3.63296742E-04
  -3.40000005E-03  -3.67583911E-04
  -3.34999990E-03  -3.71891976E-04
  -3.29999998E-03  -3.76223645E-04
  -3.25000007E-03  -3.80577025E-04
  -3.19999992E-03  -3.84946965E-04
  -3.15000000E-03  -3.89329885E-04
  -3.10000009E-03  -3.93722148E-04
  -3.04999994E-03  -3.98121832E-04
  -3.00000003E-03  -4.02529753E-04
  -2.95000011E-03  -4.06947802E-04
  -2.89999996E-03  -4.11378220E-04
  -2.85000005E-03  -4.15822491E-04
  -2.79999990E-03  -4.20281256E-04
  -2.74999999E-03  -4.24750731E-04
  -2.70000007E-03  -4.29224456E-04
  -2.64999992E-03  -4.33698558E-04
  -2.60000001E-03  -4.38169460E-04
  -2.55000009E-03  -4.42638848E-04
  -2.49999994E-03  -4.47111903E-04
  -2.45000003E-03  -4.51591768E-04
  -2.40000011E-03  -4.56080073E-04
  -2.34999997E-03  -4.60571144E-04
  -2.30000005E-03  -4.65058838E-04
  -2.24999990E-03  -4.69538092E-04
  -2.19999999E-03  -4.74004395E-04
  -2.15000007E-03  -4.78458300E-04
  -2.09999993E-03  -4.82900592E-04
  -2.05000001E-03  -4.87332203E-04
  -2.00000009E-03  -4.91754967E-04
  -1.94999995E-03  -4.96170891E-04
  -1.90000003E-03  -5.00577618E-04
  -1.85000000E-03  -5.04971016E-04
  -1.79999997E-03  -5.09345031E-04
  -1.75000005E-03  -5.13693958E-04
  -1.70000002E-03  -5.18015178E-04
  -1.64999999E-03  -5.22308750E-04
  -1.59999996E-03  -5.26576827E-04
  -1.55000004E-03  -5.30823017E-04
  -1.50000001E-03  -5.35046798E-04
  -1.44999998E-03  -5.39242465E-04
  -1.39999995E-03  -5.43405302E-04
  -1.35000004E-03  -5.47530071E-04
  -1.30000000E-03  -5.51613339E-04
  -1.24999997E-03  -5.55655919E-04
  -1.20000006E-03  -5.59658569E-04
  -1.15000003E-03  -5.63620182E-04
  -1.09999999E-03  -5.67539537E-04
  -1.04999996E-03  -5.71415992E-04
  -1.00000005E-03  -5.75246580E-04
  -9.50000016E-04  -5.79025247E-04
  -8.99999985E-04  -5.82746638E-04
  -8.50000011E-04  -5.86406735E-04
  -7.99999980E-04  -5.90006879E-04
  -7.50000007E-04  -5.93546778E-04
  -6.99999975E-04  -5.97024919E-04
  -6.50000002E-04  -6.00442290E-04
  -6.00000028E-04  -6.03795866E-04
  -5.49999997E-04  -6.07080408E-04
  -5.00000024E-04  -6.10289630E-04
  -4.49999992E-04  -6.13418641E-04
  -3.99999990E-04  -6.16462436E-04
  -3.49999988E-04  -6.19418803E-04
  -3.00000014E-04  -6.22290187E-04
  -2.50000012E-04  -6.25079439E-04
  -1.99999995E-04  -6.27787551E-04
  -1.50000007E-04  -6.30411028E-04
  -9.99999975E-05  -6.32944750E-04
  -4.99999987E-05  -6.35381322E-04
   0.00000000      -6.37710618E-04
   4.99999987E-05  -6.39927515E-04
   9.99999975E-05  -6.42030500E-04
   1.50000007E-04  -6.44020794E-04
   1.99999995E-04  -6.45900436E-04
   2.50000012E-04  -6.47670066E-04
   3.00000014E-04  -6.49328867E-04
   3.49999988E-04  -6.50872302E-04
   3.99999990E-04  -6.52290590E-04
   4.49999992E-04  -6.53575175E-04
   5.00000024E-04  -6.54721924E-04
   5.49999997E-04  -6.55726588E-04
   6.00000028E-04  -6.56590622E-04
   6.50000002E-04  -6.57317927E-04
   6.99999975E-04  -6.57906814E-04
   7.50000007E-04  -6.58351870E-04
   7.99999980E-04  -6.58646051E-04
   8.50000011E-04  -6.58783829E-04
   8.99999985E-04  -6.58759673E-04
   9.50000016E-04  -6.58570090E-04
   1.00000005E-03  -6.58213277E-04
   1.04999996E-03  -6.57685276E-04
   1.09999999E-03  -6.56983641E-04
   1.15000003E-03  -6.56107324E-04
   1.20000006E-03  -6.55061216E-04
   1.24999997E-03  -6.53837458E-04
   1.30000000E-03  -6.52427261E-04
   1.35000004E-03  -6.50826842E-04
   1.39999995E-03  -6.49031892E-04
   1.44999998E-03  -6.47039560E-04
   1.50000001E-03  -6.44844200E-04
   1.55000004E-03  -6.42440107E-04
   1.59999996E-03  -6.39822916E-04
   1.64999999E-03  -6.36994839E-04
   1.70000002E-03  -6.33952091E-04
   1.75000005E-03  -6.30696712E-04
   1.79999997E-03  -6.27226720E-04
   1.85000000E-03  -6.23531057E-04
   1.90000003E-03  -6.19602040E-04
   1.94999995E-03  -6.15428784E-04
   2.00000009E-03  -6.11003779E-04
   2.05000001E-03  -6.06331218E-04
   2.09999993E-03  -6.01414009E-04
   2.15000007E-03  -5.96254016E-04
   2.19999999E-03  -5.90856827E-04
   2.24999990E-03  -5.85217203E-04
   2.30000005E-03  -5.79321233E-04
   2.34999997E-03  -5.73156402E-04
   2.40000011E-03  -5.66714793E-04
   2.45000003E-03  -5.59987850E-04
   2.49999994E-03  -5.52974758E-04
   2.55000009E-03  -5.45683841E-04
   2.60000001E-03  -5.38118416E-04
   2.64999992E-03  -5.30272839E-04
   2.70000007E-03  -5.22150018E-04
   2.74999999E-03  -5.13748149E-04
   2.79999990E-03  -5.05049771E-04