  -3.99999991E-02   0.00000000    
  -3.99499983E-02   0.00000000    
  -3.99000011E-02   0.00000000    
  -3.98500003E-02   0.00000000    
  -3.97999994E-02   1.31965245E-20
  -3.97499986E-02   2.45255077E-20
  -3.97000015E-02  -1.74758254E-19
  -3.96500006E-02  -1.15194392E-18
  -3.95999998E-02  -3.78373423E-18
  -3.95499989E-02  -9.08552520E-18
  -3.95000018E-02  -1.83188064E-17
  -3.94500010E-02  -3.33881859E-17
  -3.94000001E-02  -5.66966202E-17
  -3.93499993E-02  -8.96683305E-17
  -3.92999984E-02  -1.30724606E-16
  -3.92500013E-02  -1.75028890E-16
  -3.92000005E-02  -2.17411308E-16
  -3.91499996E-02  -2.56653921E-16
  -3.90999988E-02  -2.97194480E-16
  -3.90500017E-02  -3.46265031E-16
  -3.90000008E-02  -4.08887685E-16
  -3.89500000E-02  -4.84970249E-16
  -3.88999991E-02  -5.69705308E-16
  -3.88499983E-02  -6.54468265E-16
  -3.88000011E-02  -7.25959064E-16
  -3.87500003E-02  -7.66012658E-16
  -3.86999995E-02  -7.56478508E-16
  -3.86499986E-02  -6.88236928E-16
  -3.86000015E-02  -5.65882489E-16
  -3.85500006E-02  -4.00005195E-16
  -3.84999998E-02  -1.89785461E-16
  -3.84499989E-02   9.06359863E-17
  -3.84000018E-02   4.90350073E-16
  -3.83500010E-02   1.06645694E-15
  -3.83000001E-02   1.86853584E-15
  -3.82499993E-02   2.93254453E-15
  -3.81999984E-02   4.28138139E-15
  -3.81500013E-02   5.92398580E-15
  -3.81000005E-02   7.85320329E-15
  -3.80499996E-02   1.00523693E-14
  -3.79999988E-02   1.25156462E-14
  -3.79500017E-02   1.52699424E-14
  -3.79000008E-02   1.83774843E-14
  -3.78500000E-02   2.19123934E-14
  -3.77999991E-02   2.59296860E-14
  -3.77499983E-02   3.04533078E-14
  -3.77000012E-02   3.54902807E-14
  -3.76500003E-02   4.10515636E-14
  -3.75999995E-02   4.71563266E-14
  -3.75499986E-02   5.38188133E-14
  -3.75000015E-02   6.10378244E-14
  -3.74500006E-02   6.88029210E-14
  -3.73999998E-02   7.71068525E-14
  -3.73499990E-02   8.59424023E-14
  -3.73000018E-02   9.52798360E-14
  -3.72500010E-02   1.05046722E-13
  -3.72000001E-02   1.15131212E-13
  -3.71499993E-02   1.25401168E-13
  -3.70999984E-02   1.35710331E-13
  -3.70500013E-02   1.45879253E-13
  -3.70000005E-02   1.55677527E-13
  -3.69499996E-02   1.64848238E-13
  -3.68999988E-02   1.73180697E-13
  -3.68500017E-02   1.80584958E-13
  -3.68000008E-02   1.87107383E-13
  -3.67500000E-02   1.92866529E-13
  -3.66999991E-02   1.97945271E-13
  -3.66499983E-02   2.02293653E-13
  -3.66000012E-02   2.05674643E-13
  -3.65500003E-02   2.07657120E-13
  -3.64999995E-02   2.07661172E-13
  -3.64499986E-02   2.05065606E-13
  -3.64000015E-02   1.99362933E-13
  -3.63500006E-02   1.90291034E-13
  -3.62999998E-02   1.77844461E-13
  -3.62499990E-02   1.62124112E-13
  -3.62000018E-02   1.43097855E-13
  -3.61500010E-02   1.20425520E-13
  -3.61000001E-02   9.34758117E-14
  -3.60499993E-02   6.15457257E-14
  -3.59999985E-02   2.41761821E-14
  -3.59500013E-02  -1.85878822E-14
  -3.59000005E-02  -6.61150889E-14
  -3.58499996E-02  -1.17342483E-13
  -3.57999988E-02  -1.71155408E-13
  -3.57500017E-02  -2.26888102E-13
  -3.57000008E-02  -2.84739382E-13
  -3.56500000E-02  -3.45856725E-13
  -3.55999991E-02  -4.11944323E-13
  -3.55499983E-02  -4.84491841E-13
  -3.55000012E-02  -5.63964077E-13
  -3.54500003E-02  -6.49370206E-13
  -3.53999995E-02  -7.38466959E-13
  -3.53499986E-02  -8.28542150E-13
  -3.53000015E-02  -9.17443313E-13
  -3.52500007E-02  -1.00439904E-12
  -3.51999998E-02  -1.09024920E-12
  -3.51499990E-02  -1.17691653E-12
  -3.51000018E-02  -1.26625457E-12
  -3.50500010E-02  -1.35871306E-12
  -3.50000001E-02  -1.45244710E-12
  -3.49499993E-02  -1.54340278E-12
  -3.48999985E-02  -1.62650297E-12
  -3.48500013E-02  -1.69747918E-12
  -3.48000005E-02  -1.75450030E-12
  -3.47499996E-02  -1.79875212E-12
  -3.46999988E-02  -1.83360185E-12
  -3.46500017E-02  -1.86265456E-12
  -3.46000008E-02  -1.88754047E-12
  -3.45500000E-02  -1.90645026E-12
  -3.44999991E-02  -1.91416306E-12
  -3.44499983E-02  -1.90371243E-12
  -3.44000012E-02  -1.86910014E-12
  -3.43500003E-02  -1.80788685E-12
  -3.42999995E-02  -1.72235837E-12
  -3.42499986E-02  -1.61849288E-12
  -3.42000015E-02  -1.50296290E-12
  -3.41500007E-02  -1.37946078E-12
  -3.40999998E-02  -1.24612484E-12
  -3.40499990E-02  -1.09545858E-12
  -3.40000018E-02  -9.17016463E-13
  -3.39500010E-02  -7.01818649E-13
  -3.39000002E-02  -4.46575692E-13
  -3.38499993E-02  -1.55759899E-13
  -3.37999985E-02   1.59623427E-13
  -3.37500013E-02   4.86314927E-13
  -3.37000005E-02   8.14446329E-13
  -3.36499996E-02   1.14202658E-12
  -3.35999988E-02   1.47600107E-12
  -3.35500017E-02   1.82902673E-12
  -3.35000008E-02   2.21313007E-12
  -3.34500000E-02   2.63306477E-12
  -3.33999991E-02   3.08256372E-12
  -3.33499983E-02   3.54549896E-12
  -3.33000012E-02   4.00172864E-12
  -3.32500003E-02   4.43520090E-12
  -3.31999995E-02   4.84067951E-12
  -3.31499986E-02   5.22587138E-12
  -3.31000015E-02   5.60761160E-12
  -3.30500007E-02   6.00338225E-12
  -3.29999998E-02   6.42172990E-12
  -3.29499990E-02   6.85600621E-12
  -3.29000019E-02   7.28468674E-12
  -3.28500010E-02   7.67864418E-12
  -3.28000002E-02   8.01241105E-12
  -3.27499993E-02   8.27430052E-12
  -3.26999985E-02   8.47052723E-12
  -3.26500013E-02   8.62103965E-12
  -3.26000005E-02   8.74862422E-12
  -3.25499997E-02   8.86606066E-12
  -3.24999988E-02   8.96727310E-12
  -3.24500017E-02   9.02690943E-12
  -3.24000008E-02   9.00919790E-12
  -3.23500000E-02   8.88263681E-12
  -3.22999991E-02   8.63407349E-12
  -3.22499983E-02   8.27542375E-12
  -3.22000012E-02   7.83924575E-12
  -3.21500003E-02   7.36441377E-12
  -3.20999995E-02   6.87798863E-12
  -3.20499986E-02   6.38159794E-12
  -3.20000015E-02   5.84897668E-12
  -3.19500007E-02   5.23638728E-12
  -3.18999998E-02   4.50178653E-12
  -3.18499990E-02   3.62436426E-12
  -3.18000019E-02   2.61554146E-12
  -3.17500010E-02   1.51591565E-12
  -3.17000002E-02   3.78775516E-13
  -3.16499993E-02  -7.52965182E-13
  -3.15999985E-02  -1.86604725E-12
  -3.15500014E-02  -2.98308253E-12
  -3.15000005E-02  -4.15202595E-12
  -3.14499997E-02  -5.42294898E-12
  -3.13999988E-02  -6.82238727E-12
  -3.13500017E-02  -8.33717644E-12
  -3.13000008E-02  -9.91572276E-12
  -3.12500000E-02  -1.14868809E-11
  -3.11999992E-02  -1.29885174E-11
  -3.11500002E-02  -1.43930631E-11
  -3.10999993E-02  -1.57182253E-11
  -3.10500003E-02  -1.70172435E-11
  -3.09999995E-02  -1.83521566E-11
  -3.09500005E-02  -1.97616229E-11
  -3.08999997E-02  -2.12379680E-11
  -3.08500007E-02  -2.27247058E-11
  -3.07999998E-02  -2.41365834E-11
  -3.07500008E-02  -2.53938502E-11
  -3.07000000E-02  -2.64552581E-11
  -3.06499992E-02  -2.73344038E-11
  -3.06000002E-02  -2.80912446E-11
  -3.05499993E-02  -2.88017683E-11
  -3.05000003E-02  -2.95189220E-11
  -3.04499995E-02  -3.02423295E-11
  -3.04000005E-02  -3.09111660E-11
  -3.03499997E-02  -3.14245782E-11
  -3.03000007E-02  -3.16816746E-11
  -3.02499998E-02  -3.16236343E-11
  -3.02000009E-02  -3.12586068E-11
  -3.01500000E-02  -3.06573100E-11
  -3.00999992E-02  -2.99201774E-11
  -3.00500002E-02  -2.91301948E-11
  -2.99999993E-02  -2.83126508E-11
  -2.99500003E-02  -2.74203282E-11
  -2.98999995E-02  -2.63516708E-11
  -2.98500005E-02  -2.49945654E-11
  -2.97999997E-02  -2.32767364E-11
  -2.97500007E-02  -2.12000643E-11
  -2.96999998E-02  -1.88426549E-11
  -2.96500009E-02  -1.63265547E-11
  -2.96000000E-02  -1.37645815E-11
  -2.95499992E-02  -1.12098091E-11
  -2.95000002E-02  -8.63098135E-12
  -2.94499993E-02  -5.92590777E-12
  -2.94000003E-02  -2.96785404E-12
  -2.93499995E-02   3.35335465E-13
  -2.93000005E-02   3.99588175E-12
  -2.92499997E-02   7.93522973E-12
  -2.92000007E-02   1.20132940E-11
  -2.91499998E-02   1.60854403E-11
  -2.91000009E-02   2.00621082E-11
  -2.90500000E-02   2.39441817E-11
  -2.89999992E-02   2.78173873E-11
  -2.89500002E-02   3.18070952E-11
  -2.88999993E-02   3.60130328E-11
  -2.88500004E-02   4.04531755E-11
  -2.87999995E-02   4.50428896E-11
  -2.87500005E-02   4.96199193E-11
  -2.86999997E-02   5.40051649E-11
  -2.86500007E-02   5.80725121E-11
  -2.85999998E-02   6.17964915E-11
  -2.85500009E-02   6.52558771E-11
  -2.85000000E-02   6.85905430E-11
  -2.84499992E-02   7.19297399E-11
  -2.84000002E-02   7.53230256E-11
  -2.83499993E-02   7.87046678E-11
  -2.83000004E-02   8.19084522E-11
  -2.82499995E-02   8.47274403E-11
  -2.82000005E-02   8.69932459E-11
  -2.81499997E-02   8.86395402E-11
  -2.81000007E-02   8.97211472E-11
  -2.80499998E-02   9.03794262E-11
  -2.80000009E-02   9.07686079E-11
  -2.79500000E-02   9.09757131E-11
  -2.78999992E-02   9.09694889E-11
  -2.78500002E-02   9.06018455E-11
  -2.77999993E-02   8.96619584E-11
  -2.77500004E-02   8.79603890E-11
  -2.76999995E-02   8.54065707E-11
  -2.76500005E-02   8.20454191E-11
  -2.75999997E-02   7.80356127E-11
  -2.75500007E-02   7.35782615E-11
  -2.74999999E-02   6.88264723E-11
  -2.74500009E-02   6.38161815E-11
  -2.74000000E-02   5.84490165E-11
  -2.73499992E-02   5.25357605E-11
  -2.73000002E-02   4.58817359E-11
  -2.72499993E-02   3.83769128E-11
  -2.72000004E-02   3.00510415E-11
  -2.71499995E-02   2.10689660E-11
  -2.71000005E-02   1.16672054E-11
  -2.70499997E-02   2.05871800E-12
  -2.70000007E-02  -7.65259731E-12
  -2.69499999E-02  -1.75093880E-11
  -2.69000009E-02  -2.76723540E-11
  -2.68500000E-02  -3.83368962E-11
  -2.67999992E-02  -4.96307474E-11
  -2.67500002E-02  -6.15377471E-11
  -2.66999993E-02  -7.38822961E-11
  -2.66500004E-02  -8.63824151E-11
  -2.65999995E-02  -9.87495849E-11
  -2.65500005E-02  -1.10792327E-10
  -2.64999997E-02  -1.22478555E-10
  -2.64500007E-02  -1.33928188E-10
  -2.63999999E-02  -1.45338200E-10
  -2.63500009E-02  -1.56870752E-10
  -2.63000000E-02  -1.68553338E-10
  -2.62499992E-02  -1.80235230E-10
  -2.62000002E-02  -1.91620830E-10
  -2.61499994E-02  -2.02367498E-10
  -2.61000004E-02  -2.12206447E-10
  -2.60499995E-02  -2.21033220E-10
  -2.60000005E-02  -2.28928182E-10
  -2.59499997E-02  -2.36096392E-10
  -2.59000007E-02  -2.42751846E-10
  -2.58499999E-02  -2.48994991E-10
  -2.58000009E-02  -2.54737953E-10
  -2.57500000E-02  -2.59710808E-10
  -2.56999992E-02  -2.63548378E-10
  -2.56500002E-02  -2.65921757E-10
  -2.55999994E-02  -2.66657529E-10
  -2.55500004E-02  -2.65792638E-10
  -2.54999995E-02  -2.63538275E-10
  -2.54500005E-02  -2.60167526E-10
  -2.53999997E-02  -2.55875016E-10
  -2.53500007E-02  -2.50670679E-10
  -2.52999999E-02  -2.44355619E-10
  -2.52500009E-02  -2.36592607E-10
  -2.52000000E-02  -2.27042329E-10
  -2.51499992E-02  -2.15506876E-10
  -2.51000002E-02  -2.02016501E-10
  -2.50499994E-02  -1.86820226E-10
  -2.50000004E-02  -1.70280276E-10
  -2.49499995E-02  -1.52714771E-10
  -2.49000005E-02  -1.34257092E-10
  -2.48499997E-02  -1.14795853E-10
  -2.48000007E-02  -9.40244896E-11
  -2.47499999E-02  -7.15817960E-11
  -2.47000009E-02  -4.72232947E-11
  -2.46500000E-02  -2.09480003E-11
  -2.45999992E-02   6.97646281E-12
  -2.45500002E-02   3.61041440E-11
  -2.44999994E-02   6.59794858E-11
  -2.44500004E-02   9.63116115E-11
  -2.43999995E-02   1.27076530E-10
  -2.43500005E-02   1.58499422E-10
  -2.42999997E-02   1.90920779E-10
  -2.42500007E-02   2.24603239E-10
  -2.41999999E-02   2.59564037E-10
  -2.41500009E-02   2.95509367E-10
  -2.41000000E-02   3.31903172E-10
  -2.40499992E-02   3.68142794E-10
  -2.40000002E-02   4.03766853E-10
  -2.39499994E-02   4.38602293E-10
  -2.39000004E-02   4.72784978E-10
  -2.38499995E-02   5.06641451E-10
  -2.38000005E-02   5.40480494E-10
  -2.37499997E-02   5.74386372E-10
  -2.37000007E-02   6.08105455E-10
  -2.36499999E-02   6.41079523E-10
  -2.36000009E-02   6.72615741E-10
  -2.35500000E-02   7.02118474E-10
  -2.34999992E-02   7.29280636E-10
  -2.34500002E-02   7.54146023E-10
  -2.33999994E-02   7.77014231E-10
  -2.33500004E-02   7.98226152E-10
  -2.32999995E-02   8.17925783E-10
  -2.32500006E-02   8.35906677E-10
  -2.31999997E-02   8.51611226E-10
  -2.31500007E-02   8.64290695E-10
  -2.30999999E-02   8.73255246E-10
  -2.30500009E-02   8.78105977E-10
  -2.30000000E-02   8.78842388E-10
  -2.29499992E-02   8.75793160E-10
  -2.29000002E-02   8.69398054E-10
  -2.28499994E-02   8.59937510E-10
  -2.28000004E-02   8.47330428E-10
  -2.27499995E-02   8.31094860E-10
  -2.27000006E-02   8.10491729E-10
  -2.26499997E-02   7.84790899E-10
  -2.26000007E-02   7.53540563E-10
  -2.25499999E-02   7.16721349E-10
  -2.25000009E-02   6.74710565E-10
  -2.24500000E-02   6.28069985E-10
  -2.23999992E-02   5.77249137E-10
  -2.23500002E-02   5.22335453E-10
  -2.22999994E-02   4.62965138E-10
  -2.22500004E-02   3.98440225E-10
  -2.21999995E-02   3.28000266E-10
  -2.21500006E-02   2.51130616E-10
  -2.20999997E-02   1.67766578E-10
  -2.20500007E-02   7.83018650E-11
  -2.19999999E-02  -1.66050940E-11
  -2.19500009E-02  -1.16340840E-10
  -2.19000001E-02  -2.20625018E-10
  -2.18499992E-02  -3.29646810E-10
  -2.18000002E-02  -4.43986126E-10
  -2.17499994E-02  -5.64352787E-10
  -2.17000004E-02  -6.91259161E-10
  -2.16499995E-02  -8.24774471E-10
  -2.16000006E-02  -9.64475055E-10
  -2.15499997E-02  -1.10961518E-09
  -2.15000007E-02  -1.25944288E-09
  -2.14499999E-02  -1.41351986E-09
  -2.14000009E-02  -1.57189928E-09
  -2.13500001E-02  -1.73508163E-09
  -2.12999992E-02  -1.90376404E-09
  -2.12500002E-02  -2.07849693E-09
  -2.11999994E-02  -2.25940333E-09
  -2.11500004E-02  -2.44608667E-09
  -2.10999995E-02  -2.63777045E-09
  -2.10500006E-02  -2.83361068E-09
  -2.09999997E-02  -3.03304093E-09
  -2.09500007E-02  -3.23599236E-09
  -2.08999999E-02  -3.44288753E-09
  -2.08500009E-02  -3.65441011E-09
  -2.08000001E-02  -3.87114962E-09
  -2.07499992E-02  -4.09329326E-09
  -2.07000002E-02  -4.32049241E-09
  -2.06499994E-02  -4.55197879E-09
  -2.06000004E-02  -4.78686513E-09
  -2.05499995E-02  -5.02450925E-09
  -2.05000006E-02  -5.26477395E-09
  -2.04499997E-02  -5.50806156E-09
  -2.04000007E-02  -5.75511017E-09
  -2.03499999E-02  -6.00663563E-09
  -2.03000009E-02  -6.26299146E-09
  -2.02500001E-02  -6.52399068E-09
  -2.01999992E-02  -6.78897427E-09
  -2.01500002E-02  -7.05709491E-09
  -2.00999994E-02  -7.32768957E-09
  -2.00500004E-02  -7.60056551E-09
  -1.99999996E-02  -7.87608112E-09
  -1.99500006E-02  -8.15497980E-09
  -1.98999997E-02  -8.43805559E-09
  -1.98500007E-02  -8.72580852E-09
  -1.97999999E-02  -9.01823327E-09
  -1.97500009E-02  -9.31485111E-09
  -1.97000001E-02  -9.61496127E-09
  -1.96499992E-02  -9.91800242E-09
  -1.96000002E-02  -1.02238689E-08
  -1.95499994E-02  -1.05330082E-08
  -1.95000004E-02  -1.08462856E-08
  -1.94499996E-02  -1.11646639E-08
  -1.94000006E-02  -1.14888525E-08
  -1.93499997E-02  -1.18190853E-08
  -1.93000007E-02  -1.21551169E-08
  -1.92499999E-02  -1.24964448E-08
  -1.92000009E-02  -1.28426656E-08
  -1.91500001E-02  -1.31937865E-08
  -1.90999992E-02  -1.35503697E-08
  -1.90500002E-02  -1.39134171E-08
  -1.89999994E-02  -1.42840832E-08
  -1.89500004E-02  -1.46633070E-08
  -1.88999996E-02  -1.50515671E-08
  -1.88500006E-02  -1.54488564E-08
  -1.87999997E-02  -1.58548943E-08
  -1.87500007E-02  -1.62694551E-08
  -1.86999999E-02  -1.66926917E-08
  -1.86500009E-02  -1.71252914E-08
  -1.86000001E-02  -1.75684089E-08
  -1.85499992E-02  -1.80233997E-08
  -1.85000002E-02  -1.84914803E-08
  -1.84499994E-02  -1.89734486E-08
  -1.84000004E-02  -1.94696224E-08
  -1.83499996E-02  -1.99800017E-08
  -1.83000006E-02  -2.05045900E-08
  -1.82499997E-02  -2.10437179E-08
  -1.82000007E-02  -2.15982112E-08
  -1.81499999E-02  -2.21693455E-08
  -1.81000009E-02  -2.27585950E-08
  -1.80500001E-02  -2.33673294E-08
  -1.79999992E-02  -2.39965630E-08
  -1.79500002E-02  -2.46468570E-08
  -1.78999994E-02  -2.53184531E-08
  -1.78500004E-02  -2.60115502E-08
  -1.77999996E-02  -2.67266316E-08
  -1.77500006E-02  -2.74646581E-08
  -1.76999997E-02  -2.82270332E-08
  -1.76500008E-02  -2.90153785E-08
  -1.75999999E-02  -2.98312344E-08
  -1.75500009E-02  -3.06758139E-08
  -1.75000001E-02  -3.15499449E-08
  -1.74499992E-02  -3.24541496E-08
  -1.74000002E-02  -3.33889005E-08
  -1.73499994E-02  -3.43549118E-08
  -1.73000004E-02  -3.53533345E-08
  -1.72499996E-02  -3.63857069E-08
  -1.72000006E-02  -3.74538018E-08
  -1.71499997E-02  -3.85592962E-08
  -1.71000008E-02  -3.97035294E-08
  -1.70499999E-02  -4.08874214E-08
  -1.70000009E-02  -4.21115836E-08
  -1.69500001E-02  -4.33765663E-08
  -1.68999992E-02  -4.46831621E-08
  -1.68500002E-02  -4.60325644E-08
  -1.67999994E-02  -4.74263828E-08
  -1.67500004E-02  -4.88664504E-08
  -1.66999996E-02  -5.03545721E-08
  -1.66500006E-02  -5.18922860E-08
  -1.65999997E-02  -5.34807398E-08
  -1.65500008E-02  -5.51207542E-08
  -1.64999999E-02  -5.68130751E-08
  -1.64500009E-02  -5.85586477E-08
  -1.64000001E-02  -6.03587580E-08
  -1.63499992E-02  -6.22150651E-08
  -1.63000003E-02  -6.41294378E-08
  -1.62499994E-02  -6.61037021E-08
  -1.62000004E-02  -6.81393786E-08
  -1.61499996E-02  -7.02376752E-08
  -1.61000006E-02  -7.23994873E-08
  -1.60499997E-02  -7.46256674E-08
  -1.60000008E-02  -7.69172104E-08
  -1.59499999E-02  -7.92754733E-08
  -1.59000009E-02  -8.17021828E-08
  -1.58500001E-02  -8.41992858E-08
  -1.57999992E-02  -8.67686367E-08
  -1.57500003E-02  -8.94118557E-08
  -1.56999994E-02  -9.21301577E-08
  -1.56500004E-02  -9.49245376E-08
  -1.55999996E-02  -9.77959473E-08
  -1.55499997E-02  -1.00745517E-07
  -1.54999997E-02  -1.03774745E-07
  -1.54499998E-02  -1.06885466E-07
  -1.53999999E-02  -1.10079746E-07
  -1.53500000E-02  -1.13359519E-07
  -1.53000001E-02  -1.16726483E-07
  -1.52500002E-02  -1.20181937E-07
  -1.52000003E-02  -1.23726934E-07
  -1.51500003E-02  -1.27362526E-07
  -1.51000004E-02  -1.31089905E-07
  -1.50499996E-02  -1.34910678E-07
  -1.49999997E-02  -1.38826863E-07
  -1.49499997E-02  -1.42840719E-07
  -1.48999998E-02  -1.46954449E-07
  -1.48499999E-02  -1.51169985E-07
  -1.48000000E-02  -1.55488934E-07
  -1.47500001E-02  -1.59912531E-07
  -1.47000002E-02  -1.64442127E-07
  -1.46500003E-02  -1.69079243E-07
  -1.46000003E-02  -1.73825811E-07
  -1.45500004E-02  -1.78684175E-07
  -1.44999996E-02  -1.83656880E-07
  -1.44499997E-02  -1.88746498E-07
  -1.43999998E-02  -1.93955429E-07
  -1.43499998E-02  -1.99285651E-07
  -1.42999999E-02  -2.04738868E-07
  -1.42500000E-02  -2.10316770E-07
  -1.42000001E-02  -2.16021292E-07
  -1.41500002E-02  -2.21855018E-07
  -1.41000003E-02  -2.27820834E-07
  -1.40500003E-02  -2.33921867E-07
  -1.40000004E-02  -2.40161199E-07
  -1.39499996E-02  -2.46541617E-07
  -1.38999997E-02  -2.53065792E-07
  -1.38499998E-02  -2.59736112E-07
  -1.37999998E-02  -2.66554821E-07
  -1.37499999E-02  -2.73524506E-07
  -1.37000000E-02  -2.80648351E-07
  -1.36500001E-02  -2.87930163E-07
  -1.36000002E-02  -2.95374036E-07
  -1.35500003E-02  -3.02984063E-07
  -1.35000004E-02  -3.10763994E-07
  -1.34500004E-02  -3.18717014E-07
  -1.33999996E-02  -3.26846333E-07
  -1.33499997E-02  -3.35155192E-07
  -1.32999998E-02  -3.43646889E-07
  -1.32499998E-02  -3.52325287E-07
  -1.31999999E-02  -3.61194992E-07
  -1.31500000E-02  -3.70261091E-07
  -1.31000001E-02  -3.79528871E-07
  -1.30500002E-02  -3.89003333E-07
  -1.30000003E-02  -3.98688769E-07
  -1.29500004E-02  -4.08589301E-07
  -1.29000004E-02  -4.18709249E-07
  -1.28499996E-02  -4.29053273E-07
  -1.27999997E-02  -4.39626518E-07
  -1.27499998E-02  -4.50434584E-07
  -1.26999998E-02  -4.61483523E-07
  -1.26499999E-02  -4.72779845E-07
  -1.26000000E-02  -4.84330087E-07
  -1.25500001E-02  -4.96140444E-07
  -1.25000002E-02  -5.08216090E-07
  -1.24500003E-02  -5.20562594E-07
  -1.24000004E-02  -5.33185869E-07
  -1.23500004E-02  -5.46092792E-07
  -1.22999996E-02  -5.59290811E-07
  -1.22499997E-02  -5.72787542E-07
  -1.21999998E-02  -5.86590374E-07
  -1.21499998E-02  -6.00706642E-07
  -1.20999999E-02  -6.15143279E-07
  -1.20500000E-02  -6.29906992E-07
  -1.20000001E-02  -6.45004150E-07
  -1.19500002E-02  -6.60441287E-07
  -1.19000003E-02  -6.76225966E-07
  -1.18500004E-02  -6.92367166E-07
  -1.18000004E-02  -7.08875064E-07
  -1.17499996E-02  -7.25759776E-07
  -1.16999997E-02  -7.43031251E-07
  -1.16499998E-02  -7.60699265E-07
  -1.15999999E-02  -7.78772971E-07
  -1.15499999E-02  -7.97261350E-07
  -1.15000000E-02  -8.16173099E-07
  -1.14500001E-02  -8.35517028E-07
  -1.14000002E-02  -8.55302005E-07
  -1.13500003E-02  -8.75537580E-07
  -1.13000004E-02  -8.96234042E-07
  -1.12500004E-02  -9.17400655E-07
  -1.11999996E-02  -9.39046515E-07
  -1.11499997E-02  -9.61180717E-07
  -1.10999998E-02  -9.83812356E-07
  -1.10499999E-02  -1.00695229E-06
  -1.09999999E-02  -1.03061245E-06
  -1.09500000E-02  -1.05480569E-06
  -1.09000001E-02  -1.07954622E-06
  -1.08500002E-02  -1.10484905E-06
  -1.08000003E-02  -1.13072883E-06
  -1.07500004E-02  -1.15719934E-06
  -1.07000005E-02  -1.18427226E-06
  -1.06499996E-02  -1.21195876E-06
  -1.05999997E-02  -1.24026963E-06
  -1.05499998E-02  -1.26921520E-06
  -1.04999999E-02  -1.29880618E-06
  -1.04499999E-02  -1.32905393E-06
  -1.04000000E-02  -1.35997027E-06
  -1.03500001E-02  -1.39156782E-06
  -1.03000002E-02  -1.42385932E-06
  -1.02500003E-02  -1.45685738E-06
  -1.02000004E-02  -1.49057450E-06
  -1.01500005E-02  -1.52502469E-06
  -1.00999996E-02  -1.56022270E-06
  -1.00499997E-02  -1.59618503E-06
  -9.99999978E-03  -1.63292896E-06
  -9.94999986E-03  -1.67047187E-06
  -9.89999995E-03  -1.70883106E-06
  -9.85000003E-03  -1.74802233E-06
  -9.80000012E-03  -1.78806181E-06
  -9.75000020E-03  -1.82896406E-06
  -9.70000029E-03  -1.87074272E-06
  -9.65000037E-03  -1.91341223E-06
  -9.60000046E-03  -1.95698794E-06
  -9.54999961E-03  -2.00148588E-06
  -9.49999969E-03  -2.04692265E-06
  -9.44999978E-03  -2.09331461E-06
  -9.39999986E-03  -2.14067745E-06
  -9.34999995E-03  -2.18902642E-06
  -9.30000003E-03  -2.23837560E-06
  -9.25000012E-03  -2.28873932E-06
  -9.20000020E-03  -2.34013260E-06
  -9.15000029E-03  -2.39257133E-06
  -9.10000037E-03  -2.44607327E-06
  -9.05000046E-03  -2.50065705E-06
  -8.99999961E-03  -2.55634268E-06
  -8.94999970E-03  -2.61315017E-06
  -8.89999978E-03  -2.67109795E-06
  -8.84999987E-03  -2.73020373E-06
  -8.79999995E-03  -2.79048641E-06
  -8.75000004E-03  -2.85196620E-06
  -8.70000012E-03  -2.91466381E-06
  -8.65000021E-03  -2.97859856E-06
  -8.60000029E-03  -3.04379068E-06
  -8.55000038E-03  -3.11025929E-06
  -8.50000046E-03  -3.17802483E-06
  -8.44999962E-03  -3.24710618E-06
  -8.39999970E-03  -3.31752062E-06
  -8.34999979E-03  -3.38928385E-06
  -8.29999987E-03  -3.46241245E-06
  -8.24999996E-03  -3.53692508E-06
  -8.20000004E-03  -3.61284219E-06
  -8.15000013E-03  -3.69018585E-06
  -8.10000021E-03  -3.76897651E-06
  -8.05000030E-03  -3.84923351E-06
  -8.00000038E-03  -3.93097525E-06
  -7.95000046E-03  -4.01422358E-06
  -7.89999962E-03  -4.09899758E-06
  -7.84999970E-03  -4.18531818E-06
  -7.79999979E-03  -4.27320674E-06
  -7.74999987E-03  -4.36268465E-06
  -7.69999996E-03  -4.45377555E-06
  -7.65000004E-03  -4.54650626E-06
  -7.60000013E-03  -4.64090181E-06
  -7.55000021E-03  -4.73698401E-06
  -7.49999983E-03  -4.83477379E-06
  -7.44999992E-03  -4.93429297E-06
  -7.40000000E-03  -5.03556475E-06
  -7.35000009E-03  -5.13861278E-06
  -7.30000017E-03  -5.24346115E-06
  -7.24999979E-03  -5.35013123E-06
  -7.19999988E-03  -5.45864577E-06
  -7.14999996E-03  -5.56902978E-06
  -7.10000005E-03  -5.68130963E-06
  -7.05000013E-03  -5.79550715E-06
  -7.00000022E-03  -5.91164007E-06
  -6.94999984E-03  -6.02972887E-06
  -6.89999992E-03  -6.14979808E-06
  -6.85000001E-03  -6.27187592E-06
  -6.80000009E-03  -6.39598920E-06
  -6.75000018E-03  -6.52216477E-06
  -6.69999979E-03  -6.65042307E-06
  -6.64999988E-03  -6.78078959E-06
  -6.59999996E-03  -6.91329387E-06
  -6.55000005E-03  -7.04796685E-06
  -6.50000013E-03  -7.18483307E-06
  -6.45000022E-03  -7.32391345E-06
  -6.39999984E-03  -7.46523574E-06
  -6.34999992E-03  -7.60883586E-06
  -6.30000001E-03  -7.75474655E-06
  -6.25000009E-03  -7.90299782E-06
  -6.20000018E-03  -8.05361742E-06
  -6.14999980E-03  -8.20662717E-06
  -6.09999988E-03  -8.36205618E-06
  -6.04999997E-03  -8.51993718E-06
  -6.00000005E-03  -8.68029656E-06
  -5.95000014E-03  -8.84316069E-06
  -5.90000022E-03  -9.00855775E-06
  -5.84999984E-03  -9.17652051E-06
  -5.79999993E-03  -9.34708441E-06
  -5.75000001E-03  -9.52027949E-06
  -5.70000010E-03  -9.69613211E-06
  -5.65000018E-03  -9.87467047E-06
  -5.59999980E-03  -1.00559200E-05
  -5.54999989E-03  -1.02399172E-05
  -5.49999997E-03  -1.04267001E-05
  -5.45000006E-03  -1.06163052E-05
  -5.40000014E-03  -1.08087634E-05
  -5.35000023E-03  -1.10041074E-05
  -5.29999984E-03  -1.12023763E-05
  -5.24999993E-03  -1.14036111E-05
  -5.20000001E-03  -1.16078472E-05
  -5.15000010E-03  -1.18151174E-05
  -5.10000018E-03  -1.20254535E-05
  -5.04999980E-03  -1.22388938E-05
  -4.99999989E-03  -1.24554845E-05
  -4.94999997E-03  -1.26752684E-05
  -4.90000006E-03  -1.28982820E-05
  -4.85000014E-03  -1.31245561E-05
  -4.80000023E-03  -1.33541225E-05
  -4.74999985E-03  -1.35870177E-05
  -4.69999993E-03  -1.38232790E-05
  -4.65000002E-03  -1.40629454E-05
  -4.60000010E-03  -1.43060497E-05
  -4.55000019E-03  -1.45526283E-05
  -4.49999981E-03  -1.48027275E-05
  -4.44999989E-03  -1.50563956E-05
  -4.39999998E-03  -1.53136789E-05
  -4.35000006E-03  -1.55746184E-05
  -4.30000015E-03  -1.58392486E-05
  -4.25000023E-03  -1.61076114E-05
  -4.19999985E-03  -1.63797486E-05
  -4.14999994E-03  -1.66557129E-05
  -4.10000002E-03  -1.69355571E-05
  -4.05000011E-03  -1.72193304E-05
  -4.00000019E-03  -1.75070691E-05
  -3.94999981E-03  -1.77988222E-05
  -3.89999989E-03  -1.80946372E-05
  -3.84999998E-03  -1.83945576E-05
  -3.80000006E-03  -1.86986235E-05
  -3.74999992E-03  -1.90068768E-05
  -3.70000000E-03  -1.93193518E-05
  -3.65000009E-03  -1.96361034E-05
  -3.59999994E-03  -1.99571914E-05
  -3.55000002E-03  -2.02826668E-05
  -3.50000011E-03  -2.06125660E-05
  -3.44999996E-03  -2.09469326E-05
  -3.40000005E-03  -2.12858176E-05
  -3.34999990E-03  -2.16292738E-05
  -3.29999998E-03  -2.19773465E-05
  -3.25000007E-03  -2.23300776E-05
  -3.19999992E-03  -2.26875127E-05
  -3.15000000E-03  -2.30497099E-05
  -3.10000009E-03  -2.34167401E-05
  -3.04999994E-03  -2.37886616E-05
  -3.00000003E-03  -2.41655180E-05
  -2.95000011E-03  -2.45473439E-05
  -2.89999996E-03  -2.49341902E-05
  -2.85000005E-03  -2.53261096E-05
  -2.79999990E-03  -2.57231623E-05
  -2.74999999E-03  -2.61254027E-05
  -2.70000007E-03  -2.65328817E-05
  -2.64999992E-03  -2.69456559E-05
  -2.60000001E-03  -2.73637870E-05
  -2.55000009E-03  -2.77873314E-05
  -2.49999994E-03  -2.82163401E-05
  -2.45000003E-03  -2.86508493E-05
  -2.40000011E-03  -2.90909029E-05
  -2.34999997E-03  -2.95365535E-05
  -2.30000005E-03  -2.99878739E-05
  -2.24999990E-03  -3.04449131E-05
  -2.19999999E-03  -3.09077186E-05
  -2.15000007E-03  -3.13763485E-05
  -2.09999993E-03  -3.18508610E-05
  -2.05000001E-03  -3.23313252E-05
  -2.00000009E-03  -3.28177848E-05
  -1.94999995E-03  -3.33102835E-05
  -1.90000003E-03  -3.38088757E-05
  -1.85000000E-03  -3.43136271E-05
  -1.79999997E-03  -3.48245994E-05
  -1.75000005E-03  -3.53418618E-05
  -1.70000002E-03  -3.58654834E-05
  -1.64999999E-03  -3.63955151E-05
  -1.59999996E-03  -3.69320078E-05
  -1.55000004E-03  -3.74750125E-05
  -1.50000001E-03  -3.80245801E-05
  -1.44999998E-03  -3.85807689E-05
  -1.39999995E-03  -3.91436333E-05
  -1.35000004E-03  -3.97132135E-05
  -1.30000000E-03  -4.02895857E-05
  -1.24999997E-03  -4.08728192E-05
  -1.20000006E-03  -4.14629721E-05
  -1.15000003E-03  -4.20601064E-05
  -1.09999999E-03  -4.26642619E-05
  -1.04999996E-03  -4.32754714E-05
  -1.00000005E-03  -4.38938005E-05
  -9.50000016E-04  -4.45193218E-05
  -8.99999985E-04  -4.51520900E-05
  -8.50000011E-04  -4.57921851E-05
  -7.99999980E-04  -4.64396689E-05
  -7.50000007E-04  -4.70946034E-05
  -6.99999975E-04  -4.77570429E-05
  -6.50000002E-04  -4.84270604E-05
  -6.00000028E-04  -4.91046885E-05
  -5.49999997E-04  -4.97899819E-05
  -5.00000024E-04  -5.04830023E-05
  -4.49999992E-04  -5.11838007E-05
  -3.99999990E-04  -5.18924498E-05
  -3.49999988E-04  -5.26090480E-05
  -3.00000014E-04  -5.33336570E-05
  -2.50000012E-04  -5.40663095E-05
  -1.99999995E-04  -5.48070529E-05
  -1.50000007E-04  -5.55559309E-05
  -9.99999975E-05  -5.63130270E-05
  -4.99999987E-05  -5.70784068E-05
   0.00000000      -5.78521212E-05
   4.99999987E-05  -5.86341994E-05
   9.99999975E-05  -5.94247213E-05
   1.50000007E-04  -6.02237888E-05
   1.99999995E-04  -6.10314928E-05
   2.50000012E-04  -6.18478807E-05
   3.00000014E-04  -6.26729307E-05
   3.49999988E-04  -6.35066754E-05
   3.99999990E-04  -6.43492167E-05
   4.49999992E-04  -6.52006856E-05
   5.00000024E-04  -6.60611549E-05
   5.49999997E-04  -6.69306246E-05
   6.00000028E-04  -6.78091383E-05
   6.50000002E-04  -6.86967833E-05
   6.99999975E-04  -6.95936615E-05
   7.50000007E-04  -7.04998602E-05
   7.99999980E-04  -7.14153939E-05
   8.50000011E-04  -7.23402627E-05
   8.99999985E-04  -7.32745393E-05
   9.50000016E-04  -7.42183183E-05
   1.00000005E-03  -7.51717162E-05
   1.04999996E-03  -7.61347837E-05
   1.09999999E-03  -7.71075574E-05
   1.15000003E-03  -7.80900809E-05
   1.20000006E-03  -7.90823833E-05
   1.24999997E-03  -8.00845519E-05
   1.30000000E-03  -8.10966812E-05
   1.35000004E-03  -8.21188223E-05
   1.39999995E-03  -8.31509969E-05
   1.44999998E-03  -8.41932488E-05
   1.50000001E-03  -8.52456797E-05
   1.55000004E-03  -8.63084206E-05
   1.59999996E-03  -8.73815443E-05
   1.64999999E-03  -8.84650581E-05
   1.70000002E-03  -8.95589546E-05
   1.75000005E-03  -9.06633213E-05
   1.79999997E-03  -9.17782672E-05
   1.85000000E-03  -9.29038724E-05
   1.90000003E-03  -9.40402169E-05
   1.94999995E-03  -9.51873008E-05
   2.00000009E-03  -9.63451821E-05
   2.05000001E-03  -9.75139264E-05
   2.09999993E-03  -9.86936648E-05
   2.15000007E-03  -9.98844334E-05
   2.19999999E-03  -1.01086211E-04
   2.24999990E-03  -1.02299025E-04
   2.30000005E-03  -1.03522958E-04
   2.34999997E-03  -1.04758168E-04
   2.40000011E-03  -1.06004722E-04
   2.45000003E-03  -1.07262647E-04
   2.49999994E-03  -1.08531960E-04
   2.55000009E-03  -1.09812718E-04
   2.60000001E-03  -1.11105008E-04
   2.64999992E-03  -1.12408896E-04
   2.70000007E-03  -1.13724425E-04
   2.74999999E-03  -1.15051604E-04
   2.79999990E-03  -1.16390504E-04