  -3.99999991E-02   0.00000000    
  -3.99499983E-02   0.00000000    
  -3.99000011E-02   0.00000000    
  -3.98500003E-02  -3.08656800E-18
  -3.97999994E-02  -2.72135788E-17
  -3.97499986E-02  -1.22916299E-16
  -3.97000015E-02  -3.71697724E-16
  -3.96500006E-02  -8.18364005E-16
  -3.95999998E-02  -1.30296537E-15
  -3.95499989E-02  -1.22379024E-15
  -3.95000018E-02   6.39116058E-16
  -3.94500010E-02   6.04111055E-15
  -3.94000001E-02   1.67656755E-14
  -3.93499993E-02   3.37122637E-14
  -3.92999984E-02   5.59066750E-14
  -3.92500013E-02   8.00466599E-14
  -3.92000005E-02   1.01217063E-13
  -3.91499996E-02   1.14972769E-13
  -3.90999988E-02   1.20158197E-13
  -3.90500017E-02   1.21033649E-13
  -3.90000008E-02   1.27115969E-13
  -3.89500000E-02   1.49981657E-13
  -3.88999991E-02   1.97888730E-13
  -3.88499983E-02   2.70620792E-13
  -3.88000011E-02   3.57470455E-13
  -3.87500003E-02   4.40231049E-13
  -3.86999995E-02   5.00748748E-13
  -3.86499986E-02   5.30024158E-13
  -3.86000015E-02   5.34364382E-13
  -3.85500006E-02   5.34685252E-13
  -3.84999998E-02   5.57888154E-13
  -3.84499989E-02   6.23264407E-13
  -3.84000018E-02   7.30138768E-13
  -3.83500010E-02   8.53449635E-13
  -3.83000001E-02   9.50844546E-13
  -3.82499993E-02   9.79292277E-13
  -3.81999984E-02   9.13981889E-13
  -3.81500013E-02   7.60344478E-13
  -3.81000005E-02   5.52734507E-13
  -3.80499996E-02   3.39508098E-13
  -3.79999988E-02   1.60913614E-13
  -3.79500017E-02   3.00078294E-14
  -3.79000008E-02  -7.42497291E-14
  -3.78500000E-02  -1.98146431E-13
  -3.77999991E-02  -3.92579551E-13
  -3.77499983E-02  -6.90442170E-13
  -3.77000012E-02  -1.09282689E-12
  -3.76500003E-02  -1.57022572E-12
  -3.75999995E-02  -2.07704969E-12
  -3.75499986E-02  -2.57111194E-12
  -3.75000015E-02  -3.02815889E-12
  -3.74500006E-02  -3.44577383E-12
  -3.73999998E-02  -3.83798982E-12
  -3.73499990E-02  -4.22691005E-12
  -3.73000018E-02  -4.63730877E-12
  -3.72500010E-02  -5.09513525E-12
  -3.72000001E-02  -5.62513794E-12
  -3.71499993E-02  -6.24111483E-12
  -3.70999984E-02  -6.92702449E-12
  -3.70500013E-02  -7.61649771E-12
  -3.70000005E-02  -8.18633095E-12
  -3.69499996E-02  -8.47965448E-12
  -3.68999988E-02  -8.36265432E-12
  -3.68500017E-02  -7.79794545E-12
  -3.68000008E-02  -6.89837553E-12
  -3.67500000E-02  -5.92095730E-12
  -3.66999991E-02  -5.18037176E-12
  -3.66499983E-02  -4.90138529E-12
  -3.66000012E-02  -5.07130535E-12
  -3.65500003E-02  -5.37289831E-12
  -3.64999995E-02  -5.25738003E-12
  -3.64499986E-02  -4.15750594E-12
  -3.64000015E-02  -1.76594785E-12
  -3.63500006E-02   1.74898757E-12
  -3.62999998E-02   5.71620268E-12
  -3.62499990E-02   9.18040297E-12
  -3.62000018E-02   1.13091567E-11
  -3.61500010E-02   1.18212046E-11
  -3.61000001E-02   1.12225498E-11
  -3.60499993E-02   1.06922717E-11
  -3.59999985E-02   1.16090653E-11
  -3.59500013E-02   1.48920303E-11
  -3.59000005E-02   2.04558315E-11
  -3.58499996E-02   2.70749239E-11
  -3.57999988E-02   3.27944165E-11
  -3.57500017E-02   3.57718057E-11
  -3.57000008E-02   3.51977371E-11
  -3.56500000E-02   3.18472991E-11
  -3.55999991E-02   2.79270357E-11
  -3.55499983E-02   2.61828649E-11
  -3.55000012E-02   2.85990589E-11
  -3.54500003E-02   3.52747762E-11
  -3.53999995E-02   4.40656747E-11
  -3.53499986E-02   5.12844281E-11
  -3.53000015E-02   5.32694201E-11
  -3.52500007E-02   4.81716611E-11
  -3.51999998E-02   3.71103044E-11
  -3.51499990E-02   2.40418969E-11
  -3.51000018E-02   1.42328632E-11
  -3.50500010E-02   1.18953215E-11
  -3.50000001E-02   1.80285491E-11
  -3.49499993E-02   2.95420147E-11
  -3.48999985E-02   4.02478675E-11
  -3.48500013E-02   4.34740299E-11
  -3.48000005E-02   3.52299648E-11
  -3.47499996E-02   1.64584076E-11
  -3.46999988E-02  -6.82504704E-12
  -3.46500017E-02  -2.58181948E-11
  -3.46000008E-02  -3.28190773E-11
  -3.45500000E-02  -2.50213860E-11
  -3.44999991E-02  -6.38409031E-12
  -3.44499983E-02   1.35301735E-11
  -3.44000012E-02   2.35147440E-11
  -3.43500003E-02   1.58766056E-11
  -3.42999995E-02  -9.54703851E-12
  -3.42499986E-02  -4.45456276E-11
  -3.42000015E-02  -7.55857182E-11
  -3.41500007E-02  -8.96857102E-11
  -3.40999998E-02  -8.05912698E-11
  -3.40499990E-02  -5.23409406E-11
  -3.40000018E-02  -1.82809271E-11
  -3.39500010E-02   4.42138340E-12
  -3.39000002E-02   2.56566903E-12
  -3.38499993E-02  -2.64856331E-11
  -3.37999985E-02  -7.26414345E-11
  -3.37500013E-02  -1.16763016E-10
  -3.37000005E-02  -1.38957096E-10
  -3.36499996E-02  -1.27950553E-10
  -3.35999988E-02  -8.72003719E-11
  -3.35500017E-02  -3.45680116E-11
  -3.35000008E-02   4.83447700E-12
  -3.34500000E-02   9.81998597E-12
  -3.33999991E-02  -2.66171443E-11
  -3.33499983E-02  -9.28731328E-11
  -3.33000012E-02  -1.62689237E-10
  -3.32500003E-02  -2.06291109E-10
  -3.31999995E-02  -2.04038619E-10
  -3.31499986E-02  -1.56371444E-10
  -3.31000015E-02  -8.51052839E-11
  -3.30500007E-02  -2.48207305E-11
  -3.29999998E-02  -7.63820517E-12
  -3.29499990E-02  -4.80143876E-11
  -3.29000019E-02  -1.34667735E-10
  -3.28500010E-02  -2.33918634E-10
  -3.28000002E-02  -3.03697012E-10
  -3.27499993E-02  -3.12433107E-10
  -3.26999985E-02  -2.54365334E-10
  -3.26500013E-02  -1.53892107E-10
  -3.26000005E-02  -5.62083262E-11
  -3.25499997E-02  -7.67094027E-12
  -3.24999988E-02  -3.43411445E-11
  -3.24500017E-02  -1.28540623E-10
  -3.24000008E-02  -2.50161003E-10
  -3.23500000E-02  -3.43042539E-10
  -3.22999991E-02  -3.59771019E-10
  -3.22499983E-02  -2.83932267E-10
  -3.22000012E-02  -1.39377801E-10
  -3.21500003E-02   1.85537419E-11
  -3.20999995E-02   1.26856789E-10
  -3.20499986E-02   1.43578163E-10
  -3.20000015E-02   6.84409127E-11
  -3.19500007E-02  -5.46184972E-11
  -3.18999998E-02  -1.55194385E-10
  -3.18499990E-02  -1.67385175E-10
  -3.18000019E-02  -6.04474734E-11
  -3.17500010E-02   1.45008797E-10
  -3.17000002E-02   3.83528737E-10
  -3.16499993E-02   5.72254188E-10
  -3.15999985E-02   6.47798259E-10
  -3.15500014E-02   5.96104055E-10
  -3.15000005E-02   4.61205629E-10
  -3.14499997E-02   3.27777583E-10
  -3.13999988E-02   2.84147206E-10
  -3.13500017E-02   3.81746135E-10
  -3.13000008E-02   6.09414408E-10
  -3.12500000E-02   8.95063301E-10
  -3.11999992E-02   1.13527143E-09
  -3.11500002E-02   1.24062527E-09
  -3.10999993E-02   1.17683163E-09
  -3.10500003E-02   9.82615100E-10
  -3.09999995E-02   7.55139007E-10
  -3.09500005E-02   6.08090911E-10
  -3.08999997E-02   6.20292984E-10
  -3.08500007E-02   7.97834632E-10
  -3.07999998E-02   1.06759324E-09
  -3.07500008E-02   1.30650124E-09
  -3.07000000E-02   1.39482104E-09
  -3.06499992E-02   1.27025201E-09
  -3.06000002E-02   9.58332191E-10
  -3.05499993E-02   5.64342961E-10
  -3.05000003E-02   2.28808833E-10
  -3.04499995E-02   6.52970664E-11
  -3.04000005E-02   1.08020072E-10
  -3.03499997E-02   2.93390201E-10
  -3.03000007E-02   4.85236629E-10
  -3.02499998E-02   5.33971145E-10
  -3.02000009E-02   3.44211881E-10
  -3.01500000E-02  -7.94484895E-11
  -3.00999992E-02  -6.30103747E-10
  -3.00500002E-02  -1.14234411E-09
  -2.99999993E-02  -1.46413426E-09
  -2.99500003E-02  -1.52529633E-09
  -2.98999995E-02  -1.37151068E-09
  -2.98500005E-02  -1.14720455E-09
  -2.97999997E-02  -1.03319842E-09
  -2.97500007E-02  -1.16563736E-09
  -2.96999998E-02  -1.57213431E-09
  -2.96500009E-02  -2.15455809E-09
  -2.96000000E-02  -2.72787748E-09
  -2.95499992E-02  -3.09951242E-09
  -2.95000002E-02  -3.15481952E-09
  -2.94499993E-02  -2.91039570E-09
  -2.94000003E-02  -2.51008703E-09
  -2.93499995E-02  -2.16356999E-09
  -2.93000005E-02  -2.05325290E-09
  -2.92499997E-02  -2.25038055E-09
  -2.92000007E-02  -2.67841704E-09
  -2.91499998E-02  -3.14176218E-09
  -2.91000009E-02  -3.40904638E-09
  -2.90500000E-02  -3.31535621E-09
  -2.89999992E-02  -2.83807933E-09
  -2.89500002E-02  -2.11148299E-09
  -2.88999993E-02  -1.37154921E-09
  -2.88500004E-02  -8.53652704E-10
  -2.87999995E-02  -6.87542634E-10
  -2.87500005E-02  -8.36649194E-10
  -2.86999997E-02  -1.11025977E-09
  -2.86500007E-02  -1.24525223E-09
  -2.85999998E-02  -1.02275577E-09
  -2.85500009E-02  -3.68457459E-10
  -2.85000000E-02   6.08899486E-10
  -2.84499992E-02   1.65984460E-09
  -2.84000002E-02   2.50064214E-09
  -2.83499993E-02   2.93798208E-09
  -2.83000004E-02   2.95651548E-09
  -2.82499995E-02   2.72897771E-09
  -2.82000005E-02   2.54223331E-09
  -2.81499997E-02   2.67009503E-09
  -2.81000007E-02   3.24848681E-09
  -2.80499998E-02   4.20895940E-09
  -2.80000009E-02   5.30192912E-09
  -2.79500000E-02   6.20157703E-09
  -2.78999992E-02   6.64757982E-09
  -2.78500002E-02   6.56113697E-09
  -2.77999993E-02   6.08270057E-09
  -2.77500004E-02   5.51255130E-09
  -2.76999995E-02   5.17845589E-09
  -2.76500005E-02   5.28791011E-09
  -2.75999997E-02   5.83084203E-09
  -2.75500007E-02   6.57764820E-09
  -2.74999999E-02   7.17579374E-09
  -2.74500009E-02   7.30405691E-09
  -2.74000000E-02   6.81667656E-09
  -2.73499992E-02   5.81252113E-09
  -2.73000002E-02   4.59652405E-09
  -2.72499993E-02   3.54814289E-09
  -2.72000004E-02   2.95363689E-09
  -2.71499995E-02   2.87650215E-09
  -2.71000005E-02   3.12494763E-09
  -2.70499997E-02   3.33313288E-09
  -2.70000007E-02   3.12223669E-09
  -2.69499999E-02   2.27090036E-09
  -2.69000009E-02   8.18897283E-10
  -2.68500000E-02  -9.43799705E-10
  -2.67999992E-02  -2.59995936E-09
  -2.67500002E-02  -3.78711285E-09
  -2.66999993E-02  -4.35821157E-09
  -2.66500004E-02  -4.44843939E-09
  -2.65999995E-02  -4.41649739E-09
  -2.65500005E-02  -4.68444838E-09
  -2.64999997E-02  -5.54613688E-09
  -2.64500007E-02  -7.02967151E-09
  -2.63999999E-02  -8.87663099E-09
  -2.63500009E-02  -1.06493285E-08
  -2.63000000E-02  -1.19201262E-08
  -2.62499992E-02  -1.24591173E-08
  -2.62000002E-02  -1.23358728E-08
  -2.61499994E-02  -1.18882371E-08
  -2.61000004E-02  -1.15702727E-08
  -2.60499995E-02  -1.17460344E-08
  -2.60000005E-02  -1.25212427E-08
  -2.59499997E-02  -1.36891307E-08
  -2.59000007E-02  -1.48163739E-08
  -2.58499999E-02  -1.54322120E-08
  -2.58000009E-02  -1.52368234E-08
  -2.57500000E-02  -1.42352965E-08
  -2.56999992E-02  -1.27358826E-08
  -2.56500002E-02  -1.12117871E-08
  -2.55999994E-02  -1.00873647E-08
  -2.55500004E-02  -9.54445945E-09
  -2.54999995E-02  -9.43662215E-09
  -2.54500005E-02  -9.35110389E-09
  -2.53999997E-02  -8.79208617E-09
  -2.53500007E-02  -7.40343076E-09
  -2.52999999E-02  -5.13060172E-09
  -2.52500009E-02  -2.24810304E-09
  -2.52000000E-02   7.60976671E-10
  -2.51499992E-02   3.41977313E-09
  -2.51000002E-02   5.47007595E-09
  -2.50499994E-02   6.98609703E-09
  -2.50000004E-02   8.33743385E-09
  -2.49499995E-02   1.00173372E-08
  -2.49000005E-02   1.24137038E-08
  -2.48499997E-02   1.56267088E-08
  -2.48000007E-02   1.94162357E-08
  -2.47499999E-02   2.33034534E-08
  -2.47000009E-02   2.67806790E-08
  -2.46500000E-02   2.95340037E-08
  -2.45999992E-02   3.15771835E-08
  -2.45500002E-02   3.32355512E-08
  -2.44999994E-02   3.49873375E-08
  -2.44500004E-02   3.72350151E-08
  -2.43999995E-02   4.01115017E-08
  -2.43500005E-02   4.34101892E-08
  -2.42999997E-02   4.66706673E-08
  -2.42500007E-02   4.93804748E-08
  -2.41999999E-02   5.11996916E-08
  -2.41500009E-02   5.21045926E-08
  -2.41000000E-02   5.23842871E-08
  -2.40499992E-02   5.24924282E-08
  -2.40000002E-02   5.28234381E-08
  -2.39499994E-02   5.35176063E-08
  -2.39000004E-02   5.43860494E-08
  -2.38499995E-02   5.49902381E-08
  -2.38000005E-02   5.48386900E-08
  -2.37499997E-02   5.36084031E-08
  -2.37000007E-02   5.12870280E-08
  -2.36499999E-02   4.81691949E-08
  -2.36000009E-02   4.47088624E-08
  -2.35500000E-02   4.12977776E-08
  -2.34999992E-02   3.80750613E-08
  -2.34500002E-02   3.48585445E-08
  -2.33999994E-02   3.12305630E-08
  -2.33500004E-02   2.67376183E-08
  -2.32999995E-02   2.11086189E-08
  -2.32500006E-02   1.43870764E-08
  -2.31999997E-02   6.91340851E-09
  -2.31500007E-02  -8.35037151E-10
  -2.30999999E-02  -8.46978931E-09
  -2.30500009E-02  -1.58739013E-08
  -2.30000000E-02  -2.32521309E-08
  -2.29499992E-02  -3.10225836E-08
  -2.29000002E-02  -3.96002733E-08
  -2.28499994E-02  -4.91766556E-08
  -2.28000004E-02  -5.96032912E-08
  -2.27499995E-02  -7.04388299E-08
  -2.27000006E-02  -8.11398380E-08
  -2.26499997E-02  -9.13052460E-08
  -2.26000007E-02  -1.00854734E-07
  -2.25499999E-02  -1.10051438E-07
  -2.25000009E-02  -1.19353075E-07
  -2.24500000E-02  -1.29159076E-07
  -2.23999992E-02  -1.39575661E-07
  -2.23500002E-02  -1.50316112E-07
  -2.22999994E-02  -1.60791117E-07
  -2.22500004E-02  -1.70353147E-07
  -2.21999995E-02  -1.78580592E-07
  -2.21500006E-02  -1.85463094E-07
  -2.20999997E-02  -1.91391706E-07
  -2.20500007E-02  -1.96949330E-07
  -2.19999999E-02  -2.02593867E-07
  -2.19500009E-02  -2.08385146E-07
  -2.19000001E-02  -2.13891880E-07
  -2.18499992E-02  -2.18334165E-07
  -2.18000002E-02  -2.20905591E-07
  -2.17499994E-02  -2.21127166E-07
  -2.17000004E-02  -2.19062642E-07
  -2.16499995E-02  -2.15283009E-07
  -2.16000006E-02  -2.10582314E-07
  -2.15499997E-02  -2.05568924E-07
  -2.15000007E-02  -2.00322589E-07
  -2.14499999E-02  -1.94286443E-07
  -2.14000009E-02  -1.86461634E-07
  -2.13500001E-02  -1.75827040E-07
  -2.12999992E-02  -1.61796763E-07
  -2.12500002E-02  -1.44498770E-07
  -2.11999994E-02  -1.24730718E-07
  -2.11500004E-02  -1.03595696E-07
  -2.10999995E-02  -8.19730204E-08
  -2.10500006E-02  -6.00663057E-08
  -2.09999997E-02  -3.72486966E-08
  -2.09500007E-02  -1.22943584E-08
  -2.08999999E-02   1.60918106E-08
  -2.08500009E-02   4.86777587E-08
  -2.08000001E-02   8.53220214E-08
  -2.07499992E-02   1.24995239E-07
  -2.07000002E-02   1.66219309E-07
  -2.06499994E-02   2.07740001E-07
  -2.06000004E-02   2.49128874E-07
  -2.05499995E-02   2.91027447E-07
  -2.05000006E-02   3.34903007E-07
  -2.04499997E-02   3.82403499E-07
  -2.04000007E-02   4.34588657E-07
  -2.03499999E-02   4.91392200E-07
  -2.03000009E-02   5.51578694E-07
  -2.02500001E-02   6.13240502E-07
  -2.01999992E-02   6.74625994E-07
  -2.01500002E-02   7.34939704E-07
  -2.00999994E-02   7.94735399E-07
  -2.00500004E-02   8.55701046E-07
  -1.99999996E-02   9.19909269E-07
  -1.99500006E-02   9.88849820E-07
  -1.98999997E-02   1.06268283E-06
  -1.98500007E-02   1.14007014E-06
  -1.97999999E-02   1.21868652E-06
  -1.97500009E-02   1.29621048E-06
  -1.97000001E-02   1.37135839E-06
  -1.96499992E-02   1.44448688E-06
  -1.96000002E-02   1.51747111E-06
  -1.95499994E-02   1.59287731E-06
  -1.95000004E-02   1.67278392E-06
  -1.94499996E-02   1.75777404E-06
  -1.94000006E-02   1.84656756E-06
  -1.93499997E-02   1.93649271E-06
  -1.93000007E-02   2.02461115E-06
  -1.92499999E-02   2.10901203E-06
  -1.92000009E-02   2.18969762E-06
  -1.91500001E-02   2.26863199E-06
  -1.90999992E-02   2.34889217E-06
  -1.90500002E-02   2.43328282E-06
  -1.89999994E-02   2.52302107E-06
  -1.89500004E-02   2.61709647E-06
  -1.88999996E-02   2.71261979E-06
  -1.88500006E-02   2.80604263E-06
  -1.87999997E-02   2.89473314E-06
  -1.87500007E-02   2.97819224E-06
  -1.86999999E-02   3.05835738E-06
  -1.86500009E-02   3.13880287E-06
  -1.86000001E-02   3.22317942E-06
  -1.85499992E-02   3.31356296E-06
  -1.85000002E-02   3.40945121E-06
  -1.84499994E-02   3.50790788E-06
  -1.84000004E-02   3.60481408E-06
  -1.83499996E-02   3.69670374E-06
  -1.83000006E-02   3.78237337E-06
  -1.82499997E-02   3.86353577E-06
  -1.82000007E-02   3.94417066E-06
  -1.81499999E-02   4.02882733E-06
  -1.81000009E-02   4.12062582E-06
  -1.80500001E-02   4.21983987E-06
  -1.79999992E-02   4.32371007E-06
  -1.79500002E-02   4.42763439E-06
  -1.78999994E-02   4.52723543E-06
  -1.78500004E-02   4.62039952E-06
  -1.77999996E-02   4.70836312E-06
  -1.77500006E-02   4.79532628E-06
  -1.76999997E-02   4.88672140E-06
  -1.76500008E-02   4.98687632E-06
  -1.75999999E-02   5.09710253E-06
  -1.75500009E-02   5.21508764E-06
  -1.75000001E-02   5.33590173E-06
  -1.74499992E-02   5.45422154E-06
  -1.74000002E-02   5.56679970E-06
  -1.73499994E-02   5.67407596E-06
  -1.73000004E-02   5.78018580E-06
  -1.72499996E-02   5.89130059E-06
  -1.72000006E-02   6.01300917E-06
  -1.71499997E-02   6.14787723E-06
  -1.71000008E-02   6.29431543E-06
  -1.70499999E-02   6.44726924E-06
  -1.70000009E-02   6.60049864E-06
  -1.69500001E-02   6.74945250E-06
  -1.68999992E-02   6.89346552E-06
  -1.68500002E-02   7.03627711E-06
  -1.67999994E-02   7.18458296E-06
  -1.67500004E-02   7.34522109E-06
  -1.66999996E-02   7.52222559E-06
  -1.66500006E-02   7.71503983E-06
  -1.65999997E-02   7.91875482E-06
  -1.65500008E-02   8.12631970E-06
  -1.64999999E-02   8.33174727E-06
  -1.64500009E-02   8.53296297E-06
  -1.64000001E-02   8.73292902E-06
  -1.63499992E-02   8.93856577E-06
  -1.63000003E-02   9.15787223E-06
  -1.62499994E-02   9.39645997E-06
  -1.62000004E-02   9.65508298E-06
  -1.61499996E-02   9.92929472E-06
  -1.61000006E-02   1.02114109E-05
  -1.60499997E-02   1.04939827E-05
  -1.60000008E-02   1.07732367E-05
  -1.59499999E-02   1.10509673E-05
  -1.59000009E-02   1.13339756E-05
  -1.58500001E-02   1.16312440E-05
  -1.57999992E-02   1.19500755E-05
  -1.57500003E-02   1.22928868E-05
  -1.56999994E-02   1.26561217E-05
  -1.56500004E-02   1.30317976E-05
  -1.55999996E-02   1.34110760E-05
  -1.55499997E-02   1.37883044E-05
  -1.54999997E-02   1.41636974E-05
  -1.54499998E-02   1.45434760E-05
  -1.53999999E-02   1.49373018E-05
  -1.53500000E-02   1.53541496E-05
  -1.53000001E-02   1.57983523E-05
  -1.52500002E-02   1.62676242E-05
  -1.52000003E-02   1.67540675E-05
  -1.51500003E-02   1.72476812E-05
  -1.51000004E-02   1.77408492E-05
  -1.50499996E-02   1.82318854E-05
  -1.49999997E-02   1.87260175E-05
  -1.49499997E-02   1.92332645E-05
  -1.48999998E-02   1.97641602E-05
  -1.48499999E-02   2.03251439E-05
  -1.48000000E-02   2.09157042E-05
  -1.47500001E-02   2.15285327E-05
  -1.47000002E-02   2.21527825E-05
  -1.46500003E-02   2.27789351E-05
  -1.46000003E-02   2.34031577E-05
  -1.45500004E-02   2.40292047E-05
  -1.44999996E-02   2.46670334E-05
  -1.44499997E-02   2.53285798E-05
  -1.43999998E-02   2.60225279E-05
  -1.43499998E-02   2.67505438E-05
  -1.42999999E-02   2.75064322E-05
  -1.42500000E-02   2.82788533E-05
  -1.42000001E-02   2.90565185E-05
  -1.41500002E-02   2.98332889E-05
  -1.41000003E-02   3.06110633E-05
  -1.40500003E-02   3.13993041E-05
  -1.40000004E-02   3.22110536E-05
  -1.39499996E-02   3.30573093E-05
  -1.38999997E-02   3.39422186E-05
  -1.38499998E-02   3.48612557E-05
  -1.37999998E-02   3.58032448E-05
  -1.37499999E-02   3.67554421E-05
  -1.37000000E-02   3.77093456E-05
  -1.36500001E-02   3.86646716E-05
  -1.36000002E-02   3.96298929E-05
  -1.35500003E-02   4.06187428E-05
  -1.35000004E-02   4.16442781E-05
  -1.34500004E-02   4.27132800E-05
  -1.33999996E-02   4.38234129E-05
  -1.33499997E-02   4.49643339E-05
  -1.32999998E-02   4.61223754E-05
  -1.32499998E-02   4.72868123E-05
  -1.31999999E-02   4.84548982E-05
  -1.31500000E-02   4.96334287E-05
  -1.31000001E-02   5.08360972E-05
  -1.30500002E-02   5.20777430E-05
  -1.30000003E-02   5.33680504E-05
  -1.29500004E-02   5.47074524E-05
  -1.29000004E-02   5.60869994E-05
  -1.28499996E-02   5.74924779E-05
  -1.27999997E-02   5.89110823E-05
  -1.27499998E-02   6.03374210E-05
  -1.26999998E-02   6.17762707E-05
  -1.26499999E-02   6.32409501E-05
  -1.26000000E-02   6.47477063E-05
  -1.25500001E-02   6.63089231E-05
  -1.25000002E-02   6.79279110E-05
  -1.24500003E-02   6.95975905E-05
  -1.24000004E-02   7.13038098E-05
  -1.23500004E-02   7.30321044E-05
  -1.22999996E-02   7.47743979E-05
  -1.22499997E-02   7.65329896E-05
  -1.21999998E-02   7.83201031E-05
  -1.21499998E-02   8.01528367E-05
  -1.20999999E-02   8.20459827E-05
  -1.20500000E-02   8.40059147E-05
  -1.20000001E-02   8.60281289E-05
  -1.19500002E-02   8.80994339E-05
  -1.19000003E-02   9.02040774E-05
  -1.18500004E-02   9.23313273E-05
  -1.18000004E-02   9.44806161E-05
  -1.17499996E-02   9.66621155E-05
  -1.16999997E-02   9.88929605E-05
  -1.16499998E-02   1.01190104E-04
  -1.15999999E-02   1.03563107E-04
  -1.15499999E-02   1.06010208E-04
  -1.15000000E-02   1.08519562E-04
  -1.14500001E-02   1.11074951E-04
  -1.14000002E-02   1.13663489E-04
  -1.13500003E-02   1.16281793E-04
  -1.13000004E-02   1.18937838E-04
  -1.12500004E-02   1.21648103E-04
  -1.11999996E-02   1.24430939E-04
  -1.11499997E-02   1.27298976E-04
  -1.10999998E-02   1.30253524E-04
  -1.10499999E-02   1.33284775E-04
  -1.09999999E-02   1.36376417E-04
  -1.09500000E-02   1.39512893E-04
  -1.09000001E-02   1.42687379E-04
  -1.08500002E-02   1.45905069E-04
  -1.08000003E-02   1.49181520E-04
  -1.07500004E-02   1.52536173E-04
  -1.07000005E-02   1.55984089E-04
  -1.06499996E-02   1.59530289E-04
  -1.05999997E-02   1.63167977E-04
  -1.05499998E-02   1.66881582E-04
  -1.04999999E-02   1.70654443E-04
  -1.04499999E-02   1.74476882E-04
  -1.04000000E-02   1.78350994E-04
  -1.03500001E-02   1.82290169E-04
  -1.03000002E-02   1.86313860E-04
  -1.02500003E-02   1.90439503E-04
  -1.02000004E-02   1.94675173E-04
  -1.01500005E-02   1.99016533E-04
  -1.00999996E-02   2.03449163E-04
  -1.00499997E-02   2.07955600E-04
  -9.99999978E-03   2.12523519E-04
  -9.94999986E-03   2.17151523E-04
  -9.89999995E-03   2.21850103E-04
  -9.85000003E-03   2.26638236E-04
  -9.80000012E-03   2.31535392E-04
  -9.75000020E-03   2.36552994E-04
  -9.70000029E-03   2.41690432E-04
  -9.65000037E-03   2.46935495E-04
  -9.60000046E-03   2.52270373E-04
  -9.54999961E-03   2.57680076E-04
  -9.49999969E-03   2.63160124E-04
  -9.44999978E-03   2.68718781E-04
  -9.39999986E-03   2.74374615E-04
  -9.34999995E-03   2.80148437E-04
  -9.30000003E-03   2.86054361E-04
  -9.25000012E-03   2.92095006E-04
  -9.20000020E-03   2.98260507E-04
  -9.15000029E-03   3.04533052E-04
  -9.10000037E-03   3.10895470E-04
  -9.05000046E-03   3.17339989E-04
  -8.99999961E-03   3.23872257E-04
  -8.94999970E-03   3.30508454E-04
  -8.89999978E-03   3.37268546E-04
  -8.84999987E-03   3.44169239E-04
  -8.79999995E-03   3.51216615E-04
  -8.75000004E-03   3.58403049E-04
  -8.70000012E-03   3.65712243E-04
  -8.65000021E-03   3.73126793E-04
  -8.60000029E-03   3.80636222E-04
  -8.55000038E-03   3.88242828E-04
  -8.50000046E-03   3.95960698E-04
  -8.44999962E-03   4.03810584E-04
  -8.39999970E-03   4.11811256E-04
  -8.34999979E-03   4.19971795E-04
  -8.29999987E-03   4.28288680E-04
  -8.24999996E-03   4.36747621E-04
  -8.20000004E-03   4.45330603E-04
  -8.15000013E-03   4.54024208E-04
  -8.10000021E-03   4.62827360E-04
  -8.05000030E-03   4.71751468E-04
  -8.00000038E-03   4.80815652E-04
  -7.95000046E-03   4.90039878E-04
  -7.89999962E-03   4.99435584E-04
  -7.84999970E-03   5.09001606E-04
  -7.79999979E-03   5.18725254E-04
  -7.74999987E-03   5.28587960E-04
  -7.69999996E-03   5.38574473E-04
  -7.65000004E-03   5.48679207E-04
  -7.60000013E-03   5.58910484E-04
  -7.55000021E-03   5.69287280E-04
  -7.49999983E-03   5.79830783E-04
  -7.44999992E-03   5.90555370E-04
  -7.40000000E-03   6.01462321E-04
  -7.35000009E-03   6.12541276E-04
  -7.30000017E-03   6.23774831E-04
  -7.24999979E-03   6.35148084E-04
  -7.19999988E-03   6.46654691E-04
  -7.14999996E-03   6.58300531E-04
  -7.10000005E-03   6.70101785E-04
  -7.05000013E-03   6.82078535E-04
  -7.00000022E-03   6.94245507E-04
  -6.94999984E-03   7.06606312E-04
  -6.89999992E-03   7.19153264E-04
  -6.85000001E-03   7.31869834E-04
  -6.80000009E-03   7.44738267E-04
  -6.75000018E-03   7.57749425E-04
  -6.69999979E-03   7.70907383E-04
  -6.64999988E-03   7.84226635E-04
  -6.59999996E-03   7.97725981E-04
  -6.55000005E-03   8.11420614E-04
  -6.50000013E-03   8.25316238E-04
  -6.45000022E-03   8.39405984E-04
  -6.39999984E-03   8.53674719E-04
  -6.34999992E-03   8.68105155E-04
  -6.30000001E-03   8.82686640E-04
  -6.25000009E-03   8.97420279E-04
  -6.20000018E-03   9.12318646E-04
  -6.14999980E-03   9.27401124E-04
  -6.09999988E-03   9.42685525E-04
  -6.04999997E-03   9.58179124E-04
  -6.00000005E-03   9.73877730E-04
  -5.95000014E-03   9.89766791E-04
  -5.90000022E-03   1.00582675E-03
  -5.84999984E-03   1.02204562E-03
  -5.79999993E-03   1.03842292E-03
  -5.75000001E-03   1.05496799E-03
  -5.70000010E-03   1.07169850E-03
  -5.65000018E-03   1.08862994E-03
  -5.59999980E-03   1.10576919E-03
  -5.54999989E-03   1.12311658E-03
  -5.49999997E-03   1.14066072E-03
  -5.45000006E-03   1.15838158E-03
  -5.40000014E-03   1.17626286E-03
  -5.35000023E-03   1.19430060E-03
  -5.29999984E-03   1.21250330E-03
  -5.24999993E-03   1.23088609E-03
  -5.20000001E-03   1.24946539E-03
  -5.15000010E-03   1.26825203E-03
  -5.10000018E-03   1.28724612E-03
  -5.04999980E-03   1.30643556E-03
  -4.99999989E-03   1.32580230E-03
  -4.94999997E-03   1.34533131E-03
  -4.90000006E-03   1.36501633E-03
  -4.85000014E-03   1.38486200E-03
  -4.80000023E-03   1.40488276E-03
  -4.74999985E-03   1.42509467E-03
  -4.69999993E-03   1.44551008E-03
  -4.65000002E-03   1.46612711E-03
  -4.60000010E-03   1.48693391E-03
  -4.55000019E-03   1.50791404E-03
  -4.49999981E-03   1.52904715E-03
  -4.44999989E-03   1.55032543E-03
  -4.39999998E-03   1.57175120E-03
  -4.35000006E-03   1.59333425E-03
  -4.30000015E-03   1.61509204E-03
  -4.25000023E-03   1.63703738E-03
  -4.19999985E-03   1.65917177E-03
  -4.14999994E-03   1.68148428E-03
  -4.10000002E-03   1.70395605E-03
  -4.05000011E-03   1.72656879E-03
  -4.00000019E-03   1.74930785E-03
  -3.94999981E-03   1.77217380E-03
  -3.89999989E-03   1.79518445E-03
  -3.84999998E-03   1.81835506E-03
  -3.80000006E-03   1.84169272E-03
  -3.74999992E-03   1.86519849E-03
  -3.70000000E-03   1.88885967E-03
  -3.65000009E-03   1.91265810E-03
  -3.59999994E-03   1.93657412E-03
  -3.55000002E-03   1.96059491E-03
  -3.50000011E-03   1.98472082E-03
  -3.44999996E-03   2.00896058E-03
  -3.40000005E-03   2.03332701E-03
  -3.34999990E-03   2.05783173E-03
  -3.29999998E-03   2.08247919E-03
  -3.25000007E-03   2.10725446E-03
  -3.19999992E-03   2.13213265E-03
  -3.15000000E-03   2.15709535E-03
  -3.10000009E-03   2.18212395E-03
  -3.04999994E-03   2.20721122E-03
  -3.00000003E-03   2.23236415E-03
  -2.95000011E-03   2.25759763E-03
  -2.89999996E-03   2.28293077E-03
  -2.85000005E-03   2.30836961E-03
  -2.79999990E-03   2.33390485E-03
  -2.74999999E-03   2.35950737E-03
  -2.70000007E-03   2.38514179E-03
  -2.64999992E-03   2.41078716E-03
  -2.60000001E-03   2.43643438E-03
  -2.55000009E-03   2.46209651E-03
  -2.49999994E-03   2.48780241E-03
  -2.45000003E-03   2.51356978E-03
  -2.40000011E-03   2.53939931E-03
  -2.34999997E-03   2.56526610E-03
  -2.30000005E-03   2.59113568E-03
  -2.24999990E-03   2.61697569E-03
  -2.19999999E-03   2.64276471E-03
  -2.15000007E-03   2.66849808E-03
  -2.09999993E-03   2.69418443E-03
  -2.05000001E-03   2.71984003E-03
  -2.00000009E-03   2.74547911E-03
  -1.94999995E-03   2.77110864E-03
  -1.90000003E-03   2.79670884E-03
  -1.85000000E-03   2.82224850E-03
  -1.79999997E-03   2.84768874E-03
  -1.75000005E-03   2.87300139E-03
  -1.70000002E-03   2.89817550E-03
  -1.64999999E-03   2.92321690E-03
  -1.59999996E-03   2.94814794E-03
  -1.55000004E-03   2.97298958E-03
  -1.50000001E-03   2.99774320E-03
  -1.44999998E-03   3.02238413E-03
  -1.39999995E-03   3.04687186E-03
  -1.35000004E-03   3.07116564E-03
  -1.30000000E-03   3.09523568E-03
  -1.24999997E-03   3.11907870E-03
  -1.20000006E-03   3.14270752E-03
  -1.15000003E-03   3.16613331E-03
  -1.09999999E-03   3.18937027E-03
  -1.04999996E-03   3.21241934E-03
  -1.00000005E-03   3.23525700E-03
  -9.50000016E-04   3.25783994E-03
  -8.99999985E-04   3.28012253E-03
  -8.50000011E-04   3.30207613E-03
  -7.99999980E-04   3.32369329E-03
  -7.50000007E-04   3.34497564E-03
  -6.99999975E-04   3.36593413E-03
  -6.50000002E-04   3.38658458E-03
  -6.00000028E-04   3.40692909E-03
  -5.49999997E-04   3.42694507E-03
  -5.00000024E-04   3.44658736E-03
  -4.49999992E-04   3.46581172E-03
  -3.99999990E-04   3.48457973E-03
  -3.49999988E-04   3.50287114E-03
  -3.00000014E-04   3.52068990E-03
  -2.50000012E-04   3.53805558E-03
  -1.99999995E-04   3.55499517E-03
  -1.50000007E-04   3.57151101E-03
  -9.99999975E-05   3.58758098E-03
  -4.99999987E-05   3.60316178E-03
   0.00000000       3.61819426E-03
   4.99999987E-05   3.63262324E-03
   9.99999975E-05   3.64641007E-03
   1.50000007E-04   3.65955988E-03
   1.99999995E-04   3.67209339E-03
   2.50000012E-04   3.68403899E-03
   3.00000014E-04   3.69541510E-03
   3.49999988E-04   3.70621006E-03
   3.99999990E-04   3.71637405E-03
   4.49999992E-04   3.72583815E-03
   5.00000024E-04   3.73453693E-03
   5.49999997E-04   3.74242617E-03
   6.00000028E-04   3.74950562E-03
   6.50000002E-04   3.75580043E-03
   6.99999975E-04   3.76134505E-03
   7.50000007E-04   3.76615766E-03
   7.99999980E-04   3.77022126E-03
   8.50000011E-04   3.77349532E-03
   8.99999985E-04   3.77591234E-03
   9.50000016E-04   3.77740874E-03
   1.00000005E-03   3.77793284E-03
   1.04999996E-03   3.77745344E-03
   1.09999999E-03   3.77597846E-03
   1.15000003E-03   3.77354794E-03
   1.20000006E-03   3.77022102E-03
   1.24999997E-03   3.76599538E-03
   1.30000000E-03   3.76083143E-03
   1.35000004E-03   3.75465490E-03
   1.39999995E-03   3.74737219E-03
   1.44999998E-03   3.73891811E-03
   1.50000001E-03   3.72926099E-03
   1.55000004E-03   3.71839968E-03
   1.59999996E-03   3.70635581E-03
   1.64999999E-03   3.69318784E-03
   1.70000002E-03   3.67892836E-03
   1.75000005E-03   3.66356107E-03
   1.79999997E-03   3.64703219E-03
   1.85000000E-03   3.62924836E-03
   1.90000003E-03   3.61010875E-03
   1.94999995E-03   3.58953490E-03
   2.00000009E-03   3.56750959E-03
   2.05000001E-03   3.54407914E-03
   2.09999993E-03   3.51931294E-03
   2.15000007E-03   3.49326665E-03
   2.19999999E-03   3.46595701E-03
   2.24999990E-03   3.43732326E-03
   2.30000005E-03   3.40724806E-03
   2.34999997E-03   3.37562058E-03
   2.40000011E-03   3.34236422E-03
   2.45000003E-03   3.30744777E-03
   2.49999994E-03   3.27090360E-03
   2.55000009E-03   3.23280669E-03
   2.60000001E-03   3.19320243E-03
   2.64999992E-03   3.15210642E-03
   2.70000007E-03   3.10950610E-03
   2.74999999E-03   3.06531577E-03
   2.79999990E-03   3.01940017E-03