  -3.99999991E-02   0.00000000    
  -3.99499983E-02   0.00000000    
  -3.99000011E-02   0.00000000    
  -3.98500003E-02   0.00000000    
  -3.97999994E-02   1.54481625E-18
  -3.97499986E-02   1.82738210E-17
  -3.97000015E-02   1.12129335E-16
  -3.96500006E-02   4.73299670E-16
  -3.95999998E-02   1.53810955E-15
  -3.95499989E-02   4.08475837E-15
  -3.95000018E-02   9.18985177E-15
  -3.94500010E-02   1.79290668E-14
  -3.94000001E-02   3.08189889E-14
  -3.93499993E-02   4.72167437E-14
  -3.92999984E-02   6.51072688E-14
  -3.92500013E-02   8.17256012E-14
  -3.92000005E-02   9.51339973E-14
  -3.91499996E-02   1.06245843E-13
  -3.90999988E-02   1.20175490E-13
  -3.90500017E-02   1.45665272E-13
  -3.90000008E-02   1.92023901E-13
  -3.89500000E-02   2.64375165E-13
  -3.88999991E-02   3.59407165E-13
  -3.88499983E-02   4.64325735E-13
  -3.88000011E-02   5.60739497E-13
  -3.87500003E-02   6.32876564E-13
  -3.86999995E-02   6.76826379E-13
  -3.86499986E-02   7.05876818E-13
  -3.86000015E-02   7.47705988E-13
  -3.85500006E-02   8.32487941E-13
  -3.84999998E-02   9.75779787E-13
  -3.84499989E-02   1.16409844E-12
  -3.84000018E-02   1.35180972E-12
  -3.83500010E-02   1.47401167E-12
  -3.83000001E-02   1.47252100E-12
  -3.82499993E-02   1.32435176E-12
  -3.81999984E-02   1.05851330E-12
  -3.81500013E-02   7.50334907E-13
  -3.81000005E-02   4.92164903E-13
  -3.80499996E-02   3.51000668E-13
  -3.79999988E-02   3.31642998E-13
  -3.79500017E-02   3.63794417E-13
  -3.79000008E-02   3.22272265E-13
  -3.78500000E-02   7.46211361E-14
  -3.77999991E-02  -4.63515619E-13
  -3.77499983E-02  -1.29078714E-12
  -3.77000012E-02  -2.31967267E-12
  -3.76500003E-02  -3.41606366E-12
  -3.75999995E-02  -4.46234499E-12
  -3.75499986E-02  -5.41492502E-12
  -3.75000015E-02  -6.32855964E-12
  -3.74500006E-02  -7.33493214E-12
  -3.73999998E-02  -8.58425310E-12
  -3.73499990E-02  -1.01755028E-11
  -3.73000018E-02  -1.21052422E-11
  -3.72500010E-02  -1.42555117E-11
  -3.72000001E-02  -1.64237530E-11
  -3.71499993E-02  -1.83806078E-11
  -3.70999984E-02  -1.99329147E-11
  -3.70500013E-02  -2.09717729E-11
  -3.70000005E-02  -2.14962024E-11
  -3.69499996E-02  -2.16138236E-11
  -3.68999988E-02  -2.15240499E-11
  -3.68500017E-02  -2.14846075E-11
  -3.68000008E-02  -2.17555331E-11
  -3.67500000E-02  -2.25164991E-11
  -3.66999991E-02  -2.37693944E-11
  -3.66499983E-02  -2.52622905E-11
  -3.66000012E-02  -2.64861327E-11
  -3.65500003E-02  -2.67831486E-11
  -3.64999995E-02  -2.55607306E-11
  -3.64499986E-02  -2.25421019E-11
  -3.64000015E-02  -1.79378474E-11
  -3.63500006E-02  -1.24245735E-11
  -3.62999998E-02  -6.88430172E-12
  -3.62499990E-02  -1.97338326E-12
  -3.62000018E-02   2.29631852E-12
  -3.61500010E-02   6.73318172E-12
  -3.61000001E-02   1.27335486E-11
  -3.60499993E-02   2.16529936E-11
  -3.59999985E-02   3.40132332E-11
  -3.59500013E-02   4.89300718E-11
  -3.59000005E-02   6.41305065E-11
  -3.58499996E-02   7.67054198E-11
  -3.57999988E-02   8.43902379E-11
  -3.57500017E-02   8.68377384E-11
  -3.57000008E-02   8.62262206E-11
  -3.56500000E-02   8.67402122E-11
  -3.55999991E-02   9.29365543E-11
  -3.55499983E-02   1.07579223E-10
  -3.55000012E-02   1.29917813E-10
  -3.54500003E-02   1.55357963E-10
  -3.53999995E-02   1.76955825E-10
  -3.53499986E-02   1.88331004E-10
  -3.53000015E-02   1.86800908E-10
  -3.52500007E-02   1.75209500E-10
  -3.51999998E-02   1.61309383E-10
  -3.51499990E-02   1.54586330E-10
  -3.51000018E-02   1.61678615E-10
  -3.50500010E-02   1.82441520E-10
  -3.50000001E-02   2.08727313E-10
  -3.49499993E-02   2.26939342E-10
  -3.48999985E-02   2.23717087E-10
  -3.48500013E-02   1.92452290E-10
  -3.48000005E-02   1.37560116E-10
  -3.47499996E-02   7.40564485E-11
  -3.46999988E-02   2.19318851E-11
  -3.46500017E-02  -2.70140334E-12
  -3.46000008E-02   4.16143769E-12
  -3.45500000E-02   3.09140318E-11
  -3.44999991E-02   5.39209753E-11
  -3.44499983E-02   4.74055552E-11
  -3.44000012E-02  -4.32616182E-12
  -3.43500003E-02  -9.79679116E-11
  -3.42999995E-02  -2.10378229E-10
  -3.42499986E-02  -3.07284281E-10
  -3.42000015E-02  -3.58514718E-10
  -3.41500007E-02  -3.53173712E-10
  -3.40999998E-02  -3.07347647E-10
  -3.40499990E-02  -2.59632205E-10
  -3.40000018E-02  -2.55107491E-10
  -3.39500010E-02  -3.24093474E-10
  -3.39000002E-02  -4.65344735E-10
  -3.38499993E-02  -6.42374043E-10
  -3.37999985E-02  -7.96282429E-10
  -3.37500013E-02  -8.70890637E-10
  -3.37000005E-02  -8.39528003E-10
  -3.36499996E-02  -7.20797255E-10
  -3.35999988E-02  -5.74485237E-10
  -3.35500017E-02  -4.77347273E-10
  -3.35000008E-02  -4.88144747E-10
  -3.34500000E-02  -6.17528362E-10
  -3.33999991E-02  -8.17740764E-10
  -3.33499983E-02  -9.99220151E-10
  -3.33000012E-02  -1.06901843E-09
  -3.32500003E-02  -9.74934355E-10
  -3.31999995E-02  -7.34813599E-10
  -3.31499986E-02  -4.35432135E-10
  -3.31000015E-02  -1.98329214E-10
  -3.30500007E-02  -1.25502747E-10
  -3.29999998E-02  -2.48816162E-10
  -3.29499990E-02  -5.07600018E-10
  -3.29000019E-02  -7.67925112E-10
  -3.28500010E-02  -8.78495054E-10
  -3.28000002E-02  -7.40176087E-10
  -3.27499993E-02  -3.57478880E-10
  -3.26999985E-02   1.54121368E-10
  -3.26500013E-02   6.12596807E-10
  -3.26000005E-02   8.49196991E-10
  -3.25499997E-02   7.89056820E-10
  -3.24999988E-02   4.94427388E-10
  -3.24500017E-02   1.46683721E-10
  -3.24000008E-02  -2.97952045E-11
  -3.23500000E-02   1.29079539E-10
  -3.22999991E-02   6.43223974E-10
  -3.22499983E-02   1.36538791E-09
  -3.22000012E-02   2.03529371E-09
  -3.21500003E-02   2.39201725E-09
  -3.20999995E-02   2.29652297E-09
  -3.20499986E-02   1.80734083E-09
  -3.20000015E-02   1.16968135E-09
  -3.19500007E-02   7.15846660E-10
  -3.18999998E-02   7.16478932E-10
  -3.18499990E-02   1.24862021E-09
  -3.18000019E-02   2.14399809E-09
  -3.17500010E-02   3.04825831E-09
  -3.17000002E-02   3.57208219E-09
  -3.16499993E-02   3.47039131E-09
  -3.15999985E-02   2.76764767E-09
  -3.15500014E-02   1.76625403E-09
  -3.15000005E-02   9.25175880E-10
  -3.14499997E-02   6.55907884E-10
  -3.13999988E-02   1.12532450E-09
  -3.13500017E-02   2.15845919E-09
  -3.13000008E-02   3.29429217E-09
  -3.12500000E-02   3.97977473E-09
  -3.11999992E-02   3.82139875E-09
  -3.11500002E-02   2.78077161E-09
  -3.10999993E-02   1.21864963E-09
  -3.10500003E-02  -2.44015474E-10
  -3.09999995E-02  -9.96123739E-10
  -3.09500005E-02  -7.20747184E-10
  -3.08999997E-02   4.37887865E-10
  -3.08500007E-02   1.91065430E-09
  -3.07999998E-02   2.93988456E-09
  -3.07500008E-02   2.91911229E-09
  -3.07000000E-02   1.68476266E-09
  -3.06499992E-02  -3.79273613E-10
  -3.06000002E-02  -2.48514742E-09
  -3.05499993E-02  -3.78189835E-09
  -3.05000003E-02  -3.74762266E-09
  -3.04499995E-02  -2.45360177E-09
  -3.04000005E-02  -5.69174319E-10
  -3.03499997E-02   9.11491660E-10
  -3.03000007E-02   1.11131482E-09
  -3.02499998E-02  -3.13878645E-10
  -3.02000009E-02  -2.98045566E-09
  -3.01500000E-02  -5.90725024E-09
  -3.00999992E-02  -7.93060639E-09
  -3.00500002E-02  -8.22913382E-09
  -2.99999993E-02  -6.72162015E-09
  -2.99500003E-02  -4.14622114E-09
  -2.98999995E-02  -1.76549386E-09
  -2.98500005E-02  -8.11978262E-10
  -2.97999997E-02  -1.91592897E-09
  -2.97500007E-02  -4.77901541E-09
  -2.96999998E-02  -8.25899527E-09
  -2.96500009E-02  -1.08495204E-08
  -2.96000000E-02  -1.13554544E-08
  -2.95499992E-02  -9.46243439E-09
  -2.95000002E-02  -5.93152905E-09
  -2.94499993E-02  -2.30824648E-09
  -2.94000003E-02  -2.53490673E-10
  -2.93499995E-02  -7.84536602E-10
  -2.93000005E-02  -3.77126463E-09
  -2.92499997E-02  -7.93358979E-09
  -2.92000007E-02  -1.13679031E-08
  -2.91499998E-02  -1.23879360E-08
  -2.91000009E-02  -1.03093161E-08
  -2.90500000E-02  -5.81388848E-09
  -2.89999992E-02  -7.04781900E-10
  -2.89500002E-02   2.86588175E-09
  -2.88999993E-02   3.36787753E-09
  -2.88500004E-02   6.25781427E-10
  -2.87999995E-02  -4.03485778E-09
  -2.87500005E-02  -8.32412717E-09
  -2.86999997E-02  -9.99387950E-09
  -2.86500007E-02  -7.87381715E-09
  -2.85999998E-02  -2.46299914E-09
  -2.85500009E-02   4.21635660E-09
  -2.85000000E-02   9.47100087E-09
  -2.84499992E-02   1.11372795E-08
  -2.84000002E-02   8.59610960E-09
  -2.83499993E-02   3.12829029E-09
  -2.83000004E-02  -2.58328559E-09
  -2.82499995E-02  -5.61581226E-09
  -2.82000005E-02  -4.13139789E-09
  -2.81499997E-02   1.73440262E-09
  -2.81000007E-02   9.84634507E-09
  -2.80499998E-02   1.69557470E-08
  -2.80000009E-02   2.01340171E-08
  -2.79500000E-02   1.81218880E-08
  -2.78999992E-02   1.19738468E-08
  -2.78500002E-02   4.67293537E-09
  -2.77999993E-02  -1.52186624E-10
  -2.77500004E-02   1.40059755E-10
  -2.76999995E-02   5.95262373E-09
  -2.76500005E-02   1.51670090E-08
  -2.75999997E-02   2.39989557E-08
  -2.75500007E-02   2.86497350E-08
  -2.74999999E-02   2.70330194E-08
  -2.74500009E-02   1.97933190E-08
  -2.74000000E-02   1.01231947E-08
  -2.73499992E-02   2.41417042E-09
  -2.73000002E-02   3.09039766E-10
  -2.72499993E-02   5.01843012E-09
  -2.72000004E-02   1.46778136E-08
  -2.71499995E-02   2.50777088E-08
  -2.71000005E-02   3.14875095E-08
  -2.70499997E-02   3.07851202E-08
  -2.70000007E-02   2.29354757E-08
  -2.69499999E-02   1.11212106E-08
  -2.69000009E-02   4.15534385E-10
  -2.68500000E-02  -4.45370851E-09
  -2.67999992E-02  -1.26646471E-09
  -2.67500002E-02   8.58588578E-09
  -2.66999993E-02   2.05959196E-08
  -2.66500004E-02   2.90680795E-08
  -2.65999995E-02   2.96560909E-08
  -2.65500005E-02   2.13805844E-08
  -2.64999997E-02   7.19314563E-09
  -2.64500007E-02  -7.22045712E-09
  -2.63999999E-02  -1.59173350E-08
  -2.63500009E-02  -1.53769601E-08
  -2.63000000E-02  -6.17611118E-09
  -2.62499992E-02   7.13384463E-09
  -2.62000002E-02   1.79531021E-08
  -2.61499994E-02   2.05518038E-08
  -2.61000004E-02   1.26928104E-08
  -2.60499995E-02  -3.23830185E-09
  -2.60000005E-02  -2.11570743E-08
  -2.59499997E-02  -3.39077530E-08
  -2.59000007E-02  -3.64620121E-08
  -2.58499999E-02  -2.82605601E-08
  -2.58000009E-02  -1.36109009E-08
  -2.57500000E-02   1.01665162E-10
  -2.56999992E-02   5.65172265E-09
  -2.56500002E-02  -7.56222474E-10
  -2.55999994E-02  -1.76612058E-08
  -2.55500004E-02  -3.88327699E-08
  -2.54999995E-02  -5.59238025E-08
  -2.54500005E-02  -6.21589749E-08
  -2.53999997E-02  -5.54262698E-08
  -2.53500007E-02  -3.93588415E-08
  -2.52999999E-02  -2.18587264E-08
  -2.52500009E-02  -1.16518697E-08
  -2.52000000E-02  -1.43697889E-08
  -2.51499992E-02  -2.99111242E-08
  -2.51000002E-02  -5.23107353E-08
  -2.50499994E-02  -7.22489020E-08
  -2.50000004E-02  -8.11468368E-08
  -2.49499995E-02  -7.50485398E-08
  -2.49000005E-02  -5.65334624E-08
  -2.48499997E-02  -3.37415500E-08
  -2.48000007E-02  -1.68670748E-08
  -2.47499999E-02  -1.36282523E-08
  -2.47000009E-02  -2.57234305E-08
  -2.46500000E-02  -4.78966520E-08
  -2.45999992E-02  -7.01055072E-08
  -2.45500002E-02  -8.19009358E-08
  -2.44999994E-02  -7.71087443E-08
  -2.44500004E-02  -5.67149065E-08
  -2.43999995E-02  -2.86081594E-08
  -2.43500005E-02  -4.21173185E-09
  -2.42999997E-02   6.56333965E-09
  -2.42500007E-02  -1.82198506E-10
  -2.41999999E-02  -2.04217869E-08
  -2.41500009E-02  -4.38035812E-08
  -2.41000000E-02  -5.81380917E-08
  -2.40499992E-02  -5.48307462E-08
  -2.40000002E-02  -3.28420988E-08
  -2.39499994E-02   6.41956377E-10
  -2.39000004E-02   3.32154215E-08
  -2.38499995E-02   5.26762598E-08
  -2.38000005E-02   5.24943324E-08
  -2.37499997E-02   3.48692666E-08
  -2.37000007E-02   9.94603688E-09
  -2.36499999E-02  -8.55363336E-09
  -2.36000009E-02  -9.40986311E-09
  -2.35500000E-02   1.09940137E-08
  -2.34999992E-02   4.68601975E-08
  -2.34500002E-02   8.53461444E-08
  -2.33999994E-02   1.12149884E-07
  -2.33500004E-02   1.17879431E-07
  -2.32999995E-02   1.02365583E-07
  -2.32500006E-02   7.49350093E-08
  -2.31999997E-02   5.04280564E-08
  -2.31500007E-02   4.26506972E-08
  -2.30999999E-02   5.81397934E-08
  -2.30500009E-02   9.30462321E-08
  -2.30000000E-02   1.34603994E-07
  -2.29499992E-02   1.66628737E-07
  -2.29000002E-02   1.76669460E-07
  -2.28499994E-02   1.61643058E-07
  -2.28000004E-02   1.29393442E-07
  -2.27499995E-02   9.53889128E-08
  -2.27000006E-02   7.59354890E-08
  -2.26499997E-02   8.08754379E-08
  -2.26000007E-02   1.09032840E-07
  -2.25499999E-02   1.48505237E-07
  -2.25000009E-02   1.81770019E-07
  -2.24500000E-02   1.93414976E-07
  -2.23999992E-02   1.77080338E-07
  -2.23500002E-02   1.38485248E-07
  -2.22999994E-02   9.31027557E-08
  -2.22500004E-02   5.94184257E-08
  -2.21999995E-02   5.07060989E-08
  -2.21500006E-02   6.89766182E-08
  -2.20999997E-02   1.03852123E-07
  -2.20500007E-02   1.36965028E-07
  -2.19999999E-02   1.50016831E-07
  -2.19500009E-02   1.32956657E-07
  -2.19000001E-02   8.86200624E-08
  -2.18499992E-02   3.16872715E-08
  -2.18000002E-02  -1.76749868E-08
  -2.17499994E-02  -4.27354081E-08
  -2.17000004E-02  -3.77341038E-08
  -2.16499995E-02  -1.06340341E-08
  -2.16000006E-02   2.02265351E-08
  -2.15499997E-02   3.41861970E-08
  -2.15000007E-02   1.74917272E-08
  -2.14499999E-02  -3.04049834E-08
  -2.14000009E-02  -9.63525508E-08
  -2.13500001E-02  -1.59125221E-07
  -2.12999992E-02  -1.98749717E-07
  -2.12500002E-02  -2.05419241E-07
  -2.11999994E-02  -1.83999148E-07
  -2.11500004E-02  -1.52039533E-07
  -2.10999995E-02  -1.32084210E-07
  -2.10500006E-02  -1.41630906E-07
  -2.09999997E-02  -1.85198871E-07
  -2.09500007E-02  -2.52083026E-07
  -2.08999999E-02  -3.20880730E-07
  -2.08500009E-02  -3.68862288E-07
  -2.08000001E-02  -3.82059540E-07
  -2.07499992E-02  -3.61569079E-07
  -2.07000002E-02  -3.23198833E-07
  -2.06499994E-02  -2.90526771E-07
  -2.06000004E-02  -2.84390097E-07
  -2.05499995E-02  -3.13462266E-07
  -2.05000006E-02  -3.70148513E-07
  -2.04499997E-02  -4.33704656E-07
  -2.04000007E-02  -4.79277219E-07
  -2.03499999E-02  -4.88896262E-07
  -2.03000009E-02  -4.59529616E-07
  -2.02500001E-02  -4.04564105E-07
  -2.01999992E-02  -3.47974293E-07
  -2.01500002E-02  -3.13703481E-07
  -2.00999994E-02  -3.14948693E-07
  -2.00500004E-02  -3.48137036E-07
  -1.99999996E-02  -3.94334251E-07
  -1.99500006E-02  -4.27530381E-07
  -1.98999997E-02  -4.26167873E-07
  -1.98500007E-02  -3.82791114E-07
  -1.97999999E-02  -3.07486033E-07
  -1.97500009E-02  -2.23516793E-07
  -1.97000001E-02  -1.57037036E-07
  -1.96499992E-02  -1.25423142E-07
  -1.96000002E-02  -1.29432252E-07
  -1.95499994E-02  -1.52722933E-07
  -1.95000004E-02  -1.69014868E-07
  -1.94499996E-02  -1.53751301E-07
  -1.94000006E-02  -9.50907975E-08
  -1.93499997E-02   6.83974710E-10
  -1.93000007E-02   1.11796147E-07
  -1.92499999E-02   2.10524377E-07
  -1.92000009E-02   2.75453800E-07
  -1.91500001E-02   3.00973824E-07
  -1.90999992E-02   2.99768999E-07
  -1.90500002E-02   2.97152667E-07
  -1.89999994E-02   3.19729367E-07
  -1.89500004E-02   3.83422304E-07
  -1.88999996E-02   4.86210240E-07
  -1.88500006E-02   6.08839855E-07
  -1.87999997E-02   7.23231494E-07
  -1.87500007E-02   8.04855858E-07
  -1.86999999E-02   8.43570717E-07
  -1.86500009E-02   8.48073853E-07
  -1.86000001E-02   8.41958524E-07
  -1.85499992E-02   8.53103870E-07
  -1.85000002E-02   9.01114163E-07
  -1.84499994E-02   9.88409056E-07
  -1.84000004E-02   1.09894745E-06
  -1.83499996E-02   1.20517086E-06
  -1.83000006E-02   1.28008185E-06
  -1.82499997E-02   1.30908086E-06
  -1.82000007E-02   1.29627858E-06
  -1.81499999E-02   1.26246641E-06
  -1.81000009E-02   1.23565269E-06
  -1.80500001E-02   1.23838743E-06
  -1.79999992E-02   1.27752935E-06
  -1.79500002E-02   1.34102595E-06
  -1.78999994E-02   1.40313773E-06
  -1.78500004E-02   1.43576494E-06
  -1.77999996E-02   1.42081728E-06
  -1.77500006E-02   1.35810910E-06
  -1.76999997E-02   1.26525663E-06
  -1.76500008E-02   1.16965202E-06
  -1.75999999E-02   1.09610676E-06
  -1.75500009E-02   1.05567938E-06
  -1.75000001E-02   1.04067817E-06
  -1.74499992E-02   1.02803199E-06
  -1.74000002E-02   9.89497266E-07
  -1.73499994E-02   9.04112994E-07
  -1.73000004E-02   7.67339657E-07
  -1.72499996E-02   5.92836670E-07
  -1.72000006E-02   4.06114481E-07
  -1.71499997E-02   2.32961384E-07
  -1.71000008E-02   8.78386217E-08
  -1.70499999E-02  -3.25768106E-08
  -1.70000009E-02  -1.47850187E-07
  -1.69500001E-02  -2.85000908E-07
  -1.68999992E-02  -4.66435154E-07
  -1.68500002E-02  -7.00016699E-07
  -1.67999994E-02  -9.75688408E-07
  -1.67500004E-02  -1.27010094E-06
  -1.66999996E-02  -1.55710291E-06
  -1.66500006E-02  -1.81936082E-06
  -1.65999997E-02  -2.05593437E-06
  -1.65500008E-02  -2.28243971E-06
  -1.64999999E-02  -2.52384530E-06
  -1.64500009E-02  -2.80317204E-06
  -1.64000001E-02  -3.13118380E-06
  -1.63499992E-02  -3.50171558E-06
  -1.63000003E-02  -3.89458364E-06
  -1.62499994E-02  -4.28468638E-06
  -1.62000004E-02  -4.65318590E-06
  -1.61499996E-02  -4.99570797E-06
  -1.61000006E-02  -5.32393324E-06
  -1.60499997E-02  -5.65998107E-06
  -1.60000008E-02  -6.02618729E-06
  -1.59499999E-02  -6.43494650E-06
  -1.59000009E-02  -6.88318187E-06
  -1.58500001E-02  -7.35376989E-06
  -1.57999992E-02  -7.82322149E-06
  -1.57500003E-02  -8.27208896E-06
  -1.56999994E-02  -8.69332871E-06
  -1.56500004E-02  -9.09498613E-06
  -1.55999996E-02  -9.49607056E-06
  -1.55499997E-02  -9.91764409E-06
  -1.54999997E-02  -1.03732154E-05
  -1.54499998E-02  -1.08627264E-05
  -1.53999999E-02  -1.13727801E-05
  -1.53500000E-02  -1.18828575E-05
  -1.53000001E-02  -1.23746095E-05
  -1.52500002E-02  -1.28399142E-05
  -1.52000003E-02  -1.32841305E-05
  -1.51500003E-02  -1.37231764E-05
  -1.51000004E-02  -1.41759874E-05
  -1.50499996E-02  -1.46557722E-05
  -1.49999997E-02  -1.51640916E-05
  -1.49499997E-02  -1.56903589E-05
  -1.48999998E-02  -1.62168635E-05
  -1.48499999E-02  -1.67269263E-05
  -1.48000000E-02  -1.72122727E-05
  -1.47500001E-02  -1.76764006E-05
  -1.47000002E-02  -1.81326213E-05
  -1.46500003E-02  -1.85976351E-05
  -1.46000003E-02  -1.90838527E-05
  -1.45500004E-02  -1.95939629E-05
  -1.44999996E-02  -2.01201638E-05
  -1.44499997E-02  -2.06482619E-05
  -1.43999998E-02  -2.11645347E-05
  -1.43499998E-02  -2.16621938E-05
  -1.42999999E-02  -2.21444625E-05
  -1.42500000E-02  -2.26228658E-05
  -1.42000001E-02  -2.31117374E-05
  -1.41500002E-02  -2.36217384E-05
  -1.41000003E-02  -2.41552098E-05
  -1.40500003E-02  -2.47056632E-05
  -1.40000004E-02  -2.52614827E-05
  -1.39499996E-02  -2.58117743E-05
  -1.38999997E-02  -2.63517632E-05
  -1.38499998E-02  -2.68850890E-05
  -1.37999998E-02  -2.74221438E-05
  -1.37499999E-02  -2.79751603E-05
  -1.37000000E-02  -2.85526185E-05
  -1.36500001E-02  -2.91557571E-05
  -1.36000002E-02  -2.97787137E-05
  -1.35500003E-02  -3.04121259E-05
  -1.35000004E-02  -3.10484102E-05
  -1.34500004E-02  -3.16860969E-05
  -1.33999996E-02  -3.23310451E-05
  -1.33499997E-02  -3.29939176E-05
  -1.32999998E-02  -3.36853664E-05
  -1.32499998E-02  -3.44113469E-05
  -1.31999999E-02  -3.51706367E-05
  -1.31500000E-02  -3.59560618E-05
  -1.31000001E-02  -3.67587345E-05
  -1.30500002E-02  -3.75731761E-05
  -1.30000003E-02  -3.84007762E-05
  -1.29500004E-02  -3.92498769E-05
  -1.29000004E-02  -4.01323232E-05
  -1.28499996E-02  -4.10580069E-05
  -1.27999997E-02  -4.20304350E-05
  -1.27499998E-02  -4.30454347E-05
  -1.26999998E-02  -4.40936528E-05
  -1.26499999E-02  -4.51657652E-05
  -1.26000000E-02  -4.62579701E-05
  -1.25500001E-02  -4.73751934E-05
  -1.25000002E-02  -4.85295932E-05
  -1.24500003E-02  -4.97355904E-05
  -1.24000004E-02  -5.10038517E-05
  -1.23500004E-02  -5.23362942E-05
  -1.22999996E-02  -5.37254527E-05
  -1.22499997E-02  -5.51584817E-05
  -1.21999998E-02  -5.66239760E-05
  -1.21499998E-02  -5.81182794E-05
  -1.20999999E-02  -5.96482896E-05
  -1.20500000E-02  -6.12293879E-05
  -1.20000001E-02  -6.28790076E-05
  -1.19500002E-02  -6.46086701E-05
  -1.19000003E-02  -6.64185354E-05
  -1.18500004E-02  -6.82974642E-05
  -1.18000004E-02  -7.02282050E-05
  -1.17499996E-02  -7.21959295E-05
  -1.16999997E-02  -7.41960393E-05
  -1.16499998E-02  -7.62375421E-05
  -1.15999999E-02  -7.83402720E-05
  -1.15499999E-02  -8.05267264E-05
  -1.15000000E-02  -8.28123011E-05
  -1.14500001E-02  -8.51983277E-05
  -1.14000002E-02  -8.76714694E-05
  -1.13500003E-02  -9.02102547E-05
  -1.13000004E-02  -9.27952424E-05
  -1.12500004E-02  -9.54186908E-05
  -1.11999996E-02  -9.80892510E-05
  -1.11499997E-02  -1.00829187E-04
  -1.10999998E-02  -1.03664694E-04
  -1.10499999E-02  -1.06614083E-04
  -1.09999999E-02  -1.09679568E-04
  -1.09500000E-02  -1.12845759E-04
  -1.09000001E-02  -1.16086689E-04
  -1.08500002E-02  -1.19378266E-04
  -1.08000003E-02  -1.22710044E-04
  -1.07500004E-02  -1.26091458E-04
  -1.07000005E-02  -1.29548978E-04
  -1.06499996E-02  -1.33115478E-04
  -1.05999997E-02  -1.36816365E-04
  -1.05499998E-02  -1.40658216E-04
  -1.04999999E-02  -1.44626058E-04
  -1.04499999E-02  -1.48690626E-04
  -1.04000000E-02  -1.52822206E-04
  -1.03500001E-02  -1.57004863E-04
  -1.03000002E-02  -1.61244752E-04
  -1.02500003E-02  -1.65569014E-04
  -1.02000004E-02  -1.70014362E-04
  -1.01500005E-02  -1.74611268E-04
  -1.00999996E-02  -1.79370225E-04
  -1.00499997E-02  -1.84277131E-04
  -9.99999978E-03  -1.89300277E-04
  -9.94999986E-03  -1.94404507E-04
  -9.89999995E-03  -1.99568574E-04
  -9.85000003E-03  -2.04796248E-04
  -9.80000012E-03  -2.10116239E-04
  -9.75000020E-03  -2.15570704E-04
  -9.70000029E-03  -2.21197755E-04
  -9.65000037E-03  -2.27015465E-04
  -9.60000046E-03  -2.33014274E-04
  -9.54999961E-03  -2.39162255E-04
  -9.49999969E-03  -2.45420699E-04
  -9.44999978E-03  -2.51763850E-04
  -9.39999986E-03  -2.58191925E-04
  -9.34999995E-03  -2.64733331E-04
  -9.30000003E-03  -2.71433761E-04
  -9.25000012E-03  -2.78336491E-04
  -9.20000020E-03  -2.85464659E-04
  -9.15000029E-03  -2.92811077E-04
  -9.10000037E-03  -3.00342246E-04
  -9.05000046E-03  -3.08014452E-04
  -8.99999961E-03  -3.15795216E-04
  -8.94999970E-03  -3.23678367E-04
  -8.89999978E-03  -3.31688818E-04
  -8.84999987E-03  -3.39874125E-04
  -8.79999995E-03  -3.48284200E-04
  -8.75000004E-03  -3.56950011E-04
  -8.70000012E-03  -3.65871936E-04
  -8.65000021E-03  -3.75021424E-04
  -8.60000029E-03  -3.84355313E-04
  -8.55000038E-03  -3.93836730E-04
  -8.50000046E-03  -4.03454789E-04
  -8.44999962E-03  -4.13232687E-04
  -8.39999970E-03  -4.23219666E-04
  -8.34999979E-03  -4.33471054E-04
  -8.29999987E-03  -4.44023899E-04
  -8.24999996E-03  -4.54884314E-04
  -8.20000004E-03  -4.66026133E-04
  -8.15000013E-03  -4.77404130E-04
  -8.10000021E-03  -4.88976133E-04
  -8.05000030E-03  -5.00723836E-04
  -8.00000038E-03  -5.12664148E-04
  -7.95000046E-03  -5.24842879E-04
  -7.89999962E-03  -5.37316315E-04
  -7.84999970E-03  -5.50128345E-04
  -7.79999979E-03  -5.63290610E-04
  -7.74999987E-03  -5.76779712E-04
  -7.69999996E-03  -5.90550946E-04
  -7.65000004E-03  -6.04560017E-04
  -7.60000013E-03  -6.18786027E-04
  -7.55000021E-03  -6.33242424E-04
  -7.49999983E-03  -6.47975714E-04
  -7.44999992E-03  -6.63045445E-04
  -7.40000000E-03  -6.78502081E-04
  -7.35000009E-03  -6.94365124E-04
  -7.30000017E-03  -7.10615073E-04
  -7.24999979E-03  -7.27207342E-04
  -7.19999988E-03  -7.44094956E-04
  -7.14999996E-03  -7.61252886E-04
  -7.10000005E-03  -7.78690970E-04
  -7.05000013E-03  -7.96452630E-04
  -7.00000022E-03  -8.14599218E-04
  -6.94999984E-03  -8.33183178E-04
  -6.89999992E-03  -8.52225756E-04
  -6.85000001E-03  -8.71710770E-04
  -6.80000009E-03  -8.91594100E-04
  -6.75000018E-03  -9.11828130E-04
  -6.69999979E-03  -9.32385330E-04
  -6.64999988E-03  -9.53272567E-04
  -6.59999996E-03  -9.74530762E-04
  -6.55000005E-03  -9.96218296E-04
  -6.50000013E-03  -1.01838738E-03
  -6.45000022E-03  -1.04106381E-03
  -6.39999984E-03  -1.06423756E-03
  -6.34999992E-03  -1.08786859E-03
  -6.30000001E-03  -1.11191208E-03
  -6.25000009E-03  -1.13633962E-03
  -6.20000018E-03  -1.16115517E-03
  -6.14999980E-03  -1.18640182E-03
  -6.09999988E-03  -1.21214171E-03
  -6.04999997E-03  -1.23842654E-03
  -6.00000005E-03  -1.26527983E-03
  -5.95000014E-03  -1.29269517E-03
  -5.90000022E-03  -1.32063916E-03
  -5.84999984E-03  -1.34907058E-03
  -5.79999993E-03  -1.37796102E-03
  -5.75000001E-03  -1.40731095E-03
  -5.70000010E-03  -1.43715600E-03
  -5.65000018E-03  -1.46755413E-03
  -5.59999980E-03  -1.49856217E-03
  -5.54999989E-03  -1.53020828E-03
  -5.49999997E-03  -1.56248582E-03
  -5.45000006E-03  -1.59535778E-03
  -5.40000014E-03  -1.62877946E-03
  -5.35000023E-03  -1.66272430E-03
  -5.29999984E-03  -1.69719767E-03
  -5.24999993E-03  -1.73224160E-03
  -5.20000001E-03  -1.76791591E-03
  -5.15000010E-03  -1.80427474E-03
  -5.10000018E-03  -1.84134615E-03
  -5.04999980E-03  -1.87912374E-03
  -4.99999989E-03  -1.91757199E-03
  -4.94999997E-03  -1.95664889E-03
  -4.90000006E-03  -1.99633255E-03
  -4.85000014E-03  -2.03663134E-03
  -4.80000023E-03  -2.07758951E-03
  -4.74999985E-03  -2.11927178E-03
  -4.69999993E-03  -2.16173148E-03
  -4.65000002E-03  -2.20499025E-03
  -4.60000010E-03  -2.24903738E-03
  -4.55000019E-03  -2.29383865E-03
  -4.49999981E-03  -2.33935006E-03
  -4.44999989E-03  -2.38554366E-03
  -4.39999998E-03  -2.43242807E-03
  -4.35000006E-03  -2.48004519E-03
  -4.30000015E-03  -2.52846186E-03
  -4.25000023E-03  -2.57774349E-03
  -4.19999985E-03  -2.62791896E-03
  -4.14999994E-03  -2.67897337E-03
  -4.10000002E-03  -2.73086247E-03
  -4.05000011E-03  -2.78353156E-03
  -4.00000019E-03  -2.83695082E-03
  -3.94999981E-03  -2.89113354E-03
  -3.89999989E-03  -2.94613745E-03
  -3.84999998E-03  -3.00204381E-03
  -3.80000006E-03  -3.05891992E-03
  -3.74999992E-03  -3.11679719E-03
  -3.70000000E-03  -3.17565654E-03
  -3.65000009E-03  -3.23543954E-03
  -3.59999994E-03  -3.29608191E-03
  -3.55000002E-03  -3.35754943E-03
  -3.50000011E-03  -3.41986096E-03
  -3.44999996E-03  -3.48307448E-03
  -3.40000005E-03  -3.54727311E-03
  -3.34999990E-03  -3.61252134E-03
  -3.29999998E-03  -3.67885269E-03
  -3.25000007E-03  -3.74625903E-03
  -3.19999992E-03  -3.81466886E-03
  -3.15000000E-03  -3.88401258E-03
  -3.10000009E-03  -3.95425363E-03
  -3.04999994E-03  -4.02538804E-03
  -3.00000003E-03  -4.09747055E-03
  -2.95000011E-03  -4.17059613E-03
  -2.89999996E-03  -4.24485281E-03
  -2.85000005E-03  -4.32029506E-03
  -2.79999990E-03  -4.39691078E-03
  -2.74999999E-03  -4.47462453E-03
  -2.70000007E-03  -4.55335015E-03
  -2.64999992E-03  -4.63302247E-03
  -2.60000001E-03  -4.71363124E-03
  -2.55000009E-03  -4.79523232E-03
  -2.49999994E-03  -4.87792818E-03
  -2.45000003E-03  -4.96183103E-03
  -2.40000011E-03  -5.04700746E-03
  -2.34999997E-03  -5.13345329E-03
  -2.30000005E-03  -5.22108003E-03
  -2.24999990E-03  -5.30975685E-03
  -2.19999999E-03  -5.39939292E-03
  -2.15000007E-03  -5.48997894E-03
  -2.09999993E-03  -5.58156334E-03
  -2.05000001E-03  -5.67426719E-03
  -2.00000009E-03  -5.76822646E-03
  -1.94999995E-03  -5.86352451E-03
  -1.90000003E-03  -5.96016692E-03
  -1.85000000E-03  -6.05806336E-03
  -1.79999997E-03  -6.15706993E-03
  -1.75000005E-03  -6.25706790E-03
  -1.70000002E-03  -6.35800650E-03
  -1.64999999E-03  -6.45992812E-03
  -1.59999996E-03  -6.56296965E-03
  -1.55000004E-03  -6.66727964E-03
  -1.50000001E-03  -6.77296659E-03
  -1.44999998E-03  -6.88006589E-03
  -1.39999995E-03  -6.98848488E-03
  -1.35000004E-03  -7.09805870E-03
  -1.30000000E-03  -7.20862811E-03
  -1.24999997E-03  -7.32010184E-03
  -1.20000006E-03  -7.43250968E-03
  -1.15000003E-03  -7.54598528E-03
  -1.09999999E-03  -7.66071724E-03
  -1.04999996E-03  -7.77688203E-03
  -1.00000005E-03  -7.89453369E-03
  -9.50000016E-04  -8.01355951E-03
  -8.99999985E-04  -8.13376345E-03
  -8.50000011E-04  -8.25493690E-03
  -7.99999980E-04  -8.37691687E-03
  -7.50000007E-04  -8.49970803E-03
  -6.99999975E-04  -8.62348359E-03
  -6.50000002E-04  -8.74846801E-03
  -6.00000028E-04  -8.87486245E-03
  -5.49999997E-04  -9.00276750E-03
  -5.00000024E-04  -9.13208909E-03
  -4.49999992E-04  -9.26258601E-03
  -3.99999990E-04  -9.39400401E-03
  -3.49999988E-04  -9.52617079E-03
  -3.00000014E-04  -9.65905096E-03
  -2.50000012E-04  -9.79280192E-03
  -1.99999995E-04  -9.92769748E-03
  -1.50000007E-04  -1.00639546E-02
  -9.99999975E-05  -1.02016646E-02
  -4.99999987E-05  -1.03407586E-02
   0.00000000      -1.04810037E-02
   4.99999987E-05  -1.06220879E-02
   9.99999975E-05  -1.07638212E-02
   1.50000007E-04  -1.09061608E-02
   1.99999995E-04  -1.10492129E-02
   2.50000012E-04  -1.11932363E-02
   3.00000014E-04  -1.13384705E-02
   3.49999988E-04  -1.14850514E-02
   3.99999990E-04  -1.16329277E-02
   4.49999992E-04  -1.17818797E-02
   5.00000024E-04  -1.19316038E-02
   5.49999997E-04  -1.20818503E-02
   6.00000028E-04  -1.22325178E-02
   6.50000002E-04  -1.23836938E-02
   6.99999975E-04  -1.25356214E-02
   7.50000007E-04  -1.26885502E-02
   7.99999980E-04  -1.28426887E-02
   8.50000011E-04  -1.29980547E-02
   8.99999985E-04  -1.31544238E-02
   9.50000016E-04  -1.33114383E-02
   1.00000005E-03  -1.34687861E-02
   1.04999996E-03  -1.36263026E-02
   1.09999999E-03  -1.37840007E-02
   1.15000003E-03  -1.39421243E-02
   1.20000006E-03  -1.41010070E-02
   1.24999997E-03  -1.42609039E-02
   1.30000000E-03  -1.44218709E-02
   1.35000004E-03  -1.45836947E-02
   1.39999995E-03  -1.47459628E-02
   1.44999998E-03  -1.49082923E-02
   1.50000001E-03  -1.50704738E-02
   1.55000004E-03  -1.52325323E-02
   1.59999996E-03  -1.53946867E-02
   1.64999999E-03  -1.55572575E-02
   1.70000002E-03  -1.57205369E-02
   1.75000005E-03  -1.58845708E-02
   1.79999997E-03  -1.60491541E-02
   1.85000000E-03  -1.62139479E-02
   1.90000003E-03  -1.63786039E-02
   1.94999995E-03  -1.65428184E-02
   2.00000009E-03  -1.67064741E-02
   2.05000001E-03  -1.68697685E-02
   2.09999993E-03  -1.70330349E-02
   2.15000007E-03  -1.71965752E-02
   2.19999999E-03  -1.73605364E-02
   2.24999990E-03  -1.75248105E-02
   2.30000005E-03  -1.76890772E-02
   2.34999997E-03  -1.78528409E-02
   2.40000011E-03  -1.80157106E-02
   2.45000003E-03  -1.81775335E-02
   2.49999994E-03  -1.83384027E-02
   2.55000009E-03  -1.84986833E-02
   2.60000001E-03  -1.86587311E-02
   2.64999992E-03  -1.88187864E-02
   2.70000007E-03  -1.89787913E-02
   2.74999999E-03  -1.91384219E-02
   2.79999990E-03  -1.92971919E-02