  -3.99999991E-02   0.00000000    
  -3.99499983E-02   0.00000000    
  -3.99000011E-02   0.00000000    
  -3.98500003E-02   0.00000000    
  -3.97999994E-02   2.36637245E-18
  -3.97499986E-02   1.85005413E-17
  -3.97000015E-02   7.36491177E-17
  -3.96500006E-02   2.02892131E-16
  -3.95999998E-02   4.47695400E-16
  -3.95499989E-02   8.71689600E-16
  -3.95000018E-02   1.58851627E-15
  -3.94500010E-02   2.75940443E-15
  -3.94000001E-02   4.53590802E-15
  -3.93499993E-02   6.99594030E-15
  -3.92999984E-02   1.01546113E-14
  -3.92500013E-02   1.40516142E-14
  -3.92000005E-02   1.88037299E-14
  -3.91499996E-02   2.45316818E-14
  -3.90999988E-02   3.12466727E-14
  -3.90500017E-02   3.89002456E-14
  -3.90000008E-02   4.76553408E-14
  -3.89500000E-02   5.81363503E-14
  -3.88999991E-02   7.13260017E-14
  -3.88499983E-02   8.80741606E-14
  -3.88000011E-02   1.08578633E-13
  -3.87500003E-02   1.32235897E-13
  -3.86999995E-02   1.57898082E-13
  -3.86499986E-02   1.84269267E-13
  -3.86000015E-02   2.10292978E-13
  -3.85500006E-02   2.35668825E-13
  -3.84999998E-02   2.61504197E-13
  -3.84499989E-02   2.90525416E-13
  -3.84000018E-02   3.26016422E-13
  -3.83500010E-02   3.69417821E-13
  -3.83000001E-02   4.17883555E-13
  -3.82499993E-02   4.63686923E-13
  -3.81999984E-02   4.96342876E-13
  -3.81500013E-02   5.06447531E-13
  -3.81000005E-02   4.89193213E-13
  -3.80499996E-02   4.46036898E-13
  -3.79999988E-02   3.84178204E-13
  -3.79500017E-02   3.14087081E-13
  -3.79000008E-02   2.45307599E-13
  -3.78500000E-02   1.81298620E-13
  -3.77999991E-02   1.15528531E-13
  -3.77499983E-02   3.18086384E-14
  -3.77000012E-02  -8.98870076E-14
  -3.76500003E-02  -2.64670284E-13
  -3.75999995E-02  -4.96315012E-13
  -3.75499986E-02  -7.77211845E-13
  -3.75000015E-02  -1.09446946E-12
  -3.74500006E-02  -1.43820708E-12
  -3.73999998E-02  -1.80779664E-12
  -3.73499990E-02  -2.21410151E-12
  -3.73000018E-02  -2.67759035E-12
  -3.72500010E-02  -3.22238568E-12
  -3.72000001E-02  -3.86665222E-12
  -3.71499993E-02  -4.61204599E-12
  -3.70999984E-02  -5.43766074E-12
  -3.70500013E-02  -6.30319104E-12
  -3.70000005E-02  -7.16074726E-12
  -3.69499996E-02  -7.96893281E-12
  -3.68999988E-02  -8.70198965E-12
  -3.68500017E-02  -9.35179798E-12
  -3.68000008E-02  -9.92604610E-12
  -3.67500000E-02  -1.04461786E-11
  -3.66999991E-02  -1.09443010E-11
  -3.66499983E-02  -1.14552213E-11
  -3.66000012E-02  -1.20028926E-11
  -3.65500003E-02  -1.25866262E-11
  -3.64999995E-02  -1.31748596E-11
  -3.64499986E-02  -1.37104304E-11
  -3.64000015E-02  -1.41248298E-11
  -3.63500006E-02  -1.43557232E-11
  -3.62999998E-02  -1.43628156E-11
  -3.62499990E-02  -1.41369009E-11
  -3.62000018E-02  -1.36945568E-11
  -3.61500010E-02  -1.30525001E-11
  -3.61000001E-02  -1.21860924E-11
  -3.60499993E-02  -1.09937294E-11
  -3.59999985E-02  -9.29752629E-12
  -3.59500013E-02  -6.89887210E-12
  -3.59000005E-02  -3.67603430E-12
  -3.58499996E-02   3.20584623E-13
  -3.57999988E-02   4.82898530E-12
  -3.57500017E-02   9.42696355E-12
  -3.57000008E-02   1.36719473E-11
  -3.56500000E-02   1.72862159E-11
  -3.55999991E-02   2.03152929E-11
  -3.55499983E-02   2.31795590E-11
  -3.55000012E-02   2.65658537E-11
  -3.54500003E-02   3.11695218E-11
  -3.53999995E-02   3.73777953E-11
  -3.53499986E-02   4.50410022E-11
  -3.53000015E-02   5.34652565E-11
  -3.52500007E-02   6.16685938E-11
  -3.51999998E-02   6.88110263E-11
  -3.51499990E-02   7.46062864E-11
  -3.51000018E-02   7.95074284E-11
  -3.50500010E-02   8.45431711E-11
  -3.50000001E-02   9.08345413E-11
  -3.49499993E-02   9.89802476E-11
  -3.48999985E-02   1.08594064E-10
  -3.48500013E-02   1.18255308E-10
  -3.48000005E-02   1.25977409E-10
  -3.47499996E-02   1.30054176E-10
  -3.46999988E-02   1.29919964E-10
  -3.46500017E-02   1.26583855E-10
  -3.46000008E-02   1.22342927E-10
  -3.45500000E-02   1.19805929E-10
  -3.44999991E-02   1.20616225E-10
  -3.44499983E-02   1.24466201E-10
  -3.44000012E-02   1.28929839E-10
  -3.43500003E-02   1.30309430E-10
  -3.42999995E-02   1.25225358E-10
  -3.42499986E-02   1.12279776E-10
  -3.42000015E-02   9.29905319E-11
  -3.41500007E-02   7.14259138E-11
  -3.40999998E-02   5.25237666E-11
  -3.40499990E-02   3.97320163E-11
  -3.40000018E-02   3.30469471E-11
  -3.39500010E-02   2.84835801E-11
  -3.39000002E-02   1.94375765E-11
  -3.38499993E-02  -4.82840493E-13
  -3.37999985E-02  -3.43533257E-11
  -3.37500013E-02  -8.00270128E-11
  -3.37000005E-02  -1.30482528E-10
  -3.36499996E-02  -1.76524545E-10
  -3.35999988E-02  -2.10816364E-10
  -3.35500017E-02  -2.31467706E-10
  -3.35000008E-02  -2.43400800E-10
  -3.34500000E-02  -2.56575927E-10
  -3.33999991E-02  -2.81575124E-10
  -3.33499983E-02  -3.24398286E-10
  -3.33000012E-02  -3.82929966E-10
  -3.32500003E-02  -4.46986559E-10
  -3.31999995E-02  -5.02306807E-10
  -3.31499986E-02  -5.36954758E-10
  -3.31000015E-02  -5.47272061E-10
  -3.30500007E-02  -5.40450129E-10
  -3.29999998E-02  -5.32128286E-10
  -3.29499990E-02  -5.39654377E-10
  -3.29000019E-02  -5.73790737E-10
  -3.28500010E-02  -6.32692232E-10
  -3.28000002E-02  -7.01294856E-10
  -3.27499993E-02  -7.56976926E-10
  -3.26999985E-02  -7.79405540E-10
  -3.26500013E-02  -7.60237595E-10
  -3.26000005E-02  -7.07981007E-10
  -3.25499997E-02  -6.45202225E-10
  -3.24999988E-02  -5.98711136E-10
  -3.24500017E-02  -5.86812099E-10
  -3.24000008E-02  -6.09474304E-10
  -3.23500000E-02  -6.46412368E-10
  -3.22999991E-02  -6.64728717E-10
  -3.22499983E-02  -6.33351149E-10
  -3.22000012E-02  -5.38007416E-10
  -3.21500003E-02  -3.89630411E-10
  -3.20999995E-02  -2.21575161E-10
  -3.20499986E-02  -7.59288465E-11
  -3.20000015E-02   1.55229683E-11
  -3.19500007E-02   4.70752846E-11
  -3.18999998E-02   4.38455522E-11
  -3.18499990E-02   5.22929963E-11
  -3.18000019E-02   1.19878482E-10
  -3.17500010E-02   2.72644435E-10
  -3.17000002E-02   5.01171049E-10
  -3.16499993E-02   7.62177765E-10
  -3.15999985E-02   9.96191907E-10
  -3.15500014E-02   1.15415466E-09
  -3.15000005E-02   1.22103738E-09
  -3.14499997E-02   1.22502930E-09
  -3.13999988E-02   1.22683164E-09
  -3.13500017E-02   1.29265421E-09
  -3.13000008E-02   1.46252577E-09
  -3.12500000E-02   1.72865955E-09
  -3.11999992E-02   2.03493045E-09
  -3.11500002E-02   2.29926722E-09
  -3.10999993E-02   2.45001042E-09
  -3.10500003E-02   2.46003329E-09
  -3.09999995E-02   2.36234476E-09
  -3.09500005E-02   2.23850516E-09
  -3.08999997E-02   2.18340857E-09
  -3.08500007E-02   2.26135177E-09
  -3.07999998E-02   2.47346232E-09
  -3.07500008E-02   2.75259904E-09
  -3.07000000E-02   2.99000114E-09
  -3.06499992E-02   3.08327097E-09
  -3.06000002E-02   2.98446556E-09
  -3.05499993E-02   2.72564082E-09
  -3.05000003E-02   2.40836107E-09
  -3.04499995E-02   2.15980611E-09
  -3.04000005E-02   2.07404671E-09
  -3.03499997E-02   2.16513629E-09
  -3.03000007E-02   2.35474151E-09
  -3.02499998E-02   2.50223953E-09
  -3.02000009E-02   2.46587017E-09
  -3.01500000E-02   2.16829288E-09
  -3.00999992E-02   1.63616842E-09
  -3.00500002E-02   9.93749194E-10
  -2.99999993E-02   4.10807083E-10
  -2.99500003E-02   2.66107986E-11
  -2.98999995E-02  -1.15881818E-10
  -2.98500005E-02  -9.43517764E-11
  -2.97999997E-02  -7.63294705E-11
  -2.97500007E-02  -2.44788106E-10
  -2.96999998E-02  -7.12591708E-10
  -2.96500009E-02  -1.46508572E-09
  -2.96000000E-02  -2.35908315E-09
  -2.95499992E-02  -3.18165272E-09
  -2.95000002E-02  -3.74449671E-09
  -2.94499993E-02  -3.97183175E-09
  -2.94000003E-02  -3.94050925E-09
  -2.93499995E-02  -3.85122467E-09
  -2.93000005E-02  -3.94063893E-09
  -2.92499997E-02  -4.37232339E-09
  -2.92000007E-02  -5.15625187E-09
  -2.91499998E-02  -6.13564355E-09
  -2.91000009E-02  -7.05042691E-09
  -2.90500000E-02  -7.65146968E-09
  -2.89999992E-02  -7.81499665E-09
  -2.89500002E-02  -7.60423902E-09
  -2.88999993E-02  -7.24737115E-09
  -2.88500004E-02  -7.03813763E-09
  -2.87999995E-02  -7.20156468E-09
  -2.87500005E-02  -7.78529330E-09
  -2.86999997E-02  -8.62794813E-09
  -2.86500007E-02  -9.42270884E-09
  -2.85999998E-02  -9.85091653E-09
  -2.85500009E-02  -9.72701653E-09
  -2.85000000E-02  -9.08847664E-09
  -2.84499992E-02  -8.18696400E-09
  -2.84000002E-02  -7.38079864E-09
  -2.83499993E-02  -6.97423053E-09
  -2.83000004E-02  -7.07513337E-09
  -2.82499995E-02  -7.53718865E-09
  -2.82000005E-02  -8.01623568E-09
  -2.81499997E-02  -8.11927325E-09
  -2.81000007E-02  -7.58146523E-09
  -2.80499998E-02  -6.39105036E-09
  -2.80000009E-02  -4.80302553E-09
  -2.79500000E-02  -3.23135385E-09
  -2.78999992E-02  -2.06485229E-09
  -2.78500002E-02  -1.48866330E-09
  -2.77999993E-02  -1.39336864E-09
  -2.77500004E-02  -1.41620426E-09
  -2.76999995E-02  -1.09980491E-09
  -2.76500005E-02  -1.00011083E-10
  -2.75999997E-02   1.65056424E-09
  -2.75500007E-02   3.89944432E-09
  -2.74999999E-02   6.17524210E-09
  -2.74500009E-02   7.99161359E-09
  -2.74000000E-02   9.06464148E-09
  -2.73499992E-02   9.44497991E-09
  -2.73000002E-02   9.50200896E-09
  -2.72499993E-02   9.76271242E-09
  -2.72000004E-02   1.06740448E-08
  -2.71499995E-02   1.23945414E-08
  -2.71000005E-02   1.47106478E-08
  -2.70499997E-02   1.71192998E-08
  -2.70000007E-02   1.90439273E-08
  -2.69499999E-02   2.00899279E-08
  -2.69000009E-02   2.02252046E-08
  -2.68500000E-02   1.98019521E-08
  -2.67999992E-02   1.94054568E-08
  -2.67500002E-02   1.95932550E-08
  -2.66999993E-02   2.06393196E-08
  -2.66500004E-02   2.23988579E-08
  -2.65999995E-02   2.43580054E-08
  -2.65500005E-02   2.58509214E-08
  -2.64999997E-02   2.63509001E-08
  -2.64500007E-02   2.57066013E-08
  -2.63999999E-02   2.42161775E-08
  -2.63500009E-02   2.25022525E-08
  -2.63000000E-02   2.12391367E-08
  -2.62499992E-02   2.08509192E-08
  -2.62000002E-02   2.13147597E-08
  -2.61499994E-02   2.21599468E-08
  -2.61000004E-02   2.26673613E-08
  -2.60499995E-02   2.21849064E-08
  -2.60000005E-02   2.04207176E-08
  -2.59499997E-02   1.75823853E-08
  -2.59000007E-02   1.42965719E-08
  -2.58499999E-02   1.13399716E-08
  -2.58000009E-02   9.29718791E-09
  -2.57500000E-02   8.29687163E-09
  -2.56999992E-02   7.94535016E-09
  -2.56500002E-02   7.49108064E-09
  -2.55999994E-02   6.15243501E-09
  -2.55500004E-02   3.46685258E-09
  -2.54999995E-02  -4.93060703E-10
  -2.54500005E-02  -5.13485121E-09
  -2.53999997E-02  -9.59200985E-09
  -2.53500007E-02  -1.30968525E-08
  -2.52999999E-02  -1.53176831E-08
  -2.52500009E-02  -1.65099046E-08
  -2.52000000E-02  -1.74093930E-08
  -2.51499992E-02  -1.89100078E-08
  -2.51000002E-02  -2.16632845E-08
  -2.50499994E-02  -2.57749324E-08
  -2.50000004E-02  -3.07345154E-08
  -2.49499995E-02  -3.56151553E-08
  -2.49000005E-02  -3.94626234E-08
  -2.48499997E-02  -4.17070858E-08
  -2.48000007E-02  -4.24169677E-08
  -2.47499999E-02  -4.22791580E-08
  -2.47000009E-02  -4.23066950E-08
  -2.46500000E-02  -4.33955023E-08
  -2.45999992E-02  -4.59215634E-08
  -2.45500002E-02  -4.95571300E-08
  -2.44999994E-02  -5.33921458E-08
  -2.44500004E-02  -5.63150344E-08
  -2.43999995E-02  -5.74920200E-08
  -2.43500005E-02  -5.67370186E-08
  -2.42999997E-02  -5.46069749E-08
  -2.42500007E-02  -5.21729895E-08
  -2.41999999E-02  -5.05583309E-08
  -2.41500009E-02  -5.04400930E-08
  -2.41000000E-02  -5.17328438E-08
  -2.40499992E-02  -5.35999831E-08
  -2.40000002E-02  -5.47978729E-08
  -2.39499994E-02  -5.42107976E-08
  -2.39000004E-02  -5.13464506E-08
  -2.38499995E-02  -4.65721222E-08
  -2.38000005E-02  -4.09797636E-08
  -2.37499997E-02  -3.59273571E-08
  -2.37000007E-02  -3.24491509E-08
  -2.36499999E-02  -3.07906056E-08
  -2.36000009E-02  -3.02772207E-08
  -2.35500000E-02  -2.95873619E-08
  -2.34999992E-02  -2.73220504E-08
  -2.34500002E-02  -2.26292300E-08
  -2.33999994E-02  -1.56072666E-08
  -2.33500004E-02  -7.30080219E-09
  -2.32999995E-02   7.22914062E-10
  -2.32500006E-02   7.04501302E-09
  -2.31999997E-02   1.10234000E-08
  -2.31500007E-02   1.30970417E-08
  -2.30999999E-02   1.46197143E-08
  -2.30500009E-02   1.72790742E-08
  -2.30000000E-02   2.23454339E-08
  -2.29499992E-02   3.00783931E-08
  -2.29000002E-02   3.95596125E-08
  -2.28499994E-02   4.90439511E-08
  -2.28000004E-02   5.66922509E-08
  -2.27499995E-02   6.13728659E-08
  -2.27000006E-02   6.31768700E-08
  -2.26499997E-02   6.34052455E-08
  -2.26000007E-02   6.40154099E-08
  -2.25499999E-02   6.67555113E-08
  -2.25000009E-02   7.23620559E-08
  -2.24500000E-02   8.01827440E-08
  -2.23999992E-02   8.84086049E-08
  -2.23500002E-02   9.48331618E-08
  -2.22999994E-02   9.78179742E-08
  -2.22500004E-02   9.70389777E-08
  -2.21999995E-02   9.36706144E-08
  -2.21500006E-02   8.99041694E-08
  -2.20999997E-02   8.79928450E-08
  -2.20500007E-02   8.92362593E-08
  -2.19999999E-02   9.33595103E-08
  -2.19500009E-02   9.85805428E-08
  -2.19000001E-02   1.02359074E-07
  -2.18499992E-02   1.02513177E-07
  -2.18000002E-02   9.82124320E-08
  -2.17499994E-02   9.03963908E-08
  -2.17000004E-02   8.14095742E-08
  -2.16499995E-02   7.39917780E-08
  -2.16000006E-02   7.00571405E-08
  -2.15499997E-02   6.98059637E-08
  -2.15000007E-02   7.15840685E-08
  -2.14499999E-02   7.25783877E-08
  -2.14000009E-02   7.00617520E-08
  -2.13500001E-02   6.26424921E-08
  -2.12999992E-02   5.09521492E-08
  -2.12500002E-02   3.74416409E-08
  -2.11999994E-02   2.53492782E-08
  -2.11500004E-02   1.72796994E-08
  -2.10999995E-02   1.40249021E-08
  -2.10500006E-02   1.41691130E-08
  -2.09999997E-02   1.46796149E-08
  -2.09500007E-02   1.22451853E-08
  -2.08999999E-02   4.78183004E-09
  -2.08500009E-02  -7.56990737E-09
  -2.08000001E-02  -2.24266383E-08
  -2.07499992E-02  -3.61587098E-08
  -2.07000002E-02  -4.54779290E-08
  -2.06499994E-02  -4.89152399E-08
  -2.06000004E-02  -4.75139146E-08
  -2.05499995E-02  -4.44015846E-08
  -2.05000006E-02  -4.34063168E-08
  -2.04499997E-02  -4.73180179E-08
  -2.04000007E-02  -5.65729117E-08
  -2.03499999E-02  -6.89702517E-08
  -2.03000009E-02  -8.05779692E-08
  -2.02500001E-02  -8.74467432E-08
  -2.01999992E-02  -8.73786519E-08
  -2.01500002E-02  -8.09493130E-08
  -2.00999994E-02  -7.13000432E-08
  -2.00500004E-02  -6.27660128E-08
  -1.99999996E-02  -5.89335940E-08
  -1.99500006E-02  -6.09966051E-08
  -1.98999997E-02  -6.71647342E-08
  -1.98500007E-02  -7.34158618E-08
  -1.97999999E-02  -7.52810863E-08
  -1.97500009E-02  -6.98744884E-08
  -1.97000001E-02  -5.72511745E-08
  -1.96499992E-02  -4.04615541E-08
  -1.96000002E-02  -2.42483225E-08
  -1.95499994E-02  -1.29470967E-08
  -1.95000004E-02  -8.52615045E-09
  -1.94499996E-02  -9.65955937E-09
  -1.94000006E-02  -1.22777148E-08
  -1.93499997E-02  -1.13764251E-08
  -1.93000007E-02  -3.28888805E-09
  -1.92499999E-02   1.26010846E-08
  -1.92000009E-02   3.34928636E-08
  -1.91500001E-02   5.43417791E-08
  -1.90999992E-02   7.00665268E-08
  -1.90500002E-02   7.78099505E-08
  -1.89999994E-02   7.82300731E-08
  -1.89500004E-02   7.52195248E-08
  -1.88999996E-02   7.41525099E-08
  -1.88500006E-02   7.94270179E-08
  -1.87999997E-02   9.24060330E-08
  -1.87500007E-02   1.10699261E-07
  -1.86999999E-02   1.29132516E-07
  -1.86500009E-02   1.41992786E-07
  -1.86000001E-02   1.45550800E-07
  -1.85499992E-02   1.39721934E-07
  -1.85000002E-02   1.28101519E-07
  -1.84499994E-02   1.16336253E-07
  -1.84000004E-02   1.09545340E-07
  -1.83499996E-02   1.09947131E-07
  -1.83000006E-02   1.15766447E-07
  -1.82499997E-02   1.21934193E-07
  -1.82000007E-02   1.22287815E-07
  -1.81499999E-02   1.12293286E-07
  -1.81000009E-02   9.10621765E-08
  -1.80500001E-02   6.17426821E-08
  -1.79999992E-02   3.00862730E-08
  -1.79500002E-02   1.81929016E-09
  -1.78999994E-02  -1.99995576E-08
  -1.78500004E-02  -3.64388733E-08
  -1.77999996E-02  -5.22988408E-08
  -1.77500006E-02  -7.40199724E-08
  -1.76999997E-02  -1.06821901E-07
  -1.76500008E-02  -1.52358268E-07
  -1.75999999E-02  -2.07953818E-07
  -1.75500009E-02  -2.67782553E-07
  -1.75000001E-02  -3.25478965E-07
  -1.74499992E-02  -3.77014857E-07
  -1.74000002E-02  -4.22542570E-07
  -1.73499994E-02  -4.66358586E-07
  -1.73000004E-02  -5.14990859E-07
  -1.72499996E-02  -5.74267176E-07
  -1.72000006E-02  -6.46673300E-07
  -1.71499997E-02  -7.30198451E-07
  -1.71000008E-02  -8.19199840E-07
  -1.70499999E-02  -9.06905882E-07
  -1.70000009E-02  -9.88445095E-07
  -1.69500001E-02  -1.06303742E-06
  -1.68999992E-02  -1.13435374E-06
  -1.68500002E-02  -1.20886352E-06
  -1.67999994E-02  -1.29290606E-06
  -1.67500004E-02  -1.38979999E-06
  -1.66999996E-02  -1.49829430E-06
  -1.66500006E-02  -1.61306650E-06
  -1.65999997E-02  -1.72704938E-06
  -1.65500008E-02  -1.83455325E-06
  -1.64999999E-02  -1.93377036E-06
  -1.64500009E-02  -2.02754063E-06
  -1.64000001E-02  -2.12203668E-06
  -1.63499992E-02  -2.22393805E-06
  -1.63000003E-02  -2.33737069E-06
  -1.62499994E-02  -2.46199306E-06
  -1.62000004E-02  -2.59309218E-06
  -1.61499996E-02  -2.72365446E-06
  -1.61000006E-02  -2.84747716E-06
  -1.60499997E-02  -2.96191865E-06
  -1.60000008E-02  -3.06905940E-06
  -1.59499999E-02  -3.17474041E-06
  -1.59000009E-02  -3.28589249E-06
  -1.58500001E-02  -3.40738734E-06
  -1.57999992E-02  -3.53978544E-06
  -1.57500003E-02  -3.67900316E-06
  -1.56999994E-02  -3.81811560E-06
  -1.56500004E-02  -3.95043662E-06
  -1.55999996E-02  -4.07247580E-06
  -1.55499997E-02  -4.18546779E-06
  -1.54999997E-02  -4.29479223E-06
  -1.54499998E-02  -4.40757640E-06
  -1.53999999E-02  -4.52950417E-06
  -1.53500000E-02  -4.66224446E-06
  -1.53000001E-02  -4.80269591E-06
  -1.52500002E-02  -4.94441474E-06
  -1.52000003E-02  -5.08055518E-06
  -1.51500003E-02  -5.20698450E-06
  -1.51000004E-02  -5.32417107E-06
  -1.50499996E-02  -5.43702072E-06
  -1.49999997E-02  -5.55275528E-06
  -1.49499997E-02  -5.67772940E-06
  -1.48999998E-02  -5.81466338E-06
  -1.48499999E-02  -5.96146765E-06
  -1.48000000E-02  -6.11223686E-06
  -1.47500001E-02  -6.25999428E-06
  -1.47000002E-02  -6.39988366E-06
  -1.46500003E-02  -6.53141524E-06
  -1.46000003E-02  -6.65876951E-06
  -1.45500004E-02  -6.78898641E-06
  -1.44999996E-02  -6.92886169E-06
  -1.44499997E-02  -7.08200696E-06
  -1.43999998E-02  -7.24732672E-06
  -1.43499998E-02  -7.41962685E-06
  -1.42999999E-02  -7.59206614E-06
  -1.42500000E-02  -7.75937406E-06
  -1.42000001E-02  -7.92034643E-06
  -1.41500002E-02  -8.07852211E-06
  -1.41000003E-02  -8.24070139E-06
  -1.40500003E-02  -8.41403562E-06
  -1.40000004E-02  -8.60296677E-06
  -1.39499996E-02  -8.80737207E-06
  -1.38999997E-02  -9.02279771E-06
  -1.38499998E-02  -9.24249616E-06
  -1.37999998E-02  -9.46062846E-06
  -1.37499999E-02  -9.67506458E-06
  -1.37000000E-02  -9.88847205E-06
  -1.36500001E-02  -1.01073401E-05
  -1.36000002E-02  -1.03390566E-05
  -1.35500003E-02  -1.05886174E-05
  -1.35000004E-02  -1.08566364E-05
  -1.34500004E-02  -1.11393392E-05
  -1.33999996E-02  -1.14302220E-05
  -1.33499997E-02  -1.17230329E-05
  -1.32999998E-02  -1.20148115E-05
  -1.32499998E-02  -1.23073914E-05
  -1.31999999E-02  -1.26068880E-05
  -1.31500000E-02  -1.29209229E-05
  -1.31000001E-02  -1.32551650E-05
  -1.30500002E-02  -1.36111703E-05
  -1.30000003E-02  -1.39858121E-05
  -1.29500004E-02  -1.43727029E-05
  -1.29000004E-02  -1.47652017E-05
  -1.28499996E-02  -1.51595232E-05
  -1.27999997E-02  -1.55563775E-05
  -1.27499998E-02  -1.59606789E-05
  -1.26999998E-02  -1.63796776E-05
  -1.26499999E-02  -1.68197203E-05
  -1.26000000E-02  -1.72832642E-05
  -1.25500001E-02  -1.77679158E-05
  -1.25000002E-02  -1.82676231E-05
  -1.24500003E-02  -1.87757523E-05
  -1.24000004E-02  -1.92882599E-05
  -1.23500004E-02  -1.98055095E-05
  -1.22999996E-02  -2.03322852E-05
  -1.22499997E-02  -2.08755664E-05
  -1.21999998E-02  -2.14414194E-05
  -1.21499998E-02  -2.20325201E-05
  -1.20999999E-02  -2.26470111E-05
  -1.20500000E-02  -2.32788570E-05
  -1.20000001E-02  -2.39204746E-05
  -1.19500002E-02  -2.45665851E-05
  -1.19000003E-02  -2.52170666E-05
  -1.18500004E-02  -2.58771815E-05
  -1.18000004E-02  -2.65550534E-05
  -1.17499996E-02  -2.72582638E-05
  -1.16999997E-02  -2.79910255E-05
  -1.16499998E-02  -2.87528565E-05
  -1.15999999E-02  -2.95389927E-05
  -1.15499999E-02  -3.03426350E-05
  -1.15000000E-02  -3.11579388E-05
  -1.14500001E-02  -3.19825413E-05
  -1.14000002E-02  -3.28189089E-05
  -1.13500003E-02  -3.36732337E-05
  -1.13000004E-02  -3.45523549E-05
  -1.12500004E-02  -3.54598742E-05
  -1.11999996E-02  -3.63942272E-05
  -1.11499997E-02  -3.73501571E-05
  -1.10999998E-02  -3.83217448E-05
  -1.10499999E-02  -3.93057089E-05
  -1.09999999E-02  -4.03026679E-05
  -1.09500000E-02  -4.13178059E-05
  -1.09000001E-02  -4.23602396E-05
  -1.08500002E-02  -4.34397007E-05
  -1.08000003E-02  -4.45632650E-05
  -1.07500004E-02  -4.57322349E-05
  -1.07000005E-02  -4.69411316E-05
  -1.06499996E-02  -4.81804782E-05
  -1.05999997E-02  -4.94420274E-05
  -1.05499998E-02  -5.07225450E-05
  -1.04999999E-02  -5.20239810E-05
  -1.04499999E-02  -5.33517123E-05
  -1.04000000E-02  -5.47117561E-05
  -1.03500001E-02  -5.61087072E-05
  -1.03000002E-02  -5.75445556E-05
  -1.02500003E-02  -5.90174423E-05
  -1.02000004E-02  -6.05220339E-05
  -1.01500005E-02  -6.20532301E-05
  -1.00999996E-02  -6.36106342E-05
  -1.00499997E-02  -6.52002054E-05
  -9.99999978E-03  -6.68329376E-05
  -9.94999986E-03  -6.85200066E-05
  -9.89999995E-03  -7.02681064E-05
  -9.85000003E-03  -7.20782555E-05
  -9.80000012E-03  -7.39471143E-05
  -9.75000020E-03  -7.58683382E-05
  -9.70000029E-03  -7.78345347E-05
  -9.65000037E-03  -7.98415203E-05
  -9.60000046E-03  -8.18906046E-05
  -9.54999961E-03  -8.39887143E-05
  -9.49999969E-03  -8.61454391E-05
  -9.44999978E-03  -8.83675166E-05
  -9.39999986E-03  -9.06547648E-05
  -9.34999995E-03  -9.30010865E-05
  -9.30000003E-03  -9.53982744E-05
  -9.25000012E-03  -9.78392927E-05
  -9.20000020E-03  -1.00320896E-04
  -9.15000029E-03  -1.02845792E-04
  -9.10000037E-03  -1.05422325E-04
  -9.05000046E-03  -1.08060893E-04
  -8.99999961E-03  -1.10771085E-04
  -8.94999970E-03  -1.13558723E-04
  -8.89999978E-03  -1.16423507E-04
  -8.84999987E-03  -1.19359654E-04
  -8.79999995E-03  -1.22360623E-04
  -8.75000004E-03  -1.25423830E-04
  -8.70000012E-03  -1.28553016E-04
  -8.65000021E-03  -1.31757362E-04
  -8.60000029E-03  -1.35047419E-04
  -8.55000038E-03  -1.38431205E-04
  -8.50000046E-03  -1.41909011E-04
  -8.44999962E-03  -1.45474565E-04
  -8.39999970E-03  -1.49120096E-04
  -8.34999979E-03  -1.52836961E-04
  -8.29999987E-03  -1.56618567E-04
  -8.24999996E-03  -1.60463300E-04
  -8.20000004E-03  -1.64376004E-04
  -8.15000013E-03  -1.68367638E-04
  -8.10000021E-03  -1.72448490E-04
  -8.05000030E-03  -1.76622372E-04
  -8.00000038E-03  -1.80884497E-04
  -7.95000046E-03  -1.85225508E-04
  -7.89999962E-03  -1.89637823E-04
  -7.84999970E-03  -1.94120978E-04
  -7.79999979E-03  -1.98678739E-04
  -7.74999987E-03  -2.03317846E-04
  -7.69999996E-03  -2.08049809E-04
  -7.65000004E-03  -2.12887418E-04
  -7.60000013E-03  -2.17839217E-04
  -7.55000021E-03  -2.22905117E-04
  -7.49999983E-03  -2.28077217E-04
  -7.44999992E-03  -2.33343628E-04
  -7.40000000E-03  -2.38697656E-04
  -7.35000009E-03  -2.44141644E-04
  -7.30000017E-03  -2.49683682E-04
  -7.24999979E-03  -2.55332561E-04
  -7.19999988E-03  -2.61094770E-04
  -7.14999996E-03  -2.66972609E-04
  -7.10000005E-03  -2.72963662E-04
  -7.05000013E-03  -2.79060914E-04
  -7.00000022E-03  -2.85253715E-04
  -6.94999984E-03  -2.91534496E-04
  -6.89999992E-03  -2.97901512E-04
  -6.85000001E-03  -3.04361427E-04
  -6.80000009E-03  -3.10929230E-04
  -6.75000018E-03  -3.17618542E-04
  -6.69999979E-03  -3.24436085E-04
  -6.64999988E-03  -3.31380579E-04
  -6.59999996E-03  -3.38444603E-04
  -6.55000005E-03  -3.45619599E-04
  -6.50000013E-03  -3.52902513E-04
  -6.45000022E-03  -3.60296894E-04
  -6.39999984E-03  -3.67812754E-04
  -6.34999992E-03  -3.75464413E-04
  -6.30000001E-03  -3.83260456E-04
  -6.25000009E-03  -3.91207752E-04
  -6.20000018E-03  -3.99311539E-04
  -6.14999980E-03  -4.07564803E-04
  -6.09999988E-03  -4.15951741E-04
  -6.04999997E-03  -4.24462516E-04
  -6.00000005E-03  -4.33098525E-04
  -5.95000014E-03  -4.41868353E-04
  -5.90000022E-03  -4.50784341E-04
  -5.84999984E-03  -4.59855451E-04
  -5.79999993E-03  -4.69086051E-04
  -5.75000001E-03  -4.78476228E-04
  -5.70000010E-03  -4.88019286E-04
  -5.65000018E-03  -4.97708621E-04
  -5.59999980E-03  -5.07537974E-04
  -5.54999989E-03  -5.17504232E-04
  -5.49999997E-03  -5.27617056E-04
  -5.45000006E-03  -5.37893153E-04
  -5.40000014E-03  -5.48349926E-04
  -5.35000023E-03  -5.58999309E-04
  -5.29999984E-03  -5.69842872E-04
  -5.24999993E-03  -5.80875960E-04
  -5.20000001E-03  -5.92092867E-04
  -5.15000010E-03  -6.03492139E-04
  -5.10000018E-03  -6.15073484E-04
  -5.04999980E-03  -6.26843132E-04
  -4.99999989E-03  -6.38811965E-04
  -4.94999997E-03  -6.50993257E-04
  -4.90000006E-03  -6.63400628E-04
  -4.85000014E-03  -6.76027732E-04
  -4.80000023E-03  -6.88857224E-04
  -4.74999985E-03  -7.01876823E-04
  -4.69999993E-03  -7.15087925E-04
  -4.65000002E-03  -7.28489948E-04
  -4.60000010E-03  -7.42083183E-04
  -4.55000019E-03  -7.55883113E-04
  -4.49999981E-03  -7.69903942E-04
  -4.44999989E-03  -7.84156786E-04
  -4.39999998E-03  -7.98648980E-04
  -4.35000006E-03  -8.13384657E-04
  -4.30000015E-03  -8.28355202E-04
  -4.25000023E-03  -8.43548856E-04
  -4.19999985E-03  -8.58967484E-04
  -4.14999994E-03  -8.74624704E-04
  -4.10000002E-03  -8.90544266E-04
  -4.05000011E-03  -9.06742935E-04
  -4.00000019E-03  -9.23223153E-04
  -3.94999981E-03  -9.39977472E-04
  -3.89999989E-03  -9.56999429E-04
  -3.84999998E-03  -9.74285766E-04
  -3.80000006E-03  -9.91833047E-04
  -3.74999992E-03  -1.00963819E-03
  -3.70000000E-03  -1.02770398E-03
  -3.65000009E-03  -1.04603369E-03
  -3.59999994E-03  -1.06464024E-03
  -3.55000002E-03  -1.08354841E-03
  -3.50000011E-03  -1.10276393E-03
  -3.44999996E-03  -1.12227222E-03
  -3.40000005E-03  -1.14204339E-03
  -3.34999990E-03  -1.16207753E-03
  -3.29999998E-03  -1.18239329E-03
  -3.25000007E-03  -1.20299892E-03
  -3.19999992E-03  -1.22390280E-03
  -3.15000000E-03  -1.24511588E-03
  -3.10000009E-03  -1.26665947E-03
  -3.04999994E-03  -1.28853740E-03
  -3.00000003E-03  -1.31074467E-03
  -2.95000011E-03  -1.33326475E-03
  -2.89999996E-03  -1.35608076E-03
  -2.85000005E-03  -1.37920678E-03
  -2.79999990E-03  -1.40266493E-03
  -2.74999999E-03  -1.42646418E-03
  -2.70000007E-03  -1.45061139E-03
  -2.64999992E-03  -1.47512008E-03
  -2.60000001E-03  -1.49999885E-03
  -2.55000009E-03  -1.52523594E-03
  -2.49999994E-03  -1.55081623E-03
  -2.45000003E-03  -1.57672376E-03
  -2.40000011E-03  -1.60293933E-03
  -2.34999997E-03  -1.62947690E-03
  -2.30000005E-03  -1.65635895E-03
  -2.24999990E-03  -1.68360770E-03
  -2.19999999E-03  -1.71122979E-03
  -2.15000007E-03  -1.73920754E-03
  -2.09999993E-03  -1.76754291E-03
  -2.05000001E-03  -1.79621985E-03
  -2.00000009E-03  -1.82522438E-03
  -1.94999995E-03  -1.85457105E-03
  -1.90000003E-03  -1.88427651E-03
  -1.85000000E-03  -1.91435299E-03
  -1.79999997E-03  -1.94482051E-03
  -1.75000005E-03  -1.97570235E-03
  -1.70000002E-03  -2.00700341E-03
  -1.64999999E-03  -2.03871820E-03
  -1.59999996E-03  -2.07080902E-03
  -1.55000004E-03  -2.10323301E-03
  -1.50000001E-03  -2.13599391E-03
  -1.44999998E-03  -2.16912548E-03
  -1.39999995E-03  -2.20267149E-03
  -1.35000004E-03  -2.23662099E-03
  -1.30000000E-03  -2.27094674E-03
  -1.24999997E-03  -2.30564782E-03
  -1.20000006E-03  -2.34073098E-03
  -1.15000003E-03  -2.37619388E-03
  -1.09999999E-03  -2.41199648E-03
  -1.04999996E-03  -2.44812807E-03
  -1.00000005E-03  -2.48458842E-03
  -9.50000016E-04  -2.52141245E-03
  -8.99999985E-04  -2.55864183E-03
  -8.50000011E-04  -2.59628682E-03
  -7.99999980E-04  -2.63436767E-03
  -7.50000007E-04  -2.67284852E-03
  -6.99999975E-04  -2.71168118E-03
  -6.50000002E-04  -2.75086029E-03
  -6.00000028E-04  -2.79038120E-03
  -5.49999997E-04  -2.83024600E-03
  -5.00000024E-04  -2.87047867E-03
  -4.49999992E-04  -2.91108806E-03
  -3.99999990E-04  -2.95209349E-03
  -3.49999988E-04  -2.99354736E-03
  -3.00000014E-04  -3.03541217E-03
  -2.50000012E-04  -3.07758502E-03
  -1.99999995E-04  -3.12006450E-03
  -1.50000007E-04  -3.16287926E-03
  -9.99999975E-05  -3.20599438E-03
  -4.99999987E-05  -3.24938516E-03
   0.00000000      -3.29311937E-03
   4.99999987E-05  -3.33729945E-03
   9.99999975E-05  -3.38190561E-03
   1.50000007E-04  -3.42683401E-03
   1.99999995E-04  -3.47202015E-03
   2.50000012E-04  -3.51746962E-03
   3.00000014E-04  -3.56323388E-03
   3.49999988E-04  -3.60930897E-03
   3.99999990E-04  -3.65565112E-03
   4.49999992E-04  -3.70227732E-03
   5.00000024E-04  -3.74924042E-03
   5.49999997E-04  -3.79660889E-03
   6.00000028E-04  -3.84437898E-03
   6.50000002E-04  -3.89241078E-03
   6.99999975E-04  -3.94064747E-03
   7.50000007E-04  -3.98914376E-03
   7.99999980E-04  -4.03793948E-03
   8.50000011E-04  -4.08701412E-03
   8.99999985E-04  -4.13631368E-03
   9.50000016E-04  -4.18588333E-03
   1.00000005E-03  -4.23582317E-03
   1.04999996E-03  -4.28616349E-03
   1.09999999E-03  -4.33678087E-03
   1.15000003E-03  -4.38748673E-03
   1.20000006E-03  -4.43825964E-03
   1.24999997E-03  -4.48925421E-03
   1.30000000E-03  -4.54055937E-03
   1.35000004E-03  -4.59211832E-03
   1.39999995E-03  -4.64386307E-03
   1.44999998E-03  -4.69579315E-03
   1.50000001E-03  -4.74801054E-03
   1.55000004E-03  -4.80055716E-03
   1.59999996E-03  -4.85331845E-03
   1.64999999E-03  -4.90611419E-03
   1.70000002E-03  -4.95897979E-03
   1.75000005E-03  -5.01206284E-03
   1.79999997E-03  -5.06542809E-03
   1.85000000E-03  -5.11909230E-03
   1.90000003E-03  -5.17294370E-03
   1.94999995E-03  -5.22695715E-03
   2.00000009E-03  -5.28118061E-03
   2.05000001E-03  -5.33560803E-03
   2.09999993E-03  -5.39012672E-03
   2.15000007E-03  -5.44462493E-03
   2.19999999E-03  -5.49917296E-03
   2.24999990E-03  -5.55387326E-03
   2.30000005E-03  -5.60876727E-03
   2.34999997E-03  -5.66391042E-03
   2.40000011E-03  -5.71926776E-03
   2.45000003E-03  -5.77469962E-03
   2.49999994E-03  -5.83012868E-03
   2.55000009E-03  -5.88560477E-03
   2.60000001E-03  -5.94122056E-03
   2.64999992E-03  -5.99691458E-03
   2.70000007E-03  -6.05257135E-03
   2.74999999E-03  -6.10829843E-03
   2.79999990E-03  -6.16430771E-03