  -3.99999991E-02   0.00000000    
  -3.99499983E-02   0.00000000    
  -3.99000011E-02   7.37910709E-14
  -3.98500003E-02   6.74412512E-13
  -3.97999994E-02   3.19292683E-12
  -3.97499986E-02   1.03776631E-11
  -3.97000015E-02   2.59060603E-11
  -3.96500006E-02   5.26994004E-11
  -3.95999998E-02   9.05133885E-11
  -3.95499989E-02   1.34338290E-10
  -3.95000018E-02   1.75318829E-10
  -3.94500010E-02   2.04789657E-10
  -3.94000001E-02   2.20063412E-10
  -3.93499993E-02   2.28963501E-10
  -3.92999984E-02   2.49909371E-10
  -3.92500013E-02   3.06065062E-10
  -3.92000005E-02   4.15093487E-10
  -3.91499996E-02   5.79016390E-10
  -3.90999988E-02   7.79808440E-10
  -3.90500017E-02   9.84436643E-10
  -3.90000008E-02   1.15845566E-09
  -3.89500000E-02   1.28227040E-09
  -3.88999991E-02   1.36186840E-09
  -3.88499983E-02   1.42798462E-09
  -3.88000011E-02   1.52329815E-09
  -3.87500003E-02   1.68320047E-09
  -3.86999995E-02   1.91878180E-09
  -3.86499986E-02   2.20972818E-09
  -3.86000015E-02   2.51055376E-09
  -3.85500006E-02   2.76783885E-09
  -3.84999998E-02   2.94105718E-09
  -3.84499989E-02   3.01745651E-09
  -3.84000018E-02   3.01408432E-09
  -3.83500010E-02   2.96682323E-09
  -3.83000001E-02   2.91344260E-09
  -3.82499993E-02   2.88024782E-09
  -3.81999984E-02   2.87783108E-09
  -3.81500013E-02   2.90391911E-09
  -3.81000005E-02   2.94657454E-09
  -3.80499996E-02   2.98272940E-09
  -3.79999988E-02   2.97327474E-09
  -3.79500017E-02   2.86125634E-09
  -3.79000008E-02   2.57989075E-09
  -3.78500000E-02   2.07223017E-09
  -3.77999991E-02   1.31717381E-09
  -3.77499983E-02   3.50166812E-10
  -3.77000012E-02  -7.35671413E-10
  -3.76500003E-02  -1.81789539E-09
  -3.75999995E-02  -2.79910339E-09
  -3.75499986E-02  -3.66539221E-09
  -3.75000015E-02  -4.51472815E-09
  -3.74500006E-02  -5.52744206E-09
  -3.73999998E-02  -6.87876156E-09
  -3.73499990E-02  -8.62931682E-09
  -3.73000018E-02  -1.06516644E-08
  -3.72500010E-02  -1.26429169E-08
  -3.72000001E-02  -1.42363961E-08
  -3.71499993E-02  -1.51755142E-08
  -3.70999984E-02  -1.54739723E-08
  -3.70500013E-02  -1.54771804E-08
  -3.70000005E-02  -1.57698903E-08
  -3.69499996E-02  -1.69398184E-08
  -3.68999988E-02  -1.92835365E-08
  -3.68500017E-02  -2.25918999E-08
  -3.68000008E-02  -2.61416240E-08
  -3.67500000E-02  -2.89375652E-08
  -3.66999991E-02  -3.01279535E-08
  -3.66499983E-02  -2.94134583E-08
  -3.66000012E-02  -2.72481895E-08
  -3.65500003E-02  -2.47066509E-08
  -3.64999995E-02  -2.30367849E-08
  -3.64499986E-02  -2.30721167E-08
  -3.64000015E-02  -2.47659884E-08
  -3.63500006E-02  -2.70892357E-08
  -3.62999998E-02  -2.83930799E-08
  -3.62499990E-02  -2.71274025E-08
  -3.62000018E-02  -2.26125163E-08
  -3.61500010E-02  -1.54915156E-08
  -3.61000001E-02  -7.59784147E-09
  -3.60499993E-02  -1.22938393E-09
  -3.59999985E-02   1.88760363E-09
  -3.59500013E-02   1.47937851E-09
  -3.59000005E-02  -9.87822268E-10
  -3.58499996E-02  -2.81252044E-09
  -3.57999988E-02  -1.19905352E-09
  -3.57500017E-02   5.43671064E-09
  -3.57000008E-02   1.65969176E-08
  -3.56500000E-02   2.97266673E-08
  -3.55999991E-02   4.12186871E-08
  -3.55499983E-02   4.80194338E-08
  -3.55000012E-02   4.91250240E-08
  -3.54500003E-02   4.62339251E-08
  -3.53999995E-02   4.31603233E-08
  -3.53499986E-02   4.41747829E-08
  -3.53000015E-02   5.19692165E-08
  -3.52500007E-02   6.61816415E-08
  -3.51999998E-02   8.32302618E-08
  -3.51499990E-02   9.76543006E-08
  -3.51000018E-02   1.04469635E-07
  -3.50500010E-02   1.01525998E-07
  -3.50000001E-02   9.07564157E-08
  -3.49499993E-02   7.76266944E-08
  -3.48999985E-02   6.88808512E-08
  -3.48500013E-02   6.94970765E-08
  -3.48000005E-02   8.02248152E-08
  -3.47499996E-02   9.69104264E-08
  -3.46999988E-02   1.12065507E-07
  -3.46500017E-02   1.18109142E-07
  -3.46000008E-02   1.10890838E-07
  -3.45500000E-02   9.18732397E-08
  -3.44999991E-02   6.78620111E-08
  -3.44499983E-02   4.82281735E-08
  -3.44000012E-02   4.07278264E-08
  -3.43500003E-02   4.77608637E-08
  -3.42999995E-02   6.48471996E-08
  -3.42499986E-02   8.21962018E-08
  -3.42000015E-02   8.88596006E-08
  -3.41500007E-02   7.77095863E-08
  -3.40999998E-02   4.89785243E-08
  -3.40499990E-02   1.06249791E-08
  -3.40000018E-02  -2.48377354E-08
  -3.39500010E-02  -4.57950442E-08
  -3.39000002E-02  -4.68848498E-08
  -3.38499993E-02  -3.17772724E-08
  -3.37999985E-02  -1.19462955E-08
  -3.37500013E-02  -1.76178960E-09
  -3.37000005E-02  -1.19529053E-08
  -3.36499996E-02  -4.43781474E-08
  -3.35999988E-02  -9.06135043E-08
  -3.35500017E-02  -1.35244846E-07
  -3.35000008E-02  -1.62610178E-07
  -3.34500000E-02  -1.64057099E-07
  -3.33999991E-02  -1.42377544E-07
  -3.33499983E-02  -1.11210412E-07
  -3.33000012E-02  -8.94094043E-08
  -3.32500003E-02  -9.26918773E-08
  -3.31999995E-02  -1.26255202E-07
  -3.31499986E-02  -1.81800146E-07
  -3.31000015E-02  -2.40565328E-07
  -3.30500007E-02  -2.81304409E-07
  -3.29999998E-02  -2.89807531E-07
  -3.29499990E-02  -2.65674430E-07
  -3.29000019E-02  -2.23088833E-07
  -3.28500010E-02  -1.84945122E-07
  -3.28000002E-02  -1.72709179E-07
  -3.27499993E-02  -1.96469728E-07
  -3.26999985E-02  -2.49751196E-07
  -3.26500013E-02  -3.11680225E-07
  -3.26000005E-02  -3.55849608E-07
  -3.25499997E-02  -3.62134415E-07
  -3.24999988E-02  -3.26196897E-07
  -3.24500017E-02  -2.62231026E-07
  -3.24000008E-02  -1.97378142E-07
  -3.23500000E-02  -1.59978896E-07
  -3.22999991E-02  -1.66744087E-07
  -3.22499983E-02  -2.14650584E-07
  -3.22000012E-02  -2.81457346E-07
  -3.21500003E-02  -3.34959651E-07
  -3.20999995E-02  -3.47115758E-07
  -3.20499986E-02  -3.06811444E-07
  -3.20000015E-02  -2.25413700E-07
  -3.19500007E-02  -1.32326974E-07
  -3.18999998E-02  -6.22037604E-08
  -3.18499990E-02  -3.93133384E-08
  -3.18000019E-02  -6.60718342E-08
  -3.17500010E-02  -1.21112635E-07
  -3.17000002E-02  -1.68138030E-07
  -3.16499993E-02  -1.71929116E-07
  -3.15999985E-02  -1.14491172E-07
  -3.15500014E-02  -3.98456601E-09
  -3.15000005E-02   1.27889990E-07
  -3.14499997E-02   2.39281889E-07
  -3.13999988E-02   2.96664041E-07
  -3.13500017E-02   2.90193327E-07
  -3.13000008E-02   2.38897627E-07
  -3.12500000E-02   1.82997766E-07
  -3.11999992E-02   1.66402401E-07
  -3.11500002E-02   2.16957673E-07
  -3.10999993E-02   3.33302239E-07
  -3.10500003E-02   4.84484985E-07
  -3.09999995E-02   6.22932248E-07
  -3.09500005E-02   7.05326386E-07
  -3.08999997E-02   7.12200915E-07
  -3.08500007E-02   6.57348778E-07
  -3.07999998E-02   5.82479061E-07
  -3.07500008E-02   5.39089172E-07
  -3.07000000E-02   5.65354696E-07
  -3.06499992E-02   6.68310918E-07
  -3.06000002E-02   8.19513218E-07
  -3.05499993E-02   9.66523885E-07
  -3.05000003E-02   1.05551931E-06
  -3.04499995E-02   1.05517302E-06
  -3.04000005E-02   9.71118652E-07
  -3.03499997E-02   8.44235899E-07
  -3.03000007E-02   7.33097011E-07
  -3.02499998E-02   6.88048772E-07
  -3.02000009E-02   7.28372413E-07
  -3.01500000E-02   8.32870057E-07
  -3.00999992E-02   9.48438469E-07
  -3.00500002E-02   1.01320882E-06
  -2.99999993E-02   9.84195708E-07
  -2.99500003E-02   8.57131624E-07
  -2.98999995E-02   6.69383610E-07
  -2.98500005E-02   4.84229190E-07
  -2.97999997E-02   3.63095381E-07
  -2.97500007E-02   3.37929578E-07
  -2.96999998E-02   3.96111147E-07
  -2.96500009E-02   4.84992313E-07
  -2.96000000E-02   5.34509184E-07
  -2.95499992E-02   4.88150647E-07
  -2.95000002E-02   3.28596599E-07
  -2.94499993E-02   8.64159375E-08
  -2.94000003E-02  -1.72437126E-07
  -2.93499995E-02  -3.75174466E-07
  -2.93000005E-02  -4.74333149E-07
  -2.92499997E-02  -4.69228155E-07
  -2.92000007E-02  -4.06887494E-07
  -2.91499998E-02  -3.61635415E-07
  -2.91000009E-02  -4.02019538E-07
  -2.90500000E-02  -5.59623118E-07
  -2.89999992E-02  -8.13772431E-07
  -2.89500002E-02  -1.09933217E-06
  -2.88999993E-02  -1.33458889E-06
  -2.88500004E-02  -1.45716081E-06
  -2.87999995E-02  -1.45203683E-06
  -2.87500005E-02  -1.35906134E-06
  -2.86999997E-02  -1.25612848E-06
  -2.86500007E-02  -1.22512506E-06
  -2.85999998E-02  -1.31547756E-06
  -2.85500009E-02  -1.52148095E-06
  -2.85000000E-02  -1.78373398E-06
  -2.84499992E-02  -2.01445368E-06
  -2.84000002E-02  -2.13580324E-06
  -2.83499993E-02  -2.11438737E-06
  -2.83000004E-02  -1.97647364E-06
  -2.82499995E-02  -1.79684855E-06
  -2.82000005E-02  -1.66587199E-06
  -2.81499997E-02  -1.64911000E-06
  -2.81000007E-02  -1.75745026E-06
  -2.80499998E-02  -1.94119707E-06
  -2.80000009E-02  -2.11114366E-06
  -2.79500000E-02  -2.17763159E-06
  -2.78999992E-02  -2.09047653E-06
  -2.78500002E-02  -1.86198872E-06
  -2.77999993E-02  -1.56257352E-06
  -2.77500004E-02  -1.29043178E-06
  -2.76999995E-02  -1.12844032E-06
  -2.76500005E-02  -1.10721112E-06
  -2.75999997E-02  -1.19087633E-06
  -2.75500007E-02  -1.29224316E-06
  -2.74999999E-02  -1.31097249E-06
  -2.74500009E-02  -1.17810350E-06
  -2.74000000E-02  -8.87181841E-07
  -2.73499992E-02  -4.97986491E-07
  -2.73000002E-02  -1.10881224E-07
  -2.72499993E-02   1.77195503E-07
  -2.72000004E-02   3.15759422E-07
  -2.71499995E-02   3.23681945E-07
  -2.71000005E-02   2.81517515E-07
  -2.70499997E-02   2.96253575E-07
  -2.70000007E-02   4.53786953E-07
  -2.69499999E-02   7.80090829E-07
  -2.69000009E-02   1.22846427E-06
  -2.68500000E-02   1.69883640E-06
  -2.67999992E-02   2.08091365E-06
  -2.67500002E-02   2.30227988E-06
  -2.66999993E-02   2.36017559E-06
  -2.66500004E-02   2.32273305E-06
  -2.65999995E-02   2.29882676E-06
  -2.65500005E-02   2.38959137E-06
  -2.64999997E-02   2.64293635E-06
  -2.64500007E-02   3.03125512E-06
  -2.63999999E-02   3.46243132E-06
  -2.63500009E-02   3.81959399E-06
  -2.63000000E-02   4.01222815E-06
  -2.62499992E-02   4.01604530E-06
  -2.62000002E-02   3.88379794E-06
  -2.61499994E-02   3.72200952E-06
  -2.61000004E-02   3.64367247E-06
  -2.60499995E-02   3.71768533E-06
  -2.60000005E-02   3.93742994E-06
  -2.59499997E-02   4.22252697E-06
  -2.59000007E-02   4.45324667E-06
  -2.58499999E-02   4.52257609E-06
  -2.58000009E-02   4.38303914E-06
  -2.57500000E-02   4.06743720E-06
  -2.56999992E-02   3.67419329E-06
  -2.56500002E-02   3.32354466E-06
  -2.55999994E-02   3.10387031E-06
  -2.55500004E-02   3.03193633E-06
  -2.54999995E-02   3.04476998E-06
  -2.54500005E-02   3.02698186E-06
  -2.53999997E-02   2.86160389E-06
  -2.53500007E-02   2.48203173E-06
  -2.52999999E-02   1.90207447E-06
  -2.52500009E-02   1.21062567E-06
  -2.52000000E-02   5.33080083E-07
  -2.51499992E-02  -2.36244908E-08
  -2.51000002E-02  -4.18154713E-07
  -2.50499994E-02  -6.93186109E-07
  -2.50000004E-02  -9.56790473E-07
  -2.49499995E-02  -1.33485787E-06
  -2.49000005E-02  -1.91548224E-06
  -2.48499997E-02  -2.70987789E-06
  -2.48000007E-02  -3.64705602E-06
  -2.47499999E-02  -4.60477168E-06
  -2.47000009E-02  -5.46307865E-06
  -2.46500000E-02  -6.15683712E-06
  -2.45999992E-02  -6.70400686E-06
  -2.45500002E-02  -7.19717673E-06
  -2.44999994E-02  -7.76202432E-06
  -2.44500004E-02  -8.50096421E-06
  -2.43999995E-02  -9.44697058E-06
  -2.43500005E-02  -1.05479976E-05
  -2.42999997E-02  -1.16889714E-05
  -2.42500007E-02  -1.27416815E-05
  -2.41999999E-02  -1.36206045E-05
  -2.41500009E-02  -1.43199604E-05
  -2.41000000E-02  -1.49156231E-05
  -2.40499992E-02  -1.55311627E-05
  -2.40000002E-02  -1.62828528E-05
  -2.39499994E-02  -1.72279979E-05
  -2.39000004E-02  -1.83393586E-05
  -2.38499995E-02  -1.95169850E-05
  -2.38000005E-02  -2.06320401E-05
  -2.37499997E-02  -2.15832879E-05
  -2.37000007E-02  -2.23414318E-05
  -2.36499999E-02  -2.29614743E-05
  -2.36000009E-02  -2.35577700E-05
  -2.35500000E-02  -2.42528804E-05
  -2.34999992E-02  -2.51229794E-05
  -2.34500002E-02  -2.61637815E-05
  -2.33999994E-02  -2.72920006E-05
  -2.33500004E-02  -2.83818445E-05
  -2.32999995E-02  -2.93201756E-05
  -2.32500006E-02  -3.00560641E-05
  -2.31999997E-02  -3.06229886E-05
  -2.31500007E-02  -3.11238109E-05
  -2.30999999E-02  -3.16853948E-05
  -2.30500009E-02  -3.24029206E-05
  -2.30000000E-02  -3.32981945E-05
  -2.29499992E-02  -3.43105348E-05
  -2.29000002E-02  -3.53240684E-05
  -2.28499994E-02  -3.62192404E-05
  -2.28000004E-02  -3.69257177E-05
  -2.27499995E-02  -3.74534247E-05
  -2.27000006E-02  -3.78881268E-05
  -2.26499997E-02  -3.83538063E-05
  -2.26000007E-02  -3.89583838E-05
  -2.25499999E-02  -3.97468066E-05
  -2.25000009E-02  -4.06819709E-05
  -2.24500000E-02  -4.16618568E-05
  -2.23999992E-02  -4.25650687E-05
  -2.23500002E-02  -4.33045134E-05
  -2.22999994E-02  -4.38659081E-05
  -2.22500004E-02  -4.43139652E-05
  -2.21999995E-02  -4.47638595E-05
  -2.21500006E-02  -4.53309985E-05
  -2.20999997E-02  -4.60812116E-05
  -2.20500007E-02  -4.70030245E-05
  -2.19999999E-02  -4.80143644E-05
  -2.19500009E-02  -4.90003840E-05
  -2.19000001E-02  -4.98652880E-05
  -2.18499992E-02  -5.05756943E-05
  -2.18000002E-02  -5.11762664E-05
  -2.17499994E-02  -5.17708213E-05
  -2.17000004E-02  -5.24773532E-05
  -2.16499995E-02  -5.33771054E-05
  -2.16000006E-02  -5.44802315E-05
  -2.15499997E-02  -5.57225394E-05
  -2.15000007E-02  -5.69947370E-05
  -2.14499999E-02  -5.81914683E-05
  -2.14000009E-02  -5.92579745E-05
  -2.13500001E-02  -6.02145155E-05
  -2.12999992E-02  -6.11474461E-05
  -2.12500002E-02  -6.21717918E-05
  -2.11999994E-02  -6.33817253E-05
  -2.11500004E-02  -6.48103378E-05
  -2.10999995E-02  -6.64168911E-05
  -2.10500006E-02  -6.81062738E-05
  -2.09999997E-02  -6.97726209E-05
  -2.09500007E-02  -7.13468180E-05
  -2.08999999E-02  -7.28278028E-05
  -2.08500009E-02  -7.42835109E-05
  -2.08000001E-02  -7.58215392E-05
  -2.07499992E-02  -7.75428998E-05
  -2.07000002E-02  -7.94981461E-05
  -2.06499994E-02  -8.16661632E-05
  -2.06000004E-02  -8.39643253E-05
  -2.05499995E-02  -8.62851593E-05
  -2.05000006E-02  -8.85433547E-05
  -2.04499997E-02  -9.07130234E-05
  -2.04000007E-02  -9.28389054E-05
  -2.03499999E-02  -9.50164831E-05
  -2.03000009E-02  -9.73501737E-05
  -2.02500001E-02  -9.99082331E-05
  -2.01999992E-02  -1.02693979E-04
  -2.01500002E-02  -1.05645879E-04
  -2.00999994E-02  -1.08665961E-04
  -2.00500004E-02  -1.11664122E-04
  -1.99999996E-02  -1.14598341E-04
  -1.99500006E-02  -1.17493677E-04
  -1.98999997E-02  -1.20431796E-04
  -1.98500007E-02  -1.23515478E-04
  -1.97999999E-02  -1.26823725E-04
  -1.97500009E-02  -1.30377739E-04
  -1.97000001E-02  -1.34132148E-04
  -1.96499992E-02  -1.37995681E-04
  -1.96000002E-02  -1.41871918E-04
  -1.95499994E-02  -1.45702259E-04
  -1.95000004E-02  -1.49492291E-04
  -1.94499996E-02  -1.53309273E-04
  -1.94000006E-02  -1.57253715E-04
  -1.93499997E-02  -1.61416319E-04
  -1.93000007E-02  -1.65838792E-04
  -1.92499999E-02  -1.70497806E-04
  -1.92000009E-02  -1.75316396E-04
  -1.91500001E-02  -1.80199058E-04
  -1.90999992E-02  -1.85075856E-04
  -1.90500002E-02  -1.89934130E-04
  -1.89999994E-02  -1.94825596E-04
  -1.89500004E-02  -1.99845294E-04
  -1.88999996E-02  -2.05091477E-04
  -1.88500006E-02  -2.10624246E-04
  -1.87999997E-02  -2.16440807E-04
  -1.87500007E-02  -2.22477873E-04
  -1.86999999E-02  -2.28641788E-04
  -1.86500009E-02  -2.34851439E-04
  -1.86000001E-02  -2.41074653E-04
  -1.85499992E-02  -2.47343967E-04
  -1.85000002E-02  -2.53743841E-04
  -1.84499994E-02  -2.60375353E-04
  -1.84000004E-02  -2.67313299E-04
  -1.83499996E-02  -2.74574035E-04
  -1.83000006E-02  -2.82110530E-04
  -1.82499997E-02  -2.89835618E-04
  -1.82000007E-02  -2.97662424E-04
  -1.81499999E-02  -3.05544760E-04
  -1.81000009E-02  -3.13499273E-04
  -1.80500001E-02  -3.21601721E-04
  -1.79999992E-02  -3.29955801E-04
  -1.79500002E-02  -3.38648853E-04
  -1.78999994E-02  -3.47716443E-04
  -1.78500004E-02  -3.57128418E-04
  -1.77999996E-02  -3.66804074E-04
  -1.77500006E-02  -3.76649405E-04
  -1.76999997E-02  -3.86600906E-04
  -1.76500008E-02  -3.96655436E-04
  -1.75999999E-02  -4.06873325E-04
  -1.75500009E-02  -4.17353149E-04
  -1.75000001E-02  -4.28190775E-04
  -1.74499992E-02  -4.39437834E-04
  -1.74000002E-02  -4.51079919E-04
  -1.73499994E-02  -4.63043776E-04
  -1.73000004E-02  -4.75232577E-04
  -1.72499996E-02  -4.87572455E-04
  -1.72000006E-02  -5.00045659E-04
  -1.71499997E-02  -5.12703438E-04
  -1.71000008E-02  -5.25647774E-04
  -1.70499999E-02  -5.38988330E-04
  -1.70000009E-02  -5.52796118E-04
  -1.69500001E-02  -5.67075040E-04
  -1.68999992E-02  -5.81760367E-04
  -1.68500002E-02  -5.96749538E-04
  -1.67999994E-02  -6.11949654E-04
  -1.67500004E-02  -6.27319037E-04
  -1.66999996E-02  -6.42888481E-04
  -1.66500006E-02  -6.58748846E-04
  -1.65999997E-02  -6.75013172E-04
  -1.65500008E-02  -6.91767375E-04
  -1.64999999E-02  -7.09032931E-04
  -1.64500009E-02  -7.26760016E-04
  -1.64000001E-02  -7.44851248E-04
  -1.63499992E-02  -7.63206335E-04
  -1.63000003E-02  -7.81769282E-04
  -1.62499994E-02  -8.00557784E-04
  -1.62000004E-02  -8.19659850E-04
  -1.61499996E-02  -8.39195389E-04
  -1.61000006E-02  -8.59265041E-04
  -1.60499997E-02  -8.79910309E-04
  -1.60000008E-02  -9.01094638E-04
  -1.59499999E-02  -9.22717620E-04
  -1.59000009E-02  -9.44662374E-04
  -1.58500001E-02  -9.66851076E-04
  -1.57999992E-02  -9.89279593E-04
  -1.57500003E-02  -1.01202063E-03
  -1.56999994E-02  -1.03519601E-03
  -1.56500004E-02  -1.05892424E-03
  -1.55999996E-02  -1.08327181E-03
  -1.55499997E-02  -1.10822148E-03
  -1.54999997E-02  -1.13367883E-03
  -1.54499998E-02  -1.15952000E-03
  -1.53999999E-02  -1.18564826E-03
  -1.53500000E-02  -1.21204020E-03
  -1.53000001E-02  -1.23876275E-03
  -1.52500002E-02  -1.26594515E-03
  -1.52000003E-02  -1.29372755E-03
  -1.51500003E-02  -1.32220238E-03
  -1.51000004E-02  -1.35137129E-03
  -1.50499996E-02  -1.38114567E-03
  -1.49999997E-02  -1.41138758E-03
  -1.49499997E-02  -1.44197477E-03
  -1.48999998E-02  -1.47285720E-03
  -1.48499999E-02  -1.50408642E-03
  -1.48000000E-02  -1.53579633E-03
  -1.47500001E-02  -1.56814815E-03
  -1.47000002E-02  -1.60126272E-03
  -1.46500003E-02  -1.63516682E-03
  -1.46000003E-02  -1.66978396E-03
  -1.45500004E-02  -1.70496805E-03
  -1.44999996E-02  -1.74057297E-03
  -1.44499997E-02  -1.77652342E-03
  -1.43999998E-02  -1.81285269E-03
  -1.43499998E-02  -1.84969604E-03
  -1.42999999E-02  -1.88723428E-03
  -1.42500000E-02  -1.92562013E-03
  -1.42000001E-02  -1.96491065E-03
  -1.41500002E-02  -2.00504228E-03
  -1.41000003E-02  -2.04586447E-03
  -1.40500003E-02  -2.08721380E-03
  -1.40000004E-02  -2.12898548E-03
  -1.39499996E-02  -2.17118813E-03
  -1.38999997E-02  -2.21394631E-03
  -1.38499998E-02  -2.25745304E-03
  -1.37999998E-02  -2.30188691E-03
  -1.37499999E-02  -2.34733755E-03
  -1.37000000E-02  -2.39376095E-03
  -1.36500001E-02  -2.44100299E-03
  -1.36000002E-02  -2.48887436E-03
  -1.35500003E-02  -2.53723329E-03
  -1.35000004E-02  -2.58605694E-03
  -1.34500004E-02  -2.63546384E-03
  -1.33999996E-02  -2.68566678E-03
  -1.33499997E-02  -2.73688021E-03
  -1.32999998E-02  -2.78922939E-03
  -1.32499998E-02  -2.84269685E-03
  -1.31999999E-02  -2.89713382E-03
  -1.31500000E-02  -2.95233028E-03
  -1.31000001E-02  -3.00811045E-03
  -1.30500002E-02  -3.06441751E-03
  -1.30000003E-02  -3.12134158E-03
  -1.29500004E-02  -3.17908963E-03
  -1.29000004E-02  -3.23790754E-03
  -1.28499996E-02  -3.29795899E-03
  -1.27999997E-02  -3.35925841E-03
  -1.27499998E-02  -3.42166284E-03
  -1.26999998E-02  -3.48493876E-03
  -1.26499999E-02  -3.54886870E-03
  -1.26000000E-02  -3.61335580E-03
  -1.25500001E-02  -3.67846689E-03
  -1.25000002E-02  -3.74442176E-03
  -1.24500003E-02  -3.81150446E-03
  -1.24000004E-02  -3.87991848E-03
  -1.23500004E-02  -3.94972274E-03
  -1.22999996E-02  -4.02079662E-03
  -1.22499997E-02  -4.09288984E-03
  -1.21999998E-02  -4.16575558E-03
  -1.21499998E-02  -4.23924346E-03
  -1.20999999E-02  -4.31338232E-03
  -1.20500000E-02  -4.38837428E-03
  -1.20000001E-02  -4.46450664E-03
  -1.19500002E-02  -4.54203552E-03
  -1.19000003E-02  -4.62106848E-03
  -1.18500004E-02  -4.70150961E-03
  -1.18000004E-02  -4.78309067E-03
  -1.17499996E-02  -4.86552436E-03
  -1.16999997E-02  -4.94861230E-03
  -1.16499998E-02  -5.03233261E-03
  -1.15999999E-02  -5.11687621E-03
  -1.15499999E-02  -5.20254485E-03
  -1.15000000E-02  -5.28964307E-03
  -1.14500001E-02  -5.37834689E-03
  -1.14000002E-02  -5.46860695E-03
  -1.13500003E-02  -5.56016946E-03
  -1.13000004E-02  -5.65269357E-03
  -1.12500004E-02  -5.74592454E-03
  -1.11999996E-02  -5.83979348E-03
  -1.11499997E-02  -5.93443355E-03
  -1.10999998E-02  -6.03015441E-03
  -1.10499999E-02  -6.12732023E-03
  -1.09999999E-02  -6.22612890E-03
  -1.09500000E-02  -6.32654922E-03
  -1.09000001E-02  -6.42835815E-03
  -1.08500002E-02  -6.53120223E-03
  -1.08000003E-02  -6.63476018E-03
  -1.07500004E-02  -6.73888996E-03
  -1.07000005E-02  -6.84372569E-03
  -1.06499996E-02  -6.94959145E-03
  -1.05999997E-02  -7.05686025E-03
  -1.05499998E-02  -7.16579193E-03
  -1.04999999E-02  -7.27641769E-03
  -1.04499999E-02  -7.38853728E-03
  -1.04000000E-02  -7.50177633E-03
  -1.03500001E-02  -7.61574879E-03
  -1.03000002E-02  -7.73025537E-03
  -1.02500003E-02  -7.84536358E-03
  -1.02000004E-02  -7.96135515E-03
  -1.01500005E-02  -8.07863660E-03
  -1.00999996E-02  -8.19753483E-03
  -1.00499997E-02  -8.31812061E-03
  -9.99999978E-03  -8.44018534E-03
  -9.94999986E-03  -8.56333505E-03
  -9.89999995E-03  -8.68718512E-03
  -9.85000003E-03  -8.81151576E-03
  -9.80000012E-03  -8.93634371E-03
  -9.75000020E-03  -9.06191953E-03
  -9.70000029E-03  -9.18864366E-03
  -9.65000037E-03  -9.31683183E-03
  -9.60000046E-03  -9.44659486E-03
  -9.54999961E-03  -9.57779959E-03
  -9.49999969E-03  -9.71010327E-03
  -9.44999978E-03  -9.84310731E-03
  -9.39999986E-03  -9.97650437E-03
  -9.34999995E-03  -1.01102367E-02
  -9.30000003E-03  -1.02444878E-02
  -9.25000012E-03  -1.03795845E-02
  -9.20000020E-03  -1.05158715E-02
  -9.15000029E-03  -1.06535712E-02
  -9.10000037E-03  -1.07926438E-02
  -9.05000046E-03  -1.09327324E-02
  -8.99999961E-03  -1.10733928E-02
  -8.94999970E-03  -1.12142581E-02
  -8.89999978E-03  -1.13551561E-02
  -8.84999987E-03  -1.14961527E-02
  -8.79999995E-03  -1.16375526E-02
  -8.75000004E-03  -1.17797712E-02
  -8.70000012E-03  -1.19230887E-02
  -8.65000021E-03  -1.20675284E-02
  -8.60000029E-03  -1.22128297E-02
  -8.55000038E-03  -1.23585649E-02
  -8.50000046E-03  -1.25043280E-02
  -8.44999962E-03  -1.26498593E-02
  -8.39999970E-03  -1.27951680E-02
  -8.34999979E-03  -1.29405316E-02
  -8.29999987E-03  -1.30863162E-02
  -8.24999996E-03  -1.32328477E-02
  -8.20000004E-03  -1.33801848E-02
  -8.15000013E-03  -1.35280788E-02
  -8.10000021E-03  -1.36761107E-02
  -8.05000030E-03  -1.38237830E-02
  -8.00000038E-03  -1.39707550E-02
  -7.95000046E-03  -1.41169922E-02
  -7.89999962E-03  -1.42627135E-02
  -7.84999970E-03  -1.44082615E-02
  -7.79999979E-03  -1.45539502E-02
  -7.74999987E-03  -1.46998661E-02
  -7.69999996E-03  -1.48458639E-02
  -7.65000004E-03  -1.49915814E-02
  -7.60000013E-03  -1.51365129E-02
  -7.55000021E-03  -1.52803110E-02
  -7.49999983E-03  -1.54228862E-02
  -7.44999992E-03  -1.55644249E-02
  -7.40000000E-03  -1.57052148E-02
  -7.35000009E-03  -1.58455223E-02
  -7.30000017E-03  -1.59855243E-02
  -7.24999979E-03  -1.61251202E-02
  -7.19999988E-03  -1.62639860E-02
  -7.14999996E-03  -1.64016765E-02
  -7.10000005E-03  -1.65377595E-02
  -7.05000013E-03  -1.66719537E-02
  -7.00000022E-03  -1.68042425E-02
  -6.94999984E-03  -1.69348363E-02
  -6.89999992E-03  -1.70640834E-02
  -6.85000001E-03  -1.71922389E-02
  -6.80000009E-03  -1.73193123E-02
  -6.75000018E-03  -1.74450651E-02
  -6.69999979E-03  -1.75689831E-02
  -6.64999988E-03  -1.76905766E-02
  -6.59999996E-03  -1.78095009E-02
  -6.55000005E-03  -1.79256313E-02
  -6.50000013E-03  -1.80391409E-02
  -6.45000022E-03  -1.81503445E-02
  -6.39999984E-03  -1.82595849E-02
  -6.34999992E-03  -1.83670092E-02
  -6.30000001E-03  -1.84724107E-02
  -6.25000009E-03  -1.85753237E-02
  -6.20000018E-03  -1.86752230E-02
  -6.14999980E-03  -1.87716596E-02
  -6.09999988E-03  -1.88643653E-02
  -6.04999997E-03  -1.89533960E-02
  -6.00000005E-03  -1.90390702E-02
  -5.95000014E-03  -1.91216804E-02
  -5.90000022E-03  -1.92013904E-02
  -5.84999984E-03  -1.92781426E-02
  -5.79999993E-03  -1.93515364E-02
  -5.75000001E-03  -1.94210317E-02
  -5.70000010E-03  -1.94860715E-02
  -5.65000018E-03  -1.95462331E-02
  -5.59999980E-03  -1.96014903E-02
  -5.54999989E-03  -1.96521059E-02
  -5.49999997E-03  -1.96983851E-02
  -5.45000006E-03  -1.97404996E-02
  -5.40000014E-03  -1.97784938E-02
  -5.35000023E-03  -1.98121797E-02
  -5.29999984E-03  -1.98410507E-02
  -5.24999993E-03  -1.98645033E-02
  -5.20000001E-03  -1.98820550E-02
  -5.15000010E-03  -1.98935065E-02
  -5.10000018E-03  -1.98989119E-02
  -5.04999980E-03  -1.98984630E-02
  -4.99999989E-03  -1.98924541E-02
  -4.94999997E-03  -1.98810101E-02
  -4.90000006E-03  -1.98639575E-02
  -4.85000014E-03  -1.98409911E-02
  -4.80000023E-03  -1.98115949E-02
  -4.74999985E-03  -1.97751261E-02
  -4.69999993E-03  -1.97311379E-02
  -4.65000002E-03  -1.96794923E-02
  -4.60000010E-03  -1.96202472E-02
  -4.55000019E-03  -1.95536353E-02
  -4.49999981E-03  -1.94799472E-02
  -4.44999989E-03  -1.93993226E-02
  -4.39999998E-03  -1.93115324E-02
  -4.35000006E-03  -1.92160774E-02
  -4.30000015E-03  -1.91122033E-02
  -4.25000023E-03  -1.89992283E-02
  -4.19999985E-03  -1.88769083E-02
  -4.14999994E-03  -1.87452417E-02
  -4.10000002E-03  -1.86044797E-02
  -4.05000011E-03  -1.84550248E-02
  -4.00000019E-03  -1.82970539E-02
  -3.94999981E-03  -1.81303583E-02
  -3.89999989E-03  -1.79544222E-02
  -3.84999998E-03  -1.77686103E-02
  -3.80000006E-03  -1.75723452E-02
  -3.74999992E-03  -1.73651278E-02
  -3.70000000E-03  -1.71467401E-02
  -3.65000009E-03  -1.69174001E-02
  -3.59999994E-03  -1.66774075E-02
  -3.55000002E-03  -1.64270103E-02
  -3.50000011E-03  -1.61662847E-02
  -3.44999996E-03  -1.58948489E-02
  -3.40000005E-03  -1.56119969E-02
  -3.34999990E-03  -1.53168160E-02
  -3.29999998E-03  -1.50086181E-02
  -3.25000007E-03  -1.46871768E-02
  -3.19999992E-03  -1.43526103E-02
  -3.15000000E-03  -1.40053295E-02
  -3.10000009E-03  -1.36456946E-02
  -3.04999994E-03  -1.32738529E-02
  -3.00000003E-03  -1.28896143E-02
  -2.95000011E-03  -1.24923214E-02
  -2.89999996E-03  -1.20811751E-02
  -2.85000005E-03  -1.16553968E-02
  -2.79999990E-03  -1.12144519E-02
  -2.74999999E-03  -1.07582938E-02
  -2.70000007E-03  -1.02872318E-02
  -2.64999992E-03  -9.80165415E-03
  -2.60000001E-03  -9.30190273E-03
  -2.55000009E-03  -8.78804550E-03
  -2.49999994E-03  -8.25952552E-03
  -2.45000003E-03  -7.71544129E-03
  -2.40000011E-03  -7.15493783E-03
  -2.34999997E-03  -6.57732459E-03
  -2.30000005E-03  -5.98229235E-03
  -2.24999990E-03  -5.37007814E-03
  -2.19999999E-03  -4.74112714E-03
  -2.15000007E-03  -4.09582723E-03
  -2.09999993E-03  -3.43420589E-03
  -2.05000001E-03  -2.75580748E-03
  -2.00000009E-03  -2.05999822E-03
  -1.94999995E-03  -1.34597847E-03
  -1.90000003E-03  -6.13040524E-04
  -1.85000000E-03   1.39232638E-04
  -1.79999997E-03   9.10852221E-04
  -1.75000005E-03   1.70154194E-03
  -1.70000002E-03   2.51089875E-03
  -1.64999999E-03   3.33861937E-03
  -1.59999996E-03   4.18483233E-03
  -1.55000004E-03   5.05001750E-03
  -1.50000001E-03   5.93493879E-03
  -1.44999998E-03   6.84042647E-03
  -1.39999995E-03   7.76710361E-03
  -1.35000004E-03   8.71525146E-03
  -1.30000000E-03   9.68477968E-03
  -1.24999997E-03   1.06753316E-02
  -1.20000006E-03   1.16864201E-02
  -1.15000003E-03   1.27177583E-02
  -1.09999999E-03   1.37696881E-02
  -1.04999996E-03   1.48431137E-02
  -1.00000005E-03   1.59391314E-02
  -9.50000016E-04   1.70585904E-02
  -8.99999985E-04   1.82018783E-02
  -8.50000011E-04   1.93688236E-02
  -7.99999980E-04   2.05587950E-02
  -7.50000007E-04   2.17710827E-02
  -6.99999975E-04   2.30052490E-02
  -6.50000002E-04   2.42614560E-02
  -6.00000028E-04   2.55405959E-02
  -5.49999997E-04   2.68437918E-02
  -5.00000024E-04   2.81720571E-02
  -4.49999992E-04   2.95258760E-02
  -3.99999990E-04   3.09051070E-02
  -3.49999988E-04   3.23091745E-02
  -3.00000014E-04   3.37371603E-02
  -2.50000012E-04   3.51885185E-02
  -1.99999995E-04   3.66634130E-02
  -1.50000007E-04   3.81625518E-02
  -9.99999975E-05   3.96871157E-02
  -4.99999987E-05   4.12384123E-02
   0.00000000       4.28171419E-02
   4.99999987E-05   4.44232076E-02
   9.99999975E-05   4.60558832E-02
   1.50000007E-04   4.77141887E-02
   1.99999995E-04   4.93972972E-02
   2.50000012E-04   5.11050597E-02
   3.00000014E-04   5.28380312E-02
   3.49999988E-04   5.45972623E-02
   3.99999990E-04   5.63841239E-02
   4.49999992E-04   5.81996329E-02
   5.00000024E-04   6.00439496E-02
   5.49999997E-04   6.19163029E-02
   6.00000028E-04   6.38154596E-02
   6.50000002E-04   6.57403916E-02
   6.99999975E-04   6.76906779E-02
   7.50000007E-04   6.96666315E-02
   7.99999980E-04   7.16693699E-02
   8.50000011E-04   7.37002939E-02
   8.99999985E-04   7.57604092E-02
   9.50000016E-04   7.78501332E-02
   1.00000005E-03   7.99691454E-02
   1.04999996E-03   8.21162760E-02
   1.09999999E-03   8.42901766E-02
   1.15000003E-03   8.64899680E-02
   1.20000006E-03   8.87154788E-02
   1.24999997E-03   9.09675434E-02
   1.30000000E-03   9.32476074E-02
   1.35000004E-03   9.55570191E-02
   1.39999995E-03   9.78965461E-02
   1.44999998E-03  0.100266024    
   1.50000001E-03  0.102664404    
   1.55000004E-03  0.105089977    
   1.59999996E-03  0.107541181    
   1.64999999E-03  0.110017493    
   1.70000002E-03  0.112519570    
   1.75000005E-03  0.115048751    
   1.79999997E-03  0.117606752    
   1.85000000E-03  0.120194905    
   1.90000003E-03  0.122813173    
   1.94999995E-03  0.125460252    
   2.00000009E-03  0.128134057    
   2.05000001E-03  0.130832821    
   2.09999993E-03  0.133555666    
   2.15000007E-03  0.136302769    
   2.19999999E-03  0.139075518    
   2.24999990E-03  0.141875863    
   2.30000005E-03  0.144705415    
   2.34999997E-03  0.147564694    
   2.40000011E-03  0.150452465    
   2.45000003E-03  0.153366029    
   2.49999994E-03  0.156302914    
   2.55000009E-03  0.159261882    
   2.60000001E-03  0.162243053    
   2.64999992E-03  0.165247694    
   2.70000007E-03  0.168277621    
   2.74999999E-03  0.171334535    
   2.79999990E-03  0.174419403    