  -3.99999991E-02   0.00000000    
  -3.99499983E-02   0.00000000    
  -3.99000011E-02   0.00000000    
  -3.98500003E-02  -2.43953719E-18
  -3.97999994E-02  -2.46057364E-17
  -3.97499986E-02  -1.24570197E-16
  -3.97000015E-02  -4.16812023E-16
  -3.96500006E-02  -1.01487941E-15
  -3.95999998E-02  -1.83484510E-15
  -3.95499989E-02  -2.26935564E-15
  -3.95000018E-02  -8.89450557E-16
  -3.94500010E-02   4.53330339E-15
  -3.94000001E-02   1.63989492E-14
  -3.93499993E-02   3.60116024E-14
  -3.92999984E-02   6.21071323E-14
  -3.92500013E-02   9.00717828E-14
  -3.92000005E-02   1.12825405E-13
  -3.91499996E-02   1.23736240E-13
  -3.90999988E-02   1.20718594E-13
  -3.90500017E-02   1.09448244E-13
  -3.90000008E-02   1.03305826E-13
  -3.89500000E-02   1.18819369E-13
  -3.88999991E-02   1.67752341E-13
  -3.88499983E-02   2.49380486E-13
  -3.88000011E-02   3.47409249E-13
  -3.87500003E-02   4.34491581E-13
  -3.86999995E-02   4.83758812E-13
  -3.86499986E-02   4.82742806E-13
  -3.86000015E-02   4.42665680E-13
  -3.85500006E-02   3.96968591E-13
  -3.84999998E-02   3.87407933E-13
  -3.84499989E-02   4.42464452E-13
  -3.84000018E-02   5.58071818E-13
  -3.83500010E-02   6.91521601E-13
  -3.83000001E-02   7.74361640E-13
  -3.82499993E-02   7.40862775E-13
  -3.81999984E-02   5.59703813E-13
  -3.81500013E-02   2.53008552E-13
  -3.81000005E-02  -1.08602424E-13
  -3.80499996E-02  -4.35260118E-13
  -3.79999988E-02  -6.59411490E-13
  -3.79500017E-02  -7.70364133E-13
  -3.79000008E-02  -8.24179429E-13
  -3.78500000E-02  -9.21926489E-13
  -3.77999991E-02  -1.16442793E-12
  -3.77499983E-02  -1.60405012E-12
  -3.77000012E-02  -2.21712254E-12
  -3.76500003E-02  -2.91168608E-12
  -3.75999995E-02  -3.56808290E-12
  -3.75499986E-02  -4.09308655E-12
  -3.75000015E-02  -4.46113589E-12
  -3.74500006E-02  -4.72294166E-12
  -3.73999998E-02  -4.97864857E-12
  -3.73499990E-02  -5.33049993E-12
  -3.73000018E-02  -5.83877001E-12
  -3.72500010E-02  -6.50051107E-12
  -3.72000001E-02  -7.25664797E-12
  -3.71499993E-02  -8.01751894E-12
  -3.70999984E-02  -8.68909458E-12
  -3.70500013E-02  -9.18616138E-12
  -3.70000005E-02  -9.43216685E-12
  -3.69499996E-02  -9.35910811E-12
  -3.68999988E-02  -8.92406635E-12
  -3.68500017E-02  -8.14638548E-12
  -3.68000008E-02  -7.14679531E-12
  -3.67500000E-02  -6.15250819E-12
  -3.66999991E-02  -5.43712948E-12
  -3.66499983E-02  -5.19632904E-12
  -3.66000012E-02  -5.40614038E-12
  -3.65500003E-02  -5.74348034E-12
  -3.64999995E-02  -5.64177654E-12
  -3.64499986E-02  -4.50038791E-12
  -3.64000015E-02  -1.98373132E-12
  -3.63500006E-02   1.72516157E-12
  -3.62999998E-02   5.86763060E-12
  -3.62499990E-02   9.33573618E-12
  -3.62000018E-02   1.11387236E-11
  -3.61500010E-02   1.09248704E-11
  -3.61000001E-02   9.29684281E-12
  -3.60499993E-02   7.70519846E-12
  -3.59999985E-02   7.87951648E-12
  -3.59500013E-02   1.09934796E-11
  -3.59000005E-02   1.69433825E-11
  -3.58499996E-02   2.41389461E-11
  -3.57999988E-02   3.00178736E-11
  -3.57500017E-02   3.21607983E-11
  -3.57000008E-02   2.95484089E-11
  -3.56500000E-02   2.33416775E-11
  -3.55999991E-02   1.66944826E-11
  -3.55499983E-02   1.35129252E-11
  -3.55000012E-02   1.66000269E-11
  -3.54500003E-02   2.60197645E-11
  -3.53999995E-02   3.85528068E-11
  -3.53499986E-02   4.87143138E-11
  -3.53000015E-02   5.10918773E-11
  -3.52500007E-02   4.30523360E-11
  -3.51999998E-02   2.65230077E-11
  -3.51499990E-02   7.80825318E-12
  -3.51000018E-02  -4.78023307E-12
  -3.50500010E-02  -4.64729557E-12
  -3.50000001E-02   9.63830578E-12
  -3.49499993E-02   3.29113542E-11
  -3.48999985E-02   5.49929165E-11
  -3.48500013E-02   6.49472004E-11
  -3.48000005E-02   5.63042911E-11
  -3.47499996E-02   3.08237671E-11
  -3.46999988E-02  -1.24439868E-12
  -3.46500017E-02  -2.50030482E-11
  -3.46000008E-02  -2.75232684E-11
  -3.45500000E-02  -4.36812479E-12
  -3.44999991E-02   3.71637478E-11
  -3.44499983E-02   8.00676817E-11
  -3.44000012E-02   1.04610320E-10
  -3.43500003E-02   9.74837849E-11
  -3.42999995E-02   5.89699470E-11
  -3.42499986E-02   4.40983621E-12
  -3.42000015E-02  -4.14103092E-11
  -3.41500007E-02  -5.50768077E-11
  -3.40999998E-02  -2.59515638E-11
  -3.40499990E-02   3.72741941E-11
  -3.40000018E-02   1.08582733E-10
  -3.39500010E-02   1.55177107E-10
  -3.39000002E-02   1.52433524E-10
  -3.38499993E-02   9.65419064E-11
  -3.37999985E-02   8.50627121E-12
  -3.37500013E-02  -7.33423253E-11
  -3.37000005E-02  -1.09946545E-10
  -3.36499996E-02  -8.02336461E-11
  -3.35999988E-02   6.81435160E-12
  -3.35500017E-02   1.13207055E-10
  -3.35000008E-02   1.86966359E-10
  -3.34500000E-02   1.85373328E-10
  -3.33999991E-02   9.61738814E-11
  -3.33499983E-02  -5.35748390E-11
  -3.33000012E-02  -2.06455020E-10
  -3.32500003E-02  -2.98911923E-10
  -3.31999995E-02  -2.90706847E-10
  -3.31499986E-02  -1.86111279E-10
  -3.31000015E-02  -3.60106008E-11
  -3.30500007E-02   8.18569726E-11
  -3.29999998E-02   9.71804304E-11
  -3.29499990E-02  -1.90252536E-11
  -3.29000019E-02  -2.36970943E-10
  -3.28500010E-02  -4.76814865E-10
  -3.28000002E-02  -6.41748321E-10
  -3.27499993E-02  -6.61954547E-10
  -3.26999985E-02  -5.29637056E-10
  -3.26500013E-02  -3.07828874E-10
  -3.26000005E-02  -1.06605662E-10
  -3.25499997E-02  -3.51671366E-11
  -3.24999988E-02  -1.50334023E-10
  -3.24500017E-02  -4.25388169E-10
  -3.24000008E-02  -7.55560392E-10
  -3.23500000E-02  -1.00055031E-09
  -3.22999991E-02  -1.04708242E-09
  -3.22499983E-02  -8.63737470E-10
  -3.22000012E-02  -5.21736709E-10
  -3.21500003E-02  -1.69290942E-10
  -3.20999995E-02   3.20405542E-11
  -3.20499986E-02  -1.79418251E-11
  -3.20000015E-02  -3.06463910E-10
  -3.19500007E-02  -7.05170256E-10
  -3.18999998E-02  -1.02141318E-09
  -3.18499990E-02  -1.08345133E-09
  -3.18000019E-02  -8.22228008E-10
  -3.17500010E-02  -3.11266957E-10
  -3.17000002E-02   2.56998367E-10
  -3.16499993E-02   6.52018828E-10
  -3.15999985E-02   7.09479586E-10
  -3.15500014E-02   4.12260032E-10
  -3.15000005E-02  -9.13471174E-11
  -3.14499997E-02  -5.45022305E-10
  -3.13999988E-02  -6.95957125E-10
  -3.13500017E-02  -4.12412743E-10
  -3.13000008E-02   2.46899445E-10
  -3.12500000E-02   1.04706388E-09
  -3.11999992E-02   1.67378811E-09
  -3.11500002E-02   1.87334992E-09
  -3.10999993E-02   1.57360558E-09
  -3.10500003E-02   9.28757071E-10
  -3.09999995E-02   2.62232736E-10
  -3.09500005E-02  -7.23915303E-11
  -3.08999997E-02   1.46733861E-10
  -3.08500007E-02   8.98506491E-10
  -3.07999998E-02   1.91289407E-09
  -3.07500008E-02   2.77950085E-09
  -3.07000000E-02   3.12758686E-09
  -3.06499992E-02   2.79879364E-09
  -3.06000002E-02   1.93245242E-09
  -3.05499993E-02   9.18904453E-10
  -3.05000003E-02   2.34528591E-10
  -3.04499995E-02   2.27539362E-10
  -3.04000005E-02   9.50345025E-10
  -3.03499997E-02   2.11835061E-09
  -3.03000007E-02   3.22143334E-09
  -3.02499998E-02   3.74550702E-09
  -3.02000009E-02   3.40849082E-09
  -3.01500000E-02   2.30295782E-09
  -3.00999992E-02   8.74652073E-10
  -3.00500002E-02  -2.62411592E-10
  -2.99999993E-02  -5.98369299E-10
  -2.99500003E-02   3.28355780E-11
  -2.98999995E-02   1.35835865E-09
  -2.98500005E-02   2.76741363E-09
  -2.97999997E-02   3.57258068E-09
  -2.97500007E-02   3.32030181E-09
  -2.96999998E-02   2.01094674E-09
  -2.96500009E-02   1.22900606E-10
  -2.96000000E-02  -1.58064106E-09
  -2.95499992E-02  -2.38510078E-09
  -2.95000002E-02  -1.95296135E-09
  -2.94499993E-02  -4.96822861E-10
  -2.94000003E-02   1.28991573E-09
  -2.93499995E-02   2.52534038E-09
  -2.93000005E-02   2.53201105E-09
  -2.92499997E-02   1.15629273E-09
  -2.92000007E-02  -1.13533694E-09
  -2.91499998E-02  -3.43791196E-09
  -2.91000009E-02  -4.79833728E-09
  -2.90500000E-02  -4.64672523E-09
  -2.89999992E-02  -3.07418180E-09
  -2.89500002E-02  -8.23169033E-10
  -2.88999993E-02   1.01890019E-09
  -2.88500004E-02   1.49746171E-09
  -2.87999995E-02   2.30730934E-10
  -2.87500005E-02  -2.39005327E-09
  -2.86999997E-02  -5.34221112E-09
  -2.86500007E-02  -7.40639905E-09
  -2.85999998E-02  -7.71045805E-09
  -2.85500009E-02  -6.14025986E-09
  -2.85000000E-02  -3.42497875E-09
  -2.84499992E-02  -8.43472625E-10
  -2.84000002E-02   3.31896038E-10
  -2.83499993E-02  -5.86718174E-10
  -2.83000004E-02  -3.36405637E-09
  -2.82499995E-02  -6.90673918E-09
  -2.82000005E-02  -9.72010383E-09
  -2.81499997E-02  -1.05669340E-08
  -2.81000007E-02  -9.03836916E-09
  -2.80499998E-02  -5.77452797E-09
  -2.80000009E-02  -2.21981833E-09
  -2.79500000E-02  -3.76821057E-12
  -2.78999992E-02  -2.11607398E-10
  -2.78500002E-02  -2.86993052E-09
  -2.77999993E-02  -6.88913948E-09
  -2.77500004E-02  -1.05078222E-08
  -2.76999995E-02  -1.20591492E-08
  -2.76500005E-02  -1.07262927E-08
  -2.75999997E-02  -6.94517510E-09
  -2.75500007E-02  -2.25811991E-09
  -2.74999999E-02   1.33787814E-09
  -2.74500009E-02   2.27456165E-09
  -2.74000000E-02   1.38063852E-10
  -2.73499992E-02  -4.09706935E-09
  -2.73000002E-02  -8.45081072E-09
  -2.72499993E-02  -1.07894627E-08
  -2.72000004E-02  -9.78087566E-09
  -2.71499995E-02  -5.52651702E-09
  -2.71000005E-02   4.27221647E-10
  -2.70499997E-02   5.72785464E-09
  -2.70000007E-02   8.24331270E-09
  -2.69499999E-02   7.02888414E-09
  -2.69000009E-02   2.79688717E-09
  -2.68500000E-02  -2.34142772E-09
  -2.67999992E-02  -5.77325432E-09
  -2.67500002E-02  -5.54125545E-09
  -2.66999993E-02  -1.24933963E-09
  -2.66500004E-02   5.69980241E-09
  -2.65999995E-02   1.26672113E-08
  -2.65500005E-02   1.69169319E-08
  -2.64999997E-02   1.68409997E-08
  -2.64500007E-02   1.27223512E-08
  -2.63999999E-02   6.67554234E-09
  -2.63500009E-02   1.76173243E-09
  -2.63000000E-02   6.45545783E-10
  -2.62499992E-02   4.38081260E-09
  -2.62000002E-02   1.18756267E-08
  -2.61499994E-02   2.03016945E-08
  -2.61000004E-02   2.62981512E-08
  -2.60499995E-02   2.74576752E-08
  -2.60000005E-02   2.34375737E-08
  -2.59499997E-02   1.61836109E-08
  -2.59000007E-02   9.13473386E-09
  -2.58499999E-02   5.72982417E-09
  -2.58000009E-02   7.86224508E-09
  -2.57500000E-02   1.49740078E-08
  -2.56999992E-02   2.42182914E-08
  -2.56500002E-02   3.16544480E-08
  -2.55999994E-02   3.39749846E-08
  -2.55500004E-02   3.00081098E-08
  -2.54999995E-02   2.13141504E-08
  -2.54500005E-02   1.15774839E-08
  -2.53999997E-02   5.02572783E-09
  -2.53500007E-02   4.55210269E-09
  -2.52999999E-02   1.03727134E-08
  -2.52500009E-02   1.98384562E-08
  -2.52000000E-02   2.85242852E-08
  -2.51499992E-02   3.21500195E-08
  -2.51000002E-02   2.84994499E-08
  -2.50499994E-02   1.84779569E-08
  -2.50000004E-02   5.80694692E-09
  -2.49499995E-02  -4.55219462E-09
  -2.49000005E-02  -8.57953264E-09
  -2.48499997E-02  -5.02570874E-09
  -2.48000007E-02   3.94165101E-09
  -2.47499999E-02   1.36013263E-08
  -2.47000009E-02   1.87127700E-08
  -2.46500000E-02   1.58471476E-08
  -2.45999992E-02   4.98077002E-09
  -2.45500002E-02  -1.03855831E-08
  -2.44999994E-02  -2.46805225E-08
  -2.44500004E-02  -3.26870300E-08
  -2.43999995E-02  -3.18829798E-08
  -2.43500005E-02  -2.36471482E-08
  -2.42999997E-02  -1.27565505E-08
  -2.42500007E-02  -5.34827249E-09
  -2.41999999E-02  -6.21138518E-09
  -2.41500009E-02  -1.66004934E-08
  -2.41000000E-02  -3.35644543E-08
  -2.40499992E-02  -5.11353235E-08
  -2.40000002E-02  -6.29005186E-08
  -2.39499994E-02  -6.48482157E-08
  -2.39000004E-02  -5.72214987E-08
  -2.38499995E-02  -4.45235493E-08
  -2.38000005E-02  -3.36181323E-08
  -2.37499997E-02  -3.07202228E-08
  -2.37000007E-02  -3.85903718E-08
  -2.36499999E-02  -5.51927073E-08
  -2.36000009E-02  -7.44577804E-08
  -2.35500000E-02  -8.88683402E-08
  -2.34999992E-02  -9.27636137E-08
  -2.34500002E-02  -8.49058637E-08
  -2.33999994E-02  -6.91425726E-08
  -2.33500004E-02  -5.28166453E-08
  -2.32999995E-02  -4.35738130E-08
  -2.32500006E-02  -4.59498217E-08
  -2.31999997E-02  -5.92551253E-08
  -2.31500007E-02  -7.77361180E-08
  -2.30999999E-02  -9.30006223E-08
  -2.30500009E-02  -9.76837953E-08
  -2.30000000E-02  -8.87508875E-08
  -2.29499992E-02  -6.89533337E-08
  -2.29000002E-02  -4.57413876E-08
  -2.28499994E-02  -2.80537957E-08
  -2.28000004E-02  -2.23636167E-08
  -2.27499995E-02  -2.97259799E-08
  -2.27000006E-02  -4.51693971E-08
  -2.26499997E-02  -5.97602963E-08
  -2.26000007E-02  -6.44858034E-08
  -2.25499999E-02  -5.42676268E-08
  -2.25000009E-02  -3.03209298E-08
  -2.24500000E-02   2.33290831E-10
  -2.23999992E-02   2.73950498E-08
  -2.23500002E-02   4.26643574E-08
  -2.22999994E-02   4.28526157E-08
  -2.22500004E-02   3.16151230E-08
  -2.21999995E-02   1.79691124E-08
  -2.21500006E-02   1.23884565E-08
  -2.20999997E-02   2.21597141E-08
  -2.20500007E-02   4.80508895E-08
  -2.19999999E-02   8.38063769E-08
  -2.19500009E-02   1.18755523E-07
  -2.19000001E-02   1.42441877E-07
  -2.18499992E-02   1.49257389E-07
  -2.18000002E-02   1.41018603E-07
  -2.17499994E-02   1.26294509E-07
  -2.17000004E-02   1.16715576E-07
  -2.16499995E-02   1.21841538E-07
  -2.16000006E-02   1.44840300E-07
  -2.15499997E-02   1.80916487E-07
  -2.15000007E-02   2.19245194E-07
  -2.14499999E-02   2.47623291E-07
  -2.14000009E-02   2.57824837E-07
  -2.13500001E-02   2.49296050E-07
  -2.12999992E-02   2.29515521E-07
  -2.12500002E-02   2.10792919E-07
  -2.11999994E-02   2.04860712E-07
  -2.11500004E-02   2.17617128E-07
  -2.10999995E-02   2.46358780E-07
  -2.10500006E-02   2.80778437E-07
  -2.09999997E-02   3.07355606E-07
  -2.09500007E-02   3.15256017E-07
  -2.08999999E-02   3.01148248E-07
  -2.08500009E-02   2.70780873E-07
  -2.08000001E-02   2.36562812E-07
  -2.07499992E-02   2.12147569E-07
  -2.07000002E-02   2.06371112E-07
  -2.06499994E-02   2.19219729E-07
  -2.06000004E-02   2.41649218E-07
  -2.05499995E-02   2.59402441E-07
  -2.05000006E-02   2.59203688E-07
  -2.04499997E-02   2.34624366E-07
  -2.04000007E-02   1.89014528E-07
  -2.03499999E-02   1.34154902E-07
  -2.03000009E-02   8.51554418E-08
  -2.02500001E-02   5.38001750E-08
  -2.01999992E-02   4.32563887E-08
  -2.01500002E-02   4.65158472E-08
  -2.00999994E-02   4.93162027E-08
  -2.00500004E-02   3.63173278E-08
  -1.99999996E-02  -2.14383666E-09
  -1.99500006E-02  -6.57014780E-08
  -1.98999997E-02  -1.43973395E-07
  -1.98500007E-02  -2.20995020E-07
  -1.97999999E-02  -2.82188324E-07
  -1.97500009E-02  -3.20814280E-07
  -1.97000001E-02  -3.41055539E-07
  -1.96499992E-02  -3.56323511E-07
  -1.96000002E-02  -3.83460275E-07
  -1.95499994E-02  -4.35344418E-07
  -1.95000004E-02  -5.15137799E-07
  -1.94499996E-02  -6.14738269E-07
  -1.94000006E-02  -7.18178285E-07
  -1.93499997E-02  -8.08533173E-07
  -1.93000007E-02  -8.75344256E-07
  -1.92499999E-02  -9.19290358E-07
  -1.92000009E-02  -9.52003973E-07
  -1.91500001E-02  -9.91055913E-07
  -1.90999992E-02  -1.05226195E-06
  -1.90500002E-02  -1.14265140E-06
  -1.89999994E-02  -1.25722272E-06
  -1.89500004E-02  -1.38094958E-06
  -1.88999996E-02  -1.49522430E-06
  -1.88500006E-02  -1.58595708E-06
  -1.87999997E-02  -1.64978030E-06
  -1.87500007E-02  -1.69561497E-06
  -1.86999999E-02  -1.74084391E-06
  -1.86500009E-02  -1.80372331E-06
  -1.86000001E-02  -1.89532079E-06
  -1.85499992E-02  -2.01452099E-06
  -1.85000002E-02  -2.14833472E-06
  -1.84499994E-02  -2.27742385E-06
  -1.84000004E-02  -2.38448388E-06
  -1.83499996E-02  -2.46183322E-06
  -1.83000006E-02  -2.51485312E-06
  -1.82499997E-02  -2.55973032E-06
  -1.82000007E-02  -2.61643982E-06
  -1.81499999E-02  -2.69998736E-06
  -1.81000009E-02  -2.81373877E-06
  -1.80500001E-02  -2.94779056E-06
  -1.79999992E-02  -3.08314975E-06
  -1.79500002E-02  -3.19994047E-06
  -1.78999994E-02  -3.28608485E-06
  -1.78500004E-02  -3.34266588E-06
  -1.77999996E-02  -3.38357768E-06
  -1.77500006E-02  -3.42956218E-06
  -1.76999997E-02  -3.49918992E-06
  -1.76500008E-02  -3.60071294E-06
  -1.75999999E-02  -3.72835552E-06
  -1.75500009E-02  -3.86471038E-06
  -1.75000001E-02  -3.98827024E-06
  -1.74499992E-02  -4.08282040E-06
  -1.74000002E-02  -4.14461238E-06
  -1.73499994E-02  -4.18415448E-06
  -1.73000004E-02  -4.22177754E-06
  -1.72499996E-02  -4.27889790E-06
  -1.72000006E-02  -4.36870096E-06
  -1.71499997E-02  -4.49034815E-06
  -1.71000008E-02  -4.62927437E-06
  -1.70499999E-02  -4.76349032E-06
  -1.70000009E-02  -4.87317584E-06
  -1.69500001E-02  -4.94941696E-06
  -1.68999992E-02  -4.99828002E-06
  -1.68500002E-02  -5.03836509E-06
  -1.67999994E-02  -5.09287247E-06
  -1.67500004E-02  -5.17960234E-06
  -1.66999996E-02  -5.30322995E-06
  -1.66500006E-02  -5.45325429E-06
  -1.65999997E-02  -5.60854551E-06
  -1.65500008E-02  -5.74657179E-06
  -1.64999999E-02  -5.85331236E-06
  -1.64500009E-02  -5.92954348E-06
  -1.64000001E-02  -5.99076930E-06
  -1.63499992E-02  -6.06068397E-06
  -1.63000003E-02  -6.16101488E-06
  -1.62499994E-02  -6.30218210E-06
  -1.62000004E-02  -6.47877687E-06
  -1.61499996E-02  -6.67189579E-06
  -1.61000006E-02  -6.85736677E-06
  -1.60499997E-02  -7.01636009E-06
  -1.60000008E-02  -7.14375028E-06
  -1.59499999E-02  -7.25057998E-06
  -1.59000009E-02  -7.35949334E-06
  -1.58500001E-02  -7.49510855E-06
  -1.57999992E-02  -7.67346228E-06
  -1.57500003E-02  -7.89507340E-06
  -1.56999994E-02  -8.14471696E-06
  -1.56500004E-02  -8.39802397E-06
  -1.55999996E-02  -8.63212517E-06
  -1.55499997E-02  -8.83572284E-06
  -1.54999997E-02  -9.01423664E-06
  -1.54499998E-02  -9.18769001E-06
  -1.53999999E-02  -9.38225912E-06
  -1.53500000E-02  -9.61906335E-06
  -1.53000001E-02  -9.90507851E-06
  -1.52500002E-02  -1.02300919E-05
  -1.52000003E-02  -1.05710733E-05
  -1.51500003E-02  -1.09022039E-05
  -1.51000004E-02  -1.12061443E-05
  -1.50499996E-02  -1.14817212E-05
  -1.49999997E-02  -1.17446953E-05
  -1.49499997E-02  -1.20211889E-05
  -1.48999998E-02  -1.23364871E-05
  -1.48499999E-02  -1.27041612E-05
  -1.48000000E-02  -1.31201587E-05
  -1.47500001E-02  -1.35644959E-05
  -1.47000002E-02  -1.40099037E-05
  -1.46500003E-02  -1.44336800E-05
  -1.46000003E-02  -1.48276804E-05
  -1.45500004E-02  -1.52020475E-05
  -1.44999996E-02  -1.55810521E-05
  -1.44499997E-02  -1.59928059E-05
  -1.43999998E-02  -1.64571902E-05
  -1.43499998E-02  -1.69771793E-05
  -1.42999999E-02  -1.75375226E-05
  -1.42500000E-02  -1.81112282E-05
  -1.42000001E-02  -1.86712296E-05
  -1.41500002E-02  -1.92021907E-05
  -1.41000003E-02  -1.97073696E-05
  -1.40500003E-02  -2.02074843E-05
  -1.40000004E-02  -2.07319172E-05
  -1.39499996E-02  -2.13061576E-05
  -1.38999997E-02  -2.19407684E-05
  -1.38499998E-02  -2.26267457E-05
  -1.37999998E-02  -2.33393403E-05
  -1.37499999E-02  -2.40486515E-05
  -1.37000000E-02  -2.47326680E-05
  -1.36500001E-02  -2.53870276E-05
  -1.36000002E-02  -2.60270826E-05
  -1.35500003E-02  -2.66816314E-05
  -1.35000004E-02  -2.73807418E-05
  -1.34500004E-02  -2.81427801E-05
  -1.33999996E-02  -2.89663003E-05
  -1.33499997E-02  -2.98306895E-05
  -1.32999998E-02  -3.07050650E-05
  -1.32499998E-02  -3.15615398E-05
  -1.31999999E-02  -3.23876629E-05
  -1.31500000E-02  -3.31920164E-05
  -1.31000001E-02  -3.40007682E-05
  -1.30500002E-02  -3.48468457E-05
  -1.30000003E-02  -3.57558092E-05
  -1.29500004E-02  -3.67348039E-05
  -1.29000004E-02  -3.77694596E-05
  -1.28499996E-02  -3.88300105E-05
  -1.27999997E-02  -3.98842858E-05
  -1.27499998E-02  -4.09118002E-05
  -1.26999998E-02  -4.19129647E-05
  -1.26499999E-02  -4.29094362E-05
  -1.26000000E-02  -4.39350733E-05
  -1.25500001E-02  -4.50216103E-05
  -1.25000002E-02  -4.61850650E-05
  -1.24500003E-02  -4.74188564E-05
  -1.24000004E-02  -4.86965037E-05
  -1.23500004E-02  -4.99831040E-05
  -1.22999996E-02  -5.12507504E-05
  -1.22499997E-02  -5.24910502E-05
  -1.21999998E-02  -5.37193228E-05
  -1.21499998E-02  -5.49683864E-05
  -1.20999999E-02  -5.62747191E-05
  -1.20500000E-02  -5.76631392E-05
  -1.20000001E-02  -5.91361641E-05
  -1.19500002E-02  -6.06726790E-05
  -1.19000003E-02  -6.22371299E-05
  -1.18500004E-02  -6.37951307E-05
  -1.18000004E-02  -6.53289680E-05
  -1.17499996E-02  -6.68456341E-05
  -1.16999997E-02  -6.83742255E-05
  -1.16499998E-02  -6.99542652E-05
  -1.15999999E-02  -7.16187860E-05
  -1.15499999E-02  -7.33800407E-05
  -1.15000000E-02  -7.52245251E-05
  -1.14500001E-02  -7.71187479E-05
  -1.14000002E-02  -7.90236663E-05
  -1.13500003E-02  -8.09122284E-05
  -1.13000004E-02  -8.27822223E-05
  -1.12500004E-02  -8.46574985E-05
  -1.11999996E-02  -8.65783877E-05
  -1.11499997E-02  -8.85848567E-05
  -1.10999998E-02  -9.06990972E-05
  -1.10499999E-02  -9.29161106E-05
  -1.09999999E-02  -9.52056580E-05
  -1.09500000E-02  -9.75255971E-05
  -1.09000001E-02  -9.98407922E-05
  -1.08500002E-02  -1.02138685E-04
  -1.08000003E-02  -1.04435465E-04
  -1.07500004E-02  -1.06769825E-04
  -1.07000005E-02  -1.09186680E-04
  -1.06499996E-02  -1.11718095E-04
  -1.05999997E-02  -1.14369381E-04
  -1.05499998E-02  -1.17117110E-04
  -1.04999999E-02  -1.19919408E-04
  -1.04499999E-02  -1.22734549E-04
  -1.04000000E-02  -1.25539635E-04
  -1.03500001E-02  -1.28341198E-04
  -1.03000002E-02  -1.31173481E-04
  -1.02500003E-02  -1.34084461E-04
  -1.02000004E-02  -1.37114912E-04
  -1.01500005E-02  -1.40281074E-04
  -1.00999996E-02  -1.43567944E-04
  -1.00499997E-02  -1.46935679E-04
  -9.99999978E-03  -1.50337175E-04
  -9.94999986E-03  -1.53738962E-04
  -9.89999995E-03  -1.57136121E-04
  -9.85000003E-03  -1.60556054E-04
  -9.80000012E-03  -1.64047364E-04
  -9.75000020E-03  -1.67658174E-04
  -9.70000029E-03  -1.71416352E-04
  -9.65000037E-03  -1.75317356E-04
  -9.60000046E-03  -1.79325551E-04
  -9.54999961E-03  -1.83390803E-04
  -9.49999969E-03  -1.87471029E-04
  -9.44999978E-03  -1.91550687E-04
  -9.39999986E-03  -1.95648739E-04
  -9.34999995E-03  -1.99811504E-04
  -9.30000003E-03  -2.04093274E-04
  -9.25000012E-03  -2.08533223E-04
  -9.20000020E-03  -2.13139239E-04
  -9.15000029E-03  -2.17883353E-04
  -9.10000037E-03  -2.22714079E-04
  -9.05000046E-03  -2.27580196E-04
  -8.99999961E-03  -2.32453371E-04
  -8.94999970E-03  -2.37342101E-04
  -8.89999978E-03  -2.42288908E-04
  -8.84999987E-03  -2.47351476E-04
  -8.79999995E-03  -2.52578233E-04
  -8.75000004E-03  -2.57988460E-04
  -8.70000012E-03  -2.63562571E-04
  -8.65000021E-03  -2.69251614E-04
  -8.60000029E-03  -2.74999067E-04
  -8.55000038E-03  -2.80765584E-04
  -8.50000046E-03  -2.86548369E-04
  -8.44999962E-03  -2.92382669E-04
  -8.39999970E-03  -2.98327563E-04
  -8.34999979E-03  -3.04440589E-04
  -8.29999987E-03  -3.10752861E-04
  -8.24999996E-03  -3.17256316E-04
  -8.20000004E-03  -3.23906919E-04
  -8.15000013E-03  -3.30645184E-04
  -8.10000021E-03  -3.37423524E-04
  -8.05000030E-03  -3.44226923E-04
  -8.00000038E-03  -3.51080555E-04
  -7.95000046E-03  -3.58041143E-04
  -7.89999962E-03  -3.65171843E-04
  -7.84999970E-03  -3.72515322E-04
  -7.79999979E-03  -3.80074809E-04
  -7.74999987E-03  -3.87812761E-04
  -7.69999996E-03  -3.95669136E-04
  -7.65000004E-03  -4.03586775E-04
  -7.60000013E-03  -4.11537534E-04
  -7.55000021E-03  -4.19535936E-04
  -7.49999983E-03  -4.27633699E-04
  -7.44999992E-03  -4.35897702E-04
  -7.40000000E-03  -4.44381934E-04
  -7.35000009E-03  -4.53102926E-04
  -7.30000017E-03  -4.62032069E-04
  -7.24999979E-03  -4.71112231E-04
  -7.19999988E-03  -4.80280258E-04
  -7.14999996E-03  -4.89494472E-04
  -7.10000005E-03  -4.98756417E-04
  -7.05000013E-03  -5.08111727E-04
  -7.00000022E-03  -5.17630950E-04
  -6.94999984E-03  -5.27377822E-04
  -6.89999992E-03  -5.37381624E-04
  -6.85000001E-03  -5.47624368E-04
  -6.80000009E-03  -5.58050757E-04
  -6.75000018E-03  -5.68592455E-04
  -6.69999979E-03  -5.79197134E-04
  -6.64999988E-03  -5.89855015E-04
  -6.59999996E-03  -6.00603234E-04
  -6.55000005E-03  -6.11508614E-04
  -6.50000013E-03  -6.22639724E-04
  -6.45000022E-03  -6.34037540E-04
  -6.39999984E-03  -6.45696709E-04
  -6.34999992E-03  -6.57566998E-04
  -6.30000001E-03  -6.69577275E-04
  -6.25000009E-03  -6.81668171E-04
  -6.20000018E-03  -6.93816808E-04
  -6.14999980E-03  -7.06047576E-04
  -6.09999988E-03  -7.18425668E-04
  -6.04999997E-03  -7.31026579E-04
  -6.00000005E-03  -7.43901357E-04
  -5.95000014E-03  -7.57055939E-04
  -5.90000022E-03  -7.70450337E-04
  -5.84999984E-03  -7.84014701E-04
  -5.79999993E-03  -7.97680754E-04
  -5.75000001E-03  -8.11413105E-04
  -5.70000010E-03  -8.25223629E-04
  -5.65000018E-03  -8.39170825E-04
  -5.59999980E-03  -8.53332400E-04
  -5.54999989E-03  -8.67769588E-04
  -5.49999997E-03  -8.82504391E-04
  -5.45000006E-03  -8.97503749E-04
  -5.40000014E-03  -9.12695774E-04
  -5.35000023E-03  -9.28004680E-04
  -5.29999984E-03  -9.43382212E-04
  -5.24999993E-03  -9.58828430E-04
  -5.20000001E-03  -9.74395021E-04
  -5.15000010E-03  -9.90161672E-04
  -5.10000018E-03  -1.00619916E-03
  -5.04999980E-03  -1.02253864E-03
  -4.99999989E-03  -1.03915774E-03
  -4.94999997E-03  -1.05599163E-03
  -4.90000006E-03  -1.07295811E-03
  -4.85000014E-03  -1.09000027E-03
  -4.80000023E-03  -1.10710878E-03
  -4.74999985E-03  -1.12432276E-03
  -4.69999993E-03  -1.14171952E-03
  -4.65000002E-03  -1.15937844E-03
  -4.60000010E-03  -1.17734366E-03
  -4.55000019E-03  -1.19560387E-03
  -4.49999981E-03  -1.21409644E-03
  -4.44999989E-03  -1.23273919E-03
  -4.39999998E-03  -1.25146250E-03
  -4.35000006E-03  -1.27023854E-03
  -4.30000015E-03  -1.28909957E-03
  -4.25000023E-03  -1.30811997E-03
  -4.19999985E-03  -1.32738426E-03
  -4.14999994E-03  -1.34694914E-03
  -4.10000002E-03  -1.36681774E-03
  -4.05000011E-03  -1.38693466E-03
  -4.00000019E-03  -1.40720839E-03
  -3.94999981E-03  -1.42755907E-03
  -3.89999989E-03  -1.44795049E-03
  -3.84999998E-03  -1.46840152E-03
  -3.80000006E-03  -1.48898107E-03
  -3.74999992E-03  -1.50978146E-03
  -3.70000000E-03  -1.53087557E-03
  -3.65000009E-03  -1.55227398E-03
  -3.59999994E-03  -1.57392700E-03
  -3.55000002E-03  -1.59574614E-03
  -3.50000011E-03  -1.61763595E-03
  -3.44999996E-03  -1.63954427E-03
  -3.40000005E-03  -1.66148588E-03
  -3.34999990E-03  -1.68353436E-03
  -3.29999998E-03  -1.70578971E-03
  -3.25000007E-03  -1.72832329E-03
  -3.19999992E-03  -1.75114977E-03
  -3.15000000E-03  -1.77422795E-03
  -3.10000009E-03  -1.79746374E-03
  -3.04999994E-03  -1.82075507E-03
  -3.00000003E-03  -1.84404373E-03
  -2.95000011E-03  -1.86733599E-03
  -2.89999996E-03  -1.89069309E-03
  -2.85000005E-03  -1.91421027E-03
  -2.79999990E-03  -1.93797273E-03
  -2.74999999E-03  -1.96201215E-03
  -2.70000007E-03  -1.98629429E-03
  -2.64999992E-03  -2.01072963E-03
  -2.60000001E-03  -2.03520572E-03
  -2.55000009E-03  -2.05965154E-03
  -2.49999994E-03  -2.08405894E-03
  -2.45000003E-03  -2.10848334E-03
  -2.40000011E-03  -2.13302555E-03
  -2.34999997E-03  -2.15777149E-03
  -2.30000005E-03  -2.18276307E-03
  -2.24999990E-03  -2.20797956E-03
  -2.19999999E-03  -2.23333132E-03
  -2.15000007E-03  -2.25870661E-03
  -2.09999993E-03  -2.28402438E-03
  -2.05000001E-03  -2.30925833E-03
  -2.00000009E-03  -2.33444804E-03
  -1.94999995E-03  -2.35968968E-03
  -1.90000003E-03  -2.38507940E-03
  -1.85000000E-03  -2.41066515E-03
  -1.79999997E-03  -2.43643578E-03
  -1.75000005E-03  -2.46231211E-03
  -1.70000002E-03  -2.48817611E-03
  -1.64999999E-03  -2.51393719E-03
  -1.59999996E-03  -2.53956183E-03
  -1.55000004E-03  -2.56508077E-03
  -1.50000001E-03  -2.59057223E-03
  -1.44999998E-03  -2.61613214E-03
  -1.39999995E-03  -2.64182361E-03
  -1.35000004E-03  -2.66763708E-03
  -1.30000000E-03  -2.69351155E-03
  -1.24999997E-03  -2.71935342E-03
  -1.20000006E-03  -2.74506025E-03
  -1.15000003E-03  -2.77056103E-03
  -1.09999999E-03  -2.79585947E-03
  -1.04999996E-03  -2.82103033E-03
  -1.00000005E-03  -2.84617953E-03
  -9.50000016E-04  -2.87138950E-03
  -8.99999985E-04  -2.89668352E-03
  -8.50000011E-04  -2.92199431E-03
  -7.99999980E-04  -2.94720801E-03
  -7.50000007E-04  -2.97221029E-03
  -6.99999975E-04  -2.99691875E-03
  -6.50000002E-04  -3.02132522E-03
  -6.00000028E-04  -3.04549723E-03
  -5.49999997E-04  -3.06952908E-03
  -5.00000024E-04  -3.09351180E-03
  -4.49999992E-04  -3.11749568E-03
  -3.99999990E-04  -3.14143370E-03
  -3.49999988E-04  -3.16521386E-03
  -3.00000014E-04  -3.18870158E-03
  -2.50000012E-04  -3.21179256E-03
  -1.99999995E-04  -3.23446910E-03
  -1.50000007E-04  -3.25679267E-03
  -9.99999975E-05  -3.27886315E-03
  -4.99999987E-05  -3.30078206E-03
   0.00000000      -3.32259550E-03
   4.99999987E-05  -3.34425969E-03
   9.99999975E-05  -3.36567312E-03
   1.50000007E-04  -3.38671682E-03
   1.99999995E-04  -3.40727763E-03
   2.50000012E-04  -3.42730992E-03
   3.00000014E-04  -3.44684767E-03
   3.49999988E-04  -3.46597587E-03
   3.99999990E-04  -3.48479603E-03
   4.49999992E-04  -3.50337499E-03
   5.00000024E-04  -3.52170551E-03
   5.49999997E-04  -3.53970216E-03
   6.00000028E-04  -3.55723640E-03
   6.50000002E-04  -3.57417855E-03
   6.99999975E-04  -3.59044434E-03
   7.50000007E-04  -3.60604073E-03
   7.99999980E-04  -3.62104573E-03
   8.50000011E-04  -3.63556971E-03
   8.99999985E-04  -3.64970043E-03
   9.50000016E-04  -3.66346934E-03
   1.00000005E-03  -3.67682613E-03
   1.04999996E-03  -3.68962483E-03
   1.09999999E-03  -3.70169408E-03
   1.15000003E-03  -3.71292164E-03
   1.20000006E-03  -3.72330495E-03
   1.24999997E-03  -3.73291457E-03
   1.30000000E-03  -3.74187063E-03
   1.35000004E-03  -3.75029584E-03
   1.39999995E-03  -3.75823537E-03
   1.44999998E-03  -3.76563636E-03
   1.50000001E-03  -3.77234793E-03
   1.55000004E-03  -3.77818476E-03
   1.59999996E-03  -3.78301973E-03
   1.64999999E-03  -3.78681207E-03
   1.70000002E-03  -3.78961884E-03
   1.75000005E-03  -3.79158184E-03
   1.79999997E-03  -3.79283610E-03
   1.85000000E-03  -3.79344751E-03
   1.90000003E-03  -3.79337952E-03
   1.94999995E-03  -3.79247731E-03
   2.00000009E-03  -3.79053480E-03
   2.05000001E-03  -3.78740858E-03
   2.09999993E-03  -3.78305349E-03
   2.15000007E-03  -3.77751421E-03
   2.19999999E-03  -3.77093232E-03
   2.24999990E-03  -3.76345799E-03
   2.30000005E-03  -3.75516503E-03
   2.34999997E-03  -3.74600897E-03
   2.40000011E-03  -3.73586896E-03
   2.45000003E-03  -3.72456061E-03
   2.49999994E-03  -3.71190999E-03
   2.55000009E-03  -3.69784120E-03
   2.60000001E-03  -3.68236960E-03
   2.64999992E-03  -3.66561534E-03
   2.70000007E-03  -3.64774885E-03
   2.74999999E-03  -3.62888817E-03
   2.79999990E-03  -3.60902748E-03