  -3.99999991E-02   0.00000000    
  -3.99499983E-02   0.00000000    
  -3.99000011E-02   0.00000000    
  -3.98500003E-02   0.00000000    
  -3.97999994E-02   8.12463195E-20
  -3.97499986E-02   6.93557184E-19
  -3.97000015E-02   3.10696710E-18
  -3.96500006E-02   9.70974878E-18
  -3.95999998E-02   2.39664019E-17
  -3.95499989E-02   5.04732573E-17
  -3.95000018E-02   9.56780161E-17
  -3.94500010E-02   1.68611252E-16
  -3.94000001E-02   2.79606370E-16
  -3.93499993E-02   4.36027441E-16
  -3.92999984E-02   6.37768534E-16
  -3.92500013E-02   8.77790672E-16
  -3.92000005E-02   1.14990609E-15
  -3.91499996E-02   1.45893495E-15
  -3.90999988E-02   1.82470633E-15
  -3.90500017E-02   2.27630406E-15
  -3.90000008E-02   2.84190375E-15
  -3.89500000E-02   3.54238475E-15
  -3.88999991E-02   4.39031618E-15
  -3.88499983E-02   5.38876220E-15
  -3.88000011E-02   6.52701355E-15
  -3.87500003E-02   7.78020091E-15
  -3.86999995E-02   9.12212133E-15
  -3.86499986E-02   1.05476786E-14
  -3.86000015E-02   1.20854237E-14
  -3.85500006E-02   1.37827998E-14
  -3.84999998E-02   1.56701705E-14
  -3.84499989E-02   1.77314946E-14
  -3.84000018E-02   1.99045170E-14
  -3.83500010E-02   2.21050832E-14
  -3.83000001E-02   2.42496707E-14
  -3.82499993E-02   2.62603033E-14
  -3.81999984E-02   2.80624980E-14
  -3.81500013E-02   2.95952465E-14
  -3.81000005E-02   3.08300748E-14
  -3.80499996E-02   3.17728530E-14
  -3.79999988E-02   3.24319293E-14
  -3.79500017E-02   3.27738867E-14
  -3.79000008E-02   3.27087532E-14
  -3.78500000E-02   3.21193742E-14
  -3.77999991E-02   3.09013374E-14
  -3.77499983E-02   2.89668937E-14
  -3.77000012E-02   2.62090798E-14
  -3.76500003E-02   2.24728412E-14
  -3.75999995E-02   1.75767841E-14
  -3.75499986E-02   1.13717561E-14
  -3.75000015E-02   3.77582046E-15
  -3.74500006E-02  -5.25377479E-15
  -3.73999998E-02  -1.57839491E-14
  -3.73499990E-02  -2.79412046E-14
  -3.73000018E-02  -4.18903837E-14
  -3.72500010E-02  -5.77876370E-14
  -3.72000001E-02  -7.57479610E-14
  -3.71499993E-02  -9.58200939E-14
  -3.70999984E-02  -1.17929443E-13
  -3.70500013E-02  -1.41793939E-13
  -3.70000005E-02  -1.66896214E-13
  -3.69499996E-02  -1.92605656E-13
  -3.68999988E-02  -2.18438061E-13
  -3.68500017E-02  -2.44306962E-13
  -3.68000008E-02  -2.70592874E-13
  -3.67500000E-02  -2.97969223E-13
  -3.66999991E-02  -3.27078859E-13
  -3.66499983E-02  -3.58218663E-13
  -3.66000012E-02  -3.91142956E-13
  -3.65500003E-02  -4.25025060E-13
  -3.64999995E-02  -4.58597082E-13
  -3.64499986E-02  -4.90476583E-13
  -3.64000015E-02  -5.19608662E-13
  -3.63500006E-02  -5.45616503E-13
  -3.62999998E-02  -5.68809214E-13
  -3.62499990E-02  -5.89752097E-13
  -3.62000018E-02  -6.08600139E-13
  -3.61500010E-02  -6.24592229E-13
  -3.61000001E-02  -6.36033652E-13
  -3.60499993E-02  -6.40802569E-13
  -3.59999985E-02  -6.37127720E-13
  -3.59500013E-02  -6.24279437E-13
  -3.59000005E-02  -6.02880810E-13
  -3.58499996E-02  -5.74681036E-13
  -3.57999988E-02  -5.41781734E-13
  -3.57500017E-02  -5.05517286E-13
  -3.57000008E-02  -4.65439373E-13
  -3.56500000E-02  -4.18983343E-13
  -3.55999991E-02  -3.62178712E-13
  -3.55499983E-02  -2.91228657E-13
  -3.55000012E-02  -2.04231570E-13
  -3.54500003E-02  -1.02146143E-13
  -3.53999995E-02   1.15398219E-14
  -3.53499986E-02   1.32325046E-13
  -3.53000015E-02   2.56731187E-13
  -3.52500007E-02   3.83980337E-13
  -3.51999998E-02   5.16575010E-13
  -3.51499990E-02   6.59410081E-13
  -3.51000018E-02   8.17595774E-13
  -3.50500010E-02   9.93779061E-13
  -3.50000001E-02   1.18618863E-12
  -3.49499993E-02   1.38851734E-12
  -3.48999985E-02   1.59197969E-12
  -3.48500013E-02   1.78874266E-12
  -3.48000005E-02   1.97510628E-12
  -3.47499996E-02   2.15283368E-12
  -3.46999988E-02   2.32790805E-12
  -3.46500017E-02   2.50722533E-12
  -3.46000008E-02   2.69465743E-12
  -3.45500000E-02   2.88821506E-12
  -3.44999991E-02   3.07965394E-12
  -3.44499983E-02   3.25693986E-12
  -3.44000012E-02   3.40876242E-12
  -3.43500003E-02   3.52919473E-12
  -3.42999995E-02   3.62019377E-12
  -3.42499986E-02   3.69039695E-12
  -3.42000015E-02   3.75041187E-12
  -3.41500007E-02   3.80666549E-12
  -3.40999998E-02   3.85678902E-12
  -3.40499990E-02   3.88891306E-12
  -3.40000018E-02   3.88542150E-12
  -3.39500010E-02   3.82965838E-12
  -3.39000002E-02   3.71270766E-12
  -3.38499993E-02   3.53720352E-12
  -3.37999985E-02   3.31623140E-12
  -3.37500013E-02   3.06736559E-12
  -3.37000005E-02   2.80413518E-12
  -3.36499996E-02   2.52872007E-12
  -3.35999988E-02   2.22956874E-12
  -3.35500017E-02   1.88560539E-12
  -3.35000008E-02   1.47551481E-12
  -3.34500000E-02   9.87944969E-13
  -3.33999991E-02   4.27750500E-13
  -3.33499983E-02  -1.84871595E-13
  -3.33000012E-02  -8.22263102E-13
  -3.32500003E-02  -1.46092871E-12
  -3.31999995E-02  -2.09183669E-12
  -3.31499986E-02  -2.72468549E-12
  -3.31000015E-02  -3.38377243E-12
  -3.30500007E-02  -4.09668523E-12
  -3.29999998E-02  -4.88044761E-12
  -3.29499990E-02  -5.73144874E-12
  -3.29000019E-02  -6.62421376E-12
  -3.28500010E-02  -7.52019454E-12
  -3.28000002E-02  -8.38288900E-12
  -3.27499993E-02  -9.19233873E-12
  -3.26999985E-02  -9.95214067E-12
  -3.26500013E-02  -1.06854586E-11
  -3.26000005E-02  -1.14215954E-11
  -3.25499997E-02  -1.21789826E-11
  -3.24999988E-02  -1.29522443E-11
  -3.24500017E-02  -1.37095630E-11
  -3.24000008E-02  -1.44022780E-11
  -3.23500000E-02  -1.49832074E-11
  -3.22999991E-02  -1.54257284E-11
  -3.22499983E-02  -1.57345924E-11
  -3.22000012E-02  -1.59426899E-11
  -3.21500003E-02  -1.60944504E-11
  -3.20999995E-02  -1.62230420E-11
  -3.20499986E-02  -1.63318924E-11
  -3.20000015E-02  -1.63892615E-11
  -3.19500007E-02  -1.63388036E-11
  -3.18999998E-02  -1.61218764E-11
  -3.18499990E-02  -1.57019918E-11
  -3.18000019E-02  -1.50805098E-11
  -3.17500010E-02  -1.42960557E-11
  -3.17000002E-02  -1.34070238E-11
  -3.16499993E-02  -1.24642397E-11
  -3.15999985E-02  -1.14859840E-11
  -3.15500014E-02  -1.04472819E-11
  -3.15000005E-02  -9.28930804E-12
  -3.14499997E-02  -7.94536832E-12
  -3.13999988E-02  -6.37192339E-12
  -3.13500017E-02  -4.57042824E-12
  -3.13000008E-02  -2.58982094E-12
  -3.12500000E-02  -5.08063210E-13
  -3.11999992E-02   1.59950471E-12
  -3.11500002E-02   3.69124870E-12
  -3.10999993E-02   5.77584551E-12
  -3.10500003E-02   7.90624597E-12
  -3.09999995E-02   1.01527276E-11
  -3.09500005E-02   1.25664609E-11
  -3.08999997E-02   1.51501849E-11
  -3.08500007E-02   1.78500270E-11
  -3.07999998E-02   2.05730658E-11
  -3.07500008E-02   2.32231370E-11
  -3.07000000E-02   2.57387011E-11
  -3.06499992E-02   2.81153816E-11
  -3.06000002E-02   3.04026596E-11
  -3.05499993E-02   3.26756747E-11
  -3.05000003E-02   3.49942332E-11
  -3.04499995E-02   3.73669602E-11
  -3.04000005E-02   3.97370921E-11
  -3.03499997E-02   4.19973986E-11
  -3.03000007E-02   4.40288223E-11
  -3.02499998E-02   4.57461569E-11
  -3.02000009E-02   4.71299041E-11
  -3.01500000E-02   4.82290423E-11
  -3.00999992E-02   4.91327430E-11
  -3.00500002E-02   4.99233606E-11
  -2.99999993E-02   5.06318633E-11
  -2.99500003E-02   5.12158545E-11
  -2.98999995E-02   5.15704111E-11
  -2.98500005E-02   5.15675697E-11
  -2.97999997E-02   5.11077916E-11
  -2.97500007E-02   5.01608442E-11
  -2.96999998E-02   4.87775133E-11
  -2.96500009E-02   4.70656569E-11
  -2.96000000E-02   4.51401416E-11
  -2.95499992E-02   4.30686563E-11
  -2.95000002E-02   4.08380552E-11
  -2.94499993E-02   3.83570467E-11
  -2.94000003E-02   3.54945726E-11
  -2.93499995E-02   3.21369251E-11
  -2.93000005E-02   2.82383492E-11
  -2.92499997E-02   2.38428704E-11
  -2.92000007E-02   1.90676346E-11
  -2.91499998E-02   1.40546619E-11
  -2.91000009E-02   8.91179405E-12
  -2.90500000E-02   3.66885992E-12
  -2.89999992E-02  -1.73080961E-12
  -2.89500002E-02  -7.39854532E-12
  -2.88999993E-02  -1.34416089E-11
  -2.88500004E-02  -1.99039153E-11
  -2.87999995E-02  -2.67334922E-11
  -2.87500005E-02  -3.37918686E-11
  -2.86999997E-02  -4.09017681E-11
  -2.86500007E-02  -4.79121708E-11
  -2.85999998E-02  -5.47520501E-11
  -2.85500009E-02  -6.14492693E-11
  -2.85000000E-02  -6.81056947E-11
  -2.84499992E-02  -7.48384826E-11
  -2.84000002E-02  -8.17123869E-11
  -2.83499993E-02  -8.86928170E-11
  -2.83000004E-02  -9.56413629E-11
  -2.82499995E-02  -1.02356998E-10
  -2.82000005E-02  -1.08645724E-10
  -2.81499997E-02  -1.14387798E-10
  -2.81000007E-02  -1.19572283E-10
  -2.80499998E-02  -1.24283542E-10
  -2.80000009E-02  -1.28645317E-10
  -2.79500000E-02  -1.32747036E-10
  -2.78999992E-02  -1.36584008E-10
  -2.78500002E-02  -1.40038092E-10
  -2.77999993E-02  -1.42907991E-10
  -2.77500004E-02  -1.44977697E-10
  -2.76999995E-02  -1.46094303E-10
  -2.76500005E-02  -1.46221382E-10
  -2.75999997E-02  -1.45443324E-10
  -2.75500007E-02  -1.43917836E-10
  -2.74999999E-02  -1.41796727E-10
  -2.74500009E-02  -1.39150053E-10
  -2.74000000E-02  -1.35926978E-10
  -2.73499992E-02  -1.31970684E-10
  -2.73000002E-02  -1.27080985E-10
  -2.72499993E-02  -1.21097771E-10
  -2.72000004E-02  -1.13969952E-10
  -2.71499995E-02  -1.05779586E-10
  -2.71000005E-02  -9.67099734E-11
  -2.70499997E-02  -8.69699937E-11
  -2.70000007E-02  -7.67071198E-11
  -2.69499999E-02  -6.59478236E-11
  -2.69000009E-02  -5.45930731E-11
  -2.68500000E-02  -4.24720814E-11
  -2.67999992E-02  -2.94311658E-11
  -2.67500002E-02  -1.54188641E-11
  -2.66999993E-02  -5.29431371E-13
  -2.66500004E-02   1.50146354E-11
  -2.65999995E-02   3.09344703E-11
  -2.65500005E-02   4.69910361E-11
  -2.64999997E-02   6.30644703E-11
  -2.64500007E-02   7.91814322E-11
  -2.63999999E-02   9.54765711E-11
  -2.63500009E-02   1.12102556E-10
  -2.63000000E-02   1.29127639E-10
  -2.62499992E-02   1.46466339E-10
  -2.62000002E-02   1.63875566E-10
  -2.61499994E-02   1.81019755E-10
  -2.61000004E-02   1.97577676E-10
  -2.60499995E-02   2.13344759E-10
  -2.60000005E-02   2.28285987E-10
  -2.59499997E-02   2.42516118E-10
  -2.59000007E-02   2.56213967E-10
  -2.58499999E-02   2.69505918E-10
  -2.58000009E-02   2.82369517E-10
  -2.57500000E-02   2.94599428E-10
  -2.56999992E-02   3.05853759E-10
  -2.56500002E-02   3.15762805E-10
  -2.55999994E-02   3.24053562E-10
  -2.55500004E-02   3.30634686E-10
  -2.54999995E-02   3.35603823E-10
  -2.54500005E-02   3.39172385E-10
  -2.53999997E-02   3.41541295E-10
  -2.53500007E-02   3.42781831E-10
  -2.52999999E-02   3.42774115E-10
  -2.52500009E-02   3.41232154E-10
  -2.52000000E-02   3.37805839E-10
  -2.51499992E-02   3.32217642E-10
  -2.51000002E-02   3.24374166E-10
  -2.50499994E-02   3.14401838E-10
  -2.50000004E-02   3.02587705E-10
  -2.49499995E-02   2.89249596E-10
  -2.49000005E-02   2.74592293E-10
  -2.48499997E-02   2.58615074E-10
  -2.48000007E-02   2.41113185E-10
  -2.47499999E-02   2.21773599E-10
  -2.47000009E-02   2.00324757E-10
  -2.46500000E-02   1.76673509E-10
  -2.45999992E-02   1.50969640E-10
  -2.45500002E-02   1.23566879E-10
  -2.44999994E-02   9.48960979E-11
  -2.44500004E-02   6.53044077E-11
  -2.43999995E-02   3.49312766E-11
  -2.43500005E-02   3.67966595E-12
  -2.42999997E-02  -2.87018447E-11
  -2.42500007E-02  -6.24603494E-11
  -2.41999999E-02  -9.76738898E-11
  -2.41500009E-02  -1.34155700E-10
  -2.41000000E-02  -1.71472281E-10
  -2.40499992E-02  -2.09068318E-10
  -2.40000002E-02  -2.46445392E-10
  -2.39499994E-02  -2.83316592E-10
  -2.39000004E-02  -3.19668320E-10
  -2.38499995E-02  -3.55700691E-10
  -2.38000005E-02  -3.91669780E-10
  -2.37499997E-02  -4.27700264E-10
  -2.37000007E-02  -4.63652061E-10
  -2.36499999E-02  -4.99101926E-10
  -2.36000009E-02  -5.33451949E-10
  -2.35500000E-02  -5.66117209E-10
  -2.34999992E-02  -5.96707461E-10
  -2.34500002E-02  -6.25122509E-10
  -2.33999994E-02  -6.51518617E-10
  -2.33500004E-02  -6.76160294E-10
  -2.32999995E-02  -6.99224512E-10
  -2.32500006E-02  -7.20643711E-10
  -2.31999997E-02  -7.40058237E-10
  -2.31500007E-02  -7.56902208E-10
  -2.30999999E-02  -7.70587483E-10
  -2.30500009E-02  -7.80703724E-10
  -2.30000000E-02  -7.87145515E-10
  -2.29499992E-02  -7.90105592E-10
  -2.29000002E-02  -7.89938004E-10
  -2.28499994E-02  -7.86952226E-10
  -2.28000004E-02  -7.81232690E-10
  -2.27499995E-02  -7.72564235E-10
  -2.27000006E-02  -7.60499219E-10
  -2.26499997E-02  -7.44535156E-10
  -2.26000007E-02  -7.24325766E-10
  -2.25499999E-02  -6.99830693E-10
  -2.25000009E-02  -6.71337042E-10
  -2.24500000E-02  -6.39340469E-10
  -2.23999992E-02  -6.04336803E-10
  -2.23500002E-02  -5.66617475E-10
  -2.22999994E-02  -5.26161892E-10
  -2.22500004E-02  -4.82676177E-10
  -2.21999995E-02  -4.35762010E-10
  -2.21500006E-02  -3.85139254E-10
  -2.20999997E-02  -3.30820843E-10
  -2.20500007E-02  -2.73164741E-10
  -2.19999999E-02  -2.12779877E-10
  -2.19500009E-02  -1.50327903E-10
  -2.19000001E-02  -8.63102922E-11
  -2.18499992E-02  -2.09330036E-11
  -2.18000002E-02   4.58889003E-11
  -2.17499994E-02   1.14389630E-10
  -2.17000004E-02   1.84736670E-10
  -2.16499995E-02   2.56839106E-10
  -2.16000006E-02   3.30266592E-10
  -2.15499997E-02   4.04317330E-10
  -2.15000007E-02   4.78202644E-10
  -2.14499999E-02   5.51263979E-10
  -2.14000009E-02   6.23124607E-10
  -2.13500001E-02   6.93711866E-10
  -2.12999992E-02   7.63142771E-10
  -2.12500002E-02   8.31524294E-10
  -2.11999994E-02   8.98760566E-10
  -2.11500004E-02   9.64449409E-10
  -2.10999995E-02   1.02791642E-09
  -2.10500006E-02   1.08836951E-09
  -2.09999997E-02   1.14510679E-09
  -2.09500007E-02   1.19767807E-09
  -2.08999999E-02   1.24593114E-09
  -2.08500009E-02   1.28992050E-09
  -2.08000001E-02   1.32972333E-09
  -2.07499992E-02   1.36525347E-09
  -2.07000002E-02   1.39615186E-09
  -2.06499994E-02   1.42180501E-09
  -2.06000004E-02   1.44147638E-09
  -2.05499995E-02   1.45450041E-09
  -2.05000006E-02   1.46044443E-09
  -2.04499997E-02   1.45917589E-09
  -2.04000007E-02   1.45080004E-09
  -2.03499999E-02   1.43549739E-09
  -2.03000009E-02   1.41333723E-09
  -2.02500001E-02   1.38414702E-09
  -2.01999992E-02   1.34750056E-09
  -2.01500002E-02   1.30282296E-09
  -2.00999994E-02   1.24956323E-09
  -2.00500004E-02   1.18735410E-09
  -1.99999996E-02   1.11608867E-09
  -1.99500006E-02   1.03589115E-09
  -1.98999997E-02   9.46993595E-10
  -1.98500007E-02   8.49579518E-10
  -1.97999999E-02   7.43657413E-10
  -1.97500009E-02   6.29023889E-10
  -1.97000001E-02   5.05329001E-10
  -1.96499992E-02   3.72214898E-10
  -1.96000002E-02   2.29459493E-10
  -1.95499994E-02   7.70625300E-11
  -1.95000004E-02  -8.47699272E-11
  -1.94499996E-02  -2.55718807E-10
  -1.94000006E-02  -4.35483538E-10
  -1.93499997E-02  -6.23886831E-10
  -1.93000007E-02  -8.20913115E-10
  -1.92499999E-02  -1.02667375E-09
  -1.92000009E-02  -1.24130684E-09
  -1.91500001E-02  -1.46486956E-09
  -1.90999992E-02  -1.69726055E-09
  -1.90500002E-02  -1.93821825E-09
  -1.89999994E-02  -2.18737606E-09
  -1.89500004E-02  -2.44437048E-09
  -1.88999996E-02  -2.70893263E-09
  -1.88500006E-02  -2.98092284E-09
  -1.87999997E-02  -3.26030314E-09
  -1.87500007E-02  -3.54706553E-09
  -1.86999999E-02  -3.84115406E-09
  -1.86500009E-02  -4.14240819E-09
  -1.86000001E-02  -4.45055637E-09
  -1.85499992E-02  -4.76524775E-09
  -1.85000002E-02  -5.08612086E-09
  -1.84499994E-02  -5.41286305E-09
  -1.84000004E-02  -5.74525494E-09
  -1.83499996E-02  -6.08315975E-09
  -1.83000006E-02  -6.42649178E-09
  -1.82499997E-02  -6.77515333E-09
  -1.82000007E-02  -7.12900317E-09
  -1.81499999E-02  -7.48784590E-09
  -1.81000009E-02  -7.85145637E-09
  -1.80500001E-02  -8.21960988E-09
  -1.79999992E-02  -8.59210392E-09
  -1.79500002E-02  -8.96877506E-09
  -1.78999994E-02  -9.34949718E-09
  -1.78500004E-02  -9.73418945E-09
  -1.77999996E-02  -1.01228004E-08
  -1.77500006E-02  -1.05152944E-08
  -1.76999997E-02  -1.09116529E-08
  -1.76500008E-02  -1.13118634E-08
  -1.75999999E-02  -1.17159216E-08
  -1.75500009E-02  -1.21238157E-08
  -1.75000001E-02  -1.25355060E-08
  -1.74499992E-02  -1.29509088E-08
  -1.74000002E-02  -1.33699221E-08
  -1.73499994E-02  -1.37924587E-08
  -1.73000004E-02  -1.42184993E-08
  -1.72499996E-02  -1.46481209E-08
  -1.72000006E-02  -1.50815040E-08
  -1.71499997E-02  -1.55188999E-08
  -1.71000008E-02  -1.59605733E-08
  -1.70499999E-02  -1.64067533E-08
  -1.70000009E-02  -1.68575998E-08
  -1.69500001E-02  -1.73132051E-08
  -1.68999992E-02  -1.77736457E-08
  -1.68500002E-02  -1.82390618E-08
  -1.67999994E-02  -1.87097147E-08
  -1.67500004E-02  -1.91860110E-08
  -1.66999996E-02  -1.96684571E-08
  -1.66500006E-02  -2.01575787E-08
  -1.65999997E-02  -2.06537933E-08
  -1.65500008E-02  -2.11573887E-08
  -1.64999999E-02  -2.16685532E-08
  -1.64500009E-02  -2.21874341E-08
  -1.64000001E-02  -2.27142571E-08
  -1.63499992E-02  -2.32494290E-08
  -1.63000003E-02  -2.37935698E-08
  -1.62499994E-02  -2.43474911E-08
  -1.62000004E-02  -2.49120440E-08
  -1.61499996E-02  -2.54880046E-08
  -1.61000006E-02  -2.60759396E-08
  -1.60499997E-02  -2.66762434E-08
  -1.60000008E-02  -2.72892215E-08
  -1.59499999E-02  -2.79152754E-08
  -1.59000009E-02  -2.85550072E-08
  -1.58500001E-02  -2.92092892E-08
  -1.57999992E-02  -2.98792067E-08
  -1.57500003E-02  -3.05659711E-08
  -1.56999994E-02  -3.12706980E-08
  -1.56500004E-02  -3.19942650E-08
  -1.55999996E-02  -3.27372724E-08
  -1.55499997E-02  -3.35001147E-08
  -1.54999997E-02  -3.42832891E-08
  -1.54499998E-02  -3.50875204E-08
  -1.53999999E-02  -3.59138994E-08
  -1.53500000E-02  -3.67638506E-08
  -1.53000001E-02  -3.76389551E-08
  -1.52500002E-02  -3.85407759E-08
  -1.52000003E-02  -3.94706596E-08
  -1.51500003E-02  -4.04295797E-08
  -1.51000004E-02  -4.14182395E-08
  -1.50499996E-02  -4.24373141E-08
  -1.49999997E-02  -4.34877130E-08
  -1.49499997E-02  -4.45707435E-08
  -1.48999998E-02  -4.56881182E-08
  -1.48499999E-02  -4.68418087E-08
  -1.48000000E-02  -4.80337512E-08
  -1.47500001E-02  -4.92656653E-08
  -1.47000002E-02  -5.05389046E-08
  -1.46500003E-02  -5.18544709E-08
  -1.46000003E-02  -5.32132702E-08
  -1.45500004E-02  -5.46163896E-08
  -1.44999996E-02  -5.60653142E-08
  -1.44499997E-02  -5.75619907E-08
  -1.43999998E-02  -5.91087321E-08
  -1.43499998E-02  -6.07078761E-08
  -1.42999999E-02  -6.23615293E-08
  -1.42500000E-02  -6.40713225E-08
  -1.42000001E-02  -6.58384778E-08
  -1.41500002E-02  -6.76640752E-08
  -1.41000003E-02  -6.95493370E-08
  -1.40500003E-02  -7.14959185E-08
  -1.40000004E-02  -7.35060510E-08
  -1.39499996E-02  -7.55824061E-08
  -1.38999997E-02  -7.77277691E-08
  -1.38499998E-02  -7.99446553E-08
  -1.37999998E-02  -8.22350685E-08
  -1.37499999E-02  -8.46004653E-08
  -1.37000000E-02  -8.70420109E-08
  -1.36500001E-02  -8.95609418E-08
  -1.36000002E-02  -9.21589844E-08
  -1.35500003E-02  -9.48384056E-08
  -1.35000004E-02  -9.76019763E-08
  -1.34500004E-02  -1.00452773E-07
  -1.33999996E-02  -1.03393759E-07
  -1.33499997E-02  -1.06427301E-07
  -1.32999998E-02  -1.09555181E-07
  -1.32499998E-02  -1.12778707E-07
  -1.31999999E-02  -1.16099137E-07
  -1.31500000E-02  -1.19518219E-07
  -1.31000001E-02  -1.23038291E-07
  -1.30500002E-02  -1.26662343E-07
  -1.30000003E-02  -1.30393616E-07
  -1.29500004E-02  -1.34235364E-07
  -1.29000004E-02  -1.38190231E-07
  -1.28499996E-02  -1.42260205E-07
  -1.27999997E-02  -1.46446780E-07
  -1.27499998E-02  -1.50751191E-07
  -1.26999998E-02  -1.55174973E-07
  -1.26499999E-02  -1.59720457E-07
  -1.26000000E-02  -1.64390485E-07
  -1.25500001E-02  -1.69188269E-07
  -1.25000002E-02  -1.74116977E-07
  -1.24500003E-02  -1.79179239E-07
  -1.24000004E-02  -1.84377086E-07
  -1.23500004E-02  -1.89712011E-07
  -1.22999996E-02  -1.95185237E-07
  -1.22499997E-02  -2.00798425E-07
  -1.21999998E-02  -2.06553963E-07
  -1.21499998E-02  -2.12455390E-07
  -1.20999999E-02  -2.18506713E-07
  -1.20500000E-02  -2.24711926E-07
  -1.20000001E-02  -2.31074239E-07
  -1.19500002E-02  -2.37595955E-07
  -1.19000003E-02  -2.44278539E-07
  -1.18500004E-02  -2.51122998E-07
  -1.18000004E-02  -2.58130456E-07
  -1.17499996E-02  -2.65302504E-07
  -1.16999997E-02  -2.72641358E-07
  -1.16499998E-02  -2.80150147E-07
  -1.15999999E-02  -2.87832620E-07
  -1.15499999E-02  -2.95692502E-07
  -1.15000000E-02  -3.03733032E-07
  -1.14500001E-02  -3.11956597E-07
  -1.14000002E-02  -3.20365444E-07
  -1.13500003E-02  -3.28962329E-07
  -1.13000004E-02  -3.37750777E-07
  -1.12500004E-02  -3.46735533E-07
  -1.11999996E-02  -3.55921401E-07
  -1.11499997E-02  -3.65312900E-07
  -1.10999998E-02  -3.74913697E-07
  -1.10499999E-02  -3.84726604E-07
  -1.09999999E-02  -3.94753272E-07
  -1.09500000E-02  -4.04994552E-07
  -1.09000001E-02  -4.15451211E-07
  -1.08500002E-02  -4.26124359E-07
  -1.08000003E-02  -4.37016894E-07
  -1.07500004E-02  -4.48133619E-07
  -1.07000005E-02  -4.59480447E-07
  -1.06499996E-02  -4.71063203E-07
  -1.05999997E-02  -4.82887174E-07
  -1.05499998E-02  -4.94957135E-07
  -1.04999999E-02  -5.07277946E-07
  -1.04499999E-02  -5.19854666E-07
  -1.04000000E-02  -5.32692411E-07
  -1.03500001E-02  -5.45796411E-07
  -1.03000002E-02  -5.59172747E-07
  -1.02500003E-02  -5.72827901E-07
  -1.02000004E-02  -5.86768010E-07
  -1.01500005E-02  -6.00997907E-07
  -1.00999996E-02  -6.15521230E-07
  -1.00499997E-02  -6.30340594E-07
  -9.99999978E-03  -6.45458954E-07
  -9.94999986E-03  -6.60880403E-07
  -9.89999995E-03  -6.76610341E-07
  -9.85000003E-03  -6.92655590E-07
  -9.80000012E-03  -7.09023595E-07
  -9.75000020E-03  -7.25722145E-07
  -9.70000029E-03  -7.42758857E-07
  -9.65000037E-03  -7.60140665E-07
  -9.60000046E-03  -7.77873879E-07
  -9.54999961E-03  -7.95964525E-07
  -9.49999969E-03  -8.14418797E-07
  -9.44999978E-03  -8.33244997E-07
  -9.39999986E-03  -8.52452899E-07
  -9.34999995E-03  -8.72052965E-07
  -9.30000003E-03  -8.92055937E-07
  -9.25000012E-03  -9.12472103E-07
  -9.20000020E-03  -9.33310162E-07
  -9.15000029E-03  -9.54577672E-07
  -9.10000037E-03  -9.76281967E-07
  -9.05000046E-03  -9.98430551E-07
  -8.99999961E-03  -1.02103138E-06
  -8.94999970E-03  -1.04409344E-06
  -8.89999978E-03  -1.06762639E-06
  -8.84999987E-03  -1.09164091E-06
  -8.79999995E-03  -1.11614725E-06
  -8.75000004E-03  -1.14115403E-06
  -8.70000012E-03  -1.16666911E-06
  -8.65000021E-03  -1.19270101E-06
  -8.60000029E-03  -1.21925962E-06
  -8.55000038E-03  -1.24635608E-06
  -8.50000046E-03  -1.27400301E-06
  -8.44999962E-03  -1.30221383E-06
  -8.39999970E-03  -1.33100275E-06
  -8.34999979E-03  -1.36038443E-06
  -8.29999987E-03  -1.39037286E-06
  -8.24999996E-03  -1.42098054E-06
  -8.20000004E-03  -1.45221782E-06
  -8.15000013E-03  -1.48409526E-06
  -8.10000021E-03  -1.51662664E-06
  -8.05000030E-03  -1.54982695E-06
  -8.00000038E-03  -1.58371176E-06
  -7.95000046E-03  -1.61829576E-06
  -7.89999962E-03  -1.65359313E-06
  -7.84999970E-03  -1.68961753E-06
  -7.79999979E-03  -1.72638227E-06
  -7.74999987E-03  -1.76389938E-06
  -7.69999996E-03  -1.80218035E-06
  -7.65000004E-03  -1.84123701E-06
  -7.60000013E-03  -1.88108311E-06
  -7.55000021E-03  -1.92173547E-06
  -7.49999983E-03  -1.96321298E-06
  -7.44999992E-03  -2.00553222E-06
  -7.40000000E-03  -2.04870821E-06
  -7.35000009E-03  -2.09275549E-06
  -7.30000017E-03  -2.13768863E-06
  -7.24999979E-03  -2.18352420E-06
  -7.19999988E-03  -2.23027905E-06
  -7.14999996E-03  -2.27796977E-06
  -7.10000005E-03  -2.32661318E-06
  -7.05000013E-03  -2.37623021E-06
  -7.00000022E-03  -2.42684314E-06
  -6.94999984E-03  -2.47847152E-06
  -6.89999992E-03  -2.53113103E-06
  -6.85000001E-03  -2.58483669E-06
  -6.80000009E-03  -2.63960374E-06
  -6.75000018E-03  -2.69545103E-06
  -6.69999979E-03  -2.75239813E-06
  -6.64999988E-03  -2.81046505E-06
  -6.59999996E-03  -2.86966952E-06
  -6.55000005E-03  -2.93002950E-06
  -6.50000013E-03  -2.99156522E-06
  -6.45000022E-03  -3.05429603E-06
  -6.39999984E-03  -3.11823965E-06
  -6.34999992E-03  -3.18341040E-06
  -6.30000001E-03  -3.24982170E-06
  -6.25000009E-03  -3.31749243E-06
  -6.20000018E-03  -3.38644622E-06
  -6.14999980E-03  -3.45670765E-06
  -6.09999988E-03  -3.52829966E-06
  -6.04999997E-03  -3.60124045E-06
  -6.00000005E-03  -3.67555094E-06
  -5.95000014E-03  -3.75125092E-06
  -5.90000022E-03  -3.82836106E-06
  -5.84999984E-03  -3.90690002E-06
  -5.79999993E-03  -3.98688735E-06
  -5.75000001E-03  -4.06834442E-06
  -5.70000010E-03  -4.15129443E-06
  -5.65000018E-03  -4.23576421E-06
  -5.59999980E-03  -4.32177831E-06
  -5.54999989E-03  -4.40935673E-06
  -5.49999997E-03  -4.49851450E-06
  -5.45000006E-03  -4.58926934E-06
  -5.40000014E-03  -4.68164126E-06
  -5.35000023E-03  -4.77565027E-06
  -5.29999984E-03  -4.87131774E-06
  -5.24999993E-03  -4.96866187E-06
  -5.20000001E-03  -5.06770493E-06
  -5.15000010E-03  -5.16847194E-06
  -5.10000018E-03  -5.27098609E-06
  -5.04999980E-03  -5.37526512E-06
  -4.99999989E-03  -5.48132402E-06
  -4.94999997E-03  -5.58917964E-06
  -4.90000006E-03  -5.69885515E-06
  -4.85000014E-03  -5.81037693E-06
  -4.80000023E-03  -5.92377364E-06
  -4.74999985E-03  -6.03907029E-06
  -4.69999993E-03  -6.15629006E-06
  -4.65000002E-03  -6.27545569E-06
  -4.60000010E-03  -6.39659220E-06
  -4.55000019E-03  -6.51972186E-06
  -4.49999981E-03  -6.64485924E-06
  -4.44999989E-03  -6.77202206E-06
  -4.39999998E-03  -6.90122988E-06
  -4.35000006E-03  -7.03250953E-06
  -4.30000015E-03  -7.16588602E-06
  -4.25000023E-03  -7.30138390E-06
  -4.19999985E-03  -7.43902137E-06
  -4.14999994E-03  -7.57881753E-06
  -4.10000002E-03  -7.72078602E-06
  -4.05000011E-03  -7.86494911E-06
  -4.00000019E-03  -8.01132501E-06
  -3.94999981E-03  -8.15993371E-06
  -3.89999989E-03  -8.31080160E-06
  -3.84999998E-03  -8.46395596E-06
  -3.80000006E-03  -8.61942681E-06
  -3.74999992E-03  -8.77723960E-06
  -3.70000000E-03  -8.93741617E-06
  -3.65000009E-03  -9.09997470E-06
  -3.59999994E-03  -9.26493249E-06
  -3.55000002E-03  -9.43231680E-06
  -3.50000011E-03  -9.60214948E-06
  -3.44999996E-03  -9.77446143E-06
  -3.40000005E-03  -9.94927359E-06
  -3.34999990E-03  -1.01266096E-05
  -3.29999998E-03  -1.03064986E-05
  -3.25000007E-03  -1.04889687E-05
  -3.19999992E-03  -1.06740417E-05
  -3.15000000E-03  -1.08617260E-05
  -3.10000009E-03  -1.10520377E-05
  -3.04999994E-03  -1.12449998E-05
  -3.00000003E-03  -1.14406439E-05
  -2.95000011E-03  -1.16390047E-05
  -2.89999996E-03  -1.18401058E-05
  -2.85000005E-03  -1.20439699E-05
  -2.79999990E-03  -1.22506208E-05
  -2.74999999E-03  -1.24600820E-05
  -2.70000007E-03  -1.26723753E-05
  -2.64999992E-03  -1.28875254E-05
  -2.60000001E-03  -1.31055485E-05
  -2.55000009E-03  -1.33264721E-05
  -2.49999994E-03  -1.35503306E-05
  -2.45000003E-03  -1.37771576E-05
  -2.40000011E-03  -1.40069924E-05
  -2.34999997E-03  -1.42398630E-05
  -2.30000005E-03  -1.44757905E-05
  -2.24999990E-03  -1.47147957E-05
  -2.19999999E-03  -1.49569023E-05
  -2.15000007E-03  -1.52021375E-05
  -2.09999993E-03  -1.54505324E-05
  -2.05000001E-03  -1.57021168E-05
  -2.00000009E-03  -1.59569154E-05
  -1.94999995E-03  -1.62149627E-05
  -1.90000003E-03  -1.64762914E-05
  -1.85000000E-03  -1.67409253E-05
  -1.79999997E-03  -1.70088897E-05
  -1.75000005E-03  -1.72801974E-05
  -1.70000002E-03  -1.75548739E-05
  -1.64999999E-03  -1.78329501E-05
  -1.59999996E-03  -1.81144587E-05
  -1.55000004E-03  -1.83994471E-05
  -1.50000001E-03  -1.86879497E-05
  -1.44999998E-03  -1.89799939E-05
  -1.39999995E-03  -1.92756106E-05
  -1.35000004E-03  -1.95748307E-05
  -1.30000000E-03  -1.98776852E-05
  -1.24999997E-03  -2.01841958E-05
  -1.20000006E-03  -2.04943954E-05
  -1.15000003E-03  -2.08083184E-05
  -1.09999999E-03  -2.11260030E-05
  -1.04999996E-03  -2.14474985E-05
  -1.00000005E-03  -2.17728357E-05
  -9.50000016E-04  -2.21020346E-05
  -8.99999985E-04  -2.24351261E-05
  -8.50000011E-04  -2.27721321E-05
  -7.99999980E-04  -2.31130798E-05
  -7.50000007E-04  -2.34579948E-05
  -6.99999975E-04  -2.38069151E-05
  -6.50000002E-04  -2.41598827E-05
  -6.00000028E-04  -2.45169413E-05
  -5.49999997E-04  -2.48781234E-05
  -5.00000024E-04  -2.52434565E-05
  -4.49999992E-04  -2.56129752E-05
  -3.99999990E-04  -2.59867120E-05
  -3.49999988E-04  -2.63646889E-05
  -3.00000014E-04  -2.67469277E-05
  -2.50000012E-04  -2.71334648E-05
  -1.99999995E-04  -2.75243583E-05
  -1.50000007E-04  -2.79196520E-05
  -9.99999975E-05  -2.83193785E-05
  -4.99999987E-05  -2.87235598E-05
   0.00000000      -2.91322212E-05
   4.99999987E-05  -2.95454065E-05
   9.99999975E-05  -2.99631592E-05
   1.50000007E-04  -3.03855013E-05
   1.99999995E-04  -3.08124472E-05
   2.50000012E-04  -3.12440243E-05
   3.00000014E-04  -3.16802943E-05
   3.49999988E-04  -3.21213265E-05
   3.99999990E-04  -3.25671463E-05
   4.49999992E-04  -3.30177500E-05
   5.00000024E-04  -3.34731485E-05
   5.49999997E-04  -3.39333819E-05
   6.00000028E-04  -3.43985012E-05
   6.50000002E-04  -3.48685608E-05
   6.99999975E-04  -3.53435789E-05
   7.50000007E-04  -3.58235629E-05
   7.99999980E-04  -3.63085419E-05
   8.50000011E-04  -3.67986031E-05
   8.99999985E-04  -3.72937866E-05
   9.50000016E-04  -3.77941105E-05
   1.00000005E-03  -3.82995713E-05
   1.04999996E-03  -3.88101871E-05
   1.09999999E-03  -3.93260161E-05
   1.15000003E-03  -3.98471311E-05
   1.20000006E-03  -4.03735794E-05
   1.24999997E-03  -4.09053682E-05
   1.30000000E-03  -4.14425122E-05
   1.35000004E-03  -4.19850476E-05
   1.39999995E-03  -4.25330181E-05
   1.44999998E-03  -4.30864711E-05
   1.50000001E-03  -4.36454247E-05
   1.55000004E-03  -4.42098790E-05
   1.59999996E-03  -4.47798557E-05
   1.64999999E-03  -4.53554130E-05
   1.70000002E-03  -4.59366274E-05
   1.75000005E-03  -4.65235207E-05
   1.79999997E-03  -4.71161147E-05
   1.85000000E-03  -4.77144022E-05
   1.90000003E-03  -4.83183976E-05
   1.94999995E-03  -4.89281701E-05
   2.00000009E-03  -4.95437853E-05
   2.05000001E-03  -5.01652648E-05
   2.09999993E-03  -5.07926015E-05
   2.15000007E-03  -5.14258245E-05
   2.19999999E-03  -5.20649955E-05
   2.24999990E-03  -5.27102020E-05
   2.30000005E-03  -5.33614475E-05
   2.34999997E-03  -5.40187284E-05
   2.40000011E-03  -5.46820593E-05
   2.45000003E-03  -5.53514838E-05
   2.49999994E-03  -5.60270601E-05
   2.55000009E-03  -5.67088391E-05
   2.60000001E-03  -5.73968500E-05
   2.64999992E-03  -5.80910964E-05
   2.70000007E-03  -5.87916002E-05
   2.74999999E-03  -5.94984012E-05
   2.79999990E-03  -6.02115579E-05