  -3.99999991E-02   0.00000000    
  -3.99499983E-02   0.00000000    
  -3.99000011E-02   0.00000000    
  -3.98500003E-02   0.00000000    
  -3.97999994E-02   0.00000000    
  -3.97499986E-02   5.66885899E-25
  -3.97000015E-02   5.07582925E-24
  -3.96500006E-02   2.38075224E-23
  -3.95999998E-02   7.71502242E-23
  -3.95499989E-02   1.92038140E-22
  -3.95000018E-02   3.85956294E-22
  -3.94500010E-02   6.38591814E-22
  -3.94000001E-02   8.60413139E-22
  -3.93499993E-02   8.73602287E-22
  -3.92999984E-02   4.17316885E-22
  -3.92500013E-02  -8.23846192E-22
  -3.92000005E-02  -3.18268323E-21
  -3.91499996E-02  -6.97838807E-21
  -3.90999988E-02  -1.24892479E-20
  -3.90500017E-02  -1.99047621E-20
  -3.90000008E-02  -2.92330023E-20
  -3.89500000E-02  -4.01782788E-20
  -3.88999991E-02  -5.20673845E-20
  -3.88499983E-02  -6.39387414E-20
  -3.88000011E-02  -7.48618811E-20
  -3.87500003E-02  -8.44129220E-20
  -3.86999995E-02  -9.30588594E-20
  -3.86499986E-02  -1.02119990E-19
  -3.86000015E-02  -1.13094589E-19
  -3.85500006E-02  -1.26455520E-19
  -3.84999998E-02  -1.40434614E-19
  -3.84499989E-02  -1.50559719E-19
  -3.84000018E-02  -1.50568701E-19
  -3.83500010E-02  -1.34722881E-19
  -3.83000001E-02  -1.00672908E-19
  -3.82499993E-02  -5.13449618E-20
  -3.81999984E-02   5.68977800E-21
  -3.81500013E-02   6.19661999E-20
  -3.81000005E-02   1.13981042E-19
  -3.80499996E-02   1.68587409E-19
  -3.79999988E-02   2.44813537E-19
  -3.79500017E-02   3.70045115E-19
  -3.79000008E-02   5.70974808E-19
  -3.78500000E-02   8.62569571E-19
  -3.77999991E-02   1.24006461E-18
  -3.77499983E-02   1.67848905E-18
  -3.77000012E-02   2.14126496E-18
  -3.76500003E-02   2.59508065E-18
  -3.75999995E-02   3.02454000E-18
  -3.75499986E-02   3.43911217E-18
  -3.75000015E-02   3.86764425E-18
  -3.74500006E-02   4.34135281E-18
  -3.73999998E-02   4.87225345E-18
  -3.73499990E-02   5.43729970E-18
  -3.73000018E-02   5.97697591E-18
  -3.72500010E-02   6.41091486E-18
  -3.72000001E-02   6.66494906E-18
  -3.71499993E-02   6.69777365E-18
  -3.70999984E-02   6.51440756E-18
  -3.70500013E-02   6.15875629E-18
  -3.70000005E-02   5.68679475E-18
  -3.69499996E-02   5.13093641E-18
  -3.68999988E-02   4.47075984E-18
  -3.68500017E-02   3.62296175E-18
  -3.68000008E-02   2.45518290E-18
  -3.67500000E-02   8.18088709E-19
  -3.66999991E-02  -1.41724329E-18
  -3.66499983E-02  -4.33067018E-18
  -3.66000012E-02  -7.94181896E-18
  -3.65500003E-02  -1.22169382E-17
  -3.64999995E-02  -1.70873809E-17
  -3.64499986E-02  -2.24710231E-17
  -3.64000015E-02  -2.82898814E-17
  -3.63500006E-02  -3.44810602E-17
  -3.62999998E-02  -4.10004578E-17
  -3.62499990E-02  -4.78184179E-17
  -3.62000018E-02  -5.49049933E-17
  -3.61500010E-02  -6.22033666E-17
  -3.61000001E-02  -6.95955555E-17
  -3.60499993E-02  -7.68735538E-17
  -3.59999985E-02  -8.37360030E-17
  -3.59500013E-02  -8.98279036E-17
  -3.59000005E-02  -9.48238561E-17
  -3.58499996E-02  -9.85285797E-17
  -3.57999988E-02  -1.00944093E-16
  -3.57500017E-02  -1.02249013E-16
  -3.57000008E-02  -1.02662809E-16
  -3.56500000E-02  -1.02222629E-16
  -3.55999991E-02  -1.00560261E-16
  -3.55499983E-02  -9.67987796E-17
  -3.55000012E-02  -8.96644064E-17
  -3.54500003E-02  -7.78256122E-17
  -3.53999995E-02  -6.03557893E-17
  -3.53499986E-02  -3.71225689E-17
  -3.53000015E-02  -8.89217670E-18
  -3.52500007E-02   2.29699023E-17
  -3.51999998E-02   5.71416830E-17
  -3.51499990E-02   9.30799874E-17
  -3.51000018E-02   1.31492534E-16
  -3.50500010E-02   1.74247634E-16
  -3.50000001E-02   2.23646477E-16
  -3.49499993E-02   2.81293527E-16
  -3.48999985E-02   3.47054730E-16
  -3.48500013E-02   4.18646140E-16
  -3.48000005E-02   4.92181199E-16
  -3.47499996E-02   5.63580624E-16
  -3.46999988E-02   6.30292251E-16
  -3.46500017E-02   6.92509150E-16
  -3.46000008E-02   7.53180797E-16
  -3.45500000E-02   8.16596089E-16
  -3.44999991E-02   8.86002816E-16
  -3.44499983E-02   9.61293880E-16
  -3.44000012E-02   1.03793660E-15
  -3.43500003E-02   1.10789315E-15
  -3.42999995E-02   1.16240470E-15
  -3.42499986E-02   1.19555482E-15
  -3.42000015E-02   1.20696139E-15
  -3.41500007E-02   1.20212451E-15
  -3.40999998E-02   1.18989304E-15
  -3.40499990E-02   1.17787608E-15
  -3.40000018E-02   1.16777256E-15
  -3.39500010E-02   1.15294091E-15
  -3.39000002E-02   1.11976019E-15
  -3.38499993E-02   1.05268799E-15
  -3.37999985E-02   9.41072133E-16
  -3.37500013E-02   7.84623560E-16
  -3.37000005E-02   5.94683462E-16
  -3.36499996E-02   3.90085274E-16
  -3.35999988E-02   1.88910608E-16
  -3.35500017E-02  -3.68209084E-19
  -3.35000008E-02  -1.84100798E-16
  -3.34500000E-02  -3.81996216E-16
  -3.33999991E-02  -6.18836289E-16
  -3.33499983E-02  -9.12542052E-16
  -3.33000012E-02  -1.26396003E-15
  -3.32500003E-02  -1.65357084E-15
  -3.31999995E-02  -2.04758229E-15
  -3.31499986E-02  -2.41158645E-15
  -3.31000015E-02  -2.72604467E-15
  -3.30500007E-02  -2.99627931E-15
  -3.29999998E-02  -3.25146006E-15
  -3.29499990E-02  -3.53177778E-15
  -3.29000019E-02  -3.86865951E-15
  -3.28500010E-02  -4.26682175E-15
  -3.28000002E-02  -4.69706874E-15
  -3.27499993E-02  -5.10453987E-15
  -3.26999985E-02  -5.43013722E-15
  -3.26500013E-02  -5.63624024E-15
  -3.26000005E-02  -5.72476619E-15
  -3.25499997E-02  -5.73805064E-15
  -3.24999988E-02  -5.74034059E-15
  -3.24500017E-02  -5.78682406E-15
  -3.24000008E-02  -5.89388564E-15
  -3.23500000E-02  -6.02512535E-15
  -3.22999991E-02  -6.10154466E-15
  -3.22499983E-02  -6.03351394E-15
  -3.22000012E-02  -5.76138258E-15
  -3.21500003E-02  -5.28607809E-15
  -3.20999995E-02  -4.67401081E-15
  -3.20499986E-02  -4.03139402E-15
  -3.20000015E-02  -3.45730452E-15
  -3.19500007E-02  -2.99594050E-15
  -3.18999998E-02  -2.61086196E-15
  -3.18499990E-02  -2.19563095E-15
  -3.18000019E-02  -1.61917346E-15
  -3.17500010E-02  -7.87382452E-16
  -3.17000002E-02   3.06989383E-16
  -3.16499993E-02   1.57105501E-15
  -3.15999985E-02   2.84478027E-15
  -3.15500014E-02   3.96862337E-15
  -3.15000005E-02   4.85663154E-15
  -3.14499997E-02   5.54063902E-15
  -3.13999988E-02   6.16200206E-15
  -3.13500017E-02   6.91032814E-15
  -3.13000008E-02   7.93388064E-15
  -3.12500000E-02   9.26195037E-15
  -3.11999992E-02   1.07771686E-14
  -3.11500002E-02   1.22551183E-14
  -3.10999993E-02   1.34580076E-14
  -3.10500003E-02   1.42423474E-14
  -3.09999995E-02   1.46306561E-14
  -3.09500005E-02   1.48103067E-14
  -3.08999997E-02   1.50542556E-14
  -3.08500007E-02   1.55951183E-14
  -3.07999998E-02   1.65086112E-14
  -3.07500008E-02   1.76623225E-14
  -3.07000000E-02   1.87590744E-14
  -3.06499992E-02   1.94615408E-14
  -3.06000002E-02   1.95452819E-14
  -3.05499993E-02   1.90099130E-14
  -3.05000003E-02   1.80927373E-14
  -3.04499995E-02   1.71712179E-14
  -3.04000005E-02   1.65922540E-14
  -3.03499997E-02   1.65036374E-14
  -3.03000007E-02   1.67674797E-14
  -3.02499998E-02   1.70023738E-14
  -3.02000009E-02   1.67436747E-14
  -3.01500000E-02   1.56547206E-14
  -3.00999992E-02   1.36931939E-14
  -3.00500002E-02   1.11512743E-14
  -2.99999993E-02   8.54219852E-15
  -2.99500003E-02   6.37622601E-15
  -2.98999995E-02   4.92400327E-15
  -2.98500005E-02   4.07767887E-15
  -2.97999997E-02   3.38141990E-15
  -2.97500007E-02   2.22795034E-15
  -2.96999998E-02   1.39459250E-16
  -2.96500009E-02  -2.99368866E-15
  -2.96000000E-02  -6.83126143E-15
  -2.95499992E-02  -1.07068395E-14
  -2.95000002E-02  -1.39118580E-14
  -2.94499993E-02  -1.60169678E-14
  -2.94000003E-02  -1.70825539E-14
  -2.93499995E-02  -1.76531949E-14
  -2.93000005E-02  -1.85256168E-14
  -2.92499997E-02  -2.03851913E-14
  -2.92000007E-02  -2.34731922E-14
  -2.91499998E-02  -2.74421226E-14
  -2.91000009E-02  -3.14776857E-14
  -2.90500000E-02  -3.46457143E-14
  -2.89999992E-02  -3.63149350E-14
  -2.89500002E-02  -3.64623628E-14
  -2.88999993E-02  -3.57122745E-14
  -2.88500004E-02  -3.50756242E-14
  -2.87999995E-02  -3.54948852E-14
  -2.87500005E-02  -3.73959693E-14
  -2.86999997E-02  -4.04564552E-14
  -2.86500007E-02  -4.37099257E-14
  -2.85999998E-02  -4.59559962E-14
  -2.85500009E-02  -4.63014196E-14
  -2.85000000E-02  -4.45875365E-14
  -2.84499992E-02  -4.14992849E-14
  -2.84000002E-02  -3.82886031E-14
  -2.83499993E-02  -3.62209991E-14
  -2.83000004E-02  -3.59882514E-14
  -2.82499995E-02  -3.73582594E-14
  -2.82000005E-02  -3.92364126E-14
  -2.81499997E-02  -4.01303272E-14
  -2.81000007E-02  -3.88221864E-14
  -2.80499998E-02  -3.49469904E-14
  -2.80000009E-02  -2.92042357E-14
  -2.79500000E-02  -2.30874771E-14
  -2.78999992E-02  -1.82343391E-14
  -2.78500002E-02  -1.56803129E-14
  -2.77999993E-02  -1.53573511E-14
  -2.77500004E-02  -1.60806884E-14
  -2.76999995E-02  -1.60523399E-14
  -2.76500005E-02  -1.36718309E-14
  -2.75999997E-02  -8.29311832E-15
  -2.75500007E-02  -5.75411292E-16
  -2.74999999E-02   7.75228778E-15
  -2.74500009E-02   1.46300733E-14
  -2.74000000E-02   1.85904894E-14
  -2.73499992E-02   1.94485473E-14
  -2.73000002E-02   1.84305137E-14
  -2.72499993E-02   1.76587074E-14
  -2.72000004E-02   1.92032381E-14
  -2.71499995E-02   2.41199272E-14
  -2.71000005E-02   3.19172823E-14
  -2.70499997E-02   4.07155829E-14
  -2.70000007E-02   4.80528364E-14
  -2.69499999E-02   5.19926407E-14
  -2.69000009E-02   5.20359817E-14
  -2.68500000E-02   4.94098103E-14
  -2.67999992E-02   4.65750045E-14
  -2.67500002E-02   4.61492315E-14
  -2.66999993E-02   4.97167344E-14
  -2.66500004E-02   5.70669678E-14
  -2.65999995E-02   6.62275817E-14
  -2.65500005E-02   7.43061144E-14
  -2.64999997E-02   7.87842963E-14
  -2.64500007E-02   7.86879378E-14
  -2.63999999E-02   7.50916188E-14
  -2.63500009E-02   7.07028091E-14
  -2.63000000E-02   6.86827101E-14
  -2.62499992E-02   7.12167480E-14
  -2.62000002E-02   7.84798320E-14
  -2.61499994E-02   8.84837790E-14
  -2.61000004E-02   9.79069188E-14
  -2.60499995E-02   1.03560200E-13
  -2.60000005E-02   1.03841083E-13
  -2.59499997E-02   9.95101422E-14
  -2.59000007E-02   9.34127856E-14
  -2.58499999E-02   8.92376451E-14
  -2.58000009E-02   8.98465940E-14
  -2.57500000E-02   9.59242654E-14
  -2.56999992E-02   1.05573597E-13
  -2.56500002E-02   1.15072584E-13
  -2.55999994E-02   1.20484555E-13
  -2.55500004E-02   1.19415857E-13
  -2.54999995E-02   1.12124984E-13
  -2.54500005E-02   1.01458535E-13
  -2.53999997E-02   9.16069453E-14
  -2.53500007E-02   8.62105797E-14
  -2.52999999E-02   8.66586127E-14
  -2.52500009E-02   9.13606891E-14
  -2.52000000E-02   9.63526066E-14
  -2.51499992E-02   9.70010679E-14
  -2.51000002E-02   9.00658061E-14
  -2.50499994E-02   7.51928969E-14
  -2.50000004E-02   5.51442606E-14
  -2.49499995E-02   3.46217196E-14
  -2.49000005E-02   1.81783977E-14
  -2.48499997E-02   8.13843655E-15
  -2.48000007E-02   3.46910179E-15
  -2.47499999E-02   1.44345545E-16
  -2.47000009E-02  -7.12193434E-15
  -2.46500000E-02  -2.25189723E-14
  -2.45999992E-02  -4.72080396E-14
  -2.45500002E-02  -7.87031098E-14
  -2.44999994E-02  -1.11879703E-13
  -2.44500004E-02  -1.41199796E-13
  -2.43999995E-02  -1.63178864E-13
  -2.43500005E-02  -1.77984675E-13
  -2.42999997E-02  -1.89420176E-13
  -2.42500007E-02  -2.03253484E-13
  -2.41999999E-02  -2.24604176E-13
  -2.41500009E-02  -2.55542142E-13
  -2.41000000E-02  -2.93989713E-13
  -2.40499992E-02  -3.34459294E-13
  -2.40000002E-02  -3.70343215E-13
  -2.39499994E-02  -3.96764869E-13
  -2.39000004E-02  -4.12719365E-13
  -2.38499995E-02  -4.21519319E-13
  -2.38000005E-02  -4.29300502E-13
  -2.37499997E-02  -4.42210396E-13
  -2.37000007E-02  -4.63513939E-13
  -2.36499999E-02  -4.91921445E-13
  -2.36000009E-02  -5.21925331E-13
  -2.35500000E-02  -5.46049263E-13
  -2.34999992E-02  -5.58046393E-13
  -2.34500002E-02  -5.55631116E-13
  -2.33999994E-02  -5.41501197E-13
  -2.33500004E-02  -5.22145261E-13
  -2.32999995E-02  -5.04915012E-13
  -2.32500006E-02  -4.94636450E-13
  -2.31999997E-02  -4.91276778E-13
  -2.31500007E-02  -4.89747349E-13
  -2.30999999E-02  -4.81990153E-13
  -2.30500009E-02  -4.60470312E-13
  -2.30000000E-02  -4.21540163E-13
  -2.29499992E-02  -3.67157720E-13
  -2.29000002E-02  -3.04142345E-13
  -2.28499994E-02  -2.41237206E-13
  -2.28000004E-02  -1.85243775E-13
  -2.27499995E-02  -1.37944045E-13
  -2.27000006E-02  -9.52179552E-14
  -2.26499997E-02  -4.88126622E-14
  -2.26000007E-02   9.96196381E-15
  -2.25499999E-02   8.62241729E-14
  -2.25000009E-02   1.78995070E-13
  -2.24500000E-02   2.81335502E-13
  -2.23999992E-02   3.83156560E-13
  -2.23500002E-02   4.75511069E-13
  -2.22999994E-02   5.54474218E-13
  -2.22500004E-02   6.22853874E-13
  -2.21999995E-02   6.88901085E-13
  -2.21500006E-02   7.62518792E-13
  -2.20999997E-02   8.50607779E-13
  -2.20500007E-02   9.53624115E-13
  -2.19999999E-02   1.06493124E-12
  -2.19500009E-02   1.17331839E-12
  -2.19000001E-02   1.26763769E-12
  -2.18499992E-02   1.34152975E-12
  -2.18000002E-02   1.39611109E-12
  -2.17499994E-02   1.43935666E-12
  -2.17000004E-02   1.48236382E-12
  -2.16499995E-02   1.53409945E-12
  -2.16000006E-02   1.59695824E-12
  -2.15499997E-02   1.66516172E-12
  -2.15000007E-02   1.72680511E-12
  -2.14499999E-02   1.76873262E-12
  -2.14000009E-02   1.78212555E-12
  -2.13500001E-02   1.76630151E-12
  -2.12999992E-02   1.72896333E-12
  -2.12500002E-02   1.68268394E-12
  -2.11999994E-02   1.63911072E-12
  -2.11500004E-02   1.60344622E-12
  -2.10999995E-02   1.57170533E-12
  -2.10500006E-02   1.53207492E-12
  -2.09999997E-02   1.46987912E-12
  -2.09500007E-02   1.37401277E-12
  -2.08999999E-02   1.24197853E-12
  -2.08500009E-02   1.08121270E-12
  -2.08000001E-02   9.05995765E-13
  -2.07499992E-02   7.31219935E-13
  -2.07000002E-02   5.65746777E-13
  -2.06499994E-02   4.08351331E-13
  -2.06000004E-02   2.48165773E-13
  -2.05499995E-02   6.95546255E-14
  -2.05000006E-02  -1.40657221E-13
  -2.04499997E-02  -3.86807692E-13
  -2.04000007E-02  -6.61785080E-13
  -2.03499999E-02  -9.49472922E-13
  -2.03000009E-02  -1.23129133E-12
  -2.02500001E-02  -1.49399048E-12
  -2.01999992E-02  -1.73519987E-12
  -2.01500002E-02  -1.96415714E-12
  -2.00999994E-02  -2.19714806E-12
  -2.00500004E-02  -2.44957548E-12
  -1.99999996E-02  -2.72816362E-12
  -1.99500006E-02  -3.02683920E-12
  -1.98999997E-02  -3.32826995E-12
  -1.98500007E-02  -3.61052572E-12
  -1.97999999E-02  -3.85599018E-12
  -1.97500009E-02  -4.05854343E-12
  -1.97000001E-02  -4.22570832E-12
  -1.96499992E-02  -4.37464561E-12
  -1.96000002E-02  -4.52364275E-12
  -1.95499994E-02  -4.68284222E-12
  -1.95000004E-02  -4.84840770E-12
  -1.94499996E-02  -5.00287745E-12
  -1.94000006E-02  -5.12173507E-12
  -1.93499997E-02  -5.18339278E-12
  -1.93000007E-02  -5.17815044E-12
  -1.92499999E-02  -5.11204534E-12
  -1.92000009E-02  -5.00369407E-12
  -1.91500001E-02  -4.87539219E-12
  -1.90999992E-02  -4.74235365E-12
  -1.90500002E-02  -4.60494880E-12
  -1.89999994E-02  -4.44756818E-12
  -1.89500004E-02  -4.24481544E-12
  -1.88999996E-02  -3.97243306E-12
  -1.88500006E-02  -3.61812229E-12
  -1.87999997E-02  -3.18733733E-12
  -1.87500007E-02  -2.70128798E-12
  -1.86999999E-02  -2.18784344E-12
  -1.86500009E-02  -1.66929459E-12
  -1.86000001E-02  -1.15245660E-12
  -1.85499992E-02  -6.25692152E-13
  -1.85000002E-02  -6.43994745E-14
  -1.84499994E-02   5.57299107E-13
  -1.84000004E-02   1.25381921E-12
  -1.83499996E-02   2.02009763E-12
  -1.83000006E-02   2.83207247E-12
  -1.82499997E-02   3.65567082E-12
  -1.82000007E-02   4.46044070E-12
  -1.81499999E-02   5.23173952E-12
  -1.81000009E-02   5.97589903E-12
  -1.80500001E-02   6.71582625E-12
  -1.79999992E-02   7.47879883E-12
  -1.79500002E-02   8.28181707E-12
  -1.78999994E-02   9.12112399E-12
  -1.78500004E-02   9.97079329E-12
  -1.77999996E-02   1.07912681E-11
  -1.77500006E-02   1.15442456E-11
  -1.76999997E-02   1.22072951E-11
  -1.76500008E-02   1.27815545E-11
  -1.75999999E-02   1.32888544E-11
  -1.75500009E-02   1.37592949E-11
  -1.75000001E-02   1.42147292E-11
  -1.74499992E-02   1.46555650E-11
  -1.74000002E-02   1.50570077E-11
  -1.73499994E-02   1.53767086E-11
  -1.73000004E-02   1.55706281E-11
  -1.72499996E-02   1.56101399E-11
  -1.72000006E-02   1.54925951E-11
  -1.71499997E-02   1.52404322E-11
  -1.71000008E-02   1.48889408E-11
  -1.70499999E-02   1.44680023E-11
  -1.70000009E-02   1.39859860E-11
  -1.69500001E-02   1.34232105E-11
  -1.68999992E-02   1.27382055E-11
  -1.68500002E-02   1.18842453E-11
  -1.67999994E-02   1.08289350E-11
  -1.67500004E-02   9.56798616E-12
  -1.66999996E-02   8.12684989E-12
  -1.66500006E-02   6.54914794E-12
  -1.65999997E-02   4.87690487E-12
  -1.65500008E-02   3.13137515E-12
  -1.64999999E-02   1.30323606E-12
  -1.64500009E-02  -6.43159408E-13
  -1.64000001E-02  -2.75305863E-12
  -1.63499992E-02  -5.05939604E-12
  -1.63000003E-02  -7.56554715E-12
  -1.62499994E-02  -1.02406469E-11
  -1.62000004E-02  -1.30299174E-11
  -1.61499996E-02  -1.58756237E-11
  -1.61000006E-02  -1.87393712E-11
  -1.60499997E-02  -2.16156364E-11
  -1.60000008E-02  -2.45301696E-11
  -1.59499999E-02  -2.75236483E-11
  -1.59000009E-02  -3.06276671E-11
  -1.58500001E-02  -3.38437611E-11
  -1.57999992E-02  -3.71351248E-11
  -1.57500003E-02  -4.04349818E-11
  -1.56999994E-02  -4.36682600E-11
  -1.56500004E-02  -4.67769573E-11
  -1.55999996E-02  -4.97378562E-11
  -1.55499997E-02  -5.25642932E-11
  -1.54999997E-02  -5.52909177E-11
  -1.54499998E-02  -5.79479416E-11
  -1.53999999E-02  -6.05364162E-11
  -1.53500000E-02  -6.30156968E-11
  -1.53000001E-02  -6.53091262E-11
  -1.52500002E-02  -6.73258047E-11
  -1.52000003E-02  -6.89888216E-11
  -1.51500003E-02  -7.02574457E-11
  -1.51000004E-02  -7.11330023E-11
  -1.50499996E-02  -7.16455437E-11
  -1.49999997E-02  -7.18268708E-11
  -1.49499997E-02  -7.16819659E-11
  -1.48999998E-02  -7.11717074E-11
  -1.48499999E-02  -7.02149588E-11
  -1.48000000E-02  -6.87095519E-11
  -1.47500001E-02  -6.65630467E-11
  -1.47000002E-02  -6.37196060E-11
  -1.46500003E-02  -6.01707503E-11
  -1.46000003E-02  -5.59448494E-11
  -1.45500004E-02  -5.10797168E-11
  -1.44999996E-02  -4.55903718E-11
  -1.44499997E-02  -3.94465363E-11
  -1.43999998E-02  -3.25702347E-11
  -1.43499998E-02  -2.48550382E-11
  -1.42999999E-02  -1.61987247E-11
  -1.42500000E-02  -6.53487681E-12
  -1.42000001E-02   4.15081077E-12
  -1.41500002E-02   1.58272197E-11
  -1.41000003E-02   2.84448420E-11
  -1.40500003E-02   4.19712876E-11
  -1.40000004E-02   5.64195010E-11
  -1.39499996E-02   7.18556048E-11
  -1.38999997E-02   8.83825721E-11
  -1.38499998E-02   1.06106540E-10
  -1.37999998E-02   1.25100610E-10
  -1.37499999E-02   1.45382484E-10
  -1.37000000E-02   1.66916175E-10
  -1.36500001E-02   1.89637570E-10
  -1.36000002E-02   2.13492710E-10
  -1.35500003E-02   2.38471687E-10
  -1.35000004E-02   2.64622879E-10
  -1.34500004E-02   2.92040808E-10
  -1.33999996E-02   3.20832444E-10
  -1.33499997E-02   3.51076695E-10
  -1.32999998E-02   3.82795712E-10
  -1.32499998E-02   4.15950413E-10
  -1.31999999E-02   4.50463306E-10
  -1.31500000E-02   4.86258644E-10
  -1.31000001E-02   5.23302068E-10
  -1.30500002E-02   5.61622138E-10
  -1.30000003E-02   6.01303340E-10
  -1.29500004E-02   6.42454145E-10
  -1.29000004E-02   6.85162704E-10
  -1.28499996E-02   7.29461436E-10
  -1.27999997E-02   7.75315423E-10
  -1.27499998E-02   8.22640844E-10
  -1.26999998E-02   8.71345995E-10
  -1.26499999E-02   9.21375976E-10
  -1.26000000E-02   9.72742331E-10
  -1.25500001E-02   1.02552256E-09
  -1.25000002E-02   1.07983089E-09
  -1.24500003E-02   1.13577170E-09
  -1.24000004E-02   1.19339716E-09
  -1.23500004E-02   1.25268729E-09
  -1.22999996E-02   1.31356315E-09
  -1.22499997E-02   1.37592648E-09
  -1.21999998E-02   1.43970957E-09
  -1.21499998E-02   1.50491242E-09
  -1.20999999E-02   1.57161073E-09
  -1.20500000E-02   1.63993097E-09
  -1.20000001E-02   1.71000247E-09
  -1.19500002E-02   1.78190884E-09
  -1.19000003E-02   1.85565885E-09
  -1.18500004E-02   1.93119232E-09
  -1.18000004E-02   2.00841832E-09
  -1.17499996E-02   2.08726680E-09
  -1.16999997E-02   2.16773466E-09
  -1.16499998E-02   2.24990404E-09
  -1.15999999E-02   2.33392083E-09
  -1.15499999E-02   2.41995002E-09
  -1.15000000E-02   2.50811905E-09
  -1.14500001E-02   2.59848054E-09
  -1.14000002E-02   2.69100919E-09
  -1.13500003E-02   2.78563439E-09
  -1.13000004E-02   2.88229485E-09
  -1.12500004E-02   2.98099256E-09
  -1.11999996E-02   3.08181902E-09
  -1.11499997E-02   3.18494453E-09
  -1.10999998E-02   3.29057359E-09
  -1.10499999E-02   3.39888517E-09
  -1.09999999E-02   3.50998564E-09
  -1.09500000E-02   3.62389518E-09
  -1.09000001E-02   3.74057496E-09
  -1.08500002E-02   3.85998122E-09
  -1.08000003E-02   3.98212618E-09
  -1.07500004E-02   4.10711509E-09
  -1.07000005E-02   4.23514468E-09
  -1.06499996E-02   4.36646186E-09
  -1.05999997E-02   4.50130333E-09
  -1.05499998E-02   4.63983651E-09
  -1.04999999E-02   4.78213691E-09
  -1.04499999E-02   4.92820496E-09
  -1.04000000E-02   5.07801845E-09
  -1.03500001E-02   5.23159960E-09
  -1.03000002E-02   5.38906120E-09
  -1.02500003E-02   5.55061908E-09
  -1.02000004E-02   5.71655523E-09
  -1.01500005E-02   5.88715698E-09
  -1.00999996E-02   6.06265216E-09
  -1.00499997E-02   6.24317043E-09
  -9.99999978E-03   6.42875531E-09
  -9.94999986E-03   6.61940813E-09
  -9.89999995E-03   6.81515999E-09
  -9.85000003E-03   7.01613034E-09
  -9.80000012E-03   7.22254789E-09
  -9.75000020E-03   7.43472528E-09
  -9.70000029E-03   7.65299912E-09
  -9.65000037E-03   7.87765675E-09
  -9.60000046E-03   8.10888867E-09
  -9.54999961E-03   8.34678371E-09
  -9.49999969E-03   8.59137117E-09
  -9.44999978E-03   8.84268836E-09
  -9.39999986E-03   9.10085252E-09
  -9.34999995E-03   9.36609457E-09
  -9.30000003E-03   9.63874491E-09
  -9.25000012E-03   9.91917481E-09
  -9.20000020E-03   1.02077236E-08
  -9.15000029E-03   1.05046380E-08
  -9.10000037E-03   1.08100506E-08
  -9.05000046E-03   1.11240190E-08
  -8.99999961E-03   1.14465868E-08
  -8.94999970E-03   1.17778693E-08
  -8.89999978E-03   1.21180950E-08
  -8.84999987E-03   1.24676065E-08
  -8.79999995E-03   1.28268134E-08
  -8.75000004E-03   1.31961109E-08
  -8.70000012E-03   1.35758089E-08
  -8.65000021E-03   1.39661038E-08
  -8.60000029E-03   1.43670960E-08
  -8.55000038E-03   1.47788546E-08
  -8.50000046E-03   1.52015005E-08
  -8.44999962E-03   1.56352655E-08
  -8.39999970E-03   1.60805094E-08
  -8.34999979E-03   1.65376743E-08
  -8.29999987E-03   1.70072152E-08
  -8.24999996E-03   1.74895138E-08
  -8.20000004E-03   1.79848403E-08
  -8.15000013E-03   1.84933509E-08
  -8.10000021E-03   1.90151521E-08
  -8.05000030E-03   1.95503826E-08
  -8.00000038E-03   2.00992840E-08
  -7.95000046E-03   2.06622346E-08
  -7.89999962E-03   2.12397211E-08
  -7.84999970E-03   2.18322640E-08
  -7.79999979E-03   2.24403376E-08
  -7.74999987E-03   2.30643096E-08
  -7.69999996E-03   2.37044233E-08
  -7.65000004E-03   2.43608529E-08
  -7.60000013E-03   2.50337795E-08
  -7.55000021E-03   2.57234820E-08
  -7.49999983E-03   2.64303797E-08
  -7.44999992E-03   2.71550160E-08
  -7.40000000E-03   2.78980057E-08
  -7.35000009E-03   2.86599313E-08
  -7.30000017E-03   2.94412814E-08
  -7.24999979E-03   3.02424148E-08
  -7.19999988E-03   3.10635997E-08
  -7.14999996E-03   3.19050919E-08
  -7.10000005E-03   3.27672289E-08
  -7.05000013E-03   3.36504762E-08
  -7.00000022E-03   3.45554589E-08
  -6.94999984E-03   3.54828806E-08
  -6.89999992E-03   3.64334554E-08
  -6.85000001E-03   3.74078049E-08
  -6.80000009E-03   3.84064407E-08
  -6.75000018E-03   3.94297466E-08
  -6.69999979E-03   4.04780884E-08
  -6.64999988E-03   4.15518784E-08
  -6.59999996E-03   4.26516706E-08
  -6.55000005E-03   4.37781686E-08
  -6.50000013E-03   4.49321966E-08
  -6.45000022E-03   4.61146108E-08
  -6.39999984E-03   4.73261998E-08
  -6.34999992E-03   4.85676352E-08
  -6.30000001E-03   4.98394677E-08
  -6.25000009E-03   5.11422016E-08
  -6.20000018E-03   5.24763486E-08
  -6.14999980E-03   5.38425589E-08
  -6.09999988E-03   5.52416353E-08
  -6.04999997E-03   5.66745229E-08
  -6.00000005E-03   5.81422199E-08
  -5.95000014E-03   5.96456999E-08
  -5.90000022E-03   6.11858155E-08
  -5.84999984E-03   6.27632843E-08
  -5.79999993E-03   6.43787601E-08
  -5.75000001E-03   6.60328894E-08
  -5.70000010E-03   6.77264183E-08
  -5.65000018E-03   6.94602491E-08
  -5.59999980E-03   7.12354549E-08
  -5.54999989E-03   7.30531795E-08
  -5.49999997E-03   7.49145528E-08
  -5.45000006E-03   7.68206334E-08
  -5.40000014E-03   7.87723309E-08
  -5.35000023E-03   8.07704765E-08
  -5.29999984E-03   8.28158520E-08
  -5.24999993E-03   8.49093240E-08
  -5.20000001E-03   8.70519088E-08
  -5.15000010E-03   8.92447787E-08
  -5.10000018E-03   9.14892198E-08
  -5.04999980E-03   9.37865607E-08
  -4.99999989E-03   9.61380380E-08
  -4.94999997E-03   9.85447741E-08
  -4.90000006E-03   1.01007771E-07
  -4.85000014E-03   1.03527974E-07
  -4.80000023E-03   1.06106377E-07
  -4.74999985E-03   1.08744089E-07
  -4.69999993E-03   1.11442404E-07
  -4.65000002E-03   1.14202741E-07
  -4.60000010E-03   1.17026580E-07
  -4.55000019E-03   1.19915370E-07
  -4.49999981E-03   1.22870446E-07
  -4.44999989E-03   1.25892981E-07
  -4.39999998E-03   1.28984098E-07
  -4.35000006E-03   1.32144947E-07
  -4.30000015E-03   1.35376737E-07
  -4.25000023E-03   1.38680889E-07
  -4.19999985E-03   1.42058937E-07
  -4.14999994E-03   1.45512573E-07
  -4.10000002E-03   1.49043430E-07
  -4.05000011E-03   1.52653044E-07
  -4.00000019E-03   1.56342864E-07
  -3.94999981E-03   1.60114183E-07
  -3.89999989E-03   1.63968281E-07
  -3.84999998E-03   1.67906563E-07
  -3.80000006E-03   1.71930552E-07
  -3.74999992E-03   1.76041951E-07
  -3.70000000E-03   1.80242580E-07
  -3.65000009E-03   1.84534315E-07
  -3.59999994E-03   1.88918918E-07
  -3.55000002E-03   1.93398037E-07
  -3.50000011E-03   1.97973222E-07
  -3.44999996E-03   2.02645950E-07
  -3.40000005E-03   2.07417770E-07
  -3.34999990E-03   2.12290374E-07
  -3.29999998E-03   2.17265622E-07
  -3.25000007E-03   2.22345491E-07
  -3.19999992E-03   2.27532098E-07
  -3.15000000E-03   2.32827418E-07
  -3.10000009E-03   2.38233397E-07
  -3.04999994E-03   2.43751884E-07
  -3.00000003E-03   2.49384527E-07
  -2.95000011E-03   2.55133131E-07
  -2.89999996E-03   2.60999514E-07
  -2.85000005E-03   2.66985779E-07
  -2.79999990E-03   2.73094059E-07
  -2.74999999E-03   2.79326684E-07
  -2.70000007E-03   2.85685928E-07
  -2.64999992E-03   2.92174008E-07
  -2.60000001E-03   2.98793054E-07
  -2.55000009E-03   3.05545029E-07
  -2.49999994E-03   3.12431922E-07
  -2.45000003E-03   3.19455808E-07
  -2.40000011E-03   3.26618903E-07
  -2.34999997E-03   3.33923595E-07
  -2.30000005E-03   3.41372470E-07
  -2.24999990E-03   3.48968030E-07
  -2.19999999E-03   3.56712832E-07
  -2.15000007E-03   3.64609292E-07
  -2.09999993E-03   3.72659713E-07
  -2.05000001E-03   3.80866283E-07
  -2.00000009E-03   3.89231332E-07
  -1.94999995E-03   3.97757304E-07
  -1.90000003E-03   4.06446787E-07
  -1.85000000E-03   4.15302623E-07
  -1.79999997E-03   4.24327624E-07
  -1.75000005E-03   4.33524633E-07
  -1.70000002E-03   4.42896351E-07
  -1.64999999E-03   4.52445391E-07
  -1.59999996E-03   4.62174285E-07
  -1.55000004E-03   4.72085560E-07
  -1.50000001E-03   4.82181918E-07
  -1.44999998E-03   4.92466143E-07
  -1.39999995E-03   5.02941248E-07
  -1.35000004E-03   5.13610303E-07
  -1.30000000E-03   5.24476548E-07
  -1.24999997E-03   5.35542881E-07
  -1.20000006E-03   5.46812259E-07
  -1.15000003E-03   5.58287581E-07
  -1.09999999E-03   5.69971519E-07
  -1.04999996E-03   5.81867027E-07
  -1.00000005E-03   5.93977063E-07
  -9.50000016E-04   6.06304923E-07
  -8.99999985E-04   6.18853846E-07
  -8.50000011E-04   6.31627131E-07
  -7.99999980E-04   6.44628187E-07
  -7.50000007E-04   6.57860255E-07
  -6.99999975E-04   6.71326404E-07
  -6.50000002E-04   6.85029704E-07
  -6.00000028E-04   6.98973224E-07
  -5.49999997E-04   7.13160148E-07
  -5.00000024E-04   7.27593829E-07
  -4.49999992E-04   7.42277791E-07
  -3.99999990E-04   7.57215560E-07
  -3.49999988E-04   7.72410772E-07
  -3.00000014E-04   7.87866895E-07
  -2.50000012E-04   8.03587170E-07
  -1.99999995E-04   8.19574950E-07
  -1.50000007E-04   8.35833475E-07
  -9.99999975E-05   8.52365986E-07
  -4.99999987E-05   8.69176176E-07
   0.00000000       8.86267401E-07
   4.99999987E-05   9.03643638E-07
   9.99999975E-05   9.21308413E-07
   1.50000007E-04   9.39265590E-07
   1.99999995E-04   9.57518523E-07
   2.50000012E-04   9.76070737E-07
   3.00000014E-04   9.94925699E-07
   3.49999988E-04   1.01408671E-06
   3.99999990E-04   1.03355751E-06
   4.49999992E-04   1.05334163E-06
   5.00000024E-04   1.07344283E-06
   5.49999997E-04   1.09386508E-06
   6.00000028E-04   1.11461213E-06
   6.50000002E-04   1.13568785E-06
   6.99999975E-04   1.15709565E-06
   7.50000007E-04   1.17883917E-06
   7.99999980E-04   1.20092182E-06
   8.50000011E-04   1.22334700E-06
   8.99999985E-04   1.24611847E-06
   9.50000016E-04   1.26923987E-06
   1.00000005E-03   1.29271541E-06
   1.04999996E-03   1.31654872E-06
   1.09999999E-03   1.34074378E-06
   1.15000003E-03   1.36530423E-06
   1.20000006E-03   1.39023348E-06
   1.24999997E-03   1.41553505E-06
   1.30000000E-03   1.44121225E-06
   1.35000004E-03   1.46726859E-06
   1.39999995E-03   1.49370783E-06
   1.44999998E-03   1.52053383E-06
   1.50000001E-03   1.54775046E-06
   1.55000004E-03   1.57536147E-06
   1.59999996E-03   1.60337061E-06
   1.64999999E-03   1.63178129E-06
   1.70000002E-03   1.66059692E-06
   1.75000005E-03   1.68982046E-06
   1.79999997E-03   1.71945533E-06
   1.85000000E-03   1.74950503E-06
   1.90000003E-03   1.77997322E-06
   1.94999995E-03   1.81086364E-06
   2.00000009E-03   1.84218004E-06
   2.05000001E-03   1.87392584E-06
   2.09999993E-03   1.90610422E-06
   2.15000007E-03   1.93871847E-06
   2.19999999E-03   1.97177110E-06
   2.24999990E-03   2.00526529E-06
   2.30000005E-03   2.03920376E-06
   2.34999997E-03   2.07359039E-06
   2.40000011E-03   2.10842859E-06
   2.45000003E-03   2.14372176E-06
   2.49999994E-03   2.17947263E-06
   2.55000009E-03   2.21568439E-06
   2.60000001E-03   2.25235954E-06
   2.64999992E-03   2.28950080E-06
   2.70000007E-03   2.32711000E-06
   2.74999999E-03   2.36519077E-06
   2.79999990E-03   2.40374538E-06