  -3.99999991E-02   0.00000000    
  -3.99499983E-02   0.00000000    
  -3.99000011E-02   0.00000000    
  -3.98500003E-02   4.46899422E-19
  -3.97999994E-02  -1.58654710E-18
  -3.97499986E-02  -2.62641111E-17
  -3.97000015E-02  -1.33158463E-16
  -3.96500006E-02  -4.35140863E-16
  -3.95999998E-02  -1.07875935E-15
  -3.95499989E-02  -2.17997100E-15
  -3.95000018E-02  -3.73981436E-15
  -3.94500010E-02  -5.59603328E-15
  -3.94000001E-02  -7.46303112E-15
  -3.93499993E-02  -9.06742333E-15
  -3.92999984E-02  -1.03254638E-14
  -3.92500013E-02  -1.14689870E-14
  -3.92000005E-02  -1.30320906E-14
  -3.91499996E-02  -1.56638212E-14
  -3.90999988E-02  -1.98171218E-14
  -3.90500017E-02  -2.54486035E-14
  -3.90000008E-02  -3.18981122E-14
  -3.89500000E-02  -3.80591080E-14
  -3.88999991E-02  -4.28058535E-14
  -3.88499983E-02  -4.54851102E-14
  -3.88000011E-02  -4.62110818E-14
  -3.87500003E-02  -4.57799455E-14
  -3.86999995E-02  -4.52067888E-14
  -3.86499986E-02  -4.50807435E-14
  -3.86000015E-02  -4.50363454E-14
  -3.85500006E-02  -4.36091457E-14
  -3.84999998E-02  -3.85924711E-14
  -3.84499989E-02  -2.77879441E-14
  -3.84000018E-02  -9.82836893E-15
  -3.83500010E-02   1.53371646E-14
  -3.83000001E-02   4.65819806E-14
  -3.82499993E-02   8.23384397E-14
  -3.81999984E-02   1.21575073E-13
  -3.81500013E-02   1.64515699E-13
  -3.81000005E-02   2.12746623E-13
  -3.80499996E-02   2.68691888E-13
  -3.79999988E-02   3.34751405E-13
  -3.79500017E-02   4.12529982E-13
  -3.79000008E-02   5.02506348E-13
  -3.78500000E-02   6.04266149E-13
  -3.77999991E-02   7.17145093E-13
  -3.77499983E-02   8.40904657E-13
  -3.77000012E-02   9.76012457E-13
  -3.76500003E-02   1.12330663E-12
  -3.75999995E-02   1.28322233E-12
  -3.75499986E-02   1.45509505E-12
  -3.75000015E-02   1.63705356E-12
  -3.74500006E-02   1.82662175E-12
  -3.73999998E-02   2.02162397E-12
  -3.73499990E-02   2.22071580E-12
  -3.73000018E-02   2.42307064E-12
  -3.72500010E-02   2.62730202E-12
  -3.72000001E-02   2.83025209E-12
  -3.71499993E-02   3.02651957E-12
  -3.70999984E-02   3.20936897E-12
  -3.70500013E-02   3.37300565E-12
  -3.70000005E-02   3.51535381E-12
  -3.69499996E-02   3.63979723E-12
  -3.68999988E-02   3.75437051E-12
  -3.68500017E-02   3.86786219E-12
  -3.68000008E-02   3.98398979E-12
  -3.67500000E-02   4.09630836E-12
  -3.66999991E-02   4.18684792E-12
  -3.66499983E-02   4.23012103E-12
  -3.66000012E-02   4.20162950E-12
  -3.65500003E-02   4.08748122E-12
  -3.64999995E-02   3.89058924E-12
  -3.64499986E-02   3.62985596E-12
  -3.64000015E-02   3.33157590E-12
  -3.63500006E-02   3.01602688E-12
  -3.62999998E-02   2.68517196E-12
  -3.62499990E-02   2.31797003E-12
  -3.62000018E-02   1.87707011E-12
  -3.61500010E-02   1.32544952E-12
  -3.61000001E-02   6.46091741E-13
  -3.60499993E-02  -1.44956353E-13
  -3.59999985E-02  -9.99926053E-13
  -3.59500013E-02  -1.85668408E-12
  -3.59000005E-02  -2.66587967E-12
  -3.58499996E-02  -3.41589929E-12
  -3.57999988E-02  -4.14300408E-12
  -3.57500017E-02  -4.91946631E-12
  -3.57000008E-02  -5.82221858E-12
  -3.56500000E-02  -6.89445116E-12
  -3.55999991E-02  -8.11790912E-12
  -3.55499983E-02  -9.41093384E-12
  -3.55000012E-02  -1.06566969E-11
  -3.54500003E-02  -1.17516561E-11
  -3.53999995E-02  -1.26530028E-11
  -3.53499986E-02  -1.34016617E-11
  -3.53000015E-02  -1.41066585E-11
  -3.52500007E-02  -1.48938951E-11
  -3.51999998E-02  -1.58400654E-11
  -3.51499990E-02  -1.69221338E-11
  -3.51000018E-02  -1.80088947E-11
  -3.50500010E-02  -1.89040467E-11
  -3.50000001E-02  -1.94264518E-11
  -3.49499993E-02  -1.94934763E-11
  -3.48999985E-02  -1.91677039E-11
  -3.48500013E-02  -1.86403202E-11
  -3.48000005E-02  -1.81520146E-11
  -3.47499996E-02  -1.78824299E-11
  -3.46999988E-02  -1.78576164E-11
  -3.46500017E-02  -1.79212773E-11
  -3.46000008E-02  -1.77896985E-11
  -3.45500000E-02  -1.71723417E-11
  -3.44999991E-02  -1.59071731E-11
  -3.44499983E-02  -1.40478133E-11
  -3.44000012E-02  -1.18565635E-11
  -3.43500003E-02  -9.69764199E-12
  -3.42999995E-02  -7.87207105E-12
  -3.42499986E-02  -6.46754178E-12
  -3.42000015E-02  -5.29640828E-12
  -3.41500007E-02  -3.95968197E-12
  -3.40999998E-02  -2.01821632E-12
  -3.40499990E-02   8.00498773E-13
  -3.40000018E-02   4.45475167E-12
  -3.39500010E-02   8.57521519E-12
  -3.39000002E-02   1.26036612E-11
  -3.38499993E-02   1.60313950E-11
  -3.37999985E-02   1.86335704E-11
  -3.37500013E-02   2.05887720E-11
  -3.37000005E-02   2.24182548E-11
  -3.36499996E-02   2.47589449E-11
  -3.35999988E-02   2.80641257E-11
  -3.35500017E-02   3.23675114E-11
  -3.35000008E-02   3.72273046E-11
  -3.34500000E-02   4.18907617E-11
  -3.33999991E-02   4.56188282E-11
  -3.33499983E-02   4.80299966E-11
  -3.33000012E-02   4.93027806E-11
  -3.32500003E-02   5.01302715E-11
  -3.31999995E-02   5.14289618E-11
  -3.31499986E-02   5.39192649E-11
  -3.31000015E-02   5.77644078E-11
  -3.30500007E-02   6.24409829E-11
  -3.29999998E-02   6.69186373E-11
  -3.29499990E-02   7.00875469E-11
  -3.29000019E-02   7.12519627E-11
  -3.28500010E-02   7.04646896E-11
  -3.28000002E-02   6.85363433E-11
  -3.27499993E-02   6.66939767E-11
  -3.26999985E-02   6.60256572E-11
  -3.26500013E-02   6.69563849E-11
  -3.26000005E-02   6.90015961E-11
  -3.25499997E-02   7.09311915E-11
  -3.24999988E-02   7.12931797E-11
  -3.24500017E-02   6.90757382E-11
  -3.24000008E-02   6.42072298E-11
  -3.23500000E-02   5.76504226E-11
  -3.22999991E-02   5.10211352E-11
  -3.22499983E-02   4.58785787E-11
  -3.22000012E-02   4.29970365E-11
  -3.21500003E-02   4.19559838E-11
  -3.20999995E-02   4.12582156E-11
  -3.20499986E-02   3.89527612E-11
  -3.20000015E-02   3.35037692E-11
  -3.19500007E-02   2.45175217E-11
  -3.18999998E-02   1.29835578E-11
  -3.18499990E-02   8.91766587E-13
  -3.18000019E-02  -9.63115872E-12
  -3.17500010E-02  -1.72918208E-11
  -3.17000002E-02  -2.22628721E-11
  -3.16499993E-02  -2.61666713E-11
  -3.15999985E-02  -3.13822475E-11
  -3.15500014E-02  -3.99602504E-11
  -3.15000005E-02  -5.26277529E-11
  -3.14499997E-02  -6.83490625E-11
  -3.13999988E-02  -8.46762105E-11
  -3.13500017E-02  -9.87696591E-11
  -3.13000008E-02  -1.08653787E-10
  -3.12500000E-02  -1.14140315E-10
  -3.11999992E-02  -1.16977469E-10
  -3.11500002E-02  -1.20116861E-10
  -3.10999993E-02  -1.26391342E-10
  -3.10500003E-02  -1.37183070E-10
  -3.09999995E-02  -1.51692908E-10
  -3.09500005E-02  -1.67175843E-10
  -3.08999997E-02  -1.80078966E-10
  -3.08500007E-02  -1.87600921E-10
  -3.07999998E-02  -1.88975335E-10
  -3.07500008E-02  -1.85875565E-10
  -3.07000000E-02  -1.81715670E-10
  -3.06499992E-02  -1.80119725E-10
  -3.06000002E-02  -1.83227031E-10
  -3.05499993E-02  -1.90605476E-10
  -3.05000003E-02  -1.99300382E-10
  -3.04499995E-02  -2.05047437E-10
  -3.04000005E-02  -2.04144784E-10
  -3.03499997E-02  -1.95155198E-10
  -3.03000007E-02  -1.79651169E-10
  -3.02499998E-02  -1.61620731E-10
  -3.02000009E-02  -1.45749926E-10
  -3.01500000E-02  -1.35321740E-10
  -3.00999992E-02  -1.30677053E-10
  -3.00500002E-02  -1.28964464E-10
  -2.99999993E-02  -1.25343985E-10
  -2.99500003E-02  -1.15150375E-10
  -2.98999995E-02  -9.60628938E-11
  -2.98500005E-02  -6.92880267E-11
  -2.97999997E-02  -3.91750070E-11
  -2.97500007E-02  -1.13789724E-11
  -2.96999998E-02   9.64451696E-12
  -2.96500009E-02   2.26932639E-11
  -2.96000000E-02   3.04636281E-11
  -2.95499992E-02   3.84373332E-11
  -2.95000002E-02   5.24505647E-11
  -2.94499993E-02   7.60045499E-11
  -2.94000003E-02   1.08534390E-10
  -2.93499995E-02   1.45460130E-10
  -2.93000005E-02   1.80061271E-10
  -2.92499997E-02   2.06386158E-10
  -2.92000007E-02   2.21908755E-10
  -2.91499998E-02   2.28716365E-10
  -2.91000009E-02   2.32639089E-10
  -2.90500000E-02   2.40649417E-10
  -2.89999992E-02   2.57658950E-10
  -2.89500002E-02   2.84152035E-10
  -2.88999993E-02   3.15762666E-10
  -2.88500004E-02   3.45052070E-10
  -2.87999995E-02   3.64751063E-10
  -2.87500005E-02   3.71038478E-10
  -2.86999997E-02   3.65365654E-10
  -2.86500007E-02   3.53947982E-10
  -2.85999998E-02   3.45080381E-10
  -2.85500009E-02   3.45424772E-10
  -2.85000000E-02   3.56923324E-10
  -2.84499992E-02   3.75756426E-10
  -2.84000002E-02   3.93881233E-10
  -2.83499993E-02   4.02530814E-10
  -2.83000004E-02   3.96145505E-10
  -2.82499995E-02   3.74966586E-10
  -2.82000005E-02   3.45077439E-10
  -2.81499997E-02   3.15801302E-10
  -2.81000007E-02   2.95561575E-10
  -2.80499998E-02   2.88042007E-10
  -2.80000009E-02   2.90397900E-10
  -2.79500000E-02   2.94390123E-10
  -2.78999992E-02   2.90010127E-10
  -2.78500002E-02   2.70021727E-10
  -2.77999993E-02   2.33384895E-10
  -2.77500004E-02   1.85975346E-10
  -2.76999995E-02   1.38195899E-10
  -2.76500005E-02   1.00472006E-10
  -2.75999997E-02   7.86111870E-11
  -2.75500007E-02   7.11213310E-11
  -2.74999999E-02   6.97534738E-11
  -2.74500009E-02   6.31087335E-11
  -2.74000000E-02   4.17581976E-11
  -2.73499992E-02   2.60072042E-12
  -2.73000002E-02  -4.95292210E-11
  -2.72499993E-02  -1.03798206E-10
  -2.72000004E-02  -1.48065463E-10
  -2.71499995E-02  -1.74274969E-10
  -2.71000005E-02  -1.82125842E-10
  -2.70499997E-02  -1.79318352E-10
  -2.70000007E-02  -1.78180443E-10
  -2.69499999E-02  -1.90112162E-10
  -2.69000009E-02  -2.20308466E-10
  -2.68500000E-02  -2.65153316E-10
  -2.67999992E-02  -3.13529286E-10
  -2.67500002E-02  -3.51544127E-10
  -2.66999993E-02  -3.68622521E-10
  -2.66500004E-02  -3.62244734E-10
  -2.65999995E-02  -3.39164419E-10
  -2.65500005E-02  -3.12477488E-10
  -2.64999997E-02  -2.95775182E-10
  -2.64500007E-02  -2.96956487E-10
  -2.63999999E-02  -3.14486603E-10
  -2.63500009E-02  -3.37844225E-10
  -2.63000000E-02  -3.52045282E-10
  -2.62499992E-02  -3.44287099E-10
  -2.62000002E-02  -3.09756581E-10
  -2.61499994E-02  -2.53961352E-10
  -2.61000004E-02  -1.90455915E-10
  -2.60499995E-02  -1.34893138E-10
  -2.60000005E-02  -9.80095102E-11
  -2.59499997E-02  -8.06900380E-11
  -2.59000007E-02  -7.33842986E-11
  -2.58499999E-02  -6.02294534E-11
  -2.58000009E-02  -2.61184008E-11
  -2.57500000E-02   3.64133619E-11
  -2.56999992E-02   1.23588362E-10
  -2.56500002E-02   2.21762053E-10
  -2.55999994E-02   3.13245319E-10
  -2.55500004E-02   3.84035137E-10
  -2.54999995E-02   4.30002006E-10
  -2.54500005E-02   4.58716065E-10
  -2.53999997E-02   4.86009288E-10
  -2.53500007E-02   5.28728561E-10
  -2.52999999E-02   5.96881211E-10
  -2.52500009E-02   6.88707424E-10
  -2.52000000E-02   7.90957189E-10
  -2.51499992E-02   8.84342655E-10
  -2.51000002E-02   9.51803747E-10
  -2.50499994E-02   9.85909798E-10
  -2.50000004E-02   9.92049887E-10
  -2.49499995E-02   9.85898252E-10
  -2.49000005E-02   9.86202453E-10
  -2.48499997E-02   1.00606290E-09
  -2.48000007E-02   1.04660736E-09
  -2.47499999E-02   1.09594955E-09
  -2.47000009E-02   1.13397969E-09
  -2.46500000E-02   1.14092114E-09
  -2.45999992E-02   1.10584986E-09
  -2.45500002E-02   1.03133946E-09
  -2.44999994E-02   9.32076305E-10
  -2.44500004E-02   8.27983238E-10
  -2.43999995E-02   7.34875494E-10
  -2.43500005E-02   6.56829147E-10
  -2.42999997E-02   5.83740389E-10
  -2.42500007E-02   4.95256280E-10
  -2.41999999E-02   3.69404896E-10
  -2.41500009E-02   1.92102736E-10
  -2.41000000E-02  -3.67348825E-11
  -2.40499992E-02  -3.03284647E-10
  -2.40000002E-02  -5.86158344E-10
  -2.39499994E-02  -8.66224703E-10
  -2.39000004E-02  -1.13553544E-09
  -2.38499995E-02  -1.40132117E-09
  -2.38000005E-02  -1.68319592E-09
  -2.37499997E-02  -2.00474215E-09
  -2.37000007E-02  -2.38320341E-09
  -2.36499999E-02  -2.82190626E-09
  -2.36000009E-02  -3.30886607E-09
  -2.35500000E-02  -3.82227894E-09
  -2.34999992E-02  -4.34050307E-09
  -2.34500002E-02  -4.85208096E-09
  -2.33999994E-02  -5.36126965E-09
  -2.33500004E-02  -5.88653837E-09
  -2.32999995E-02  -6.45261933E-09
  -2.32500006E-02  -7.07962444E-09
  -2.31999997E-02  -7.77410225E-09
  -2.31500007E-02  -8.52609627E-09
  -2.30999999E-02  -9.31358812E-09
  -2.30500009E-02  -1.01124114E-08
  -2.30000000E-02  -1.09072218E-08
  -2.29499992E-02  -1.16985790E-08
  -2.29000002E-02  -1.25029276E-08
  -2.28499994E-02  -1.33454039E-08
  -2.28000004E-02  -1.42486671E-08
  -2.27499995E-02  -1.52227511E-08
  -2.27000006E-02  -1.62605343E-08
  -2.26499997E-02  -1.73409322E-08
  -2.26000007E-02  -1.84384223E-08
  -2.25499999E-02  -1.95346743E-08
  -2.25000009E-02  -2.06270165E-08
  -2.24500000E-02  -2.17299210E-08
  -2.23999992E-02  -2.28687238E-08
  -2.23500002E-02  -2.40684113E-08
  -2.22999994E-02  -2.53424215E-08
  -2.22500004E-02  -2.66865872E-08
  -2.21999995E-02  -2.80809651E-08
  -2.21500006E-02  -2.94987910E-08
  -2.20999997E-02  -3.09185637E-08
  -2.20500007E-02  -3.23338440E-08
  -2.19999999E-02  -3.37562689E-08
  -2.19500009E-02  -3.52104799E-08
  -2.19000001E-02  -3.67230797E-08
  -2.18499992E-02  -3.83107057E-08
  -2.18000002E-02  -3.99724875E-08
  -2.17499994E-02  -4.16904804E-08
  -2.17000004E-02  -4.34377796E-08
  -2.16499995E-02  -4.51908164E-08
  -2.16000006E-02  -4.69402295E-08
  -2.15499997E-02  -4.86954121E-08
  -2.15000007E-02  -5.04806508E-08
  -2.14499999E-02  -5.23244879E-08
  -2.14000009E-02  -5.42471774E-08
  -2.13500001E-02  -5.62518352E-08
  -2.12999992E-02  -5.83233088E-08
  -2.12500002E-02  -6.04353403E-08
  -2.11999994E-02  -6.25627621E-08
  -2.11500004E-02  -6.46932747E-08
  -2.10999995E-02  -6.68334579E-08
  -2.10500006E-02  -6.90062407E-08
  -2.09999997E-02  -7.12409971E-08
  -2.09500007E-02  -7.35607557E-08
  -2.08999999E-02  -7.59722596E-08
  -2.08500009E-02  -7.84634437E-08
  -2.08000001E-02  -8.10095244E-08
  -2.07499992E-02  -8.35848866E-08
  -2.07000002E-02  -8.61755538E-08
  -2.06499994E-02  -8.87863436E-08
  -2.06000004E-02  -9.14396523E-08
  -2.05499995E-02  -9.41662748E-08
  -2.05000006E-02  -9.69923946E-08
  -2.04499997E-02  -9.99287266E-08
  -2.04000007E-02  -1.02966645E-07
  -2.03499999E-02  -1.06083057E-07
  -2.03000009E-02  -1.09251907E-07
  -2.02500001E-02  -1.12457101E-07
  -2.01999992E-02  -1.15700786E-07
  -2.01500002E-02  -1.19003495E-07
  -2.00999994E-02  -1.22395875E-07
  -2.00500004E-02  -1.25905814E-07
  -1.99999996E-02  -1.29546919E-07
  -1.99500006E-02  -1.33313407E-07
  -1.98999997E-02  -1.37184003E-07
  -1.98500007E-02  -1.41132872E-07
  -1.97999999E-02  -1.45142678E-07
  -1.97500009E-02  -1.49213918E-07
  -1.97000001E-02  -1.53366159E-07
  -1.96499992E-02  -1.57630595E-07
  -1.96000002E-02  -1.62037367E-07
  -1.95499994E-02  -1.66603371E-07
  -1.95000004E-02  -1.71326136E-07
  -1.94499996E-02  -1.76186489E-07
  -1.94000006E-02  -1.81158825E-07
  -1.93499997E-02  -1.86224440E-07
  -1.93000007E-02  -1.91381531E-07
  -1.92499999E-02  -1.96647562E-07
  -1.92000009E-02  -2.02052831E-07
  -1.91500001E-02  -2.07628204E-07
  -1.90999992E-02  -2.13392596E-07
  -1.90500002E-02  -2.19345949E-07
  -1.89999994E-02  -2.25471027E-07
  -1.89500004E-02  -2.31743101E-07
  -1.88999996E-02  -2.38143130E-07
  -1.88500006E-02  -2.44668399E-07
  -1.87999997E-02  -2.51335820E-07
  -1.87500007E-02  -2.58176129E-07
  -1.86999999E-02  -2.65222042E-07
  -1.86500009E-02  -2.72495299E-07
  -1.86000001E-02  -2.79999028E-07
  -1.85499992E-02  -2.87718478E-07
  -1.85000002E-02  -2.95630116E-07
  -1.84499994E-02  -3.03714870E-07
  -1.84000004E-02  -3.11969217E-07
  -1.83499996E-02  -3.20409185E-07
  -1.83000006E-02  -3.29065557E-07
  -1.82499997E-02  -3.37972125E-07
  -1.82000007E-02  -3.47152621E-07
  -1.81499999E-02  -3.56612532E-07
  -1.81000009E-02  -3.66339123E-07
  -1.80500001E-02  -3.76309970E-07
  -1.79999992E-02  -3.86506287E-07
  -1.79500002E-02  -3.96924463E-07
  -1.78999994E-02  -4.07580728E-07
  -1.78500004E-02  -4.18506971E-07
  -1.77999996E-02  -4.29739146E-07
  -1.77500006E-02  -4.41304167E-07
  -1.76999997E-02  -4.53210902E-07
  -1.76500008E-02  -4.65449517E-07
  -1.75999999E-02  -4.77999549E-07
  -1.75500009E-02  -4.90843206E-07
  -1.75000001E-02  -5.03976992E-07
  -1.74499992E-02  -5.17417220E-07
  -1.74000002E-02  -5.31196349E-07
  -1.73499994E-02  -5.45351554E-07
  -1.73000004E-02  -5.59911598E-07
  -1.72499996E-02  -5.74887054E-07
  -1.72000006E-02  -5.90269735E-07
  -1.71499997E-02  -6.06040032E-07
  -1.71000008E-02  -6.22180380E-07
  -1.70499999E-02  -6.38687766E-07
  -1.70000009E-02  -6.55579356E-07
  -1.69500001E-02  -6.72889485E-07
  -1.68999992E-02  -6.90658567E-07
  -1.68500002E-02  -7.08918833E-07
  -1.67999994E-02  -7.27685006E-07
  -1.67500004E-02  -7.46951912E-07
  -1.66999996E-02  -7.66702669E-07
  -1.66500006E-02  -7.86921419E-07
  -1.65999997E-02  -8.07606398E-07
  -1.65500008E-02  -8.28776479E-07
  -1.64999999E-02  -8.50468155E-07
  -1.64500009E-02  -8.72724286E-07
  -1.64000001E-02  -8.95580058E-07
  -1.63499992E-02  -9.19052468E-07
  -1.63000003E-02  -9.43138048E-07
  -1.62499994E-02  -9.67820483E-07
  -1.62000004E-02  -9.93084313E-07
  -1.61499996E-02  -1.01892829E-06
  -1.61000006E-02  -1.04537264E-06
  -1.60499997E-02  -1.07245648E-06
  -1.60000008E-02  -1.10022700E-06
  -1.59499999E-02  -1.12872431E-06
  -1.59000009E-02  -1.15797002E-06
  -1.58500001E-02  -1.18796470E-06
  -1.57999992E-02  -1.21869448E-06
  -1.57500003E-02  -1.25014537E-06
  -1.56999994E-02  -1.28231738E-06
  -1.56500004E-02  -1.31523234E-06
  -1.55999996E-02  -1.34893196E-06
  -1.55499997E-02  -1.38346604E-06
  -1.54999997E-02  -1.41887790E-06
  -1.54499998E-02  -1.45519175E-06
  -1.53999999E-02  -1.49240941E-06
  -1.53500000E-02  -1.53051724E-06
  -1.53000001E-02  -1.56950080E-06
  -1.52500002E-02  -1.60936008E-06
  -1.52000003E-02  -1.65011761E-06
  -1.51500003E-02  -1.69181783E-06
  -1.51000004E-02  -1.73451463E-06
  -1.50499996E-02  -1.77825632E-06
  -1.49999997E-02  -1.82307190E-06
  -1.49499997E-02  -1.86896636E-06
  -1.48999998E-02  -1.91592835E-06
  -1.48499999E-02  -1.96394421E-06
  -1.48000000E-02  -2.01301441E-06
  -1.47500001E-02  -2.06316281E-06
  -1.47000002E-02  -2.11443626E-06
  -1.46500003E-02  -2.16689295E-06
  -1.46000003E-02  -2.22058475E-06
  -1.45500004E-02  -2.27554460E-06
  -1.44999996E-02  -2.33177980E-06
  -1.44499997E-02  -2.38927919E-06
  -1.43999998E-02  -2.44802868E-06
  -1.43499998E-02  -2.50802805E-06
  -1.42999999E-02  -2.56930161E-06
  -1.42500000E-02  -2.63189804E-06
  -1.42000001E-02  -2.69587986E-06
  -1.41500002E-02  -2.76130481E-06
  -1.41000003E-02  -2.82821111E-06
  -1.40500003E-02  -2.89661057E-06
  -1.40000004E-02  -2.96649546E-06
  -1.39499996E-02  -3.03785237E-06
  -1.38999997E-02  -3.11068220E-06
  -1.38499998E-02  -3.18501066E-06
  -1.37999998E-02  -3.26089003E-06
  -1.37499999E-02  -3.33838761E-06
  -1.37000000E-02  -3.41756640E-06
  -1.36500001E-02  -3.49847005E-06
  -1.36000002E-02  -3.58111402E-06
  -1.35500003E-02  -3.66549239E-06
  -1.35000004E-02  -3.75159243E-06
  -1.34500004E-02  -3.83941460E-06
  -1.33999996E-02  -3.92898392E-06
  -1.33499997E-02  -4.02035585E-06
  -1.32999998E-02  -4.11360134E-06
  -1.32499998E-02  -4.20878951E-06
  -1.31999999E-02  -4.30596992E-06
  -1.31500000E-02  -4.40516351E-06
  -1.31000001E-02  -4.50636617E-06
  -1.30500002E-02  -4.60956790E-06
  -1.30000003E-02  -4.71477006E-06
  -1.29500004E-02  -4.82200085E-06
  -1.29000004E-02  -4.93131847E-06
  -1.28499996E-02  -5.04279978E-06
  -1.27999997E-02  -5.15652073E-06
  -1.27499998E-02  -5.27253815E-06
  -1.26999998E-02  -5.39087705E-06
  -1.26499999E-02  -5.51153607E-06
  -1.26000000E-02  -5.63450430E-06
  -1.25500001E-02  -5.75978220E-06
  -1.25000002E-02  -5.88739658E-06
  -1.24500003E-02  -6.01740658E-06
  -1.24000004E-02  -6.14989222E-06
  -1.23500004E-02  -6.28493353E-06
  -1.22999996E-02  -6.42259374E-06
  -1.22499997E-02  -6.56290422E-06
  -1.21999998E-02  -6.70586860E-06
  -1.21499998E-02  -6.85148098E-06
  -1.20999999E-02  -6.99974407E-06
  -1.20500000E-02  -7.15069064E-06
  -1.20000001E-02  -7.30438205E-06
  -1.19500002E-02  -7.46090518E-06
  -1.19000003E-02  -7.62034824E-06
  -1.18500004E-02  -7.78277990E-06
  -1.18000004E-02  -7.94823518E-06
  -1.17499996E-02  -8.11672180E-06
  -1.16999997E-02  -8.28823340E-06
  -1.16499998E-02  -8.46277089E-06
  -1.15999999E-02  -8.64036338E-06
  -1.15499999E-02  -8.82107452E-06
  -1.15000000E-02  -9.00499526E-06
  -1.14500001E-02  -9.19221930E-06
  -1.14000002E-02  -9.38282665E-06
  -1.13500003E-02  -9.57686188E-06
  -1.13000004E-02  -9.77433865E-06
  -1.12500004E-02  -9.97525513E-06
  -1.11999996E-02  -1.01796168E-05
  -1.11499997E-02  -1.03874581E-05
  -1.10999998E-02  -1.05988456E-05
  -1.10499999E-02  -1.08138720E-05
  -1.09999999E-02  -1.10326355E-05
  -1.09500000E-02  -1.12552161E-05
  -1.09000001E-02  -1.14816612E-05
  -1.08500002E-02  -1.17119835E-05
  -1.08000003E-02  -1.19461811E-05
  -1.07500004E-02  -1.21842559E-05
  -1.07000005E-02  -1.24262397E-05
  -1.06499996E-02  -1.26722016E-05
  -1.05999997E-02  -1.29222381E-05
  -1.05499998E-02  -1.31764546E-05
  -1.04999999E-02  -1.34349411E-05
  -1.04499999E-02  -1.36977542E-05
  -1.04000000E-02  -1.39649137E-05
  -1.03500001E-02  -1.42364197E-05
  -1.03000002E-02  -1.45122794E-05
  -1.02500003E-02  -1.47925193E-05
  -1.02000004E-02  -1.50772094E-05
  -1.01500005E-02  -1.53664496E-05
  -1.00999996E-02  -1.56603437E-05
  -1.00499997E-02  -1.59589872E-05
  -9.99999978E-03  -1.62624365E-05
  -9.94999986E-03  -1.65707061E-05
  -9.89999995E-03  -1.68837923E-05
  -9.85000003E-03  -1.72016953E-05
  -9.80000012E-03  -1.75244422E-05
  -9.75000020E-03  -1.78520968E-05
  -9.70000029E-03  -1.81847608E-05
  -9.65000037E-03  -1.85225417E-05
  -9.60000046E-03  -1.88655340E-05
  -9.54999961E-03  -1.92137995E-05
  -9.49999969E-03  -1.95673583E-05
  -9.44999978E-03  -1.99262086E-05
  -9.39999986E-03  -2.02903466E-05
  -9.34999995E-03  -2.06598052E-05
  -9.30000003E-03  -2.10346479E-05
  -9.25000012E-03  -2.14149804E-05
  -9.20000020E-03  -2.18009172E-05
  -9.15000029E-03  -2.21925529E-05
  -9.10000037E-03  -2.25899530E-05
  -9.05000046E-03  -2.29931284E-05
  -8.99999961E-03  -2.34020717E-05
  -8.94999970E-03  -2.38167686E-05
  -8.89999978E-03  -2.42372353E-05
  -8.84999987E-03  -2.46635282E-05
  -8.79999995E-03  -2.50957419E-05
  -8.75000004E-03  -2.55339855E-05
  -8.70000012E-03  -2.59783483E-05
  -8.65000021E-03  -2.64288883E-05
  -8.60000029E-03  -2.68856165E-05
  -8.55000038E-03  -2.73485166E-05
  -8.50000046E-03  -2.78175630E-05
  -8.44999962E-03  -2.82927667E-05
  -8.39999970E-03  -2.87741805E-05
  -8.34999979E-03  -2.92618970E-05
  -8.29999987E-03  -2.97560291E-05
  -8.24999996E-03  -3.02566732E-05
  -8.20000004E-03  -3.07638875E-05
  -8.15000013E-03  -3.12776792E-05
  -8.10000021E-03  -3.17980121E-05
  -8.05000030E-03  -3.23248569E-05
  -8.00000038E-03  -3.28581991E-05
  -7.95000046E-03  -3.33980825E-05
  -7.89999962E-03  -3.39445905E-05
  -7.84999970E-03  -3.44978180E-05
  -7.79999979E-03  -3.50578521E-05
  -7.74999987E-03  -3.56247365E-05
  -7.69999996E-03  -3.61984494E-05
  -7.65000004E-03  -3.67789435E-05
  -7.60000013E-03  -3.73661605E-05
  -7.55000021E-03  -3.79600642E-05
  -7.49999983E-03  -3.85606727E-05
  -7.44999992E-03  -3.91680624E-05
  -7.40000000E-03  -3.97823351E-05
  -7.35000009E-03  -4.04035673E-05
  -7.30000017E-03  -4.10317989E-05
  -7.24999979E-03  -4.16670046E-05
  -7.19999988E-03  -4.23091187E-05
  -7.14999996E-03  -4.29580614E-05
  -7.10000005E-03  -4.36137707E-05
  -7.05000013E-03  -4.42762466E-05
  -7.00000022E-03  -4.49455438E-05
  -6.94999984E-03  -4.56217495E-05
  -6.89999992E-03  -4.63049291E-05
  -6.85000001E-03  -4.69951083E-05
  -6.80000009E-03  -4.76922505E-05
  -6.75000018E-03  -4.83962467E-05
  -6.69999979E-03  -4.91069841E-05
  -6.64999988E-03  -4.98243717E-05
  -6.59999996E-03  -5.05483695E-05
  -6.55000005E-03  -5.12790139E-05
  -6.50000013E-03  -5.20163740E-05
  -6.45000022E-03  -5.27605007E-05
  -6.39999984E-03  -5.35114050E-05
  -6.34999992E-03  -5.42690213E-05
  -6.30000001E-03  -5.50332115E-05
  -6.25000009E-03  -5.58038191E-05
  -6.20000018E-03  -5.65807131E-05
  -6.14999980E-03  -5.73638354E-05
  -6.09999988E-03  -5.81531858E-05
  -6.04999997E-03  -5.89488045E-05
  -6.00000005E-03  -5.97507387E-05
  -5.95000014E-03  -6.05589812E-05
  -5.90000022E-03  -6.13734301E-05
  -5.84999984E-03  -6.21939180E-05
  -5.79999993E-03  -6.30202558E-05
  -5.75000001E-03  -6.38522615E-05
  -5.70000010E-03  -6.46898261E-05
  -5.65000018E-03  -6.55328986E-05
  -5.59999980E-03  -6.63815081E-05
  -5.54999989E-03  -6.72356691E-05
  -5.49999997E-03  -6.80953381E-05
  -5.45000006E-03  -6.89604130E-05
  -5.40000014E-03  -6.98306612E-05
  -5.35000023E-03  -7.07058498E-05
  -5.29999984E-03  -7.15857459E-05
  -5.24999993E-03  -7.24701677E-05
  -5.20000001E-03  -7.33590205E-05
  -5.15000010E-03  -7.42522971E-05
  -5.10000018E-03  -7.51499902E-05
  -5.04999980E-03  -7.60520343E-05
  -4.99999989E-03  -7.69582766E-05
  -4.94999997E-03  -7.78684771E-05
  -4.90000006E-03  -7.87823228E-05
  -4.85000014E-03  -7.96995228E-05
  -4.80000023E-03  -8.06198368E-05
  -4.74999985E-03  -8.15431413E-05
  -4.69999993E-03  -8.24693634E-05
  -4.65000002E-03  -8.33984814E-05
  -4.60000010E-03  -8.43304006E-05
  -4.55000019E-03  -8.52649391E-05
  -4.49999981E-03  -8.62018060E-05
  -4.44999989E-03  -8.71406301E-05
  -4.39999998E-03  -8.80810403E-05
  -4.35000006E-03  -8.90227238E-05
  -4.30000015E-03  -8.99654769E-05
  -4.25000023E-03  -9.09091759E-05
  -4.19999985E-03  -9.18537480E-05
  -4.14999994E-03  -9.27990768E-05
  -4.10000002E-03  -9.37449367E-05
  -4.05000011E-03  -9.46909859E-05
  -4.00000019E-03  -9.56367949E-05
  -3.94999981E-03  -9.65818908E-05
  -3.89999989E-03  -9.75258954E-05
  -3.84999998E-03  -9.84684884E-05
  -3.80000006E-03  -9.94095026E-05
  -3.74999992E-03  -1.00348836E-04
  -3.70000000E-03  -1.01286350E-04
  -3.65000009E-03  -1.02221798E-04
  -3.59999994E-03  -1.03154794E-04
  -3.55000002E-03  -1.04084836E-04
  -3.50000011E-03  -1.05011371E-04
  -3.44999996E-03  -1.05933905E-04
  -3.40000005E-03  -1.06852043E-04
  -3.34999990E-03  -1.07765540E-04
  -3.29999998E-03  -1.08674220E-04
  -3.25000007E-03  -1.09577915E-04
  -3.19999992E-03  -1.10476329E-04
  -3.15000000E-03  -1.11369030E-04
  -3.10000009E-03  -1.12255446E-04
  -3.04999994E-03  -1.13134927E-04
  -3.00000003E-03  -1.14006856E-04
  -2.95000011E-03  -1.14870745E-04
  -2.89999996E-03  -1.15726252E-04
  -2.85000005E-03  -1.16573123E-04
  -2.79999990E-03  -1.17411131E-04
  -2.74999999E-03  -1.18239972E-04
  -2.70000007E-03  -1.19059165E-04
  -2.64999992E-03  -1.19868091E-04
  -2.60000001E-03  -1.20665987E-04
  -2.55000009E-03  -1.21452154E-04
  -2.49999994E-03  -1.22225989E-04
  -2.45000003E-03  -1.22987025E-04
  -2.40000011E-03  -1.23734950E-04
  -2.34999997E-03  -1.24469472E-04
  -2.30000005E-03  -1.25190272E-04
  -2.24999990E-03  -1.25896840E-04
  -2.19999999E-03  -1.26588478E-04
  -2.15000007E-03  -1.27264371E-04
  -2.09999993E-03  -1.27923646E-04
  -2.05000001E-03  -1.28565574E-04
  -2.00000009E-03  -1.29189531E-04
  -1.94999995E-03  -1.29795138E-04
  -1.90000003E-03  -1.30382046E-04
  -1.85000000E-03  -1.30949877E-04
  -1.79999997E-03  -1.31498091E-04
  -1.75000005E-03  -1.32025933E-04
  -1.70000002E-03  -1.32532470E-04
  -1.64999999E-03  -1.33016743E-04
  -1.59999996E-03  -1.33477850E-04
  -1.55000004E-03  -1.33915091E-04
  -1.50000001E-03  -1.34327958E-04
  -1.44999998E-03  -1.34716058E-04
  -1.39999995E-03  -1.35078939E-04
  -1.35000004E-03  -1.35416078E-04
  -1.30000000E-03  -1.35726645E-04
  -1.24999997E-03  -1.36009665E-04
  -1.20000006E-03  -1.36264018E-04
  -1.15000003E-03  -1.36488685E-04
  -1.09999999E-03  -1.36682836E-04
  -1.04999996E-03  -1.36845832E-04
  -1.00000005E-03  -1.36977193E-04
  -9.50000016E-04  -1.37076437E-04
  -8.99999985E-04  -1.37142953E-04
  -8.50000011E-04  -1.37175914E-04
  -7.99999980E-04  -1.37174211E-04
  -7.50000007E-04  -1.37136667E-04
  -6.99999975E-04  -1.37062088E-04
  -6.50000002E-04  -1.36949486E-04
  -6.00000028E-04  -1.36798117E-04
  -5.49999997E-04  -1.36607399E-04
  -5.00000024E-04  -1.36376824E-04
  -4.49999992E-04  -1.36105751E-04
  -3.99999990E-04  -1.35793292E-04
  -3.49999988E-04  -1.35438298E-04
  -3.00000014E-04  -1.35039489E-04
  -2.50000012E-04  -1.34595582E-04
  -1.99999995E-04  -1.34105445E-04
  -1.50000007E-04  -1.33568217E-04
  -9.99999975E-05  -1.32983201E-04
  -4.99999987E-05  -1.32349858E-04
   0.00000000      -1.31667475E-04
   4.99999987E-05  -1.30935165E-04
   9.99999975E-05  -1.30151719E-04
   1.50000007E-04  -1.29315769E-04
   1.99999995E-04  -1.28425905E-04
   2.50000012E-04  -1.27480860E-04
   3.00000014E-04  -1.26479630E-04
   3.49999988E-04  -1.25421444E-04
   3.99999990E-04  -1.24305676E-04
   4.49999992E-04  -1.23131613E-04
   5.00000024E-04  -1.21898287E-04
   5.49999997E-04  -1.20604513E-04
   6.00000028E-04  -1.19248849E-04
   6.50000002E-04  -1.17829783E-04
   6.99999975E-04  -1.16345946E-04
   7.50000007E-04  -1.14796181E-04
   7.99999980E-04  -1.13179623E-04
   8.50000011E-04  -1.11495567E-04
   8.99999985E-04  -1.09743276E-04
   9.50000016E-04  -1.07921820E-04
   1.00000005E-03  -1.06029991E-04
   1.04999996E-03  -1.04066326E-04
   1.09999999E-03  -1.02029248E-04
   1.15000003E-03  -9.99172480E-05
   1.20000006E-03  -9.77290692E-05
   1.24999997E-03  -9.54637435E-05
   1.30000000E-03  -9.31204777E-05
   1.35000004E-03  -9.06985370E-05
   1.39999995E-03  -8.81970191E-05
   1.44999998E-03  -8.56146871E-05
   1.50000001E-03  -8.29500641E-05
   1.55000004E-03  -8.02014983E-05
   1.59999996E-03  -7.73674110E-05
   1.64999999E-03  -7.44464196E-05
   1.70000002E-03  -7.14374546E-05
   1.75000005E-03  -6.83396865E-05
   1.79999997E-03  -6.51523369E-05
   1.85000000E-03  -6.18745325E-05
   1.90000003E-03  -5.85050984E-05
   1.94999995E-03  -5.50425902E-05
   2.00000009E-03  -5.14853418E-05
   2.05000001E-03  -4.78316942E-05
   2.09999993E-03  -4.40801959E-05
   2.15000007E-03  -4.02296937E-05
   2.19999999E-03  -3.62792962E-05
   2.24999990E-03  -3.22282503E-05
   2.30000005E-03  -2.80757231E-05
   2.34999997E-03  -2.38206139E-05
   2.40000011E-03  -1.94615150E-05
   2.45000003E-03  -1.49967855E-05
   2.49999994E-03  -1.04247310E-05
   2.55000009E-03  -5.74380920E-06
   2.60000001E-03  -9.52787559E-07
   2.64999992E-03   3.94925110E-06
   2.70000007E-03   8.96304664E-06
   2.74999999E-03   1.40893635E-05
   2.79999990E-03   1.93292017E-05