  -3.99999991E-02   0.00000000    
  -3.99499983E-02   0.00000000    
  -3.99000011E-02   0.00000000    
  -3.98500003E-02  -9.60194034E-17
  -3.97999994E-02  -4.65990305E-16
  -3.97499986E-02  -1.20016437E-15
  -3.97000015E-02  -2.23132047E-15
  -3.96500006E-02  -3.54511071E-15
  -3.95999998E-02  -5.42011724E-15
  -3.95499989E-02  -8.28994449E-15
  -3.95000018E-02  -1.22832466E-14
  -3.94500010E-02  -1.70281490E-14
  -3.94000001E-02  -2.21038448E-14
  -3.93499993E-02  -2.76963240E-14
  -3.92999984E-02  -3.46193241E-14
  -3.92500013E-02  -4.35495891E-14
  -3.92000005E-02  -5.43485409E-14
  -3.91499996E-02  -6.63612570E-14
  -3.90999988E-02  -7.94225051E-14
  -3.90500017E-02  -9.43489603E-14
  -3.90000008E-02  -1.12237253E-13
  -3.89500000E-02  -1.33364280E-13
  -3.88999991E-02  -1.57051780E-13
  -3.88499983E-02  -1.82693907E-13
  -3.88000011E-02  -2.10642620E-13
  -3.87500003E-02  -2.41755888E-13
  -3.86999995E-02  -2.76125287E-13
  -3.86499986E-02  -3.12678973E-13
  -3.86000015E-02  -3.50377117E-13
  -3.85500006E-02  -3.89654238E-13
  -3.84999998E-02  -4.32218497E-13
  -3.84499989E-02  -4.79161958E-13
  -3.84000018E-02  -5.29431533E-13
  -3.83500010E-02  -5.80428175E-13
  -3.83000001E-02  -6.30048205E-13
  -3.82499993E-02  -6.77801999E-13
  -3.81999984E-02  -7.23842156E-13
  -3.81500013E-02  -7.67362194E-13
  -3.81000005E-02  -8.06594754E-13
  -3.80499996E-02  -8.40505020E-13
  -3.79999988E-02  -8.69904409E-13
  -3.79500017E-02  -8.96195336E-13
  -3.79000008E-02  -9.18879556E-13
  -3.78500000E-02  -9.34716063E-13
  -3.77999991E-02  -9.39673361E-13
  -3.77499983E-02  -9.31519076E-13
  -3.77000012E-02  -9.10090688E-13
  -3.76500003E-02  -8.75055887E-13
  -3.75999995E-02  -8.24004385E-13
  -3.75499986E-02  -7.53260247E-13
  -3.75000015E-02  -6.60378382E-13
  -3.74500006E-02  -5.45094677E-13
  -3.73999998E-02  -4.07355844E-13
  -3.73499990E-02  -2.44733270E-13
  -3.73000018E-02  -5.24789393E-14
  -3.72500010E-02   1.73569018E-13
  -3.72000001E-02   4.34387931E-13
  -3.71499993E-02   7.28182542E-13
  -3.70999984E-02   1.05278947E-12
  -3.70500013E-02   1.40673616E-12
  -3.70000005E-02   1.78766702E-12
  -3.69499996E-02   2.19073457E-12
  -3.68999988E-02   2.61025208E-12
  -3.68500017E-02   3.04416475E-12
  -3.68000008E-02   3.49702580E-12
  -3.67500000E-02   3.97792780E-12
  -3.66999991E-02   4.49469064E-12
  -3.66499983E-02   5.04911260E-12
  -3.66000012E-02   5.63649301E-12
  -3.65500003E-02   6.24812138E-12
  -3.64999995E-02   6.87341763E-12
  -3.64499986E-02   7.50077778E-12
  -3.64000015E-02   8.11918328E-12
  -3.63500006E-02   8.72178198E-12
  -3.62999998E-02   9.30876383E-12
  -3.62499990E-02   9.88519423E-12
  -3.62000018E-02   1.04532182E-11
  -3.61500010E-02   1.10039981E-11
  -3.61000001E-02   1.15162766E-11
  -3.60499993E-02   1.19634051E-11
  -3.59999985E-02   1.23239734E-11
  -3.59500013E-02   1.25891407E-11
  -3.59000005E-02   1.27635021E-11
  -3.58499996E-02   1.28609441E-11
  -3.57999988E-02   1.28978980E-11
  -3.57500017E-02   1.28848243E-11
  -3.57000008E-02   1.28169498E-11
  -3.56500000E-02   1.26685060E-11
  -3.55999991E-02   1.23965213E-11
  -3.55499983E-02   1.19560620E-11
  -3.55000012E-02   1.13202989E-11
  -3.54500003E-02   1.04933163E-11
  -3.53999995E-02   9.50703839E-12
  -3.53499986E-02   8.40362762E-12
  -3.53000015E-02   7.21310078E-12
  -3.52500007E-02   5.93716439E-12
  -3.51999998E-02   4.54526954E-12
  -3.51499990E-02   2.98368621E-12
  -3.51000018E-02   1.19516300E-12
  -3.50500010E-02  -8.56015454E-13
  -3.50000001E-02  -3.16293584E-12
  -3.49499993E-02  -5.67058510E-12
  -3.48999985E-02  -8.29313528E-12
  -3.48500013E-02  -1.09490047E-11
  -3.48000005E-02  -1.35965579E-11
  -3.47499996E-02  -1.62508219E-11
  -3.46999988E-02  -1.89716298E-11
  -3.46500017E-02  -2.18292866E-11
  -3.46000008E-02  -2.48646798E-11
  -3.45500000E-02  -2.80616728E-11
  -3.44999991E-02  -3.13429872E-11
  -3.44499983E-02  -3.45918363E-11
  -3.44000012E-02  -3.76926754E-11
  -3.43500003E-02  -4.05760703E-11
  -3.42999995E-02  -4.32470448E-11
  -3.42499986E-02  -4.57794462E-11
  -3.42000015E-02  -4.82734581E-11
  -3.41500007E-02  -5.07939142E-11
  -3.40999998E-02  -5.33201504E-11
  -3.40499990E-02  -5.57346148E-11
  -3.40000018E-02  -5.78575347E-11
  -3.39500010E-02  -5.95117497E-11
  -3.39000002E-02  -6.05882566E-11
  -3.38499993E-02  -6.10835688E-11
  -3.37999985E-02  -6.10925893E-11
  -3.37500013E-02  -6.07577877E-11
  -3.37000005E-02  -6.01928923E-11
  -3.36499996E-02  -5.94127456E-11
  -3.35999988E-02  -5.83034732E-11
  -3.35500017E-02  -5.66534701E-11
  -3.35000008E-02  -5.42371738E-11
  -3.34500000E-02  -5.09144706E-11
  -3.33999991E-02  -4.66967506E-11
  -3.33499983E-02  -4.17451664E-11
  -3.33000012E-02  -3.63001504E-11
  -3.32500003E-02  -3.05738317E-11
  -3.31999995E-02  -2.46533106E-11
  -3.31499986E-02  -1.84567795E-11
  -3.31000015E-02  -1.17626438E-11
  -3.30500007E-02  -4.30327518E-12
  -3.29999998E-02   4.11230295E-12
  -3.29499990E-02   1.34993726E-11
  -3.29000019E-02   2.36706731E-11
  -3.28500010E-02   3.43011383E-11
  -3.28000002E-02   4.50592168E-11
  -3.27499993E-02   5.57432538E-11
  -3.26999985E-02   6.63558583E-11
  -3.26500013E-02   7.70791903E-11
  -3.26000005E-02   8.81627132E-11
  -3.25499997E-02   9.97756808E-11
  -3.24999988E-02   1.11890365E-10
  -3.24500017E-02   1.24248112E-10
  -3.24000008E-02   1.36426107E-10
  -3.23500000E-02   1.47982390E-10
  -3.22999991E-02   1.58620297E-10
  -3.22499983E-02   1.68297737E-10
  -3.22000012E-02   1.77223777E-10
  -3.21500003E-02   1.85734525E-10
  -3.20999995E-02   1.94101138E-10
  -3.20499986E-02   2.02361364E-10
  -3.20000015E-02   2.10256312E-10
  -3.19500007E-02   2.17303786E-10
  -3.18999998E-02   2.22974264E-10
  -3.18499990E-02   2.26891492E-10
  -3.18000019E-02   2.28971245E-10
  -3.17500010E-02   2.29437608E-10
  -3.17000002E-02   2.28704264E-10
  -3.16499993E-02   2.27164926E-10
  -3.15999985E-02   2.24980673E-10
  -3.15500014E-02   2.21964572E-10
  -3.15000005E-02   2.17626459E-10
  -3.14499997E-02   2.11367132E-10
  -3.13999988E-02   2.02734191E-10
  -3.13500017E-02   1.91619706E-10
  -3.13000008E-02   1.78307993E-10
  -3.12500000E-02   1.63353706E-10
  -3.11999992E-02   1.47346524E-10
  -3.11500002E-02   1.30664271E-10
  -3.10999993E-02   1.13318209E-10
  -3.10500003E-02   9.49589782E-11
  -3.09999995E-02   7.50480858E-11
  -3.09500005E-02   5.31281859E-11
  -3.08999997E-02   2.90730912E-11
  -3.08500007E-02   3.19703942E-12
  -3.07999998E-02  -2.38364588E-11
  -3.07500008E-02  -5.12682848E-11
  -3.07000000E-02  -7.85409168E-11
  -3.06499992E-02  -1.05499685E-10
  -3.06000002E-02  -1.32408251E-10
  -3.05499993E-02  -1.59775082E-10
  -3.05000003E-02  -1.88068103E-10
  -3.04499995E-02  -2.17438678E-10
  -3.04000005E-02  -2.47572518E-10
  -3.03499997E-02  -2.77738860E-10
  -3.03000007E-02  -3.07028153E-10
  -3.02499998E-02  -3.34681949E-10
  -3.02000009E-02  -3.60365043E-10
  -3.01500000E-02  -3.84247162E-10
  -3.00999992E-02  -4.06849304E-10
  -3.00500002E-02  -4.28725389E-10
  -2.99999993E-02  -4.50127824E-10
  -2.99500003E-02  -4.70809280E-10
  -2.98999995E-02  -4.90046614E-10
  -2.98500005E-02  -5.06873321E-10
  -2.97999997E-02  -5.20425758E-10
  -2.97500007E-02  -5.30259670E-10
  -2.96999998E-02  -5.36501621E-10
  -2.96500009E-02  -5.39758516E-10
  -2.96000000E-02  -5.40811840E-10
  -2.95499992E-02  -5.40224365E-10
  -2.95000002E-02  -5.38040335E-10
  -2.94499993E-02  -5.33719735E-10
  -2.94000003E-02  -5.26340138E-10
  -2.93499995E-02  -5.14968734E-10
  -2.93000005E-02  -4.99039199E-10
  -2.92499997E-02  -4.78569129E-10
  -2.92000007E-02  -4.54134313E-10
  -2.91499998E-02  -4.26612468E-10
  -2.91000009E-02  -3.96801259E-10
  -2.90500000E-02  -3.65071084E-10
  -2.89999992E-02  -3.31204703E-10
  -2.89500002E-02  -2.94508251E-10
  -2.88999993E-02  -2.54153976E-10
  -2.88500004E-02  -2.09602127E-10
  -2.87999995E-02  -1.60904526E-10
  -2.87500005E-02  -1.08747900E-10
  -2.86999997E-02  -5.42198543E-11
  -2.86500007E-02   1.59347123E-12
  -2.85999998E-02   5.79999659E-11
  -2.85500009E-02   1.14920330E-10
  -2.85000000E-02   1.72842185E-10
  -2.84499992E-02   2.32524541E-10
  -2.84000002E-02   2.94569036E-10
  -2.83499993E-02   3.59038410E-10
  -2.83000004E-02   4.25297492E-10
  -2.82499995E-02   4.92160923E-10
  -2.82000005E-02   5.58291968E-10
  -2.81499997E-02   6.22673635E-10
  -2.81000007E-02   6.84934054E-10
  -2.80499998E-02   7.45380702E-10
  -2.80000009E-02   8.04732836E-10
  -2.79500000E-02   8.63671579E-10
  -2.78999992E-02   9.22400156E-10
  -2.78500002E-02   9.80396542E-10
  -2.77999993E-02   1.03646847E-09
  -2.77500004E-02   1.08910125E-09
  -2.76999995E-02   1.13696486E-09
  -2.76500005E-02   1.17936627E-09
  -2.75999997E-02   1.21644161E-09
  -2.75500007E-02   1.24898714E-09
  -2.74999999E-02   1.27800193E-09
  -2.74500009E-02   1.30414479E-09
  -2.74000000E-02   1.32734923E-09
  -2.73499992E-02   1.34676248E-09
  -2.73000002E-02   1.36102929E-09
  -2.72499993E-02   1.36879541E-09
  -2.72000004E-02   1.36922562E-09
  -2.71499995E-02   1.36231970E-09
  -2.71000005E-02   1.34888611E-09
  -2.70499997E-02   1.33016897E-09
  -2.70000007E-02   1.30727951E-09
  -2.69499999E-02   1.28067923E-09
  -2.69000009E-02   1.24995903E-09
  -2.68500000E-02   1.21402211E-09
  -2.67999992E-02   1.17159049E-09
  -2.67500002E-02   1.12180754E-09
  -2.66999993E-02   1.06466358E-09
  -2.66500004E-02   1.00106456E-09
  -2.65999995E-02   9.32515398E-10
  -2.65500005E-02   8.60552019E-10
  -2.64999997E-02   7.86158083E-10
  -2.64500007E-02   7.09418135E-10
  -2.63999999E-02   6.29572616E-10
  -2.63500009E-02   5.45473333E-10
  -2.63000000E-02   4.56250676E-10
  -2.62499992E-02   3.61892072E-10
  -2.62000002E-02   2.63452260E-10
  -2.61499994E-02   1.62787617E-10
  -2.61000004E-02   6.19262419E-11
  -2.60499995E-02  -3.76442315E-11
  -2.60000005E-02  -1.35460712E-10
  -2.59499997E-02  -2.32131314E-10
  -2.59000007E-02  -3.28922417E-10
  -2.58499999E-02  -4.27050534E-10
  -2.58000009E-02  -5.26971411E-10
  -2.57500000E-02  -6.27976338E-10
  -2.56999992E-02  -7.28293148E-10
  -2.56500002E-02  -8.25673196E-10
  -2.55999994E-02  -9.18215670E-10
  -2.55500004E-02  -1.00505637E-09
  -2.54999995E-02  -1.08659970E-09
  -2.54500005E-02  -1.16418553E-09
  -2.53999997E-02  -1.23934785E-09
  -2.53500007E-02  -1.31299704E-09
  -2.52999999E-02  -1.38488321E-09
  -2.52500009E-02  -1.45357193E-09
  -2.52000000E-02  -1.51695001E-09
  -2.51499992E-02  -1.57305746E-09
  -2.51000002E-02  -1.62089298E-09
  -2.50499994E-02  -1.66083447E-09
  -2.50000004E-02  -1.69446157E-09
  -2.49499995E-02  -1.72383940E-09
  -2.49000005E-02  -1.75058201E-09
  -2.48499997E-02  -1.77513337E-09
  -2.48000007E-02  -1.79659865E-09
  -2.47499999E-02  -1.81319737E-09
  -2.47000009E-02  -1.82312676E-09
  -2.46500000E-02  -1.82544369E-09
  -2.45999992E-02  -1.82058268E-09
  -2.45500002E-02  -1.81027937E-09
  -2.44999994E-02  -1.79692627E-09
  -2.44500004E-02  -1.78262471E-09
  -2.43999995E-02  -1.76834658E-09
  -2.43500005E-02  -1.75360571E-09
  -2.42999997E-02  -1.73681347E-09
  -2.42500007E-02  -1.71618086E-09
  -2.41999999E-02  -1.69074943E-09
  -2.41500009E-02  -1.66106684E-09
  -2.41000000E-02  -1.62919123E-09
  -2.40499992E-02  -1.59802382E-09
  -2.40000002E-02  -1.57027413E-09
  -2.39499994E-02  -1.54750801E-09
  -2.39000004E-02  -1.52968893E-09
  -2.38499995E-02  -1.51541690E-09
  -2.38000005E-02  -1.50278112E-09
  -2.37499997E-02  -1.49046786E-09
  -2.37000007E-02  -1.47863566E-09
  -2.36499999E-02  -1.46914159E-09
  -2.36000009E-02  -1.46499035E-09
  -2.35500000E-02  -1.46925339E-09
  -2.34999992E-02  -1.48395785E-09
  -2.34500002E-02  -1.50945934E-09
  -2.33999994E-02  -1.54456459E-09
  -2.33500004E-02  -1.58733948E-09
  -2.32999995E-02  -1.63622116E-09
  -2.32500006E-02  -1.69095005E-09
  -2.31999997E-02  -1.75292358E-09
  -2.31500007E-02  -1.82480597E-09
  -2.30999999E-02  -1.90954852E-09
  -2.30500009E-02  -2.00925654E-09
  -2.30000000E-02  -2.12441620E-09
  -2.29499992E-02  -2.25385888E-09
  -2.29000002E-02  -2.39549358E-09
  -2.28499994E-02  -2.54745203E-09
  -2.28000004E-02  -2.70910716E-09
  -2.27499995E-02  -2.88149371E-09
  -2.27000006E-02  -3.06694004E-09
  -2.26499997E-02  -3.26811267E-09
  -2.26000007E-02  -3.48689366E-09
  -2.25499999E-02  -3.72358966E-09
  -2.25000009E-02  -3.97682243E-09
  -2.24500000E-02  -4.24416324E-09
  -2.23999992E-02  -4.52325200E-09
  -2.23500002E-02  -4.81290252E-09
  -2.22999994E-02  -5.11367571E-09
  -2.22500004E-02  -5.42763523E-09
  -2.21999995E-02  -5.75739456E-09
  -2.21500006E-02  -6.10489392E-09
  -2.20999997E-02  -6.47051257E-09
  -2.20500007E-02  -6.85288892E-09
  -2.19999999E-02  -7.24951432E-09
  -2.19500009E-02  -7.65783614E-09
  -2.19000001E-02  -8.07635203E-09
  -2.18499992E-02  -8.50525250E-09
  -2.18000002E-02  -8.94631125E-09
  -2.17499994E-02  -9.40206490E-09
  -2.17000004E-02  -9.87462911E-09
  -2.16499995E-02  -1.03646842E-08
  -2.16000006E-02  -1.08711280E-08
  -2.15499997E-02  -1.13915579E-08
  -2.15000007E-02  -1.19233539E-08
  -2.14499999E-02  -1.24648363E-08
  -2.14000009E-02  -1.30159776E-08
  -2.13500001E-02  -1.35783713E-08
  -2.12999992E-02  -1.41545140E-08
  -2.12500002E-02  -1.47467425E-08
  -2.11999994E-02  -1.53562834E-08
  -2.11500004E-02  -1.59828470E-08
  -2.10999995E-02  -1.66249237E-08
  -2.10500006E-02  -1.72806889E-08
  -2.09999997E-02  -1.79490698E-08
  -2.09500007E-02  -1.86304874E-08
  -2.08999999E-02  -1.93268814E-08
  -2.08500009E-02  -2.00410302E-08
  -2.08000001E-02  -2.07754809E-08
  -2.07499992E-02  -2.15316653E-08
  -2.07000002E-02  -2.23095356E-08
  -2.06499994E-02  -2.31079405E-08
  -2.06000004E-02  -2.39254963E-08
  -2.05499995E-02  -2.47615723E-08
  -2.05000006E-02  -2.56170143E-08
  -2.04499997E-02  -2.64941828E-08
  -2.04000007E-02  -2.73963945E-08
  -2.03499999E-02  -2.83268875E-08
  -2.03000009E-02  -2.92878450E-08
  -2.02500001E-02  -3.02799101E-08
  -2.01999992E-02  -3.13024699E-08
  -2.01500002E-02  -3.23545244E-08
  -2.00999994E-02  -3.34357182E-08
  -2.00500004E-02  -3.45470532E-08
  -1.99999996E-02  -3.56909595E-08
  -1.99500006E-02  -3.68707767E-08
  -1.98999997E-02  -3.80898477E-08
  -1.98500007E-02  -3.93506099E-08
  -1.97999999E-02  -4.06541076E-08
  -1.97500009E-02  -4.20001456E-08
  -1.97000001E-02  -4.33879954E-08
  -1.96499992E-02  -4.48173019E-08
  -1.96000002E-02  -4.62888394E-08
  -1.95499994E-02  -4.78047077E-08
  -1.95000004E-02  -4.93678805E-08
  -1.94499996E-02  -5.09813241E-08
  -1.94000006E-02  -5.26471595E-08
  -1.93499997E-02  -5.43662502E-08
  -1.93000007E-02  -5.61384113E-08
  -1.92499999E-02  -5.79630210E-08
  -1.92000009E-02  -5.98398202E-08
  -1.91500001E-02  -6.17694695E-08
  -1.90999992E-02  -6.37537383E-08
  -1.90500002E-02  -6.57950920E-08
  -1.89999994E-02  -6.78959893E-08
  -1.89500004E-02  -7.00580998E-08
  -1.88999996E-02  -7.22818214E-08
  -1.88500006E-02  -7.45665076E-08
  -1.87999997E-02  -7.69111708E-08
  -1.87500007E-02  -7.93152992E-08
  -1.86999999E-02  -8.17794046E-08
  -1.86500009E-02  -8.43050856E-08
  -1.86000001E-02  -8.68944952E-08
  -1.85499992E-02  -8.95496086E-08
  -1.85000002E-02  -9.22716126E-08
  -1.84499994E-02  -9.50605212E-08
  -1.84000004E-02  -9.79153469E-08
  -1.83499996E-02  -1.00834626E-07
  -1.83000006E-02  -1.03817321E-07
  -1.82499997E-02  -1.06863538E-07
  -1.82000007E-02  -1.09974614E-07
  -1.81499999E-02  -1.13152765E-07
  -1.81000009E-02  -1.16400216E-07
  -1.80500001E-02  -1.19718422E-07
  -1.79999992E-02  -1.23107711E-07
  -1.79500002E-02  -1.26567542E-07
  -1.78999994E-02  -1.30096993E-07
  -1.78500004E-02  -1.33695437E-07
  -1.77999996E-02  -1.37363017E-07
  -1.77500006E-02  -1.41100998E-07
  -1.76999997E-02  -1.44911454E-07
  -1.76500008E-02  -1.48796659E-07
  -1.75999999E-02  -1.52758361E-07
  -1.75500009E-02  -1.56797299E-07
  -1.75000001E-02  -1.60913615E-07
  -1.74499992E-02  -1.65107409E-07
  -1.74000002E-02  -1.69379433E-07
  -1.73499994E-02  -1.73731394E-07
  -1.73000004E-02  -1.78166076E-07
  -1.72499996E-02  -1.82686932E-07
  -1.72000006E-02  -1.87297530E-07
  -1.71499997E-02  -1.92000783E-07
  -1.71000008E-02  -1.96798709E-07
  -1.70499999E-02  -2.01692600E-07
  -1.70000009E-02  -2.06683666E-07
  -1.69500001E-02  -2.11773823E-07
  -1.68999992E-02  -2.16966342E-07
  -1.68500002E-02  -2.22265726E-07
  -1.67999994E-02  -2.27677361E-07
  -1.67500004E-02  -2.33206634E-07
  -1.66999996E-02  -2.38858405E-07
  -1.66500006E-02  -2.44636681E-07
  -1.65999997E-02  -2.50544872E-07
  -1.65500008E-02  -2.56586162E-07
  -1.64999999E-02  -2.62764388E-07
  -1.64500009E-02  -2.69084808E-07
  -1.64000001E-02  -2.75553958E-07
  -1.63499992E-02  -2.82179627E-07
  -1.63000003E-02  -2.88969659E-07
  -1.62499994E-02  -2.95931272E-07
  -1.62000004E-02  -3.03070777E-07
  -1.61499996E-02  -3.10393773E-07
  -1.61000006E-02  -3.17905346E-07
  -1.60499997E-02  -3.25611211E-07
  -1.60000008E-02  -3.33518216E-07
  -1.59499999E-02  -3.41634546E-07
  -1.59000009E-02  -3.49969440E-07
  -1.58500001E-02  -3.58532304E-07
  -1.57999992E-02  -3.67332206E-07
  -1.57500003E-02  -3.76377244E-07
  -1.56999994E-02  -3.85674838E-07
  -1.56500004E-02  -3.95232178E-07
  -1.55999996E-02  -4.05057222E-07
  -1.55499997E-02  -4.15158723E-07
  -1.54999997E-02  -4.25546659E-07
  -1.54499998E-02  -4.36231801E-07
  -1.53999999E-02  -4.47225119E-07
  -1.53500000E-02  -4.58536846E-07
  -1.53000001E-02  -4.70176047E-07
  -1.52500002E-02  -4.82150654E-07
  -1.52000003E-02  -4.94468452E-07
  -1.51500003E-02  -5.07137656E-07
  -1.51000004E-02  -5.20168271E-07
  -1.50499996E-02  -5.33571381E-07
  -1.49999997E-02  -5.47358695E-07
  -1.49499997E-02  -5.61542265E-07
  -1.48999998E-02  -5.76133402E-07
  -1.48499999E-02  -5.91141998E-07
  -1.48000000E-02  -6.06576691E-07
  -1.47500001E-02  -6.22445327E-07
  -1.47000002E-02  -6.38756035E-07
  -1.46500003E-02  -6.55518079E-07
  -1.46000003E-02  -6.72742544E-07
  -1.45500004E-02  -6.90441709E-07
  -1.44999996E-02  -7.08627567E-07
  -1.44499997E-02  -7.27311715E-07
  -1.43999998E-02  -7.46504895E-07
  -1.43499998E-02  -7.66216601E-07
  -1.42999999E-02  -7.86455757E-07
  -1.42500000E-02  -8.07231061E-07
  -1.42000001E-02  -8.28552459E-07
  -1.41500002E-02  -8.50430581E-07
  -1.41000003E-02  -8.72877649E-07
  -1.40500003E-02  -8.95906169E-07
  -1.40000004E-02  -9.19528134E-07
  -1.39499996E-02  -9.43754173E-07
  -1.38999997E-02  -9.68593440E-07
  -1.38499998E-02  -9.94054744E-07
  -1.37999998E-02  -1.02014690E-06
  -1.37499999E-02  -1.04688104E-06
  -1.37000000E-02  -1.07426922E-06
  -1.36500001E-02  -1.10232395E-06
  -1.36000002E-02  -1.13105762E-06
  -1.35500003E-02  -1.16048261E-06
  -1.35000004E-02  -1.19061065E-06
  -1.34500004E-02  -1.22145275E-06
  -1.33999996E-02  -1.25301858E-06
  -1.33499997E-02  -1.28531781E-06
  -1.32999998E-02  -1.31836157E-06
  -1.32499998E-02  -1.35216305E-06
  -1.31999999E-02  -1.38673772E-06
  -1.31500000E-02  -1.42210058E-06
  -1.31000001E-02  -1.45826527E-06
  -1.30500002E-02  -1.49524362E-06
  -1.30000003E-02  -1.53304700E-06
  -1.29500004E-02  -1.57168631E-06
  -1.29000004E-02  -1.61117282E-06
  -1.28499996E-02  -1.65151778E-06
  -1.27999997E-02  -1.69273494E-06
  -1.27499998E-02  -1.73484045E-06
  -1.26999998E-02  -1.77785216E-06
  -1.26499999E-02  -1.82178803E-06
  -1.26000000E-02  -1.86666477E-06
  -1.25500001E-02  -1.91249728E-06
  -1.25000002E-02  -1.95929942E-06
  -1.24500003E-02  -2.00708541E-06
  -1.24000004E-02  -2.05587071E-06
  -1.23500004E-02  -2.10567123E-06
  -1.22999996E-02  -2.15650289E-06
  -1.22499997E-02  -2.20838092E-06
  -1.21999998E-02  -2.26132147E-06
  -1.21499998E-02  -2.31534136E-06
  -1.20999999E-02  -2.37045742E-06
  -1.20500000E-02  -2.42668534E-06
  -1.20000001E-02  -2.48404285E-06
  -1.19500002E-02  -2.54255065E-06
  -1.19000003E-02  -2.60223351E-06
  -1.18500004E-02  -2.66311690E-06
  -1.18000004E-02  -2.72522584E-06
  -1.17499996E-02  -2.78858352E-06
  -1.16999997E-02  -2.85321062E-06
  -1.16499998E-02  -2.91912488E-06
  -1.15999999E-02  -2.98634018E-06
  -1.15499999E-02  -3.05486856E-06
  -1.15000000E-02  -3.12472366E-06
  -1.14500001E-02  -3.19592186E-06
  -1.14000002E-02  -3.26848271E-06
  -1.13500003E-02  -3.34242759E-06
  -1.13000004E-02  -3.41778059E-06
  -1.12500004E-02  -3.49456946E-06
  -1.11999996E-02  -3.57282261E-06
  -1.11499997E-02  -3.65257119E-06
  -1.10999998E-02  -3.73384523E-06
  -1.10499999E-02  -3.81667633E-06
  -1.09999999E-02  -3.90109835E-06
  -1.09500000E-02  -3.98714110E-06
  -1.09000001E-02  -4.07483139E-06
  -1.08500002E-02  -4.16418925E-06
  -1.08000003E-02  -4.25522921E-06
  -1.07500004E-02  -4.34796721E-06
  -1.07000005E-02  -4.44241323E-06
  -1.06499996E-02  -4.53857820E-06
  -1.05999997E-02  -4.63647802E-06
  -1.05499998E-02  -4.73613909E-06
  -1.04999999E-02  -4.83759140E-06
  -1.04499999E-02  -4.94087317E-06
  -1.04000000E-02  -5.04602303E-06
  -1.03500001E-02  -5.15307966E-06
  -1.03000002E-02  -5.26208214E-06
  -1.02500003E-02  -5.37306960E-06
  -1.02000004E-02  -5.48607750E-06
  -1.01500005E-02  -5.60113858E-06
  -1.00999996E-02  -5.71828059E-06
  -1.00499997E-02  -5.83753445E-06
  -9.99999978E-03  -5.95892834E-06
  -9.94999986E-03  -6.08249002E-06
  -9.89999995E-03  -6.20824312E-06
  -9.85000003E-03  -6.33620448E-06
  -9.80000012E-03  -6.46639546E-06
  -9.75000020E-03  -6.59884472E-06
  -9.70000029E-03  -6.73358863E-06
  -9.65000037E-03  -6.87066540E-06
  -9.60000046E-03  -7.01010867E-06
  -9.54999961E-03  -7.15195756E-06
  -9.49999969E-03  -7.29625708E-06
  -9.44999978E-03  -7.44305225E-06
  -9.39999986E-03  -7.59238037E-06
  -9.34999995E-03  -7.74427372E-06
  -9.30000003E-03  -7.89876049E-06
  -9.25000012E-03  -8.05588115E-06
  -9.20000020E-03  -8.21568392E-06
  -9.15000029E-03  -8.37821881E-06
  -9.10000037E-03  -8.54353129E-06
  -9.05000046E-03  -8.71166503E-06
  -8.99999961E-03  -8.88266459E-06
  -8.94999970E-03  -9.05657998E-06
  -8.89999978E-03  -9.23345306E-06
  -8.84999987E-03  -9.41332200E-06
  -8.79999995E-03  -9.59622048E-06
  -8.75000004E-03  -9.78218577E-06
  -8.70000012E-03  -9.97126608E-06
  -8.65000021E-03  -1.01635160E-05
  -8.60000029E-03  -1.03589819E-05
  -8.55000038E-03  -1.05577046E-05
  -8.50000046E-03  -1.07597243E-05
  -8.44999962E-03  -1.09650900E-05
  -8.39999970E-03  -1.11738564E-05
  -8.34999979E-03  -1.13860769E-05
  -8.29999987E-03  -1.16018036E-05
  -8.24999996E-03  -1.18210892E-05
  -8.20000004E-03  -1.20439954E-05
  -8.15000013E-03  -1.22705915E-05
  -8.10000021E-03  -1.25009392E-05
  -8.05000030E-03  -1.27350932E-05
  -8.00000038E-03  -1.29730961E-05
  -7.95000046E-03  -1.32150026E-05
  -7.89999962E-03  -1.34608754E-05
  -7.84999970E-03  -1.37107827E-05
  -7.79999979E-03  -1.39647873E-05
  -7.74999987E-03  -1.42229528E-05
  -7.69999996E-03  -1.44853448E-05
  -7.65000004E-03  -1.47520277E-05
  -7.60000013E-03  -1.50230653E-05
  -7.55000021E-03  -1.52985122E-05
  -7.49999983E-03  -1.55784073E-05
  -7.44999992E-03  -1.58628027E-05
  -7.40000000E-03  -1.61517564E-05
  -7.35000009E-03  -1.64453377E-05
  -7.30000017E-03  -1.67436228E-05
  -7.24999979E-03  -1.70466737E-05
  -7.19999988E-03  -1.73545632E-05
  -7.14999996E-03  -1.76673566E-05
  -7.10000005E-03  -1.79851286E-05
  -7.05000013E-03  -1.83079501E-05
  -7.00000022E-03  -1.86358830E-05
  -6.94999984E-03  -1.89689927E-05
  -6.89999992E-03  -1.93073520E-05
  -6.85000001E-03  -1.96510482E-05
  -6.80000009E-03  -2.00001650E-05
  -6.75000018E-03  -2.03547806E-05
  -6.69999979E-03  -2.07149606E-05
  -6.64999988E-03  -2.10807611E-05
  -6.59999996E-03  -2.14522497E-05
  -6.55000005E-03  -2.18294990E-05
  -6.50000013E-03  -2.22125764E-05
  -6.45000022E-03  -2.26015545E-05
  -6.39999984E-03  -2.29965081E-05
  -6.34999992E-03  -2.33975097E-05
  -6.30000001E-03  -2.38046468E-05
  -6.25000009E-03  -2.42179922E-05
  -6.20000018E-03  -2.46376039E-05
  -6.14999980E-03  -2.50635367E-05
  -6.09999988E-03  -2.54958559E-05
  -6.04999997E-03  -2.59346307E-05
  -6.00000005E-03  -2.63799466E-05
  -5.95000014E-03  -2.68318927E-05
  -5.90000022E-03  -2.72905636E-05
  -5.84999984E-03  -2.77560484E-05
  -5.79999993E-03  -2.82284345E-05
  -5.75000001E-03  -2.87077983E-05
  -5.70000010E-03  -2.91942069E-05
  -5.65000018E-03  -2.96877206E-05
  -5.59999980E-03  -3.01884065E-05
  -5.54999989E-03  -3.06963630E-05
  -5.49999997E-03  -3.12116608E-05
  -5.45000006E-03  -3.17344056E-05
  -5.40000014E-03  -3.22646738E-05
  -5.35000023E-03  -3.28025490E-05
  -5.29999984E-03  -3.33481148E-05
  -5.24999993E-03  -3.39014441E-05
  -5.20000001E-03  -3.44625914E-05
  -5.15000010E-03  -3.50316150E-05
  -5.10000018E-03  -3.56085839E-05
  -5.04999980E-03  -3.61935890E-05
  -4.99999989E-03  -3.67867287E-05
  -4.94999997E-03  -3.73881157E-05
  -4.90000006E-03  -3.79978192E-05
  -4.85000014E-03  -3.86159300E-05
  -4.80000023E-03  -3.92425100E-05
  -4.74999985E-03  -3.98776392E-05
  -4.69999993E-03  -4.05213941E-05
  -4.65000002E-03  -4.11738838E-05
  -4.60000010E-03  -4.18351992E-05
  -4.55000019E-03  -4.25054313E-05
  -4.49999981E-03  -4.31846893E-05
  -4.44999989E-03  -4.38730749E-05
  -4.39999998E-03  -4.45706937E-05
  -4.35000006E-03  -4.52776039E-05
  -4.30000015E-03  -4.59938528E-05
  -4.25000023E-03  -4.67194986E-05
  -4.19999985E-03  -4.74546177E-05
  -4.14999994E-03  -4.81993229E-05
  -4.10000002E-03  -4.89537197E-05
  -4.05000011E-03  -4.97179099E-05
  -4.00000019E-03  -5.04919808E-05
  -3.94999981E-03  -5.12760234E-05
  -3.89999989E-03  -5.20701142E-05
  -3.84999998E-03  -5.28743512E-05
  -3.80000006E-03  -5.36887892E-05
  -3.74999992E-03  -5.45135008E-05
  -3.70000000E-03  -5.53485734E-05
  -3.65000009E-03  -5.61941233E-05
  -3.59999994E-03  -5.70502962E-05
  -3.55000002E-03  -5.79172083E-05
  -3.50000011E-03  -5.87949326E-05
  -3.44999996E-03  -5.96835380E-05
  -3.40000005E-03  -6.05830828E-05
  -3.34999990E-03  -6.14936653E-05
  -3.29999998E-03  -6.24153836E-05
  -3.25000007E-03  -6.33482850E-05
  -3.19999992E-03  -6.42924570E-05
  -3.15000000E-03  -6.52480303E-05
  -3.10000009E-03  -6.62151360E-05
  -3.04999994E-03  -6.71938615E-05
  -3.00000003E-03  -6.81842721E-05
  -2.95000011E-03  -6.91864116E-05
  -2.89999996E-03  -7.02003381E-05
  -2.85000005E-03  -7.12261462E-05
  -2.79999990E-03  -7.22639161E-05
  -2.74999999E-03  -7.33137640E-05
  -2.70000007E-03  -7.43758137E-05
  -2.64999992E-03  -7.54501380E-05
  -2.60000001E-03  -7.65368532E-05
  -2.55000009E-03  -7.76360394E-05
  -2.49999994E-03  -7.87477547E-05
  -2.45000003E-03  -7.98720357E-05
  -2.40000011E-03  -8.10089041E-05
  -2.34999997E-03  -8.21584617E-05
  -2.30000005E-03  -8.33208396E-05
  -2.24999990E-03  -8.44961396E-05
  -2.19999999E-03  -8.56844781E-05
  -2.15000007E-03  -8.68859424E-05
  -2.09999993E-03  -8.81006054E-05
  -2.05000001E-03  -8.93285323E-05
  -2.00000009E-03  -9.05697962E-05
  -1.94999995E-03  -9.18243895E-05
  -1.90000003E-03  -9.30923779E-05
  -1.85000000E-03  -9.43738196E-05
  -1.79999997E-03  -9.56688527E-05
  -1.75000005E-03  -9.69775792E-05
  -1.70000002E-03  -9.83000791E-05
  -1.64999999E-03  -9.96363960E-05
  -1.59999996E-03  -1.00986552E-04
  -1.55000004E-03  -1.02350554E-04
  -1.50000001E-03  -1.03728467E-04
  -1.44999998E-03  -1.05120336E-04
  -1.39999995E-03  -1.06526226E-04
  -1.35000004E-03  -1.07946216E-04
  -1.30000000E-03  -1.09380439E-04
  -1.24999997E-03  -1.10828951E-04
  -1.20000006E-03  -1.12291811E-04
  -1.15000003E-03  -1.13769056E-04
  -1.09999999E-03  -1.15260707E-04
  -1.04999996E-03  -1.16766772E-04
  -1.00000005E-03  -1.18287273E-04
  -9.50000016E-04  -1.19822245E-04
  -8.99999985E-04  -1.21371748E-04
  -8.50000011E-04  -1.22935875E-04
  -7.99999980E-04  -1.24514700E-04
  -7.50000007E-04  -1.26108280E-04
  -6.99999975E-04  -1.27716543E-04
  -6.50000002E-04  -1.29339503E-04
  -6.00000028E-04  -1.30977132E-04
  -5.49999997E-04  -1.32629444E-04
  -5.00000024E-04  -1.34296439E-04
  -4.49999992E-04  -1.35978131E-04
  -3.99999990E-04  -1.37674593E-04
  -3.49999988E-04  -1.39385898E-04
  -3.00000014E-04  -1.41112105E-04
  -2.50000012E-04  -1.42853212E-04
  -1.99999995E-04  -1.44609076E-04
  -1.50000007E-04  -1.46379709E-04
  -9.99999975E-05  -1.48165069E-04
  -4.99999987E-05  -1.49965170E-04
   0.00000000      -1.51780056E-04
   4.99999987E-05  -1.53609712E-04
   9.99999975E-05  -1.55454123E-04
   1.50000007E-04  -1.57313305E-04
   1.99999995E-04  -1.59187213E-04
   2.50000012E-04  -1.61075761E-04
   3.00000014E-04  -1.62978875E-04
   3.49999988E-04  -1.64896453E-04
   3.99999990E-04  -1.66828439E-04
   4.49999992E-04  -1.68774815E-04
   5.00000024E-04  -1.70735526E-04
   5.49999997E-04  -1.72710585E-04
   6.00000028E-04  -1.74699933E-04
   6.50000002E-04  -1.76703514E-04
   6.99999975E-04  -1.78721151E-04
   7.50000007E-04  -1.80752686E-04
   7.99999980E-04  -1.82798074E-04
   8.50000011E-04  -1.84857214E-04
   8.99999985E-04  -1.86930047E-04
   9.50000016E-04  -1.89016442E-04
   1.00000005E-03  -1.91116254E-04
   1.04999996E-03  -1.93229454E-04
   1.09999999E-03  -1.95356028E-04
   1.15000003E-03  -1.97495712E-04
   1.20000006E-03  -1.99648319E-04
   1.24999997E-03  -2.01813527E-04
   1.30000000E-03  -2.03991163E-04
   1.35000004E-03  -2.06181183E-04
   1.39999995E-03  -2.08383572E-04
   1.44999998E-03  -2.10598126E-04
   1.50000001E-03  -2.12824525E-04
   1.55000004E-03  -2.15062479E-04
   1.59999996E-03  -2.17311914E-04
   1.64999999E-03  -2.19572685E-04
   1.70000002E-03  -2.21844559E-04
   1.75000005E-03  -2.24127041E-04
   1.79999997E-03  -2.26419725E-04
   1.85000000E-03  -2.28722580E-04
   1.90000003E-03  -2.31035607E-04
   1.94999995E-03  -2.33358616E-04
   2.00000009E-03  -2.35691041E-04
   2.05000001E-03  -2.38032415E-04
   2.09999993E-03  -2.40382506E-04
   2.15000007E-03  -2.42741240E-04
   2.19999999E-03  -2.45108356E-04
   2.24999990E-03  -2.47483345E-04
   2.30000005E-03  -2.49865727E-04
   2.34999997E-03  -2.52255122E-04
   2.40000011E-03  -2.54651473E-04
   2.45000003E-03  -2.57054518E-04
   2.49999994E-03  -2.59463821E-04
   2.55000009E-03  -2.61878595E-04
   2.60000001E-03  -2.64298229E-04
   2.64999992E-03  -2.66722520E-04
   2.70000007E-03  -2.69151380E-04
   2.74999999E-03  -2.71584344E-04
   2.79999990E-03  -2.74020626E-04