  -3.99999991E-02   0.00000000    
  -3.99499983E-02   0.00000000    
  -3.99000011E-02   7.82281878E-12
  -3.98500003E-02   3.77919536E-11
  -3.97999994E-02   8.86409141E-11
  -3.97499986E-02   1.38622447E-10
  -3.97000015E-02   1.76666112E-10
  -3.96500006E-02   2.28134137E-10
  -3.95999998E-02   3.26285693E-10
  -3.95499989E-02   4.54151217E-10
  -3.95000018E-02   5.39658151E-10
  -3.94500010E-02   5.33134592E-10
  -3.94000001E-02   4.82431040E-10
  -3.93499993E-02   5.00274211E-10
  -3.92999984E-02   6.41855236E-10
  -3.92500013E-02   8.34229463E-10
  -3.92000005E-02   9.53549684E-10
  -3.91499996E-02   9.67088409E-10
  -3.90999988E-02   9.65405533E-10
  -3.90500017E-02   1.03731290E-09
  -3.90000008E-02   1.14148813E-09
  -3.89500000E-02   1.14556531E-09
  -3.88999991E-02   9.96333238E-10
  -3.88499983E-02   8.05886691E-10
  -3.88000011E-02   7.27126359E-10
  -3.87500003E-02   7.57008900E-10
  -3.86999995E-02   7.16362414E-10
  -3.86499986E-02   4.52020643E-10
  -3.86000015E-02   2.55636068E-11
  -3.85500006E-02  -3.50749846E-10
  -3.84999998E-02  -5.69372771E-10
  -3.84499989E-02  -7.68285213E-10
  -3.84000018E-02  -1.17654697E-09
  -3.83500010E-02  -1.84206816E-09
  -3.83000001E-02  -2.57156474E-09
  -3.82499993E-02  -3.15915294E-09
  -3.81999984E-02  -3.62353592E-09
  -3.81500013E-02  -4.15906154E-09
  -3.81000005E-02  -4.86332796E-09
  -3.80499996E-02  -5.59309354E-09
  -3.79999988E-02  -6.14930062E-09
  -3.79500017E-02  -6.57301635E-09
  -3.79000008E-02  -7.16853465E-09
  -3.78500000E-02  -8.18458368E-09
  -3.77999991E-02  -9.51037826E-09
  -3.77499983E-02  -1.07532019E-08
  -3.77000012E-02  -1.16258647E-08
  -3.76500003E-02  -1.22066686E-08
  -3.75999995E-02  -1.27872859E-08
  -3.75499986E-02  -1.35134250E-08
  -3.75000015E-02  -1.42544963E-08
  -3.74500006E-02  -1.48324526E-08
  -3.73999998E-02  -1.52810973E-08
  -3.73499990E-02  -1.57730380E-08
  -3.73000018E-02  -1.62919367E-08
  -3.72500010E-02  -1.64910912E-08
  -3.72000001E-02  -1.59911426E-08
  -3.71499993E-02  -1.48323842E-08
  -3.70999984E-02  -1.35618068E-08
  -3.70500013E-02  -1.28101689E-08
  -3.70000005E-02  -1.27765150E-08
  -3.69499996E-02  -1.31298448E-08
  -3.68999988E-02  -1.33601974E-08
  -3.68500017E-02  -1.31387221E-08
  -3.68000008E-02  -1.23272548E-08
  -3.67500000E-02  -1.07742970E-08
  -3.66999991E-02  -8.30475599E-09
  -3.66499983E-02  -5.01231590E-09
  -3.66000012E-02  -1.48016643E-09
  -3.65500003E-02   1.47413382E-09
  -3.64999995E-02   3.41799922E-09
  -3.64499986E-02   4.70683714E-09
  -3.64000015E-02   6.24421448E-09
  -3.63500006E-02   8.80713635E-09
  -3.62999998E-02   1.25556197E-08
  -3.62499990E-02   1.70937913E-08
  -3.62000018E-02   2.18605969E-08
  -3.61500010E-02   2.63855746E-08
  -3.61000001E-02   3.02722505E-08
  -3.60499993E-02   3.31930678E-08
  -3.59999985E-02   3.51362495E-08
  -3.59500013E-02   3.66970667E-08
  -3.59000005E-02   3.89540560E-08
  -3.58499996E-02   4.28090985E-08
  -3.57999988E-02   4.82703868E-08
  -3.57500017E-02   5.43273302E-08
  -3.57000008E-02   5.95687624E-08
  -3.56500000E-02   6.30352304E-08
  -3.55999991E-02   6.46543228E-08
  -3.55499983E-02   6.50771312E-08
  -3.55000012E-02   6.52519176E-08
  -3.54500003E-02   6.61040076E-08
  -3.53999995E-02   6.83295198E-08
  -3.53499986E-02   7.21029565E-08
  -3.53000015E-02   7.67339685E-08
  -3.52500007E-02   8.06608327E-08
  -3.51999998E-02   8.20890804E-08
  -3.51499990E-02   8.00248046E-08
  -3.51000018E-02   7.49713536E-08
  -3.50500010E-02   6.87126374E-08
  -3.50000001E-02   6.33102317E-08
  -3.49499993E-02   6.00294854E-08
  -3.48999985E-02   5.88493059E-08
  -3.48500013E-02   5.86526809E-08
  -3.48000005E-02   5.77528425E-08
  -3.47499996E-02   5.44473409E-08
  -3.46999988E-02   4.75701931E-08
  -3.46500017E-02   3.70542352E-08
  -3.46000008E-02   2.42414728E-08
  -3.45500000E-02   1.15155805E-08
  -3.44999991E-02   1.17151433E-09
  -3.44499983E-02  -5.90092109E-09
  -3.44000012E-02  -1.08191394E-08
  -3.43500003E-02  -1.61240035E-08
  -3.42999995E-02  -2.43958507E-08
  -3.42499986E-02  -3.69832733E-08
  -3.42000015E-02  -5.35281188E-08
  -3.41500007E-02  -7.23031164E-08
  -3.40999998E-02  -9.09476654E-08
  -3.40499990E-02  -1.07271291E-07
  -3.40000018E-02  -1.20043239E-07
  -3.39500010E-02  -1.29644832E-07
  -3.39000002E-02  -1.38179132E-07
  -3.38499993E-02  -1.48632623E-07
  -3.37999985E-02  -1.63264417E-07
  -3.37500013E-02  -1.82143282E-07
  -3.37000005E-02  -2.02877303E-07
  -3.36499996E-02  -2.21809529E-07
  -3.35999988E-02  -2.35902505E-07
  -3.35500017E-02  -2.44127847E-07
  -3.35000008E-02  -2.47709039E-07
  -3.34500000E-02  -2.49415052E-07
  -3.33999991E-02  -2.52468737E-07
  -3.33499983E-02  -2.59410342E-07
  -3.33000012E-02  -2.71024390E-07
  -3.32500003E-02  -2.85628829E-07
  -3.31999995E-02  -2.99328917E-07
  -3.31499986E-02  -3.07582496E-07
  -3.31000015E-02  -3.07481571E-07
  -3.30500007E-02  -2.99357993E-07
  -3.29999998E-02  -2.86581923E-07
  -3.29499990E-02  -2.73668689E-07
  -3.29000019E-02  -2.63978166E-07
  -3.28500010E-02  -2.58346574E-07
  -3.28000002E-02  -2.55066851E-07
  -3.27499993E-02  -2.50760110E-07
  -3.26999985E-02  -2.41585298E-07
  -3.26500013E-02  -2.24609664E-07
  -3.26000005E-02  -1.99193551E-07
  -3.25499997E-02  -1.67761840E-07
  -3.24999988E-02  -1.35106220E-07
  -3.24500017E-02  -1.06102121E-07
  -3.24000008E-02  -8.30360420E-08
  -3.23500000E-02  -6.43220091E-08
  -3.22999991E-02  -4.54921896E-08
  -3.22499983E-02  -2.16945111E-08
  -3.22000012E-02   9.98493022E-09
  -3.21500003E-02   4.95339485E-08
  -3.20999995E-02   9.43284491E-08
  -3.20499986E-02   1.40125877E-07
  -3.20000015E-02   1.82416258E-07
  -3.19500007E-02   2.18129543E-07
  -3.18999998E-02   2.47288796E-07
  -3.18499990E-02   2.73512001E-07
  -3.18000019E-02   3.02465253E-07
  -3.17500010E-02   3.38764522E-07
  -3.17000002E-02   3.83228070E-07
  -3.16499993E-02   4.32333536E-07
  -3.15999985E-02   4.80125038E-07
  -3.15500014E-02   5.21112497E-07
  -3.15000005E-02   5.52403776E-07
  -3.14499997E-02   5.74376827E-07
  -3.13999988E-02   5.90269053E-07
  -3.13500017E-02   6.05110472E-07
  -3.13000008E-02   6.23969868E-07
  -3.12500000E-02   6.49622166E-07
  -3.11999992E-02   6.80646053E-07
  -3.11500002E-02   7.11471159E-07
  -3.10999993E-02   7.34925095E-07
  -3.10500003E-02   7.45943282E-07
  -3.09999995E-02   7.44069439E-07
  -3.09500005E-02   7.33244633E-07
  -3.08999997E-02   7.19413606E-07
  -3.08500007E-02   7.07737172E-07
  -3.07999998E-02   7.00771466E-07
  -3.07500008E-02   6.97809867E-07
  -3.07000000E-02   6.95057167E-07
  -3.06499992E-02   6.86691010E-07
  -3.06000002E-02   6.67068832E-07
  -3.05499993E-02   6.33538889E-07
  -3.05000003E-02   5.88224566E-07
  -3.04499995E-02   5.37218966E-07
  -3.04000005E-02   4.87330965E-07
  -3.03499997E-02   4.42432764E-07
  -3.03000007E-02   4.01743563E-07
  -3.02499998E-02   3.60799447E-07
  -3.02000009E-02   3.13978461E-07
  -3.01500000E-02   2.56920913E-07
  -3.00999992E-02   1.88036978E-07
  -3.00500002E-02   1.09166585E-07
  -2.99999993E-02   2.53746926E-08
  -2.99500003E-02  -5.65537022E-08
  -2.98999995E-02  -1.30982187E-07
  -2.98500005E-02  -1.96444176E-07
  -2.97999997E-02  -2.56789320E-07
  -2.97500007E-02  -3.19315262E-07
  -2.96999998E-02  -3.90862823E-07
  -2.96500009E-02  -4.74329511E-07
  -2.96000000E-02  -5.67557663E-07
  -2.95499992E-02  -6.64711081E-07
  -2.95000002E-02  -7.58805982E-07
  -2.94499993E-02  -8.44097883E-07
  -2.94000003E-02  -9.17860405E-07
  -2.93499995E-02  -9.81422545E-07
  -2.93000005E-02  -1.03995933E-06
  -2.92499997E-02  -1.10042720E-06
  -2.92000007E-02  -1.16805279E-06
  -2.91499998E-02  -1.24319718E-06
  -2.91000009E-02  -1.32072012E-06
  -2.90500000E-02  -1.39244969E-06
  -2.89999992E-02  -1.45120612E-06
  -2.89500002E-02  -1.49391758E-06
  -2.88999993E-02  -1.52234054E-06
  -2.88500004E-02  -1.54166571E-06
  -2.87999995E-02  -1.55819760E-06
  -2.87500005E-02  -1.57702618E-06
  -2.86999997E-02  -1.60004231E-06
  -2.86500007E-02  -1.62471736E-06
  -2.85999998E-02  -1.64454025E-06
  -2.85500009E-02  -1.65160930E-06
  -2.85000000E-02  -1.64048572E-06
  -2.84499992E-02  -1.61110938E-06
  -2.84000002E-02  -1.56879753E-06
  -2.83499993E-02  -1.52126813E-06
  -2.83000004E-02  -1.47462333E-06
  -2.82499995E-02  -1.43065995E-06
  -2.82000005E-02  -1.38658356E-06
  -2.81499997E-02  -1.33659512E-06
  -2.81000007E-02  -1.27425869E-06
  -2.80499998E-02  -1.19494416E-06
  -2.80000009E-02  -1.09793700E-06
  -2.79500000E-02  -9.87504905E-07
  -2.78999992E-02  -8.71853445E-07
  -2.78500002E-02  -7.59702118E-07
  -2.77999993E-02  -6.55973906E-07
  -2.77500004E-02  -5.59170189E-07
  -2.76999995E-02  -4.62236954E-07
  -2.76500005E-02  -3.56400648E-07
  -2.75999997E-02  -2.35563007E-07
  -2.75500007E-02  -9.89106610E-08
  -2.74999999E-02   4.90432939E-08
  -2.74500009E-02   2.00279885E-07
  -2.74000000E-02   3.45948166E-07
  -2.73499992E-02   4.79325422E-07
  -2.73000002E-02   5.98510610E-07
  -2.72499993E-02   7.07632466E-07
  -2.72000004E-02   8.15243368E-07
  -2.71499995E-02   9.30009151E-07
  -2.71000005E-02   1.05584775E-06
  -2.70499997E-02   1.18950675E-06
  -2.70000007E-02   1.32215803E-06
  -2.69499999E-02   1.44379294E-06
  -2.69000009E-02   1.54758186E-06
  -2.68500000E-02   1.63205459E-06
  -2.67999992E-02   1.70080204E-06
  -2.67500002E-02   1.76062792E-06
  -2.66999993E-02   1.81887037E-06
  -2.66500004E-02   1.88020215E-06
  -2.65999995E-02   1.94377276E-06
  -2.65500005E-02   2.00241971E-06
  -2.64999997E-02   2.04533899E-06
  -2.64500007E-02   2.06340542E-06
  -2.63999999E-02   2.05405240E-06
  -2.63500009E-02   2.02251294E-06
  -2.63000000E-02   1.97871964E-06
  -2.62499992E-02   1.93208552E-06
  -2.62000002E-02   1.88729973E-06
  -2.61499994E-02   1.84286637E-06
  -2.61000004E-02   1.79200322E-06
  -2.60499995E-02   1.72497664E-06
  -2.60000005E-02   1.63251650E-06
  -2.59499997E-02   1.50979463E-06
  -2.59000007E-02   1.35945061E-06
  -2.58499999E-02   1.19133915E-06
  -2.58000009E-02   1.01802880E-06
  -2.57500000E-02   8.48169805E-07
  -2.56999992E-02   6.81904226E-07
  -2.56500002E-02   5.11132839E-07
  -2.55999994E-02   3.24108413E-07
  -2.55500004E-02   1.11220217E-07
  -2.54999995E-02  -1.31148369E-07
  -2.54500005E-02  -3.99556768E-07
  -2.53999997E-02  -6.84714905E-07
  -2.53500007E-02  -9.74408181E-07
  -2.52999999E-02  -1.25795123E-06
  -2.52500009E-02  -1.53109909E-06
  -2.52000000E-02  -1.79879135E-06
  -2.51499992E-02  -2.07326320E-06
  -2.51000002E-02  -2.36769756E-06
  -2.50499994E-02  -2.68903091E-06
  -2.50000004E-02  -3.03442380E-06
  -2.49499995E-02  -3.39321582E-06
  -2.49000005E-02  -3.75252307E-06
  -2.48499997E-02  -4.10282792E-06
  -2.48000007E-02  -4.44111856E-06
  -2.47499999E-02  -4.77139656E-06
  -2.47000009E-02  -5.10302743E-06
  -2.46500000E-02  -5.44706427E-06
  -2.45999992E-02  -5.81101858E-06
  -2.45500002E-02  -6.19397724E-06
  -2.44999994E-02  -6.58549288E-06
  -2.44500004E-02  -6.97002724E-06
  -2.43999995E-02  -7.33478419E-06
  -2.43500005E-02  -7.67643542E-06
  -2.42999997E-02  -8.00240105E-06
  -2.42500007E-02  -8.32644946E-06
  -2.41999999E-02  -8.66189748E-06
  -2.41500009E-02  -9.01601015E-06
  -2.41000000E-02  -9.38751145E-06
  -2.40499992E-02  -9.76692263E-06
  -2.40000002E-02  -1.01395153E-05
  -2.39499994E-02  -1.04908622E-05
  -2.39000004E-02  -1.08135782E-05
  -2.38499995E-02  -1.11116378E-05
  -2.38000005E-02  -1.13991800E-05
  -2.37499997E-02  -1.16936426E-05
  -2.37000007E-02  -1.20067170E-05
  -2.36499999E-02  -1.23387499E-05
  -2.36000009E-02  -1.26792711E-05
  -2.35500000E-02  -1.30126455E-05
  -2.34999992E-02  -1.33254071E-05
  -2.34500002E-02  -1.36118133E-05
  -2.33999994E-02  -1.38757732E-05
  -2.33500004E-02  -1.41294759E-05
  -2.32999995E-02  -1.43890766E-05
  -2.32500006E-02  -1.46677885E-05
  -2.31999997E-02  -1.49694306E-05
  -2.31500007E-02  -1.52857647E-05
  -2.30999999E-02  -1.55999442E-05
  -2.30500009E-02  -1.58953353E-05
  -2.30000000E-02  -1.61643511E-05
  -2.29499992E-02  -1.64120847E-05
  -2.29000002E-02  -1.66535247E-05
  -2.28499994E-02  -1.69062860E-05
  -2.28000004E-02  -1.71828324E-05
  -2.27499995E-02  -1.74861179E-05
  -2.27000006E-02  -1.78087503E-05
  -2.26499997E-02  -1.81357755E-05
  -2.26000007E-02  -1.84508317E-05
  -2.25499999E-02  -1.87440182E-05
  -2.25000009E-02  -1.90177270E-05
  -2.24500000E-02  -1.92865555E-05
  -2.23999992E-02  -1.95711473E-05
  -2.23500002E-02  -1.98876169E-05
  -2.22999994E-02  -2.02392876E-05
  -2.22500004E-02  -2.06157383E-05
  -2.21999995E-02  -2.09987156E-05
  -2.21500006E-02  -2.13706935E-05
  -2.20999997E-02  -2.17222278E-05
  -2.20500007E-02  -2.20558795E-05
  -2.19999999E-02  -2.23853240E-05
  -2.19500009E-02  -2.27305318E-05
  -2.19000001E-02  -2.31103495E-05
  -2.18499992E-02  -2.35334719E-05
  -2.18000002E-02  -2.39932378E-05
  -2.17499994E-02  -2.44705116E-05
  -2.17000004E-02  -2.49429922E-05
  -2.16499995E-02  -2.53960607E-05
  -2.16000006E-02  -2.58297914E-05
  -2.15499997E-02  -2.62579142E-05
  -2.15000007E-02  -2.67003816E-05
  -2.14499999E-02  -2.71743811E-05
  -2.14000009E-02  -2.76873288E-05
  -2.13500001E-02  -2.82344936E-05
  -2.12999992E-02  -2.88008105E-05
  -2.12500002E-02  -2.93674675E-05
  -2.11999994E-02  -2.99202802E-05
  -2.11500004E-02  -3.04570840E-05
  -2.10999995E-02  -3.09904099E-05
  -2.10500006E-02  -3.15425641E-05
  -2.09999997E-02  -3.21347252E-05
  -2.09500007E-02  -3.27759481E-05
  -2.08999999E-02  -3.34587894E-05
  -2.08500009E-02  -3.41638297E-05
  -2.08000001E-02  -3.48697213E-05
  -2.07499992E-02  -3.55623160E-05
  -2.07000002E-02  -3.62399296E-05
  -2.06499994E-02  -3.69145200E-05
  -2.06000004E-02  -3.76076314E-05
  -2.05499995E-02  -3.83417173E-05
  -2.05000006E-02  -3.91312096E-05
  -2.04499997E-02  -3.99749515E-05
  -2.04000007E-02  -4.08564083E-05
  -2.03499999E-02  -4.17518349E-05
  -2.03000009E-02  -4.26428342E-05
  -2.02500001E-02  -4.35265974E-05
  -2.01999992E-02  -4.44167126E-05
  -2.01500002E-02  -4.53368702E-05
  -2.00999994E-02  -4.63107026E-05
  -2.00500004E-02  -4.73524378E-05
  -1.99999996E-02  -4.84614429E-05
  -1.99500006E-02  -4.96237262E-05
  -1.98999997E-02  -5.08187222E-05
  -1.98500007E-02  -5.20277245E-05
  -1.97999999E-02  -5.32431404E-05
  -1.97500009E-02  -5.44742579E-05
  -1.97000001E-02  -5.57454114E-05
  -1.96499992E-02  -5.70854063E-05
  -1.96000002E-02  -5.85142625E-05
  -1.95499994E-02  -6.00346175E-05
  -1.95000004E-02  -6.16322723E-05
  -1.94499996E-02  -6.32860683E-05
  -1.94000006E-02  -6.49787326E-05
  -1.93499997E-02  -6.67053901E-05
  -1.93000007E-02  -6.84750921E-05
  -1.92499999E-02  -7.03077676E-05
  -1.92000009E-02  -7.22284676E-05
  -1.91500001E-02  -7.42574412E-05
  -1.90999992E-02  -7.64022843E-05
  -1.90500002E-02  -7.86531236E-05
  -1.89999994E-02  -8.09866469E-05
  -1.89500004E-02  -8.33816521E-05
  -1.88999996E-02  -8.58318745E-05
  -1.88500006E-02  -8.83492830E-05
  -1.87999997E-02  -9.09588998E-05
  -1.87500007E-02  -9.36891302E-05
  -1.86999999E-02  -9.65606814E-05
  -1.86500009E-02  -9.95792652E-05
  -1.86000001E-02  -1.02734586E-04
  -1.85499992E-02  -1.06006235E-04
  -1.85000002E-02  -1.09373133E-04
  -1.84499994E-02  -1.12821181E-04
  -1.84000004E-02  -1.16351810E-04
  -1.83499996E-02  -1.19985962E-04
  -1.83000006E-02  -1.23757432E-04
  -1.82499997E-02  -1.27695181E-04
  -1.82000007E-02  -1.31808250E-04
  -1.81499999E-02  -1.36085873E-04
  -1.81000009E-02  -1.40506643E-04
  -1.80500001E-02  -1.45050290E-04
  -1.79999992E-02  -1.49705695E-04
  -1.79500002E-02  -1.54475099E-04
  -1.78999994E-02  -1.59373012E-04
  -1.78500004E-02  -1.64423676E-04
  -1.77999996E-02  -1.69651990E-04
  -1.77500006E-02  -1.75070818E-04
  -1.76999997E-02  -1.80676085E-04
  -1.76500008E-02  -1.86446239E-04
  -1.75999999E-02  -1.92352294E-04
  -1.75500009E-02  -1.98376161E-04
  -1.75000001E-02  -2.04521595E-04
  -1.74499992E-02  -2.10810467E-04
  -1.74000002E-02  -2.17271561E-04
  -1.73499994E-02  -2.23924959E-04
  -1.73000004E-02  -2.30776568E-04
  -1.72499996E-02  -2.37823930E-04
  -1.72000006E-02  -2.45053641E-04
  -1.71499997E-02  -2.52442900E-04
  -1.71000008E-02  -2.59969936E-04
  -1.70499999E-02  -2.67622381E-04
  -1.70000009E-02  -2.75413884E-04
  -1.69500001E-02  -2.83379399E-04
  -1.68999992E-02  -2.91547069E-04
  -1.68500002E-02  -2.99924199E-04
  -1.67999994E-02  -3.08501563E-04
  -1.67500004E-02  -3.17258586E-04
  -1.66999996E-02  -3.26170208E-04
  -1.66500006E-02  -3.35221557E-04
  -1.65999997E-02  -3.44412751E-04
  -1.65500008E-02  -3.53753217E-04
  -1.64999999E-02  -3.63262778E-04
  -1.64500009E-02  -3.72969866E-04
  -1.64000001E-02  -3.82898317E-04
  -1.63499992E-02  -3.93054419E-04
  -1.63000003E-02  -4.03415441E-04
  -1.62499994E-02  -4.13942558E-04
  -1.62000004E-02  -4.24611324E-04
  -1.61499996E-02  -4.35426075E-04
  -1.61000006E-02  -4.46404272E-04
  -1.60499997E-02  -4.57561895E-04
  -1.60000008E-02  -4.68913757E-04
  -1.59499999E-02  -4.80477349E-04
  -1.59000009E-02  -4.92265797E-04
  -1.58500001E-02  -5.04269963E-04
  -1.57999992E-02  -5.16467029E-04
  -1.57500003E-02  -5.28834586E-04
  -1.56999994E-02  -5.41359535E-04
  -1.56500004E-02  -5.54053637E-04
  -1.55999996E-02  -5.66950010E-04
  -1.55499997E-02  -5.80079271E-04
  -1.54999997E-02  -5.93455392E-04
  -1.54499998E-02  -6.07075344E-04
  -1.53999999E-02  -6.20924809E-04
  -1.53500000E-02  -6.34980970E-04
  -1.53000001E-02  -6.49227470E-04
  -1.52500002E-02  -6.63663144E-04
  -1.52000003E-02  -6.78297540E-04
  -1.51500003E-02  -6.93151262E-04
  -1.51000004E-02  -7.08252133E-04
  -1.50499996E-02  -7.23631470E-04
  -1.49999997E-02  -7.39298412E-04
  -1.49499997E-02  -7.55233341E-04
  -1.48999998E-02  -7.71417283E-04
  -1.48499999E-02  -7.87833531E-04
  -1.48000000E-02  -8.04478594E-04
  -1.47500001E-02  -8.21364578E-04
  -1.47000002E-02  -8.38517561E-04
  -1.46500003E-02  -8.55962920E-04
  -1.46000003E-02  -8.73707933E-04
  -1.45500004E-02  -8.91768257E-04
  -1.44999996E-02  -9.10151633E-04
  -1.44499997E-02  -9.28839145E-04
  -1.43999998E-02  -9.47801047E-04
  -1.43499998E-02  -9.67033382E-04
  -1.42999999E-02  -9.86561878E-04
  -1.42500000E-02  -1.00641302E-03
  -1.42000001E-02  -1.02660700E-03
  -1.41500002E-02  -1.04715803E-03
  -1.41000003E-02  -1.06808695E-03
  -1.40500003E-02  -1.08940480E-03
  -1.40000004E-02  -1.11109158E-03
  -1.39499996E-02  -1.13311596E-03
  -1.38999997E-02  -1.15546759E-03
  -1.38499998E-02  -1.17817696E-03
  -1.37999998E-02  -1.20127574E-03
  -1.37499999E-02  -1.22477720E-03
  -1.37000000E-02  -1.24870462E-03
  -1.36500001E-02  -1.27306290E-03
  -1.36000002E-02  -1.29785400E-03
  -1.35500003E-02  -1.32308900E-03
  -1.35000004E-02  -1.34874485E-03
  -1.34500004E-02  -1.37479615E-03
  -1.33999996E-02  -1.40126108E-03
  -1.33499997E-02  -1.42819225E-03
  -1.32999998E-02  -1.45563087E-03
  -1.32499998E-02  -1.48358266E-03
  -1.31999999E-02  -1.51203922E-03
  -1.31500000E-02  -1.54100929E-03
  -1.31000001E-02  -1.57049578E-03
  -1.30500002E-02  -1.60048448E-03
  -1.30000003E-02  -1.63096283E-03
  -1.29500004E-02  -1.66191754E-03
  -1.29000004E-02  -1.69336796E-03
  -1.28499996E-02  -1.72538776E-03
  -1.27999997E-02  -1.75803667E-03
  -1.27499998E-02  -1.79129071E-03
  -1.26999998E-02  -1.82511879E-03
  -1.26499999E-02  -1.85953570E-03
  -1.26000000E-02  -1.89456926E-03
  -1.25500001E-02  -1.93024473E-03
  -1.25000002E-02  -1.96653837E-03
  -1.24500003E-02  -2.00342247E-03
  -1.24000004E-02  -2.04094010E-03
  -1.23500004E-02  -2.07916624E-03
  -1.22999996E-02  -2.11811275E-03
  -1.22499997E-02  -2.15773517E-03
  -1.21999998E-02  -2.19799788E-03
  -1.21499998E-02  -2.23889784E-03
  -1.20999999E-02  -2.28050258E-03
  -1.20500000E-02  -2.32285354E-03
  -1.20000001E-02  -2.36591278E-03
  -1.19500002E-02  -2.40970636E-03
  -1.19000003E-02  -2.45433697E-03
  -1.18500004E-02  -2.49985838E-03
  -1.18000004E-02  -2.54626106E-03
  -1.17499996E-02  -2.59349192E-03
  -1.16999997E-02  -2.64149299E-03
  -1.16499998E-02  -2.69028242E-03
  -1.15999999E-02  -2.73991050E-03
  -1.15499999E-02  -2.79040122E-03
  -1.15000000E-02  -2.84175063E-03
  -1.14500001E-02  -2.89392821E-03
  -1.14000002E-02  -2.94695306E-03
  -1.13500003E-02  -3.00088385E-03
  -1.13000004E-02  -3.05572618E-03
  -1.12500004E-02  -3.11146327E-03
  -1.11999996E-02  -3.16812401E-03
  -1.11499997E-02  -3.22578149E-03
  -1.10999998E-02  -3.28450603E-03
  -1.10499999E-02  -3.34431790E-03
  -1.09999999E-02  -3.40519636E-03
  -1.09500000E-02  -3.46720056E-03
  -1.09000001E-02  -3.53038847E-03
  -1.08500002E-02  -3.59471841E-03
  -1.08000003E-02  -3.66009702E-03
  -1.07500004E-02  -3.72644025E-03
  -1.07000005E-02  -3.79374204E-03
  -1.06499996E-02  -3.86209111E-03
  -1.05999997E-02  -3.93154752E-03
  -1.05499998E-02  -4.00213851E-03
  -1.04999999E-02  -4.07386478E-03
  -1.04499999E-02  -4.14669234E-03
  -1.04000000E-02  -4.22065565E-03
  -1.03500001E-02  -4.29583481E-03
  -1.03000002E-02  -4.37229592E-03
  -1.02500003E-02  -4.44998918E-03
  -1.02000004E-02  -4.52886941E-03
  -1.01500005E-02  -4.60903719E-03
  -1.00999996E-02  -4.69061360E-03
  -1.00499997E-02  -4.77364147E-03
  -9.99999978E-03  -4.85806586E-03
  -9.94999986E-03  -4.94375313E-03
  -9.89999995E-03  -5.03072934E-03
  -9.85000003E-03  -5.11910487E-03
  -9.80000012E-03  -5.20887133E-03
  -9.75000020E-03  -5.29994350E-03
  -9.70000029E-03  -5.39230183E-03
  -9.65000037E-03  -5.48606180E-03
  -9.60000046E-03  -5.58129139E-03
  -9.54999961E-03  -5.67795895E-03
  -9.49999969E-03  -5.77603886E-03
  -9.44999978E-03  -5.87548967E-03
  -9.39999986E-03  -5.97619172E-03
  -9.34999995E-03  -6.07817341E-03
  -9.30000003E-03  -6.18163636E-03
  -9.25000012E-03  -6.28669281E-03
  -9.20000020E-03  -6.39332505E-03
  -9.15000029E-03  -6.50139712E-03
  -9.10000037E-03  -6.61093835E-03
  -9.05000046E-03  -6.72215456E-03
  -8.99999961E-03  -6.83518779E-03
  -8.94999970E-03  -6.94979634E-03
  -8.89999978E-03  -7.06573017E-03
  -8.84999987E-03  -7.18322024E-03
  -8.79999995E-03  -7.30250450E-03
  -8.75000004E-03  -7.42358947E-03
  -8.70000012E-03  -7.54626701E-03
  -8.65000021E-03  -7.67046539E-03
  -8.60000029E-03  -7.79638486E-03
  -8.55000038E-03  -7.92405196E-03
  -8.50000046E-03  -8.05324409E-03
  -8.44999962E-03  -8.18387792E-03
  -8.39999970E-03  -8.31607543E-03
  -8.34999979E-03  -8.45000520E-03
  -8.29999987E-03  -8.58571753E-03
  -8.24999996E-03  -8.72307736E-03
  -8.20000004E-03  -8.86203349E-03
  -8.15000013E-03  -9.00268275E-03
  -8.10000021E-03  -9.14517604E-03
  -8.05000030E-03  -9.28957760E-03
  -8.00000038E-03  -9.43572354E-03
  -7.95000046E-03  -9.58337914E-03
  -7.89999962E-03  -9.73258819E-03
  -7.84999970E-03  -9.88367666E-03
  -7.79999979E-03  -1.00369155E-02
  -7.74999987E-03  -1.01922499E-02
  -7.69999996E-03  -1.03493212E-02
  -7.65000004E-03  -1.05078844E-02
  -7.60000013E-03  -1.06681352E-02
  -7.55000021E-03  -1.08304517E-02
  -7.49999983E-03  -1.09949550E-02
  -7.44999992E-03  -1.11612687E-02
  -7.40000000E-03  -1.13290716E-02
  -7.35000009E-03  -1.14986263E-02
  -7.30000017E-03  -1.16704125E-02
  -7.24999979E-03  -1.18445046E-02
  -7.19999988E-03  -1.20205227E-02
  -7.14999996E-03  -1.21981306E-02
  -7.10000005E-03  -1.23772221E-02
  -7.05000013E-03  -1.25581138E-02
  -7.00000022E-03  -1.27412034E-02
  -6.94999984E-03  -1.29265254E-02
  -6.89999992E-03  -1.31137120E-02
  -6.85000001E-03  -1.33023905E-02
  -6.80000009E-03  -1.34927500E-02
  -6.75000018E-03  -1.36854695E-02
  -6.69999979E-03  -1.38807120E-02
  -6.64999988E-03  -1.40778683E-02
  -6.59999996E-03  -1.42763415E-02
  -6.55000005E-03  -1.44764390E-02
  -6.50000013E-03  -1.46789802E-02
  -6.45000022E-03  -1.48842204E-02
  -6.39999984E-03  -1.50917163E-02
  -6.34999992E-03  -1.53010068E-02
  -6.30000001E-03  -1.55121395E-02
  -6.25000009E-03  -1.57252792E-02
  -6.20000018E-03  -1.59406569E-02
  -6.14999980E-03  -1.61582567E-02
  -6.09999988E-03  -1.63776688E-02
  -6.04999997E-03  -1.65986735E-02
  -6.00000005E-03  -1.68215297E-02
  -5.95000014E-03  -1.70465149E-02
  -5.90000022E-03  -1.72737148E-02
  -5.84999984E-03  -1.75030623E-02
  -5.79999993E-03  -1.77342836E-02
  -5.75000001E-03  -1.79671459E-02
  -5.70000010E-03  -1.82018094E-02
  -5.65000018E-03  -1.84384584E-02
  -5.59999980E-03  -1.86771881E-02
  -5.54999989E-03  -1.89180784E-02
  -5.49999997E-03  -1.91611517E-02
  -5.45000006E-03  -1.94064490E-02
  -5.40000014E-03  -1.96537394E-02
  -5.35000023E-03  -1.99029967E-02
  -5.29999984E-03  -2.01543309E-02
  -5.24999993E-03  -2.04079226E-02
  -5.20000001E-03  -2.06634272E-02
  -5.15000010E-03  -2.09201742E-02
  -5.10000018E-03  -2.11786926E-02
  -5.04999980E-03  -2.14397609E-02
  -4.99999989E-03  -2.17032451E-02
  -4.94999997E-03  -2.19683871E-02
  -4.90000006E-03  -2.22346615E-02
  -4.85000014E-03  -2.25023776E-02
  -4.80000023E-03  -2.27720421E-02
  -4.74999985E-03  -2.30436325E-02
  -4.69999993E-03  -2.33167578E-02
  -4.65000002E-03  -2.35910192E-02
  -4.60000010E-03  -2.38665268E-02
  -4.55000019E-03  -2.41441615E-02
  -4.49999981E-03  -2.44244263E-02
  -4.44999989E-03  -2.47067139E-02
  -4.39999998E-03  -2.49901433E-02
  -4.35000006E-03  -2.52746828E-02
  -4.30000015E-03  -2.55608764E-02
  -4.25000023E-03  -2.58489810E-02
  -4.19999985E-03  -2.61386186E-02
  -4.14999994E-03  -2.64295749E-02
  -4.10000002E-03  -2.67221164E-02
  -4.05000011E-03  -2.70162020E-02
  -4.00000019E-03  -2.73118373E-02
  -3.94999981E-03  -2.76086740E-02
  -3.89999989E-03  -2.79060472E-02
  -3.84999998E-03  -2.82039959E-02
  -3.80000006E-03  -2.85030473E-02
  -3.74999992E-03  -2.88033597E-02
  -3.70000000E-03  -2.91051269E-02
  -3.65000009E-03  -2.94079836E-02
  -3.59999994E-03  -2.97113638E-02
  -3.55000002E-03  -3.00154183E-02
  -3.50000011E-03  -3.03204395E-02
  -3.44999996E-03  -3.06265485E-02
  -3.40000005E-03  -3.09332106E-02
  -3.34999990E-03  -3.12401615E-02
  -3.29999998E-03  -3.15473936E-02
  -3.25000007E-03  -3.18548754E-02
  -3.19999992E-03  -3.21633443E-02
  -3.15000000E-03  -3.24729457E-02
  -3.10000009E-03  -3.27828005E-02
  -3.04999994E-03  -3.30921859E-02
  -3.00000003E-03  -3.34011503E-02
  -2.95000011E-03  -3.37102748E-02
  -2.89999996E-03  -3.40198912E-02
  -2.85000005E-03  -3.43294367E-02
  -2.79999990E-03  -3.46381478E-02
  -2.74999999E-03  -3.49464864E-02
  -2.70000007E-03  -3.52552086E-02
  -2.64999992E-03  -3.55637260E-02
  -2.60000001E-03  -3.58713791E-02
  -2.55000009E-03  -3.61778401E-02
  -2.49999994E-03  -3.64827812E-02
  -2.45000003E-03  -3.67864333E-02
  -2.40000011E-03  -3.70893516E-02
  -2.34999997E-03  -3.73918228E-02
  -2.30000005E-03  -3.76931317E-02
  -2.24999990E-03  -3.79926078E-02
  -2.19999999E-03  -3.82902324E-02
  -2.15000007E-03  -3.85862216E-02
  -2.09999993E-03  -3.88810039E-02
  -2.05000001E-03  -3.91739868E-02
  -2.00000009E-03  -3.94642577E-02
  -1.94999995E-03  -3.97520177E-02
  -1.90000003E-03  -4.00378145E-02
  -1.85000000E-03  -4.03218232E-02
  -1.79999997E-03  -4.06035669E-02
  -1.75000005E-03  -4.08830345E-02
  -1.70000002E-03  -4.11599278E-02
  -1.64999999E-03  -4.14328985E-02
  -1.59999996E-03  -4.17017043E-02
  -1.55000004E-03  -4.19669636E-02
  -1.50000001E-03  -4.22294326E-02
  -1.44999998E-03  -4.24891263E-02
  -1.39999995E-03  -4.27443311E-02
  -1.35000004E-03  -4.29944322E-02
  -1.30000000E-03  -4.32401448E-02
  -1.24999997E-03  -4.34819199E-02
  -1.20000006E-03  -4.37203981E-02
  -1.15000003E-03  -4.39542085E-02
  -1.09999999E-03  -4.41801436E-02
  -1.04999996E-03  -4.43983898E-02
  -1.00000005E-03  -4.46131043E-02
  -9.50000016E-04  -4.48263958E-02
  -8.99999985E-04  -4.50355187E-02
  -8.50000011E-04  -4.52361554E-02
  -7.99999980E-04  -4.54267152E-02
  -7.50000007E-04  -4.56107035E-02
  -6.99999975E-04  -4.57914956E-02
  -6.50000002E-04  -4.59674709E-02
  -6.00000028E-04  -4.61340845E-02
  -5.49999997E-04  -4.62891720E-02
  -5.00000024E-04  -4.64362092E-02
  -4.49999992E-04  -4.65795323E-02
  -3.99999990E-04  -4.67180088E-02
  -3.49999988E-04  -4.68467139E-02
  -3.00000014E-04  -4.69626673E-02
  -2.50000012E-04  -4.70675416E-02
  -1.99999995E-04  -4.71653529E-02
  -1.50000007E-04  -4.72568385E-02
  -9.99999975E-05  -4.73386273E-02
  -4.99999987E-05  -4.74075824E-02
   0.00000000      -4.74641845E-02
   4.99999987E-05  -4.75117266E-02
   9.99999975E-05  -4.75520529E-02
   1.50000007E-04  -4.75821570E-02
   1.99999995E-04  -4.75975052E-02
   2.50000012E-04  -4.75971438E-02
   3.00000014E-04  -4.75844257E-02
   3.49999988E-04  -4.75630425E-02
   3.99999990E-04  -4.75320071E-02
   4.49999992E-04  -4.74867821E-02
   5.00000024E-04  -4.74248827E-02
   5.49999997E-04  -4.73479219E-02
   6.00000028E-04  -4.72590402E-02
   6.50000002E-04  -4.71588448E-02
   6.99999975E-04  -4.70442884E-02
   7.50000007E-04  -4.69117574E-02
   7.99999980E-04  -4.67604026E-02
   8.50000011E-04  -4.65933718E-02
   8.99999985E-04  -4.64136526E-02
   9.50000016E-04  -4.62196581E-02
   1.00000005E-03  -4.60068360E-02
   1.04999996E-03  -4.57725339E-02
   1.09999999E-03  -4.55188826E-02
   1.15000003E-03  -4.52500694E-02
   1.20000006E-03  -4.49667163E-02
   1.24999997E-03  -4.46638763E-02
   1.30000000E-03  -4.43374887E-02
   1.35000004E-03  -4.39895652E-02
   1.39999995E-03  -4.36243378E-02
   1.44999998E-03  -4.32425104E-02
   1.50000001E-03  -4.28399779E-02
   1.55000004E-03  -4.24125344E-02
   1.59999996E-03  -4.19607386E-02
   1.64999999E-03  -4.14875560E-02
   1.70000002E-03  -4.09949124E-02
   1.75000005E-03  -4.04810496E-02
   1.79999997E-03  -3.99416164E-02
   1.85000000E-03  -3.93749401E-02
   1.90000003E-03  -3.87826003E-02
   1.94999995E-03  -3.81682403E-02
   2.00000009E-03  -3.75324450E-02
   2.05000001E-03  -3.68696712E-02
   2.09999993E-03  -3.61764282E-02
   2.15000007E-03  -3.54540497E-02
   2.19999999E-03  -3.47060896E-02
   2.24999990E-03  -3.39344330E-02
   2.30000005E-03  -3.31362151E-02
   2.34999997E-03  -3.23061831E-02
   2.40000011E-03  -3.14429253E-02
   2.45000003E-03  -3.05506457E-02
   2.49999994E-03  -2.96324603E-02
   2.55000009E-03  -2.86860317E-02
   2.60000001E-03  -2.77057793E-02
   2.64999992E-03  -2.66900174E-02
   2.70000007E-03  -2.56420858E-02
   2.74999999E-03  -2.45658532E-02
   2.79999990E-03  -2.34599784E-02