  -3.99999991E-02   0.00000000    
  -3.99499983E-02   0.00000000    
  -3.99000011E-02   0.00000000    
  -3.98500003E-02   0.00000000    
  -3.97999994E-02   1.71660107E-20
  -3.97499986E-02   4.24754627E-20
  -3.97000015E-02  -1.45812245E-19
  -3.96500006E-02  -1.17101209E-18
  -3.95999998E-02  -4.00079593E-18
  -3.95499989E-02  -9.74449450E-18
  -3.95000018E-02  -1.97658993E-17
  -3.94500010E-02  -3.61378765E-17
  -3.94000001E-02  -6.14964713E-17
  -3.93499993E-02  -9.73801553E-17
  -3.92999984E-02  -1.41927583E-16
  -3.92500013E-02  -1.89566199E-16
  -3.92000005E-02  -2.34314195E-16
  -3.91499996E-02  -2.74642254E-16
  -3.90999988E-02  -3.15406932E-16
  -3.90500017E-02  -3.64583336E-16
  -3.90000008E-02  -4.27553459E-16
  -3.89500000E-02  -5.03801592E-16
  -3.88999991E-02  -5.87406655E-16
  -3.88499983E-02  -6.68127783E-16
  -3.88000011E-02  -7.30475390E-16
  -3.87500003E-02  -7.53495734E-16
  -3.86999995E-02  -7.16281342E-16
  -3.86499986E-02  -6.08178497E-16
  -3.86000015E-02  -4.34070689E-16
  -3.85500006E-02  -2.05549657E-16
  -3.84999998E-02   7.89345967E-17
  -3.84499989E-02   4.49594130E-16
  -3.84000018E-02   9.63167305E-16
  -3.83500010E-02   1.68541335E-15
  -3.83000001E-02   2.67321205E-15
  -3.82499993E-02   3.96745955E-15
  -3.81999984E-02   5.59369759E-15
  -3.81500013E-02   7.56125306E-15
  -3.81000005E-02   9.86108981E-15
  -3.80499996E-02   1.24736164E-14
  -3.79999988E-02   1.53920693E-14
  -3.79500017E-02   1.86475269E-14
  -3.79000008E-02   2.23116559E-14
  -3.78500000E-02   2.64696204E-14
  -3.77999991E-02   3.11842701E-14
  -3.77499983E-02   3.64820953E-14
  -3.77000012E-02   4.23692419E-14
  -3.76500003E-02   4.88555831E-14
  -3.75999995E-02   5.59601837E-14
  -3.75499986E-02   6.36969047E-14
  -3.75000015E-02   7.20626765E-14
  -3.74500006E-02   8.10442411E-14
  -3.73999998E-02   9.06316580E-14
  -3.73499990E-02   1.00813848E-13
  -3.73000018E-02   1.11552450E-13
  -3.72500010E-02   1.22758886E-13
  -3.72000001E-02   1.34298876E-13
  -3.71499993E-02   1.46015443E-13
  -3.70999984E-02   1.57737308E-13
  -3.70500013E-02   1.69258108E-13
  -3.70000005E-02   1.80315805E-13
  -3.69499996E-02   1.90619371E-13
  -3.68999988E-02   1.99929618E-13
  -3.68500017E-02   2.08142273E-13
  -3.68000008E-02   2.15305001E-13
  -3.67500000E-02   2.21545086E-13
  -3.66999991E-02   2.26948207E-13
  -3.66499983E-02   2.31449869E-13
  -3.66000012E-02   2.34775198E-13
  -3.65500003E-02   2.36431453E-13
  -3.64999995E-02   2.35759031E-13
  -3.64499986E-02   2.32051954E-13
  -3.64000015E-02   2.24732329E-13
  -3.63500006E-02   2.13498991E-13
  -3.62999998E-02   1.98340476E-13
  -3.62499990E-02   1.79365745E-13
  -3.62000018E-02   1.56534508E-13
  -3.61500010E-02   1.29460597E-13
  -3.61000001E-02   9.74323839E-14
  -3.60499993E-02   5.96622632E-14
  -3.59999985E-02   1.56442886E-14
  -3.59500013E-02  -3.45522967E-14
  -3.59000005E-02  -9.01920818E-14
  -3.58499996E-02  -1.50052347E-13
  -3.57999988E-02  -2.12856710E-13
  -3.57500017E-02  -2.77844533E-13
  -3.57000008E-02  -3.45241522E-13
  -3.56500000E-02  -4.16352120E-13
  -3.55999991E-02  -4.93109893E-13
  -3.55499983E-02  -5.77197795E-13
  -3.55000012E-02  -6.69124858E-13
  -3.54500003E-02  -7.67737328E-13
  -3.53999995E-02  -8.70452798E-13
  -3.53499986E-02  -9.74156194E-13
  -3.53000015E-02  -1.07637510E-12
  -3.52500007E-02  -1.17621548E-12
  -3.51999998E-02  -1.27462190E-12
  -3.51499990E-02  -1.37376948E-12
  -3.51000018E-02  -1.47574574E-12
  -3.50500010E-02  -1.58102773E-12
  -3.50000001E-02  -1.68746983E-12
  -3.49499993E-02  -1.79040853E-12
  -3.48999985E-02  -1.88402289E-12
  -3.48500013E-02  -1.96343115E-12
  -3.48000005E-02  -2.02655037E-12
  -3.47499996E-02  -2.07475226E-12
  -3.46999988E-02  -2.11190028E-12
  -3.46500017E-02  -2.14211786E-12
  -3.46000008E-02  -2.16725401E-12
  -3.45500000E-02  -2.18521208E-12
  -3.44999991E-02  -2.18999254E-12
  -3.44499983E-02  -2.17361394E-12
  -3.44000012E-02  -2.12922822E-12
  -3.43500003E-02  -2.05408520E-12
  -3.42999995E-02  -1.95085831E-12
  -3.42499986E-02  -1.82644525E-12
  -3.42000015E-02  -1.68851933E-12
  -3.41500007E-02  -1.54131363E-12
  -3.40999998E-02  -1.38267587E-12
  -3.40499990E-02  -1.20399188E-12
  -3.40000018E-02  -9.93285640E-13
  -3.39500010E-02  -7.40300182E-13
  -3.39000002E-02  -4.41348320E-13
  -3.38499993E-02  -1.01677212E-13
  -3.37999985E-02   2.65965743E-13
  -3.37500013E-02   6.46270038E-13
  -3.37000005E-02   1.02785694E-12
  -3.36499996E-02   1.40842578E-12
  -3.35999988E-02   1.79595119E-12
  -3.35500017E-02   2.20495258E-12
  -3.35000008E-02   2.64919033E-12
  -3.34500000E-02   3.13402884E-12
  -3.33999991E-02   3.65214586E-12
  -3.33499983E-02   4.18489115E-12
  -3.33000012E-02   4.70903871E-12
  -3.32500003E-02   5.20612243E-12
  -3.31999995E-02   5.67016399E-12
  -3.31499986E-02   6.11008813E-12
  -3.31000015E-02   6.54529252E-12
  -3.30500007E-02   6.99585832E-12
  -3.29999998E-02   7.47151820E-12
  -3.29499990E-02   7.96448150E-12
  -3.29000019E-02   8.44984239E-12
  -3.28500010E-02   8.89400359E-12
  -3.28000002E-02   9.26766476E-12
  -3.27499993E-02   9.55747027E-12
  -3.26999985E-02   9.77072069E-12
  -3.26500013E-02   9.93052255E-12
  -3.26000005E-02   1.00631821E-11
  -3.25499997E-02   1.01833984E-11
  -3.24999988E-02   1.02840913E-11
  -3.24500017E-02   1.03359777E-11
  -3.24000008E-02   1.02978407E-11
  -3.23500000E-02   1.01335017E-11
  -3.22999991E-02   9.82804463E-12
  -3.22499983E-02   9.39550087E-12
  -3.22000012E-02   8.87367870E-12
  -3.21500003E-02   8.30757338E-12
  -3.20999995E-02   7.72843508E-12
  -3.20499986E-02   7.13809177E-12
  -3.20000015E-02   6.50617451E-12
  -3.19500007E-02   5.78222800E-12
  -3.18999998E-02   4.91787947E-12
  -3.18499990E-02   3.88938751E-12
  -3.18000019E-02   2.71028013E-12
  -3.17500010E-02   1.42773131E-12
  -3.17000002E-02   1.03448825E-13
  -3.16499993E-02  -1.21298739E-12
  -3.15999985E-02  -2.50634561E-12
  -3.15500014E-02  -3.80282871E-12
  -3.15000005E-02  -5.15781558E-12
  -3.14499997E-02  -6.62897385E-12
  -3.13999988E-02  -8.24663688E-12
  -3.13500017E-02  -9.99521126E-12
  -3.13000008E-02  -1.18147540E-11
  -3.12500000E-02  -1.36229049E-11
  -3.11999992E-02  -1.53479261E-11
  -3.11500002E-02  -1.69582005E-11
  -3.10999993E-02  -1.84744824E-11
  -3.10500003E-02  -1.99585019E-11
  -3.09999995E-02  -2.14819568E-11
  -3.09500005E-02  -2.30893117E-11
  -3.08999997E-02  -2.47713655E-11
  -3.08500007E-02  -2.64625266E-11
  -3.07999998E-02  -2.80641413E-11
  -3.07500008E-02  -2.94841686E-11
  -3.07000000E-02  -3.06753095E-11
  -3.06499992E-02  -3.16537768E-11
  -3.06000002E-02  -3.24892960E-11
  -3.05499993E-02  -3.32699111E-11
  -3.05000003E-02  -3.40567366E-11
  -3.04499995E-02  -3.48490577E-11
  -3.04000005E-02  -3.55762295E-11
  -3.03499997E-02  -3.61215259E-11
  -3.03000007E-02  -3.63685020E-11
  -3.02499998E-02  -3.62496769E-11
  -3.02000009E-02  -3.57751953E-11
  -3.01500000E-02  -3.50275225E-11
  -3.00999992E-02  -3.41232528E-11
  -3.00500002E-02  -3.31584933E-11
  -2.99999993E-02  -3.21623457E-11
  -2.99500003E-02  -3.10799927E-11
  -2.98999995E-02  -2.97939000E-11
  -2.98500005E-02  -2.81746744E-11
  -2.97999997E-02  -2.61393580E-11
  -2.97500007E-02  -2.36910040E-11
  -2.96999998E-02  -2.09208015E-11
  -2.96500009E-02  -1.79704931E-11
  -2.96000000E-02  -1.49707122E-11
  -2.95499992E-02  -1.19826276E-11
  -2.95000002E-02  -8.96970085E-12
  -2.94499993E-02  -5.81348164E-12
  -2.94000003E-02  -2.36750767E-12
  -2.93499995E-02   1.47422059E-12
  -2.93000005E-02   5.72488628E-12
  -2.92499997E-02   1.02925888E-11
  -2.92000007E-02   1.50145053E-11
  -2.91499998E-02   1.97230288E-11
  -2.91000009E-02   2.43147672E-11
  -2.90500000E-02   2.87912524E-11
  -2.89999992E-02   3.32521198E-11
  -2.89500002E-02   3.78424861E-11
  -2.88999993E-02   4.26772818E-11
  -2.88500004E-02   4.77764252E-11
  -2.87999995E-02   5.30409952E-11
  -2.87500005E-02   5.82825038E-11
  -2.86999997E-02   6.32935232E-11
  -2.86500007E-02   6.79285447E-11
  -2.85999998E-02   7.21589732E-11
  -2.85500009E-02   7.60768740E-11
  -2.85000000E-02   7.98447003E-11
  -2.84499992E-02   8.36120131E-11
  -2.84000002E-02   8.74356143E-11
  -2.83499993E-02   9.12386278E-11
  -2.83000004E-02   9.48280621E-11
  -2.82499995E-02   9.79643658E-11
  -2.82000005E-02   1.00453278E-10
  -2.81499997E-02   1.02219191E-10
  -2.81000007E-02   1.03326916E-10
  -2.80499998E-02   1.03941140E-10
  -2.80000009E-02   1.04240880E-10
  -2.79500000E-02   1.04326776E-10
  -2.78999992E-02   1.04162248E-10
  -2.78500002E-02   1.03575565E-10
  -2.77999993E-02   1.02322976E-10
  -2.77500004E-02   1.00186241E-10
  -2.76999995E-02   9.70622610E-11
  -2.76500005E-02   9.30049995E-11
  -2.75999997E-02   8.81999057E-11
  -2.75500007E-02   8.28808827E-11
  -2.74999999E-02   7.72255523E-11
  -2.74500009E-02   7.12753814E-11
  -2.74000000E-02   6.49163362E-11
  -2.73499992E-02   5.79296715E-11
  -2.73000002E-02   5.00911188E-11
  -2.72499993E-02   4.12751604E-11
  -2.72000004E-02   3.15185343E-11
  -2.71499995E-02   2.10142164E-11
  -2.71000005E-02   1.00375047E-11
  -2.70499997E-02  -1.16445970E-12
  -2.70000007E-02  -1.24715151E-11
  -2.69499999E-02  -2.39333900E-11
  -2.69000009E-02  -3.57361467E-11
  -2.68500000E-02  -4.81052420E-11
  -2.67999992E-02  -6.11869305E-11
  -2.67500002E-02  -7.49603296E-11
  -2.66999993E-02  -8.92199301E-11
  -2.66500004E-02  -1.03637668E-10
  -2.65999995E-02  -1.17878846E-10
  -2.65500005E-02  -1.31722119E-10
  -2.64999997E-02  -1.45131199E-10
  -2.64500007E-02  -1.58245736E-10
  -2.63999999E-02  -1.71293910E-10
  -2.63500009E-02  -1.84462765E-10
  -2.63000000E-02  -1.97782762E-10
  -2.62499992E-02  -2.11077850E-10
  -2.62000002E-02  -2.24004815E-10
  -2.61499994E-02  -2.36166947E-10
  -2.61000004E-02  -2.47254078E-10
  -2.60499995E-02  -2.57147109E-10
  -2.60000005E-02  -2.65941102E-10
  -2.59499997E-02  -2.73874923E-10
  -2.59000007E-02  -2.81196955E-10
  -2.58499999E-02  -2.88023189E-10
  -2.58000009E-02  -2.94251262E-10
  -2.57500000E-02  -2.99568398E-10
  -2.56999992E-02  -3.03552516E-10
  -2.56500002E-02  -3.05824810E-10
  -2.55999994E-02  -3.06187492E-10
  -2.55500004E-02  -3.04686776E-10
  -2.54999995E-02  -3.01570269E-10
  -2.54500005E-02  -2.97156466E-10
  -2.53999997E-02  -2.91671909E-10
  -2.53500007E-02  -2.85128726E-10
  -2.52999999E-02  -2.77297380E-10
  -2.52500009E-02  -2.67789041E-10
  -2.52000000E-02  -2.56213717E-10
  -2.51499992E-02  -2.42346559E-10
  -2.51000002E-02  -2.26227495E-10
  -2.50499994E-02  -2.08149525E-10
  -2.50000004E-02  -1.88535770E-10
  -2.49499995E-02  -1.67756933E-10
  -2.49000005E-02  -1.45968862E-10
  -2.48499997E-02  -1.23043589E-10
  -2.48000007E-02  -9.86278212E-11
  -2.47499999E-02  -7.23062651E-11
  -2.47000009E-02  -4.38002377E-11
  -2.46500000E-02  -1.31140081E-11
  -2.45999992E-02   1.94370232E-11
  -2.45500002E-02   5.33318424E-11
  -2.44999994E-02   8.80397907E-11
  -2.44500004E-02   1.23222363E-10
  -2.43999995E-02   1.58850863E-10
  -2.43500005E-02   1.95184882E-10
  -2.42999997E-02   2.32616426E-10
  -2.42500007E-02   2.71445894E-10
  -2.41999999E-02   3.11688453E-10
  -2.41500009E-02   3.52998769E-10
  -2.41000000E-02   3.94751926E-10
  -2.40499992E-02   4.36247649E-10
  -2.40000002E-02   4.76951034E-10
  -2.39499994E-02   5.16662657E-10
  -2.39000004E-02   5.55540836E-10
  -2.38499995E-02   5.93963989E-10
  -2.38000005E-02   6.32288388E-10
  -2.37499997E-02   6.70608957E-10
  -2.37000007E-02   7.08628989E-10
  -2.36499999E-02   7.45699835E-10
  -2.36000009E-02   7.81018972E-10
  -2.35500000E-02   8.13898837E-10
  -2.34999992E-02   8.43987602E-10
  -2.34500002E-02   8.71340999E-10
  -2.33999994E-02   8.96309971E-10
  -2.33500004E-02   9.19291920E-10
  -2.32999995E-02   9.40454603E-10
  -2.32500006E-02   9.59559099E-10
  -2.31999997E-02   9.75960646E-10
  -2.31500007E-02   9.88795046E-10
  -2.30999999E-02   9.97269711E-10
  -2.30500009E-02   1.00093067E-09
  -2.30000000E-02   9.99787475E-10
  -2.29499992E-02   9.94230032E-10
  -2.29000002E-02   9.84775705E-10
  -2.28499994E-02   9.71755010E-10
  -2.28000004E-02   9.55079016E-10
  -2.27499995E-02   9.34194055E-10
  -2.27000006E-02   9.08251474E-10
  -2.26499997E-02   8.76415329E-10
  -2.26000007E-02   8.38175584E-10
  -2.25499999E-02   7.93524413E-10
  -2.25000009E-02   7.42913286E-10
  -2.24500000E-02   6.87005786E-10
  -2.23999992E-02   6.26332874E-10
  -2.23500002E-02   5.61004410E-10
  -2.22999994E-02   4.90607277E-10
  -2.22500004E-02   4.14342921E-10
  -2.21999995E-02   3.31343369E-10
  -2.21500006E-02   2.41028725E-10
  -2.20999997E-02   1.43342435E-10
  -2.20500007E-02   3.87590030E-11
  -2.19999999E-02  -7.19423132E-11
  -2.19500009E-02  -1.88037252E-10
  -2.19000001E-02  -3.09189868E-10
  -2.18499992E-02  -4.35609077E-10
  -2.18000002E-02  -5.67955072E-10
  -2.17499994E-02  -7.07035597E-10
  -2.17000004E-02  -8.53426219E-10
  -2.16499995E-02  -1.00718722E-09
  -2.16000006E-02  -1.16780752E-09
  -2.15499997E-02  -1.33440514E-09
  -2.15000007E-02  -1.50609447E-09
  -2.14499999E-02  -1.68235681E-09
  -2.14000009E-02  -1.86324445E-09
  -2.13500001E-02  -2.04932737E-09
  -2.12999992E-02  -2.24140040E-09
  -2.12500002E-02  -2.44008436E-09
  -2.11999994E-02  -2.64550293E-09
  -2.11500004E-02  -2.85717672E-09
  -2.10999995E-02  -3.07418890E-09
  -2.10500006E-02  -3.29554850E-09
  -2.09999997E-02  -3.52058982E-09
  -2.09500007E-02  -3.74922671E-09
  -2.08999999E-02  -3.98194278E-09
  -2.08500009E-02  -4.21952073E-09
  -2.08000001E-02  -4.46263160E-09
  -2.07499992E-02  -4.71147610E-09
  -2.07000002E-02  -4.96563413E-09
  -2.06499994E-02  -5.22420196E-09
  -2.06000004E-02  -5.48613954E-09
  -2.05499995E-02  -5.75069992E-09
  -2.05000006E-02  -6.01772143E-09
  -2.04499997E-02  -6.28767038E-09
  -2.04000007E-02  -6.56139809E-09
  -2.03499999E-02  -6.83972701E-09
  -2.03000009E-02  -7.12305637E-09
  -2.02500001E-02  -7.41115702E-09
  -2.01999992E-02  -7.70325581E-09
  -2.01500002E-02  -7.99836375E-09
  -2.00999994E-02  -8.29571345E-09
  -2.00500004E-02  -8.59508287E-09
  -1.99999996E-02  -8.89689389E-09
  -1.99500006E-02  -9.20200804E-09
  -1.98999997E-02  -9.51134460E-09
  -1.98500007E-02  -9.82547643E-09
  -1.97999999E-02  -1.01443902E-08
  -1.97500009E-02  -1.04675246E-08
  -1.97000001E-02  -1.07940616E-08
  -1.96499992E-02  -1.11233556E-08
  -1.96000002E-02  -1.14552892E-08
  -1.95499994E-02  -1.17903918E-08
  -1.95000004E-02  -1.21296715E-08
  -1.94499996E-02  -1.24742439E-08
  -1.94000006E-02  -1.28249278E-08
  -1.93499997E-02  -1.31819871E-08
  -1.93000007E-02  -1.35451312E-08
  -1.92499999E-02  -1.39137732E-08
  -1.92000009E-02  -1.42874477E-08
  -1.91500001E-02  -1.46661669E-08
  -1.90999992E-02  -1.50505901E-08
  -1.90500002E-02  -1.54418860E-08
  -1.89999994E-02  -1.58413922E-08
  -1.89500004E-02  -1.62501905E-08
  -1.88999996E-02  -1.66688245E-08
  -1.88500006E-02  -1.70972747E-08
  -1.87999997E-02  -1.75352053E-08
  -1.87500007E-02  -1.79823481E-08
  -1.86999999E-02  -1.84388806E-08
  -1.86500009E-02  -1.89056042E-08
  -1.86000001E-02  -1.93838510E-08
  -1.85499992E-02  -1.98751859E-08
  -1.85000002E-02  -2.03810071E-08
  -1.84499994E-02  -2.09022168E-08
  -1.84000004E-02  -2.14391669E-08
  -1.83499996E-02  -2.19918306E-08
  -1.83000006E-02  -2.25601937E-08
  -1.82499997E-02  -2.31446258E-08
  -1.82000007E-02  -2.37460700E-08
  -1.81499999E-02  -2.43659937E-08
  -1.81000009E-02  -2.50060879E-08
  -1.80500001E-02  -2.56679051E-08
  -1.79999992E-02  -2.63525841E-08
  -1.79500002E-02  -2.70607430E-08
  -1.78999994E-02  -2.77926162E-08
  -1.78500004E-02  -2.85484010E-08
  -1.77999996E-02  -2.93286231E-08
  -1.77500006E-02  -3.01343626E-08
  -1.76999997E-02  -3.09672181E-08
  -1.76500008E-02  -3.18290319E-08
  -1.75999999E-02  -3.27215375E-08
  -1.75500009E-02  -3.36460921E-08
  -1.75000001E-02  -3.46035911E-08
  -1.74499992E-02  -3.55945815E-08
  -1.74000002E-02  -3.66195501E-08
  -1.73499994E-02  -3.76792713E-08
  -1.73000004E-02  -3.87750170E-08
  -1.72499996E-02  -3.99085316E-08
  -1.72000006E-02  -4.10817904E-08
  -1.71499997E-02  -4.22966764E-08
  -1.71000008E-02  -4.35546745E-08
  -1.70499999E-02  -4.48567583E-08
  -1.70000009E-02  -4.62035530E-08
  -1.69500001E-02  -4.75955986E-08
  -1.68999992E-02  -4.90337406E-08
  -1.68500002E-02  -5.05192901E-08
  -1.67999994E-02  -5.20540340E-08
  -1.67500004E-02  -5.36400115E-08
  -1.66999996E-02  -5.52792194E-08
  -1.66500006E-02  -5.69733416E-08
  -1.65999997E-02  -5.87236002E-08
  -1.65500008E-02  -6.05308514E-08
  -1.64999999E-02  -6.23958556E-08
  -1.64500009E-02  -6.43195719E-08
  -1.64000001E-02  -6.63034001E-08
  -1.63499992E-02  -6.83491592E-08
  -1.63000003E-02  -7.04589169E-08
  -1.62499994E-02  -7.26346769E-08
  -1.62000004E-02  -7.48780877E-08
  -1.61499996E-02  -7.71903998E-08
  -1.61000006E-02  -7.95725228E-08
  -1.60499997E-02  -8.20253234E-08
  -1.60000008E-02  -8.45498462E-08
  -1.59499999E-02  -8.71475052E-08
  -1.59000009E-02  -8.98201904E-08
  -1.58500001E-02  -9.25700192E-08
  -1.57999992E-02  -9.53990309E-08
  -1.57500003E-02  -9.83089379E-08
  -1.56999994E-02  -1.01301040E-07
  -1.56500004E-02  -1.04376319E-07
  -1.55999996E-02  -1.07535712E-07
  -1.55499997E-02  -1.10780398E-07
  -1.54999997E-02  -1.14111977E-07
  -1.54499998E-02  -1.17532416E-07
  -1.53999999E-02  -1.21043968E-07
  -1.53500000E-02  -1.24648736E-07
  -1.53000001E-02  -1.28348518E-07
  -1.52500002E-02  -1.32144677E-07
  -1.52000003E-02  -1.36038238E-07
  -1.51500003E-02  -1.40030266E-07
  -1.51000004E-02  -1.44122012E-07
  -1.50499996E-02  -1.48315124E-07
  -1.49999997E-02  -1.52611776E-07
  -1.49499997E-02  -1.57014441E-07
  -1.48999998E-02  -1.61525520E-07
  -1.48499999E-02  -1.66147075E-07
  -1.48000000E-02  -1.70880796E-07
  -1.47500001E-02  -1.75727905E-07
  -1.47000002E-02  -1.80689781E-07
  -1.46500003E-02  -1.85768030E-07
  -1.46000003E-02  -1.90964727E-07
  -1.45500004E-02  -1.96282400E-07
  -1.44999996E-02  -2.01723765E-07
  -1.44499997E-02  -2.07291635E-07
  -1.43999998E-02  -2.12988581E-07
  -1.43499998E-02  -2.18816766E-07
  -1.42999999E-02  -2.24777935E-07
  -1.42500000E-02  -2.30873837E-07
  -1.42000001E-02  -2.37106505E-07
  -1.41500002E-02  -2.43478667E-07
  -1.41000003E-02  -2.49993548E-07
  -1.40500003E-02  -2.56654573E-07
  -1.40000004E-02  -2.63465068E-07
  -1.39499996E-02  -2.70428018E-07
  -1.38999997E-02  -2.77546263E-07
  -1.38499998E-02  -2.84822363E-07
  -1.37999998E-02  -2.92258790E-07
  -1.37499999E-02  -2.99858272E-07
  -1.37000000E-02  -3.07624191E-07
  -1.36500001E-02  -3.15560698E-07
  -1.36000002E-02  -3.23672339E-07
  -1.35500003E-02  -3.31963605E-07
  -1.35000004E-02  -3.40438589E-07
  -1.34500004E-02  -3.49100731E-07
  -1.33999996E-02  -3.57953468E-07
  -1.33499997E-02  -3.67000183E-07
  -1.32999998E-02  -3.76244515E-07
  -1.32499998E-02  -3.85690697E-07
  -1.31999999E-02  -3.95343733E-07
  -1.31500000E-02  -4.05209221E-07
  -1.31000001E-02  -4.15292931E-07
  -1.30500002E-02  -4.25600291E-07
  -1.30000003E-02  -4.36136077E-07
  -1.29500004E-02  -4.46904750E-07
  -1.29000004E-02  -4.57910943E-07
  -1.28499996E-02  -4.69159716E-07
  -1.27999997E-02  -4.80656638E-07
  -1.27499998E-02  -4.92407821E-07
  -1.26999998E-02  -5.04420086E-07
  -1.26499999E-02  -5.16700482E-07
  -1.26000000E-02  -5.29256226E-07
  -1.25500001E-02  -5.42093971E-07
  -1.25000002E-02  -5.55219344E-07
  -1.24500003E-02  -5.68638484E-07
  -1.24000004E-02  -5.82357927E-07
  -1.23500004E-02  -5.96385064E-07
  -1.22999996E-02  -6.10728137E-07
  -1.22499997E-02  -6.25395444E-07
  -1.21999998E-02  -6.40395115E-07
  -1.21499998E-02  -6.55735164E-07
  -1.20999999E-02  -6.71423265E-07
  -1.20500000E-02  -6.87466411E-07
  -1.20000001E-02  -7.03871592E-07
  -1.19500002E-02  -7.20645971E-07
  -1.19000003E-02  -7.37797848E-07
  -1.18500004E-02  -7.55336885E-07
  -1.18000004E-02  -7.73274337E-07
  -1.17499996E-02  -7.91621346E-07
  -1.16999997E-02  -8.10388997E-07
  -1.16499998E-02  -8.29587805E-07
  -1.15999999E-02  -8.49227945E-07
  -1.15499999E-02  -8.69319194E-07
  -1.15000000E-02  -8.89870819E-07
  -1.14500001E-02  -9.10892481E-07
  -1.14000002E-02  -9.32393789E-07
  -1.13500003E-02  -9.54385200E-07
  -1.13000004E-02  -9.76877573E-07
  -1.12500004E-02  -9.99881081E-07
  -1.11999996E-02  -1.02340550E-06
  -1.11499997E-02  -1.04746061E-06
  -1.10999998E-02  -1.07205619E-06
  -1.10499999E-02  -1.09720418E-06
  -1.09999999E-02  -1.12291730E-06
  -1.09500000E-02  -1.14920999E-06
  -1.09000001E-02  -1.17609784E-06
  -1.08500002E-02  -1.20359721E-06
  -1.08000003E-02  -1.23172458E-06
  -1.07500004E-02  -1.26049451E-06
  -1.07000005E-02  -1.28991974E-06
  -1.06499996E-02  -1.32001242E-06
  -1.05999997E-02  -1.35078392E-06
  -1.05499998E-02  -1.38224539E-06
  -1.04999999E-02  -1.41440830E-06
  -1.04499999E-02  -1.44728438E-06
  -1.04000000E-02  -1.48088623E-06
  -1.03500001E-02  -1.51522761E-06
  -1.03000002E-02  -1.55032217E-06
  -1.02500003E-02  -1.58618343E-06
  -1.02000004E-02  -1.62282481E-06
  -1.01500005E-02  -1.66026120E-06
  -1.00999996E-02  -1.69850887E-06
  -1.00499997E-02  -1.73758588E-06
  -9.99999978E-03  -1.77751087E-06
  -9.94999986E-03  -1.81830285E-06
  -9.89999995E-03  -1.85998044E-06
  -9.85000003E-03  -1.90256071E-06
  -9.80000012E-03  -1.94606105E-06
  -9.75000020E-03  -1.99049691E-06
  -9.70000029E-03  -2.03588297E-06
  -9.65000037E-03  -2.08223423E-06
  -9.60000046E-03  -2.12956729E-06
  -9.54999961E-03  -2.17789898E-06
  -9.49999969E-03  -2.22724748E-06
  -9.44999978E-03  -2.27763007E-06
  -9.39999986E-03  -2.32906314E-06
  -9.34999995E-03  -2.38156235E-06
  -9.30000003E-03  -2.43514364E-06
  -9.25000012E-03  -2.48982178E-06
  -9.20000020E-03  -2.54561223E-06
  -9.15000029E-03  -2.60253159E-06
  -9.10000037E-03  -2.66059897E-06
  -9.05000046E-03  -2.71983458E-06
  -8.99999961E-03  -2.78026027E-06
  -8.94999970E-03  -2.84189650E-06
  -8.89999978E-03  -2.90476328E-06
  -8.84999987E-03  -2.96887924E-06
  -8.79999995E-03  -3.03426486E-06
  -8.75000004E-03  -3.10094197E-06
  -8.70000012E-03  -3.16893261E-06
  -8.65000021E-03  -3.23825657E-06
  -8.60000029E-03  -3.30893590E-06
  -8.55000038E-03  -3.38099039E-06
  -8.50000046E-03  -3.45444209E-06
  -8.44999962E-03  -3.52931102E-06
  -8.39999970E-03  -3.60561489E-06
  -8.34999979E-03  -3.68336941E-06
  -8.29999987E-03  -3.76259163E-06
  -8.24999996E-03  -3.84330178E-06
  -8.20000004E-03  -3.92552147E-06
  -8.15000013E-03  -4.00927411E-06
  -8.10000021E-03  -4.09458062E-06
  -8.05000030E-03  -4.18146101E-06
  -8.00000038E-03  -4.26993529E-06
  -7.95000046E-03  -4.36002574E-06
  -7.89999962E-03  -4.45175283E-06
  -7.84999970E-03  -4.54513793E-06
  -7.79999979E-03  -4.64020331E-06
  -7.74999987E-03  -4.73697219E-06
  -7.69999996E-03  -4.83546955E-06
  -7.65000004E-03  -4.93572452E-06
  -7.60000013E-03  -5.03776255E-06
  -7.55000021E-03  -5.14160593E-06
  -7.49999983E-03  -5.24727784E-06
  -7.44999992E-03  -5.35480103E-06
  -7.40000000E-03  -5.46419915E-06
  -7.35000009E-03  -5.57549765E-06
  -7.30000017E-03  -5.68872065E-06
  -7.24999979E-03  -5.80389087E-06
  -7.19999988E-03  -5.92103243E-06
  -7.14999996E-03  -6.04017214E-06
  -7.10000005E-03  -6.16133684E-06
  -7.05000013E-03  -6.28454836E-06
  -7.00000022E-03  -6.40982535E-06
  -6.94999984E-03  -6.53718871E-06
  -6.89999992E-03  -6.66666483E-06
  -6.85000001E-03  -6.79828281E-06
  -6.80000009E-03  -6.93207176E-06
  -6.75000018E-03  -7.06805758E-06
  -6.69999979E-03  -7.20626304E-06
  -6.64999988E-03  -7.34671539E-06
  -6.59999996E-03  -7.48944467E-06
  -6.55000005E-03  -7.63448406E-06
  -6.50000013E-03  -7.78185768E-06
  -6.45000022E-03  -7.93158961E-06
  -6.39999984E-03  -8.08370805E-06
  -6.34999992E-03  -8.23825121E-06
  -6.30000001E-03  -8.39525364E-06
  -6.25000009E-03  -8.55474536E-06
  -6.20000018E-03  -8.71675729E-06
  -6.14999980E-03  -8.88131399E-06
  -6.09999988E-03  -9.04844183E-06
  -6.04999997E-03  -9.21817536E-06
  -6.00000005E-03  -9.39054280E-06
  -5.95000014E-03  -9.56557415E-06
  -5.90000022E-03  -9.74329578E-06
  -5.84999984E-03  -9.92374498E-06
  -5.79999993E-03  -1.01069545E-05
  -5.75000001E-03  -1.02929589E-05
  -5.70000010E-03  -1.04817855E-05
  -5.65000018E-03  -1.06734633E-05
  -5.59999980E-03  -1.08680215E-05
  -5.54999989E-03  -1.10654937E-05
  -5.49999997E-03  -1.12659200E-05
  -5.45000006E-03  -1.14693412E-05
  -5.40000014E-03  -1.16757892E-05
  -5.35000023E-03  -1.18853031E-05
  -5.29999984E-03  -1.20979212E-05
  -5.24999993E-03  -1.23136842E-05
  -5.20000001E-03  -1.25326278E-05
  -5.15000010E-03  -1.27547919E-05
  -5.10000018E-03  -1.29802083E-05
  -5.04999980E-03  -1.32089199E-05
  -4.99999989E-03  -1.34409711E-05
  -4.94999997E-03  -1.36764083E-05
  -4.90000006E-03  -1.39152689E-05
  -4.85000014E-03  -1.41575902E-05
  -4.80000023E-03  -1.44034011E-05
  -4.74999985E-03  -1.46527418E-05
  -4.69999993E-03  -1.49056468E-05
  -4.65000002E-03  -1.51621589E-05
  -4.60000010E-03  -1.54223126E-05
  -4.55000019E-03  -1.56861497E-05
  -4.49999981E-03  -1.59537158E-05
  -4.44999989E-03  -1.62250635E-05
  -4.39999998E-03  -1.65002384E-05
  -4.35000006E-03  -1.67792878E-05
  -4.30000015E-03  -1.70622479E-05
  -4.25000023E-03  -1.73491626E-05
  -4.19999985E-03  -1.76400717E-05
  -4.14999994E-03  -1.79350336E-05
  -4.10000002E-03  -1.82341064E-05
  -4.05000011E-03  -1.85373410E-05
  -4.00000019E-03  -1.88447775E-05
  -3.94999981E-03  -1.91564668E-05
  -3.89999989E-03  -1.94724525E-05
  -3.84999998E-03  -1.97927857E-05
  -3.80000006E-03  -2.01175098E-05
  -3.74999992E-03  -2.04466669E-05
  -3.70000000E-03  -2.07802896E-05
  -3.65000009E-03  -2.11184379E-05
  -3.59999994E-03  -2.14611755E-05
  -3.55000002E-03  -2.18085552E-05
  -3.50000011E-03  -2.21606188E-05
  -3.44999996E-03  -2.25174081E-05
  -3.40000005E-03  -2.28789722E-05
  -3.34999990E-03  -2.32453731E-05
  -3.29999998E-03  -2.36166561E-05
  -3.25000007E-03  -2.39928631E-05
  -3.19999992E-03  -2.43740396E-05
  -3.15000000E-03  -2.47602547E-05
  -3.10000009E-03  -2.51515794E-05
  -3.04999994E-03  -2.55480754E-05
  -3.00000003E-03  -2.59497920E-05
  -2.95000011E-03  -2.63567599E-05
  -2.89999996E-03  -2.67690302E-05
  -2.85000005E-03  -2.71866611E-05
  -2.79999990E-03  -2.76097144E-05
  -2.74999999E-03  -2.80382483E-05
  -2.70000007E-03  -2.84723137E-05
  -2.64999992E-03  -2.89119707E-05
  -2.60000001E-03  -2.93572848E-05
  -2.55000009E-03  -2.98083214E-05
  -2.49999994E-03  -3.02651260E-05
  -2.45000003E-03  -3.07277296E-05
  -2.40000011E-03  -3.11961812E-05
  -2.34999997E-03  -3.16705373E-05
  -2.30000005E-03  -3.21508778E-05
  -2.24999990E-03  -3.26372501E-05
  -2.19999999E-03  -3.31297051E-05
  -2.15000007E-03  -3.36282901E-05
  -2.09999993E-03  -3.41330815E-05
  -2.05000001E-03  -3.46441448E-05
  -2.00000009E-03  -3.51615236E-05
  -1.94999995E-03  -3.56852688E-05
  -1.90000003E-03  -3.62154242E-05
  -1.85000000E-03  -3.67520624E-05
  -1.79999997E-03  -3.72952600E-05
  -1.75000005E-03  -3.78450823E-05
  -1.70000002E-03  -3.84016021E-05
  -1.64999999E-03  -3.89648631E-05
  -1.59999996E-03  -3.95349234E-05
  -1.55000004E-03  -4.01118305E-05
  -1.50000001E-03  -4.06956424E-05
  -1.44999998E-03  -4.12864174E-05
  -1.39999995E-03  -4.18842064E-05
  -1.35000004E-03  -4.24890495E-05
  -1.30000000E-03  -4.31010267E-05
  -1.24999997E-03  -4.37202216E-05
  -1.20000006E-03  -4.43466888E-05
  -1.15000003E-03  -4.49804756E-05
  -1.09999999E-03  -4.56216330E-05
  -1.04999996E-03  -4.62701901E-05
  -1.00000005E-03  -4.69262122E-05
  -9.50000016E-04  -4.75897832E-05
  -8.99999985E-04  -4.82609539E-05
  -8.50000011E-04  -4.89397971E-05
  -7.99999980E-04  -4.96263892E-05
  -7.50000007E-04  -5.03208030E-05
  -6.99999975E-04  -5.10230821E-05
  -6.50000002E-04  -5.17332919E-05
  -6.00000028E-04  -5.24514653E-05
  -5.49999997E-04  -5.31776604E-05
  -5.00000024E-04  -5.39119501E-05
  -4.49999992E-04  -5.46543815E-05
  -3.99999990E-04  -5.54050239E-05
  -3.49999988E-04  -5.61639681E-05
  -3.00000014E-04  -5.69312906E-05
  -2.50000012E-04  -5.77070350E-05
  -1.99999995E-04  -5.84912414E-05
  -1.50000007E-04  -5.92839351E-05
  -9.99999975E-05  -6.00852036E-05
  -4.99999987E-05  -6.08951159E-05
   0.00000000      -6.17137266E-05
   4.99999987E-05  -6.25410757E-05
   9.99999975E-05  -6.33772361E-05
   1.50000007E-04  -6.42223167E-05
   1.99999995E-04  -6.50763905E-05
   2.50000012E-04  -6.59395082E-05
   3.00000014E-04  -6.68116627E-05
   3.49999988E-04  -6.76928830E-05
   3.99999990E-04  -6.85832492E-05
   4.49999992E-04  -6.94828996E-05
   5.00000024E-04  -7.03919286E-05
   5.49999997E-04  -7.13103291E-05
   6.00000028E-04  -7.22381519E-05
   6.50000002E-04  -7.31754626E-05
   6.99999975E-04  -7.41223776E-05
   7.50000007E-04  -7.50789695E-05
   7.99999980E-04  -7.60452676E-05
   8.50000011E-04  -7.70212646E-05
   8.99999985E-04  -7.80070259E-05
   9.50000016E-04  -7.90026461E-05
   1.00000005E-03  -8.00082635E-05
   1.04999996E-03  -8.10239071E-05
   1.09999999E-03  -8.20496280E-05
   1.15000003E-03  -8.30854478E-05
   1.20000006E-03  -8.41314104E-05
   1.24999997E-03  -8.51875884E-05
   1.30000000E-03  -8.62540765E-05
   1.35000004E-03  -8.73309327E-05
   1.39999995E-03  -8.84181791E-05
   1.44999998E-03  -8.95158664E-05
   1.50000001E-03  -9.06240821E-05
   1.55000004E-03  -9.17429570E-05
   1.59999996E-03  -9.28725713E-05
   1.64999999E-03  -9.40129321E-05
   1.70000002E-03  -9.51640177E-05
   1.75000005E-03  -9.63259081E-05
   1.79999997E-03  -9.74987342E-05
   1.85000000E-03  -9.86825689E-05
   1.90000003E-03  -9.98774922E-05
   1.94999995E-03  -1.01083511E-04
   2.00000009E-03  -1.02300648E-04
   2.05000001E-03  -1.03528990E-04
   2.09999993E-03  -1.04768667E-04
   2.15000007E-03  -1.06019696E-04
   2.19999999E-03  -1.07282081E-04
   2.24999990E-03  -1.08555811E-04
   2.30000005E-03  -1.09840978E-04
   2.34999997E-03  -1.11137757E-04
   2.40000011E-03  -1.12446214E-04
   2.45000003E-03  -1.13766357E-04
   2.49999994E-03  -1.15098213E-04
   2.55000009E-03  -1.16441806E-04
   2.60000001E-03  -1.17797237E-04
   2.64999992E-03  -1.19164586E-04
   2.70000007E-03  -1.20543875E-04
   2.74999999E-03  -1.21935132E-04
   2.79999990E-03  -1.23338410E-04