  -3.99999991E-02   0.00000000    
  -3.99499983E-02   0.00000000    
  -3.99000011E-02   0.00000000    
  -3.98500003E-02   2.91993412E-15
  -3.97999994E-02   2.36870138E-14
  -3.97499986E-02   9.99045004E-14
  -3.97000015E-02   2.90408295E-13
  -3.96500006E-02   6.48525938E-13
  -3.95999998E-02   1.17480114E-12
  -3.95499989E-02   1.77973304E-12
  -3.95000018E-02   2.29604855E-12
  -3.94500010E-02   2.55568960E-12
  -3.94000001E-02   2.50101502E-12
  -3.93499993E-02   2.26576678E-12
  -3.92999984E-02   2.16523067E-12
  -3.92500013E-02   2.57635428E-12
  -3.92000005E-02   3.74631402E-12
  -3.91499996E-02   5.61638019E-12
  -3.90999988E-02   7.76355195E-12
  -3.90500017E-02   9.52610733E-12
  -3.90000008E-02   1.02899911E-11
  -3.89500000E-02   9.80827745E-12
  -3.88999991E-02   8.37463345E-12
  -3.88499983E-02   6.72607976E-12
  -3.88000011E-02   5.69334207E-12
  -3.87500003E-02   5.76294784E-12
  -3.86999995E-02   6.77294418E-12
  -3.86499986E-02   7.90373843E-12
  -3.86000015E-02   7.98848227E-12
  -3.85500006E-02   6.02090166E-12
  -3.84999998E-02   1.63686350E-12
  -3.84499989E-02  -4.67125037E-12
  -3.84000018E-02  -1.17516752E-11
  -3.83500010E-02  -1.83464025E-11
  -3.83000001E-02  -2.37320719E-11
  -3.82499993E-02  -2.80969501E-11
  -3.81999984E-02  -3.24347216E-11
  -3.81500013E-02  -3.80191260E-11
  -3.81000005E-02  -4.57690101E-11
  -3.80499996E-02  -5.58573569E-11
  -3.79999988E-02  -6.77503123E-11
  -3.79500017E-02  -8.06135506E-11
  -3.79000008E-02  -9.38417469E-11
  -3.78500000E-02  -1.07417339E-10
  -3.77999991E-02  -1.21883947E-10
  -3.77499983E-02  -1.37906464E-10
  -3.77000012E-02  -1.55636393E-10
  -3.76500003E-02  -1.74287487E-10
  -3.75999995E-02  -1.92286118E-10
  -3.75499986E-02  -2.08026887E-10
  -3.75000015E-02  -2.20812063E-10
  -3.74500006E-02  -2.31322780E-10
  -3.73999998E-02  -2.41185794E-10
  -3.73499990E-02  -2.51771437E-10
  -3.73000018E-02  -2.62903199E-10
  -3.72500010E-02  -2.72314477E-10
  -3.72000001E-02  -2.76354828E-10
  -3.71499993E-02  -2.71808465E-10
  -3.70999984E-02  -2.58040755E-10
  -3.70500013E-02  -2.38317310E-10
  -3.70000005E-02  -2.19268229E-10
  -3.69499996E-02  -2.08198347E-10
  -3.68999988E-02  -2.09107842E-10
  -3.68500017E-02  -2.19325363E-10
  -3.68000008E-02  -2.28851951E-10
  -3.67500000E-02  -2.23475821E-10
  -3.66999991E-02  -1.90803845E-10
  -3.66499983E-02  -1.26574737E-10
  -3.66000012E-02  -3.80290764E-11
  -3.65500003E-02   5.78441704E-11
  -3.64999995E-02   1.41091486E-10
  -3.64499986E-02   1.98021224E-10
  -3.64000015E-02   2.28696312E-10
  -3.63500006E-02   2.48683019E-10
  -3.62999998E-02   2.83210122E-10
  -3.62499990E-02   3.55418722E-10
  -3.62000018E-02   4.73747763E-10
  -3.61500010E-02   6.24845897E-10
  -3.61000001E-02   7.76564479E-10
  -3.60499993E-02   8.91018981E-10
  -3.59999985E-02   9.42499079E-10
  -3.59500013E-02   9.31861255E-10
  -3.59000005E-02   8.89773200E-10
  -3.58499996E-02   8.65766403E-10
  -3.57999988E-02   9.06604902E-10
  -3.57500017E-02   1.03309272E-09
  -3.57000008E-02   1.22639554E-09
  -3.56500000E-02   1.43181711E-09
  -3.55999991E-02   1.58048508E-09
  -3.55499983E-02   1.62058678E-09
  -3.55000012E-02   1.54392055E-09
  -3.54500003E-02   1.39406797E-09
  -3.53999995E-02   1.25003852E-09
  -3.53499986E-02   1.19073751E-09
  -3.53000015E-02   1.25563526E-09
  -3.52500007E-02   1.42045109E-09
  -3.51999998E-02   1.60127811E-09
  -3.51499990E-02   1.68823922E-09
  -3.51000018E-02   1.59566782E-09
  -3.50500010E-02   1.30644406E-09
  -3.50000001E-02   8.88427609E-10
  -3.49499993E-02   4.71914341E-10
  -3.48999985E-02   1.94719879E-10
  -3.48500013E-02   1.37955619E-10
  -3.48000005E-02   2.82495860E-10
  -3.47499996E-02   5.09076059E-10
  -3.46999988E-02   6.46021681E-10
  -3.46500017E-02   5.46059753E-10
  -3.46000008E-02   1.58149660E-10
  -3.45500000E-02  -4.40242065E-10
  -3.44999991E-02  -1.06913900E-09
  -3.44499983E-02  -1.52298529E-09
  -3.44000012E-02  -1.66634839E-09
  -3.43500003E-02  -1.50443602E-09
  -3.42999995E-02  -1.19253429E-09
  -3.42499986E-02  -9.74519909E-10
  -3.42000015E-02  -1.07373654E-09
  -3.41500007E-02  -1.58436475E-09
  -3.40999998E-02  -2.41513187E-09
  -3.40499990E-02  -3.31632566E-09
  -3.40000018E-02  -3.98376621E-09
  -3.39500010E-02  -4.19641211E-09
  -3.39000002E-02  -3.92517130E-09
  -3.38499993E-02  -3.35949846E-09
  -3.37999985E-02  -2.83321056E-09
  -3.37500013E-02  -2.67710676E-09
  -3.37000005E-02  -3.06265457E-09
  -3.36499996E-02  -3.90999677E-09
  -3.35999988E-02  -4.90847230E-09
  -3.35500017E-02  -5.64794922E-09
  -3.35000008E-02  -5.80648907E-09
  -3.34500000E-02  -5.30929833E-09
  -3.33999991E-02  -4.38170655E-09
  -3.33499983E-02  -3.46386542E-09
  -3.33000012E-02  -3.01801073E-09
  -3.32500003E-02  -3.31176664E-09
  -3.31999995E-02  -4.27774038E-09
  -3.31499986E-02  -5.52039037E-09
  -3.31000015E-02  -6.47671028E-09
  -3.30500007E-02  -6.66553523E-09
  -3.29999998E-02  -5.91448268E-09
  -3.29499990E-02  -4.45695614E-09
  -3.29000019E-02  -2.84594615E-09
  -3.28500010E-02  -1.71412973E-09
  -3.28000002E-02  -1.48363466E-09
  -3.27499993E-02  -2.15839235E-09
  -3.26999985E-02  -3.30082250E-09
  -3.26500013E-02  -4.21385193E-09
  -3.26000005E-02  -4.25436486E-09
  -3.25499997E-02  -3.13864446E-09
  -3.24999988E-02  -1.09644815E-09
  -3.24500017E-02   1.20671073E-09
  -3.24000008E-02   2.95560221E-09
  -3.23500000E-02   3.55739993E-09
  -3.22999991E-02   2.93073987E-09
  -3.22499983E-02   1.57232039E-09
  -3.22000012E-02   3.58109931E-10
  -3.21500003E-02   1.57985722E-10
  -3.20999995E-02   1.43369783E-09
  -3.20499986E-02   4.00622380E-09
  -3.20000015E-02   7.10869630E-09
  -3.19500007E-02   9.71377290E-09
  -3.18999998E-02   1.09960272E-08
  -3.18499990E-02   1.07205942E-08
  -3.18000019E-02   9.37404554E-09
  -3.17500010E-02   7.96497268E-09
  -3.17000002E-02   7.57209229E-09
  -3.16499993E-02   8.83893225E-09
  -3.15999985E-02   1.16481758E-08
  -3.15500014E-02   1.51356137E-08
  -3.15000005E-02   1.80527184E-08
  -3.14499997E-02   1.93249754E-08
  -3.13999988E-02   1.85552285E-08
  -3.13500017E-02   1.62358447E-08
  -3.13000008E-02   1.35586191E-08
  -3.12500000E-02   1.18933894E-08
  -3.11999992E-02   1.21628290E-08
  -3.11500002E-02   1.43982701E-08
  -3.10999993E-02   1.76892314E-08
  -3.10500003E-02   2.05654107E-08
  -3.09999995E-02   2.16512195E-08
  -3.09500005E-02   2.03006643E-08
  -3.08999997E-02   1.69181718E-08
  -3.08500007E-02   1.28052742E-08
  -3.07999998E-02   9.58671542E-09
  -3.07500008E-02   8.46649950E-09
  -3.07000000E-02   9.65243441E-09
  -3.06499992E-02   1.22219541E-08
  -3.06000002E-02   1.45073047E-08
  -3.05499993E-02   1.48404586E-08
  -3.05000003E-02   1.23260842E-08
  -3.04499995E-02   7.28625427E-09
  -3.04000005E-02   1.15999910E-09
  -3.03499997E-02  -4.11463841E-09
  -3.03000007E-02  -6.96850355E-09
  -3.02499998E-02  -6.92709001E-09
  -3.02000009E-02  -4.85458340E-09
  -3.01500000E-02  -2.58823074E-09
  -3.00999992E-02  -2.11277240E-09
  -3.00500002E-02  -4.64219863E-09
  -2.99999993E-02  -1.00305204E-08
  -2.99500003E-02  -1.67940879E-08
  -2.98999995E-02  -2.27536052E-08
  -2.98500005E-02  -2.60178759E-08
  -2.97999997E-02  -2.58649528E-08
  -2.97500007E-02  -2.31099779E-08
  -2.96999998E-02  -1.97739620E-08
  -2.96500009E-02  -1.81850233E-08
  -2.96000000E-02  -1.99093808E-08
  -2.95499992E-02  -2.50006043E-08
  -2.95000002E-02  -3.19232214E-08
  -2.94499993E-02  -3.82055774E-08
  -2.94000003E-02  -4.15420160E-08
  -2.93499995E-02  -4.08487359E-08
  -2.93000005E-02  -3.67852770E-08
  -2.92499997E-02  -3.14874491E-08
  -2.92000007E-02  -2.76143624E-08
  -2.91499998E-02  -2.71314544E-08
  -2.91000009E-02  -3.03843528E-08
  -2.90500000E-02  -3.58986263E-08
  -2.89999992E-02  -4.10169427E-08
  -2.89500002E-02  -4.31012666E-08
  -2.88999993E-02  -4.07593355E-08
  -2.88500004E-02  -3.45286892E-08
  -2.87999995E-02  -2.66873403E-08
  -2.87500005E-02  -2.02552854E-08
  -2.86999997E-02  -1.76268440E-08
  -2.86500007E-02  -1.94560332E-08
  -2.85999998E-02  -2.43157174E-08
  -2.85500009E-02  -2.93069711E-08
  -2.85000000E-02  -3.13606314E-08
  -2.84499992E-02  -2.86472410E-08
  -2.84000002E-02  -2.14475566E-08
  -2.83499993E-02  -1.20690524E-08
  -2.83000004E-02  -3.82466903E-09
  -2.82499995E-02   4.75760764E-10
  -2.82000005E-02  -1.65653047E-10
  -2.81499997E-02  -4.43718084E-09
  -2.81000007E-02  -9.28127530E-09
  -2.80499998E-02  -1.12840857E-08
  -2.80000009E-02  -8.26599145E-09
  -2.79500000E-02  -3.39892253E-10
  -2.78999992E-02   1.00672821E-08
  -2.78500002E-02   1.92662828E-08
  -2.77999993E-02   2.39704807E-08
  -2.77500004E-02   2.28186998E-08
  -2.76999995E-02   1.70472845E-08
  -2.76500005E-02   9.97855043E-09
  -2.75999997E-02   5.53334578E-09
  -2.75500007E-02   6.43246345E-09
  -2.74999999E-02   1.29126851E-08
  -2.74500009E-02   2.25651338E-08
  -2.74000000E-02   3.13970929E-08
  -2.73499992E-02   3.56530592E-08
  -2.73000002E-02   3.35673960E-08
  -2.72499993E-02   2.62323052E-08
  -2.72000004E-02   1.71556636E-08
  -2.71499995E-02   1.06825597E-08
  -2.71000005E-02   9.98590544E-09
  -2.70499997E-02   1.55501194E-08
  -2.70000007E-02   2.48670045E-08
  -2.69499999E-02   3.35174377E-08
  -2.69000009E-02   3.71726330E-08
  -2.68500000E-02   3.36080035E-08
  -2.67999992E-02   2.37930138E-08
  -2.67500002E-02   1.15255956E-08
  -2.66999993E-02   1.74338555E-09
  -2.66500004E-02  -1.73632519E-09
  -2.65999995E-02   1.98989203E-09
  -2.65500005E-02   1.04323332E-08
  -2.64999997E-02   1.88010887E-08
  -2.64500007E-02   2.22033361E-08
  -2.63999999E-02   1.79492599E-08
  -2.63500009E-02   6.89288759E-09
  -2.63000000E-02  -6.84614410E-09
  -2.62499992E-02  -1.76966477E-08
  -2.62000002E-02  -2.11829505E-08
  -2.61499994E-02  -1.60361413E-08
  -2.61000004E-02  -4.86986851E-09
  -2.60499995E-02   6.93825974E-09
  -2.60000005E-02   1.36913876E-08
  -2.59499997E-02   1.20424648E-08
  -2.59000007E-02   2.64839350E-09
  -2.58499999E-02  -9.99342831E-09
  -2.58000009E-02  -1.95048511E-08
  -2.57500000E-02  -2.05227355E-08
  -2.56999992E-02  -1.12068559E-08
  -2.56500002E-02   5.82305582E-09
  -2.55999994E-02   2.46075604E-08
  -2.55500004E-02   3.85655596E-08
  -2.54999995E-02   4.35892282E-08
  -2.54500005E-02   4.00798932E-08
  -2.53999997E-02   3.29373897E-08
  -2.53500007E-02   2.94403240E-08
  -2.52999999E-02   3.59378376E-08
  -2.52500009E-02   5.48588730E-08
  -2.52000000E-02   8.34467997E-08
  -2.51499992E-02   1.14867113E-07
  -2.51000002E-02   1.41250140E-07
  -2.50499994E-02   1.57313124E-07
  -2.50000004E-02   1.62890615E-07
  -2.49499995E-02   1.63156329E-07
  -2.49000005E-02   1.66355534E-07
  -2.48499997E-02   1.80023804E-07
  -2.48000007E-02   2.07407126E-07
  -2.47499999E-02   2.45762237E-07
  -2.47000009E-02   2.87395636E-07
  -2.46500000E-02   3.23049818E-07
  -2.45999992E-02   3.46135806E-07
  -2.45500002E-02   3.55863790E-07
  -2.44999994E-02   3.57770261E-07
  -2.44500004E-02   3.61302114E-07
  -2.43999995E-02   3.75478550E-07
  -2.43500005E-02   4.04584711E-07
  -2.42999997E-02   4.45905926E-07
  -2.42500007E-02   4.90630725E-07
  -2.41999999E-02   5.27617601E-07
  -2.41500009E-02   5.48374146E-07
  -2.41000000E-02   5.50976381E-07
  -2.40499992E-02   5.41067436E-07
  -2.40000002E-02   5.29367583E-07
  -2.39499994E-02   5.26733061E-07
  -2.39000004E-02   5.38976167E-07
  -2.38499995E-02   5.63846697E-07
  -2.38000005E-02   5.91657624E-07
  -2.37499997E-02   6.09392032E-07
  -2.37000007E-02   6.06504841E-07
  -2.36499999E-02   5.79785819E-07
  -2.36000009E-02   5.34988601E-07
  -2.35500000E-02   4.84353279E-07
  -2.34999992E-02   4.41024127E-07
  -2.34500002E-02   4.12842610E-07
  -2.33999994E-02   3.98373487E-07
  -2.33500004E-02   3.87085748E-07
  -2.32999995E-02   3.63752406E-07
  -2.32500006E-02   3.15178625E-07
  -2.31999997E-02   2.36224906E-07
  -2.31500007E-02   1.32311598E-07
  -2.30999999E-02   1.71247621E-08
  -2.30500009E-02  -9.35775333E-08
  -2.30000000E-02  -1.89327167E-07
  -2.29499992E-02  -2.70106227E-07
  -2.29000002E-02  -3.46841915E-07
  -2.28499994E-02  -4.36844772E-07
  -2.28000004E-02  -5.56127816E-07
  -2.27499995E-02  -7.12048859E-07
  -2.27000006E-02  -8.99692054E-07
  -2.26499997E-02  -1.10379085E-06
  -2.26000007E-02  -1.30548960E-06
  -2.25499999E-02  -1.49099037E-06
  -2.25000009E-02  -1.65815652E-06
  -2.24500000E-02  -1.81795906E-06
  -2.23999992E-02  -1.98992393E-06
  -2.23500002E-02  -2.19347862E-06
  -2.22999994E-02  -2.43905629E-06
  -2.22500004E-02  -2.72304419E-06
  -2.21999995E-02  -3.02902822E-06
  -2.21500006E-02  -3.33496837E-06
  -2.20999997E-02  -3.62318838E-06
  -2.20500007E-02  -3.88867420E-06
  -2.19999999E-02  -4.14180386E-06
  -2.19500009E-02  -4.40406302E-06
  -2.19000001E-02  -4.69850602E-06
  -2.18499992E-02  -5.03917499E-06
  -2.18000002E-02  -5.42431053E-06
  -2.17499994E-02  -5.83659676E-06
  -2.17000004E-02  -6.25054645E-06
  -2.16499995E-02  -6.64384788E-06
  -2.16000006E-02  -7.00760575E-06
  -2.15499997E-02  -7.35074264E-06
  -2.15000007E-02  -7.69634153E-06
  -2.14499999E-02  -8.07138167E-06
  -2.14000009E-02  -8.49439857E-06
  -2.13500001E-02  -8.96664096E-06
  -2.12999992E-02  -9.47088392E-06
  -2.12500002E-02  -9.97870029E-06
  -2.11999994E-02  -1.04630744E-05
  -2.11500004E-02  -1.09107141E-05
  -2.10999995E-02  -1.13284532E-05
  -2.10500006E-02  -1.17406044E-05
  -2.09999997E-02  -1.21782341E-05
  -2.09500007E-02  -1.26650166E-05
  -2.08999999E-02  -1.32060632E-05
  -2.08500009E-02  -1.37849338E-05
  -2.08000001E-02  -1.43704001E-05
  -2.07499992E-02  -1.49301786E-05
  -2.07000002E-02  -1.54455283E-05
  -2.06499994E-02  -1.59200608E-05
  -2.06000004E-02  -1.63785935E-05
  -2.05499995E-02  -1.68563165E-05
  -2.05000006E-02  -1.73829394E-05
  -2.04499997E-02  -1.79689505E-05
  -2.04000007E-02  -1.86002999E-05
  -2.03499999E-02  -1.92441985E-05
  -2.03000009E-02  -1.98636099E-05
  -2.02500001E-02  -2.04341013E-05
  -2.01999992E-02  -2.09553600E-05
  -2.01500002E-02  -2.14520423E-05
  -2.00999994E-02  -2.19632711E-05
  -2.00500004E-02  -2.25252516E-05
  -1.99999996E-02  -2.31548092E-05
  -1.99500006E-02  -2.38413595E-05
  -1.98999997E-02  -2.45511419E-05
  -1.98500007E-02  -2.52421833E-05
  -1.97999999E-02  -2.58833443E-05
  -1.97500009E-02  -2.64688770E-05
  -1.97000001E-02  -2.70218607E-05
  -1.96499992E-02  -2.75845796E-05
  -1.96000002E-02  -2.81999583E-05
  -1.95499994E-02  -2.88923529E-05
  -1.95000004E-02  -2.96563558E-05
  -1.94499996E-02  -3.04589248E-05
  -1.94000006E-02  -3.12541233E-05
  -1.93499997E-02  -3.20041581E-05
  -1.93000007E-02  -3.26971240E-05
  -1.92499999E-02  -3.33534117E-05
  -1.92000009E-02  -3.40175975E-05
  -1.91500001E-02  -3.47391506E-05
  -1.90999992E-02  -3.55504853E-05
  -1.90500002E-02  -3.64523621E-05
  -1.89999994E-02  -3.74133306E-05
  -1.89500004E-02  -3.83837869E-05
  -1.88999996E-02  -3.93185655E-05
  -1.88500006E-02  -4.01979778E-05
  -1.87999997E-02  -4.10377688E-05
  -1.87500007E-02  -4.18832533E-05
  -1.86999999E-02  -4.27898631E-05
  -1.86500009E-02  -4.37986855E-05
  -1.86000001E-02  -4.49181825E-05
  -1.85499992E-02  -4.61202108E-05
  -1.85000002E-02  -4.73526889E-05
  -1.84499994E-02  -4.85634446E-05
  -1.84000004E-02  -4.97244146E-05
  -1.83499996E-02  -5.08454468E-05
  -1.83000006E-02  -5.19711975E-05
  -1.82499997E-02  -5.31622209E-05
  -1.82000007E-02  -5.44684626E-05
  -1.81499999E-02  -5.59070395E-05
  -1.81000009E-02  -5.74545775E-05
  -1.80500001E-02  -5.90576128E-05
  -1.79999992E-02  -6.06569592E-05
  -1.79500002E-02  -6.22150037E-05
  -1.78999994E-02  -6.37335688E-05
  -1.78500004E-02  -6.52544768E-05
  -1.77999996E-02  -6.68418434E-05
  -1.77500006E-02  -6.85539926E-05
  -1.76999997E-02  -7.04176491E-05
  -1.76500008E-02  -7.24158017E-05
  -1.75999999E-02  -7.44954305E-05
  -1.75500009E-02  -7.65916848E-05
  -1.75000001E-02  -7.86575183E-05
  -1.74499992E-02  -8.06859098E-05
  -1.74000002E-02  -8.27144468E-05
  -1.73499994E-02  -8.48096533E-05
  -1.73000004E-02  -8.70380973E-05
  -1.72499996E-02  -8.94369150E-05
  -1.72000006E-02  -9.19973827E-05
  -1.71499997E-02  -9.46686559E-05
  -1.71000008E-02  -9.73806091E-05
  -1.70499999E-02  -1.00076220E-04
  -1.70000009E-02  -1.02737758E-04
  -1.69500001E-02  -1.05396008E-04
  -1.68999992E-02  -1.08117747E-04
  -1.68500002E-02  -1.10976609E-04
  -1.67999994E-02  -1.14020251E-04
  -1.67500004E-02  -1.17249168E-04
  -1.66999996E-02  -1.20616729E-04
  -1.66500006E-02  -1.24050013E-04
  -1.65999997E-02  -1.27483087E-04
  -1.65500008E-02  -1.30887594E-04
  -1.64999999E-02  -1.34286820E-04
  -1.64500009E-02  -1.37746349E-04
  -1.64000001E-02  -1.41346172E-04
  -1.63499992E-02  -1.45145212E-04
  -1.63000003E-02  -1.49155268E-04
  -1.62499994E-02  -1.53336267E-04
  -1.62000004E-02  -1.57613933E-04
  -1.61499996E-02  -1.61913908E-04
  -1.61000006E-02  -1.66196289E-04
  -1.60499997E-02  -1.70474406E-04
  -1.60000008E-02  -1.74810091E-04
  -1.59499999E-02  -1.79287599E-04
  -1.59000009E-02  -1.83976401E-04
  -1.58500001E-02  -1.88900405E-04
  -1.57999992E-02  -1.94027903E-04
  -1.57500003E-02  -1.99286224E-04
  -1.56999994E-02  -2.04594995E-04
  -1.56500004E-02  -2.09903563E-04
  -1.55999996E-02  -2.15215347E-04
  -1.55499997E-02  -2.20587841E-04
  -1.54999997E-02  -2.26108707E-04
  -1.54499998E-02  -2.31857921E-04
  -1.53999999E-02  -2.37872329E-04
  -1.53500000E-02  -2.44130337E-04
  -1.53000001E-02  -2.50562996E-04
  -1.52500002E-02  -2.57084932E-04
  -1.52000003E-02  -2.63634371E-04
  -1.51500003E-02  -2.70202960E-04
  -1.51000004E-02  -2.76841660E-04
  -1.50499996E-02  -2.83639092E-04
  -1.49999997E-02  -2.90683645E-04
  -1.49499997E-02  -2.98024941E-04
  -1.48999998E-02  -3.05652706E-04
  -1.48499999E-02  -3.13502853E-04
  -1.48000000E-02  -3.21487227E-04
  -1.47500001E-02  -3.29535600E-04
  -1.47000002E-02  -3.37628997E-04
  -1.46500003E-02  -3.45810404E-04
  -1.46000003E-02  -3.54167714E-04
  -1.45500004E-02  -3.62796447E-04
  -1.44999996E-02  -3.71758739E-04
  -1.44499997E-02  -3.81056831E-04
  -1.43999998E-02  -3.90633970E-04
  -1.43499998E-02  -4.00402118E-04
  -1.42999999E-02  -4.10282752E-04
  -1.42500000E-02  -4.20244120E-04
  -1.42000001E-02  -4.30318614E-04
  -1.41500002E-02  -4.40590200E-04
  -1.41000003E-02  -4.51159489E-04
  -1.40500003E-02  -4.62100870E-04
  -1.40000004E-02  -4.73429653E-04
  -1.39499996E-02  -4.85098135E-04
  -1.38999997E-02  -4.97018336E-04
  -1.38499998E-02  -5.09104226E-04
  -1.37999998E-02  -5.21312759E-04
  -1.37499999E-02  -5.33665938E-04
  -1.37000000E-02  -5.46243857E-04
  -1.36500001E-02  -5.59150416E-04
  -1.36000002E-02  -5.72469551E-04
  -1.35500003E-02  -5.86229144E-04
  -1.35000004E-02  -6.00391533E-04
  -1.34500004E-02  -6.14872901E-04
  -1.33999996E-02  -6.29583024E-04
  -1.33499997E-02  -6.44468761E-04
  -1.32999998E-02  -6.59540179E-04
  -1.32499998E-02  -6.74869108E-04
  -1.31999999E-02  -6.90559798E-04
  -1.31500000E-02  -7.06703286E-04
  -1.31000001E-02  -7.23339268E-04
  -1.30500002E-02  -7.40440388E-04
  -1.30000003E-02  -7.57927890E-04
  -1.29500004E-02  -7.75709224E-04
  -1.29000004E-02  -7.93722284E-04
  -1.28499996E-02  -8.11965205E-04
  -1.27999997E-02  -8.30500911E-04
  -1.27499998E-02  -8.49431322E-04
  -1.26999998E-02  -8.68855335E-04
  -1.26499999E-02  -8.88825685E-04
  -1.26000000E-02  -9.09327762E-04
  -1.25500001E-02  -9.30290727E-04
  -1.25000002E-02  -9.51620168E-04
  -1.24500003E-02  -9.73245362E-04
  -1.24000004E-02  -9.95152979E-04
  -1.23500004E-02  -1.01739436E-03
  -1.22999996E-02  -1.04006694E-03
  -1.22499997E-02  -1.06327317E-03
  -1.21999998E-02  -1.08707708E-03
  -1.21499998E-02  -1.11147598E-03
  -1.20999999E-02  -1.13640493E-03
  -1.20500000E-02  -1.16177090E-03
  -1.20000001E-02  -1.18749624E-03
  -1.19500002E-02  -1.21355569E-03
  -1.19000003E-02  -1.23999233E-03
  -1.18500004E-02  -1.26690220E-03
  -1.18000004E-02  -1.29439333E-03
  -1.17499996E-02  -1.32253766E-03
  -1.16999997E-02  -1.35134347E-03
  -1.16499998E-02  -1.38075522E-03
  -1.15999999E-02  -1.41067849E-03
  -1.15499999E-02  -1.44102972E-03
  -1.15000000E-02  -1.47177582E-03
  -1.14500001E-02  -1.50295033E-03
  -1.14000002E-02  -1.53464125E-03
  -1.13500003E-02  -1.56695663E-03
  -1.13000004E-02  -1.59997703E-03
  -1.12500004E-02  -1.63371873E-03
  -1.11999996E-02  -1.66813494E-03
  -1.11499997E-02  -1.70313928E-03
  -1.10999998E-02  -1.73864630E-03
  -1.10499999E-02  -1.77461852E-03
  -1.09999999E-02  -1.81108515E-03
  -1.09500000E-02  -1.84812723E-03
  -1.09000001E-02  -1.88584707E-03
  -1.08500002E-02  -1.92432944E-03
  -1.08000003E-02  -1.96360215E-03
  -1.07500004E-02  -2.00362667E-03
  -1.07000005E-02  -2.04432080E-03
  -1.06499996E-02  -2.08559725E-03
  -1.05999997E-02  -2.12740805E-03
  -1.05499998E-02  -2.16976786E-03
  -1.04999999E-02  -2.21275166E-03
  -1.04499999E-02  -2.25646677E-03
  -1.04000000E-02  -2.30100355E-03
  -1.03500001E-02  -2.34639901E-03
  -1.03000002E-02  -2.39262288E-03
  -1.02500003E-02  -2.43960135E-03
  -1.02000004E-02  -2.48724921E-03
  -1.01500005E-02  -2.53551127E-03
  -1.00999996E-02  -2.58439849E-03
  -1.00499997E-02  -2.63398304E-03
  -9.99999978E-03  -2.68436247E-03
  -9.94999986E-03  -2.73562595E-03
  -9.89999995E-03  -2.78781797E-03
  -9.85000003E-03  -2.84091826E-03
  -9.80000012E-03  -2.89485953E-03
  -9.75000020E-03  -2.94955680E-03
  -9.70000029E-03  -3.00495094E-03
  -9.65000037E-03  -3.06103542E-03
  -9.60000046E-03  -3.11786751E-03
  -9.54999961E-03  -3.17554781E-03
  -9.49999969E-03  -3.23416525E-03
  -9.44999978E-03  -3.29377223E-03
  -9.39999986E-03  -3.35435662E-03
  -9.34999995E-03  -3.41585302E-03
  -9.30000003E-03  -3.47817852E-03
  -9.25000012E-03  -3.54126585E-03
  -9.20000020E-03  -3.60511360E-03
  -9.15000029E-03  -3.66978394E-03
  -9.10000037E-03  -3.73536861E-03
  -9.05000046E-03  -3.80195747E-03
  -8.99999961E-03  -3.86960199E-03
  -8.94999970E-03  -3.93829308E-03
  -8.89999978E-03  -4.00797278E-03
  -8.84999987E-03  -4.07855911E-03
  -8.79999995E-03  -4.14998969E-03
  -8.75000004E-03  -4.22225194E-03
  -8.70000012E-03  -4.29539289E-03
  -8.65000021E-03  -4.36950149E-03
  -8.60000029E-03  -4.44466574E-03
  -8.55000038E-03  -4.52093780E-03
  -8.50000046E-03  -4.59830975E-03
  -8.44999962E-03  -4.67672059E-03
  -8.39999970E-03  -4.75609209E-03
  -8.34999979E-03  -4.83635347E-03
  -8.29999987E-03  -4.91748611E-03
  -8.24999996E-03  -4.99952585E-03
  -8.20000004E-03  -5.08255512E-03
  -8.15000013E-03  -5.16667450E-03
  -8.10000021E-03  -5.25194546E-03
  -8.05000030E-03  -5.33837080E-03
  -8.00000038E-03  -5.42589137E-03
  -7.95000046E-03  -5.51441545E-03
  -7.89999962E-03  -5.60386851E-03
  -7.84999970E-03  -5.69423242E-03
  -7.79999979E-03  -5.78554906E-03
  -7.74999987E-03  -5.87790692E-03
  -7.69999996E-03  -5.97139634E-03
  -7.65000004E-03  -6.06607134E-03
  -7.60000013E-03  -6.16192725E-03
  -7.55000021E-03  -6.25891145E-03
  -7.49999983E-03  -6.35693781E-03
  -7.44999992E-03  -6.45592390E-03
  -7.40000000E-03  -6.55582687E-03
  -7.35000009E-03  -6.65667094E-03
  -7.30000017E-03  -6.75853668E-03
  -7.24999979E-03  -6.86150417E-03
  -7.19999988E-03  -6.96563441E-03
  -7.14999996E-03  -7.07094884E-03
  -7.10000005E-03  -7.17740227E-03
  -7.05000013E-03  -7.28490017E-03
  -7.00000022E-03  -7.39333779E-03
  -6.94999984E-03  -7.50266574E-03
  -6.89999992E-03  -7.61290453E-03
  -6.85000001E-03  -7.72413565E-03
  -6.80000009E-03  -7.83647131E-03
  -6.75000018E-03  -7.94997439E-03
  -6.69999979E-03  -8.06465372E-03
  -6.64999988E-03  -8.18044785E-03
  -6.59999996E-03  -8.29724781E-03
  -6.55000005E-03  -8.41495395E-03
  -6.50000013E-03  -8.53351969E-03
  -6.45000022E-03  -8.65294132E-03
  -6.39999984E-03  -8.77329335E-03
  -6.34999992E-03  -8.89467634E-03
  -6.30000001E-03  -9.01715644E-03
  -6.25000009E-03  -9.14074201E-03
  -6.20000018E-03  -9.26535856E-03
  -6.14999980E-03  -9.39091016E-03
  -6.09999988E-03  -9.51729529E-03
  -6.04999997E-03  -9.64443386E-03
  -6.00000005E-03  -9.77231935E-03
  -5.95000014E-03  -9.90102533E-03
  -5.90000022E-03  -1.00306319E-02
  -5.84999984E-03  -1.01611931E-02
  -5.79999993E-03  -1.02927350E-02
  -5.75000001E-03  -1.04252128E-02
  -5.70000010E-03  -1.05585251E-02
  -5.65000018E-03  -1.06925461E-02
  -5.59999980E-03  -1.08271893E-02
  -5.54999989E-03  -1.09624276E-02
  -5.49999997E-03  -1.10983076E-02
  -5.45000006E-03  -1.12349289E-02
  -5.40000014E-03  -1.13723744E-02
  -5.35000023E-03  -1.15106395E-02
  -5.29999984E-03  -1.16496515E-02
  -5.24999993E-03  -1.17892930E-02
  -5.20000001E-03  -1.19294310E-02
  -5.15000010E-03  -1.20700011E-02
  -5.10000018E-03  -1.22109866E-02
  -5.04999980E-03  -1.23523949E-02
  -4.99999989E-03  -1.24942837E-02
  -4.94999997E-03  -1.26367090E-02
  -4.90000006E-03  -1.27796754E-02
  -4.85000014E-03  -1.29231401E-02
  -4.80000023E-03  -1.30669791E-02
  -4.74999985E-03  -1.32110203E-02
  -4.69999993E-03  -1.33551648E-02
  -4.65000002E-03  -1.34994062E-02
  -4.60000010E-03  -1.36437602E-02
  -4.55000019E-03  -1.37883164E-02
  -4.49999981E-03  -1.39331361E-02
  -4.44999989E-03  -1.40781803E-02
  -4.39999998E-03  -1.42233586E-02
  -4.35000006E-03  -1.43685406E-02
  -4.30000015E-03  -1.45136015E-02
  -4.25000023E-03  -1.46584334E-02
  -4.19999985E-03  -1.48029877E-02
  -4.14999994E-03  -1.49472747E-02
  -4.10000002E-03  -1.50913298E-02
  -4.05000011E-03  -1.52352033E-02
  -4.00000019E-03  -1.53789222E-02
  -3.94999981E-03  -1.55224260E-02
  -3.89999989E-03  -1.56655330E-02
  -3.84999998E-03  -1.58080496E-02
  -3.80000006E-03  -1.59498304E-02
  -3.74999992E-03  -1.60907656E-02
  -3.70000000E-03  -1.62308402E-02
  -3.65000009E-03  -1.63701586E-02
  -3.59999994E-03  -1.65088121E-02
  -3.55000002E-03  -1.66468341E-02
  -3.50000011E-03  -1.67841800E-02
  -3.44999996E-03  -1.69206429E-02
  -3.40000005E-03  -1.70559697E-02
  -3.34999990E-03  -1.71899479E-02
  -3.29999998E-03  -1.73224397E-02
  -3.25000007E-03  -1.74534656E-02
  -3.19999992E-03  -1.75831597E-02
  -3.15000000E-03  -1.77116469E-02
  -3.10000009E-03  -1.78389493E-02
  -3.04999994E-03  -1.79649536E-02
  -3.00000003E-03  -1.80894565E-02
  -2.95000011E-03  -1.82121880E-02
  -2.89999996E-03  -1.83329117E-02
  -2.85000005E-03  -1.84515044E-02
  -2.79999990E-03  -1.85679551E-02
  -2.74999999E-03  -1.86823290E-02
  -2.70000007E-03  -1.87947359E-02
  -2.64999992E-03  -1.89052131E-02
  -2.60000001E-03  -1.90136470E-02
  -2.55000009E-03  -1.91198420E-02
  -2.49999994E-03  -1.92235243E-02
  -2.45000003E-03  -1.93244200E-02
  -2.40000011E-03  -1.94223523E-02
  -2.34999997E-03  -1.95173305E-02
  -2.30000005E-03  -1.96094718E-02
  -2.24999990E-03  -1.96988266E-02
  -2.19999999E-03  -1.97853800E-02
  -2.15000007E-03  -1.98690780E-02
  -2.09999993E-03  -1.99497025E-02
  -2.05000001E-03  -2.00269818E-02
  -2.00000009E-03  -2.01006606E-02
  -1.94999995E-03  -2.01705415E-02
  -1.90000003E-03  -2.02365760E-02
  -1.85000000E-03  -2.02988144E-02
  -1.79999997E-03  -2.03573611E-02
  -1.75000005E-03  -2.04122048E-02
  -1.70000002E-03  -2.04632599E-02
  -1.64999999E-03  -2.05103010E-02
  -1.59999996E-03  -2.05529481E-02
  -1.55000004E-03  -2.05909517E-02
  -1.50000001E-03  -2.06241626E-02
  -1.44999998E-03  -2.06525233E-02
  -1.39999995E-03  -2.06761230E-02
  -1.35000004E-03  -2.06950139E-02
  -1.30000000E-03  -2.07091291E-02
  -1.24999997E-03  -2.07183566E-02
  -1.20000006E-03  -2.07225401E-02
  -1.15000003E-03  -2.07213499E-02
  -1.09999999E-03  -2.07144152E-02
  -1.04999996E-03  -2.07015499E-02
  -1.00000005E-03  -2.06826907E-02
  -9.50000016E-04  -2.06579212E-02
  -8.99999985E-04  -2.06274092E-02
  -8.50000011E-04  -2.05911398E-02
  -7.99999980E-04  -2.05489434E-02
  -7.50000007E-04  -2.05005240E-02
  -6.99999975E-04  -2.04454791E-02
  -6.50000002E-04  -2.03833785E-02
  -6.00000028E-04  -2.03140564E-02
  -5.49999997E-04  -2.02376153E-02
  -5.00000024E-04  -2.01541092E-02
  -4.49999992E-04  -2.00636666E-02
  -3.99999990E-04  -1.99663322E-02
  -3.49999988E-04  -1.98618434E-02
  -3.00000014E-04  -1.97497364E-02
  -2.50000012E-04  -1.96295995E-02
  -1.99999995E-04  -1.95011403E-02
  -1.50000007E-04  -1.93642285E-02
  -9.99999975E-05  -1.92189422E-02
  -4.99999987E-05  -1.90653466E-02
   0.00000000      -1.89034976E-02
   4.99999987E-05  -1.87334213E-02
   9.99999975E-05  -1.85549092E-02
   1.50000007E-04  -1.83675122E-02
   1.99999995E-04  -1.81707665E-02
   2.50000012E-04  -1.79643948E-02
   3.00000014E-04  -1.77482385E-02
   3.49999988E-04  -1.75222047E-02
   3.99999990E-04  -1.72864757E-02
   4.49999992E-04  -1.70412101E-02
   5.00000024E-04  -1.67863220E-02
   5.49999997E-04  -1.65216699E-02
   6.00000028E-04  -1.62469000E-02
   6.50000002E-04  -1.59614719E-02
   6.99999975E-04  -1.56649798E-02
   7.50000007E-04  -1.53572038E-02
   7.99999980E-04  -1.50380116E-02
   8.50000011E-04  -1.47075299E-02
   8.99999985E-04  -1.43661182E-02
   9.50000016E-04  -1.40138315E-02
   1.00000005E-03  -1.36503773E-02
   1.04999996E-03  -1.32754175E-02
   1.09999999E-03  -1.28884362E-02
   1.15000003E-03  -1.24888765E-02
   1.20000006E-03  -1.20765343E-02
   1.24999997E-03  -1.16514405E-02
   1.30000000E-03  -1.12137236E-02
   1.35000004E-03  -1.07636182E-02
   1.39999995E-03  -1.03011774E-02
   1.44999998E-03  -9.82625503E-03
   1.50000001E-03  -9.33850743E-03
   1.55000004E-03  -8.83738883E-03
   1.59999996E-03  -8.32239259E-03
   1.64999999E-03  -7.79317413E-03
   1.70000002E-03  -7.24960398E-03
   1.75000005E-03  -6.69183582E-03
   1.79999997E-03  -6.12012809E-03
   1.85000000E-03  -5.53465914E-03
   1.90000003E-03  -4.93542058E-03
   1.94999995E-03  -4.32211952E-03
   2.00000009E-03  -3.69428354E-03
   2.05000001E-03  -3.05128377E-03
   2.09999993E-03  -2.39257258E-03
   2.15000007E-03  -1.71796745E-03
   2.19999999E-03  -1.02758303E-03
   2.24999990E-03  -3.21831583E-04
   2.30000005E-03   3.98857490E-04
   2.34999997E-03   1.13442016E-03
   2.40000011E-03   1.88521598E-03
   2.45000003E-03   2.65186490E-03
   2.49999994E-03   3.43503570E-03
   2.55000009E-03   4.23516193E-03
   2.60000001E-03   5.05242869E-03
   2.64999992E-03   5.88682853E-03
   2.70000007E-03   6.73801638E-03
   2.74999999E-03   7.60560529E-03
   2.79999990E-03   8.48938525E-03