  -3.99999991E-02   0.00000000    
  -3.99499983E-02   0.00000000    
  -3.99000011E-02   0.00000000    
  -3.98500003E-02   0.00000000    
  -3.97999994E-02   7.91253047E-23
  -3.97499986E-02   7.47072381E-22
  -3.97000015E-02   3.66793532E-21
  -3.96500006E-02   1.22403352E-20
  -3.95999998E-02   3.05262119E-20
  -3.95499989E-02   5.85088112E-20
  -3.95000018E-02   8.27395809E-20
  -3.94500010E-02   6.45495302E-20
  -3.94000001E-02  -6.78589894E-20
  -3.93499993E-02  -4.14564105E-19
  -3.92999984E-02  -1.07972454E-18
  -3.92500013E-02  -2.13036520E-18
  -3.92000005E-02  -3.55383013E-18
  -3.91499996E-02  -5.24003408E-18
  -3.90999988E-02  -7.01260397E-18
  -3.90500017E-02  -8.71323437E-18
  -3.90000008E-02  -1.03117295E-17
  -3.89500000E-02  -1.19871797E-17
  -3.88999991E-02  -1.41233827E-17
  -3.88499983E-02  -1.71935396E-17
  -3.88000011E-02  -2.15653612E-17
  -3.87500003E-02  -2.73107046E-17
  -3.86999995E-02  -3.41223815E-17
  -3.86499986E-02  -4.14067953E-17
  -3.86000015E-02  -4.85417344E-17
  -3.85500006E-02  -5.51969516E-17
  -3.84999998E-02  -6.15582518E-17
  -3.84499989E-02  -6.83124131E-17
  -3.84000018E-02  -7.63485522E-17
  -3.83500010E-02  -8.62747063E-17
  -3.83000001E-02  -9.79659778E-17
  -3.82499993E-02  -1.10382310E-16
  -3.81999984E-02  -1.21790156E-16
  -3.81500013E-02  -1.30333608E-16
  -3.81000005E-02  -1.34715270E-16
  -3.80499996E-02  -1.34667068E-16
  -3.79999988E-02  -1.30964330E-16
  -3.79500017E-02  -1.24940536E-16
  -3.79000008E-02  -1.17700747E-16
  -3.78500000E-02  -1.09392684E-16
  -3.77999991E-02  -9.88910701E-17
  -3.77499983E-02  -8.40693964E-17
  -3.77000012E-02  -6.25538199E-17
  -3.76500003E-02  -3.26131408E-17
  -3.75999995E-02   6.23637520E-18
  -3.75499986E-02   5.31930173E-17
  -3.75000015E-02   1.06695731E-16
  -3.74500006E-02   1.65238301E-16
  -3.73999998E-02   2.28075877E-16
  -3.73499990E-02   2.95521748E-16
  -3.73000018E-02   3.68766752E-16
  -3.72500010E-02   4.49387030E-16
  -3.72000001E-02   5.38804910E-16
  -3.71499993E-02   6.37897495E-16
  -3.70999984E-02   7.46768969E-16
  -3.70500013E-02   8.64560706E-16
  -3.70000005E-02   9.89180958E-16
  -3.69499996E-02   1.11701771E-15
  -3.68999988E-02   1.24293657E-15
  -3.68500017E-02   1.36095484E-15
  -3.68000008E-02   1.46575865E-15
  -3.67500000E-02   1.55469763E-15
  -3.66999991E-02   1.62933003E-15
  -3.66499983E-02   1.69538049E-15
  -3.66000012E-02   1.76042680E-15
  -3.65500003E-02   1.82969959E-15
  -3.64999995E-02   1.90161586E-15
  -3.64499986E-02   1.96537288E-15
  -3.64000015E-02   2.00253920E-15
  -3.63500006E-02   1.99299759E-15
  -3.62999998E-02   1.92337804E-15
  -3.62499990E-02   1.79429064E-15
  -3.62000018E-02   1.62235471E-15
  -3.61500010E-02   1.43474813E-15
  -3.61000001E-02   1.25737171E-15
  -3.60499993E-02   1.10129551E-15
  -3.59999985E-02   9.54082771E-16
  -3.59500013E-02   7.81434110E-16
  -3.59000005E-02   5.40373880E-16
  -3.58499996E-02   1.99474962E-16
  -3.57999988E-02  -2.42861393E-16
  -3.57500017E-02  -7.51741476E-16
  -3.57000008E-02  -1.26624501E-15
  -3.56500000E-02  -1.72479763E-15
  -3.55999991E-02  -2.09523277E-15
  -3.55499983E-02  -2.39512690E-15
  -3.55000012E-02  -2.69037739E-15
  -3.54500003E-02  -3.06893632E-15
  -3.53999995E-02  -3.59866056E-15
  -3.53499986E-02  -4.28779005E-15
  -3.53000015E-02  -5.06834107E-15
  -3.52500007E-02  -5.81452331E-15
  -3.51999998E-02  -6.39271605E-15
  -3.51499990E-02  -6.72329098E-15
  -3.51000018E-02  -6.82568837E-15
  -3.50500010E-02  -6.82211813E-15
  -3.50000001E-02  -6.89204070E-15
  -3.49499993E-02  -7.19261500E-15
  -3.48999985E-02  -7.77914635E-15
  -3.48500013E-02  -8.56432726E-15
  -3.48000005E-02  -9.34140714E-15
  -3.47499996E-02  -9.86854116E-15
  -3.46999988E-02  -9.98134392E-15
  -3.46500017E-02  -9.68254373E-15
  -3.46000008E-02  -9.16226645E-15
  -3.45500000E-02  -8.73035503E-15
  -3.44999991E-02  -8.68255442E-15
  -3.44499983E-02  -9.15718087E-15
  -3.44000012E-02  -1.00502814E-14
  -3.43500003E-02  -1.10371417E-14
  -3.42999995E-02  -1.17022015E-14
  -3.42499986E-02  -1.17274422E-14
  -3.42000015E-02  -1.10553207E-14
  -3.41500007E-02  -9.94514936E-15
  -3.40999998E-02  -8.88405170E-15
  -3.40499990E-02  -8.37932764E-15
  -3.40000018E-02  -8.71903783E-15
  -3.39500010E-02  -9.81216010E-15
  -3.39000002E-02  -1.11932372E-14
  -3.38499993E-02  -1.22062403E-14
  -3.37999985E-02  -1.22979435E-14
  -3.37500013E-02  -1.12914201E-14
  -3.37000005E-02  -9.50664548E-15
  -3.36499996E-02  -7.65496793E-15
  -3.35999988E-02  -6.53504511E-15
  -3.35500017E-02  -6.65558722E-15
  -3.35000008E-02  -7.95763398E-15
  -3.34500000E-02  -9.77859304E-15
  -3.33999991E-02  -1.10988184E-14
  -3.33499983E-02  -1.09808420E-14
  -3.33000012E-02  -9.01117695E-15
  -3.32500003E-02  -5.53551405E-15
  -3.31999995E-02  -1.55692470E-15
  -3.31499986E-02   1.68539619E-15
  -3.31000015E-02   3.28636099E-15
  -3.30500007E-02   3.13794960E-15
  -3.29999998E-02   2.05668642E-15
  -3.29499990E-02   1.48602105E-15
  -3.29000019E-02   2.87701919E-15
  -3.28500010E-02   7.01154011E-15
  -3.28000002E-02   1.35817083E-14
  -3.27499993E-02   2.12450076E-14
  -3.26999985E-02   2.81684838E-14
  -3.26500013E-02   3.28461623E-14
  -3.26000005E-02   3.48276400E-14
  -3.25499997E-02   3.50083867E-14
  -3.24999988E-02   3.53103573E-14
  -3.24500017E-02   3.78545258E-14
  -3.24000008E-02   4.39732479E-14
  -3.23500000E-02   5.35124821E-14
  -3.22999991E-02   6.47725620E-14
  -3.22499983E-02   7.51634676E-14
  -3.22000012E-02   8.23216752E-14
  -3.21500003E-02   8.52005031E-14
  -3.20999995E-02   8.46225555E-14
  -3.20499986E-02   8.29969435E-14
  -3.20000015E-02   8.32733608E-14
  -3.19500007E-02   8.75673977E-14
  -3.18999998E-02   9.60761893E-14
  -3.18499990E-02   1.06811993E-13
  -3.18000019E-02   1.16336492E-13
  -3.17500010E-02   1.21224157E-13
  -3.17000002E-02   1.19624091E-13
  -3.16499993E-02   1.12200078E-13
  -3.15999985E-02   1.01968611E-13
  -3.15500014E-02   9.30353478E-14
  -3.15000005E-02   8.87428762E-14
  -3.14499997E-02   9.00509458E-14
  -3.13999988E-02   9.49170213E-14
  -3.13500017E-02   9.90304776E-14
  -3.13000008E-02   9.76484383E-14
  -3.12500000E-02   8.77534536E-14
  -3.11999992E-02   6.95542799E-14
  -3.11500002E-02   4.65932428E-14
  -3.10999993E-02   2.43235319E-14
  -3.10500003E-02   7.71948982E-15
  -3.09999995E-02  -1.03393532E-15
  -3.09500005E-02  -3.69917542E-15
  -3.08999997E-02  -5.38556762E-15
  -3.08500007E-02  -1.23610152E-14
  -3.07999998E-02  -2.91908865E-14
  -3.07500008E-02  -5.64845412E-14
  -3.07000000E-02  -9.03251947E-14
  -3.06499992E-02  -1.23745117E-13
  -3.06000002E-02  -1.49685508E-13
  -3.05499993E-02  -1.64163442E-13
  -3.05000003E-02  -1.68200916E-13
  -3.04499995E-02  -1.67558757E-13
  -3.04000005E-02  -1.70276472E-13
  -3.03499997E-02  -1.83029034E-13
  -3.03000007E-02  -2.07912003E-13
  -3.02499998E-02  -2.41157842E-13
  -3.02000009E-02  -2.74479983E-13
  -3.01500000E-02  -2.98568950E-13
  -3.00999992E-02  -3.07251024E-13
  -3.00500002E-02  -3.00434509E-13
  -2.99999993E-02  -2.84425668E-13
  -2.99500003E-02  -2.69330267E-13
  -2.98999995E-02  -2.64580323E-13
  -2.98500005E-02  -2.74539587E-13
  -2.97999997E-02  -2.96207449E-13
  -2.97500007E-02  -3.20182981E-13
  -2.96999998E-02  -3.34615202E-13
  -2.96500009E-02  -3.30484175E-13
  -2.96000000E-02  -3.05863164E-13
  -2.95499992E-02  -2.67161212E-13
  -2.95000002E-02  -2.26627013E-13
  -2.94499993E-02  -1.97070496E-13
  -2.94000003E-02  -1.86077878E-13
  -2.93499995E-02  -1.92338780E-13
  -2.93000005E-02  -2.05865517E-13
  -2.92499997E-02  -2.12192148E-13
  -2.92000007E-02  -1.98826144E-13
  -2.91499998E-02  -1.61114869E-13
  -2.91000009E-02  -1.04822048E-13
  -2.90500000E-02  -4.40820984E-14
  -2.89999992E-02   4.55234596E-15
  -2.89500002E-02   2.94409442E-14
  -2.88999993E-02   2.92893422E-14
  -2.88500004E-02   1.41257609E-14
  -2.87999995E-02   1.17448254E-15
  -2.87500005E-02   7.27339569E-15
  -2.86999997E-02   4.11325366E-14
  -2.86500007E-02   9.89474616E-14
  -2.85999998E-02   1.65512013E-13
  -2.85500009E-02   2.20565767E-13
  -2.85000000E-02   2.47719922E-13
  -2.84499992E-02   2.42015257E-13
  -2.84000002E-02   2.12619663E-13
  -2.83499993E-02   1.79228648E-13
  -2.83000004E-02   1.63536665E-13
  -2.82499995E-02   1.79441843E-13
  -2.82000005E-02   2.26381170E-13
  -2.81499997E-02   2.88956088E-13
  -2.81000007E-02   3.43285377E-13
  -2.80499998E-02   3.67486017E-13
  -2.80000009E-02   3.51698813E-13
  -2.79500000E-02   3.03093569E-13
  -2.78999992E-02   2.43374900E-13
  -2.78500002E-02   1.99609955E-13
  -2.77999993E-02   1.92260501E-13
  -2.77500004E-02   2.25727870E-13
  -2.76999995E-02   2.85792711E-13
  -2.76500005E-02   3.45387239E-13
  -2.75999997E-02   3.76416427E-13
  -2.75500007E-02   3.62517660E-13
  -2.74999999E-02   3.07015725E-13
  -2.74500009E-02   2.32282184E-13
  -2.74000000E-02   1.70447993E-13
  -2.73499992E-02   1.49331881E-13
  -2.73000002E-02   1.79762631E-13
  -2.72499993E-02   2.50081341E-13
  -2.72000004E-02   3.30589560E-13
  -2.71499995E-02   3.86313784E-13
  -2.71000005E-02   3.92636498E-13
  -2.70499997E-02   3.46839717E-13
  -2.70000007E-02   2.70191719E-13
  -2.69499999E-02   1.99275302E-13
  -2.69000009E-02   1.70072994E-13
  -2.68500000E-02   2.01720693E-13
  -2.67999992E-02   2.87253077E-13
  -2.67500002E-02   3.95772120E-13
  -2.66999993E-02   4.85478519E-13
  -2.66500004E-02   5.22075818E-13
  -2.65999995E-02   4.94433650E-13
  -2.65500005E-02   4.20344044E-13
  -2.64999997E-02   3.39410981E-13
  -2.64500007E-02   2.95823289E-13
  -2.63999999E-02   3.18420827E-13
  -2.63500009E-02   4.06953551E-13
  -2.63000000E-02   5.30953482E-13
  -2.62499992E-02   6.42175983E-13
  -2.62000002E-02   6.95481324E-13
  -2.61499994E-02   6.69038392E-13
  -2.61000004E-02   5.74715785E-13
  -2.60499995E-02   4.53638510E-13
  -2.60000005E-02   3.58397041E-13
  -2.59499997E-02   3.29472669E-13
  -2.59000007E-02   3.76303670E-13
  -2.58499999E-02   4.71687088E-13
  -2.58000009E-02   5.62494712E-13
  -2.57500000E-02   5.92426173E-13
  -2.56999992E-02   5.26959607E-13
  -2.56500002E-02   3.69329540E-13
  -2.55999994E-02   1.60039110E-13
  -2.55500004E-02  -4.04247389E-14
  -2.54999995E-02  -1.78443943E-13
  -2.54500005E-02  -2.31907755E-13
  -2.53999997E-02  -2.21468229E-13
  -2.53500007E-02  -2.02897324E-13
  -2.52999999E-02  -2.43367772E-13
  -2.52500009E-02  -3.91804509E-13
  -2.52000000E-02  -6.56454708E-13
  -2.51499992E-02  -9.99996527E-13
  -2.51000002E-02  -1.35494220E-12
  -2.50499994E-02  -1.65304174E-12
  -2.50000004E-02  -1.85589478E-12
  -2.49499995E-02  -1.97303111E-12
  -2.49000005E-02  -2.05892942E-12
  -2.48499997E-02  -2.18966165E-12
  -2.48000007E-02  -2.42903267E-12
  -2.47499999E-02  -2.79913419E-12
  -2.47000009E-02  -3.26868459E-12
  -2.46500000E-02  -3.76495449E-12
  -2.45999992E-02  -4.20461626E-12
  -2.45500002E-02  -4.53021821E-12
  -2.44999994E-02  -4.73604446E-12
  -2.44500004E-02  -4.87140753E-12
  -2.43999995E-02  -5.01921768E-12
  -2.43500005E-02  -5.25873789E-12
  -2.42999997E-02  -5.62879908E-12
  -2.42500007E-02  -6.10804289E-12
  -2.41999999E-02  -6.62156094E-12
  -2.41500009E-02  -7.07171821E-12
  -2.41000000E-02  -7.38001067E-12
  -2.40499992E-02  -7.52144007E-12
  -2.40000002E-02  -7.53575501E-12
  -2.39499994E-02  -7.50985212E-12
  -2.39000004E-02  -7.53842561E-12
  -2.38499995E-02  -7.67998772E-12
  -2.38000005E-02  -7.92786670E-12
  -2.37499997E-02  -8.20969594E-12
  -2.37000007E-02  -8.41639172E-12
  -2.36499999E-02  -8.44843813E-12
  -2.36000009E-02  -8.25916852E-12
  -2.35500000E-02  -7.87551014E-12
  -2.34999992E-02  -7.38628776E-12
  -2.34500002E-02  -6.90245907E-12
  -2.33999994E-02  -6.50642127E-12
  -2.33500004E-02  -6.21287613E-12
  -2.32999995E-02  -5.95914984E-12
  -2.32500006E-02  -5.63009838E-12
  -2.31999997E-02  -5.10732168E-12
  -2.31500007E-02  -4.32124432E-12
  -2.30999999E-02  -3.28272479E-12
  -2.30500009E-02  -2.07953143E-12
  -2.30000000E-02  -8.38368220E-13
  -2.29499992E-02   3.31329528E-13
  -2.29000002E-02   1.38704770E-12
  -2.28499994E-02   2.37380081E-12
  -2.28000004E-02   3.40571299E-12
  -2.27499995E-02   4.61587539E-12
  -2.27000006E-02   6.09620731E-12
  -2.26499997E-02   7.85403513E-12
  -2.26000007E-02   9.80533363E-12
  -2.25499999E-02   1.18084587E-11
  -2.25000009E-02   1.37242431E-11
  -2.24500000E-02   1.54760614E-11
  -2.23999992E-02   1.70828976E-11
  -2.23500002E-02   1.86499843E-11
  -2.22999994E-02   2.03201761E-11
  -2.22500004E-02   2.22069932E-11
  -2.21999995E-02   2.43390030E-11
  -2.21500006E-02   2.66407365E-11
  -2.20999997E-02   2.89594425E-11
  -2.20500007E-02   3.11268511E-11
  -2.19999999E-02   3.30288574E-11
  -2.19500009E-02   3.46521457E-11
  -2.19000001E-02   3.60862555E-11
  -2.18499992E-02   3.74793044E-11
  -2.18000002E-02   3.89660977E-11
  -2.17499994E-02   4.06004050E-11
  -2.17000004E-02   4.23218266E-11
  -2.16499995E-02   4.39728046E-11
  -2.16000006E-02   4.53592545E-11
  -2.15499997E-02   4.63286007E-11
  -2.15000007E-02   4.68304631E-11
  -2.14499999E-02   4.69326591E-11
  -2.14000009E-02   4.67842189E-11
  -2.13500001E-02   4.65412639E-11
  -2.12999992E-02   4.62879422E-11
  -2.12500002E-02   4.59879912E-11
  -2.11999994E-02   4.54891055E-11
  -2.11500004E-02   4.45794096E-11
  -2.10999995E-02   4.30713659E-11
  -2.10500006E-02   4.08764897E-11
  -2.09999997E-02   3.80370006E-11
  -2.09500007E-02   3.46995072E-11
  -2.08999999E-02   3.10414749E-11
  -2.08500009E-02   2.71824976E-11
  -2.08000001E-02   2.31200042E-11
  -2.07499992E-02   1.87184747E-11
  -2.07000002E-02   1.37583148E-11
  -2.06499994E-02   8.02271357E-12
  -2.06000004E-02   1.38562762E-12
  -2.05499995E-02  -6.13980524E-12
  -2.05000006E-02  -1.44136474E-11
  -2.04499997E-02  -2.32386818E-11
  -2.04000007E-02  -3.24562842E-11
  -2.03499999E-02  -4.20264656E-11
  -2.03000009E-02  -5.20557590E-11
  -2.02500001E-02  -6.27597904E-11
  -2.01999992E-02  -7.43760747E-11
  -2.01500002E-02  -8.70653688E-11
  -2.00999994E-02  -1.00845311E-10
  -2.00500004E-02  -1.15586964E-10
  -1.99999996E-02  -1.31076067E-10
  -1.99500006E-02  -1.47113308E-10
  -1.98999997E-02  -1.63608960E-10
  -1.98500007E-02  -1.80629844E-10
  -1.97999999E-02  -1.98376440E-10
  -1.97500009E-02  -2.17099130E-10
  -1.97000001E-02  -2.36991649E-10
  -1.96499992E-02  -2.58107036E-10
  -1.96000002E-02  -2.80335227E-10
  -1.95499994E-02  -3.03452818E-10
  -1.95000004E-02  -3.27223748E-10
  -1.94499996E-02  -3.51507018E-10
  -1.94000006E-02  -3.76322390E-10
  -1.93499997E-02  -4.01845418E-10
  -1.93000007E-02  -4.28332786E-10
  -1.92499999E-02  -4.56009369E-10
  -1.92000009E-02  -4.84968232E-10
  -1.91500001E-02  -5.15128273E-10
  -1.90999992E-02  -5.46268197E-10
  -1.90500002E-02  -5.78123938E-10
  -1.89999994E-02  -6.10506201E-10
  -1.89500004E-02  -6.43385401E-10
  -1.88999996E-02  -6.76907475E-10
  -1.88500006E-02  -7.11329939E-10
  -1.87999997E-02  -7.46909035E-10
  -1.87500007E-02  -7.83785703E-10
  -1.86999999E-02  -8.21921031E-10
  -1.86500009E-02  -8.61112570E-10
  -1.86000001E-02  -9.01083430E-10
  -1.85499992E-02  -9.41605349E-10
  -1.85000002E-02  -9.82602999E-10
  -1.84499994E-02  -1.02419007E-09
  -1.84000004E-02  -1.06662268E-09
  -1.83499996E-02  -1.11018850E-09
  -1.83000006E-02  -1.15508159E-09
  -1.82499997E-02  -1.20131882E-09
  -1.82000007E-02  -1.24873323E-09
  -1.81499999E-02  -1.29705147E-09
  -1.81000009E-02  -1.34601952E-09
  -1.80500001E-02  -1.39552114E-09
  -1.79999992E-02  -1.44563794E-09
  -1.79500002E-02  -1.49662116E-09
  -1.78999994E-02  -1.54878921E-09
  -1.78500004E-02  -1.60239588E-09
  -1.77999996E-02  -1.65752512E-09
  -1.77500006E-02  -1.71406400E-09
  -1.76999997E-02  -1.77176174E-09
  -1.76500008E-02  -1.83035265E-09
  -1.75999999E-02  -1.88968818E-09
  -1.75500009E-02  -1.94981786E-09
  -1.75000001E-02  -2.01098449E-09
  -1.74499992E-02  -2.07353312E-09
  -1.74000002E-02  -2.13777773E-09
  -1.73499994E-02  -2.20387752E-09
  -1.73000004E-02  -2.27178654E-09
  -1.72499996E-02  -2.34129205E-09
  -1.72000006E-02  -2.41213138E-09
  -1.71499997E-02  -2.48413135E-09
  -1.71000008E-02  -2.55730903E-09
  -1.70499999E-02  -2.63189226E-09
  -1.70000009E-02  -2.70824496E-09
  -1.69500001E-02  -2.78673573E-09
  -1.68999992E-02  -2.86760149E-09
  -1.68500002E-02  -2.95087244E-09
  -1.67999994E-02  -3.03638914E-09
  -1.67500004E-02  -3.12390402E-09
  -1.66999996E-02  -3.21322569E-09
  -1.66500006E-02  -3.30433991E-09
  -1.65999997E-02  -3.39745077E-09
  -1.65500008E-02  -3.49292995E-09
  -1.64999999E-02  -3.59119046E-09
  -1.64500009E-02  -3.69254294E-09
  -1.64000001E-02  -3.79709775E-09
  -1.63499992E-02  -3.90475430E-09
  -1.63000003E-02  -4.01529165E-09
  -1.62499994E-02  -4.12850820E-09
  -1.62000004E-02  -4.24435331E-09
  -1.61499996E-02  -4.36300018E-09
  -1.61000006E-02  -4.48481341E-09
  -1.60499997E-02  -4.61023708E-09
  -1.60000008E-02  -4.73964645E-09
  -1.59499999E-02  -4.87322982E-09
  -1.59000009E-02  -5.01095343E-09
  -1.58500001E-02  -5.15263165E-09
  -1.57999992E-02  -5.29805755E-09
  -1.57500003E-02  -5.44714984E-09
  -1.56999994E-02  -5.60003910E-09
  -1.56500004E-02  -5.75707260E-09
  -1.55999996E-02  -5.91870730E-09
  -1.55499997E-02  -6.08537354E-09
  -1.54999997E-02  -6.25733332E-09
  -1.54499998E-02  -6.43462572E-09
  -1.53999999E-02  -6.61710819E-09
  -1.53500000E-02  -6.80457646E-09
  -1.53000001E-02  -6.99691860E-09
  -1.52500002E-02  -7.19422033E-09
  -1.52000003E-02  -7.39679562E-09
  -1.51500003E-02  -7.60510144E-09
  -1.51000004E-02  -7.81960541E-09
  -1.50499996E-02  -8.04064193E-09
  -1.49999997E-02  -8.26832380E-09
  -1.49499997E-02  -8.50256399E-09
  -1.48999998E-02  -8.74317330E-09
  -1.48499999E-02  -8.99001940E-09
  -1.48000000E-02  -9.24314758E-09
  -1.47500001E-02  -9.50282875E-09
  -1.47000002E-02  -9.76951497E-09
  -1.46500003E-02  -1.00437054E-08
  -1.46000003E-02  -1.03257953E-08
  -1.45500004E-02  -1.06159819E-08
  -1.44999996E-02  -1.09142366E-08
  -1.44499997E-02  -1.12204050E-08
  -1.43999998E-02  -1.15343486E-08
  -1.43499998E-02  -1.18560752E-08
  -1.42999999E-02  -1.21858248E-08
  -1.42500000E-02  -1.25240325E-08
  -1.42000001E-02  -1.28712205E-08
  -1.41500002E-02  -1.32278499E-08
  -1.41000003E-02  -1.35941995E-08
  -1.40500003E-02  -1.39703253E-08
  -1.40000004E-02  -1.43561270E-08
  -1.39499996E-02  -1.47514791E-08
  -1.38999997E-02  -1.51563775E-08
  -1.38499998E-02  -1.55710307E-08
  -1.37999998E-02  -1.59958695E-08
  -1.37499999E-02  -1.64314393E-08
  -1.37000000E-02  -1.68782570E-08
  -1.36500001E-02  -1.73366939E-08
  -1.36000002E-02  -1.78069062E-08
  -1.35500003E-02  -1.82888726E-08
  -1.35000004E-02  -1.87825187E-08
  -1.34500004E-02  -1.92878424E-08
  -1.33999996E-02  -1.98050447E-08
  -1.33499997E-02  -2.03345376E-08
  -1.32999998E-02  -2.08768842E-08
  -1.32499998E-02  -2.14326832E-08
  -1.31999999E-02  -2.20024070E-08
  -1.31500000E-02  -2.25863221E-08
  -1.31000001E-02  -2.31845210E-08
  -1.30500002E-02  -2.37969822E-08
  -1.30000003E-02  -2.44237377E-08
  -1.29500004E-02  -2.50649936E-08
  -1.29000004E-02  -2.57211781E-08
  -1.28499996E-02  -2.63928825E-08
  -1.27999997E-02  -2.70807643E-08
  -1.27499998E-02  -2.77853918E-08
  -1.26999998E-02  -2.85071700E-08
  -1.26499999E-02  -2.92463032E-08
  -1.26000000E-02  -3.00028766E-08
  -1.25500001E-02  -3.07769845E-08
  -1.25000002E-02  -3.15688595E-08
  -1.24500003E-02  -3.23789422E-08
  -1.24000004E-02  -3.32078542E-08
  -1.23500004E-02  -3.40563240E-08
  -1.22999996E-02  -3.49250335E-08
  -1.22499997E-02  -3.58145158E-08
  -1.21999998E-02  -3.67251189E-08
  -1.21499998E-02  -3.76570490E-08
  -1.20999999E-02  -3.86104801E-08
  -1.20500000E-02  -3.95856823E-08
  -1.20000001E-02  -4.05831209E-08
  -1.19500002E-02  -4.16034709E-08
  -1.19000003E-02  -4.26475104E-08
  -1.18500004E-02  -4.37160281E-08
  -1.18000004E-02  -4.48097062E-08
  -1.17499996E-02  -4.59290419E-08
  -1.16999997E-02  -4.70743693E-08
  -1.16499998E-02  -4.82459726E-08
  -1.15999999E-02  -4.94441892E-08
  -1.15499999E-02  -5.06695486E-08
  -1.15000000E-02  -5.19227328E-08
  -1.14500001E-02  -5.32045803E-08
  -1.14000002E-02  -5.45159828E-08
  -1.13500003E-02  -5.58577540E-08
  -1.13000004E-02  -5.72305652E-08
  -1.12500004E-02  -5.86348960E-08
  -1.11999996E-02  -6.00711374E-08
  -1.11499997E-02  -6.15397298E-08
  -1.10999998E-02  -6.30412060E-08
  -1.10499999E-02  -6.45762910E-08
  -1.09999999E-02  -6.61459012E-08
  -1.09500000E-02  -6.77510101E-08
  -1.09000001E-02  -6.93925841E-08
  -1.08500002E-02  -7.10714119E-08
  -1.08000003E-02  -7.27881471E-08
  -1.07500004E-02  -7.45433155E-08
  -1.07000005E-02  -7.63374643E-08
  -1.06499996E-02  -7.81711904E-08
  -1.05999997E-02  -8.00452753E-08
  -1.05499998E-02  -8.19606925E-08
  -1.04999999E-02  -8.39185006E-08
  -1.04499999E-02  -8.59197442E-08
  -1.04000000E-02  -8.79654038E-08
  -1.03500001E-02  -9.00562682E-08
  -1.03000002E-02  -9.21930408E-08
  -1.02500003E-02  -9.43763467E-08
  -1.02000004E-02  -9.66068470E-08
  -1.01500005E-02  -9.88853728E-08
  -1.00999996E-02  -1.01212926E-07
  -1.00499997E-02  -1.03590637E-07
  -9.99999978E-03  -1.06019684E-07
  -9.94999986E-03  -1.08501169E-07
  -9.89999995E-03  -1.11036080E-07
  -9.85000003E-03  -1.13625212E-07
  -9.80000012E-03  -1.16269362E-07
  -9.75000020E-03  -1.18969261E-07
  -9.70000029E-03  -1.21725790E-07
  -9.65000037E-03  -1.24540009E-07
  -9.60000046E-03  -1.27413131E-07
  -9.54999961E-03  -1.30346436E-07
  -9.49999969E-03  -1.33341146E-07
  -9.44999978E-03  -1.36398398E-07
  -9.39999986E-03  -1.39519216E-07
  -9.34999995E-03  -1.42704522E-07
  -9.30000003E-03  -1.45955156E-07
  -9.25000012E-03  -1.49272054E-07
  -9.20000020E-03  -1.52656341E-07
  -9.15000029E-03  -1.56109223E-07
  -9.10000037E-03  -1.59632037E-07
  -9.05000046E-03  -1.63226161E-07
  -8.99999961E-03  -1.66892860E-07
  -8.94999970E-03  -1.70633385E-07
  -8.89999978E-03  -1.74448786E-07
  -8.84999987E-03  -1.78340017E-07
  -8.79999995E-03  -1.82308042E-07
  -8.75000004E-03  -1.86354058E-07
  -8.70000012E-03  -1.90479284E-07
  -8.65000021E-03  -1.94685171E-07
  -8.60000029E-03  -1.98973126E-07
  -8.55000038E-03  -2.03344683E-07
  -8.50000046E-03  -2.07801193E-07
  -8.44999962E-03  -2.12343849E-07
  -8.39999970E-03  -2.16973817E-07
  -8.34999979E-03  -2.21692133E-07
  -8.29999987E-03  -2.26500021E-07
  -8.24999996E-03  -2.31398744E-07
  -8.20000004E-03  -2.36389823E-07
  -8.15000013E-03  -2.41474822E-07
  -8.10000021E-03  -2.46655389E-07
  -8.05000030E-03  -2.51932960E-07
  -8.00000038E-03  -2.57308926E-07
  -7.95000046E-03  -2.62784567E-07
  -7.89999962E-03  -2.68361077E-07
  -7.84999970E-03  -2.74039593E-07
  -7.79999979E-03  -2.79821506E-07
  -7.74999987E-03  -2.85708325E-07
  -7.69999996E-03  -2.91701667E-07
  -7.65000004E-03  -2.97803211E-07
  -7.60000013E-03  -3.04014577E-07
  -7.55000021E-03  -3.10337327E-07
  -7.49999983E-03  -3.16772770E-07
  -7.44999992E-03  -3.23322354E-07
  -7.40000000E-03  -3.29987245E-07
  -7.35000009E-03  -3.36768835E-07
  -7.30000017E-03  -3.43668631E-07
  -7.24999979E-03  -3.50688168E-07
  -7.19999988E-03  -3.57829265E-07
  -7.14999996E-03  -3.65093797E-07
  -7.10000005E-03  -3.72483441E-07
  -7.05000013E-03  -3.79999818E-07
  -7.00000022E-03  -3.87644320E-07
  -6.94999984E-03  -3.95418283E-07
  -6.89999992E-03  -4.03322844E-07
  -6.85000001E-03  -4.11359593E-07
  -6.80000009E-03  -4.19530153E-07
  -6.75000018E-03  -4.27836341E-07
  -6.69999979E-03  -4.36280004E-07
  -6.64999988E-03  -4.44863048E-07
  -6.59999996E-03  -4.53587091E-07
  -6.55000005E-03  -4.62453670E-07
  -6.50000013E-03  -4.71464176E-07
  -6.45000022E-03  -4.80619747E-07
  -6.39999984E-03  -4.89921945E-07
  -6.34999992E-03  -4.99372391E-07
  -6.30000001E-03  -5.08972846E-07
  -6.25000009E-03  -5.18725187E-07
  -6.20000018E-03  -5.28631290E-07
  -6.14999980E-03  -5.38692973E-07
  -6.09999988E-03  -5.48911942E-07
  -6.04999997E-03  -5.59289504E-07
  -6.00000005E-03  -5.69827137E-07
  -5.95000014E-03  -5.80526205E-07
  -5.90000022E-03  -5.91388243E-07
  -5.84999984E-03  -6.02414900E-07
  -5.79999993E-03  -6.13608222E-07
  -5.75000001E-03  -6.24970028E-07
  -5.70000010E-03  -6.36501909E-07
  -5.65000018E-03  -6.48206083E-07
  -5.59999980E-03  -6.60083629E-07
  -5.54999989E-03  -6.72135968E-07
  -5.49999997E-03  -6.84364409E-07
  -5.45000006E-03  -6.96770371E-07
  -5.40000014E-03  -7.09355447E-07
  -5.35000023E-03  -7.22121285E-07
  -5.29999984E-03  -7.35069932E-07
  -5.24999993E-03  -7.48203320E-07
  -5.20000001E-03  -7.61523268E-07
  -5.15000010E-03  -7.75031197E-07
  -5.10000018E-03  -7.88728187E-07
  -5.04999980E-03  -8.02615546E-07
  -4.99999989E-03  -8.16694410E-07
  -4.94999997E-03  -8.30966371E-07
  -4.90000006E-03  -8.45433192E-07
  -4.85000014E-03  -8.60096804E-07
  -4.80000023E-03  -8.74958857E-07
  -4.74999985E-03  -8.90021226E-07
  -4.69999993E-03  -9.05285333E-07
  -4.65000002E-03  -9.20752427E-07
  -4.60000010E-03  -9.36423248E-07
  -4.55000019E-03  -9.52298819E-07
  -4.49999981E-03  -9.68380391E-07
  -4.44999989E-03  -9.84669555E-07
  -4.39999998E-03  -1.00116802E-06
  -4.35000006E-03  -1.01787748E-06
  -4.30000015E-03  -1.03479977E-06
  -4.25000023E-03  -1.05193612E-06
  -4.19999985E-03  -1.06928735E-06
  -4.14999994E-03  -1.08685413E-06
  -4.10000002E-03  -1.10463714E-06
  -4.05000011E-03  -1.12263751E-06
  -4.00000019E-03  -1.14085640E-06
  -3.94999981E-03  -1.15929515E-06
  -3.89999989E-03  -1.17795560E-06
  -3.84999998E-03  -1.19683943E-06
  -3.80000006E-03  -1.21594792E-06
  -3.74999992E-03  -1.23528139E-06
  -3.70000000E-03  -1.25484030E-06
  -3.65000009E-03  -1.27462454E-06
  -3.59999994E-03  -1.29463479E-06
  -3.55000002E-03  -1.31487207E-06
  -3.50000011E-03  -1.33533763E-06
  -3.44999996E-03  -1.35603295E-06
  -3.40000005E-03  -1.37695906E-06
  -3.34999990E-03  -1.39811721E-06
  -3.29999998E-03  -1.41950750E-06
  -3.25000007E-03  -1.44112948E-06
  -3.19999992E-03  -1.46298294E-06
  -3.15000000E-03  -1.48506774E-06
  -3.10000009E-03  -1.50738413E-06
  -3.04999994E-03  -1.52993289E-06
  -3.00000003E-03  -1.55271562E-06
  -2.95000011E-03  -1.57573311E-06
  -2.89999996E-03  -1.59898570E-06
  -2.85000005E-03  -1.62247318E-06
  -2.79999990E-03  -1.64619439E-06
  -2.74999999E-03  -1.67014878E-06
  -2.70000007E-03  -1.69433520E-06
  -2.64999992E-03  -1.71875308E-06
  -2.60000001E-03  -1.74340300E-06
  -2.55000009E-03  -1.76828553E-06
  -2.49999994E-03  -1.79340111E-06
  -2.45000003E-03  -1.81874998E-06
  -2.40000011E-03  -1.84433156E-06
  -2.34999997E-03  -1.87014473E-06
  -2.30000005E-03  -1.89618686E-06
  -2.24999990E-03  -1.92245625E-06
  -2.19999999E-03  -1.94895142E-06
  -2.15000007E-03  -1.97567169E-06
  -2.09999993E-03  -2.00261775E-06
  -2.05000001E-03  -2.02978913E-06
  -2.00000009E-03  -2.05718470E-06
  -1.94999995E-03  -2.08480401E-06
  -1.90000003E-03  -2.11264410E-06
  -1.85000000E-03  -2.14070201E-06
  -1.79999997E-03  -2.16897570E-06
  -1.75000005E-03  -2.19746221E-06
  -1.70000002E-03  -2.22616018E-06
  -1.64999999E-03  -2.25506915E-06
  -1.59999996E-03  -2.28418730E-06
  -1.55000004E-03  -2.31351373E-06
  -1.50000001E-03  -2.34304662E-06
  -1.44999998E-03  -2.37278255E-06
  -1.39999995E-03  -2.40271720E-06
  -1.35000004E-03  -2.43284649E-06
  -1.30000000E-03  -2.46316722E-06
  -1.24999997E-03  -2.49367622E-06
  -1.20000006E-03  -2.52437212E-06
  -1.15000003E-03  -2.55525288E-06
  -1.09999999E-03  -2.58631644E-06
  -1.04999996E-03  -2.61755940E-06
  -1.00000005E-03  -2.64897812E-06
  -9.50000016E-04  -2.68056715E-06
  -8.99999985E-04  -2.71232079E-06
  -8.50000011E-04  -2.74423360E-06
  -7.99999980E-04  -2.77630147E-06
  -7.50000007E-04  -2.80852169E-06
  -6.99999975E-04  -2.84089128E-06
  -6.50000002E-04  -2.87340731E-06
  -6.00000028E-04  -2.90606613E-06
  -5.49999997E-04  -2.93886160E-06
  -5.00000024E-04  -2.97178849E-06
  -4.49999992E-04  -3.00483862E-06
  -3.99999990E-04  -3.03800539E-06
  -3.49999988E-04  -3.07128198E-06
  -3.00000014E-04  -3.10466430E-06
  -2.50000012E-04  -3.13814803E-06
  -1.99999995E-04  -3.17172999E-06
  -1.50000007E-04  -3.20540516E-06
  -9.99999975E-05  -3.23916674E-06
  -4.99999987E-05  -3.27300745E-06
   0.00000000      -3.30691751E-06
   4.99999987E-05  -3.34088850E-06
   9.99999975E-05  -3.37491315E-06
   1.50000007E-04  -3.40898487E-06
   1.99999995E-04  -3.44309797E-06
   2.50000012E-04  -3.47724699E-06
   3.00000014E-04  -3.51142603E-06
   3.49999988E-04  -3.54562712E-06
   3.99999990E-04  -3.57984186E-06
   4.49999992E-04  -3.61405841E-06
   5.00000024E-04  -3.64826747E-06
   5.49999997E-04  -3.68245901E-06
   6.00000028E-04  -3.71662441E-06
   6.50000002E-04  -3.75075660E-06
   6.99999975E-04  -3.78484879E-06
   7.50000007E-04  -3.81889413E-06
   7.99999980E-04  -3.85288240E-06
   8.50000011E-04  -3.88680292E-06
   8.99999985E-04  -3.92064476E-06
   9.50000016E-04  -3.95439429E-06
   1.00000005E-03  -3.98804059E-06
   1.04999996E-03  -4.02157320E-06
   1.09999999E-03  -4.05498349E-06
   1.15000003E-03  -4.08826145E-06
   1.20000006E-03  -4.12139889E-06
   1.24999997E-03  -4.15438626E-06
   1.30000000E-03  -4.18721083E-06
   1.35000004E-03  -4.21985851E-06
   1.39999995E-03  -4.25231519E-06
   1.44999998E-03  -4.28456769E-06
   1.50000001E-03  -4.31660283E-06
   1.55000004E-03  -4.34841013E-06
   1.59999996E-03  -4.37997915E-06
   1.64999999E-03  -4.41129851E-06
   1.70000002E-03  -4.44235729E-06
   1.75000005E-03  -4.47314051E-06
   1.79999997E-03  -4.50363405E-06
   1.85000000E-03  -4.53382199E-06
   1.90000003E-03  -4.56368844E-06
   1.94999995E-03  -4.59321836E-06
   2.00000009E-03  -4.62239814E-06
   2.05000001E-03  -4.65121593E-06
   2.09999993E-03  -4.67965947E-06
   2.15000007E-03  -4.70771465E-06
   2.19999999E-03  -4.73536647E-06
   2.24999990E-03  -4.76259993E-06
   2.30000005E-03  -4.78939683E-06
   2.34999997E-03  -4.81573852E-06
   2.40000011E-03  -4.84160910E-06
   2.45000003E-03  -4.86699355E-06
   2.49999994E-03  -4.89187687E-06
   2.55000009E-03  -4.91624451E-06
   2.60000001E-03  -4.94008236E-06
   2.64999992E-03  -4.96337452E-06
   2.70000007E-03  -4.98610098E-06
   2.74999999E-03  -5.00824353E-06
   2.79999990E-03  -5.02978219E-06