  -3.99999991E-02   0.00000000    
  -3.99499983E-02   0.00000000    
  -3.99000011E-02   0.00000000    
  -3.98500003E-02   0.00000000    
  -3.97999994E-02   1.08401123E-20
  -3.97499986E-02   3.17333431E-20
  -3.97000015E-02  -5.35916166E-20
  -3.96500006E-02  -5.81290319E-19
  -3.95999998E-02  -2.06730530E-18
  -3.95499989E-02  -5.07651206E-18
  -3.95000018E-02  -1.02633741E-17
  -3.94500010E-02  -1.86007955E-17
  -3.94000001E-02  -3.12619314E-17
  -3.93499993E-02  -4.86391233E-17
  -3.92999984E-02  -6.90145637E-17
  -3.92500013E-02  -8.84083823E-17
  -3.92000005E-02  -1.02542662E-16
  -3.91499996E-02  -1.09724913E-16
  -3.90999988E-02  -1.12022450E-16
  -3.90500017E-02  -1.13351683E-16
  -3.90000008E-02  -1.16012941E-16
  -3.89500000E-02  -1.18477807E-16
  -3.88999991E-02  -1.15344976E-16
  -3.88499983E-02  -9.78049687E-17
  -3.88000011E-02  -5.32725159E-17
  -3.87500003E-02   3.42158397E-17
  -3.86999995E-02   1.80115945E-16
  -3.86499986E-02   3.92902744E-16
  -3.86000015E-02   6.70895728E-16
  -3.85500006E-02   1.00788906E-15
  -3.84999998E-02   1.40573355E-15
  -3.84499989E-02   1.88458520E-15
  -3.84000018E-02   2.48243122E-15
  -3.83500010E-02   3.24451291E-15
  -3.83000001E-02   4.21100947E-15
  -3.82499993E-02   5.40992744E-15
  -3.81999984E-02   6.85461116E-15
  -3.81500013E-02   8.54190714E-15
  -3.81000005E-02   1.04519580E-14
  -3.80499996E-02   1.25559429E-14
  -3.79999988E-02   1.48338559E-14
  -3.79500017E-02   1.72925097E-14
  -3.79000008E-02   1.99683308E-14
  -3.78500000E-02   2.29096900E-14
  -3.77999991E-02   2.61513342E-14
  -3.77499983E-02   2.97003633E-14
  -3.77000012E-02   3.35409631E-14
  -3.76500003E-02   3.76474466E-14
  -3.75999995E-02   4.19906182E-14
  -3.75499986E-02   4.65352888E-14
  -3.75000015E-02   5.12390796E-14
  -3.74500006E-02   5.60590359E-14
  -3.73999998E-02   6.09580339E-14
  -3.73499990E-02   6.58972388E-14
  -3.73000018E-02   7.08143735E-14
  -3.72500010E-02   7.56046430E-14
  -3.72000001E-02   8.01206500E-14
  -3.71499993E-02   8.41879667E-14
  -3.70999984E-02   8.76171897E-14
  -3.70500013E-02   9.02025511E-14
  -3.70000005E-02   9.17213151E-14
  -3.69499996E-02   9.19580303E-14
  -3.68999988E-02   9.07559211E-14
  -3.68500017E-02   8.80640572E-14
  -3.68000008E-02   8.39397182E-14
  -3.67500000E-02   7.84929508E-14
  -3.66999991E-02   7.17985851E-14
  -3.66499983E-02   6.38170479E-14
  -3.66000012E-02   5.43517800E-14
  -3.65500003E-02   4.30529161E-14
  -3.64999995E-02   2.94704243E-14
  -3.64499986E-02   1.31571262E-14
  -3.64000015E-02  -6.20024941E-15
  -3.63500006E-02  -2.86812911E-14
  -3.62999998E-02  -5.41348311E-14
  -3.62499990E-02  -8.23105418E-14
  -3.62000018E-02  -1.13058393E-13
  -3.61500010E-02  -1.46473139E-13
  -3.61000001E-02  -1.82878344E-13
  -3.60499993E-02  -2.22633693E-13
  -3.59999985E-02  -2.65850493E-13
  -3.59500013E-02  -3.12150615E-13
  -3.59000005E-02  -3.60592686E-13
  -3.58499996E-02  -4.09831674E-13
  -3.57999988E-02  -4.58496251E-13
  -3.57500017E-02  -5.05670538E-13
  -3.57000008E-02  -5.51275984E-13
  -3.56500000E-02  -5.96129537E-13
  -3.55999991E-02  -6.41556307E-13
  -3.55499983E-02  -6.88654320E-13
  -3.55000012E-02  -7.37524354E-13
  -3.54500003E-02  -7.86852463E-13
  -3.53999995E-02  -8.34099337E-13
  -3.53499986E-02  -8.76269760E-13
  -3.53000015E-02  -9.10950026E-13
  -3.52500007E-02  -9.37162674E-13
  -3.51999998E-02  -9.55623926E-13
  -3.51499990E-02  -9.68218778E-13
  -3.51000018E-02  -9.76825717E-13
  -3.50500010E-02  -9.81959306E-13
  -3.50000001E-02  -9.81867148E-13
  -3.49499993E-02  -9.72618795E-13
  -3.48999985E-02  -9.49305630E-13
  -3.48500013E-02  -9.07913176E-13
  -3.48000005E-02  -8.47012456E-13
  -3.47499996E-02  -7.68414575E-13
  -3.46999988E-02  -6.76360877E-13
  -3.46500017E-02  -5.75507524E-13
  -3.46000008E-02  -4.68561225E-13
  -3.45500000E-02  -3.54656842E-13
  -3.44999991E-02  -2.29325429E-13
  -3.44499983E-02  -8.62474222E-14
  -3.44000012E-02   7.98288776E-14
  -3.43500003E-02   2.70273035E-13
  -3.42999995E-02   4.81260051E-13
  -3.42499986E-02   7.04812023E-13
  -3.42000015E-02   9.31977911E-13
  -3.41500007E-02   1.15682377E-12
  -3.40999998E-02   1.37933664E-12
  -3.40499990E-02   1.60568574E-12
  -3.40000018E-02   1.84543266E-12
  -3.39500010E-02   2.10672083E-12
  -3.39000002E-02   2.39153033E-12
  -3.38499993E-02   2.69323474E-12
  -3.37999985E-02   2.99783961E-12
  -3.37500013E-02   3.28870915E-12
  -3.37000005E-02   3.55292466E-12
  -3.36499996E-02   3.78645075E-12
  -3.35999988E-02   3.99551746E-12
  -3.35500017E-02   4.19318790E-12
  -3.35000008E-02   4.39230553E-12
  -3.34500000E-02   4.59791450E-12
  -3.33999991E-02   4.80275975E-12
  -3.33499983E-02   4.98829450E-12
  -3.33000012E-02   5.13116329E-12
  -3.32500003E-02   5.21252356E-12
  -3.31999995E-02   5.22604312E-12
  -3.31499986E-02   5.18072044E-12
  -3.31000015E-02   5.09677326E-12
  -3.30500007E-02   4.99593596E-12
  -3.29999998E-02   4.89025140E-12
  -3.29499990E-02   4.77453580E-12
  -3.29000019E-02   4.62641904E-12
  -3.28500010E-02   4.41456463E-12
  -3.28000002E-02   4.11180291E-12
  -3.27499993E-02   3.70729879E-12
  -3.26999985E-02   3.21189689E-12
  -3.26500013E-02   2.65369541E-12
  -3.26000005E-02   2.06533879E-12
  -3.25499997E-02   1.46852311E-12
  -3.24999988E-02   8.62883495E-13
  -3.24500017E-02   2.24843581E-13
  -3.24000008E-02  -4.82257734E-13
  -3.23500000E-02  -1.29065953E-12
  -3.22999991E-02  -2.21099246E-12
  -3.22499983E-02  -3.22361820E-12
  -3.22000012E-02  -4.28331372E-12
  -3.21500003E-02  -5.33614515E-12
  -3.20999995E-02  -6.34145514E-12
  -3.20499986E-02  -7.28897411E-12
  -3.20000015E-02  -8.20271542E-12
  -3.19500007E-02  -9.12902913E-12
  -3.18999998E-02  -1.01134309E-11
  -3.18499990E-02  -1.11763177E-11
  -3.18000019E-02  -1.22987237E-11
  -3.17500010E-02  -1.34253294E-11
  -3.17000002E-02  -1.44843712E-11
  -3.16499993E-02  -1.54162776E-11
  -3.15999985E-02  -1.61981886E-11
  -3.15500014E-02  -1.68526339E-11
  -3.15000005E-02  -1.74354333E-11
  -3.14499997E-02  -1.80072623E-11
  -3.13999988E-02  -1.86014103E-11
  -3.13500017E-02  -1.92025753E-11
  -3.13000008E-02  -1.97472975E-11
  -3.12500000E-02  -2.01468633E-11
  -3.11999992E-02  -2.03232466E-11
  -3.11500002E-02  -2.02421239E-11
  -3.10999993E-02  -1.99275822E-11
  -3.10500003E-02  -1.94508645E-11
  -3.09999995E-02  -1.88969951E-11
  -3.09500005E-02  -1.83236776E-11
  -3.08999997E-02  -1.77311638E-11
  -3.08500007E-02  -1.70577736E-11
  -3.07999998E-02  -1.62044683E-11
  -3.07500008E-02  -1.50783240E-11
  -3.07000000E-02  -1.36355883E-11
  -3.06499992E-02  -1.19041643E-11
  -3.06000002E-02  -9.97423758E-12
  -3.05499993E-02  -7.96001112E-12
  -3.05000003E-02  -5.94896051E-12
  -3.04499995E-02  -3.96149129E-12
  -3.04000005E-02  -1.94013859E-12
  -3.03499997E-02   2.25293715E-13
  -3.03000007E-02   2.64643624E-12
  -3.02499998E-02   5.38127182E-12
  -3.02000009E-02   8.40050859E-12
  -3.01500000E-02   1.15918906E-11
  -3.00999992E-02   1.48020936E-11
  -3.00500002E-02   1.78984483E-11
  -2.99999993E-02   2.08229024E-11
  -2.99500003E-02   2.36132624E-11
  -2.98999995E-02   2.63809443E-11
  -2.98500005E-02   2.92539673E-11
  -2.97999997E-02   3.23100678E-11
  -2.97500007E-02   3.55300997E-11
  -2.96999998E-02   3.87938223E-11
  -2.96500009E-02   4.19215600E-11
  -2.96000000E-02   4.47445483E-11
  -2.95499992E-02   4.71728594E-11
  -2.95000002E-02   4.92297349E-11
  -2.94499993E-02   5.10355473E-11
  -2.94000003E-02   5.27471573E-11
  -2.93499995E-02   5.44789804E-11
  -2.93000005E-02   5.62412686E-11
  -2.92499997E-02   5.79241273E-11
  -2.92000007E-02   5.93356267E-11
  -2.91499998E-02   6.02781575E-11
  -2.91000009E-02   6.06295361E-11
  -2.90500000E-02   6.03921982E-11
  -2.89999992E-02   5.96873870E-11
  -2.89500002E-02   5.86953472E-11
  -2.88999993E-02   5.75673051E-11
  -2.88500004E-02   5.63487035E-11
  -2.87999995E-02   5.49492535E-11
  -2.87500005E-02   5.31749367E-11
  -2.86999997E-02   5.08091971E-11
  -2.86500007E-02   4.77077475E-11
  -2.85999998E-02   4.38646307E-11
  -2.85500009E-02   3.94189126E-11
  -2.85000000E-02   3.45974846E-11
  -2.84499992E-02   2.96180684E-11
  -2.84000002E-02   2.45946319E-11
  -2.83499993E-02   1.94878211E-11
  -2.83000004E-02   1.41236623E-11
  -2.82499995E-02   8.27402383E-12
  -2.82000005E-02   1.76421996E-12
  -2.81499997E-02  -5.43983131E-12
  -2.81000007E-02  -1.32044176E-11
  -2.80499998E-02  -2.12741387E-11
  -2.80000009E-02  -2.93720256E-11
  -2.79500000E-02  -3.73098774E-11
  -2.78999992E-02  -4.50598794E-11
  -2.78500002E-02  -5.27548491E-11
  -2.77999993E-02  -6.06157971E-11
  -2.77500004E-02  -6.88374566E-11
  -2.76999995E-02  -7.74817918E-11
  -2.76500005E-02  -8.64269697E-11
  -2.75999997E-02  -9.53958093E-11
  -2.75500007E-02  -1.04052586E-10
  -2.74999999E-02  -1.12126877E-10
  -2.74500009E-02  -1.19509930E-10
  -2.74000000E-02  -1.26280666E-10
  -2.73499992E-02  -1.32648836E-10
  -2.73000002E-02  -1.38839287E-10
  -2.72499993E-02  -1.44968107E-10
  -2.72000004E-02  -1.50965393E-10
  -2.71499995E-02  -1.56579263E-10
  -2.71000005E-02  -1.61460942E-10
  -2.70499997E-02  -1.65295111E-10
  -2.70000007E-02  -1.67918818E-10
  -2.69499999E-02  -1.69376208E-10
  -2.69000009E-02  -1.69883815E-10
  -2.68500000E-02  -1.69719502E-10
  -2.67999992E-02  -1.69082581E-10
  -2.67500002E-02  -1.67987207E-10
  -2.66999993E-02  -1.66236358E-10
  -2.66500004E-02  -1.63490096E-10
  -2.65999995E-02  -1.59399827E-10
  -2.65500005E-02  -1.53751359E-10
  -2.64999997E-02  -1.46554685E-10
  -2.64500007E-02  -1.38039927E-10
  -2.63999999E-02  -1.28559496E-10
  -2.63500009E-02  -1.18436524E-10
  -2.63000000E-02  -1.07825124E-10
  -2.62499992E-02  -9.66435404E-11
  -2.62000002E-02  -8.46118731E-11
  -2.61499994E-02  -7.13807485E-11
  -2.61000004E-02  -5.66965745E-11
  -2.60499995E-02  -4.05317307E-11
  -2.60000005E-02  -2.31220980E-11
  -2.59499997E-02  -4.89330581E-12
  -2.59000007E-02   1.36947233E-11
  -2.58499999E-02   3.23192584E-11
  -2.58000009E-02   5.09083609E-11
  -2.57500000E-02   6.96456712E-11
  -2.56999992E-02   8.88613627E-11
  -2.56500002E-02   1.08853745E-10
  -2.55999994E-02   1.29717764E-10
  -2.55500004E-02   1.51256146E-10
  -2.54999995E-02   1.73014492E-10
  -2.54500005E-02   1.94428557E-10
  -2.53999997E-02   2.15021667E-10
  -2.53500007E-02   2.34566894E-10
  -2.52999999E-02   2.53141536E-10
  -2.52500009E-02   2.71048128E-10
  -2.52000000E-02   2.88632424E-10
  -2.51499992E-02   3.06076664E-10
  -2.51000002E-02   3.23258614E-10
  -2.50499994E-02   3.39741152E-10
  -2.50000004E-02   3.54902746E-10
  -2.49499995E-02   3.68156006E-10
  -2.49000005E-02   3.79160897E-10
  -2.48499997E-02   3.87937266E-10
  -2.48000007E-02   3.94823202E-10
  -2.47499999E-02   4.00293021E-10
  -2.47000009E-02   4.04711542E-10
  -2.46500000E-02   4.08131112E-10
  -2.45999992E-02   4.10223799E-10
  -2.45500002E-02   4.10382422E-10
  -2.44999994E-02   4.07952755E-10
  -2.44500004E-02   4.02498340E-10
  -2.43999995E-02   3.93980987E-10
  -2.43500005E-02   3.82773785E-10
  -2.42999997E-02   3.69494740E-10
  -2.42500007E-02   3.54728968E-10
  -2.41999999E-02   3.38760048E-10
  -2.41500009E-02   3.21432186E-10
  -2.41000000E-02   3.02208591E-10
  -2.40499992E-02   2.80407947E-10
  -2.40000002E-02   2.55518745E-10
  -2.39499994E-02   2.27453764E-10
  -2.39000004E-02   1.96629740E-10
  -2.38499995E-02   1.63830977E-10
  -2.38000005E-02   1.29910652E-10
  -2.37499997E-02   9.54573226E-11
  -2.37000007E-02   6.05748923E-11
  -2.36499999E-02   2.48783546E-11
  -2.36000009E-02  -1.22863299E-11
  -2.35500000E-02  -5.14907804E-11
  -2.34999992E-02  -9.28955732E-11
  -2.34500002E-02  -1.36093900E-10
  -2.33999994E-02  -1.80202783E-10
  -2.33500004E-02  -2.24167657E-10
  -2.32999995E-02  -2.67149081E-10
  -2.32500006E-02  -3.08819859E-10
  -2.31999997E-02  -3.49436258E-10
  -2.31500007E-02  -3.89644733E-10
  -2.30999999E-02  -4.30103425E-10
  -2.30500009E-02  -4.71085060E-10
  -2.30000000E-02  -5.12240028E-10
  -2.29499992E-02  -5.52633717E-10
  -2.29000002E-02  -5.91048654E-10
  -2.28499994E-02  -6.26423580E-10
  -2.28000004E-02  -6.58233856E-10
  -2.27499995E-02  -6.86639301E-10
  -2.27000006E-02  -7.12328585E-10
  -2.26499997E-02  -7.36121164E-10
  -2.26000007E-02  -7.58503260E-10
  -2.25499999E-02  -7.79304288E-10
  -2.25000009E-02  -7.97666100E-10
  -2.24500000E-02  -8.12328316E-10
  -2.23999992E-02  -8.22109103E-10
  -2.23500002E-02  -8.26369861E-10
  -2.22999994E-02  -8.25253532E-10
  -2.22500004E-02  -8.19581958E-10
  -2.21999995E-02  -8.10452983E-10
  -2.21500006E-02  -7.98711486E-10
  -2.20999997E-02  -7.84530219E-10
  -2.20500007E-02  -7.67293951E-10
  -2.19999999E-02  -7.45843776E-10
  -2.19500009E-02  -7.18979654E-10
  -2.19000001E-02  -6.85999202E-10
  -2.18499992E-02  -6.47031151E-10
  -2.18000002E-02  -6.03007200E-10
  -2.17499994E-02  -5.55281099E-10
  -2.17000004E-02  -5.05057884E-10
  -2.16499995E-02  -4.52892640E-10
  -2.16000006E-02  -3.98484384E-10
  -2.15499997E-02  -3.40866224E-10
  -2.15000007E-02  -2.78910978E-10
  -2.14499999E-02  -2.11928169E-10
  -2.14000009E-02  -1.40083764E-10
  -2.13500001E-02  -6.44482245E-11
  -2.12999992E-02   1.33544729E-11
  -2.12500002E-02   9.17445633E-11
  -2.11999994E-02   1.69764383E-10
  -2.11500004E-02   2.47374288E-10
  -2.10999995E-02   3.25329375E-10
  -2.10500006E-02   4.04686423E-10
  -2.09999997E-02   4.86161000E-10
  -2.09500007E-02   5.69624514E-10
  -2.08999999E-02   6.53973098E-10
  -2.08500009E-02   7.37433614E-10
  -2.08000001E-02   8.18172974E-10
  -2.07499992E-02   8.94941621E-10
  -2.07000002E-02   9.67457114E-10
  -2.06499994E-02   1.03635267E-09
  -2.06000004E-02   1.10270792E-09
  -2.05499995E-02   1.16737120E-09
  -2.05000006E-02   1.23037525E-09
  -2.04499997E-02   1.29071631E-09
  -2.04000007E-02   1.34659950E-09
  -2.03499999E-02   1.39604739E-09
  -2.03000009E-02   1.43760093E-09
  -2.02500001E-02   1.47079937E-09
  -2.01999992E-02   1.49621981E-09
  -2.01500002E-02   1.51505797E-09
  -2.00999994E-02   1.52843482E-09
  -2.00500004E-02   1.53674085E-09
  -1.99999996E-02   1.53931479E-09
  -1.99500006E-02   1.53460356E-09
  -1.98999997E-02   1.52073132E-09
  -1.98500007E-02   1.49622648E-09
  -1.97999999E-02   1.46057799E-09
  -1.97500009E-02   1.41436918E-09
  -1.97000001E-02   1.35892708E-09
  -1.96499992E-02   1.29564448E-09
  -1.96000002E-02   1.22528099E-09
  -1.95499994E-02   1.14755927E-09
  -1.95000004E-02   1.06123976E-09
  -1.94499996E-02   9.64641700E-10
  -1.94000006E-02   8.56376026E-10
  -1.93499997E-02   7.35958905E-10
  -1.93000007E-02   6.04029160E-10
  -1.92499999E-02   4.62069993E-10
  -1.92000009E-02   3.11761061E-10
  -1.91500001E-02   1.54249072E-10
  -1.90999992E-02  -1.03306998E-11
  -1.90500002E-02  -1.82866361E-10
  -1.89999994E-02  -3.64806796E-10
  -1.89500004E-02  -5.57436375E-10
  -1.88999996E-02  -7.61213315E-10
  -1.88500006E-02  -9.75470815E-10
  -1.87999997E-02  -1.19861732E-09
  -1.87500007E-02  -1.42874856E-09
  -1.86999999E-02  -1.66439496E-09
  -1.86500009E-02  -1.90507210E-09
  -1.86000001E-02  -2.15138374E-09
  -1.85499992E-02  -2.40463360E-09
  -1.85000002E-02  -2.66612021E-09
  -1.84499994E-02  -2.93643443E-09
  -1.84000004E-02  -3.21507132E-09
  -1.83499996E-02  -3.50053209E-09
  -1.83000006E-02  -3.79087073E-09
  -1.82499997E-02  -4.08443679E-09
  -1.82000007E-02  -4.38048398E-09
  -1.81499999E-02  -4.67936756E-09
  -1.81000009E-02  -4.98225594E-09
  -1.80500001E-02  -5.29047783E-09
  -1.79999992E-02  -5.60480817E-09
  -1.79500002E-02  -5.92500715E-09
  -1.78999994E-02  -6.24982732E-09
  -1.78500004E-02  -6.57748211E-09
  -1.77999996E-02  -6.90635948E-09
  -1.77500006E-02  -7.23565430E-09
  -1.76999997E-02  -7.56565566E-09
  -1.76500008E-02  -7.89754839E-09
  -1.75999999E-02  -8.23282686E-09
  -1.75500009E-02  -8.57259685E-09
  -1.75000001E-02  -8.91705287E-09
  -1.74499992E-02  -9.26539823E-09
  -1.74000002E-02  -9.61621449E-09
  -1.73499994E-02  -9.96812588E-09
  -1.73000004E-02  -1.03204494E-08
  -1.72499996E-02  -1.06735287E-08
  -1.72000006E-02  -1.10286242E-08
  -1.71499997E-02  -1.13873879E-08
  -1.71000008E-02  -1.17511911E-08
  -1.70499999E-02  -1.21205703E-08
  -1.70000009E-02  -1.24950752E-08
  -1.69500001E-02  -1.28735591E-08
  -1.68999992E-02  -1.32548079E-08
  -1.68500002E-02  -1.36382043E-08
  -1.67999994E-02  -1.40241356E-08
  -1.67500004E-02  -1.44139705E-08
  -1.66999996E-02  -1.48096015E-08
  -1.66500006E-02  -1.52127804E-08
  -1.65999997E-02  -1.56245221E-08
  -1.65500008E-02  -1.60448650E-08
  -1.64999999E-02  -1.64730576E-08
  -1.64500009E-02  -1.69081211E-08
  -1.64000001E-02  -1.73494872E-08
  -1.63499992E-02  -1.77974879E-08
  -1.63000003E-02  -1.82534041E-08
  -1.62499994E-02  -1.87191436E-08
  -1.62000004E-02  -1.91965999E-08
  -1.61499996E-02  -1.96870467E-08
  -1.61000006E-02  -2.01908286E-08
  -1.60499997E-02  -2.07074642E-08
  -1.60000008E-02  -2.12361115E-08
  -1.59499999E-02  -2.17762128E-08
  -1.59000009E-02  -2.23279901E-08
  -1.58500001E-02  -2.28926016E-08
  -1.57999992E-02  -2.34718751E-08
  -1.57500003E-02  -2.40677398E-08
  -1.56999994E-02  -2.46816505E-08
  -1.56500004E-02  -2.53141899E-08
  -1.55999996E-02  -2.59651110E-08
  -1.55499997E-02  -2.66337352E-08
  -1.54999997E-02  -2.73195297E-08
  -1.54499998E-02  -2.80226402E-08
  -1.53999999E-02  -2.87441146E-08
  -1.53500000E-02  -2.94856957E-08
  -1.53000001E-02  -3.02493142E-08
  -1.52500002E-02  -3.10364960E-08
  -1.52000003E-02  -3.18479678E-08
  -1.51500003E-02  -3.26836300E-08
  -1.51000004E-02  -3.35428574E-08
  -1.50499996E-02  -3.44251276E-08
  -1.49999997E-02  -3.53305332E-08
  -1.49499997E-02  -3.62600652E-08
  -1.48999998E-02  -3.72154929E-08
  -1.48499999E-02  -3.81989089E-08
  -1.48000000E-02  -3.92121215E-08
  -1.47500001E-02  -4.02561859E-08
  -1.47000002E-02  -4.13313082E-08
  -1.46500003E-02  -4.24371223E-08
  -1.46000003E-02  -4.35732517E-08
  -1.45500004E-02  -4.47398527E-08
  -1.44999996E-02  -4.59379734E-08
  -1.44499997E-02  -4.71694896E-08
  -1.43999998E-02  -4.84367462E-08
  -1.43499998E-02  -4.97419244E-08
  -1.42999999E-02  -5.10865839E-08
  -1.42500000E-02  -5.24714352E-08
  -1.42000001E-02  -5.38965210E-08
  -1.41500002E-02  -5.53617987E-08
  -1.41000003E-02  -5.68676910E-08
  -1.40500003E-02  -5.84154414E-08
  -1.40000004E-02  -6.00071175E-08
  -1.39499996E-02  -6.16453022E-08
  -1.38999997E-02  -6.33325854E-08
  -1.38499998E-02  -6.50710419E-08
  -1.37999998E-02  -6.68619720E-08
  -1.37499999E-02  -6.87059654E-08
  -1.37000000E-02  -7.06034839E-08
  -1.36500001E-02  -7.25553875E-08
  -1.36000002E-02  -7.45633884E-08
  -1.35500003E-02  -7.66300019E-08
  -1.35000004E-02  -7.87582053E-08
  -1.34500004E-02  -8.09509757E-08
  -1.33999996E-02  -8.32108427E-08
  -1.33499997E-02  -8.55395328E-08
  -1.32999998E-02  -8.79381190E-08
  -1.32499998E-02  -9.04074184E-08
  -1.31999999E-02  -9.29485822E-08
  -1.31500000E-02  -9.55636068E-08
  -1.31000001E-02  -9.82554553E-08
  -1.30500002E-02  -1.01027709E-07
  -1.30000003E-02  -1.03883920E-07
  -1.29500004E-02  -1.06827073E-07
  -1.29000004E-02  -1.09859386E-07
  -1.28499996E-02  -1.12982349E-07
  -1.27999997E-02  -1.16197107E-07
  -1.27499998E-02  -1.19505032E-07
  -1.26999998E-02  -1.22908290E-07
  -1.26499999E-02  -1.26410043E-07
  -1.26000000E-02  -1.30014158E-07
  -1.25500001E-02  -1.33724740E-07
  -1.25000002E-02  -1.37545427E-07
  -1.24500003E-02  -1.41478978E-07
  -1.24000004E-02  -1.45527309E-07
  -1.23500004E-02  -1.49691829E-07
  -1.22999996E-02  -1.53973971E-07
  -1.22499997E-02  -1.58375769E-07
  -1.21999998E-02  -1.62899980E-07
  -1.21499998E-02  -1.67549928E-07
  -1.20999999E-02  -1.72329024E-07
  -1.20500000E-02  -1.77240452E-07
  -1.20000001E-02  -1.82286854E-07
  -1.19500002E-02  -1.87470263E-07
  -1.19000003E-02  -1.92792584E-07
  -1.18500004E-02  -1.98256018E-07
  -1.18000004E-02  -2.03863706E-07
  -1.17499996E-02  -2.09619856E-07
  -1.16999997E-02  -2.15529141E-07
  -1.16499998E-02  -2.21596096E-07
  -1.15999999E-02  -2.27824458E-07
  -1.15499999E-02  -2.34216614E-07
  -1.15000000E-02  -2.40773772E-07
  -1.14500001E-02  -2.47496075E-07
  -1.14000002E-02  -2.54383480E-07
  -1.13500003E-02  -2.61436554E-07
  -1.13000004E-02  -2.68657004E-07
  -1.12500004E-02  -2.76047899E-07
  -1.11999996E-02  -2.83613247E-07
  -1.11499997E-02  -2.91357395E-07
  -1.10999998E-02  -2.99284665E-07
  -1.10499999E-02  -3.07399176E-07
  -1.09999999E-02  -3.15704966E-07
  -1.09500000E-02  -3.24206042E-07
  -1.09000001E-02  -3.32906922E-07
  -1.08500002E-02  -3.41812154E-07
  -1.08000003E-02  -3.50926285E-07
  -1.07500004E-02  -3.60253182E-07
  -1.07000005E-02  -3.69795487E-07
  -1.06499996E-02  -3.79554194E-07
  -1.05999997E-02  -3.89528964E-07
  -1.05499998E-02  -3.99718857E-07
  -1.04999999E-02  -4.10123448E-07
  -1.04499999E-02  -4.20743618E-07
  -1.04000000E-02  -4.31582407E-07
  -1.03500001E-02  -4.42644819E-07
  -1.03000002E-02  -4.53937332E-07
  -1.02500003E-02  -4.65467167E-07
  -1.02000004E-02  -4.77241429E-07
  -1.01500005E-02  -4.89266824E-07
  -1.00999996E-02  -5.01549039E-07
  -1.00499997E-02  -5.14093585E-07
  -9.99999978E-03  -5.26905637E-07
  -9.94999986E-03  -5.39990253E-07
  -9.89999995E-03  -5.53353004E-07
  -9.85000003E-03  -5.66999290E-07
  -9.80000012E-03  -5.80933829E-07
  -9.75000020E-03  -5.95160316E-07
  -9.70000029E-03  -6.09681706E-07
  -9.65000037E-03  -6.24500728E-07
  -9.60000046E-03  -6.39620623E-07
  -9.54999961E-03  -6.55045483E-07
  -9.49999969E-03  -6.70780537E-07
  -9.44999978E-03  -6.86832266E-07
  -9.39999986E-03  -7.03207718E-07
  -9.34999995E-03  -7.19914567E-07
  -9.30000003E-03  -7.36960260E-07
  -9.25000012E-03  -7.54351447E-07
  -9.20000020E-03  -7.72094438E-07
  -9.15000029E-03  -7.90196225E-07
  -9.10000037E-03  -8.08664822E-07
  -9.05000046E-03  -8.27509723E-07
  -8.99999961E-03  -8.46741557E-07
  -8.94999970E-03  -8.66371352E-07
  -8.89999978E-03  -8.86410078E-07
  -8.84999987E-03  -9.06867911E-07
  -8.79999995E-03  -9.27754002E-07
  -8.75000004E-03  -9.49076252E-07
  -8.70000012E-03  -9.70841484E-07
  -8.65000021E-03  -9.93056574E-07
  -8.60000029E-03  -1.01572880E-06
  -8.55000038E-03  -1.03886669E-06
  -8.50000046E-03  -1.06247910E-06
  -8.44999962E-03  -1.08657423E-06
  -8.39999970E-03  -1.11116037E-06
  -8.34999979E-03  -1.13624583E-06
  -8.29999987E-03  -1.16183958E-06
  -8.24999996E-03  -1.18795072E-06
  -8.20000004E-03  -1.21458925E-06
  -8.15000013E-03  -1.24176620E-06
  -8.10000021E-03  -1.26949396E-06
  -8.05000030E-03  -1.29778607E-06
  -8.00000038E-03  -1.32665605E-06
  -7.95000046E-03  -1.35611799E-06
  -7.89999962E-03  -1.38618418E-06
  -7.84999970E-03  -1.41686655E-06
  -7.79999979E-03  -1.44817750E-06
  -7.74999987E-03  -1.48012998E-06
  -7.69999996E-03  -1.51273798E-06
  -7.65000004E-03  -1.54601582E-06
  -7.60000013E-03  -1.57997647E-06
  -7.55000021E-03  -1.61463345E-06
  -7.49999983E-03  -1.64999881E-06
  -7.44999992E-03  -1.68608437E-06
  -7.40000000E-03  -1.72290106E-06
  -7.35000009E-03  -1.76045955E-06
  -7.30000017E-03  -1.79876963E-06
  -7.24999979E-03  -1.83784323E-06
  -7.19999988E-03  -1.87769399E-06
  -7.14999996E-03  -1.91833647E-06
  -7.10000005E-03  -1.95978532E-06
  -7.05000013E-03  -2.00205432E-06
  -7.00000022E-03  -2.04515800E-06
  -6.94999984E-03  -2.08911115E-06
  -6.89999992E-03  -2.13392991E-06
  -6.85000001E-03  -2.17963020E-06
  -6.80000009E-03  -2.22622884E-06
  -6.75000018E-03  -2.27374312E-06
  -6.69999979E-03  -2.32219054E-06
  -6.64999988E-03  -2.37158929E-06
  -6.59999996E-03  -2.42195711E-06
  -6.55000005E-03  -2.47330945E-06
  -6.50000013E-03  -2.52566292E-06
  -6.45000022E-03  -2.57903343E-06
  -6.39999984E-03  -2.63343873E-06
  -6.34999992E-03  -2.68889562E-06
  -6.30000001E-03  -2.74542140E-06
  -6.25000009E-03  -2.80303288E-06
  -6.20000018E-03  -2.86174532E-06
  -6.14999980E-03  -2.92157529E-06
  -6.09999988E-03  -2.98253940E-06
  -6.04999997E-03  -3.04465311E-06
  -6.00000005E-03  -3.10793212E-06
  -5.95000014E-03  -3.17239278E-06
  -5.90000022E-03  -3.23805466E-06
  -5.84999984E-03  -3.30493913E-06
  -5.79999993E-03  -3.37306733E-06
  -5.75000001E-03  -3.44245973E-06
  -5.70000010E-03  -3.51313383E-06
  -5.65000018E-03  -3.58510897E-06
  -5.59999980E-03  -3.65840651E-06
  -5.54999989E-03  -3.73304761E-06
  -5.49999997E-03  -3.80905408E-06
  -5.45000006E-03  -3.88644730E-06
  -5.40000014E-03  -3.96525047E-06
  -5.35000023E-03  -4.04548609E-06
  -5.29999984E-03  -4.12717782E-06
  -5.24999993E-03  -4.21034429E-06
  -5.20000001E-03  -4.29500324E-06
  -5.15000010E-03  -4.38117468E-06
  -5.10000018E-03  -4.46887816E-06
  -5.04999980E-03  -4.55813279E-06
  -4.99999989E-03  -4.64895902E-06
  -4.94999997E-03  -4.74137732E-06
  -4.90000006E-03  -4.83540771E-06
  -4.85000014E-03  -4.93107154E-06
  -4.80000023E-03  -5.02838748E-06
  -4.74999985E-03  -5.12737324E-06
  -4.69999993E-03  -5.22804567E-06
  -4.65000002E-03  -5.33042521E-06
  -4.60000010E-03  -5.43454053E-06
  -4.55000019E-03  -5.54041890E-06
  -4.49999981E-03  -5.64808715E-06
  -4.44999989E-03  -5.75757213E-06
  -4.39999998E-03  -5.86889837E-06
  -4.35000006E-03  -5.98208953E-06
  -4.30000015E-03  -6.09716744E-06
  -4.25000023E-03  -6.21415211E-06
  -4.19999985E-03  -6.33306172E-06
  -4.14999994E-03  -6.45391719E-06
  -4.10000002E-03  -6.57674218E-06
  -4.05000011E-03  -6.70156169E-06
  -4.00000019E-03  -6.82839755E-06
  -3.94999981E-03  -6.95726931E-06
  -3.89999989E-03  -7.08819334E-06
  -3.84999998E-03  -7.22118648E-06
  -3.80000006E-03  -7.35626509E-06
  -3.74999992E-03  -7.49344645E-06
  -3.70000000E-03  -7.63275148E-06
  -3.65000009E-03  -7.77420701E-06
  -3.59999994E-03  -7.91783987E-06
  -3.55000002E-03  -8.06368007E-06
  -3.50000011E-03  -8.21175126E-06
  -3.44999996E-03  -8.36207892E-06
  -3.40000005E-03  -8.51468030E-06
  -3.34999990E-03  -8.66957271E-06
  -3.29999998E-03  -8.82677523E-06
  -3.25000007E-03  -8.98631151E-06
  -3.19999992E-03  -9.14820885E-06
  -3.15000000E-03  -9.31249269E-06
  -3.10000009E-03  -9.47918943E-06
  -3.04999994E-03  -9.64832361E-06
  -3.00000003E-03  -9.81991616E-06
  -2.95000011E-03  -9.99397980E-06
  -2.89999996E-03  -1.01705282E-05
  -2.85000005E-03  -1.03495850E-05
  -2.79999990E-03  -1.05311683E-05
  -2.74999999E-03  -1.07152982E-05
  -2.70000007E-03  -1.09020011E-05
  -2.64999992E-03  -1.10913097E-05
  -2.60000001E-03  -1.12832540E-05
  -2.55000009E-03  -1.14778541E-05
  -2.49999994E-03  -1.16751226E-05
  -2.45000003E-03  -1.18750695E-05
  -2.40000011E-03  -1.20777122E-05
  -2.34999997E-03  -1.22830743E-05
  -2.30000005E-03  -1.24911858E-05
  -2.24999990E-03  -1.27020721E-05
  -2.19999999E-03  -1.29157615E-05
  -2.15000007E-03  -1.31322868E-05
  -2.09999993E-03  -1.33516805E-05
  -2.05000001E-03  -1.35739683E-05
  -2.00000009E-03  -1.37991647E-05
  -1.94999995E-03  -1.40272823E-05
  -1.90000003E-03  -1.42583358E-05
  -1.85000000E-03  -1.44923606E-05
  -1.79999997E-03  -1.47293958E-05
  -1.75000005E-03  -1.49694715E-05
  -1.70000002E-03  -1.52126149E-05
  -1.64999999E-03  -1.54588488E-05
  -1.59999996E-03  -1.57081849E-05
  -1.55000004E-03  -1.59606461E-05
  -1.50000001E-03  -1.62162432E-05
  -1.44999998E-03  -1.64749854E-05
  -1.39999995E-03  -1.67368926E-05
  -1.35000004E-03  -1.70020012E-05
  -1.30000000E-03  -1.72703512E-05
  -1.24999997E-03  -1.75419809E-05
  -1.20000006E-03  -1.78169284E-05
  -1.15000003E-03  -1.80952120E-05
  -1.09999999E-03  -1.83768498E-05
  -1.04999996E-03  -1.86618563E-05
  -1.00000005E-03  -1.89502498E-05
  -9.50000016E-04  -1.92420684E-05
  -8.99999985E-04  -1.95373541E-05
  -8.50000011E-04  -1.98361395E-05
  -7.99999980E-04  -2.01384591E-05
  -7.50000007E-04  -2.04443513E-05
  -6.99999975E-04  -2.07538396E-05
  -6.50000002E-04  -2.10669350E-05
  -6.00000028E-04  -2.13836465E-05
  -5.49999997E-04  -2.17039851E-05
  -5.00000024E-04  -2.20279690E-05
  -4.49999992E-04  -2.23556399E-05
  -3.99999990E-04  -2.26870470E-05
  -3.49999988E-04  -2.30222249E-05
  -3.00000014E-04  -2.33612045E-05
  -2.50000012E-04  -2.37040058E-05
  -1.99999995E-04  -2.40506579E-05
  -1.50000007E-04  -2.44011735E-05
  -9.99999975E-05  -2.47555654E-05
  -4.99999987E-05  -2.51138572E-05
   0.00000000      -2.54760762E-05
   4.99999987E-05  -2.58422770E-05
   9.99999975E-05  -2.62125122E-05
   1.50000007E-04  -2.65868239E-05
   1.99999995E-04  -2.69652264E-05
   2.50000012E-04  -2.73477181E-05
   3.00000014E-04  -2.77343188E-05
   3.49999988E-04  -2.81250595E-05
   3.99999990E-04  -2.85199640E-05
   4.49999992E-04  -2.89190411E-05
   5.00000024E-04  -2.93223275E-05
   5.49999997E-04  -2.97298757E-05
   6.00000028E-04  -3.01417331E-05
   6.50000002E-04  -3.05579379E-05
   6.99999975E-04  -3.09784955E-05
   7.50000007E-04  -3.14033896E-05
   7.99999980E-04  -3.18326420E-05
   8.50000011E-04  -3.22662854E-05
   8.99999985E-04  -3.27043490E-05
   9.50000016E-04  -3.31468727E-05
   1.00000005E-03  -3.35938748E-05
   1.04999996E-03  -3.40454098E-05
   1.09999999E-03  -3.45015178E-05
   1.15000003E-03  -3.49622169E-05
   1.20000006E-03  -3.54275217E-05
   1.24999997E-03  -3.58974139E-05
   1.30000000E-03  -3.63719155E-05
   1.35000004E-03  -3.68510664E-05
   1.39999995E-03  -3.73349212E-05
   1.44999998E-03  -3.78235382E-05
   1.50000001E-03  -3.83169427E-05
   1.55000004E-03  -3.88151493E-05
   1.59999996E-03  -3.93181799E-05
   1.64999999E-03  -3.98260709E-05
   1.70000002E-03  -4.03388403E-05
   1.75000005E-03  -4.08564665E-05
   1.79999997E-03  -4.13789712E-05
   1.85000000E-03  -4.19063763E-05
   1.90000003E-03  -4.24387581E-05
   1.94999995E-03  -4.29761785E-05
   2.00000009E-03  -4.35186557E-05
   2.05000001E-03  -4.40661715E-05
   2.09999993E-03  -4.46187332E-05
   2.15000007E-03  -4.51763626E-05
   2.19999999E-03  -4.57390997E-05
   2.24999990E-03  -4.63069737E-05
   2.30000005E-03  -4.68799954E-05
   2.34999997E-03  -4.74582012E-05
   2.40000011E-03  -4.80416602E-05
   2.45000003E-03  -4.86304416E-05
   2.49999994E-03  -4.92245672E-05
   2.55000009E-03  -4.98240297E-05
   2.60000001E-03  -5.04288109E-05
   2.64999992E-03  -5.10389254E-05
   2.70000007E-03  -5.16544278E-05
   2.74999999E-03  -5.22753544E-05
   2.79999990E-03  -5.29017379E-05