  -3.99999991E-02   0.00000000    
  -3.99499983E-02   0.00000000    
  -3.99000011E-02   6.28912477E-14
  -3.98500003E-02   5.76692665E-13
  -3.97999994E-02   2.73674573E-12
  -3.97499986E-02   8.91017381E-12
  -3.97000015E-02   2.22704216E-11
  -3.96500006E-02   4.53438537E-11
  -3.95999998E-02   7.79252218E-11
  -3.95499989E-02   1.15688598E-10
  -3.95000018E-02   1.50977161E-10
  -3.94500010E-02   1.76290885E-10
  -3.94000001E-02   1.89292235E-10
  -3.93499993E-02   1.96726233E-10
  -3.92999984E-02   2.14493839E-10
  -3.92500013E-02   2.62594363E-10
  -3.92000005E-02   3.56271124E-10
  -3.91499996E-02   4.97248243E-10
  -3.90999988E-02   6.69922007E-10
  -3.90500017E-02   8.45718551E-10
  -3.90000008E-02   9.94855420E-10
  -3.89500000E-02   1.10041465E-09
  -3.88999991E-02   1.16762611E-09
  -3.88499983E-02   1.22312638E-09
  -3.88000011E-02   1.30384825E-09
  -3.87500003E-02   1.44034995E-09
  -3.86999995E-02   1.64209146E-09
  -3.86499986E-02   1.89132576E-09
  -3.86000015E-02   2.14856088E-09
  -3.85500006E-02   2.36755349E-09
  -3.84999998E-02   2.51338883E-09
  -3.84499989E-02   2.57535926E-09
  -3.84000018E-02   2.56863997E-09
  -3.83500010E-02   2.52464138E-09
  -3.83000001E-02   2.47615461E-09
  -3.82499993E-02   2.44567100E-09
  -3.81999984E-02   2.44173370E-09
  -3.81500013E-02   2.46161891E-09
  -3.81000005E-02   2.49444354E-09
  -3.80499996E-02   2.52021115E-09
  -3.79999988E-02   2.50570431E-09
  -3.79500017E-02   2.40279063E-09
  -3.79000008E-02   2.15497042E-09
  -3.78500000E-02   1.71387748E-09
  -3.77999991E-02   1.06135778E-09
  -3.77499983E-02   2.27265484E-10
  -3.77000012E-02  -7.09252324E-10
  -3.76500003E-02  -1.64362712E-09
  -3.75999995E-02  -2.49218957E-09
  -3.75499986E-02  -3.24231753E-09
  -3.75000015E-02  -3.97710842E-09
  -3.74500006E-02  -4.85053642E-09
  -3.73999998E-02  -6.01274497E-09
  -3.73499990E-02  -7.51612816E-09
  -3.73000018E-02  -9.25199917E-09
  -3.72500010E-02  -1.09609948E-08
  -3.72000001E-02  -1.23285346E-08
  -3.71499993E-02  -1.31339633E-08
  -3.70999984E-02  -1.33883225E-08
  -3.70500013E-02  -1.33875764E-08
  -3.70000005E-02  -1.36338034E-08
  -3.69499996E-02  -1.46323762E-08
  -3.68999988E-02  -1.66390137E-08
  -3.68500017E-02  -1.94747258E-08
  -3.68000008E-02  -2.25178454E-08
  -3.67500000E-02  -2.49119090E-08
  -3.66999991E-02  -2.59228781E-08
  -3.66499983E-02  -2.52916710E-08
  -3.66000012E-02  -2.34080257E-08
  -3.65500003E-02  -2.11968167E-08
  -3.64999995E-02  -1.97336920E-08
  -3.64499986E-02  -1.97386409E-08
  -3.64000015E-02  -2.11739497E-08
  -3.63500006E-02  -2.31548363E-08
  -3.62999998E-02  -2.42610465E-08
  -3.62499990E-02  -2.31554917E-08
  -3.62000018E-02  -1.92500149E-08
  -3.61500010E-02  -1.30966349E-08
  -3.61000001E-02  -6.27480645E-09
  -3.60499993E-02  -7.66410047E-10
  -3.59999985E-02   1.93782035E-09
  -3.59500013E-02   1.59910540E-09
  -3.59000005E-02  -5.19810694E-10
  -3.58499996E-02  -2.08869300E-09
  -3.57999988E-02  -6.93825108E-10
  -3.57500017E-02   5.03453457E-09
  -3.57000008E-02   1.46692019E-08
  -3.56500000E-02   2.60056634E-08
  -3.55999991E-02   3.59281849E-08
  -3.55499983E-02   4.17966817E-08
  -3.55000012E-02   4.27400835E-08
  -3.54500003E-02   4.02223499E-08
  -3.53999995E-02   3.75378058E-08
  -3.53499986E-02   3.83784524E-08
  -3.53000015E-02   4.50747883E-08
  -3.52500007E-02   5.73187116E-08
  -3.51999998E-02   7.20173787E-08
  -3.51499990E-02   8.44502424E-08
  -3.51000018E-02   9.03052424E-08
  -3.50500010E-02   8.77186821E-08
  -3.50000001E-02   7.83585961E-08
  -3.49499993E-02   6.69515501E-08
  -3.48999985E-02   5.93339600E-08
  -3.48500013E-02   5.98179142E-08
  -3.48000005E-02   6.90575206E-08
  -3.47499996E-02   8.34617637E-08
  -3.46999988E-02   9.65490017E-08
  -3.46500017E-02   1.01752612E-07
  -3.46000008E-02   9.54726076E-08
  -3.45500000E-02   7.89691583E-08
  -3.44999991E-02   5.81327058E-08
  -3.44499983E-02   4.10808774E-08
  -3.44000012E-02   3.45375852E-08
  -3.43500003E-02   4.05892706E-08
  -3.42999995E-02   5.53604949E-08
  -3.42499986E-02   7.03700778E-08
  -3.42000015E-02   7.61283729E-08
  -3.41500007E-02   6.64530830E-08
  -3.40999998E-02   4.15411172E-08
  -3.40499990E-02   8.29011526E-09
  -3.40000018E-02  -2.24484999E-08
  -3.39500010E-02  -4.05985077E-08
  -3.39000002E-02  -4.15047765E-08
  -3.38499993E-02  -2.83486230E-08
  -3.37999985E-02  -1.10858780E-08
  -3.37500013E-02  -2.18996554E-09
  -3.37000005E-02  -1.09782370E-08
  -3.36499996E-02  -3.90693131E-08
  -3.35999988E-02  -7.91532386E-08
  -3.35500017E-02  -1.17846653E-07
  -3.35000008E-02  -1.41546209E-07
  -3.34500000E-02  -1.42732958E-07
  -3.33999991E-02  -1.23827903E-07
  -3.33499983E-02  -9.66768710E-08
  -3.33000012E-02  -7.76598981E-08
  -3.32500003E-02  -8.04346314E-08
  -3.31999995E-02  -1.09517565E-07
  -3.31499986E-02  -1.57693975E-07
  -3.31000015E-02  -2.08653276E-07
  -3.30500007E-02  -2.43923722E-07
  -3.29999998E-02  -2.51152159E-07
  -3.29499990E-02  -2.29996033E-07
  -3.29000019E-02  -1.92798680E-07
  -3.28500010E-02  -1.59481189E-07
  -3.28000002E-02  -1.48721227E-07
  -3.27499993E-02  -1.69295518E-07
  -3.26999985E-02  -2.15564654E-07
  -3.26500013E-02  -2.69358253E-07
  -3.26000005E-02  -3.07690868E-07
  -3.25499997E-02  -3.13048986E-07
  -3.24999988E-02  -2.81666701E-07
  -3.24500017E-02  -2.25913908E-07
  -3.24000008E-02  -1.69430834E-07
  -3.23500000E-02  -1.36894016E-07
  -3.22999991E-02  -1.42841515E-07
  -3.22499983E-02  -1.84616283E-07
  -3.22000012E-02  -2.42821585E-07
  -3.21500003E-02  -2.89390840E-07
  -3.20999995E-02  -2.99901984E-07
  -3.20499986E-02  -2.64700958E-07
  -3.20000015E-02  -1.93735275E-07
  -3.19500007E-02  -1.12668879E-07
  -3.18999998E-02  -5.17215533E-08
  -3.18499990E-02  -3.20349933E-08
  -3.18000019E-02  -5.56755886E-08
  -3.17500010E-02  -1.03964823E-07
  -3.17000002E-02  -1.45216276E-07
  -3.16499993E-02  -1.48713227E-07
  -3.15999985E-02  -9.87950202E-08
  -3.15500014E-02  -2.63736544E-09
  -3.15000005E-02   1.12050174E-07
  -3.14499997E-02   2.08730910E-07
  -3.13999988E-02   2.58175362E-07
  -3.13500017E-02   2.51863071E-07
  -3.13000008E-02   2.06488522E-07
  -3.12500000E-02   1.57227021E-07
  -3.11999992E-02   1.42424895E-07
  -3.11500002E-02   1.86345659E-07
  -3.10999993E-02   2.87706655E-07
  -3.10500003E-02   4.19380342E-07
  -3.09999995E-02   5.39760094E-07
  -3.09500005E-02   6.11025200E-07
  -3.08999997E-02   6.16258092E-07
  -3.08500007E-02   5.67634856E-07
  -3.07999998E-02   5.01707746E-07
  -3.07500008E-02   4.63518489E-07
  -3.07000000E-02   4.86379975E-07
  -3.06499992E-02   5.76318655E-07
  -3.06000002E-02   7.08330560E-07
  -3.05499993E-02   8.36485299E-07
  -3.05000003E-02   9.13738461E-07
  -3.04499995E-02   9.12821861E-07
  -3.04000005E-02   8.38851690E-07
  -3.03499997E-02   7.27757140E-07
  -3.03000007E-02   6.30853037E-07
  -3.02499998E-02   5.92126298E-07
  -3.02000009E-02   6.28267799E-07
  -3.01500000E-02   7.20501873E-07
  -3.00999992E-02   8.22181278E-07
  -3.00500002E-02   8.79116101E-07
  -2.99999993E-02   8.53798724E-07
  -2.99500003E-02   7.42724637E-07
  -2.98999995E-02   5.78850802E-07
  -2.98500005E-02   4.17721310E-07
  -2.97999997E-02   3.13088378E-07
  -2.97500007E-02   2.92718710E-07
  -2.96999998E-02   3.45257433E-07
  -2.96500009E-02   4.24329130E-07
  -2.96000000E-02   4.68460428E-07
  -2.95499992E-02   4.28263291E-07
  -2.95000002E-02   2.88859468E-07
  -2.94499993E-02   7.73835680E-08
  -2.94000003E-02  -1.48123846E-07
  -2.93499995E-02  -3.23853243E-07
  -2.93000005E-02  -4.08437415E-07
  -2.92499997E-02  -4.01673844E-07
  -2.92000007E-02  -3.45186464E-07
  -2.91499998E-02  -3.04359503E-07
  -2.91000009E-02  -3.39240444E-07
  -2.90500000E-02  -4.77209539E-07
  -2.89999992E-02  -6.99701332E-07
  -2.89500002E-02  -9.49233879E-07
  -2.88999993E-02  -1.15403327E-06
  -2.88500004E-02  -1.25959684E-06
  -2.87999995E-02  -1.25321674E-06
  -2.87500005E-02  -1.17035825E-06
  -2.86999997E-02  -1.07969458E-06
  -2.86500007E-02  -1.05306628E-06
  -2.85999998E-02  -1.13347869E-06
  -2.85500009E-02  -1.31534614E-06
  -2.85000000E-02  -1.54599354E-06
  -2.84499992E-02  -1.74811532E-06
  -2.84000002E-02  -1.85354713E-06
  -2.83499993E-02  -1.83349891E-06
  -2.83000004E-02  -1.71170768E-06
  -2.82499995E-02  -1.55436635E-06
  -2.82000005E-02  -1.44095827E-06
  -2.81499997E-02  -1.42873307E-06
  -2.81000007E-02  -1.52658629E-06
  -2.80499998E-02  -1.69015300E-06
  -2.80000009E-02  -1.84063106E-06
  -2.79500000E-02  -1.89929972E-06
  -2.78999992E-02  -1.82259669E-06
  -2.78500002E-02  -1.62212962E-06
  -2.77999993E-02  -1.36046572E-06
  -2.77500004E-02  -1.12418513E-06
  -2.76999995E-02  -9.85833026E-07
  -2.76500005E-02  -9.71547479E-07
  -2.75999997E-02  -1.04887260E-06
  -2.75500007E-02  -1.14047350E-06
  -2.74999999E-02  -1.15800424E-06
  -2.74500009E-02  -1.04132687E-06
  -2.74000000E-02  -7.85682573E-07
  -2.73499992E-02  -4.44577125E-07
  -2.73000002E-02  -1.06807391E-07
  -2.72499993E-02   1.42499132E-07
  -2.72000004E-02   2.59700641E-07
  -2.71499995E-02   2.62474657E-07
  -2.71000005E-02   2.22605550E-07
  -2.70499997E-02   2.34562506E-07
  -2.70000007E-02   3.73516258E-07
  -2.69499999E-02   6.61327988E-07
  -2.69000009E-02   1.05575418E-06
  -2.68500000E-02   1.46794571E-06
  -2.67999992E-02   1.80079121E-06
  -2.67500002E-02   1.99131023E-06
  -2.66999993E-02   2.03833088E-06
  -2.66500004E-02   2.00304908E-06
  -2.65999995E-02   1.98195562E-06
  -2.65500005E-02   2.06385539E-06
  -2.64999997E-02   2.28989779E-06
  -2.64500007E-02   2.63438460E-06
  -2.63999999E-02   3.01506816E-06
  -2.63500009E-02   3.32867285E-06
  -2.63000000E-02   3.49609104E-06
  -2.62499992E-02   3.49726020E-06
  -2.62000002E-02   3.38012069E-06
  -2.61499994E-02   3.23946688E-06
  -2.61000004E-02   3.17482954E-06
  -2.60499995E-02   3.24589837E-06
  -2.60000005E-02   3.44524574E-06
  -2.59499997E-02   3.70055909E-06
  -2.59000007E-02   3.90562036E-06
  -2.58499999E-02   3.96653195E-06
  -2.58000009E-02   3.84282976E-06
  -2.57500000E-02   3.56518217E-06
  -2.56999992E-02   3.22170422E-06
  -2.56500002E-02   2.91872652E-06
  -2.55999994E-02   2.73329420E-06
  -2.55500004E-02   2.67845940E-06
  -2.54999995E-02   2.69684915E-06
  -2.54500005E-02   2.68555800E-06
  -2.53999997E-02   2.54149154E-06
  -2.53500007E-02   2.20716197E-06
  -2.52999999E-02   1.69664372E-06
  -2.52500009E-02   1.09001792E-06
  -2.52000000E-02   4.98563395E-07
  -2.51499992E-02   1.59195661E-08
  -2.51000002E-02  -3.23260849E-07
  -2.50499994E-02  -5.58799570E-07
  -2.50000004E-02  -7.87639635E-07
  -2.49499995E-02  -1.12115993E-06
  -2.49000005E-02  -1.63595371E-06
  -2.48499997E-02  -2.33982360E-06
  -2.48000007E-02  -3.16800720E-06
  -2.47499999E-02  -4.01144234E-06
  -2.47000009E-02  -4.76459900E-06
  -2.46500000E-02  -5.37173355E-06
  -2.45999992E-02  -5.85114230E-06
  -2.45500002E-02  -6.28663201E-06
  -2.44999994E-02  -6.78994138E-06
  -2.44500004E-02  -7.45063426E-06
  -2.43999995E-02  -8.29569490E-06
  -2.43500005E-02  -9.27671317E-06
  -2.42999997E-02  -1.02904232E-05
  -2.42500007E-02  -1.12235439E-05
  -2.41999999E-02  -1.20021632E-05
  -2.41500009E-02  -1.26238110E-05
  -2.41000000E-02  -1.31580073E-05
  -2.40499992E-02  -1.37151683E-05
  -2.40000002E-02  -1.43974412E-05
  -2.39499994E-02  -1.52532684E-05
  -2.39000004E-02  -1.62557280E-05
  -2.38499995E-02  -1.73142435E-05
  -2.38000005E-02  -1.83143275E-05
  -2.37499997E-02  -1.91678173E-05
  -2.37000007E-02  -1.98515063E-05
  -2.36499999E-02  -2.04168955E-05
  -2.36000009E-02  -2.09668560E-05
  -2.35500000E-02  -2.16095959E-05
  -2.34999992E-02  -2.24104188E-05
  -2.34500002E-02  -2.33624705E-05
  -2.33999994E-02  -2.43893810E-05
  -2.33500004E-02  -2.53787512E-05
  -2.32999995E-02  -2.62314861E-05
  -2.32500006E-02  -2.69052271E-05
  -2.31999997E-02  -2.74327958E-05
  -2.31500007E-02  -2.79074757E-05
  -2.30999999E-02  -2.84418184E-05
  -2.30500009E-02  -2.91181459E-05
  -2.30000000E-02  -2.99524800E-05
  -2.29499992E-02  -3.08878807E-05
  -2.29000002E-02  -3.18200546E-05
  -2.28499994E-02  -3.26436930E-05
  -2.28000004E-02  -3.32991331E-05
  -2.27499995E-02  -3.37986166E-05
  -2.27000006E-02  -3.42208768E-05
  -2.26499997E-02  -3.46764973E-05
  -2.26000007E-02  -3.52594470E-05
  -2.25499999E-02  -3.60062004E-05
  -2.25000009E-02  -3.68802721E-05
  -2.24500000E-02  -3.77890137E-05
  -2.23999992E-02  -3.86249994E-05
  -2.23500002E-02  -3.93135742E-05
  -2.22999994E-02  -3.98458469E-05
  -2.22500004E-02  -4.02825208E-05
  -2.21999995E-02  -4.07270745E-05
  -2.21500006E-02  -4.12805966E-05
  -2.20999997E-02  -4.19981043E-05
  -2.20500007E-02  -4.28654457E-05
  -2.19999999E-02  -4.38070019E-05
  -2.19500009E-02  -4.47204984E-05
  -2.19000001E-02  -4.55231784E-05
  -2.18499992E-02  -4.61892669E-05
  -2.18000002E-02  -4.67621430E-05
  -2.17499994E-02  -4.73358414E-05
  -2.17000004E-02  -4.80142589E-05
  -2.16499995E-02  -4.88662881E-05
  -2.16000006E-02  -4.98967493E-05
  -2.15499997E-02  -5.10453792E-05
  -2.15000007E-02  -5.22143164E-05
  -2.14499999E-02  -5.33120365E-05
  -2.14000009E-02  -5.42939379E-05
  -2.13500001E-02  -5.51822923E-05
  -2.12999992E-02  -5.60563603E-05
  -2.12500002E-02  -5.70180382E-05
  -2.11999994E-02  -5.81479690E-05
  -2.11500004E-02  -5.94711564E-05
  -2.10999995E-02  -6.09476301E-05
  -2.10500006E-02  -6.24914901E-05
  -2.09999997E-02  -6.40102880E-05
  -2.09500007E-02  -6.54466203E-05
  -2.08999999E-02  -6.68040739E-05
  -2.08500009E-02  -6.81460951E-05
  -2.08000001E-02  -6.95685594E-05
  -2.07499992E-02  -7.11584216E-05
  -2.07000002E-02  -7.29561434E-05
  -2.06499994E-02  -7.49388055E-05
  -2.06000004E-02  -7.70311090E-05
  -2.05499995E-02  -7.91388811E-05
  -2.05000006E-02  -8.11903810E-05
  -2.04499997E-02  -8.31676443E-05
  -2.04000007E-02  -8.51142177E-05
  -2.03499999E-02  -8.71158190E-05
  -2.03000009E-02  -8.92627795E-05
  -2.02500001E-02  -9.16111967E-05
  -2.01999992E-02  -9.41593971E-05
  -2.01500002E-02  -9.68501990E-05
  -2.00999994E-02  -9.95973460E-05
  -2.00500004E-02  -1.02324550E-04
  -1.99999996E-02  -1.04999628E-04
  -1.99500006E-02  -1.07649023E-04
  -1.98999997E-02  -1.10346649E-04
  -1.98500007E-02  -1.13181719E-04
  -1.97999999E-02  -1.16219875E-04
  -1.97500009E-02  -1.19475037E-04
  -1.97000001E-02  -1.22903904E-04
  -1.96499992E-02  -1.26425759E-04
  -1.96000002E-02  -1.29958615E-04
  -1.95499994E-02  -1.33455818E-04
  -1.95000004E-02  -1.36927047E-04
  -1.94499996E-02  -1.40433927E-04
  -1.94000006E-02  -1.44063975E-04
  -1.93499997E-02  -1.47893166E-04
  -1.93000007E-02  -1.51953252E-04
  -1.92499999E-02  -1.56219990E-04
  -1.92000009E-02  -1.60624870E-04
  -1.91500001E-02  -1.65086545E-04
  -1.90999992E-02  -1.69548322E-04
  -1.90500002E-02  -1.74004104E-04
  -1.89999994E-02  -1.78502116E-04
  -1.89500004E-02  -1.83125172E-04
  -1.88999996E-02  -1.87955884E-04
  -1.88500006E-02  -1.93041866E-04
  -1.87999997E-02  -1.98376452E-04
  -1.87500007E-02  -2.03902993E-04
  -1.86999999E-02  -2.09541671E-04
  -1.86500009E-02  -2.15226275E-04
  -1.86000001E-02  -2.20933827E-04
  -1.85499992E-02  -2.26696080E-04
  -1.85000002E-02  -2.32586957E-04
  -1.84499994E-02  -2.38691515E-04
  -1.84000004E-02  -2.45070027E-04
  -1.83499996E-02  -2.51732534E-04
  -1.83000006E-02  -2.58636312E-04
  -1.82499997E-02  -2.65707145E-04
  -1.82000007E-02  -2.72873964E-04
  -1.81499999E-02  -2.80101754E-04
  -1.81000009E-02  -2.87408766E-04
  -1.80500001E-02  -2.94861384E-04
  -1.79999992E-02  -3.02546774E-04
  -1.79500002E-02  -3.10536096E-04
  -1.78999994E-02  -3.18855629E-04
  -1.78500004E-02  -3.27477261E-04
  -1.77999996E-02  -3.36332421E-04
  -1.77500006E-02  -3.45343986E-04
  -1.76999997E-02  -3.54462361E-04
  -1.76500008E-02  -3.63688945E-04
  -1.75999999E-02  -3.73076968E-04
  -1.75500009E-02  -3.82709317E-04
  -1.75000001E-02  -3.92664195E-04
  -1.74499992E-02  -4.02981706E-04
  -1.74000002E-02  -4.13647125E-04
  -1.73499994E-02  -4.24598431E-04
  -1.73000004E-02  -4.35756636E-04
  -1.72499996E-02  -4.47063736E-04
  -1.72000006E-02  -4.58508759E-04
  -1.71499997E-02  -4.70136903E-04
  -1.71000008E-02  -4.82033618E-04
  -1.70499999E-02  -4.94288513E-04
  -1.70000009E-02  -5.06958109E-04
  -1.69500001E-02  -5.20043366E-04
  -1.68999992E-02  -5.33489976E-04
  -1.68500002E-02  -5.47214295E-04
  -1.67999994E-02  -5.61142282E-04
  -1.67500004E-02  -5.75242797E-04
  -1.66999996E-02  -5.89543488E-04
  -1.66500006E-02  -6.04120141E-04
  -1.65999997E-02  -6.19065424E-04
  -1.65500008E-02  -6.34448312E-04
  -1.64999999E-02  -6.50284404E-04
  -1.64500009E-02  -6.66532200E-04
  -1.64000001E-02  -6.83112885E-04
  -1.63499992E-02  -6.99946599E-04
  -1.63000003E-02  -7.16990384E-04
  -1.62499994E-02  -7.34261412E-04
  -1.62000004E-02  -7.51833082E-04
  -1.61499996E-02  -7.69803126E-04
  -1.61000006E-02  -7.88252102E-04
  -1.60499997E-02  -8.07212666E-04
  -1.60000008E-02  -8.26654315E-04
  -1.59499999E-02  -8.46496026E-04
  -1.59000009E-02  -8.66644375E-04
  -1.58500001E-02  -8.87038710E-04
  -1.57999992E-02  -9.07677750E-04
  -1.57500003E-02  -9.28621797E-04
  -1.56999994E-02  -9.49969981E-04
  -1.56500004E-02  -9.71817586E-04
  -1.55999996E-02  -9.94218164E-04
  -1.55499997E-02  -1.01715722E-03
  -1.54999997E-02  -1.04055926E-03
  -1.54499998E-02  -1.06432626E-03
  -1.53999999E-02  -1.08838186E-03
  -1.53500000E-02  -1.11270917E-03
  -1.53000001E-02  -1.13736349E-03
  -1.52500002E-02  -1.16244925E-03
  -1.52000003E-02  -1.18807948E-03
  -1.51500003E-02  -1.21432915E-03
  -1.51000004E-02  -1.24120002E-03
  -1.50499996E-02  -1.26862142E-03
  -1.49999997E-02  -1.29648345E-03
  -1.49499997E-02  -1.32468960E-03
  -1.48999998E-02  -1.35320064E-03
  -1.48499999E-02  -1.38205872E-03
  -1.48000000E-02  -1.41137303E-03
  -1.47500001E-02  -1.44127361E-03
  -1.47000002E-02  -1.47185859E-03
  -1.46500003E-02  -1.50315068E-03
  -1.46000003E-02  -1.53509004E-03
  -1.45500004E-02  -1.56756048E-03
  -1.44999996E-02  -1.60044641E-03
  -1.44499997E-02  -1.63368823E-03
  -1.43999998E-02  -1.66731328E-03
  -1.43499998E-02  -1.70143088E-03
  -1.42999999E-02  -1.73618656E-03
  -1.42500000E-02  -1.77170406E-03
  -1.42000001E-02  -1.80803123E-03
  -1.41500002E-02  -1.84511847E-03
  -1.41000003E-02  -1.88284705E-03
  -1.40500003E-02  -1.92108843E-03
  -1.40000004E-02  -1.95975997E-03
  -1.39499996E-02  -1.99886877E-03
  -1.38999997E-02  -2.03851424E-03
  -1.38499998E-02  -2.07885099E-03
  -1.37999998E-02  -2.12002383E-03
  -1.37499999E-02  -2.16210727E-03
  -1.37000000E-02  -2.20506894E-03
  -1.36500001E-02  -2.24878755E-03
  -1.36000002E-02  -2.29311385E-03
  -1.35500003E-02  -2.33793375E-03
  -1.35000004E-02  -2.38322793E-03
  -1.34500004E-02  -2.42909160E-03
  -1.33999996E-02  -2.47569615E-03
  -1.33499997E-02  -2.52321642E-03
  -1.32999998E-02  -2.57175532E-03
  -1.32499998E-02  -2.62130355E-03
  -1.31999999E-02  -2.67174398E-03
  -1.31500000E-02  -2.72290967E-03
  -1.31000001E-02  -2.77465908E-03
  -1.30500002E-02  -2.82694586E-03
  -1.30000003E-02  -2.87984125E-03
  -1.29500004E-02  -2.93351128E-03
  -1.29000004E-02  -2.98815523E-03
  -1.28499996E-02  -3.04390746E-03
  -1.27999997E-02  -3.10078473E-03
  -1.27499998E-02  -3.15867597E-03
  -1.26999998E-02  -3.21739586E-03
  -1.26499999E-02  -3.27676954E-03
  -1.26000000E-02  -3.33671737E-03
  -1.25500001E-02  -3.39729199E-03
  -1.25000002E-02  -3.45866894E-03
  -1.24500003E-02  -3.52107873E-03
  -1.24000004E-02  -3.58468853E-03
  -1.23500004E-02  -3.64955165E-03
  -1.22999996E-02  -3.71557567E-03
  -1.22499997E-02  -3.78256175E-03
  -1.21999998E-02  -3.85031081E-03
  -1.21499998E-02  -3.91869619E-03
  -1.20999999E-02  -3.98773933E-03
  -1.20500000E-02  -4.05760156E-03
  -1.20000001E-02  -4.12851805E-03
  -1.19500002E-02  -4.20070020E-03
  -1.19000003E-02  -4.27424023E-03
  -1.18500004E-02  -4.34906548E-03
  -1.18000004E-02  -4.42496222E-03
  -1.17499996E-02  -4.50169714E-03
  -1.16999997E-02  -4.57910961E-03
  -1.16499998E-02  -4.65717632E-03
  -1.15999999E-02  -4.73604770E-03
  -1.15499999E-02  -4.81596775E-03
  -1.15000000E-02  -4.89718746E-03
  -1.14500001E-02  -4.97985724E-03
  -1.14000002E-02  -5.06394217E-03
  -1.13500003E-02  -5.14924387E-03
  -1.13000004E-02  -5.23548899E-03
  -1.12500004E-02  -5.32246428E-03
  -1.11999996E-02  -5.41010359E-03
  -1.11499997E-02  -5.49850659E-03
  -1.10999998E-02  -5.58792613E-03
  -1.10499999E-02  -5.67866815E-03
  -1.09999999E-02  -5.77090168E-03
  -1.09500000E-02  -5.86461276E-03
  -1.09000001E-02  -5.95962023E-03
  -1.08500002E-02  -6.05563447E-03
  -1.08000003E-02  -6.15239050E-03
  -1.07500004E-02  -6.24976214E-03
  -1.07000005E-02  -6.34785183E-03
  -1.06499996E-02  -6.44692173E-03
  -1.05999997E-02  -6.54728245E-03
  -1.05499998E-02  -6.64916076E-03
  -1.04999999E-02  -6.75258785E-03
  -1.04499999E-02  -6.85740495E-03
  -1.04000000E-02  -6.96330471E-03
  -1.03500001E-02  -7.06996629E-03
  -1.03000002E-02  -7.17721786E-03
  -1.02500003E-02  -7.28510786E-03
  -1.02000004E-02  -7.39386026E-03
  -1.01500005E-02  -7.50381127E-03
  -1.00999996E-02  -7.61524076E-03
  -1.00499997E-02  -7.72821577E-03
  -9.99999978E-03  -7.84256961E-03
  -9.94999986E-03  -7.95798097E-03
  -9.89999995E-03  -8.07413086E-03
  -9.85000003E-03  -8.19082744E-03
  -9.80000012E-03  -8.30807723E-03
  -9.75000020E-03  -8.42607766E-03
  -9.70000029E-03  -8.54515843E-03
  -9.65000037E-03  -8.66558775E-03
  -9.60000046E-03  -8.78746342E-03
  -9.54999961E-03  -8.91068671E-03
  -9.49999969E-03  -9.03498102E-03
  -9.44999978E-03  -9.16002039E-03
  -9.39999986E-03  -9.28553473E-03
  -9.34999995E-03  -9.41146445E-03
  -9.30000003E-03  -9.53795202E-03
  -9.25000012E-03  -9.66525171E-03
  -9.20000020E-03  -9.79365222E-03
  -9.15000029E-03  -9.92335100E-03
  -9.10000037E-03  -1.00543341E-02
  -9.05000046E-03  -1.01863202E-02
  -8.99999961E-03  -1.03189414E-02
  -8.94999970E-03  -1.04518859E-02
  -8.89999978E-03  -1.05849877E-02
  -8.84999987E-03  -1.07182767E-02
  -8.79999995E-03  -1.08519970E-02
  -8.75000004E-03  -1.09864967E-02
  -8.70000012E-03  -1.11220181E-02
  -8.65000021E-03  -1.12586021E-02
  -8.60000029E-03  -1.13960486E-02
  -8.55000038E-03  -1.15340073E-02
  -8.50000046E-03  -1.16721299E-02
  -8.44999962E-03  -1.18101723E-02
  -8.39999970E-03  -1.19481180E-02
  -8.34999979E-03  -1.20861810E-02
  -8.29999987E-03  -1.22246668E-02
  -8.24999996E-03  -1.23638557E-02
  -8.20000004E-03  -1.25038223E-02
  -8.15000013E-03  -1.26443794E-02
  -8.10000021E-03  -1.27851814E-02
  -8.05000030E-03  -1.29258055E-02
  -8.00000038E-03  -1.30659360E-02
  -7.95000046E-03  -1.32055152E-02
  -7.89999962E-03  -1.33447051E-02
  -7.84999970E-03  -1.34837888E-02
  -7.79999979E-03  -1.36230448E-02
  -7.74999987E-03  -1.37625644E-02
  -7.69999996E-03  -1.39022442E-02
  -7.65000004E-03  -1.40417898E-02
  -7.60000013E-03  -1.41807692E-02
  -7.55000021E-03  -1.43188667E-02
  -7.49999983E-03  -1.44559760E-02
  -7.44999992E-03  -1.45922285E-02
  -7.40000000E-03  -1.47278551E-02
  -7.35000009E-03  -1.48630897E-02
  -7.30000017E-03  -1.49981016E-02
  -7.24999979E-03  -1.51328184E-02
  -7.19999988E-03  -1.52669745E-02
  -7.14999996E-03  -1.54001974E-02
  -7.10000005E-03  -1.55321034E-02
  -7.05000013E-03  -1.56624205E-02
  -7.00000022E-03  -1.57911070E-02
  -6.94999984E-03  -1.59183294E-02
  -6.89999992E-03  -1.60443783E-02
  -6.85000001E-03  -1.61694940E-02
  -6.80000009E-03  -1.62937120E-02
  -6.75000018E-03  -1.64168272E-02
  -6.69999979E-03  -1.65384039E-02
  -6.64999988E-03  -1.66580081E-02
  -6.59999996E-03  -1.67753063E-02
  -6.55000005E-03  -1.68901607E-02
  -6.50000013E-03  -1.70027073E-02
  -6.45000022E-03  -1.71132162E-02
  -6.39999984E-03  -1.72219984E-02
  -6.34999992E-03  -1.73292067E-02
  -6.30000001E-03  -1.74346734E-02
  -6.25000009E-03  -1.75379757E-02
  -6.20000018E-03  -1.76386423E-02
  -6.14999980E-03  -1.77362617E-02
  -6.09999988E-03  -1.78305879E-02
  -6.04999997E-03  -1.79216601E-02
  -6.00000005E-03  -1.80097502E-02
  -5.95000014E-03  -1.80951245E-02
  -5.90000022E-03  -1.81779247E-02
  -5.84999984E-03  -1.82580911E-02
  -5.79999993E-03  -1.83352754E-02
  -5.75000001E-03  -1.84090082E-02
  -5.70000010E-03  -1.84787903E-02
  -5.65000018E-03  -1.85442436E-02
  -5.59999980E-03  -1.86053216E-02
  -5.54999989E-03  -1.86622217E-02
  -5.49999997E-03  -1.87152270E-02
  -5.45000006E-03  -1.87645089E-02
  -5.40000014E-03  -1.88101046E-02
  -5.35000023E-03  -1.88518483E-02
  -5.29999984E-03  -1.88892931E-02
  -5.24999993E-03  -1.89218819E-02
  -5.20000001E-03  -1.89491641E-02
  -5.15000010E-03  -1.89709347E-02
  -5.10000018E-03  -1.89872421E-02
  -5.04999980E-03  -1.89982541E-02
  -4.99999989E-03  -1.90042574E-02
  -4.94999997E-03  -1.90053750E-02
  -4.90000006E-03  -1.90014392E-02
  -4.85000014E-03  -1.89921632E-02
  -4.80000023E-03  -1.89770758E-02
  -4.74999985E-03  -1.89555846E-02
  -4.69999993E-03  -1.89272668E-02
  -4.65000002E-03  -1.88919865E-02
  -4.60000010E-03  -1.88498180E-02
  -4.55000019E-03  -1.88009888E-02
  -4.49999981E-03  -1.87457744E-02
  -4.44999989E-03  -1.86842661E-02
  -4.39999998E-03  -1.86162405E-02
  -4.35000006E-03  -1.85412373E-02
  -4.30000015E-03  -1.84585471E-02
  -4.25000023E-03  -1.83675513E-02
  -4.19999985E-03  -1.82680450E-02
  -4.14999994E-03  -1.81600451E-02
  -4.10000002E-03  -1.80437937E-02
  -4.05000011E-03  -1.79196242E-02
  -4.00000019E-03  -1.77876912E-02
  -3.94999981E-03  -1.76477935E-02
  -3.89999989E-03  -1.74994301E-02
  -3.84999998E-03  -1.73420087E-02
  -3.80000006E-03  -1.71749797E-02
  -3.74999992E-03  -1.69979017E-02
  -3.70000000E-03  -1.68106128E-02
  -3.65000009E-03  -1.66133307E-02
  -3.59999994E-03  -1.64063536E-02
  -3.55000002E-03  -1.61898863E-02
  -3.50000011E-03  -1.59639381E-02
  -3.44999996E-03  -1.57281253E-02
  -3.40000005E-03  -1.54817738E-02
  -3.34999990E-03  -1.52240628E-02
  -3.29999998E-03  -1.49543900E-02
  -3.25000007E-03  -1.46725895E-02
  -3.19999992E-03  -1.43787740E-02
  -3.15000000E-03  -1.40732965E-02
  -3.10000009E-03  -1.37564782E-02
  -3.04999994E-03  -1.34284357E-02
  -3.00000003E-03  -1.30889677E-02
  -2.95000011E-03  -1.27374325E-02
  -2.89999996E-03  -1.23730684E-02
  -2.85000005E-03  -1.19951693E-02
  -2.79999990E-03  -1.16032856E-02
  -2.74999999E-03  -1.11973975E-02
  -2.70000007E-03  -1.07778059E-02
  -2.64999992E-03  -1.03448713E-02
  -2.60000001E-03  -9.89887584E-03
  -2.55000009E-03  -9.43981763E-03
  -2.49999994E-03  -8.96710623E-03
  -2.45000003E-03  -8.47990718E-03
  -2.40000011E-03  -7.97745492E-03
  -2.34999997E-03  -7.45912176E-03
  -2.30000005E-03  -6.92469347E-03
  -2.24999990E-03  -6.37444388E-03
  -2.19999999E-03  -5.80877764E-03
  -2.15000007E-03  -5.22800442E-03
  -2.09999993E-03  -4.63208742E-03
  -2.05000001E-03  -4.02057497E-03
  -2.00000009E-03  -3.39283957E-03
  -1.94999995E-03  -2.74810498E-03
  -1.90000003E-03  -2.08573602E-03
  -1.85000000E-03  -1.40537869E-03
  -1.79999997E-03  -7.07051542E-04
  -1.75000005E-03   8.93396646E-06
  -1.70000002E-03   7.42188364E-04
  -1.64999999E-03   1.49246480E-03
  -1.59999996E-03   2.25993991E-03
  -1.55000004E-03   3.04516661E-03
  -1.50000001E-03   3.84892849E-03
  -1.44999998E-03   4.67202067E-03
  -1.39999995E-03   5.51496260E-03
  -1.35000004E-03   6.37791120E-03
  -1.30000000E-03   7.26071559E-03
  -1.24999997E-03   8.16300791E-03
  -1.20000006E-03   9.08437185E-03
  -1.15000003E-03   1.00246333E-02
  -1.09999999E-03   1.09842187E-02
  -1.04999996E-03   1.19640632E-02
  -1.00000005E-03   1.29651697E-02
  -9.50000016E-04   1.39882732E-02
  -8.99999985E-04   1.50336828E-02
  -8.50000011E-04   1.61011647E-02
  -7.99999980E-04   1.71901174E-02
  -7.50000007E-04   1.82999149E-02
  -6.99999975E-04   1.94301978E-02
  -6.50000002E-04   2.05812100E-02
  -6.00000028E-04   2.17538681E-02
  -5.49999997E-04   2.29492635E-02
  -5.00000024E-04   2.41683312E-02
  -4.49999992E-04   2.54114717E-02
  -3.99999990E-04   2.66784597E-02
  -3.49999988E-04   2.79687215E-02
  -3.00000014E-04   2.92814057E-02
  -2.50000012E-04   3.06160469E-02
  -1.99999995E-04   3.19728851E-02
  -1.50000007E-04   3.33526693E-02
  -9.99999975E-05   3.47565934E-02
  -4.99999987E-05   3.61858569E-02
   0.00000000       3.76410335E-02
   4.99999987E-05   3.91219854E-02
   9.99999975E-05   4.06280048E-02
   1.50000007E-04   4.21581306E-02
   1.99999995E-04   4.37116362E-02
   2.50000012E-04   4.52885218E-02
   3.00000014E-04   4.68894169E-02
   3.49999988E-04   4.85153422E-02
   3.99999990E-04   5.01675494E-02
   4.49999992E-04   5.18469289E-02
   5.00000024E-04   5.35536036E-02
   5.49999997E-04   5.52868322E-02
   6.00000028E-04   5.70454970E-02
   6.50000002E-04   5.88286966E-02
   6.99999975E-04   6.06360808E-02
   7.50000007E-04   6.24680109E-02
   7.99999980E-04   6.43255487E-02
   8.50000011E-04   6.62099943E-02
   8.99999985E-04   6.81222752E-02
   9.50000016E-04   7.00627491E-02
   1.00000005E-03   7.20311254E-02
   1.04999996E-03   7.40263388E-02
   1.09999999E-03   7.60471523E-02
   1.15000003E-03   7.80928060E-02
   1.20000006E-03   8.01632330E-02
   1.24999997E-03   8.22592154E-02
   1.30000000E-03   8.43820572E-02
   1.35000004E-03   8.65329951E-02
   1.39999995E-03   8.87127370E-02
   1.44999998E-03   9.09211859E-02
   1.50000001E-03   9.31573957E-02
   1.55000004E-03   9.54198837E-02
   1.59999996E-03   9.77072716E-02
   1.64999999E-03  0.100019068    
   1.70000002E-03  0.102355838    
   1.75000005E-03  0.104718804    
   1.79999997E-03  0.107109539    
   1.85000000E-03  0.109529249    
   1.90000003E-03  0.111977942    
   1.94999995E-03  0.114454560    
   2.00000009E-03  0.116957270    
   2.05000001E-03  0.119484492    
   2.09999993E-03  0.122035369    
   2.15000007E-03  0.124610029    
   2.19999999E-03  0.127209723    
   2.24999990E-03  0.129836187    
   2.30000005E-03  0.132490933    
   2.34999997E-03  0.135174498    
   2.40000011E-03  0.137885869    
   2.45000003E-03  0.140622750    
   2.49999994E-03  0.143382877    
   2.55000009E-03  0.146165058    
   2.60000001E-03  0.148969293    
   2.64999992E-03  0.151796699    
   2.70000007E-03  0.154648945    
   2.74999999E-03  0.157527626    
   2.79999990E-03  0.160433650    