  -3.99999991E-02   0.00000000    
  -3.99499983E-02   0.00000000    
  -3.99000011E-02   0.00000000    
  -3.98500003E-02   0.00000000    
  -3.97999994E-02  -6.66508081E-20
  -3.97499986E-02  -5.11518048E-19
  -3.97000015E-02  -2.10599357E-18
  -3.96500006E-02  -6.18703677E-18
  -3.95999998E-02  -1.46599235E-17
  -3.95499989E-02  -3.01505017E-17
  -3.95000018E-02  -5.64506961E-17
  -3.94500010E-02  -9.87839668E-17
  -3.94000001E-02  -1.62987694E-16
  -3.93499993E-02  -2.53428393E-16
  -3.92999984E-02  -3.71110757E-16
  -3.92500013E-02  -5.14227879E-16
  -3.92000005E-02  -6.81804348E-16
  -3.91499996E-02  -8.78136103E-16
  -3.90999988E-02  -1.11451663E-15
  -3.90500017E-02  -1.40698959E-15
  -3.90000008E-02  -1.77238362E-15
  -3.89500000E-02  -2.22569427E-15
  -3.88999991E-02  -2.77914877E-15
  -3.88499983E-02  -3.44078717E-15
  -3.88000011E-02  -4.21195137E-15
  -3.87500003E-02  -5.08707702E-15
  -3.86999995E-02  -6.05958477E-15
  -3.86499986E-02  -7.13192594E-15
  -3.86000015E-02  -8.32141430E-15
  -3.85500006E-02  -9.65474750E-15
  -3.84999998E-02  -1.11538434E-14
  -3.84499989E-02  -1.28240593E-14
  -3.84000018E-02  -1.46533888E-14
  -3.83500010E-02  -1.66199096E-14
  -3.83000001E-02  -1.86974832E-14
  -3.82499993E-02  -2.08548202E-14
  -3.81999984E-02  -2.30539244E-14
  -3.81500013E-02  -2.52563338E-14
  -3.81000005E-02  -2.74353125E-14
  -3.80499996E-02  -2.95817143E-14
  -3.79999988E-02  -3.16950445E-14
  -3.79500017E-02  -3.37668702E-14
  -3.79000008E-02  -3.57725527E-14
  -3.78500000E-02  -3.76770589E-14
  -3.77999991E-02  -3.94427228E-14
  -3.77499983E-02  -4.10232659E-14
  -3.77000012E-02  -4.23464500E-14
  -3.76500003E-02  -4.33066059E-14
  -3.75999995E-02  -4.37832753E-14
  -3.75499986E-02  -4.36751262E-14
  -3.75000015E-02  -4.29189290E-14
  -3.74500006E-02  -4.14743550E-14
  -3.73999998E-02  -3.92872719E-14
  -3.73499990E-02  -3.62623072E-14
  -3.73000018E-02  -3.22624177E-14
  -3.72500010E-02  -2.71275701E-14
  -3.72000001E-02  -2.06983631E-14
  -3.71499993E-02  -1.28455935E-14
  -3.70999984E-02  -3.51555985E-15
  -3.70500013E-02   7.22029858E-15
  -3.70000005E-02   1.91546743E-14
  -3.69499996E-02   3.20128174E-14
  -3.68999988E-02   4.55883263E-14
  -3.68500017E-02   5.98731473E-14
  -3.68000008E-02   7.50974735E-14
  -3.67500000E-02   9.16502863E-14
  -3.66999991E-02   1.09923870E-13
  -3.66499983E-02   1.30156655E-13
  -3.66000012E-02   1.52330609E-13
  -3.65500003E-02   1.76146736E-13
  -3.64999995E-02   2.01090460E-13
  -3.64499986E-02   2.26588388E-13
  -3.64000015E-02   2.52217355E-13
  -3.63500006E-02   2.77867112E-13
  -3.62999998E-02   3.03740269E-13
  -3.62499990E-02   3.30150675E-13
  -3.62000018E-02   3.57212469E-13
  -3.61500010E-02   3.84599660E-13
  -3.61000001E-02   4.11522677E-13
  -3.60499993E-02   4.36936891E-13
  -3.59999985E-02   4.59875898E-13
  -3.59500013E-02   4.79759624E-13
  -3.59000005E-02   4.96556463E-13
  -3.58499996E-02   5.10730076E-13
  -3.57999988E-02   5.22955973E-13
  -3.57500017E-02   5.33675426E-13
  -3.57000008E-02   5.42664709E-13
  -3.56500000E-02   5.48858430E-13
  -3.55999991E-02   5.50586703E-13
  -3.55499983E-02   5.46165543E-13
  -3.55000012E-02   5.34556557E-13
  -3.54500003E-02   5.15745107E-13
  -3.53999995E-02   4.90634985E-13
  -3.53499986E-02   4.60510753E-13
  -3.53000015E-02   4.26309433E-13
  -3.52500007E-02   3.88013460E-13
  -3.51999998E-02   3.44413490E-13
  -3.51499990E-02   2.93381693E-13
  -3.51000018E-02   2.32616498E-13
  -3.50500010E-02   1.60607706E-13
  -3.50000001E-02   7.73884876E-14
  -3.49499993E-02  -1.53424704E-14
  -3.48999985E-02  -1.14875489E-13
  -3.48500013E-02  -2.18649792E-13
  -3.48000005E-02  -3.25355140E-13
  -3.47499996E-02  -4.35428251E-13
  -3.46999988E-02  -5.50714259E-13
  -3.46500017E-02  -6.73458576E-13
  -3.46000008E-02  -8.05071775E-13
  -3.45500000E-02  -9.45183602E-13
  -3.44999991E-02  -1.09139553E-12
  -3.44499983E-02  -1.23990824E-12
  -3.44000012E-02  -1.38683693E-12
  -3.43500003E-02  -1.52967894E-12
  -3.42999995E-02  -1.66820681E-12
  -3.42499986E-02  -1.80426301E-12
  -3.42000015E-02  -1.94046558E-12
  -3.41500007E-02  -2.07842424E-12
  -3.40999998E-02  -2.21734176E-12
  -3.40499990E-02  -2.35367997E-12
  -3.40000018E-02  -2.48204127E-12
  -3.39500010E-02  -2.59686630E-12
  -3.39000002E-02  -2.69423156E-12
  -3.38499993E-02  -2.77297955E-12
  -3.37999985E-02  -2.83465872E-12
  -3.37500013E-02  -2.88219709E-12
  -3.37000005E-02  -2.91779860E-12
  -3.36499996E-02  -2.94101028E-12
  -3.35999988E-02  -2.94795655E-12
  -3.35500017E-02  -2.93224364E-12
  -3.35000008E-02  -2.88719526E-12
  -3.34500000E-02  -2.80837940E-12
  -3.33999991E-02  -2.69521796E-12
  -3.33499983E-02  -2.55093689E-12
  -3.33000012E-02  -2.38088672E-12
  -3.32500003E-02  -2.18995460E-12
  -3.31999995E-02  -1.98013654E-12
  -3.31499986E-02  -1.74930860E-12
  -3.31000015E-02  -1.49178770E-12
  -3.30500007E-02  -1.20058607E-12
  -3.29999998E-02  -8.70464779E-13
  -3.29499990E-02  -5.00414163E-13
  -3.29000019E-02  -9.43358212E-14
  -3.28500010E-02   3.40455583E-13
  -3.28000002E-02   7.96200291E-13
  -3.27499993E-02   1.26769266E-12
  -3.26999985E-02   1.75391884E-12
  -3.26500013E-02   2.25763310E-12
  -3.26000005E-02   2.78312594E-12
  -3.25499997E-02   3.33316577E-12
  -3.24999988E-02   3.90641165E-12
  -3.24500017E-02   4.49643317E-12
  -3.24000008E-02   5.09288445E-12
  -3.23500000E-02   5.68446722E-12
  -3.22999991E-02   6.26240726E-12
  -3.22499983E-02   6.82279537E-12
  -3.22000012E-02   7.36661513E-12
  -3.21500003E-02   7.89739628E-12
  -3.20999995E-02   8.41763291E-12
  -3.20499986E-02   8.92570393E-12
  -3.20000015E-02   9.41465482E-12
  -3.19500007E-02   9.87333392E-12
  -3.18999998E-02   1.02893241E-11
  -3.18499990E-02   1.06524520E-11
  -3.18000019E-02   1.09574216E-11
  -3.17500010E-02   1.12043924E-11
  -3.17000002E-02   1.13971263E-11
  -3.16499993E-02   1.15393970E-11
  -3.15999985E-02   1.16312758E-11
  -3.15500014E-02   1.16670944E-11
  -3.15000005E-02   1.16361478E-11
  -3.14499997E-02   1.15258176E-11
  -3.13999988E-02   1.13256392E-11
  -3.13500017E-02   1.10304708E-11
  -3.13000008E-02   1.06415241E-11
  -3.12500000E-02   1.01649375E-11
  -3.11999992E-02   9.60858042E-12
  -3.11500002E-02   8.97837794E-12
  -3.10999993E-02   8.27562064E-12
  -3.10500003E-02   7.49646699E-12
  -3.09999995E-02   6.63396118E-12
  -3.09500005E-02   5.68175324E-12
  -3.08999997E-02   4.63778104E-12
  -3.08500007E-02   3.50614871E-12
  -3.07999998E-02   2.29637555E-12
  -3.07500008E-02   1.02048686E-12
  -3.07000000E-02  -3.10566866E-13
  -3.06499992E-02  -1.68958846E-12
  -3.06000002E-02  -3.11395115E-12
  -3.05499993E-02  -4.58436934E-12
  -3.05000003E-02  -6.10216695E-12
  -3.04499995E-02  -7.66608999E-12
  -3.04000005E-02  -9.26991296E-12
  -3.03499997E-02  -1.09020215E-11
  -3.03000007E-02  -1.25472350E-11
  -3.02499998E-02  -1.41900840E-11
  -3.02000009E-02  -1.58178904E-11
  -3.01500000E-02  -1.74221835E-11
  -3.00999992E-02  -1.89979369E-11
  -3.00500002E-02  -2.05412076E-11
  -2.99999993E-02  -2.20464064E-11
  -2.99500003E-02  -2.35043079E-11
  -2.98999995E-02  -2.49015340E-11
  -2.98500005E-02  -2.62215735E-11
  -2.97999997E-02  -2.74472424E-11
  -2.97500007E-02  -2.85636566E-11
  -2.96999998E-02  -2.95605589E-11
  -2.96500009E-02  -3.04328437E-11
  -2.96000000E-02  -3.11788581E-11
  -2.95499992E-02  -3.17973356E-11
  -2.95000002E-02  -3.22844251E-11
  -2.94499993E-02  -3.26320949E-11
  -2.94000003E-02  -3.28284240E-11
  -2.93499995E-02  -3.28593749E-11
  -2.93000005E-02  -3.27112955E-11
  -2.92499997E-02  -3.23734130E-11
  -2.92000007E-02  -3.18395518E-11
  -2.91499998E-02  -3.11084700E-11
  -2.91000009E-02  -3.01823982E-11
  -2.90500000E-02  -2.90643343E-11
  -2.89999992E-02  -2.77552790E-11
  -2.89500002E-02  -2.62528801E-11
  -2.88999993E-02  -2.45520392E-11
  -2.88500004E-02  -2.26470839E-11
  -2.87999995E-02  -2.05343902E-11
  -2.87500005E-02  -1.82143450E-11
  -2.86999997E-02  -1.56922114E-11
  -2.86500007E-02  -1.29777118E-11
  -2.85999998E-02  -1.00834601E-11
  -2.85500009E-02  -7.02254661E-12
  -2.85000000E-02  -3.80607091E-12
  -2.84499992E-02  -4.41899582E-13
  -2.84000002E-02   3.06468956E-12
  -2.83499993E-02   6.70866401E-12
  -2.83000004E-02   1.04824448E-11
  -2.82499995E-02   1.43741841E-11
  -2.82000005E-02   1.83676598E-11
  -2.81499997E-02   2.24435852E-11
  -2.81000007E-02   2.65815338E-11
  -2.80499998E-02   3.07617092E-11
  -2.80000009E-02   3.49661099E-11
  -2.79500000E-02   3.91787089E-11
  -2.78999992E-02   4.33843517E-11
  -2.78500002E-02   4.75665583E-11
  -2.77999993E-02   5.17052859E-11
  -2.77500004E-02   5.57760435E-11
  -2.76999995E-02   5.97509681E-11
  -2.76500005E-02   6.36014366E-11
  -2.75999997E-02   6.73007414E-11
  -2.75500007E-02   7.08255954E-11
  -2.74999999E-02   7.41559592E-11
  -2.74500009E-02   7.72737430E-11
  -2.74000000E-02   8.01610514E-11
  -2.73499992E-02   8.27985597E-11
  -2.73000002E-02   8.51644241E-11
  -2.72499993E-02   8.72341643E-11
  -2.72000004E-02   8.89819954E-11
  -2.71499995E-02   9.03832911E-11
  -2.71000005E-02   9.14169226E-11
  -2.70499997E-02   9.20662296E-11
  -2.70000007E-02   9.23182364E-11
  -2.69499999E-02   9.21619239E-11
  -2.69000009E-02   9.15867313E-11
  -2.68500000E-02   9.05819864E-11
  -2.67999992E-02   8.91369201E-11
  -2.67500002E-02   8.72409922E-11
  -2.66999993E-02   8.48839332E-11
  -2.66500004E-02   8.20562437E-11
  -2.65999995E-02   7.87499857E-11
  -2.65500005E-02   7.49599063E-11
  -2.64999997E-02   7.06842432E-11
  -2.64500007E-02   6.59252791E-11
  -2.63999999E-02   6.06897033E-11
  -2.63500009E-02   5.49889127E-11
  -2.63000000E-02   4.88388115E-11
  -2.62499992E-02   4.22582976E-11
  -2.62000002E-02   3.52663350E-11
  -2.61499994E-02   2.78792735E-11
  -2.61000004E-02   2.01099276E-11
  -2.60499995E-02   1.19696232E-11
  -2.60000005E-02   3.47225851E-12
  -2.59499997E-02  -5.36156406E-12
  -2.59000007E-02  -1.45023603E-11
  -2.58499999E-02  -2.39123669E-11
  -2.58000009E-02  -3.35489692E-11
  -2.57500000E-02  -4.33698841E-11
  -2.56999992E-02  -5.33382470E-11
  -2.56500002E-02  -6.34253275E-11
  -2.55999994E-02  -7.36089800E-11
  -2.55500004E-02  -8.38675934E-11
  -2.54999995E-02  -9.41718023E-11
  -2.54500005E-02  -1.04478030E-10
  -2.53999997E-02  -1.14727790E-10
  -2.53500007E-02  -1.24853475E-10
  -2.52999999E-02  -1.34788736E-10
  -2.52500009E-02  -1.44478166E-10
  -2.52000000E-02  -1.53882435E-10
  -2.51499992E-02  -1.62976022E-10
  -2.51000002E-02  -1.71738346E-10
  -2.50499994E-02  -1.80142054E-10
  -2.50000004E-02  -1.88142849E-10
  -2.49499995E-02  -1.95676517E-10
  -2.49000005E-02  -2.02665412E-10
  -2.48499997E-02  -2.09032971E-10
  -2.48000007E-02  -2.14720089E-10
  -2.47499999E-02  -2.19694929E-10
  -2.47000009E-02  -2.23951038E-10
  -2.46500000E-02  -2.27493274E-10
  -2.45999992E-02  -2.30318001E-10
  -2.45500002E-02  -2.32396200E-10
  -2.44999994E-02  -2.33667807E-10
  -2.44500004E-02  -2.34050279E-10
  -2.43999995E-02  -2.33458780E-10
  -2.43500005E-02  -2.31830041E-10
  -2.42999997E-02  -2.29139929E-10
  -2.42500007E-02  -2.25405847E-10
  -2.41999999E-02  -2.20671204E-10
  -2.41500009E-02  -2.14977744E-10
  -2.41000000E-02  -2.08337805E-10
  -2.40499992E-02  -2.00720066E-10
  -2.40000002E-02  -1.92056288E-10
  -2.39499994E-02  -1.82267271E-10
  -2.39000004E-02  -1.71296297E-10
  -2.38499995E-02  -1.59135538E-10
  -2.38000005E-02  -1.45833318E-10
  -2.37499997E-02  -1.31478411E-10
  -2.37000007E-02  -1.16167159E-10
  -2.36499999E-02  -9.99668889E-11
  -2.36000009E-02  -8.28919572E-11
  -2.35500000E-02  -6.49046372E-11
  -2.34999992E-02  -4.59421945E-11
  -2.34500002E-02  -2.59594152E-11
  -2.33999994E-02  -4.96653890E-12
  -2.33500004E-02   1.69549045E-11
  -2.32999995E-02   3.96670995E-11
  -2.32500006E-02   6.30163421E-11
  -2.31999997E-02   8.68791844E-11
  -2.31500007E-02   1.11195601E-10
  -2.30999999E-02   1.35972150E-10
  -2.30500009E-02   1.61253372E-10
  -2.30000000E-02   1.87072607E-10
  -2.29499992E-02   2.13402393E-10
  -2.29000002E-02   2.40128084E-10
  -2.28499994E-02   2.67058237E-10
  -2.28000004E-02   2.93969626E-10
  -2.27499995E-02   3.20667631E-10
  -2.27000006E-02   3.47034540E-10
  -2.26499997E-02   3.73042874E-10
  -2.26000007E-02   3.98725664E-10
  -2.25499999E-02   4.24117769E-10
  -2.25000009E-02   4.49192766E-10
  -2.24500000E-02   4.73824591E-10
  -2.23999992E-02   4.97791086E-10
  -2.23500002E-02   5.20819998E-10
  -2.22999994E-02   5.42658862E-10
  -2.22500004E-02   5.63138924E-10
  -2.21999995E-02   5.82203563E-10
  -2.21500006E-02   5.99885974E-10
  -2.20999997E-02   6.16243223E-10
  -2.20500007E-02   6.31277419E-10
  -2.19999999E-02   6.44878262E-10
  -2.19500009E-02   6.56815380E-10
  -2.19000001E-02   6.66783906E-10
  -2.18499992E-02   6.74483358E-10
  -2.18000002E-02   6.79696799E-10
  -2.17499994E-02   6.82335299E-10
  -2.17000004E-02   6.82426560E-10
  -2.16499995E-02   6.80051515E-10
  -2.16000006E-02   6.75255518E-10
  -2.15499997E-02   6.67972511E-10
  -2.15000007E-02   6.57998933E-10
  -2.14499999E-02   6.45030640E-10
  -2.14000009E-02   6.28748054E-10
  -2.13500001E-02   6.08910755E-10
  -2.12999992E-02   5.85418769E-10
  -2.12500002E-02   5.58311675E-10
  -2.11999994E-02   5.27706656E-10
  -2.11500004E-02   4.93700969E-10
  -2.10999995E-02   4.56282151E-10
  -2.10500006E-02   4.15285778E-10
  -2.09999997E-02   3.70420167E-10
  -2.09500007E-02   3.21353028E-10
  -2.08999999E-02   2.67819461E-10
  -2.08500009E-02   2.09705781E-10
  -2.08000001E-02   1.47069065E-10
  -2.07499992E-02   8.00786798E-11
  -2.07000002E-02   8.90925268E-12
  -2.06499994E-02  -6.63693961E-11
  -2.06000004E-02  -1.45854148E-10
  -2.05499995E-02  -2.29798985E-10
  -2.05000006E-02  -3.18530563E-10
  -2.04499997E-02  -4.12330808E-10
  -2.04000007E-02  -5.11331533E-10
  -2.03499999E-02  -6.15471119E-10
  -2.03000009E-02  -7.24536819E-10
  -2.02500001E-02  -8.38272896E-10
  -2.01999992E-02  -9.56509094E-10
  -2.01500002E-02  -1.07925169E-09
  -2.00999994E-02  -1.20669530E-09
  -2.00500004E-02  -1.33914924E-09
  -1.99999996E-02  -1.47690937E-09
  -1.99500006E-02  -1.62013380E-09
  -1.98999997E-02  -1.76877635E-09
  -1.98500007E-02  -1.92260785E-09
  -1.97999999E-02  -2.08131357E-09
  -1.97500009E-02  -2.24463514E-09
  -1.97000001E-02  -2.41248244E-09
  -1.96499992E-02  -2.58497512E-09
  -1.96000002E-02  -2.76238876E-09
  -1.95499994E-02  -2.94502822E-09
  -1.95000004E-02  -3.13308401E-09
  -1.94499996E-02  -3.32653594E-09
  -1.94000006E-02  -3.52515106E-09
  -1.93499997E-02  -3.72857478E-09
  -1.93000007E-02  -3.93647692E-09
  -1.92499999E-02  -4.14868451E-09
  -1.92000009E-02  -4.36524905E-09
  -1.91500001E-02  -4.58641658E-09
  -1.90999992E-02  -4.81250906E-09
  -1.90500002E-02  -5.04376807E-09
  -1.89999994E-02  -5.28023447E-09
  -1.89500004E-02  -5.52171553E-09
  -1.88999996E-02  -5.76785109E-09
  -1.88500006E-02  -6.01826677E-09
  -1.87999997E-02  -6.27273300E-09
  -1.87500007E-02  -6.53126264E-09
  -1.86999999E-02  -6.79410395E-09
  -1.86500009E-02  -7.06162950E-09
  -1.86000001E-02  -7.33416838E-09
  -1.85499992E-02  -7.61186136E-09
  -1.85000002E-02  -7.89459875E-09
  -1.84499994E-02  -8.18206836E-09
  -1.84000004E-02  -8.47389359E-09
  -1.83499996E-02  -8.76980533E-09
  -1.83000006E-02  -9.06978581E-09
  -1.82499997E-02  -9.37409794E-09
  -1.82000007E-02  -9.68320535E-09
  -1.81499999E-02  -9.99759031E-09
  -1.81000009E-02  -1.03175806E-08
  -1.80500001E-02  -1.06432427E-08
  -1.79999992E-02  -1.09744134E-08
  -1.79500002E-02  -1.13108101E-08
  -1.78999994E-02  -1.16522161E-08
  -1.78500004E-02  -1.19986421E-08
  -1.77999996E-02  -1.23503971E-08
  -1.77500006E-02  -1.27080435E-08
  -1.76999997E-02  -1.30722331E-08
  -1.76500008E-02  -1.34435076E-08
  -1.75999999E-02  -1.38221612E-08
  -1.75500009E-02  -1.42082124E-08
  -1.75000001E-02  -1.46015147E-08
  -1.74499992E-02  -1.50019481E-08
  -1.74000002E-02  -1.54096025E-08
  -1.73499994E-02  -1.58248827E-08
  -1.73000004E-02  -1.62484977E-08
  -1.72499996E-02  -1.66812910E-08
  -1.72000006E-02  -1.71240657E-08
  -1.71499997E-02  -1.75774044E-08
  -1.71000008E-02  -1.80416109E-08
  -1.70499999E-02  -1.85167490E-08
  -1.70000009E-02  -1.90028580E-08
  -1.69500001E-02  -1.95001562E-08
  -1.68999992E-02  -2.00091890E-08
  -1.68500002E-02  -2.05308464E-08
  -1.67999994E-02  -2.10662261E-08
  -1.67500004E-02  -2.16164153E-08
  -1.66999996E-02  -2.21823075E-08
  -1.66500006E-02  -2.27644925E-08
  -1.65999997E-02  -2.33633042E-08
  -1.65500008E-02  -2.39789699E-08
  -1.64999999E-02  -2.46118361E-08
  -1.64500009E-02  -2.52625671E-08
  -1.64000001E-02  -2.59322004E-08
  -1.63499992E-02  -2.66220717E-08
  -1.63000003E-02  -2.73335896E-08
  -1.62499994E-02  -2.80679853E-08
  -1.62000004E-02  -2.88261699E-08
  -1.61499996E-02  -2.96087492E-08
  -1.61000006E-02  -3.04161638E-08
  -1.60499997E-02  -3.12489128E-08
  -1.60000008E-02  -3.21077778E-08
  -1.59499999E-02  -3.29939276E-08
  -1.59000009E-02  -3.39088650E-08
  -1.58500001E-02  -3.48542315E-08
  -1.57999992E-02  -3.58315724E-08
  -1.57500003E-02  -3.68421276E-08
  -1.56999994E-02  -3.78867746E-08
  -1.56500004E-02  -3.89661494E-08
  -1.55999996E-02  -4.00808879E-08
  -1.55499997E-02  -4.12318393E-08
  -1.54999997E-02  -4.24202362E-08
  -1.54499998E-02  -4.36476846E-08
  -1.53999999E-02  -4.49159963E-08
  -1.53500000E-02  -4.62269085E-08
  -1.53000001E-02  -4.75819064E-08
  -1.52500002E-02  -4.89820948E-08
  -1.52000003E-02  -5.04282660E-08
  -1.51500003E-02  -5.19211625E-08
  -1.51000004E-02  -5.34616866E-08
  -1.50499996E-02  -5.50511032E-08
  -1.49999997E-02  -5.66910714E-08
  -1.49499997E-02  -5.83835238E-08
  -1.48999998E-02  -6.01303967E-08
  -1.48499999E-02  -6.19333633E-08
  -1.48000000E-02  -6.37936850E-08
  -1.47500001E-02  -6.57122712E-08
  -1.47000002E-02  -6.76898750E-08
  -1.46500003E-02  -6.97273990E-08
  -1.46000003E-02  -7.18260793E-08
  -1.45500004E-02  -7.39875787E-08
  -1.44999996E-02  -7.62138015E-08
  -1.44499997E-02  -7.85067513E-08
  -1.43999998E-02  -8.08682685E-08
  -1.43499998E-02  -8.32998310E-08
  -1.42999999E-02  -8.58024904E-08
  -1.42500000E-02  -8.83770426E-08
  -1.42000001E-02  -9.10243187E-08
  -1.41500002E-02  -9.37454914E-08
  -1.41000003E-02  -9.65421876E-08
  -1.40500003E-02  -9.94163969E-08
  -1.40000004E-02  -1.02370230E-07
  -1.39499996E-02  -1.05405654E-07
  -1.38999997E-02  -1.08524290E-07
  -1.38499998E-02  -1.11727374E-07
  -1.37999998E-02  -1.15015823E-07
  -1.37499999E-02  -1.18390560E-07
  -1.37000000E-02  -1.21852793E-07
  -1.36500001E-02  -1.25404100E-07
  -1.36000002E-02  -1.29046427E-07
  -1.35500003E-02  -1.32782020E-07
  -1.35000004E-02  -1.36613139E-07
  -1.34500004E-02  -1.40541673E-07
  -1.33999996E-02  -1.44569185E-07
  -1.33499997E-02  -1.48696799E-07
  -1.32999998E-02  -1.52925608E-07
  -1.32499998E-02  -1.57256935E-07
  -1.31999999E-02  -1.61692583E-07
  -1.31500000E-02  -1.66234798E-07
  -1.31000001E-02  -1.70886040E-07
  -1.30500002E-02  -1.75648708E-07
  -1.30000003E-02  -1.80525021E-07
  -1.29500004E-02  -1.85516996E-07
  -1.29000004E-02  -1.90626281E-07
  -1.28499996E-02  -1.95854298E-07
  -1.27999997E-02  -2.01202582E-07
  -1.27499998E-02  -2.06673121E-07
  -1.26999998E-02  -2.12268532E-07
  -1.26499999E-02  -2.17991811E-07
  -1.26000000E-02  -2.23846001E-07
  -1.25500001E-02  -2.29833915E-07
  -1.25000002E-02  -2.35957870E-07
  -1.24500003E-02  -2.42220040E-07
  -1.24000004E-02  -2.48622456E-07
  -1.23500004E-02  -2.55167294E-07
  -1.22999996E-02  -2.61857053E-07
  -1.22499997E-02  -2.68694521E-07
  -1.21999998E-02  -2.75683163E-07
  -1.21499998E-02  -2.82826818E-07
  -1.20999999E-02  -2.90129350E-07
  -1.20500000E-02  -2.97594170E-07
  -1.20000001E-02  -3.05224262E-07
  -1.19500002E-02  -3.13022440E-07
  -1.19000003E-02  -3.20991575E-07
  -1.18500004E-02  -3.29134934E-07
  -1.18000004E-02  -3.37456072E-07
  -1.17499996E-02  -3.45958910E-07
  -1.16999997E-02  -3.54647710E-07
  -1.16499998E-02  -3.63526681E-07
  -1.15999999E-02  -3.72600113E-07
  -1.15499999E-02  -3.81871928E-07
  -1.15000000E-02  -3.91345935E-07
  -1.14500001E-02  -4.01025972E-07
  -1.14000002E-02  -4.10916300E-07
  -1.13500003E-02  -4.21021838E-07
  -1.13000004E-02  -4.31348099E-07
  -1.12500004E-02  -4.41901051E-07
  -1.11999996E-02  -4.52686464E-07
  -1.11499997E-02  -4.63709853E-07
  -1.10999998E-02  -4.74976019E-07
  -1.10499999E-02  -4.86489569E-07
  -1.09999999E-02  -4.98255133E-07
  -1.09500000E-02  -5.10277061E-07
  -1.09000001E-02  -5.22560356E-07
  -1.08500002E-02  -5.35110303E-07
  -1.08000003E-02  -5.47933098E-07
  -1.07500004E-02  -5.61035392E-07
  -1.07000005E-02  -5.74423780E-07
  -1.06499996E-02  -5.88104967E-07
  -1.05999997E-02  -6.02085663E-07
  -1.05499998E-02  -6.16372859E-07
  -1.04999999E-02  -6.30973545E-07
  -1.04499999E-02  -6.45895227E-07
  -1.04000000E-02  -6.61145521E-07
  -1.03500001E-02  -6.76732384E-07
  -1.03000002E-02  -6.92663946E-07
  -1.02500003E-02  -7.08947880E-07
  -1.02000004E-02  -7.25591008E-07
  -1.01500005E-02  -7.42599809E-07
  -1.00999996E-02  -7.59980594E-07
  -1.00499997E-02  -7.77740240E-07
  -9.99999978E-03  -7.95885683E-07
  -9.94999986E-03  -8.14424880E-07
  -9.89999995E-03  -8.33366357E-07
  -9.85000003E-03  -8.52719211E-07
  -9.80000012E-03  -8.72493331E-07
  -9.75000020E-03  -8.92698210E-07
  -9.70000029E-03  -9.13343115E-07
  -9.65000037E-03  -9.34437423E-07
  -9.60000046E-03  -9.55990686E-07
  -9.54999961E-03  -9.78012622E-07
  -9.49999969E-03  -1.00051341E-06
  -9.44999978E-03  -1.02350373E-06
  -9.39999986E-03  -1.04699393E-06
  -9.34999995E-03  -1.07099504E-06
  -9.30000003E-03  -1.09551752E-06
  -9.25000012E-03  -1.12057182E-06
  -9.20000020E-03  -1.14616807E-06
  -9.15000029E-03  -1.17231536E-06
  -9.10000037E-03  -1.19902359E-06
  -9.05000046E-03  -1.22630388E-06
  -8.99999961E-03  -1.25416727E-06
  -8.94999970E-03  -1.28262525E-06
  -8.89999978E-03  -1.31168861E-06
  -8.84999987E-03  -1.34136872E-06
  -8.79999995E-03  -1.37167717E-06
  -8.75000004E-03  -1.40262614E-06
  -8.70000012E-03  -1.43422722E-06
  -8.65000021E-03  -1.46649234E-06
  -8.60000029E-03  -1.49943389E-06
  -8.55000038E-03  -1.53306530E-06
  -8.50000046E-03  -1.56740157E-06
  -8.44999962E-03  -1.60245770E-06
  -8.39999970E-03  -1.63824791E-06
  -8.34999979E-03  -1.67478515E-06
  -8.29999987E-03  -1.71208296E-06
  -8.24999996E-03  -1.75015509E-06
  -8.20000004E-03  -1.78901632E-06
  -8.15000013E-03  -1.82867996E-06
  -8.10000021E-03  -1.86916020E-06
  -8.05000030E-03  -1.91047047E-06
  -8.00000038E-03  -1.95262623E-06
  -7.95000046E-03  -1.99564238E-06
  -7.89999962E-03  -2.03953391E-06
  -7.84999970E-03  -2.08431379E-06
  -7.79999979E-03  -2.12999589E-06
  -7.74999987E-03  -2.17659522E-06
  -7.69999996E-03  -2.22412700E-06
  -7.65000004E-03  -2.27260625E-06
  -7.60000013E-03  -2.32204866E-06
  -7.55000021E-03  -2.37246991E-06
  -7.49999983E-03  -2.42388683E-06
  -7.44999992E-03  -2.47631669E-06
  -7.40000000E-03  -2.52977611E-06
  -7.35000009E-03  -2.58428145E-06
  -7.30000017E-03  -2.63984884E-06
  -7.24999979E-03  -2.69649468E-06
  -7.19999988E-03  -2.75423849E-06
  -7.14999996E-03  -2.81309872E-06
  -7.10000005E-03  -2.87309376E-06
  -7.05000013E-03  -2.93424068E-06
  -7.00000022E-03  -2.99655699E-06
  -6.94999984E-03  -3.06006018E-06
  -6.89999992E-03  -3.12476800E-06
  -6.85000001E-03  -3.19069818E-06
  -6.80000009E-03  -3.25786687E-06
  -6.75000018E-03  -3.32629088E-06
  -6.69999979E-03  -3.39598773E-06
  -6.64999988E-03  -3.46697675E-06
  -6.59999996E-03  -3.53927749E-06
  -6.55000005E-03  -3.61290768E-06
  -6.50000013E-03  -3.68788415E-06
  -6.45000022E-03  -3.76422372E-06
  -6.39999984E-03  -3.84194664E-06
  -6.34999992E-03  -3.92107222E-06
  -6.30000001E-03  -4.00161980E-06
  -6.25000009E-03  -4.08360665E-06
  -6.20000018E-03  -4.16705325E-06
  -6.14999980E-03  -4.25198141E-06
  -6.09999988E-03  -4.33841296E-06
  -6.04999997E-03  -4.42636792E-06
  -6.00000005E-03  -4.51586538E-06
  -5.95000014E-03  -4.60692399E-06
  -5.90000022E-03  -4.69956512E-06
  -5.84999984E-03  -4.79380969E-06
  -5.79999993E-03  -4.88967953E-06
  -5.75000001E-03  -4.98719373E-06
  -5.70000010E-03  -5.08637095E-06
  -5.65000018E-03  -5.18723391E-06
  -5.59999980E-03  -5.28980263E-06
  -5.54999989E-03  -5.39409803E-06
  -5.49999997E-03  -5.50013647E-06
  -5.45000006E-03  -5.60793978E-06
  -5.40000014E-03  -5.71752844E-06
  -5.35000023E-03  -5.82892426E-06
  -5.29999984E-03  -5.94214725E-06
  -5.24999993E-03  -6.05721971E-06
  -5.20000001E-03  -6.17416254E-06
  -5.15000010E-03  -6.29299939E-06
  -5.10000018E-03  -6.41375118E-06
  -5.04999980E-03  -6.53644111E-06
  -4.99999989E-03  -6.66109190E-06
  -4.94999997E-03  -6.78772767E-06
  -4.90000006E-03  -6.91637251E-06
  -4.85000014E-03  -7.04704917E-06
  -4.80000023E-03  -7.17978128E-06
  -4.74999985E-03  -7.31459477E-06
  -4.69999993E-03  -7.45151328E-06
  -4.65000002E-03  -7.59056093E-06
  -4.60000010E-03  -7.73175998E-06
  -4.55000019E-03  -7.87513000E-06
  -4.49999981E-03  -8.02069553E-06
  -4.44999989E-03  -8.16848205E-06
  -4.39999998E-03  -8.31851048E-06
  -4.35000006E-03  -8.47080719E-06
  -4.30000015E-03  -8.62539582E-06
  -4.25000023E-03  -8.78229730E-06
  -4.19999985E-03  -8.94153527E-06
  -4.14999994E-03  -9.10313793E-06
  -4.10000002E-03  -9.26713346E-06
  -4.05000011E-03  -9.43354735E-06
  -4.00000019E-03  -9.60240413E-06
  -3.94999981E-03  -9.77373020E-06
  -3.89999989E-03  -9.94755374E-06
  -3.84999998E-03  -1.01239048E-05
  -3.80000006E-03  -1.03028151E-05
  -3.74999992E-03  -1.04843093E-05
  -3.70000000E-03  -1.06684120E-05
  -3.65000009E-03  -1.08551494E-05
  -3.59999994E-03  -1.10445517E-05
  -3.55000002E-03  -1.12366506E-05
  -3.50000011E-03  -1.14314735E-05
  -3.44999996E-03  -1.16290475E-05
  -3.40000005E-03  -1.18293965E-05
  -3.34999990E-03  -1.20325494E-05
  -3.29999998E-03  -1.22385400E-05
  -3.25000007E-03  -1.24473963E-05
  -3.19999992E-03  -1.26591440E-05
  -3.15000000E-03  -1.28738111E-05
  -3.10000009E-03  -1.30914250E-05
  -3.04999994E-03  -1.33120193E-05
  -3.00000003E-03  -1.35356286E-05
  -2.95000011E-03  -1.37622819E-05
  -2.89999996E-03  -1.39920103E-05
  -2.85000005E-03  -1.42248400E-05
  -2.79999990E-03  -1.44608039E-05
  -2.74999999E-03  -1.46999382E-05
  -2.70000007E-03  -1.49422804E-05
  -2.64999992E-03  -1.51878567E-05
  -2.60000001E-03  -1.54366953E-05
  -2.55000009E-03  -1.56888364E-05
  -2.49999994E-03  -1.59443098E-05
  -2.45000003E-03  -1.62031465E-05
  -2.40000011E-03  -1.64653866E-05
  -2.34999997E-03  -1.67310627E-05
  -2.30000005E-03  -1.70002095E-05
  -2.24999990E-03  -1.72728578E-05
  -2.19999999E-03  -1.75490386E-05
  -2.15000007E-03  -1.78287864E-05
  -2.09999993E-03  -1.81121322E-05
  -2.05000001E-03  -1.83991178E-05
  -2.00000009E-03  -1.86897669E-05
  -1.94999995E-03  -1.89841139E-05
  -1.90000003E-03  -1.92821954E-05
  -1.85000000E-03  -1.95840457E-05
  -1.79999997E-03  -1.98897051E-05
  -1.75000005E-03  -2.01992061E-05
  -1.70000002E-03  -2.05125816E-05
  -1.64999999E-03  -2.08298661E-05
  -1.59999996E-03  -2.11510978E-05
  -1.55000004E-03  -2.14763095E-05
  -1.50000001E-03  -2.18055484E-05
  -1.44999998E-03  -2.21388509E-05
  -1.39999995E-03  -2.24762553E-05
  -1.35000004E-03  -2.28177923E-05
  -1.30000000E-03  -2.31635004E-05
  -1.24999997E-03  -2.35134212E-05
  -1.20000006E-03  -2.38675893E-05
  -1.15000003E-03  -2.42260376E-05
  -1.09999999E-03  -2.45888041E-05
  -1.04999996E-03  -2.49559253E-05
  -1.00000005E-03  -2.53274357E-05
  -9.50000016E-04  -2.57033771E-05
  -8.99999985E-04  -2.60837805E-05
  -8.50000011E-04  -2.64686860E-05
  -7.99999980E-04  -2.68581298E-05
  -7.50000007E-04  -2.72521520E-05
  -6.99999975E-04  -2.76507853E-05
  -6.50000002E-04  -2.80540698E-05
  -6.00000028E-04  -2.84620437E-05
  -5.49999997E-04  -2.88747488E-05
  -5.00000024E-04  -2.92922286E-05
  -4.49999992E-04  -2.97145198E-05
  -3.99999990E-04  -3.01416512E-05
  -3.49999988E-04  -3.05736685E-05
  -3.00000014E-04  -3.10106116E-05
  -2.50000012E-04  -3.14525278E-05
  -1.99999995E-04  -3.18994535E-05
  -1.50000007E-04  -3.23514178E-05
  -9.99999975E-05  -3.28084643E-05
  -4.99999987E-05  -3.32706368E-05
   0.00000000      -3.37379752E-05
   4.99999987E-05  -3.42105159E-05
   9.99999975E-05  -3.46882989E-05
   1.50000007E-04  -3.51713643E-05
   1.99999995E-04  -3.56597520E-05
   2.50000012E-04  -3.61534985E-05
   3.00000014E-04  -3.66526365E-05
   3.49999988E-04  -3.71571914E-05
   3.99999990E-04  -3.76672178E-05
   4.49999992E-04  -3.81827776E-05
   5.00000024E-04  -3.87039108E-05
   5.49999997E-04  -3.92306283E-05
   6.00000028E-04  -3.97629665E-05
   6.50000002E-04  -4.03009690E-05
   6.99999975E-04  -4.08447122E-05
   7.50000007E-04  -4.13942180E-05
   7.99999980E-04  -4.19495191E-05
   8.50000011E-04  -4.25106409E-05
   8.99999985E-04  -4.30776527E-05
   9.50000016E-04  -4.36506052E-05
   1.00000005E-03  -4.42295350E-05
   1.04999996E-03  -4.48144638E-05
   1.09999999E-03  -4.54054389E-05
   1.15000003E-03  -4.60025003E-05
   1.20000006E-03  -4.66057027E-05
   1.24999997E-03  -4.72150787E-05
   1.30000000E-03  -4.78306647E-05
   1.35000004E-03  -4.84524971E-05
   1.39999995E-03  -4.90806087E-05
   1.44999998E-03  -4.97150540E-05
   1.50000001E-03  -5.03558804E-05
   1.55000004E-03  -5.10031277E-05
   1.59999996E-03  -5.16568289E-05
   1.64999999E-03  -5.23170202E-05
   1.70000002E-03  -5.29837343E-05
   1.75000005E-03  -5.36570406E-05
   1.79999997E-03  -5.43369824E-05
   1.85000000E-03  -5.50236036E-05
   1.90000003E-03  -5.57169224E-05
   1.94999995E-03  -5.64169786E-05
   2.00000009E-03  -5.71238415E-05
   2.05000001E-03  -5.78375584E-05
   2.09999993E-03  -5.85581656E-05
   2.15000007E-03  -5.92856995E-05
   2.19999999E-03  -6.00201965E-05
   2.24999990E-03  -6.07617003E-05
   2.30000005E-03  -6.15102690E-05
   2.34999997E-03  -6.22659500E-05
   2.40000011E-03  -6.30287977E-05
   2.45000003E-03  -6.37988269E-05
   2.49999994E-03  -6.45760665E-05
   2.55000009E-03  -6.53605748E-05
   2.60000001E-03  -6.61524173E-05
   2.64999992E-03  -6.69516376E-05
   2.70000007E-03  -6.77582648E-05
   2.74999999E-03  -6.85723280E-05
   2.79999990E-03  -6.93938855E-05