  -3.99999991E-02   0.00000000    
  -3.99499983E-02   0.00000000    
  -3.99000011E-02   0.00000000    
  -3.98500003E-02  -1.37574053E-18
  -3.97999994E-02  -1.35806802E-17
  -3.97499986E-02  -6.76490010E-17
  -3.97000015E-02  -2.23488346E-16
  -3.96500006E-02  -5.38212623E-16
  -3.95999998E-02  -9.61992894E-16
  -3.95499989E-02  -1.16829603E-15
  -3.95000018E-02  -4.01450445E-16
  -3.94500010E-02   2.50717771E-15
  -3.94000001E-02   8.80891819E-15
  -3.93499993E-02   1.91789554E-14
  -3.92999984E-02   3.29559446E-14
  -3.92500013E-02   4.77430731E-14
  -3.92000005E-02   5.98712567E-14
  -3.91499996E-02   6.59094429E-14
  -3.90999988E-02   6.47789182E-14
  -3.90500017E-02   5.94034912E-14
  -3.90000008E-02   5.66667888E-14
  -3.89500000E-02   6.50526047E-14
  -3.88999991E-02   9.05699466E-14
  -3.88499983E-02   1.32790995E-13
  -3.88000011E-02   1.83284404E-13
  -3.87500003E-02   2.27948601E-13
  -3.86999995E-02   2.52927101E-13
  -3.86499986E-02   2.51728515E-13
  -3.86000015E-02   2.29960148E-13
  -3.85500006E-02   2.04557644E-13
  -3.84999998E-02   1.96680996E-13
  -3.84499989E-02   2.20719236E-13
  -3.84000018E-02   2.74508010E-13
  -3.83500010E-02   3.36263677E-13
  -3.83000001E-02   3.71147123E-13
  -3.82499993E-02   3.45670378E-13
  -3.81999984E-02   2.43668475E-13
  -3.81500013E-02   7.58387426E-14
  -3.81000005E-02  -1.22799123E-13
  -3.80499996E-02  -3.07594119E-13
  -3.79999988E-02  -4.45019320E-13
  -3.79500017E-02  -5.29800216E-13
  -3.79000008E-02  -5.89683033E-13
  -3.78500000E-02  -6.74495290E-13
  -3.77999991E-02  -8.33687557E-13
  -3.77499983E-02  -1.09263781E-12
  -3.77000012E-02  -1.43933227E-12
  -3.76500003E-02  -1.82848528E-12
  -3.75999995E-02  -2.20159806E-12
  -3.75499986E-02  -2.51327236E-12
  -3.75000015E-02  -2.75084664E-12
  -3.74500006E-02  -2.93800921E-12
  -3.73999998E-02  -3.12146923E-12
  -3.73499990E-02  -3.34829972E-12
  -3.73000018E-02  -3.64548409E-12
  -3.72500010E-02  -4.01065769E-12
  -3.72000001E-02  -4.41600359E-12
  -3.71499993E-02  -4.81995780E-12
  -3.70999984E-02  -5.17812312E-12
  -3.70500013E-02  -5.44754779E-12
  -3.70000005E-02  -5.58542015E-12
  -3.69499996E-02  -5.54972214E-12
  -3.68999988E-02  -5.31006532E-12
  -3.68500017E-02  -4.86961600E-12
  -3.68000008E-02  -4.28706549E-12
  -3.67500000E-02  -3.67930773E-12
  -3.66999991E-02  -3.18895149E-12
  -3.66499983E-02  -2.91824963E-12
  -3.66000012E-02  -2.85496344E-12
  -3.65500003E-02  -2.83186148E-12
  -3.64999995E-02  -2.55699715E-12
  -3.64499986E-02  -1.72299317E-12
  -3.64000015E-02  -1.60857344E-13
  -3.63500006E-02   2.03178143E-12
  -3.62999998E-02   4.46470378E-12
  -3.62499990E-02   6.57381224E-12
  -3.62000018E-02   7.86003294E-12
  -3.61500010E-02   8.15267905E-12
  -3.61000001E-02   7.76452687E-12
  -3.60499993E-02   7.43181558E-12
  -3.59999985E-02   8.02244816E-12
  -3.59500013E-02   1.01148898E-11
  -3.59000005E-02   1.36400778E-11
  -3.58499996E-02   1.77848014E-11
  -3.57999988E-02   2.12577768E-11
  -3.57500017E-02   2.28510075E-11
  -3.57000008E-02   2.20638525E-11
  -3.56500000E-02   1.94816593E-11
  -3.55999991E-02   1.66699328E-11
  -3.55499983E-02   1.55496380E-11
  -3.55000012E-02   1.74784631E-11
  -3.54500003E-02   2.24535182E-11
  -3.53999995E-02   2.88620985E-11
  -3.53499986E-02   3.40018499E-11
  -3.53000015E-02   3.52387355E-11
  -3.52500007E-02   3.13267849E-11
  -3.51999998E-02   2.32551998E-11
  -3.51499990E-02   1.41256121E-11
  -3.51000018E-02   7.96950266E-12
  -3.50500010E-02   7.92944963E-12
  -3.50000001E-02   1.46062849E-11
  -3.49499993E-02   2.54098843E-11
  -3.48999985E-02   3.53771006E-11
  -3.48500013E-02   3.92633218E-11
  -3.48000005E-02   3.40592346E-11
  -3.47499996E-02   2.07578260E-11
  -3.46999988E-02   4.40550547E-12
  -3.46500017E-02  -7.81511227E-12
  -3.46000008E-02  -9.79078017E-12
  -3.45500000E-02   4.26016264E-13
  -3.44999991E-02   1.91505509E-11
  -3.44499983E-02   3.81441302E-11
  -3.44000012E-02   4.80257882E-11
  -3.43500003E-02   4.26465356E-11
  -3.42999995E-02   2.24247478E-11
  -3.42499986E-02  -5.09178637E-12
  -3.42000015E-02  -2.80317644E-11
  -3.41500007E-02  -3.54067747E-11
  -3.40999998E-02  -2.24785485E-11
  -3.40499990E-02   6.28255737E-12
  -3.40000018E-02   3.83384123E-11
  -3.39500010E-02   5.82195958E-11
  -3.39000002E-02   5.46138863E-11
  -3.38499993E-02   2.62038412E-11
  -3.37999985E-02  -1.66833058E-11
  -3.37500013E-02  -5.58425944E-11
  -3.37000005E-02  -7.31287114E-11
  -3.36499996E-02  -5.91855662E-11
  -3.35999988E-02  -1.88641706E-11
  -3.35500017E-02   2.96030978E-11
  -3.35000008E-02   6.19081730E-11
  -3.34500000E-02   5.86088539E-11
  -3.33999991E-02   1.48410902E-11
  -3.33499983E-02  -5.59503312E-11
  -3.33000012E-02  -1.26617938E-10
  -3.32500003E-02  -1.67856867E-10
  -3.31999995E-02  -1.61852656E-10
  -3.31499986E-02  -1.11745585E-10
  -3.31000015E-02  -4.20372903E-11
  -3.30500007E-02   1.10777412E-11
  -3.29999998E-02   1.57833642E-11
  -3.29499990E-02  -3.99213058E-11
  -3.29000019E-02  -1.40777376E-10
  -3.28500010E-02  -2.49033044E-10
  -3.28000002E-02  -3.20226151E-10
  -3.27499993E-02  -3.23471500E-10
  -3.26999985E-02  -2.57058125E-10
  -3.26500013E-02  -1.51606644E-10
  -3.26000005E-02  -5.82659893E-11
  -3.25499997E-02  -2.62813590E-11
  -3.24999988E-02  -7.96300942E-11
  -3.24500017E-02  -2.03640882E-10
  -3.24000008E-02  -3.48682389E-10
  -3.23500000E-02  -4.50536192E-10
  -3.22999991E-02  -4.59193711E-10
  -3.22499983E-02  -3.63216762E-10
  -3.22000012E-02  -1.97892966E-10
  -3.21500003E-02  -3.21320123E-11
  -3.20999995E-02   6.13525897E-11
  -3.20499986E-02   3.98453284E-11
  -3.20000015E-02  -8.71348479E-11
  -3.19500007E-02  -2.58433330E-10
  -3.18999998E-02  -3.86083748E-10
  -3.18499990E-02  -3.94498406E-10
  -3.18000019E-02  -2.56729749E-10
  -3.17500010E-02  -1.06405587E-11
  -3.17000002E-02   2.54004012E-10
  -3.16499993E-02   4.33552999E-10
  -3.15999985E-02   4.57620636E-10
  -3.15500014E-02   3.24019450E-10
  -3.15000005E-02   1.04351708E-10
  -3.14499997E-02  -8.43545164E-11
  -3.13999988E-02  -1.31060010E-10
  -3.13500017E-02   1.71939320E-11
  -3.13000008E-02   3.26695032E-10
  -3.12500000E-02   6.86809276E-10
  -3.11999992E-02   9.56043356E-10
  -3.11500002E-02   1.02538478E-09
  -3.10999993E-02   8.70633399E-10
  -3.10500003E-02   5.68747549E-10
  -3.09999995E-02   2.68350009E-10
  -3.09500005E-02   1.25185667E-10
  -3.08999997E-02   2.30252012E-10
  -3.08500007E-02   5.63436076E-10
  -3.07999998E-02   9.95691085E-10
  -3.07500008E-02   1.34170819E-09
  -3.07000000E-02   1.44178058E-09
  -3.06499992E-02   1.23676935E-09
  -3.06000002E-02   8.01133160E-10
  -3.05499993E-02   3.16309062E-10
  -3.05000003E-02  -6.74072560E-12
  -3.04499995E-02  -2.30105431E-11
  -3.04000005E-02   2.76050766E-10
  -3.03499997E-02   7.50957574E-10
  -3.03000007E-02   1.17019239E-09
  -3.02499998E-02   1.31178035E-09
  -3.02000009E-02   1.06616360E-09
  -3.01500000E-02   4.93050600E-10
  -3.00999992E-02  -1.96477945E-10
  -3.00500002E-02  -7.28483385E-10
  -2.99999993E-02  -8.88414398E-10
  -2.99500003E-02  -6.22664142E-10
  -2.98999995E-02  -7.16263576E-11
  -2.98500005E-02   4.84614460E-10
  -2.97999997E-02   7.47655715E-10
  -2.97500007E-02   5.37013378E-10
  -2.96999998E-02  -1.20540120E-10
  -2.96500009E-02  -9.91986271E-10
  -2.96000000E-02  -1.73363912E-09
  -2.95499992E-02  -2.04233275E-09
  -2.95000002E-02  -1.79576687E-09
  -2.94499993E-02  -1.11715215E-09
  -2.94000003E-02  -3.30735495E-10
  -2.93499995E-02   1.76883660E-10
  -2.93000005E-02   1.30837743E-10
  -2.92499997E-02  -5.00451569E-10
  -2.92000007E-02  -1.47851942E-09
  -2.91499998E-02  -2.39026443E-09
  -2.91000009E-02  -2.82783641E-09
  -2.90500000E-02  -2.57487454E-09
  -2.89999992E-02  -1.71432868E-09
  -2.89500002E-02  -6.04895467E-10
  -2.88999993E-02   2.69394285E-10
  -2.88500004E-02   5.13752818E-10
  -2.87999995E-02   6.48756699E-12
  -2.87500005E-02  -1.03313935E-09
  -2.86999997E-02  -2.12932849E-09
  -2.86500007E-02  -2.75489853E-09
  -2.85999998E-02  -2.56916644E-09
  -2.85500009E-02  -1.58164115E-09
  -2.85000000E-02  -1.63632774E-10
  -2.84499992E-02   1.10429010E-09
  -2.84000002E-02   1.68682146E-09
  -2.83499993E-02   1.33905254E-09
  -2.83000004E-02   2.30221439E-10
  -2.82499995E-02  -1.11555787E-09
  -2.82000005E-02  -2.04261741E-09
  -2.81499997E-02  -2.05665018E-09
  -2.81000007E-02  -1.05702391E-09
  -2.80499998E-02   5.99749639E-10
  -2.80000009E-02   2.24150121E-09
  -2.79500000E-02   3.17128523E-09
  -2.78999992E-02   2.98189140E-09
  -2.78500002E-02   1.75216419E-09
  -2.77999993E-02   3.10368953E-11
  -2.77500004E-02  -1.39230905E-09
  -2.76999995E-02  -1.83673987E-09
  -2.76500005E-02  -1.04279729E-09
  -2.75999997E-02   6.92034818E-10
  -2.75500007E-02   2.62508970E-09
  -2.74999999E-02   3.88669852E-09
  -2.74500009E-02   3.86891408E-09
  -2.74000000E-02   2.51142462E-09
  -2.73499992E-02   3.50933116E-10
  -2.73000002E-02  -1.69783387E-09
  -2.72499993E-02  -2.74099921E-09
  -2.72000004E-02  -2.31080155E-09
  -2.71499995E-02  -5.93990634E-10
  -2.71000005E-02   1.62698466E-09
  -2.70499997E-02   3.30461614E-09
  -2.70000007E-02   3.58979646E-09
  -2.69499999E-02   2.22357954E-09
  -2.69000009E-02  -3.22708527E-10
  -2.68500000E-02  -3.03200176E-09
  -2.67999992E-02  -4.77958562E-09
  -2.67500002E-02  -4.83629581E-09
  -2.66999993E-02  -3.21174753E-09
  -2.66500004E-02  -6.76447454E-10
  -2.65999995E-02   1.55919022E-09
  -2.65500005E-02   2.37664377E-09
  -2.64999997E-02   1.25936828E-09
  -2.64500007E-02  -1.45016033E-09
  -2.63999999E-02  -4.67193617E-09
  -2.63500009E-02  -7.04750480E-09
  -2.63000000E-02  -7.54159935E-09
  -2.62499992E-02  -5.91981886E-09
  -2.62000002E-02  -2.88210811E-09
  -2.61499994E-02   2.20731322E-10
  -2.61000004E-02   1.97455097E-09
  -2.60499995E-02   1.53905300E-09
  -2.60000005E-02  -9.51190460E-10
  -2.59499997E-02  -4.41132642E-09
  -2.59000007E-02  -7.26041938E-09
  -2.58499999E-02  -8.11549850E-09
  -2.58000009E-02  -6.42073639E-09
  -2.57500000E-02  -2.72561573E-09
  -2.56999992E-02   1.52568136E-09
  -2.56500002E-02   4.61563676E-09
  -2.55999994E-02   5.31946709E-09
  -2.55500004E-02   3.47538043E-09
  -2.54999995E-02   9.50304418E-11
  -2.54500005E-02  -3.05145242E-09
  -2.53999997E-02  -4.20671986E-09
  -2.53500007E-02  -2.41818521E-09
  -2.52999999E-02   2.00557282E-09
  -2.52500009E-02   7.59095187E-09
  -2.52000000E-02   1.23232224E-08
  -2.51499992E-02   1.45345895E-08
  -2.51000002E-02   1.36649936E-08
  -2.50499994E-02   1.05486748E-08
  -2.50000004E-02   7.08178538E-09
  -2.49499995E-02   5.40054357E-09
  -2.49000005E-02   6.92430202E-09
  -2.48499997E-02   1.16902648E-08
  -2.48000007E-02   1.82889544E-08
  -2.47499999E-02   2.44489105E-08
  -2.47000009E-02   2.80279515E-08
  -2.46500000E-02   2.79774035E-08
  -2.45999992E-02   2.48441427E-08
  -2.45500002E-02   2.05696367E-08
  -2.44999994E-02   1.76543828E-08
  -2.44500004E-02   1.80441120E-08
  -2.43999995E-02   2.22306618E-08
  -2.43500005E-02   2.89791942E-08
  -2.42999997E-02   3.58239056E-08
  -2.42500007E-02   4.01326297E-08
  -2.41999999E-02   4.02786711E-08
  -2.41500009E-02   3.63953419E-08
  -2.41000000E-02   3.03608871E-08
  -2.40499992E-02   2.49974921E-08
  -2.40000002E-02   2.28212098E-08
  -2.39499994E-02   2.48922731E-08
  -2.39000004E-02   3.02865573E-08
  -2.38499995E-02   3.64443764E-08
  -2.38000005E-02   4.02657498E-08
  -2.37499997E-02   3.94811543E-08
  -2.37000007E-02   3.36886679E-08
  -2.36499999E-02   2.45813290E-08
  -2.36000009E-02   1.52386797E-08
  -2.35500000E-02   8.77438389E-09
  -2.34999992E-02   6.92987090E-09
  -2.34500002E-02   9.24532984E-09
  -2.33999994E-02   1.31973987E-08
  -2.33500004E-02   1.52688724E-08
  -2.32999995E-02   1.24955122E-08
  -2.32500006E-02   3.80737175E-09
  -2.31999997E-02  -9.44421341E-09
  -2.31500007E-02  -2.40334153E-08
  -2.30999999E-02  -3.62638879E-08
  -2.30500009E-02  -4.36216894E-08
  -2.30000000E-02  -4.59405598E-08
  -2.29499992E-02  -4.55422899E-08
  -2.29000002E-02  -4.62616114E-08
  -2.28499994E-02  -5.17643706E-08
  -2.28000004E-02  -6.38965858E-08
  -2.27499995E-02  -8.18076771E-08
  -2.27000006E-02  -1.02262284E-07
  -2.26499997E-02  -1.21031547E-07
  -2.26000007E-02  -1.34766168E-07
  -2.25499999E-02  -1.42521458E-07
  -2.25000009E-02  -1.46240382E-07
  -2.24500000E-02  -1.49950679E-07
  -2.23999992E-02  -1.58003971E-07
  -2.23500002E-02  -1.73125301E-07
  -2.22999994E-02  -1.95144693E-07
  -2.22500004E-02  -2.20997435E-07
  -2.21999995E-02  -2.46024854E-07
  -2.21500006E-02  -2.66022226E-07
  -2.20999997E-02  -2.79132252E-07
  -2.20500007E-02  -2.86729204E-07
  -2.19999999E-02  -2.92871817E-07
  -2.19500009E-02  -3.02536648E-07
  -2.19000001E-02  -3.19397742E-07
  -2.18499992E-02  -3.44137788E-07
  -2.18000002E-02  -3.74063319E-07
  -2.17499994E-02  -4.04226398E-07
  -2.17000004E-02  -4.29584844E-07
  -2.16499995E-02  -4.47254052E-07
  -2.16000006E-02  -4.57841708E-07
  -2.15499997E-02  -4.65245023E-07
  -2.15000007E-02  -4.74967266E-07
  -2.14499999E-02  -4.91674882E-07
  -2.14000009E-02  -5.17078547E-07
  -2.13500001E-02  -5.49092931E-07
  -2.12999992E-02  -5.82682162E-07
  -2.12500002E-02  -6.12048552E-07
  -2.11999994E-02  -6.33210107E-07
  -2.11500004E-02  -6.45819057E-07
  -2.10999995E-02  -6.53387815E-07
  -2.10500006E-02  -6.61789841E-07
  -2.09999997E-02  -6.76670368E-07
  -2.09500007E-02  -7.00903854E-07
  -2.08999999E-02  -7.33244747E-07
  -2.08500009E-02  -7.68799964E-07
  -2.08000001E-02  -8.01144665E-07
  -2.07499992E-02  -8.25172549E-07
  -2.07000002E-02  -8.39408756E-07
  -2.06499994E-02  -8.46740875E-07
  -2.06000004E-02  -8.53211645E-07
  -2.05499995E-02  -8.65375910E-07
  -2.05000006E-02  -8.87375677E-07
  -2.04499997E-02  -9.19038314E-07
  -2.04000007E-02  -9.55880182E-07
  -2.03499999E-02  -9.91042384E-07
  -2.03000009E-02  -1.01832859E-06
  -2.02500001E-02  -1.03500236E-06
  -2.01999992E-02  -1.04308981E-06
  -2.01500002E-02  -1.04857099E-06
  -2.00999994E-02  -1.05878269E-06
  -2.00500004E-02  -1.07917390E-06
  -1.99999996E-02  -1.11084535E-06
  -1.99500006E-02  -1.14999307E-06
  -1.98999997E-02  -1.18954279E-06
  -1.98500007E-02  -1.22227391E-06
  -1.97999999E-02  -1.24407256E-06
  -1.97500009E-02  -1.25584518E-06
  -1.97000001E-02  -1.26321459E-06
  -1.96499992E-02  -1.27410556E-06
  -1.96000002E-02  -1.29525938E-06
  -1.95499994E-02  -1.32922207E-06
  -1.95000004E-02  -1.37315556E-06
  -1.94499996E-02  -1.42004819E-06
  -1.94000006E-02  -1.46181139E-06
  -1.93499997E-02  -1.49290111E-06
  -1.93000007E-02  -1.51286906E-06
  -1.92499999E-02  -1.52667644E-06
  -1.92000009E-02  -1.54257839E-06
  -1.91500001E-02  -1.56851161E-06
  -1.90999992E-02  -1.60857599E-06
  -1.90500002E-02  -1.66115808E-06
  -1.89999994E-02  -1.71959698E-06
  -1.89500004E-02  -1.77511788E-06
  -1.88999996E-02  -1.82074757E-06
  -1.88500006E-02  -1.85448846E-06
  -1.87999997E-02  -1.88030913E-06
  -1.87500007E-02  -1.90648223E-06
  -1.86999999E-02  -1.94197310E-06
  -1.86500009E-02  -1.99247438E-06
  -1.86000001E-02  -2.05783385E-06
  -1.85499992E-02  -2.13207045E-06
  -1.85000002E-02  -2.20600100E-06
  -1.84499994E-02  -2.27130272E-06
  -1.84000004E-02  -2.32428692E-06
  -1.83499996E-02  -2.36764595E-06
  -1.83000006E-02  -2.40934014E-06
  -1.82499997E-02  -2.45913543E-06
  -1.82000007E-02  -2.52429732E-06
  -1.81499999E-02  -2.60633101E-06
  -1.81000009E-02  -2.70024680E-06
  -1.80500001E-02  -2.79673282E-06
  -1.79999992E-02  -2.88628144E-06
  -1.79500002E-02  -2.96345229E-06
  -1.78999994E-02  -3.02936951E-06
  -1.78500004E-02  -3.09131201E-06
  -1.77999996E-02  -3.15954935E-06
  -1.77500006E-02  -3.24282450E-06
  -1.76999997E-02  -3.34445258E-06
  -1.76500008E-02  -3.46077650E-06
  -1.75999999E-02  -3.58274383E-06
  -1.75500009E-02  -3.69989380E-06
  -1.75000001E-02  -3.80503593E-06
  -1.74499992E-02  -3.89749584E-06
  -1.74000002E-02  -3.98351358E-06
  -1.73499994E-02  -4.07355856E-06
  -1.73000004E-02  -4.17770570E-06
  -1.72499996E-02  -4.30115779E-06
  -1.72000006E-02  -4.44188345E-06
  -1.71499997E-02  -4.59146668E-06
  -1.71000008E-02  -4.73879527E-06
  -1.70499999E-02  -4.87501575E-06
  -1.70000009E-02  -4.99752332E-06
  -1.69500001E-02  -5.11118697E-06
  -1.68999992E-02  -5.22628170E-06
  -1.68500002E-02  -5.35397839E-06
  -1.67999994E-02  -5.50136519E-06
  -1.67500004E-02  -5.66827475E-06
  -1.66999996E-02  -5.84731197E-06
  -1.66500006E-02  -6.02710770E-06
  -1.65999997E-02  -6.19737193E-06
  -1.65500008E-02  -6.35350261E-06
  -1.64999999E-02  -6.49872027E-06
  -1.64500009E-02  -6.64271465E-06
  -1.64000001E-02  -6.79743516E-06
  -1.63499992E-02  -6.97179121E-06
  -1.63000003E-02  -7.16766635E-06
  -1.62499994E-02  -7.37909750E-06
  -1.62000004E-02  -7.59485647E-06
  -1.61499996E-02  -7.80344908E-06
  -1.61000006E-02  -7.99827740E-06
  -1.60499997E-02  -8.18065018E-06
  -1.60000008E-02  -8.35930132E-06
  -1.59499999E-02  -8.54660084E-06
  -1.59000009E-02  -8.75311616E-06
  -1.58500001E-02  -8.98290364E-06
  -1.57999992E-02  -9.23172956E-06
  -1.57500003E-02  -9.48892830E-06
  -1.56999994E-02  -9.74217437E-06
  -1.56500004E-02  -9.98298674E-06
  -1.55999996E-02  -1.02106014E-05
  -1.55499997E-02  -1.04324081E-05
  -1.54999997E-02  -1.06607786E-05
  -1.54499998E-02  -1.09076727E-05
  -1.53999999E-02  -1.11793734E-05
  -1.53500000E-02  -1.14736822E-05
  -1.53000001E-02  -1.17809705E-05
  -1.52500002E-02  -1.20884852E-05
  -1.52000003E-02  -1.23860054E-05
  -1.51500003E-02  -1.26705436E-05
  -1.51000004E-02  -1.29477748E-05
  -1.50499996E-02  -1.32295945E-05
  -1.49999997E-02  -1.35290175E-05
  -1.49499997E-02  -1.38544647E-05
  -1.48999998E-02  -1.42060007E-05
  -1.48499999E-02  -1.45754084E-05
  -1.48000000E-02  -1.49498765E-05
  -1.47500001E-02  -1.53177352E-05
  -1.47000002E-02  -1.56737751E-05
  -1.46500003E-02  -1.60216568E-05
  -1.46000003E-02  -1.63724380E-05
  -1.45500004E-02  -1.67398211E-05
  -1.44999996E-02  -1.71341308E-05
  -1.44499997E-02  -1.75577625E-05
  -1.43999998E-02  -1.80042698E-05
  -1.43499998E-02  -1.84612381E-05
  -1.42999999E-02  -1.89158654E-05
  -1.42500000E-02  -1.93607757E-05
  -1.42000001E-02  -1.97973623E-05
  -1.41500002E-02  -2.02353349E-05
  -1.41000003E-02  -2.06885888E-05
  -1.40500003E-02  -2.11690858E-05
  -1.40000004E-02  -2.16816661E-05
  -1.39499996E-02  -2.22219533E-05
  -1.38999997E-02  -2.27783003E-05
  -1.38499998E-02  -2.33371466E-05
  -1.37999998E-02  -2.38891389E-05
  -1.37499999E-02  -2.44332623E-05
  -1.37000000E-02  -2.49775567E-05
  -1.36500001E-02  -2.55356881E-05
  -1.36000002E-02  -2.61208043E-05
  -1.35500003E-02  -2.67399464E-05
  -1.35000004E-02  -2.73910500E-05
  -1.34500004E-02  -2.80639015E-05
  -1.33999996E-02  -2.87446474E-05
  -1.33499997E-02  -2.94220681E-05
  -1.32999998E-02  -3.00928095E-05
  -1.32499998E-02  -3.07627270E-05
  -1.31999999E-02  -3.14445861E-05
  -1.31500000E-02  -3.21525840E-05
  -1.31000001E-02  -3.28959177E-05
  -1.30500002E-02  -3.36749326E-05
  -1.30000003E-02  -3.44810833E-05
  -1.29500004E-02  -3.53007126E-05
  -1.29000004E-02  -3.61212369E-05
  -1.28499996E-02  -3.69368936E-05
  -1.27999997E-02  -3.77512988E-05
  -1.27499998E-02  -3.85758685E-05
  -1.26999998E-02  -3.94250383E-05
  -1.26499999E-02  -4.03099912E-05
  -1.26000000E-02  -4.12336121E-05
  -1.25500001E-02  -4.21892946E-05
  -1.25000002E-02  -4.31640983E-05
  -1.24500003E-02  -4.41445482E-05
  -1.24000004E-02  -4.51226224E-05
  -1.23500004E-02  -4.60993288E-05
  -1.22999996E-02  -4.70844279E-05
  -1.22499997E-02  -4.80923190E-05
  -1.21999998E-02  -4.91356623E-05
  -1.21499998E-02  -5.02198709E-05
  -1.20999999E-02  -5.13408631E-05
  -1.20500000E-02  -5.24869538E-05
  -1.20000001E-02  -5.36440130E-05
  -1.19500002E-02  -5.48018215E-05
  -1.19000003E-02  -5.59587206E-05
  -1.18500004E-02  -5.71223609E-05
  -1.18000004E-02  -5.83066285E-05
  -1.17499996E-02  -5.95255224E-05
  -1.16999997E-02  -6.07869115E-05
  -1.16499998E-02  -6.20892024E-05
  -1.15999999E-02  -6.34220632E-05
  -1.15499999E-02  -6.47713314E-05
  -1.15000000E-02  -6.61254526E-05
  -1.14500001E-02  -6.74803887E-05
  -1.14000002E-02  -6.88415093E-05
  -1.13500003E-02  -7.02212783E-05
  -1.13000004E-02  -7.16341310E-05
  -1.12500004E-02  -7.30901447E-05
  -1.11999996E-02  -7.45904908E-05
  -1.11499997E-02  -7.61272313E-05
  -1.10999998E-02  -7.76870729E-05
  -1.10499999E-02  -7.92570136E-05
  -1.09999999E-02  -8.08299228E-05
  -1.09500000E-02  -8.24081581E-05
  -1.09000001E-02  -8.40028006E-05
  -1.08500002E-02  -8.56286060E-05
  -1.08000003E-02  -8.72977034E-05
  -1.07500004E-02  -8.90143492E-05
  -1.07000005E-02  -9.07731373E-05
  -1.06499996E-02  -9.25613203E-05
  -1.05999997E-02  -9.43646446E-05
  -1.05499998E-02  -9.61739133E-05
  -1.04999999E-02  -9.79893157E-05
  -1.04499999E-02  -9.98199321E-05
  -1.04000000E-02  -1.01679958E-04
  -1.03500001E-02  -1.03582970E-04
  -1.03000002E-02  -1.05535823E-04
  -1.02500003E-02  -1.07535780E-04
  -1.02000004E-02  -1.09571520E-04
  -1.01500005E-02  -1.11628608E-04
  -1.00999996E-02  -1.13695933E-04
  -1.00499997E-02  -1.15770708E-04
  -9.99999978E-03  -1.17859716E-04
  -9.94999986E-03  -1.19975899E-04
  -9.89999995E-03  -1.22133715E-04
  -9.85000003E-03  -1.24342609E-04
  -9.80000012E-03  -1.26602652E-04
  -9.75000020E-03  -1.28904634E-04
  -9.70000029E-03  -1.31234294E-04
  -9.65000037E-03  -1.33578986E-04
  -9.60000046E-03  -1.35933049E-04
  -9.54999961E-03  -1.38300602E-04
  -9.49999969E-03  -1.40693402E-04
  -9.44999978E-03  -1.43125944E-04
  -9.39999986E-03  -1.45609360E-04
  -9.34999995E-03  -1.48146588E-04
  -9.30000003E-03  -1.50731561E-04
  -9.25000012E-03  -1.53351226E-04
  -9.20000020E-03  -1.55991715E-04
  -9.15000029E-03  -1.58644994E-04
  -9.10000037E-03  -1.61311764E-04
  -9.05000046E-03  -1.64001176E-04
  -8.99999961E-03  -1.66726779E-04
  -8.94999970E-03  -1.69501436E-04
  -8.89999978E-03  -1.72332118E-04
  -8.84999987E-03  -1.75215246E-04
  -8.79999995E-03  -1.78139046E-04
  -8.75000004E-03  -1.81090116E-04
  -8.70000012E-03  -1.84057833E-04
  -8.65000021E-03  -1.87039026E-04
  -8.60000029E-03  -1.90039893E-04
  -8.55000038E-03  -1.93073458E-04
  -8.50000046E-03  -1.96153720E-04
  -8.44999962E-03  -1.99289600E-04
  -8.39999970E-03  -2.02481475E-04
  -8.34999979E-03  -2.05720207E-04
  -8.29999987E-03  -2.08991871E-04
  -8.24999996E-03  -2.12283368E-04
  -8.20000004E-03  -2.15587861E-04
  -8.15000013E-03  -2.18908870E-04
  -8.10000021E-03  -2.22258197E-04
  -8.05000030E-03  -2.25651049E-04
  -8.00000038E-03  -2.29099111E-04
  -7.95000046E-03  -2.32605598E-04
  -7.89999962E-03  -2.36164298E-04
  -7.84999970E-03  -2.39762201E-04
  -7.79999979E-03  -2.43384042E-04
  -7.74999987E-03  -2.47019459E-04
  -7.69999996E-03  -2.50668701E-04
  -7.65000004E-03  -2.54341197E-04
  -7.60000013E-03  -2.58051121E-04
  -7.55000021E-03  -2.61811481E-04
  -7.49999983E-03  -2.65630166E-04
  -7.44999992E-03  -2.69505690E-04
  -7.40000000E-03  -2.73425307E-04
  -7.35000009E-03  -2.77372805E-04
  -7.30000017E-03  -2.81336397E-04
  -7.24999979E-03  -2.85311340E-04
  -7.19999988E-03  -2.89302639E-04
  -7.14999996E-03  -2.93323683E-04
  -7.10000005E-03  -2.97390303E-04
  -7.05000013E-03  -3.01513268E-04
  -7.00000022E-03  -3.05693946E-04
  -6.94999984E-03  -3.09923111E-04
  -6.89999992E-03  -3.14183621E-04
  -6.85000001E-03  -3.18459526E-04
  -6.80000009E-03  -3.22742126E-04
  -6.75000018E-03  -3.27034068E-04
  -6.69999979E-03  -3.31348449E-04
  -6.64999988E-03  -3.35700577E-04
  -6.59999996E-03  -3.40104365E-04
  -6.55000005E-03  -3.44566564E-04
  -6.50000013E-03  -3.49078560E-04
  -6.45000022E-03  -3.53623502E-04
  -6.39999984E-03  -3.58185149E-04
  -6.34999992E-03  -3.62750579E-04
  -6.30000001E-03  -3.67316767E-04
  -6.25000009E-03  -3.71894595E-04
  -6.20000018E-03  -3.76501732E-04
  -6.14999980E-03  -3.81153979E-04
  -6.09999988E-03  -3.85857507E-04
  -6.04999997E-03  -3.90607136E-04
  -6.00000005E-03  -3.95388401E-04
  -5.95000014E-03  -4.00183490E-04
  -5.90000022E-03  -4.04978928E-04
  -5.84999984E-03  -4.09768749E-04
  -5.79999993E-03  -4.14558221E-04
  -5.75000001E-03  -4.19362332E-04
  -5.70000010E-03  -4.24198981E-04
  -5.65000018E-03  -4.29080974E-04
  -5.59999980E-03  -4.34008136E-04
  -5.54999989E-03  -4.38964809E-04
  -5.49999997E-03  -4.43930068E-04
  -5.45000006E-03  -4.48887207E-04
  -5.40000014E-03  -4.53828339E-04
  -5.35000023E-03  -4.58756869E-04
  -5.29999984E-03  -4.63683740E-04
  -5.24999993E-03  -4.68625542E-04
  -5.20000001E-03  -4.73598280E-04
  -5.15000010E-03  -4.78607224E-04
  -5.10000018E-03  -4.83643060E-04
  -5.04999980E-03  -4.88685269E-04
  -4.99999989E-03  -4.93712316E-04
  -4.94999997E-03  -4.98708338E-04
  -4.90000006E-03  -5.03670890E-04
  -4.85000014E-03  -5.08612604E-04
  -4.80000023E-03  -5.13550825E-04
  -4.74999985E-03  -5.18500048E-04
  -4.69999993E-03  -5.23469876E-04
  -4.65000002E-03  -5.28460369E-04
  -4.60000010E-03  -5.33452490E-04
  -4.55000019E-03  -5.38421154E-04
  -4.49999981E-03  -5.43345872E-04
  -4.44999989E-03  -5.48216340E-04
  -4.39999998E-03  -5.53039776E-04
  -4.35000006E-03  -5.57833118E-04
  -4.30000015E-03  -5.62616740E-04
  -4.25000023E-03  -5.67406241E-04
  -4.19999985E-03  -5.72203717E-04
  -4.14999994E-03  -5.76994207E-04
  -4.10000002E-03  -5.81752043E-04
  -4.05000011E-03  -5.86449751E-04
  -4.00000019E-03  -5.91067364E-04
  -3.94999981E-03  -5.95606689E-04
  -3.89999989E-03  -6.00084721E-04
  -3.84999998E-03  -6.04525092E-04
  -3.80000006E-03  -6.08950970E-04
  -3.74999992E-03  -6.13367243E-04
  -3.70000000E-03  -6.17761980E-04
  -3.65000009E-03  -6.22111547E-04
  -3.59999994E-03  -6.26384455E-04
  -3.55000002E-03  -6.30558003E-04
  -3.50000011E-03  -6.34625379E-04
  -3.44999996E-03  -6.38597121E-04
  -3.40000005E-03  -6.42495579E-04
  -3.34999990E-03  -6.46346598E-04
  -3.29999998E-03  -6.50164206E-04
  -3.25000007E-03  -6.53943513E-04
  -3.19999992E-03  -6.57662807E-04
  -3.15000000E-03  -6.61285594E-04
  -3.10000009E-03  -6.64784748E-04
  -3.04999994E-03  -6.68149034E-04
  -3.00000003E-03  -6.71384856E-04
  -2.95000011E-03  -6.74515730E-04
  -2.89999996E-03  -6.77563658E-04
  -2.85000005E-03  -6.80546276E-04
  -2.79999990E-03  -6.83464285E-04
  -2.74999999E-03  -6.86301093E-04
  -2.70000007E-03  -6.89027191E-04
  -2.64999992E-03  -6.91606430E-04
  -2.60000001E-03  -6.94015180E-04
  -2.55000009E-03  -6.96253497E-04
  -2.49999994E-03  -6.98341464E-04
  -2.45000003E-03  -7.00305216E-04
  -2.40000011E-03  -7.02168618E-04
  -2.34999997E-03  -7.03944592E-04
  -2.30000005E-03  -7.05620041E-04
  -2.24999990E-03  -7.07158935E-04
  -2.19999999E-03  -7.08519423E-04
  -2.15000007E-03  -7.09672109E-04
  -2.09999993E-03  -7.10615481E-04
  -2.05000001E-03  -7.11365486E-04
  -2.00000009E-03  -7.11949426E-04
  -1.94999995E-03  -7.12398265E-04
  -1.90000003E-03  -7.12727255E-04
  -1.85000000E-03  -7.12927431E-04
  -1.79999997E-03  -7.12966779E-04
  -1.75000005E-03  -7.12801528E-04
  -1.70000002E-03  -7.12393492E-04
  -1.64999999E-03  -7.11727131E-04
  -1.59999996E-03  -7.10814726E-04
  -1.55000004E-03  -7.09689688E-04
  -1.50000001E-03  -7.08392181E-04
  -1.44999998E-03  -7.06943392E-04
  -1.39999995E-03  -7.05336570E-04
  -1.35000004E-03  -7.03537022E-04
  -1.30000000E-03  -7.01495213E-04
  -1.24999997E-03  -6.99167373E-04
  -1.20000006E-03  -6.96534407E-04
  -1.15000003E-03  -6.93605863E-04
  -1.09999999E-03  -6.90415269E-04
  -1.04999996E-03  -6.87008258E-04
  -1.00000005E-03  -6.83414168E-04
  -9.50000016E-04  -6.79634046E-04
  -8.99999985E-04  -6.75635820E-04
  -8.50000011E-04  -6.71363028E-04
  -7.99999980E-04  -6.66763750E-04
  -7.50000007E-04  -6.61809288E-04
  -6.99999975E-04  -6.56501681E-04
  -6.50000002E-04  -6.50875212E-04
  -6.00000028E-04  -6.44980464E-04
  -5.49999997E-04  -6.38856320E-04
  -5.00000024E-04  -6.32509124E-04
  -4.49999992E-04  -6.25919725E-04
  -3.99999990E-04  -6.19029975E-04
  -3.49999988E-04  -6.11770782E-04
  -3.00000014E-04  -6.04107219E-04
  -2.50000012E-04  -5.96036669E-04
  -1.99999995E-04  -5.87588875E-04
  -1.50000007E-04  -5.78812440E-04
  -9.99999975E-05  -5.69754629E-04
  -4.99999987E-05  -5.60437504E-04
   0.00000000      -5.50846336E-04
   4.99999987E-05  -5.40926238E-04
   9.99999975E-05  -5.30609570E-04
   1.50000007E-04  -5.19844703E-04
   1.99999995E-04  -5.08613011E-04
   2.50000012E-04  -4.96938941E-04
   3.00000014E-04  -4.84875054E-04
   3.49999988E-04  -4.72479180E-04
   3.99999990E-04  -4.59787349E-04
   4.49999992E-04  -4.46789869E-04
   5.00000024E-04  -4.33433190E-04
   5.49999997E-04  -4.19649354E-04
   6.00000028E-04  -4.05374914E-04
   6.50000002E-04  -3.90575267E-04
   6.99999975E-04  -3.75270756E-04
   7.50000007E-04  -3.59515077E-04
   7.99999980E-04  -3.43377847E-04
   8.50000011E-04  -3.26905283E-04
   8.99999985E-04  -3.10092408E-04
   9.50000016E-04  -2.92895769E-04
   1.00000005E-03  -2.75240338E-04
   1.04999996E-03  -2.57058011E-04
   1.09999999E-03  -2.38311361E-04
   1.15000003E-03  -2.19004185E-04
   1.20000006E-03  -1.99185393E-04
   1.24999997E-03  -1.78916205E-04
   1.30000000E-03  -1.58244351E-04
   1.35000004E-03  -1.37189723E-04
   1.39999995E-03  -1.15725896E-04
   1.44999998E-03  -9.37946534E-05
   1.50000001E-03  -7.13278569E-05
   1.55000004E-03  -4.82662872E-05
   1.59999996E-03  -2.45961219E-05
   1.64999999E-03  -3.52525575E-07
   1.70000002E-03   2.44120383E-05
   1.75000005E-03   4.96323592E-05
   1.79999997E-03   7.52704946E-05
   1.85000000E-03   1.01344616E-04
   1.90000003E-03   1.27906329E-04
   1.94999995E-03   1.55031681E-04
   2.00000009E-03   1.82785909E-04
   2.05000001E-03   2.11191465E-04
   2.09999993E-03   2.40223235E-04
   2.15000007E-03   2.69822776E-04
   2.19999999E-03   2.99926411E-04
   2.24999990E-03   3.30490584E-04
   2.30000005E-03   3.61521088E-04
   2.34999997E-03   3.93058755E-04
   2.40000011E-03   4.25171922E-04
   2.45000003E-03   4.57936549E-04
   2.49999994E-03   4.91392042E-04
   2.55000009E-03   5.25525829E-04
   2.60000001E-03   5.60278364E-04
   2.64999992E-03   5.95567864E-04
   2.70000007E-03   6.31338800E-04
   2.74999999E-03   6.67586399E-04
   2.79999990E-03   7.04358274E-04