  -3.99999991E-02   0.00000000    
  -3.99499983E-02   0.00000000    
  -3.99000011E-02   0.00000000    
  -3.98500003E-02   0.00000000    
  -3.97999994E-02  -8.92006447E-19
  -3.97499986E-02  -6.56915120E-18
  -3.97000015E-02  -2.60457668E-17
  -3.96500006E-02  -7.41714657E-17
  -3.95999998E-02  -1.71772180E-16
  -3.95499989E-02  -3.48101954E-16
  -3.95000018E-02  -6.46032823E-16
  -3.94500010E-02  -1.12396137E-15
  -3.94000001E-02  -1.84592789E-15
  -3.93499993E-02  -2.86040464E-15
  -3.92999984E-02  -4.18353173E-15
  -3.92500013E-02  -5.80721215E-15
  -3.92000005E-02  -7.73545046E-15
  -3.91499996E-02  -1.00260817E-14
  -3.90999988E-02  -1.28067892E-14
  -3.90500017E-02  -1.62558057E-14
  -3.90000008E-02  -2.05673203E-14
  -3.89500000E-02  -2.59264385E-14
  -3.88999991E-02  -3.24951688E-14
  -3.88499983E-02  -4.03927143E-14
  -3.88000011E-02  -4.96699409E-14
  -3.87500003E-02  -6.03111040E-14
  -3.86999995E-02  -7.22944179E-14
  -3.86499986E-02  -8.56892885E-14
  -3.86000015E-02  -1.00712936E-13
  -3.85500006E-02  -1.17683559E-13
  -3.84999998E-02  -1.36893548E-13
  -3.84499989E-02  -1.58498960E-13
  -3.84000018E-02  -1.82499496E-13
  -3.83500010E-02  -2.08787021E-13
  -3.83000001E-02  -2.37181151E-13
  -3.82499993E-02  -2.67416406E-13
  -3.81999984E-02  -2.99137939E-13
  -3.81500013E-02  -3.31978233E-13
  -3.81000005E-02  -3.65693587E-13
  -3.80499996E-02  -4.00243451E-13
  -3.79999988E-02  -4.35727301E-13
  -3.79500017E-02  -4.72231358E-13
  -3.79000008E-02  -5.09722147E-13
  -3.78500000E-02  -5.48046200E-13
  -3.77999991E-02  -5.86948025E-13
  -3.77499983E-02  -6.25988627E-13
  -3.77000012E-02  -6.64399959E-13
  -3.76500003E-02  -7.01062255E-13
  -3.75999995E-02  -7.34731991E-13
  -3.75499986E-02  -7.64398527E-13
  -3.75000015E-02  -7.89469456E-13
  -3.74500006E-02  -8.09592410E-13
  -3.73999998E-02  -8.24232338E-13
  -3.73499990E-02  -8.32319782E-13
  -3.73000018E-02  -8.32189298E-13
  -3.72500010E-02  -8.21787733E-13
  -3.72000001E-02  -7.99026752E-13
  -3.71499993E-02  -7.62238851E-13
  -3.70999984E-02  -7.10742934E-13
  -3.70500013E-02  -6.45337679E-13
  -3.70000005E-02  -5.68291887E-13
  -3.69499996E-02  -4.82477719E-13
  -3.68999988E-02  -3.89826490E-13
  -3.68500017E-02  -2.89891781E-13
  -3.68000008E-02  -1.79411634E-13
  -3.67500000E-02  -5.32084380E-14
  -3.66999991E-02   9.40082024E-14
  -3.66499983E-02   2.65771942E-13
  -3.66000012E-02   4.62630964E-13
  -3.65500003E-02   6.81919419E-13
  -3.64999995E-02   9.18646994E-13
  -3.64499986E-02   1.16739745E-12
  -3.64000015E-02   1.42468285E-12
  -3.63500006E-02   1.69064361E-12
  -3.62999998E-02   1.96891331E-12
  -3.62499990E-02   2.26429812E-12
  -3.62000018E-02   2.57930092E-12
  -3.61500010E-02   2.91143823E-12
  -3.61000001E-02   3.25296517E-12
  -3.60499993E-02   3.59324159E-12
  -3.59999985E-02   3.92259315E-12
  -3.59500013E-02   4.23591587E-12
  -3.59000005E-02   4.53453204E-12
  -3.58499996E-02   4.82543129E-12
  -3.57999988E-02   5.11782413E-12
  -3.57500017E-02   5.41793693E-12
  -3.57000008E-02   5.72414382E-12
  -3.56500000E-02   6.02506846E-12
  -3.55999991E-02   6.30233973E-12
  -3.55499983E-02   6.53728113E-12
  -3.55000012E-02   6.71840578E-12
  -3.54500003E-02   6.84580300E-12
  -3.53999995E-02   6.93004378E-12
  -3.53499986E-02   6.98602417E-12
  -3.53000015E-02   7.02445003E-12
  -3.52500007E-02   7.04462877E-12
  -3.51999998E-02   7.03162355E-12
  -3.51499990E-02   6.95942436E-12
  -3.51000018E-02   6.79962423E-12
  -3.50500010E-02   6.53256095E-12
  -3.50000001E-02   6.15597373E-12
  -3.49499993E-02   5.68646562E-12
  -3.48999985E-02   5.15212265E-12
  -3.48500013E-02   4.57923673E-12
  -3.48000005E-02   3.97946346E-12
  -3.47499996E-02   3.34371224E-12
  -3.46999988E-02   2.64572175E-12
  -3.46500017E-02   1.85368236E-12
  -3.46000008E-02   9.44871351E-13
  -3.45500000E-02  -8.29109933E-14
  -3.44999991E-02  -1.20815955E-12
  -3.44499983E-02  -2.39286434E-12
  -3.44000012E-02  -3.59794855E-12
  -3.43500003E-02  -4.80057877E-12
  -3.42999995E-02  -6.00491618E-12
  -3.42499986E-02  -7.24013341E-12
  -3.42000015E-02  -8.54552106E-12
  -3.41500007E-02  -9.94940502E-12
  -3.40999998E-02  -1.14519531E-11
  -3.40499990E-02  -1.30202203E-11
  -3.40000018E-02  -1.45978177E-11
  -3.39500010E-02  -1.61250249E-11
  -3.39000002E-02  -1.75608226E-11
  -3.38499993E-02  -1.88973559E-11
  -3.37999985E-02  -2.01599744E-11
  -3.37500013E-02  -2.13916159E-11
  -3.37000005E-02  -2.26272404E-11
  -3.36499996E-02  -2.38696788E-11
  -3.35999988E-02  -2.50790569E-11
  -3.35500017E-02  -2.61823150E-11
  -3.35000008E-02  -2.70995032E-11
  -3.34500000E-02  -2.77749438E-11
  -3.33999991E-02  -2.81985650E-11
  -3.33499983E-02  -2.84074222E-11
  -3.33000012E-02  -2.84665330E-11
  -3.32500003E-02  -2.84368293E-11
  -3.31999995E-02  -2.83436243E-11
  -3.31499986E-02  -2.81590810E-11
  -3.31000015E-02  -2.78071958E-11
  -3.30500007E-02  -2.71908589E-11
  -3.29999998E-02  -2.62303044E-11
  -3.29499990E-02  -2.48958059E-11
  -3.29000019E-02  -2.32188262E-11
  -3.28500010E-02  -2.12756739E-11
  -3.28000002E-02  -1.91509690E-11
  -3.27499993E-02  -1.68981322E-11
  -3.26999985E-02  -1.45151816E-11
  -3.26500013E-02  -1.19465809E-11
  -3.26000005E-02  -9.11026029E-12
  -3.25499997E-02  -5.93816099E-12
  -3.24999988E-02  -2.41300773E-12
  -3.24500017E-02   1.41517321E-12
  -3.24000008E-02   5.44151920E-12
  -3.23500000E-02   9.54422132E-12
  -3.22999991E-02   1.36317763E-11
  -3.22499983E-02   1.76777117E-11
  -3.22000012E-02   2.17255554E-11
  -3.21500003E-02   2.58608187E-11
  -3.20999995E-02   3.01626883E-11
  -3.20499986E-02   3.46579120E-11
  -3.20000015E-02   3.92973744E-11
  -3.19500007E-02   4.39657546E-11
  -3.18999998E-02   4.85199242E-11
  -3.18499990E-02   5.28402079E-11
  -3.18000019E-02   5.68727496E-11
  -3.17500010E-02   6.06440731E-11
  -3.17000002E-02   6.42392806E-11
  -3.16499993E-02   6.77519915E-11
  -3.15999985E-02   7.12273504E-11
  -3.15500014E-02   7.46253268E-11
  -3.15000005E-02   7.78219086E-11
  -3.14499997E-02   8.06488348E-11
  -3.13999988E-02   8.29537342E-11
  -3.13500017E-02   8.46540754E-11
  -3.13000008E-02   8.57621127E-11
  -3.12500000E-02   8.63708341E-11
  -3.11999992E-02   8.66068189E-11
  -3.11500002E-02   8.65691269E-11
  -3.10999993E-02   8.62795876E-11
  -3.10500003E-02   8.56665641E-11
  -3.09999995E-02   8.45911119E-11
  -3.09500005E-02   8.29053284E-11
  -3.08999997E-02   8.05168085E-11
  -3.08500007E-02   7.74291950E-11
  -3.07999998E-02   7.37402431E-11
  -3.07500008E-02   6.95990279E-11
  -3.07000000E-02   6.51423429E-11
  -3.06499992E-02   6.04382239E-11
  -3.06000002E-02   5.54598902E-11
  -3.05499993E-02   5.01006493E-11
  -3.05000003E-02   4.42240168E-11
  -3.04499995E-02   3.77292121E-11
  -3.04000005E-02   3.06043073E-11
  -3.03499997E-02   2.29427918E-11
  -3.03000007E-02   1.49141983E-11
  -3.02499998E-02   6.70089591E-12
  -3.02000009E-02  -1.57001441E-12
  -3.01500000E-02  -9.86821302E-12
  -3.00999992E-02  -1.82564380E-11
  -3.00500002E-02  -2.68448545E-11
  -2.99999993E-02  -3.57241840E-11
  -2.99500003E-02  -4.49060372E-11
  -2.98999995E-02  -5.42954015E-11
  -2.98500005E-02  -6.37069911E-11
  -2.97999997E-02  -7.29216687E-11
  -2.97500007E-02  -8.17613130E-11
  -2.96999998E-02  -9.01505606E-11
  -2.96500009E-02  -9.81363046E-11
  -2.96000000E-02  -1.05854089E-10
  -2.95499992E-02  -1.13454614E-10
  -2.95000002E-02  -1.21023053E-10
  -2.94499993E-02  -1.28526453E-10
  -2.94000003E-02  -1.35810974E-10
  -2.93499995E-02  -1.42647977E-10
  -2.93000005E-02  -1.48810200E-10
  -2.92499997E-02  -1.54147570E-10
  -2.92000007E-02  -1.58633259E-10
  -2.91499998E-02  -1.62360014E-10
  -2.91000009E-02  -1.65485098E-10
  -2.90500000E-02  -1.68145803E-10
  -2.89999992E-02  -1.70381709E-10
  -2.89500002E-02  -1.72100792E-10
  -2.88999993E-02  -1.73105516E-10
  -2.88500004E-02  -1.73167175E-10
  -2.87999995E-02  -1.72114614E-10
  -2.87500005E-02  -1.69899345E-10
  -2.86999997E-02  -1.66610711E-10
  -2.86500007E-02  -1.62435912E-10
  -2.85999998E-02  -1.57580018E-10
  -2.85500009E-02  -1.52176813E-10
  -2.85000000E-02  -1.46227169E-10
  -2.84499992E-02  -1.39593614E-10
  -2.84000002E-02  -1.32057865E-10
  -2.83499993E-02  -1.23418276E-10
  -2.83000004E-02  -1.13582858E-10
  -2.82499995E-02  -1.02614854E-10
  -2.82000005E-02  -9.07100645E-11
  -2.81499997E-02  -7.81172210E-11
  -2.81000007E-02  -6.50375170E-11
  -2.80499998E-02  -5.15459897E-11
  -2.80000009E-02  -3.75672306E-11
  -2.79500000E-02  -2.29169808E-11
  -2.78999992E-02  -7.39588252E-12
  -2.78500002E-02   9.10138371E-12
  -2.77999993E-02   2.65095584E-11
  -2.77500004E-02   4.45868967E-11
  -2.76999995E-02   6.29880800E-11
  -2.76500005E-02   8.13873482E-11
  -2.75999997E-02   9.95955193E-11
  -2.75500007E-02   1.17617832E-10
  -2.74999999E-02   1.35627898E-10
  -2.74500009E-02   1.53869875E-10
  -2.74000000E-02   1.72529768E-10
  -2.73499992E-02   1.91628907E-10
  -2.73000002E-02   2.10982884E-10
  -2.72499993E-02   2.30246489E-10
  -2.72000004E-02   2.49030851E-10
  -2.71499995E-02   2.67046080E-10
  -2.71000005E-02   2.84205465E-10
  -2.70499997E-02   3.00642455E-10
  -2.70000007E-02   3.16628807E-10
  -2.69499999E-02   3.32430417E-10
  -2.69000009E-02   3.48166856E-10
  -2.68500000E-02   3.63735514E-10
  -2.67999992E-02   3.78831438E-10
  -2.67500002E-02   3.93054034E-10
  -2.66999993E-02   4.06053691E-10
  -2.66500004E-02   4.17660656E-10
  -2.65999995E-02   4.27939767E-10
  -2.65500005E-02   4.37145431E-10
  -2.64999997E-02   4.45592313E-10
  -2.64500007E-02   4.53496823E-10
  -2.63999999E-02   4.60863736E-10
  -2.63500009E-02   4.67471617E-10
  -2.63000000E-02   4.72965223E-10
  -2.62499992E-02   4.77011541E-10
  -2.62000002E-02   4.79446927E-10
  -2.61499994E-02   4.80349704E-10
  -2.61000004E-02   4.80008644E-10
  -2.60499995E-02   4.78799334E-10
  -2.60000005E-02   4.77019368E-10
  -2.59499997E-02   4.74751682E-10
  -2.59000007E-02   4.71815143E-10
  -2.58499999E-02   4.67830386E-10
  -2.58000009E-02   4.62377164E-10
  -2.57500000E-02   4.55175592E-10
  -2.56999992E-02   4.46207238E-10
  -2.56500002E-02   4.35719655E-10
  -2.55999994E-02   4.24112634E-10
  -2.55500004E-02   4.11758572E-10
  -2.54999995E-02   3.98837685E-10
  -2.54500005E-02   3.85256549E-10
  -2.53999997E-02   3.70683206E-10
  -2.53500007E-02   3.54682839E-10
  -2.52999999E-02   3.36900507E-10
  -2.52500009E-02   3.17214838E-10
  -2.52000000E-02   2.95792335E-10
  -2.51499992E-02   2.73013279E-10
  -2.51000002E-02   2.49299054E-10
  -2.50499994E-02   2.24915170E-10
  -2.50000004E-02   1.99839284E-10
  -2.49499995E-02   1.73753165E-10
  -2.49000005E-02   1.46157669E-10
  -2.48499997E-02   1.16556931E-10
  -2.48000007E-02   8.46335710E-11
  -2.47499999E-02   5.03440241E-11
  -2.47000009E-02   1.38981665E-11
  -2.46500000E-02  -2.43673970E-11
  -2.45999992E-02  -6.41705786E-11
  -2.45500002E-02  -1.05442537E-10
  -2.44999994E-02  -1.48393214E-10
  -2.44500004E-02  -1.93451241E-10
  -2.43999995E-02  -2.41105053E-10
  -2.43500005E-02  -2.91720426E-10
  -2.42999997E-02  -3.45417667E-10
  -2.42500007E-02  -4.02062911E-10
  -2.41999999E-02  -4.61370803E-10
  -2.41500009E-02  -5.23071364E-10
  -2.41000000E-02  -5.87068949E-10
  -2.40499992E-02  -6.53529952E-10
  -2.40000002E-02  -7.22861271E-10
  -2.39499994E-02  -7.95585431E-10
  -2.39000004E-02  -8.72161288E-10
  -2.38499995E-02  -9.52826040E-10
  -2.38000005E-02  -1.03753128E-09
  -2.37499997E-02  -1.12600473E-09
  -2.37000007E-02  -1.21791199E-09
  -2.36499999E-02  -1.31304578E-09
  -2.36000009E-02  -1.41145617E-09
  -2.35500000E-02  -1.51347124E-09
  -2.34999992E-02  -1.61960145E-09
  -2.34500002E-02  -1.73037207E-09
  -2.33999994E-02  -1.84614568E-09
  -2.33500004E-02  -1.96700634E-09
  -2.32999995E-02  -2.09275064E-09
  -2.32500006E-02  -2.22299845E-09
  -2.31999997E-02  -2.35738074E-09
  -2.31500007E-02  -2.49573007E-09
  -2.30999999E-02  -2.63818212E-09
  -2.30500009E-02  -2.78514922E-09
  -2.30000000E-02  -2.93717695E-09
  -2.29499992E-02  -3.09474757E-09
  -2.29000002E-02  -3.25811667E-09
  -2.28499994E-02  -3.42724316E-09
  -2.28000004E-02  -3.60183683E-09
  -2.27499995E-02  -3.78150444E-09
  -2.27000006E-02  -3.96593691E-09
  -2.26499997E-02  -4.15507273E-09
  -2.26000007E-02  -4.34915304E-09
  -2.25499999E-02  -4.54865079E-09
  -2.25000009E-02  -4.75409134E-09
  -2.24500000E-02  -4.96584640E-09
  -2.23999992E-02  -5.18399368E-09
  -2.23500002E-02  -5.40830314E-09
  -2.22999994E-02  -5.63835867E-09
  -2.22500004E-02  -5.87375348E-09
  -2.21999995E-02  -6.11428241E-09
  -2.21500006E-02  -6.36005293E-09
  -2.20999997E-02  -6.61147315E-09
  -2.20500007E-02  -6.86911861E-09
  -2.19999999E-02  -7.13352044E-09
  -2.19500009E-02  -7.40496642E-09
  -2.19000001E-02  -7.68341035E-09
  -2.18499992E-02  -7.96853161E-09
  -2.18000002E-02  -8.25993318E-09
  -2.17499994E-02  -8.55738236E-09
  -2.17000004E-02  -8.86099105E-09
  -2.16499995E-02  -9.17123621E-09
  -2.16000006E-02  -9.48883994E-09
  -2.15499997E-02  -9.81454384E-09
  -2.15000007E-02  -1.01488595E-08
  -2.14499999E-02  -1.04919158E-08
  -2.14000009E-02  -1.08434701E-08
  -2.13500001E-02  -1.12030838E-08
  -2.12999992E-02  -1.15704166E-08
  -2.12500002E-02  -1.19455086E-08
  -2.11999994E-02  -1.23289086E-08
  -2.11500004E-02  -1.27216113E-08
  -2.10999995E-02  -1.31247981E-08
  -2.10500006E-02  -1.35395091E-08
  -2.09999997E-02  -1.39663907E-08
  -2.09500007E-02  -1.44056198E-08
  -2.08999999E-02  -1.48570303E-08
  -2.08500009E-02  -1.53203885E-08
  -2.08000001E-02  -1.57957345E-08
  -2.07499992E-02  -1.62836056E-08
  -2.07000002E-02  -1.67850764E-08
  -2.06499994E-02  -1.73015628E-08
  -2.06000004E-02  -1.78344770E-08
  -2.05499995E-02  -1.83848794E-08
  -2.05000006E-02  -1.89533154E-08
  -2.04499997E-02  -1.95398879E-08
  -2.04000007E-02  -2.01445420E-08
  -2.03499999E-02  -2.07674553E-08
  -2.03000009E-02  -2.14093010E-08
  -2.02500001E-02  -2.20713350E-08
  -2.01999992E-02  -2.27552519E-08
  -2.01500002E-02  -2.34628423E-08
  -2.00999994E-02  -2.41956162E-08
  -2.00500004E-02  -2.49545344E-08
  -1.99999996E-02  -2.57400075E-08
  -1.99500006E-02  -2.65521614E-08
  -1.98999997E-02  -2.73912537E-08
  -1.98500007E-02  -2.82580146E-08
  -1.97999999E-02  -2.91538331E-08
  -1.97500009E-02  -3.00805922E-08
  -1.97000001E-02  -3.10403365E-08
  -1.96499992E-02  -3.20348015E-08
  -1.96000002E-02  -3.30651275E-08
  -1.95499994E-02  -3.41318085E-08
  -1.95000004E-02  -3.52349296E-08
  -1.94499996E-02  -3.63745798E-08
  -1.94000006E-02  -3.75513238E-08
  -1.93499997E-02  -3.87664265E-08
  -1.93000007E-02  -4.00218170E-08
  -1.92499999E-02  -4.13197334E-08
  -1.92000009E-02  -4.26621973E-08
  -1.91500001E-02  -4.40505801E-08
  -1.90999992E-02  -4.54854714E-08
  -1.90500002E-02  -4.69669246E-08
  -1.89999994E-02  -4.84948615E-08
  -1.89500004E-02  -5.00695911E-08
  -1.88999996E-02  -5.16921332E-08
  -1.88500006E-02  -5.33642464E-08
  -1.87999997E-02  -5.50881758E-08
  -1.87500007E-02  -5.68660745E-08
  -1.86999999E-02  -5.86995448E-08
  -1.86500009E-02  -6.05893504E-08
  -1.86000001E-02  -6.25355270E-08
  -1.85499992E-02  -6.45378151E-08
  -1.85000002E-02  -6.65962219E-08
  -1.84499994E-02  -6.87114010E-08
  -1.84000004E-02  -7.08848304E-08
  -1.83499996E-02  -7.31184784E-08
  -1.83000006E-02  -7.54143841E-08
  -1.82499997E-02  -7.77741249E-08
  -1.82000007E-02  -8.01985536E-08
  -1.81499999E-02  -8.26877979E-08
  -1.81000009E-02  -8.52417017E-08
  -1.80500001E-02  -8.78602577E-08
  -1.79999992E-02  -9.05441198E-08
  -1.79500002E-02  -9.32948154E-08
  -1.78999994E-02  -9.61144764E-08
  -1.78500004E-02  -9.90053621E-08
  -1.77999996E-02  -1.01969221E-07
  -1.77500006E-02  -1.05006976E-07
  -1.76999997E-02  -1.08118769E-07
  -1.76500008E-02  -1.11304338E-07
  -1.75999999E-02  -1.14563548E-07
  -1.75500009E-02  -1.17896903E-07
  -1.75000001E-02  -1.21305845E-07
  -1.74499992E-02  -1.24792649E-07
  -1.74000002E-02  -1.28359943E-07
  -1.73499994E-02  -1.32009959E-07
  -1.73000004E-02  -1.35744173E-07
  -1.72499996E-02  -1.39563255E-07
  -1.72000006E-02  -1.43467361E-07
  -1.71499997E-02  -1.47456689E-07
  -1.71000008E-02  -1.51532021E-07
  -1.70499999E-02  -1.55695190E-07
  -1.70000009E-02  -1.59948911E-07
  -1.69500001E-02  -1.64296324E-07
  -1.68999992E-02  -1.68740499E-07
  -1.68500002E-02  -1.73283809E-07
  -1.67999994E-02  -1.77927674E-07
  -1.67500004E-02  -1.82672949E-07
  -1.66999996E-02  -1.87520413E-07
  -1.66500006E-02  -1.92471447E-07
  -1.65999997E-02  -1.97528394E-07
  -1.65500008E-02  -2.02694565E-07
  -1.64999999E-02  -2.07973898E-07
  -1.64500009E-02  -2.13370427E-07
  -1.64000001E-02  -2.18887592E-07
  -1.63499992E-02  -2.24528165E-07
  -1.63000003E-02  -2.30294233E-07
  -1.62499994E-02  -2.36187759E-07
  -1.62000004E-02  -2.42211257E-07
  -1.61499996E-02  -2.48368281E-07
  -1.61000006E-02  -2.54663235E-07
  -1.60499997E-02  -2.61101093E-07
  -1.60000008E-02  -2.67687085E-07
  -1.59499999E-02  -2.74425872E-07
  -1.59000009E-02  -2.81321491E-07
  -1.58500001E-02  -2.88377180E-07
  -1.57999992E-02  -2.95595953E-07
  -1.57500003E-02  -3.02981505E-07
  -1.56999994E-02  -3.10538553E-07
  -1.56500004E-02  -3.18273010E-07
  -1.55999996E-02  -3.26191440E-07
  -1.55499997E-02  -3.34300694E-07
  -1.54999997E-02  -3.42607080E-07
  -1.54499998E-02  -3.51116171E-07
  -1.53999999E-02  -3.59832740E-07
  -1.53500000E-02  -3.68761448E-07
  -1.53000001E-02  -3.77906986E-07
  -1.52500002E-02  -3.87275179E-07
  -1.52000003E-02  -3.96873162E-07
  -1.51500003E-02  -4.06708864E-07
  -1.51000004E-02  -4.16790726E-07
  -1.50499996E-02  -4.27126849E-07
  -1.49999997E-02  -4.37724424E-07
  -1.49499997E-02  -4.48589731E-07
  -1.48999998E-02  -4.59728938E-07
  -1.48499999E-02  -4.71148240E-07
  -1.48000000E-02  -4.82854659E-07
  -1.47500001E-02  -4.94856408E-07
  -1.47000002E-02  -5.07162667E-07
  -1.46500003E-02  -5.19782986E-07
  -1.46000003E-02  -5.32726858E-07
  -1.45500004E-02  -5.46002923E-07
  -1.44999996E-02  -5.59618968E-07
  -1.44499997E-02  -5.73582327E-07
  -1.43999998E-02  -5.87900672E-07
  -1.43499998E-02  -6.02582475E-07
  -1.42999999E-02  -6.17637284E-07
  -1.42500000E-02  -6.33075899E-07
  -1.42000001E-02  -6.48909406E-07
  -1.41500002E-02  -6.65148718E-07
  -1.41000003E-02  -6.81803783E-07
  -1.40500003E-02  -6.98883866E-07
  -1.40000004E-02  -7.16397722E-07
  -1.39499996E-02  -7.34354217E-07
  -1.38999997E-02  -7.52762730E-07
  -1.38499998E-02  -7.71634291E-07
  -1.37999998E-02  -7.90980437E-07
  -1.37499999E-02  -8.10813901E-07
  -1.37000000E-02  -8.31147076E-07
  -1.36500001E-02  -8.51991558E-07
  -1.36000002E-02  -8.73357578E-07
  -1.35500003E-02  -8.95254857E-07
  -1.35000004E-02  -9.17693114E-07
  -1.34500004E-02  -9.40683321E-07
  -1.33999996E-02  -9.64237643E-07
  -1.33499997E-02  -9.88369379E-07
  -1.32999998E-02  -1.01309240E-06
  -1.32499998E-02  -1.03842103E-06
  -1.31999999E-02  -1.06436869E-06
  -1.31500000E-02  -1.09094742E-06
  -1.31000001E-02  -1.11816860E-06
  -1.30500002E-02  -1.14604291E-06
  -1.30000003E-02  -1.17458183E-06
  -1.29500004E-02  -1.20379832E-06
  -1.29000004E-02  -1.23370648E-06
  -1.28499996E-02  -1.26432110E-06
  -1.27999997E-02  -1.29565751E-06
  -1.27499998E-02  -1.32773005E-06
  -1.26999998E-02  -1.36055246E-06
  -1.26499999E-02  -1.39413771E-06
  -1.26000000E-02  -1.42849888E-06
  -1.25500001E-02  -1.46364937E-06
  -1.25000002E-02  -1.49960374E-06
  -1.24500003E-02  -1.53637723E-06
  -1.24000004E-02  -1.57398688E-06
  -1.23500004E-02  -1.61244873E-06
  -1.22999996E-02  -1.65177812E-06
  -1.22499997E-02  -1.69198836E-06
  -1.21999998E-02  -1.73309229E-06
  -1.21499998E-02  -1.77510344E-06
  -1.20999999E-02  -1.81803637E-06
  -1.20500000E-02  -1.86190766E-06
  -1.20000001E-02  -1.90673495E-06
  -1.19500002E-02  -1.95253756E-06
  -1.19000003E-02  -1.99933584E-06
  -1.18500004E-02  -2.04714911E-06
  -1.18000004E-02  -2.09599534E-06
  -1.17499996E-02  -2.14588954E-06
  -1.16999997E-02  -2.19684625E-06
  -1.16499998E-02  -2.24887867E-06
  -1.15999999E-02  -2.30200158E-06
  -1.15499999E-02  -2.35623042E-06
  -1.15000000E-02  -2.41158227E-06
  -1.14500001E-02  -2.46807508E-06
  -1.14000002E-02  -2.52572681E-06
  -1.13500003E-02  -2.58455543E-06
  -1.13000004E-02  -2.64457890E-06
  -1.12500004E-02  -2.70581745E-06
  -1.11999996E-02  -2.76829201E-06
  -1.11499997E-02  -2.83202485E-06
  -1.10999998E-02  -2.89704030E-06
  -1.10499999E-02  -2.96336339E-06
  -1.09999999E-02  -3.03101842E-06
  -1.09500000E-02  -3.10002770E-06
  -1.09000001E-02  -3.17040895E-06
  -1.08500002E-02  -3.24217626E-06
  -1.08000003E-02  -3.31534170E-06
  -1.07500004E-02  -3.38991958E-06
  -1.07000005E-02  -3.46592310E-06
  -1.06499996E-02  -3.54336862E-06
  -1.05999997E-02  -3.62227615E-06
  -1.05499998E-02  -3.70266912E-06
  -1.04999999E-02  -3.78457389E-06
  -1.04499999E-02  -3.86801821E-06
  -1.04000000E-02  -3.95302868E-06
  -1.03500001E-02  -4.03963077E-06
  -1.03000002E-02  -4.12785221E-06
  -1.02500003E-02  -4.21772029E-06
  -1.02000004E-02  -4.30926366E-06
  -1.01500005E-02  -4.40250869E-06
  -1.00999996E-02  -4.49748086E-06
  -1.00499997E-02  -4.59420289E-06
  -9.99999978E-03  -4.69269798E-06
  -9.94999986E-03  -4.79298660E-06
  -9.89999995E-03  -4.89508602E-06
  -9.85000003E-03  -4.99901216E-06
  -9.80000012E-03  -5.10478458E-06
  -9.75000020E-03  -5.21242737E-06
  -9.70000029E-03  -5.32197328E-06
  -9.65000037E-03  -5.43345050E-06
  -9.60000046E-03  -5.54688631E-06
  -9.54999961E-03  -5.66230938E-06
  -9.49999969E-03  -5.77975061E-06
  -9.44999978E-03  -5.89924184E-06
  -9.39999986E-03  -6.02081263E-06
  -9.34999995E-03  -6.14448845E-06
  -9.30000003E-03  -6.27029749E-06
  -9.25000012E-03  -6.39827704E-06
  -9.20000020E-03  -6.52846484E-06
  -9.15000029E-03  -6.66090000E-06
  -9.10000037E-03  -6.79561572E-06
  -9.05000046E-03  -6.93264201E-06
  -8.99999961E-03  -7.07201207E-06
  -8.94999970E-03  -7.21375864E-06
  -8.89999978E-03  -7.35791491E-06
  -8.84999987E-03  -7.50450999E-06
  -8.79999995E-03  -7.65357527E-06
  -8.75000004E-03  -7.80514074E-06
  -8.70000012E-03  -7.95924370E-06
  -8.65000021E-03  -8.11592417E-06
  -8.60000029E-03  -8.27521671E-06
  -8.55000038E-03  -8.43715134E-06
  -8.50000046E-03  -8.60175805E-06
  -8.44999962E-03  -8.76907598E-06
  -8.39999970E-03  -8.93914785E-06
  -8.34999979E-03  -9.11202187E-06
  -8.29999987E-03  -9.28773989E-06
  -8.24999996E-03  -9.46634646E-06
  -8.20000004E-03  -9.64788433E-06
  -8.15000013E-03  -9.83240170E-06
  -8.10000021E-03  -1.00199468E-05
  -8.05000030E-03  -1.02105632E-05
  -8.00000038E-03  -1.04042856E-05
  -7.95000046E-03  -1.06011585E-05
  -7.89999962E-03  -1.08012309E-05
  -7.84999970E-03  -1.10045585E-05
  -7.79999979E-03  -1.12111929E-05
  -7.74999987E-03  -1.14211798E-05
  -7.69999996E-03  -1.16345636E-05
  -7.65000004E-03  -1.18513944E-05
  -7.60000013E-03  -1.20717177E-05
  -7.55000021E-03  -1.22955835E-05
  -7.49999983E-03  -1.25230335E-05
  -7.44999992E-03  -1.27541116E-05
  -7.40000000E-03  -1.29888658E-05
  -7.35000009E-03  -1.32273517E-05
  -7.30000017E-03  -1.34696338E-05
  -7.24999979E-03  -1.37157640E-05
  -7.19999988E-03  -1.39657923E-05
  -7.14999996E-03  -1.42197678E-05
  -7.10000005E-03  -1.44777487E-05
  -7.05000013E-03  -1.47397996E-05
  -7.00000022E-03  -1.50059795E-05
  -6.94999984E-03  -1.52763478E-05
  -6.89999992E-03  -1.55509606E-05
  -6.85000001E-03  -1.58298826E-05
  -6.80000009E-03  -1.61131866E-05
  -6.75000018E-03  -1.64009380E-05
  -6.69999979E-03  -1.66931932E-05
  -6.64999988E-03  -1.69900013E-05
  -6.59999996E-03  -1.72914188E-05
  -6.55000005E-03  -1.75975110E-05
  -6.50000013E-03  -1.79083509E-05
  -6.45000022E-03  -1.82240037E-05
  -6.39999984E-03  -1.85445278E-05
  -6.34999992E-03  -1.88699778E-05
  -6.30000001E-03  -1.92004172E-05
  -6.25000009E-03  -1.95359207E-05
  -6.20000018E-03  -1.98765501E-05
  -6.14999980E-03  -2.02223582E-05
  -6.09999988E-03  -2.05734013E-05
  -6.04999997E-03  -2.09297468E-05
  -6.00000005E-03  -2.12914729E-05
  -5.95000014E-03  -2.16586595E-05
  -5.90000022E-03  -2.20313850E-05
  -5.84999984E-03  -2.24097093E-05
  -5.79999993E-03  -2.27937053E-05
  -5.75000001E-03  -2.31834438E-05
  -5.70000010E-03  -2.35790067E-05
  -5.65000018E-03  -2.39804594E-05
  -5.59999980E-03  -2.43878694E-05
  -5.54999989E-03  -2.48013166E-05
  -5.49999997E-03  -2.52208756E-05
  -5.45000006E-03  -2.56466301E-05
  -5.40000014E-03  -2.60786492E-05
  -5.35000023E-03  -2.65170002E-05
  -5.29999984E-03  -2.69617558E-05
  -5.24999993E-03  -2.74129834E-05
  -5.20000001E-03  -2.78707521E-05
  -5.15000010E-03  -2.83351346E-05
  -5.10000018E-03  -2.88061983E-05
  -5.04999980E-03  -2.92840141E-05
  -4.99999989E-03  -2.97686565E-05
  -4.94999997E-03  -3.02602093E-05
  -4.90000006E-03  -3.07587470E-05
  -4.85000014E-03  -3.12643460E-05
  -4.80000023E-03  -3.17770864E-05
  -4.74999985E-03  -3.22970409E-05
  -4.69999993E-03  -3.28242859E-05
  -4.65000002E-03  -3.33589196E-05
  -4.60000010E-03  -3.39010330E-05
  -4.55000019E-03  -3.44507062E-05
  -4.49999981E-03  -3.50080227E-05
  -4.44999989E-03  -3.55730554E-05
  -4.39999998E-03  -3.61458951E-05
  -4.35000006E-03  -3.67266184E-05
  -4.30000015E-03  -3.73152834E-05
  -4.25000023E-03  -3.79119701E-05
  -4.19999985E-03  -3.85167477E-05
  -4.14999994E-03  -3.91297071E-05
  -4.10000002E-03  -3.97509248E-05
  -4.05000011E-03  -4.03804806E-05
  -4.00000019E-03  -4.10184584E-05
  -3.94999981E-03  -4.16649236E-05
  -3.89999989E-03  -4.23199635E-05
  -3.84999998E-03  -4.29836582E-05
  -3.80000006E-03  -4.36560877E-05
  -3.74999992E-03  -4.43373392E-05
  -3.70000000E-03  -4.50274856E-05
  -3.65000009E-03  -4.57266142E-05
  -3.59999994E-03  -4.64348377E-05
  -3.55000002E-03  -4.71522362E-05
  -3.50000011E-03  -4.78788861E-05
  -3.44999996E-03  -4.86148601E-05
  -3.40000005E-03  -4.93602420E-05
  -3.34999990E-03  -5.01151189E-05
  -3.29999998E-03  -5.08795893E-05
  -3.25000007E-03  -5.16537220E-05
  -3.19999992E-03  -5.24375973E-05
  -3.15000000E-03  -5.32312952E-05
  -3.10000009E-03  -5.40349138E-05
  -3.04999994E-03  -5.48485368E-05
  -3.00000003E-03  -5.56722262E-05
  -2.95000011E-03  -5.65060691E-05
  -2.89999996E-03  -5.73501347E-05
  -2.85000005E-03  -5.82045104E-05
  -2.79999990E-03  -5.90692798E-05
  -2.74999999E-03  -5.99445339E-05
  -2.70000007E-03  -6.08303562E-05
  -2.64999992E-03  -6.17268161E-05
  -2.60000001E-03  -6.26339970E-05
  -2.55000009E-03  -6.35519827E-05
  -2.49999994E-03  -6.44808533E-05
  -2.45000003E-03  -6.54206888E-05
  -2.40000011E-03  -6.63715546E-05
  -2.34999997E-03  -6.73335380E-05
  -2.30000005E-03  -6.83067483E-05
  -2.24999990E-03  -6.92912799E-05
  -2.19999999E-03  -7.02872057E-05
  -2.15000007E-03  -7.12945985E-05
  -2.09999993E-03  -7.23135454E-05
  -2.05000001E-03  -7.33441266E-05
  -2.00000009E-03  -7.43864366E-05
  -1.94999995E-03  -7.54405337E-05
  -1.90000003E-03  -7.65064979E-05
  -1.85000000E-03  -7.75843801E-05
  -1.79999997E-03  -7.86742748E-05
  -1.75000005E-03  -7.97762696E-05
  -1.70000002E-03  -8.08904224E-05
  -1.64999999E-03  -8.20167988E-05
  -1.59999996E-03  -8.31554644E-05
  -1.55000004E-03  -8.43064990E-05
  -1.50000001E-03  -8.54699756E-05
  -1.44999998E-03  -8.66459668E-05
  -1.39999995E-03  -8.78345600E-05
  -1.35000004E-03  -8.90358351E-05
  -1.30000000E-03  -9.02498650E-05
  -1.24999997E-03  -9.14767297E-05
  -1.20000006E-03  -9.27164801E-05
  -1.15000003E-03  -9.39691963E-05
  -1.09999999E-03  -9.52349365E-05
  -1.04999996E-03  -9.65137951E-05
  -1.00000005E-03  -9.78058451E-05
  -9.50000016E-04  -9.91111228E-05
  -8.99999985E-04  -1.00429686E-04
  -8.50000011E-04  -1.01761623E-04
  -7.99999980E-04  -1.03106999E-04
  -7.50000007E-04  -1.04465857E-04
  -6.99999975E-04  -1.05838226E-04
  -6.50000002E-04  -1.07224172E-04
  -6.00000028E-04  -1.08623761E-04
  -5.49999997E-04  -1.10037035E-04
  -5.00000024E-04  -1.11464054E-04
  -4.49999992E-04  -1.12904847E-04
  -3.99999990E-04  -1.14359471E-04
  -3.49999988E-04  -1.15828028E-04
  -3.00000014E-04  -1.17310534E-04
  -2.50000012E-04  -1.18807024E-04
  -1.99999995E-04  -1.20317505E-04
  -1.50000007E-04  -1.21842051E-04
  -9.99999975E-05  -1.23380727E-04
  -4.99999987E-05  -1.24933576E-04
   0.00000000      -1.26500599E-04
   4.99999987E-05  -1.28081825E-04
   9.99999975E-05  -1.29677326E-04
   1.50000007E-04  -1.31287103E-04
   1.99999995E-04  -1.32911184E-04
   2.50000012E-04  -1.34549584E-04
   3.00000014E-04  -1.36202318E-04
   3.49999988E-04  -1.37869458E-04
   3.99999990E-04  -1.39551004E-04
   4.49999992E-04  -1.41246943E-04
   5.00000024E-04  -1.42957259E-04
   5.49999997E-04  -1.44681937E-04
   6.00000028E-04  -1.46421022E-04
   6.50000002E-04  -1.48174586E-04
   6.99999975E-04  -1.49942513E-04
   7.50000007E-04  -1.51724773E-04
   7.99999980E-04  -1.53521381E-04
   8.50000011E-04  -1.55332353E-04
   8.99999985E-04  -1.57157745E-04
   9.50000016E-04  -1.58997471E-04
   1.00000005E-03  -1.60851429E-04
   1.04999996E-03  -1.62719603E-04
   1.09999999E-03  -1.64602010E-04
   1.15000003E-03  -1.66498648E-04
   1.20000006E-03  -1.68409475E-04
   1.24999997E-03  -1.70334402E-04
   1.30000000E-03  -1.72273358E-04
   1.35000004E-03  -1.74226283E-04
   1.39999995E-03  -1.76193222E-04
   1.44999998E-03  -1.78174072E-04
   1.50000001E-03  -1.80168674E-04
   1.55000004E-03  -1.82176911E-04
   1.59999996E-03  -1.84198725E-04
   1.64999999E-03  -1.86234101E-04
   1.70000002E-03  -1.88282997E-04
   1.75000005E-03  -1.90345207E-04
   1.79999997E-03  -1.92420557E-04
   1.85000000E-03  -1.94508946E-04
   1.90000003E-03  -1.96610345E-04
   1.94999995E-03  -1.98724665E-04
   2.00000009E-03  -2.00851675E-04
   2.05000001E-03  -2.02991156E-04
   2.09999993E-03  -2.05142947E-04
   2.15000007E-03  -2.07307050E-04
   2.19999999E-03  -2.09483362E-04
   2.24999990E-03  -2.11671722E-04
   2.30000005E-03  -2.13871826E-04
   2.34999997E-03  -2.16083397E-04
   2.40000011E-03  -2.18306319E-04
   2.45000003E-03  -2.20540562E-04
   2.49999994E-03  -2.22785922E-04
   2.55000009E-03  -2.25041978E-04
   2.60000001E-03  -2.27308410E-04
   2.64999992E-03  -2.29585101E-04
   2.70000007E-03  -2.31871920E-04
   2.74999999E-03  -2.34168721E-04
   2.79999990E-03  -2.36475054E-04