  -3.99999991E-02   0.00000000    
  -3.99499983E-02   0.00000000    
  -3.99000011E-02   0.00000000    
  -3.98500003E-02   0.00000000    
  -3.97999994E-02   1.15315285E-18
  -3.97499986E-02   1.40869619E-17
  -3.97000015E-02   8.86787049E-17
  -3.96500006E-02   3.81944202E-16
  -3.95999998E-02   1.26105715E-15
  -3.95499989E-02   3.39052021E-15
  -3.95000018E-02   7.69944055E-15
  -3.94500010E-02   1.51209899E-14
  -3.94000001E-02   2.60946592E-14
  -3.93499993E-02   4.00195996E-14
  -3.92999984E-02   5.50443717E-14
  -3.92500013E-02   6.86023504E-14
  -3.92000005E-02   7.88138611E-14
  -3.91499996E-02   8.63110107E-14
  -3.90999988E-02   9.54802643E-14
  -3.90500017E-02   1.13985942E-13
  -3.90000008E-02   1.50038226E-13
  -3.89500000E-02   2.08099827E-13
  -3.88999991E-02   2.85001379E-13
  -3.88499983E-02   3.68932722E-13
  -3.88000011E-02   4.42920386E-13
  -3.87500003E-02   4.92288990E-13
  -3.86999995E-02   5.13116080E-13
  -3.86499986E-02   5.17164436E-13
  -3.86000015E-02   5.29369788E-13
  -3.85500006E-02   5.76967727E-13
  -3.84999998E-02   6.73772724E-13
  -3.84499989E-02   8.06888681E-13
  -3.84000018E-02   9.33852171E-13
  -3.83500010E-02   9.94621811E-13
  -3.83000001E-02   9.35813818E-13
  -3.82499993E-02   7.37333263E-13
  -3.81999984E-02   4.28105007E-13
  -3.81500013E-02   8.06448820E-14
  -3.81000005E-02  -2.16773905E-13
  -3.80499996E-02  -4.00477774E-13
  -3.79999988E-02  -4.66593181E-13
  -3.79500017E-02  -4.83356519E-13
  -3.79000008E-02  -5.71487139E-13
  -3.78500000E-02  -8.57868626E-13
  -3.77999991E-02  -1.42140108E-12
  -3.77499983E-02  -2.25593415E-12
  -3.77000012E-02  -3.26959705E-12
  -3.76500003E-02  -4.32393097E-12
  -3.75999995E-02  -5.29696556E-12
  -3.75499986E-02  -6.14146971E-12
  -3.75000015E-02  -6.91022500E-12
  -3.74500006E-02  -7.73472258E-12
  -3.73999998E-02  -8.76524287E-12
  -3.73499990E-02  -1.00981870E-11
  -3.73000018E-02  -1.17222499E-11
  -3.72500010E-02  -1.35062551E-11
  -3.72000001E-02  -1.52331602E-11
  -3.71499993E-02  -1.66655075E-11
  -3.70999984E-02  -1.76163840E-11
  -3.70500013E-02  -1.80010382E-11
  -3.70000005E-02  -1.78556146E-11
  -3.69499996E-02  -1.73239912E-11
  -3.68999988E-02  -1.66226182E-11
  -3.68500017E-02  -1.59927124E-11
  -3.68000008E-02  -1.56428603E-11
  -3.67500000E-02  -1.56824640E-11
  -3.66999991E-02  -1.60542482E-11
  -3.66499983E-02  -1.64900992E-11
  -3.66000012E-02  -1.65258623E-11
  -3.65500003E-02  -1.56021897E-11
  -3.64999995E-02  -1.32441506E-11
  -3.64499986E-02  -9.26336959E-12
  -3.64000015E-02  -3.88884107E-12
  -3.63500006E-02   2.26542548E-12
  -3.62999998E-02   8.43178045E-12
  -3.62499990E-02   1.40588053E-11
  -3.62000018E-02   1.91628935E-11
  -3.61500010E-02   2.44641859E-11
  -3.61000001E-02   3.11668573E-11
  -3.60499993E-02   4.03976678E-11
  -3.59999985E-02   5.25099790E-11
  -3.59500013E-02   6.65950142E-11
  -3.59000005E-02   8.05255446E-11
  -3.58499996E-02   9.16579937E-11
  -3.57999988E-02   9.79997958E-11
  -3.57500017E-02   9.93534005E-11
  -3.57000008E-02   9.78394102E-11
  -3.56500000E-02   9.73806730E-11
  -3.55999991E-02   1.02166157E-10
  -3.55499983E-02   1.14639548E-10
  -3.55000012E-02   1.33918807E-10
  -3.54500003E-02   1.55527022E-10
  -3.53999995E-02   1.72833317E-10
  -3.53499986E-02   1.79817453E-10
  -3.53000015E-02   1.74027945E-10
  -3.52500007E-02   1.58291449E-10
  -3.51999998E-02   1.40093964E-10
  -3.51499990E-02   1.28529687E-10
  -3.51000018E-02   1.29916550E-10
  -3.50500010E-02   1.44037365E-10
  -3.50000001E-02   1.62991370E-10
  -3.49499993E-02   1.73676351E-10
  -3.48999985E-02   1.63286870E-10
  -3.48500013E-02   1.25612964E-10
  -3.48000005E-02   6.51627294E-11
  -3.47499996E-02  -3.27255779E-12
  -3.46999988E-02  -6.01174249E-11
  -3.46500017E-02  -8.96619723E-11
  -3.46000008E-02  -8.81070147E-11
  -3.45500000E-02  -6.69847788E-11
  -3.44999991E-02  -4.96205056E-11
  -3.44499983E-02  -6.13784509E-11
  -3.44000012E-02  -1.17585233E-10
  -3.43500003E-02  -2.14702450E-10
  -3.42999995E-02  -3.29496347E-10
  -3.42499986E-02  -4.27686553E-10
  -3.42000015E-02  -4.79120799E-10
  -3.41500007E-02  -4.72933137E-10
  -3.40999998E-02  -4.25279201E-10
  -3.40499990E-02  -3.74888010E-10
  -3.40000018E-02  -3.66996322E-10
  -3.39500010E-02  -4.31972957E-10
  -3.39000002E-02  -5.68339931E-10
  -3.38499993E-02  -7.38994477E-10
  -3.37999985E-02  -8.84131324E-10
  -3.37500013E-02  -9.46702050E-10
  -3.37000005E-02  -8.99673280E-10
  -3.36499996E-02  -7.62179209E-10
  -3.35999988E-02  -5.95483329E-10
  -3.35500017E-02  -4.78332318E-10
  -3.35000008E-02  -4.71166495E-10
  -3.34500000E-02  -5.85106463E-10
  -3.33999991E-02  -7.71149700E-10
  -3.33499983E-02  -9.37022238E-10
  -3.33000012E-02  -9.86654314E-10
  -3.32500003E-02  -8.65817529E-10
  -3.31999995E-02  -5.92697891E-10
  -3.31499986E-02  -2.57115856E-10
  -3.31000015E-02   1.46040714E-11
  -3.30500007E-02   1.15968485E-10
  -3.29999998E-02   1.31737060E-11
  -3.29499990E-02  -2.31106453E-10
  -3.29000019E-02  -4.77351270E-10
  -3.28500010E-02  -5.67327574E-10
  -3.28000002E-02  -3.96952610E-10
  -3.27499993E-02   2.92865558E-11
  -3.26999985E-02   5.90010762E-10
  -3.26500013E-02   1.09312048E-09
  -3.26000005E-02   1.35972644E-09
  -3.25499997E-02   1.30954081E-09
  -3.24999988E-02   1.00731568E-09
  -3.24500017E-02   6.44660103E-10
  -3.24000008E-02   4.59916411E-10
  -3.23500000E-02   6.28464059E-10
  -3.22999991E-02   1.17283627E-09
  -3.22499983E-02   1.93713179E-09
  -3.22000012E-02   2.64371081E-09
  -3.21500003E-02   3.01273961E-09
  -3.20999995E-02   2.89362001E-09
  -3.20499986E-02   2.34717401E-09
  -3.20000015E-02   1.63539793E-09
  -3.19500007E-02   1.11556187E-09
  -3.18999998E-02   1.08037002E-09
  -3.18499990E-02   1.61493108E-09
  -3.18000019E-02   2.53932297E-09
  -3.17500010E-02   3.47090379E-09
  -3.17000002E-02   3.98689082E-09
  -3.16499993E-02   3.81889143E-09
  -3.15999985E-02   2.99047809E-09
  -3.15500014E-02   1.82856830E-09
  -3.15000005E-02   8.33256852E-10
  -3.14499997E-02   4.56126192E-10
  -3.13999988E-02   8.84060880E-10
  -3.13500017E-02   1.93057059E-09
  -3.13000008E-02   3.09398729E-09
  -3.12500000E-02   3.76806186E-09
  -3.11999992E-02   3.51782625E-09
  -3.11500002E-02   2.29635311E-09
  -3.10999993E-02   4.96433783E-10
  -3.10500003E-02  -1.19929222E-09
  -3.09999995E-02  -2.11451767E-09
  -3.09500005E-02  -1.89399163E-09
  -3.08999997E-02  -6.91114166E-10
  -3.08500007E-02   8.68256911E-10
  -3.07999998E-02   1.94466665E-09
  -3.07500008E-02   1.86133442E-09
  -3.07000000E-02   4.30393193E-10
  -3.06499992E-02  -1.92652272E-09
  -3.06000002E-02  -4.33359215E-09
  -3.05499993E-02  -5.83822013E-09
  -3.05000003E-02  -5.84945781E-09
  -3.04499995E-02  -4.43707115E-09
  -3.04000005E-02  -2.34253394E-09
  -3.03499997E-02  -6.77715661E-10
  -3.03000007E-02  -4.30983277E-10
  -3.02499998E-02  -1.99798333E-09
  -3.02000009E-02  -4.95699570E-09
  -3.01500000E-02  -8.20911783E-09
  -3.00999992E-02  -1.04415214E-08
  -3.00500002E-02  -1.07192202E-08
  -2.99999993E-02  -8.93883279E-09
  -2.99500003E-02  -5.92534999E-09
  -2.98999995E-02  -3.10514459E-09
  -2.98500005E-02  -1.88103511E-09
  -2.97999997E-02  -2.98102099E-09
  -2.97500007E-02  -6.08083095E-09
  -2.96999998E-02  -9.89135529E-09
  -2.96500009E-02  -1.26979023E-08
  -2.96000000E-02  -1.31281102E-08
  -2.95499992E-02  -1.08064482E-08
  -2.95000002E-02  -6.58593180E-09
  -2.94499993E-02  -2.22552710E-09
  -2.94000003E-02   3.69339476E-10
  -2.93499995E-02   1.71270151E-11
  -2.93000005E-02  -3.15427462E-09
  -2.92499997E-02  -7.69290942E-09
  -2.92000007E-02  -1.14173169E-08
  -2.91499998E-02  -1.23795294E-08
  -2.91000009E-02  -9.77265380E-09
  -2.90500000E-02  -4.36199032E-09
  -2.89999992E-02   1.78417769E-09
  -2.89500002E-02   6.17699403E-09
  -2.88999993E-02   7.02845249E-09
  -2.88500004E-02   4.10806544E-09
  -2.87999995E-02  -1.07309273E-09
  -2.87500005E-02  -5.87006799E-09
  -2.86999997E-02  -7.66419461E-09
  -2.86500007E-02  -5.07011011E-09
  -2.85999998E-02   1.36297418E-09
  -2.85500009E-02   9.30342292E-09
  -2.85000000E-02   1.56153650E-08
  -2.84499992E-02   1.77545658E-08
  -2.84000002E-02   1.49618611E-08
  -2.83499993E-02   8.69671446E-09
  -2.83000004E-02   2.07538409E-09
  -2.82499995E-02  -1.47651114E-09
  -2.82000005E-02   2.22967242E-10
  -2.81499997E-02   7.05498504E-09
  -2.81000007E-02   1.65458403E-08
  -2.80499998E-02   2.48869547E-08
  -2.80000009E-02   2.86114652E-08
  -2.79500000E-02   2.61902962E-08
  -2.78999992E-02   1.88141058E-08
  -2.78500002E-02   9.96712224E-09
  -2.77999993E-02   3.93380839E-09
  -2.77500004E-02   3.87364185E-09
  -2.76999995E-02   1.03246238E-08
  -2.76500005E-02   2.08378772E-08
  -2.75999997E-02   3.09595336E-08
  -2.75500007E-02   3.61701886E-08
  -2.74999999E-02   3.39384698E-08
  -2.74500009E-02   2.49572203E-08
  -2.74000000E-02   1.29643363E-08
  -2.73499992E-02   3.17051518E-09
  -2.73000002E-02  -4.78820698E-11
  -2.72499993E-02   4.82921925E-09
  -2.72000004E-02   1.56606266E-08
  -2.71499995E-02   2.74712857E-08
  -2.71000005E-02   3.46009941E-08
  -2.70499997E-02   3.32496661E-08
  -2.70000007E-02   2.32773534E-08
  -2.69499999E-02   8.41119974E-09
  -2.69000009E-02  -5.29691846E-09
  -2.68500000E-02  -1.21291972E-08
  -2.67999992E-02  -9.31220878E-09
  -2.67500002E-02   1.60898561E-09
  -2.66999993E-02   1.53044279E-08
  -2.66500004E-02   2.49310474E-08
  -2.65999995E-02   2.51776342E-08
  -2.65500005E-02   1.47308050E-08
  -2.64999997E-02  -2.97793967E-09
  -2.64500007E-02  -2.11464926E-08
  -2.63999999E-02  -3.25531104E-08
  -2.63500009E-02  -3.28048309E-08
  -2.63000000E-02  -2.24230075E-08
  -2.62499992E-02  -6.77982470E-09
  -2.62000002E-02   6.16230134E-09
  -2.61499994E-02   9.36338740E-09
  -2.61000004E-02  -7.45897233E-11
  -2.60499995E-02  -1.94480236E-08
  -2.60000005E-02  -4.14734878E-08
  -2.59499997E-02  -5.74151606E-08
  -2.59000007E-02  -6.09768591E-08
  -2.58499999E-02  -5.12258431E-08
  -2.58000009E-02  -3.31942260E-08
  -2.57500000E-02  -1.58072417E-08
  -2.56999992E-02  -7.98343613E-09
  -2.56500002E-02  -1.46055932E-08
  -2.55999994E-02  -3.41763204E-08
  -2.55500004E-02  -5.92716596E-08
  -2.54999995E-02  -7.96803477E-08
  -2.54500005E-02  -8.69010464E-08
  -2.53999997E-02  -7.80144305E-08
  -2.53500007E-02  -5.71649856E-08
  -2.52999999E-02  -3.39085489E-08
  -2.52500009E-02  -1.90707663E-08
  -2.52000000E-02  -1.99035739E-08
  -2.51499992E-02  -3.66996531E-08
  -2.51000002E-02  -6.24353831E-08
  -2.50499994E-02  -8.56976712E-08
  -2.50000004E-02  -9.56791837E-08
  -2.49499995E-02  -8.70575221E-08
  -2.49000005E-02  -6.25587546E-08
  -2.48499997E-02  -3.19807647E-08
  -2.48000007E-02  -8.00725974E-09
  -2.47499999E-02  -5.97213279E-10
  -2.47000009E-02  -1.24291946E-08
  -2.46500000E-02  -3.74799924E-08
  -2.45999992E-02  -6.34699759E-08
  -2.45500002E-02  -7.71910109E-08
  -2.44999994E-02  -7.04083618E-08
  -2.44500004E-02  -4.37024958E-08
  -2.43999995E-02  -6.46504628E-09
  -2.43500005E-02   2.70608194E-08
  -2.42999997E-02   4.40317827E-08
  -2.42500007E-02   3.88065260E-08
  -2.41999999E-02   1.56806479E-08
  -2.41500009E-02  -1.27615412E-08
  -2.41000000E-02  -3.10637951E-08
  -2.40499992E-02  -2.77597341E-08
  -2.40000002E-02  -6.42013109E-10
  -2.39499994E-02   4.19698374E-08
  -2.39000004E-02   8.46440429E-08
  -2.38499995E-02   1.11533481E-07
  -2.38000005E-02   1.13443782E-07
  -2.37499997E-02   9.21152363E-08
  -2.37000007E-02   5.97232557E-08
  -2.36499999E-02   3.36911725E-08
  -2.36000009E-02   2.90129165E-08
  -2.35500000E-02   5.14580236E-08
  -2.34999992E-02   9.47267722E-08
  -2.34500002E-02   1.42934880E-07
  -2.33999994E-02   1.77455860E-07
  -2.33500004E-02   1.85171132E-07
  -2.32999995E-02   1.64469412E-07
  -2.32500006E-02   1.26249205E-07
  -2.31999997E-02   8.93451713E-08
  -2.31500007E-02   7.22812104E-08
  -2.30999999E-02   8.49479420E-08
  -2.30500009E-02   1.23929198E-07
  -2.30000000E-02   1.73663921E-07
  -2.29499992E-02   2.13073008E-07
  -2.29000002E-02   2.24824646E-07
  -2.28499994E-02   2.03158891E-07
  -2.28000004E-02   1.56734217E-07
  -2.27499995E-02   1.05098344E-07
  -2.27000006E-02   7.02038818E-08
  -2.26499997E-02   6.66426061E-08
  -2.26000007E-02   9.49356718E-08
  -2.25499999E-02   1.40956701E-07
  -2.25000009E-02   1.81895373E-07
  -2.24500000E-02   1.96251975E-07
  -2.23999992E-02   1.73488772E-07
  -2.23500002E-02   1.19012569E-07
  -2.22999994E-02   5.21470405E-08
  -2.22500004E-02  -2.16651386E-09
  -2.21999995E-02  -2.43771510E-08
  -2.21500006E-02  -9.18249476E-09
  -2.20999997E-02   3.17740394E-08
  -2.20500007E-02   7.47175335E-08
  -2.19999999E-02   9.40899767E-08
  -2.19500009E-02   7.39346504E-08
  -2.19000001E-02   1.52523754E-08
  -2.18499992E-02  -6.40495017E-08
  -2.18000002E-02  -1.36759326E-07
  -2.17499994E-02  -1.78285489E-07
  -2.17000004E-02  -1.77669321E-07
  -2.16499995E-02  -1.42744156E-07
  -2.16000006E-02  -9.70062359E-08
  -2.15499997E-02  -6.94150515E-08
  -2.15000007E-02  -8.15281425E-08
  -2.14499999E-02  -1.37663164E-07
  -2.14000009E-02  -2.22549602E-07
  -2.13500001E-02  -3.07680182E-07
  -2.12999992E-02  -3.63709034E-07
  -2.12500002E-02  -3.73484795E-07
  -2.11999994E-02  -3.39909008E-07
  -2.11500004E-02  -2.85001192E-07
  -2.10999995E-02  -2.40407360E-07
  -2.10500006E-02  -2.33416927E-07
  -2.09999997E-02  -2.74643241E-07
  -2.09500007E-02  -3.52903527E-07
  -2.08999999E-02  -4.39728865E-07
  -2.08500009E-02  -5.01679608E-07
  -2.08000001E-02  -5.15118018E-07
  -2.07499992E-02  -4.76886385E-07
  -2.07000002E-02  -4.06043000E-07
  -2.06499994E-02  -3.35708876E-07
  -2.06000004E-02  -2.98478909E-07
  -2.05499995E-02  -3.11794594E-07
  -2.05000006E-02  -3.69812199E-07
  -2.04499997E-02  -4.45520641E-07
  -2.04000007E-02  -5.02355931E-07
  -2.03499999E-02  -5.10300367E-07
  -2.03000009E-02  -4.59361388E-07
  -2.02500001E-02  -3.64364809E-07
  -2.01999992E-02  -2.58767102E-07
  -2.01500002E-02  -1.80055252E-07
  -2.00999994E-02  -1.53102746E-07
  -2.00500004E-02  -1.78874444E-07
  -1.99999996E-02  -2.33612226E-07
  -1.99500006E-02  -2.79039909E-07
  -1.98999997E-02  -2.79216323E-07
  -1.98500007E-02  -2.16624088E-07
  -1.97999999E-02  -1.00301484E-07
  -1.97500009E-02   3.77394329E-08
  -1.97000001E-02   1.56397419E-07
  -1.96499992E-02   2.23635396E-07
  -1.96000002E-02   2.30867528E-07
  -1.95499994E-02   1.97100533E-07
  -1.95000004E-02   1.60822964E-07
  -1.94499996E-02   1.63073068E-07
  -1.94000006E-02   2.29105254E-07
  -1.93499997E-02   3.56810119E-07
  -1.93000007E-02   5.17151705E-07
  -1.92499999E-02   6.66601409E-07
  -1.92000009E-02   7.66194887E-07
  -1.91500001E-02   7.98806980E-07
  -1.90999992E-02   7.76920274E-07
  -1.90500002E-02   7.37297228E-07
  -1.89999994E-02   7.24755466E-07
  -1.89500004E-02   7.72138605E-07
  -1.88999996E-02   8.85363875E-07
  -1.88500006E-02   1.04027947E-06
  -1.87999997E-02   1.19288279E-06
  -1.87500007E-02   1.29851128E-06
  -1.86999999E-02   1.33156436E-06
  -1.86500009E-02   1.29697037E-06
  -1.86000001E-02   1.22818847E-06
  -1.85499992E-02   1.17247203E-06
  -1.85000002E-02   1.16981016E-06
  -1.84499994E-02   1.23485711E-06
  -1.84000004E-02   1.34993229E-06
  -1.83499996E-02   1.47233106E-06
  -1.83000006E-02   1.55284943E-06
  -1.82499997E-02   1.55739758E-06
  -1.82000007E-02   1.48210813E-06
  -1.81499999E-02   1.35514972E-06
  -1.81000009E-02   1.22431072E-06
  -1.80500001E-02   1.13573935E-06
  -1.79999992E-02   1.11321856E-06
  -1.79500002E-02   1.14721195E-06
  -1.78999994E-02   1.19864569E-06
  -1.78500004E-02   1.21587709E-06
  -1.77999996E-02   1.15741898E-06
  -1.77500006E-02   1.01035914E-06
  -1.76999997E-02   7.96234588E-07
  -1.76500008E-02   5.61647028E-07
  -1.75999999E-02   3.57666693E-07
  -1.75500009E-02   2.17084121E-07
  -1.75000001E-02   1.39620880E-07
  -1.74499992E-02   9.17258234E-08
  -1.74000002E-02   2.11568132E-08
  -1.73499994E-02  -1.20029952E-07
  -1.73000004E-02  -3.54245202E-07
  -1.72499996E-02  -6.68325811E-07
  -1.72000006E-02  -1.01923104E-06
  -1.71499997E-02  -1.35303037E-06
  -1.71000008E-02  -1.62882520E-06
  -1.70499999E-02  -1.83700138E-06
  -1.70000009E-02  -2.00366708E-06
  -1.69500001E-02  -2.17922729E-06
  -1.68999992E-02  -2.41608086E-06
  -1.68500002E-02  -2.74529521E-06
  -1.67999994E-02  -3.16261730E-06
  -1.67500004E-02  -3.63007621E-06
  -1.66999996E-02  -4.09254426E-06
  -1.66500006E-02  -4.50197604E-06
  -1.65999997E-02  -4.83860913E-06
  -1.65500008E-02  -5.11969438E-06
  -1.64999999E-02  -5.39184748E-06
  -1.64500009E-02  -5.71034161E-06
  -1.64000001E-02  -6.11447967E-06
  -1.63499992E-02  -6.61000468E-06
  -1.63000003E-02  -7.16631212E-06
  -1.62499994E-02  -7.72974909E-06
  -1.62000004E-02  -8.24718336E-06
  -1.61499996E-02  -8.68938423E-06
  -1.61000006E-02  -9.06382957E-06
  -1.60499997E-02  -9.41125836E-06
  -1.60000008E-02  -9.78746357E-06
  -1.59499999E-02  -1.02383719E-05
  -1.59000009E-02  -1.07794804E-05
  -1.58500001E-02  -1.13886927E-05
  -1.57999992E-02  -1.20158265E-05
  -1.57500003E-02  -1.26045816E-05
  -1.56999994E-02  -1.31172192E-05
  -1.56500004E-02  -1.35510691E-05
  -1.55999996E-02  -1.39395170E-05
  -1.55499997E-02  -1.43370780E-05
  -1.54999997E-02  -1.47951532E-05
  -1.54499998E-02  -1.53391775E-05
  -1.53999999E-02  -1.59573010E-05
  -1.53500000E-02  -1.66055888E-05
  -1.53000001E-02  -1.72274595E-05
  -1.52500002E-02  -1.77786605E-05
  -1.52000003E-02  -1.82467629E-05
  -1.51500003E-02  -1.86565321E-05
  -1.51000004E-02  -1.90588853E-05
  -1.50499996E-02  -1.95082866E-05
  -1.49999997E-02  -2.00385966E-05
  -1.49499997E-02  -2.06481109E-05
  -1.48999998E-02  -2.13003968E-05
  -1.48499999E-02  -2.19405556E-05
  -1.48000000E-02  -2.25194926E-05
  -1.47500001E-02  -2.30156311E-05
  -1.47000002E-02  -2.34444669E-05
  -1.46500003E-02  -2.38517332E-05
  -1.46000003E-02  -2.42932201E-05
  -1.45500004E-02  -2.48103133E-05
  -1.44999996E-02  -2.54120478E-05
  -1.44499997E-02  -2.60715296E-05
  -1.43999998E-02  -2.67382802E-05
  -1.43499998E-02  -2.73609585E-05
  -1.42999999E-02  -2.79103879E-05
  -1.42500000E-02  -2.83926365E-05
  -1.42000001E-02  -2.88464907E-05
  -1.41500002E-02  -2.93265621E-05
  -1.41000003E-02  -2.98794203E-05
  -1.40500003E-02  -3.05235299E-05
  -1.40000004E-02  -3.12417469E-05
  -1.39499996E-02  -3.19894134E-05
  -1.38999997E-02  -3.27146809E-05
  -1.38499998E-02  -3.33819007E-05
  -1.37999998E-02  -3.39876860E-05
  -1.37499999E-02  -3.45626540E-05
  -1.37000000E-02  -3.51581330E-05
  -1.36500001E-02  -3.58240286E-05
  -1.36000002E-02  -3.65873893E-05
  -1.35500003E-02  -3.74413212E-05
  -1.35000004E-02  -3.83489823E-05
  -1.34500004E-02  -3.92608235E-05
  -1.33999996E-02  -4.01371981E-05
  -1.33499997E-02  -4.09663189E-05
  -1.32999998E-02  -4.17698648E-05
  -1.32499998E-02  -4.25937760E-05
  -1.31999999E-02  -4.34884023E-05
  -1.31500000E-02  -4.44869256E-05
  -1.31000001E-02  -4.55915360E-05
  -1.30500002E-02  -4.67734244E-05
  -1.30000003E-02  -4.79864648E-05
  -1.29500004E-02  -4.91883584E-05
  -1.29000004E-02  -5.03598349E-05
  -1.28499996E-02  -5.15133906E-05
  -1.27999997E-02  -5.26881740E-05
  -1.27499998E-02  -5.39331159E-05
  -1.26999998E-02  -5.52858764E-05
  -1.26499999E-02  -5.67571333E-05
  -1.26000000E-02  -5.83270012E-05
  -1.25500001E-02  -5.99551422E-05
  -1.25000002E-02  -6.15992612E-05
  -1.24500003E-02  -6.32344309E-05
  -1.24000004E-02  -6.48648347E-05
  -1.23500004E-02  -6.65219777E-05
  -1.22999996E-02  -6.82511600E-05
  -1.22499997E-02  -7.00921082E-05
  -1.21999998E-02  -7.20623138E-05
  -1.21499998E-02  -7.41503973E-05
  -1.20999999E-02  -7.63220378E-05
  -1.20500000E-02  -7.85360389E-05
  -1.20000001E-02  -8.07632387E-05
  -1.19500002E-02  -8.29995042E-05
  -1.19000003E-02  -8.52673475E-05
  -1.18500004E-02  -8.76063423E-05
  -1.18000004E-02  -9.00560553E-05
  -1.17499996E-02  -9.26389184E-05
  -1.16999997E-02  -9.53514173E-05
  -1.16499998E-02  -9.81667836E-05
  -1.15999999E-02  -1.01047917E-04
  -1.15499999E-02  -1.03964572E-04
  -1.15000000E-02  -1.06907224E-04
  -1.14500001E-02  -1.09891575E-04
  -1.14000002E-02  -1.12951726E-04
  -1.13500003E-02  -1.16125688E-04
  -1.13000004E-02  -1.19439246E-04
  -1.12500004E-02  -1.22895464E-04
  -1.11999996E-02  -1.26474362E-04
  -1.11499997E-02  -1.30142682E-04
  -1.10999998E-02  -1.33869064E-04
  -1.10499999E-02  -1.37638242E-04
  -1.09999999E-02  -1.41457786E-04
  -1.09500000E-02  -1.45354395E-04
  -1.09000001E-02  -1.49362502E-04
  -1.08500002E-02  -1.53509798E-04
  -1.08000003E-02  -1.57805844E-04
  -1.07500004E-02  -1.62239361E-04
  -1.07000005E-02  -1.66784521E-04
  -1.06499996E-02  -1.71413689E-04
  -1.05999997E-02  -1.76110916E-04
  -1.05499998E-02  -1.80879069E-04
  -1.04999999E-02  -1.85739074E-04
  -1.04499999E-02  -1.90721723E-04
  -1.04000000E-02  -1.95854940E-04
  -1.03500001E-02  -2.01152128E-04
  -1.03000002E-02  -2.06607627E-04
  -1.02500003E-02  -2.12201077E-04
  -1.02000004E-02  -2.17907000E-04
  -1.01500005E-02  -2.23707350E-04
  -1.00999996E-02  -2.29599638E-04
  -1.00499997E-02  -2.35598069E-04
  -9.99999978E-03  -2.41728587E-04
  -9.94999986E-03  -2.48017372E-04
  -9.89999995E-03  -2.54481012E-04
  -9.85000003E-03  -2.61120702E-04
  -9.80000012E-03  -2.67923111E-04
  -9.75000020E-03  -2.74868333E-04
  -9.70000029E-03  -2.81940185E-04
  -9.65000037E-03  -2.89134914E-04
  -9.60000046E-03  -2.96463520E-04
  -9.54999961E-03  -3.03948123E-04
  -9.49999969E-03  -3.11613403E-04
  -9.44999978E-03  -3.19478364E-04
  -9.39999986E-03  -3.27549904E-04
  -9.34999995E-03  -3.35821824E-04
  -9.30000003E-03  -3.44279688E-04
  -9.25000012E-03  -3.52908799E-04
  -9.20000020E-03  -3.61702929E-04
  -9.15000029E-03  -3.70666792E-04
  -9.10000037E-03  -3.79815756E-04
  -9.05000046E-03  -3.89170338E-04
  -8.99999961E-03  -3.98748467E-04
  -8.94999970E-03  -4.08558932E-04
  -8.89999978E-03  -4.18599637E-04
  -8.84999987E-03  -4.28861065E-04
  -8.79999995E-03  -4.39332391E-04
  -8.75000004E-03  -4.50007879E-04
  -8.70000012E-03  -4.60891431E-04
  -8.65000021E-03  -4.71996434E-04
  -8.60000029E-03  -4.83342243E-04
  -8.55000038E-03  -4.94947133E-04
  -8.50000046E-03  -5.06823417E-04
  -8.44999962E-03  -5.18974732E-04
  -8.39999970E-03  -5.31397469E-04
  -8.34999979E-03  -5.44086099E-04
  -8.29999987E-03  -5.57035150E-04
  -8.24999996E-03  -5.70245378E-04
  -8.20000004E-03  -5.83726040E-04
  -8.15000013E-03  -5.97492559E-04
  -8.10000021E-03  -6.11561001E-04
  -8.05000030E-03  -6.25943358E-04
  -8.00000038E-03  -6.40646089E-04
  -7.95000046E-03  -6.55668438E-04
  -7.89999962E-03  -6.71005575E-04
  -7.84999970E-03  -6.86653657E-04
  -7.79999979E-03  -7.02611811E-04
  -7.74999987E-03  -7.18884519E-04
  -7.69999996E-03  -7.35483249E-04
  -7.65000004E-03  -7.52423599E-04
  -7.60000013E-03  -7.69720471E-04
  -7.55000021E-03  -7.87383527E-04
  -7.49999983E-03  -8.05418531E-04
  -7.44999992E-03  -8.23826762E-04
  -7.40000000E-03  -8.42608686E-04
  -7.35000009E-03  -8.61764303E-04
  -7.30000017E-03  -8.81293730E-04
  -7.24999979E-03  -9.01204126E-04
  -7.19999988E-03  -9.21508821E-04
  -7.14999996E-03  -9.42222949E-04
  -7.10000005E-03  -9.63359838E-04
  -7.05000013E-03  -9.84928920E-04
  -7.00000022E-03  -1.00693572E-03
  -6.94999984E-03  -1.02938118E-03
  -6.89999992E-03  -1.05226180E-03
  -6.85000001E-03  -1.07557571E-03
  -6.80000009E-03  -1.09932572E-03
  -6.75000018E-03  -1.12352113E-03
  -6.69999979E-03  -1.14817952E-03
  -6.64999988E-03  -1.17331825E-03
  -6.59999996E-03  -1.19895069E-03
  -6.55000005E-03  -1.22508290E-03
  -6.50000013E-03  -1.25171442E-03
  -6.45000022E-03  -1.27884117E-03
  -6.39999984E-03  -1.30646199E-03
  -6.34999992E-03  -1.33457652E-03
  -6.30000001E-03  -1.36319466E-03
  -6.25000009E-03  -1.39233621E-03
  -6.20000018E-03  -1.42202061E-03
  -6.14999980E-03  -1.45227031E-03
  -6.09999988E-03  -1.48310023E-03
  -6.04999997E-03  -1.51450851E-03
  -6.00000005E-03  -1.54648407E-03
  -5.95000014E-03  -1.57902215E-03
  -5.90000022E-03  -1.61212741E-03
  -5.84999984E-03  -1.64581276E-03
  -5.79999993E-03  -1.68009603E-03
  -5.75000001E-03  -1.71499909E-03
  -5.70000010E-03  -1.75054278E-03
  -5.65000018E-03  -1.78674061E-03
  -5.59999980E-03  -1.82359666E-03
  -5.54999989E-03  -1.86110311E-03
  -5.49999997E-03  -1.89925020E-03
  -5.45000006E-03  -1.93802989E-03
  -5.40000014E-03  -1.97745021E-03
  -5.35000023E-03  -2.01753690E-03
  -5.29999984E-03  -2.05831835E-03
  -5.24999993E-03  -2.09982344E-03
  -5.20000001E-03  -2.14207335E-03
  -5.15000010E-03  -2.18507182E-03
  -5.10000018E-03  -2.22880533E-03
  -5.04999980E-03  -2.27326085E-03
  -4.99999989E-03  -2.31843069E-03
  -4.94999997E-03  -2.36431882E-03
  -4.90000006E-03  -2.41094944E-03
  -4.85000014E-03  -2.45835958E-03
  -4.80000023E-03  -2.50658742E-03
  -4.74999985E-03  -2.55566020E-03
  -4.69999993E-03  -2.60558492E-03
  -4.65000002E-03  -2.65634642E-03
  -4.60000010E-03  -2.70791911E-03
  -4.55000019E-03  -2.76028807E-03
  -4.49999981E-03  -2.81345448E-03
  -4.44999989E-03  -2.86743324E-03
  -4.39999998E-03  -2.92226090E-03
  -4.35000006E-03  -2.97798263E-03
  -4.30000015E-03  -3.03463498E-03
  -4.25000023E-03  -3.09223728E-03
  -4.19999985E-03  -3.15077999E-03
  -4.14999994E-03  -3.21023189E-03
  -4.10000002E-03  -3.27056134E-03
  -4.05000011E-03  -3.33174854E-03
  -4.00000019E-03  -3.39380372E-03
  -3.94999981E-03  -3.45677114E-03
  -3.89999989E-03  -3.52071552E-03
  -3.84999998E-03  -3.58569133E-03
  -3.80000006E-03  -3.65172443E-03
  -3.74999992E-03  -3.71881155E-03
  -3.70000000E-03  -3.78691126E-03
  -3.65000009E-03  -3.85596813E-03
  -3.59999994E-03  -3.92595027E-03
  -3.55000002E-03  -3.99686908E-03
  -3.50000011E-03  -4.06877417E-03
  -3.44999996E-03  -4.14172746E-03
  -3.40000005E-03  -4.21578623E-03
  -3.34999990E-03  -4.29097656E-03
  -3.29999998E-03  -4.36729379E-03
  -3.25000007E-03  -4.44470765E-03
  -3.19999992E-03  -4.52315202E-03
  -3.15000000E-03  -4.60259058E-03
  -3.10000009E-03  -4.68302192E-03
  -3.04999994E-03  -4.76446562E-03
  -3.00000003E-03  -4.84699011E-03
  -2.95000011E-03  -4.93067084E-03
  -2.89999996E-03  -5.01554972E-03
  -2.85000005E-03  -5.10164723E-03
  -2.79999990E-03  -5.18894242E-03
  -2.74999999E-03  -5.27735194E-03
  -2.70000007E-03  -5.36681106E-03
  -2.64999992E-03  -5.45728393E-03
  -2.60000001E-03  -5.54877985E-03
  -2.55000009E-03  -5.64137148E-03
  -2.49999994E-03  -5.73515287E-03
  -2.45000003E-03  -5.83021250E-03
  -2.40000011E-03  -5.92657970E-03
  -2.34999997E-03  -6.02421258E-03
  -2.30000005E-03  -6.12301519E-03
  -2.24999990E-03  -6.22287253E-03
  -2.19999999E-03  -6.32372824E-03
  -2.15000007E-03  -6.42560469E-03
  -2.09999993E-03  -6.52856519E-03
  -2.05000001E-03  -6.63271546E-03
  -2.00000009E-03  -6.73816074E-03
  -1.94999995E-03  -6.84495317E-03
  -1.90000003E-03  -6.95307506E-03
  -1.85000000E-03  -7.06241559E-03
  -1.79999997E-03  -7.17284437E-03
  -1.75000005E-03  -7.28428224E-03
  -1.70000002E-03  -7.39670079E-03
  -1.64999999E-03  -7.51014799E-03
  -1.59999996E-03  -7.62475282E-03
  -1.55000004E-03  -7.74063217E-03
  -1.50000001E-03  -7.85786565E-03
  -1.44999998E-03  -7.97646958E-03
  -1.39999995E-03  -8.09634477E-03
  -1.35000004E-03  -8.21733288E-03
  -1.30000000E-03  -8.33929516E-03
  -1.24999997E-03  -8.46215431E-03
  -1.20000006E-03  -8.58595129E-03
  -1.15000003E-03  -8.71080905E-03
  -1.09999999E-03  -8.83688964E-03
  -1.04999996E-03  -8.96435603E-03
  -1.00000005E-03  -9.09324083E-03
  -9.50000016E-04  -9.22342390E-03
  -8.99999985E-04  -9.35472082E-03
  -8.50000011E-04  -9.48692206E-03
  -7.99999980E-04  -9.61987488E-03
  -7.50000007E-04  -9.75359697E-03
  -6.99999975E-04  -9.88825224E-03
  -6.50000002E-04  -1.00240624E-02
  -6.00000028E-04  -1.01612024E-02
  -5.49999997E-04  -1.02997469E-02
  -5.00000024E-04  -1.04395840E-02
  -4.49999992E-04  -1.05804699E-02
  -3.99999990E-04  -1.07221780E-02
  -3.49999988E-04  -1.08645409E-02
  -3.00000014E-04  -1.10075157E-02
  -2.50000012E-04  -1.11512654E-02
  -1.99999995E-04  -1.12960665E-02
  -1.50000007E-04  -1.14421165E-02
  -9.99999975E-05  -1.15894675E-02
  -4.99999987E-05  -1.17380358E-02
   0.00000000      -1.18875736E-02
   4.99999987E-05  -1.20377596E-02
   9.99999975E-05  -1.21884337E-02
   1.50000007E-04  -1.23395640E-02
   1.99999995E-04  -1.24912746E-02
   2.50000012E-04  -1.26438178E-02
   3.00000014E-04  -1.27974208E-02
   3.49999988E-04  -1.29521945E-02
   3.99999990E-04  -1.31080365E-02
   4.49999992E-04  -1.32646924E-02
   5.00000024E-04  -1.34218726E-02
   5.49999997E-04  -1.35793658E-02
   6.00000028E-04  -1.37370937E-02
   6.50000002E-04  -1.38951344E-02
   6.99999975E-04  -1.40537061E-02
   7.50000007E-04  -1.42130535E-02
   7.99999980E-04  -1.43733779E-02
   8.50000011E-04  -1.45346802E-02
   8.99999985E-04  -1.46966940E-02
   9.50000016E-04  -1.48590188E-02
   1.00000005E-03  -1.50213502E-02
   1.04999996E-03  -1.51835568E-02
   1.09999999E-03  -1.53456563E-02
   1.15000003E-03  -1.55078918E-02
   1.20000006E-03  -1.56706106E-02
   1.24999997E-03  -1.58340745E-02
   1.30000000E-03  -1.59983095E-02
   1.35000004E-03  -1.61630418E-02
   1.39999995E-03  -1.63278170E-02
   1.44999998E-03  -1.64922532E-02
   1.50000001E-03  -1.66561641E-02
   1.55000004E-03  -1.68195758E-02
   1.59999996E-03  -1.69827212E-02
   1.64999999E-03  -1.71459168E-02
   1.70000002E-03  -1.73094720E-02
   1.75000005E-03  -1.74734369E-02
   1.79999997E-03  -1.76375285E-02
   1.85000000E-03  -1.78013220E-02
   1.90000003E-03  -1.79644674E-02
   1.94999995E-03  -1.81266870E-02
   2.00000009E-03  -1.82878822E-02
   2.05000001E-03  -1.84482615E-02
   2.09999993E-03  -1.86081566E-02
   2.15000007E-03  -1.87679213E-02
   2.19999999E-03  -1.89276841E-02
   2.24999990E-03  -1.90872625E-02
   2.30000005E-03  -1.92462988E-02
   2.34999997E-03  -1.94042344E-02
   2.40000011E-03  -1.95606444E-02
   2.45000003E-03  -1.97153874E-02
   2.49999994E-03  -1.98686104E-02
   2.55000009E-03  -2.00207140E-02
   2.60000001E-03  -2.01720800E-02
   2.64999992E-03  -2.03229524E-02
   2.70000007E-03  -2.04732325E-02
   2.74999999E-03  -2.06225645E-02
   2.79999990E-03  -2.07704101E-02