  -3.99999991E-02   0.00000000    
  -3.99499983E-02   0.00000000    
  -3.99000011E-02   0.00000000    
  -3.98500003E-02   0.00000000    
  -3.97999994E-02   5.27484960E-19
  -3.97499986E-02   4.27843869E-18
  -3.97000015E-02   1.85692502E-17
  -3.96500006E-02   5.67105102E-17
  -3.95999998E-02   1.35619941E-16
  -3.95499989E-02   2.68652116E-16
  -3.95000018E-02   4.56489243E-16
  -3.94500010E-02   6.82212565E-16
  -3.94000001E-02   9.16133366E-16
  -3.93499993E-02   1.13097396E-15
  -3.92999984E-02   1.32131401E-15
  -3.92500013E-02   1.51693733E-15
  -3.92000005E-02   1.78053483E-15
  -3.91499996E-02   2.18638876E-15
  -3.90999988E-02   2.78623378E-15
  -3.90500017E-02   3.57747415E-15
  -3.90000008E-02   4.49189492E-15
  -3.89500000E-02   5.41581770E-15
  -3.88999991E-02   6.23665446E-15
  -3.88499983E-02   6.89436877E-15
  -3.88000011E-02   7.41025503E-15
  -3.87500003E-02   7.87490512E-15
  -3.86999995E-02   8.39758459E-15
  -3.86499986E-02   9.03911379E-15
  -3.86000015E-02   9.75975333E-15
  -3.85500006E-02   1.04085738E-14
  -3.84999998E-02   1.07636110E-14
  -3.84499989E-02   1.06086489E-14
  -3.84000018E-02   9.81218636E-15
  -3.83500010E-02   8.36827047E-15
  -3.83000001E-02   6.37485975E-15
  -3.82499993E-02   3.95813287E-15
  -3.81999984E-02   1.18225608E-15
  -3.81500013E-02  -2.00714028E-15
  -3.81000005E-02  -5.77783620E-15
  -3.80499996E-02  -1.03520487E-14
  -3.79999988E-02  -1.59298505E-14
  -3.79500017E-02  -2.26366607E-14
  -3.79000008E-02  -3.05199083E-14
  -3.78500000E-02  -3.95924646E-14
  -3.77999991E-02  -4.98948146E-14
  -3.77499983E-02  -6.15345787E-14
  -3.77000012E-02  -7.46699862E-14
  -3.76500003E-02  -8.94353019E-14
  -3.75999995E-02  -1.05847738E-13
  -3.75499986E-02  -1.23759767E-13
  -3.75000015E-02  -1.42901600E-13
  -3.74500006E-02  -1.63001896E-13
  -3.73999998E-02  -1.83914014E-13
  -3.73499990E-02  -2.05657567E-13
  -3.73000018E-02  -2.28328044E-13
  -3.72500010E-02  -2.51907273E-13
  -3.72000001E-02  -2.76078178E-13
  -3.71499993E-02  -3.00166088E-13
  -3.70999984E-02  -3.23283555E-13
  -3.70500013E-02  -3.44658140E-13
  -3.70000005E-02  -3.64010444E-13
  -3.69499996E-02  -3.81777753E-13
  -3.68999988E-02  -3.98999464E-13
  -3.68500017E-02  -4.16819059E-13
  -3.68000008E-02  -4.35765437E-13
  -3.67500000E-02  -4.55146879E-13
  -3.66999991E-02  -4.72908821E-13
  -3.66499983E-02  -4.86128878E-13
  -3.66000012E-02  -4.92017722E-13
  -3.65500003E-02  -4.89013669E-13
  -3.64999995E-02  -4.77448051E-13
  -3.64499986E-02  -4.59392507E-13
  -3.64000015E-02  -4.37643411E-13
  -3.63500006E-02  -4.14216946E-13
  -3.62999998E-02  -3.89036215E-13
  -3.62499990E-02  -3.59512333E-13
  -3.62000018E-02  -3.21383409E-13
  -3.61500010E-02  -2.70586857E-13
  -3.61000001E-02  -2.05365659E-13
  -3.60499993E-02  -1.27562308E-13
  -3.59999985E-02  -4.23184233E-14
  -3.59500013E-02   4.39019684E-14
  -3.59000005E-02   1.26216596E-13
  -3.58499996E-02   2.03851665E-13
  -3.57999988E-02   2.81004576E-13
  -3.57500017E-02   3.65395892E-13
  -3.57000008E-02   4.64906325E-13
  -3.56500000E-02   5.83673734E-13
  -3.55999991E-02   7.19480411E-13
  -3.55499983E-02   8.63865891E-13
  -3.55000012E-02   1.00523897E-12
  -3.54500003E-02   1.13381288E-12
  -3.53999995E-02   1.24614295E-12
  -3.53499986E-02   1.34699261E-12
  -3.53000015E-02   1.44732132E-12
  -3.52500007E-02   1.55895988E-12
  -3.51999998E-02   1.68821261E-12
  -3.51499990E-02   1.83138552E-12
  -3.51000018E-02   1.97463920E-12
  -3.50500010E-02   2.09874349E-12
  -3.50000001E-02   2.18700925E-12
  -3.49499993E-02   2.23294517E-12
  -3.48999985E-02   2.24393052E-12
  -3.48500013E-02   2.23871464E-12
  -3.48000005E-02   2.23930965E-12
  -3.47499996E-02   2.26060078E-12
  -3.46999988E-02   2.30241087E-12
  -3.46500017E-02   2.34801371E-12
  -3.46000008E-02   2.37036692E-12
  -3.45500000E-02   2.34376559E-12
  -3.44999991E-02   2.25584872E-12
  -3.44499983E-02   2.11428401E-12
  -3.44000012E-02   1.94449556E-12
  -3.43500003E-02   1.77873753E-12
  -3.42999995E-02   1.64098065E-12
  -3.42499986E-02   1.53447231E-12
  -3.42000015E-02   1.43815071E-12
  -3.41500007E-02   1.31439152E-12
  -3.40999998E-02   1.12535751E-12
  -3.40499990E-02   8.50892490E-13
  -3.40000018E-02   4.99615052E-13
  -3.39500010E-02   1.07444808E-13
  -3.39000002E-02  -2.76704766E-13
  -3.38499993E-02  -6.12296238E-13
  -3.37999985E-02  -8.86074905E-13
  -3.37500013E-02  -1.11943896E-12
  -3.37000005E-02  -1.35998211E-12
  -3.36499996E-02  -1.66007453E-12
  -3.35999988E-02  -2.05170082E-12
  -3.35500017E-02  -2.52920948E-12
  -3.35000008E-02  -3.04871493E-12
  -3.34500000E-02  -3.54560326E-12
  -3.33999991E-02  -3.96311803E-12
  -3.33499983E-02  -4.27926661E-12
  -3.33000012E-02  -4.51921790E-12
  -3.32500003E-02  -4.74631012E-12
  -3.31999995E-02  -5.03440562E-12
  -3.31499986E-02  -5.43326278E-12
  -3.31000015E-02  -5.94265262E-12
  -3.30500007E-02  -6.50790316E-12
  -3.29999998E-02  -7.04033706E-12
  -3.29499990E-02  -7.45464714E-12
  -3.29000019E-02  -7.70682216E-12
  -3.28500010E-02  -7.81499084E-12
  -3.28000002E-02  -7.85250771E-12
  -3.27499993E-02  -7.91497336E-12
  -3.26999985E-02  -8.07517768E-12
  -3.26500013E-02  -8.34639215E-12
  -3.26000005E-02  -8.67163633E-12
  -3.25499997E-02  -8.94539130E-12
  -3.24999988E-02  -9.05939646E-12
  -3.24500017E-02  -8.95243168E-12
  -3.24000008E-02  -8.64101412E-12
  -3.23500000E-02  -8.21555237E-12
  -3.22999991E-02  -7.80181822E-12
  -3.22499983E-02  -7.50376237E-12
  -3.22000012E-02  -7.35328465E-12
  -3.21500003E-02  -7.29069582E-12
  -3.20999995E-02  -7.18654476E-12
  -3.20499986E-02  -6.89673752E-12
  -3.20000015E-02  -6.32708469E-12
  -3.19500007E-02  -5.47780831E-12
  -3.18999998E-02  -4.44649309E-12
  -3.18499990E-02  -3.38628344E-12
  -3.18000019E-02  -2.43676260E-12
  -3.17500010E-02  -1.65846276E-12
  -3.17000002E-02  -1.00169059E-12
  -3.16499993E-02  -3.25764589E-13
  -3.15999985E-02   5.37950543E-13
  -3.15500014E-02   1.70656772E-12
  -3.15000005E-02   3.18603694E-12
  -3.14499997E-02   4.86001517E-12
  -3.13999988E-02   6.53473326E-12
  -3.13500017E-02   8.02161029E-12
  -3.13000008E-02   9.22108917E-12
  -3.12500000E-02   1.01689516E-11
  -3.11999992E-02   1.10221623E-11
  -3.11500002E-02   1.19882585E-11
  -3.10999993E-02   1.32285415E-11
  -3.10500003E-02   1.47787459E-11
  -3.09999995E-02   1.65243843E-11
  -3.09500005E-02   1.82442585E-11
  -3.08999997E-02   1.97045488E-11
  -3.08500007E-02   2.07618835E-11
  -3.07999998E-02   2.14280746E-11
  -3.07500008E-02   2.18651486E-11
  -3.07000000E-02   2.23104955E-11
  -3.06499992E-02   2.29642468E-11
  -3.06000002E-02   2.38897305E-11
  -3.05499993E-02   2.49735718E-11
  -3.05000003E-02   2.59661979E-11
  -3.04499995E-02   2.65870190E-11
  -3.04000005E-02   2.66481871E-11
  -3.03499997E-02   2.61405619E-11
  -3.03000007E-02   2.52411095E-11
  -3.02499998E-02   2.42356638E-11
  -3.02000009E-02   2.33899029E-11
  -3.01500000E-02   2.28263103E-11
  -3.00999992E-02   2.24640063E-11
  -3.00500002E-02   2.20511144E-11
  -2.99999993E-02   2.12774711E-11
  -2.99500003E-02   1.99180880E-11
  -2.98999995E-02   1.79419275E-11
  -2.98500005E-02   1.55346708E-11
  -2.97999997E-02   1.30222100E-11
  -2.97500007E-02   1.07270972E-11
  -2.96999998E-02   8.82215655E-12
  -2.96500009E-02   7.24871812E-12
  -2.96000000E-02   5.73924892E-12
  -2.95499992E-02   3.93730274E-12
  -2.95000002E-02   1.56246804E-12
  -2.94499993E-02  -1.45415385E-12
  -2.94000003E-02  -4.92716154E-12
  -2.93499995E-02  -8.48901678E-12
  -2.93000005E-02  -1.17471328E-11
  -2.92499997E-02  -1.44559521E-11
  -2.92000007E-02  -1.66253174E-11
  -2.91499998E-02  -1.85137773E-11
  -2.91000009E-02  -2.05070665E-11
  -2.90500000E-02  -2.29349924E-11
  -2.89999992E-02  -2.59096876E-11
  -2.89500002E-02  -2.92605939E-11
  -2.88999993E-02  -3.25988125E-11
  -2.88500004E-02  -3.54847228E-11
  -2.87999995E-02  -3.76242613E-11
  -2.87500005E-02  -3.90040604E-11
  -2.86999997E-02  -3.99015473E-11
  -2.86500007E-02  -4.07619216E-11
  -2.85999998E-02  -4.19953655E-11
  -2.85500009E-02  -4.37855967E-11
  -2.85000000E-02  -4.59981671E-11
  -2.84499992E-02  -4.82329315E-11
  -2.84000002E-02  -4.99998168E-11
  -2.83499993E-02  -5.09398877E-11
  -2.83000004E-02  -5.09907429E-11
  -2.82499995E-02  -5.04188670E-11
  -2.82000005E-02  -4.97010141E-11
  -2.81499997E-02  -4.93061980E-11
  -2.81000007E-02  -4.94768948E-11
  -2.80499998E-02  -5.01110056E-11
  -2.80000009E-02  -5.08015990E-11
  -2.79500000E-02  -5.10201152E-11
  -2.78999992E-02  -5.03616281E-11
  -2.78500002E-02  -4.87401682E-11
  -2.77999993E-02  -4.64425512E-11
  -2.77500004E-02  -4.40119365E-11
  -2.76999995E-02  -4.20107109E-11
  -2.76500005E-02  -4.07688570E-11
  -2.75999997E-02  -4.02336185E-11
  -2.75500007E-02  -3.99919681E-11
  -2.74999999E-02  -3.94594080E-11
  -2.74500009E-02  -3.81514681E-11
  -2.74000000E-02  -3.59142716E-11
  -2.73499992E-02  -3.30064760E-11
  -2.73000002E-02  -2.99915301E-11
  -2.72499993E-02  -2.74860065E-11
  -2.72000004E-02  -2.58775171E-11
  -2.71499995E-02  -2.51426692E-11
  -2.71000005E-02  -2.48518359E-11
  -2.70499997E-02  -2.43632944E-11
  -2.70000007E-02  -2.31211734E-11
  -2.69499999E-02  -2.09214365E-11
  -2.69000009E-02  -1.80215495E-11
  -2.68500000E-02  -1.50388851E-11
  -2.67999992E-02  -1.26796620E-11
  -2.67500002E-02  -1.14198442E-11
  -2.66999993E-02  -1.12847613E-11
  -2.66500004E-02  -1.18318784E-11
  -2.65999995E-02  -1.23493620E-11
  -2.65500005E-02  -1.21831347E-11
  -2.64999997E-02  -1.10432245E-11
  -2.64500007E-02  -9.14628442E-12
  -2.63999999E-02  -7.12377293E-12
  -2.63500009E-02  -5.73269210E-12
  -2.63000000E-02  -5.49865882E-12
  -2.62499992E-02  -6.45615722E-12
  -2.62000002E-02  -8.10984786E-12
  -2.61499994E-02  -9.64110736E-12
  -2.61000004E-02  -1.02702924E-11
  -2.60499995E-02  -9.61007229E-12
  -2.60000005E-02  -7.84484717E-12
  -2.59499997E-02  -5.64766419E-12
  -2.59000007E-02  -3.86598999E-12
  -2.58499999E-02  -3.11626896E-12
  -2.58000009E-02  -3.47354762E-12
  -2.57500000E-02  -4.40328980E-12
  -2.56999992E-02  -4.97387591E-12
  -2.56500002E-02  -4.25831462E-12
  -2.55999994E-02  -1.74295994E-12
  -2.55500004E-02   2.44740166E-12
  -2.54999995E-02   7.61858892E-12
  -2.54500005E-02   1.28463741E-11
  -2.53999997E-02   1.74353587E-11
  -2.53500007E-02   2.12861638E-11
  -2.52999999E-02   2.49961007E-11
  -2.52500009E-02   2.96376187E-11
  -2.52000000E-02   3.63074779E-11
  -2.51499992E-02   4.56495501E-11
  -2.51000002E-02   5.75725821E-11
  -2.50499994E-02   7.13002019E-11
  -2.50000004E-02   8.57396307E-11
  -2.49499995E-02   1.00006600E-10
  -2.49000005E-02   1.13866014E-10
  -2.48499997E-02   1.27879818E-10
  -2.48000007E-02   1.43183868E-10
  -2.47499999E-02   1.60986252E-10
  -2.47000009E-02   1.82012738E-10
  -2.46500000E-02   2.06156647E-10
  -2.45999992E-02   2.32503586E-10
  -2.45500002E-02   2.59731209E-10
  -2.44999994E-02   2.86709378E-10
  -2.44500004E-02   3.13026549E-10
  -2.43999995E-02   3.39193118E-10
  -2.43500005E-02   3.66415259E-10
  -2.42999997E-02   3.96029320E-10
  -2.42500007E-02   4.28848346E-10
  -2.41999999E-02   4.64721733E-10
  -2.41500009E-02   5.02520137E-10
  -2.41000000E-02   5.40566314E-10
  -2.40499992E-02   5.77326464E-10
  -2.40000002E-02   6.12048745E-10
  -2.39499994E-02   6.45049236E-10
  -2.39000004E-02   6.77501333E-10
  -2.38499995E-02   7.10809467E-10
  -2.38000005E-02   7.45845830E-10
  -2.37499997E-02   7.82400422E-10
  -2.37000007E-02   8.19108670E-10
  -2.36499999E-02   8.53906279E-10
  -2.36000009E-02   8.84818496E-10
  -2.35500000E-02   9.10727271E-10
  -2.34999992E-02   9.31759447E-10
  -2.34500002E-02   9.49101464E-10
  -2.33999994E-02   9.64307634E-10
  -2.33500004E-02   9.78404135E-10
  -2.32999995E-02   9.91199567E-10
  -2.32500006E-02   1.00112751E-09
  -2.31999997E-02   1.00571274E-09
  -2.31500007E-02   1.00246556E-09
  -2.30999999E-02   9.89804794E-10
  -2.30500009E-02   9.67582126E-10
  -2.30000000E-02   9.36952071E-10
  -2.29499992E-02   8.99626706E-10
  -2.29000002E-02   8.56841709E-10
  -2.28499994E-02   8.08502376E-10
  -2.28000004E-02   7.52914397E-10
  -2.27499995E-02   6.87243040E-10
  -2.27000006E-02   6.08513961E-10
  -2.26499997E-02   5.14710496E-10
  -2.26000007E-02   4.05463496E-10
  -2.25499999E-02   2.82000284E-10
  -2.25000009E-02   1.46353291E-10
  -2.24500000E-02   1.69135403E-13
  -2.23999992E-02  -1.56345353E-10
  -2.23500002E-02  -3.24847094E-10
  -2.22999994E-02  -5.08435682E-10
  -2.22500004E-02  -7.10553338E-10
  -2.21999995E-02  -9.33693012E-10
  -2.21500006E-02  -1.17850152E-09
  -2.20999997E-02  -1.44370826E-09
  -2.20500007E-02  -1.72693093E-09
  -2.19999999E-02  -2.02602335E-09
  -2.19500009E-02  -2.34035191E-09
  -2.19000001E-02  -2.67141154E-09
  -2.18499992E-02  -3.02247982E-09
  -2.18000002E-02  -3.39742945E-09
  -2.17499994E-02  -3.79922849E-09
  -2.17000004E-02  -4.22879731E-09
  -2.16499995E-02  -4.68477079E-09
  -2.16000006E-02  -5.16428766E-09
  -2.15499997E-02  -5.66449199E-09
  -2.15000007E-02  -6.18406171E-09
  -2.14499999E-02  -6.72407330E-09
  -2.14000009E-02  -7.28778193E-09
  -2.13500001E-02  -7.87938692E-09
  -2.12999992E-02  -8.50232151E-09
  -2.12500002E-02  -9.15784160E-09
  -2.11999994E-02  -9.84456250E-09
  -2.11500004E-02  -1.05591953E-08
  -2.10999995E-02  -1.12981677E-08
  -2.10500006E-02  -1.20594237E-08
  -2.09999997E-02  -1.28435618E-08
  -2.09500007E-02  -1.36537945E-08
  -2.08999999E-02  -1.44946908E-08
  -2.08500009E-02  -1.53702615E-08
  -2.08000001E-02  -1.62822342E-08
  -2.07499992E-02  -1.72293131E-08
  -2.07000002E-02  -1.82078104E-08
  -2.06499994E-02  -1.92133705E-08
  -2.06000004E-02  -2.02430375E-08
  -2.05499995E-02  -2.12967510E-08
  -2.05000006E-02  -2.23775380E-08
  -2.04499997E-02  -2.34903119E-08
  -2.04000007E-02  -2.46397587E-08
  -2.03499999E-02  -2.58283155E-08
  -2.03000009E-02  -2.70550764E-08
  -2.02500001E-02  -2.83162560E-08
  -2.01999992E-02  -2.96069622E-08
  -2.01500002E-02  -3.09235340E-08
  -2.00999994E-02  -3.22653833E-08
  -2.00500004E-02  -3.36355050E-08
  -1.99999996E-02  -3.50393599E-08
  -1.99500006E-02  -3.64826178E-08
  -1.98999997E-02  -3.79687606E-08
  -1.98500007E-02  -3.94976460E-08
  -1.97999999E-02  -4.10656860E-08
  -1.97500009E-02  -4.26676117E-08
  -1.97000001E-02  -4.42990924E-08
  -1.96499992E-02  -4.59589486E-08
  -1.96000002E-02  -4.76500546E-08
  -1.95499994E-02  -4.93783894E-08
  -1.95000004E-02  -5.11507068E-08
  -1.94499996E-02  -5.29718172E-08
  -1.94000006E-02  -5.48426975E-08
  -1.93499997E-02  -5.67603635E-08
  -1.93000007E-02  -5.87195714E-08
  -1.92499999E-02  -6.07155783E-08
  -1.92000009E-02  -6.27468069E-08
  -1.91500001E-02  -6.48161631E-08
  -1.90999992E-02  -6.69303120E-08
  -1.90500002E-02  -6.90973181E-08
  -1.89999994E-02  -7.13236190E-08
  -1.89500004E-02  -7.36116590E-08
  -1.88999996E-02  -7.59594059E-08
  -1.88500006E-02  -7.83618006E-08
  -1.87999997E-02  -8.08137699E-08
  -1.87500007E-02  -8.33132177E-08
  -1.86999999E-02  -8.58628653E-08
  -1.86500009E-02  -8.84698821E-08
  -1.86000001E-02  -9.11435691E-08
  -1.85499992E-02  -9.38920550E-08
  -1.85000002E-02  -9.67195035E-08
  -1.84499994E-02  -9.96250549E-08
  -1.84000004E-02  -1.02604140E-07
  -1.83499996E-02  -1.05651488E-07
  -1.83000006E-02  -1.08764560E-07
  -1.82499997E-02  -1.11945859E-07
  -1.82000007E-02  -1.15202994E-07
  -1.81499999E-02  -1.18546524E-07
  -1.81000009E-02  -1.21986389E-07
  -1.80500001E-02  -1.25528686E-07
  -1.79999992E-02  -1.29174026E-07
  -1.79500002E-02  -1.32918515E-07
  -1.78999994E-02  -1.36756768E-07
  -1.78500004E-02  -1.40685685E-07
  -1.77999996E-02  -1.44707244E-07
  -1.77500006E-02  -1.48829173E-07
  -1.76999997E-02  -1.53062913E-07
  -1.76500008E-02  -1.57420061E-07
  -1.75999999E-02  -1.61908574E-07
  -1.75500009E-02  -1.66530654E-07
  -1.75000001E-02  -1.71283290E-07
  -1.74499992E-02  -1.76161137E-07
  -1.74000002E-02  -1.81160502E-07
  -1.73499994E-02  -1.86282833E-07
  -1.73000004E-02  -1.91535818E-07
  -1.72499996E-02  -1.96931794E-07
  -1.72000006E-02  -2.02484003E-07
  -1.71499997E-02  -2.08202508E-07
  -1.71000008E-02  -2.14091472E-07
  -1.70499999E-02  -2.20148962E-07
  -1.70000009E-02  -2.26369835E-07
  -1.69500001E-02  -2.32749912E-07
  -1.68999992E-02  -2.39289818E-07
  -1.68500002E-02  -2.45996802E-07
  -1.67999994E-02  -2.52883666E-07
  -1.67500004E-02  -2.59964992E-07
  -1.66999996E-02  -2.67252773E-07
  -1.66500006E-02  -2.74753035E-07
  -1.65999997E-02  -2.82465209E-07
  -1.65500008E-02  -2.90384548E-07
  -1.64999999E-02  -2.98506393E-07
  -1.64500009E-02  -3.06830685E-07
  -1.64000001E-02  -3.15364275E-07
  -1.63499992E-02  -3.24120407E-07
  -1.63000003E-02  -3.33115139E-07
  -1.62499994E-02  -3.42362711E-07
  -1.62000004E-02  -3.51871535E-07
  -1.61499996E-02  -3.61642861E-07
  -1.61000006E-02  -3.71672854E-07
  -1.60499997E-02  -3.81956824E-07
  -1.60000008E-02  -3.92494002E-07
  -1.59499999E-02  -4.03290784E-07
  -1.59000009E-02  -4.14360585E-07
  -1.58500001E-02  -4.25720771E-07
  -1.57999992E-02  -4.37387683E-07
  -1.57500003E-02  -4.49372209E-07
  -1.56999994E-02  -4.61677899E-07
  -1.56500004E-02  -4.74302283E-07
  -1.55999996E-02  -4.87241039E-07
  -1.55499997E-02  -5.00493400E-07
  -1.54999997E-02  -5.14065505E-07
  -1.54499998E-02  -5.27971338E-07
  -1.53999999E-02  -5.42229941E-07
  -1.53500000E-02  -5.56860357E-07
  -1.53000001E-02  -5.71876569E-07
  -1.52500002E-02  -5.87285228E-07
  -1.52000003E-02  -6.03085937E-07
  -1.51500003E-02  -6.19275568E-07
  -1.51000004E-02  -6.35853610E-07
  -1.50499996E-02  -6.52826259E-07
  -1.49999997E-02  -6.70208294E-07
  -1.49499997E-02  -6.88020236E-07
  -1.48999998E-02  -7.06283799E-07
  -1.48499999E-02  -7.25016321E-07
  -1.48000000E-02  -7.44227748E-07
  -1.47500001E-02  -7.63920298E-07
  -1.47000002E-02  -7.84092663E-07
  -1.46500003E-02  -8.04745071E-07
  -1.46000003E-02  -8.25884456E-07
  -1.45500004E-02  -8.47526451E-07
  -1.44999996E-02  -8.69693451E-07
  -1.44499997E-02  -8.92410299E-07
  -1.43999998E-02  -9.15698024E-07
  -1.43499998E-02  -9.39570498E-07
  -1.42999999E-02  -9.64033575E-07
  -1.42500000E-02  -9.89088221E-07
  -1.42000001E-02  -1.01473609E-06
  -1.41500002E-02  -1.04098513E-06
  -1.41000003E-02  -1.06785160E-06
  -1.40500003E-02  -1.09535995E-06
  -1.40000004E-02  -1.12353769E-06
  -1.39499996E-02  -1.15240994E-06
  -1.38999997E-02  -1.18199432E-06
  -1.38499998E-02  -1.21230062E-06
  -1.37999998E-02  -1.24333246E-06
  -1.37499999E-02  -1.27509315E-06
  -1.37000000E-02  -1.30759156E-06
  -1.36500001E-02  -1.34084542E-06
  -1.36000002E-02  -1.37488098E-06
  -1.35500003E-02  -1.40972872E-06
  -1.35000004E-02  -1.44541752E-06
  -1.34500004E-02  -1.48196943E-06
  -1.33999996E-02  -1.51939832E-06
  -1.33499997E-02  -1.55771102E-06
  -1.32999998E-02  -1.59691353E-06
  -1.32499998E-02  -1.63701588E-06
  -1.31999999E-02  -1.67803728E-06
  -1.31500000E-02  -1.72000557E-06
  -1.31000001E-02  -1.76295407E-06
  -1.30500002E-02  -1.80691529E-06
  -1.30000003E-02  -1.85191516E-06
  -1.29500004E-02  -1.89797197E-06
  -1.29000004E-02  -1.94509585E-06
  -1.28499996E-02  -1.99329475E-06
  -1.27999997E-02  -2.04258095E-06
  -1.27499998E-02  -2.09297446E-06
  -1.26999998E-02  -2.14450506E-06
  -1.26499999E-02  -2.19720846E-06
  -1.26000000E-02  -2.25112080E-06
  -1.25500001E-02  -2.30627302E-06
  -1.25000002E-02  -2.36268784E-06
  -1.24500003E-02  -2.42037913E-06
  -1.24000004E-02  -2.47935827E-06
  -1.23500004E-02  -2.53963935E-06
  -1.22999996E-02  -2.60124420E-06
  -1.22499997E-02  -2.66420352E-06
  -1.21999998E-02  -2.72855527E-06
  -1.21499998E-02  -2.79433971E-06
  -1.20999999E-02  -2.86159138E-06
  -1.20500000E-02  -2.93033668E-06
  -1.20000001E-02  -3.00059446E-06
  -1.19500002E-02  -3.07237815E-06
  -1.19000003E-02  -3.14570411E-06
  -1.18500004E-02  -3.22059532E-06
  -1.18000004E-02  -3.29708473E-06
  -1.17499996E-02  -3.37521328E-06
  -1.16999997E-02  -3.45502463E-06
  -1.16499998E-02  -3.53655764E-06
  -1.15999999E-02  -3.61984394E-06
  -1.15499999E-02  -3.70490602E-06
  -1.15000000E-02  -3.79176072E-06
  -1.14500001E-02  -3.88042736E-06
  -1.14000002E-02  -3.97092981E-06
  -1.13500003E-02  -4.06330400E-06
  -1.13000004E-02  -4.15759177E-06
  -1.12500004E-02  -4.25384087E-06
  -1.11999996E-02  -4.35209358E-06
  -1.11499997E-02  -4.45238629E-06
  -1.10999998E-02  -4.55474583E-06
  -1.10499999E-02  -4.65919311E-06
  -1.09999999E-02  -4.76574996E-06
  -1.09500000E-02  -4.87444549E-06
  -1.09000001E-02  -4.98531608E-06
  -1.08500002E-02  -5.09840720E-06
  -1.08000003E-02  -5.21377024E-06
  -1.07500004E-02  -5.33145203E-06
  -1.07000005E-02  -5.45149305E-06
  -1.06499996E-02  -5.57392468E-06
  -1.05999997E-02  -5.69877375E-06
  -1.05499998E-02  -5.82606390E-06
  -1.04999999E-02  -5.95582605E-06
  -1.04499999E-02  -6.08809887E-06
  -1.04000000E-02  -6.22293010E-06
  -1.03500001E-02  -6.36037430E-06
  -1.03000002E-02  -6.50048287E-06
  -1.02500003E-02  -6.64330128E-06
  -1.02000004E-02  -6.78886727E-06
  -1.01500005E-02  -6.93720995E-06
  -1.00999996E-02  -7.08836023E-06
  -1.00499997E-02  -7.24234997E-06
  -9.99999978E-03  -7.39922189E-06
  -9.94999986E-03  -7.55902784E-06
  -9.89999995E-03  -7.72182466E-06
  -9.85000003E-03  -7.88766920E-06
  -9.80000012E-03  -8.05661239E-06
  -9.75000020E-03  -8.22869515E-06
  -9.70000029E-03  -8.40395387E-06
  -9.65000037E-03  -8.58241856E-06
  -9.60000046E-03  -8.76412741E-06
  -9.54999961E-03  -8.94912318E-06
  -9.49999969E-03  -9.13746135E-06
  -9.44999978E-03  -9.32920011E-06
  -9.39999986E-03  -9.52440041E-06
  -9.34999995E-03  -9.72311682E-06
  -9.30000003E-03  -9.92539390E-06
  -9.25000012E-03  -1.01312717E-05
  -9.20000020E-03  -1.03407838E-05
  -9.15000029E-03  -1.05539702E-05
  -9.10000037E-03  -1.07708793E-05
  -9.05000046E-03  -1.09915673E-05
  -8.99999961E-03  -1.12160997E-05
  -8.94999970E-03  -1.14445384E-05
  -8.89999978E-03  -1.16769415E-05
  -8.84999987E-03  -1.19133610E-05
  -8.79999995E-03  -1.21538396E-05
  -8.75000004E-03  -1.23984146E-05
  -8.70000012E-03  -1.26471296E-05
  -8.65000021E-03  -1.29000337E-05
  -8.60000029E-03  -1.31571860E-05
  -8.55000038E-03  -1.34186539E-05
  -8.50000046E-03  -1.36845019E-05
  -8.44999962E-03  -1.39547919E-05
  -8.39999970E-03  -1.42295748E-05
  -8.34999979E-03  -1.45088961E-05
  -8.29999987E-03  -1.47927949E-05
  -8.24999996E-03  -1.50813139E-05
  -8.20000004E-03  -1.53745059E-05
  -8.15000013E-03  -1.56724273E-05
  -8.10000021E-03  -1.59751453E-05
  -8.05000030E-03  -1.62827328E-05
  -8.00000038E-03  -1.65952497E-05
  -7.95000046E-03  -1.69127543E-05
  -7.89999962E-03  -1.72352884E-05
  -7.84999970E-03  -1.75628957E-05
  -7.79999979E-03  -1.78956197E-05
  -7.74999987E-03  -1.82335152E-05
  -7.69999996E-03  -1.85766439E-05
  -7.65000004E-03  -1.89250732E-05
  -7.60000013E-03  -1.92788739E-05
  -7.55000021E-03  -1.96381116E-05
  -7.49999983E-03  -2.00028389E-05
  -7.44999992E-03  -2.03730997E-05
  -7.40000000E-03  -2.07489411E-05
  -7.35000009E-03  -2.11304032E-05
  -7.30000017E-03  -2.15175351E-05
  -7.24999979E-03  -2.19104004E-05
  -7.19999988E-03  -2.23090647E-05
  -7.14999996E-03  -2.27135952E-05
  -7.10000005E-03  -2.31240574E-05
  -7.05000013E-03  -2.35405005E-05
  -7.00000022E-03  -2.39629717E-05
  -6.94999984E-03  -2.43915074E-05
  -6.89999992E-03  -2.48261495E-05
  -6.85000001E-03  -2.52669452E-05
  -6.80000009E-03  -2.57139545E-05
  -6.75000018E-03  -2.61672412E-05
  -6.69999979E-03  -2.66268726E-05
  -6.64999988E-03  -2.70929104E-05
  -6.59999996E-03  -2.75654074E-05
  -6.55000005E-03  -2.80444037E-05
  -6.50000013E-03  -2.85299338E-05
  -6.45000022E-03  -2.90220341E-05
  -6.39999984E-03  -2.95207483E-05
  -6.34999992E-03  -3.00261254E-05
  -6.30000001E-03  -3.05382273E-05
  -6.25000009E-03  -3.10571158E-05
  -6.20000018E-03  -3.15828547E-05
  -6.14999980E-03  -3.21154839E-05
  -6.09999988E-03  -3.26550398E-05
  -6.04999997E-03  -3.32015552E-05
  -6.00000005E-03  -3.37550446E-05
  -5.95000014E-03  -3.43155480E-05
  -5.90000022E-03  -3.48831090E-05
  -5.84999984E-03  -3.54577787E-05
  -5.79999993E-03  -3.60396079E-05
  -5.75000001E-03  -3.66286476E-05
  -5.70000010E-03  -3.72249451E-05
  -5.65000018E-03  -3.78285185E-05
  -5.59999980E-03  -3.84393934E-05
  -5.54999989E-03  -3.90575842E-05
  -5.49999997E-03  -3.96831092E-05
  -5.45000006E-03  -4.03160011E-05
  -5.40000014E-03  -4.09562963E-05
  -5.35000023E-03  -4.16040493E-05
  -5.29999984E-03  -4.22592930E-05
  -5.24999993E-03  -4.29220563E-05
  -5.20000001E-03  -4.35923539E-05
  -5.15000010E-03  -4.42701894E-05
  -5.10000018E-03  -4.49555700E-05
  -5.04999980E-03  -4.56484959E-05
  -4.99999989E-03  -4.63489814E-05
  -4.94999997E-03  -4.70570485E-05
  -4.90000006E-03  -4.77727262E-05
  -4.85000014E-03  -4.84960365E-05
  -4.80000023E-03  -4.92269937E-05
  -4.74999985E-03  -4.99655980E-05
  -4.69999993E-03  -5.07118275E-05
  -4.65000002E-03  -5.14656676E-05
  -4.60000010E-03  -5.22271039E-05
  -4.55000019E-03  -5.29961253E-05
  -4.49999981E-03  -5.37727356E-05
  -4.44999989E-03  -5.45569455E-05
  -4.39999998E-03  -5.53487553E-05
  -4.35000006E-03  -5.61481647E-05
  -4.30000015E-03  -5.69551376E-05
  -4.25000023E-03  -5.77696483E-05
  -4.19999985E-03  -5.85916605E-05
  -4.14999994E-03  -5.94211197E-05
  -4.10000002E-03  -6.02580003E-05
  -4.05000011E-03  -6.11022770E-05
  -4.00000019E-03  -6.19539278E-05
  -3.94999981E-03  -6.28129346E-05
  -3.89999989E-03  -6.36792684E-05
  -3.84999998E-03  -6.45528780E-05
  -3.80000006E-03  -6.54336836E-05
  -3.74999992E-03  -6.63216342E-05
  -3.70000000E-03  -6.72166425E-05
  -3.65000009E-03  -6.81186430E-05
  -3.59999994E-03  -6.90275920E-05
  -3.55000002E-03  -6.99434313E-05
  -3.50000011E-03  -7.08661028E-05
  -3.44999996E-03  -7.17955554E-05
  -3.40000005E-03  -7.27316801E-05
  -3.34999990E-03  -7.36744041E-05
  -3.29999998E-03  -7.46236110E-05
  -3.25000007E-03  -7.55791916E-05
  -3.19999992E-03  -7.65410587E-05
  -3.15000000E-03  -7.75091103E-05
  -3.10000009E-03  -7.84832664E-05
  -3.04999994E-03  -7.94634252E-05
  -3.00000003E-03  -8.04494848E-05
  -2.95000011E-03  -8.14413361E-05
  -2.89999996E-03  -8.24388335E-05
  -2.85000005E-03  -8.34418388E-05
  -2.79999990E-03  -8.44502138E-05
  -2.74999999E-03  -8.54638056E-05
  -2.70000007E-03  -8.64824688E-05
  -2.64999992E-03  -8.75060796E-05
  -2.60000001E-03  -8.85345071E-05
  -2.55000009E-03  -8.95675912E-05
  -2.49999994E-03  -9.06051719E-05
  -2.45000003E-03  -9.16470744E-05
  -2.40000011E-03  -9.26931025E-05
  -2.34999997E-03  -9.37430668E-05
  -2.30000005E-03  -9.47967783E-05
  -2.24999990E-03  -9.58540695E-05
  -2.19999999E-03  -9.69147295E-05
  -2.15000007E-03  -9.79785982E-05
  -2.09999993E-03  -9.90454646E-05
  -2.05000001E-03  -1.00115110E-04
  -2.00000009E-03  -1.01187310E-04
  -1.94999995E-03  -1.02261809E-04
  -1.90000003E-03  -1.03338389E-04
  -1.85000000E-03  -1.04416802E-04
  -1.79999997E-03  -1.05496831E-04
  -1.75000005E-03  -1.06578227E-04
  -1.70000002E-03  -1.07660744E-04
  -1.64999999E-03  -1.08744141E-04
  -1.59999996E-03  -1.09828128E-04
  -1.55000004E-03  -1.10912420E-04
  -1.50000001E-03  -1.11996720E-04
  -1.44999998E-03  -1.13080736E-04
  -1.39999995E-03  -1.14164177E-04
  -1.35000004E-03  -1.15246730E-04
  -1.30000000E-03  -1.16328119E-04
  -1.24999997E-03  -1.17408024E-04
  -1.20000006E-03  -1.18486154E-04
  -1.15000003E-03  -1.19562159E-04
  -1.09999999E-03  -1.20635683E-04
  -1.04999996E-03  -1.21706391E-04
  -1.00000005E-03  -1.22773898E-04
  -9.50000016E-04  -1.23837832E-04
  -8.99999985E-04  -1.24897881E-04
  -8.50000011E-04  -1.25953666E-04
  -7.99999980E-04  -1.27004823E-04
  -7.50000007E-04  -1.28050975E-04
  -6.99999975E-04  -1.29091743E-04
  -6.50000002E-04  -1.30126689E-04
  -6.00000028E-04  -1.31155364E-04
  -5.49999997E-04  -1.32177360E-04
  -5.00000024E-04  -1.33192239E-04
  -4.49999992E-04  -1.34199610E-04
  -3.99999990E-04  -1.35199036E-04
  -3.49999988E-04  -1.36190080E-04
  -3.00000014E-04  -1.37172305E-04
  -2.50000012E-04  -1.38145231E-04
  -1.99999995E-04  -1.39108350E-04
  -1.50000007E-04  -1.40061151E-04
  -9.99999975E-05  -1.41003140E-04
  -4.99999987E-05  -1.41933808E-04
   0.00000000      -1.42852688E-04
   4.99999987E-05  -1.43759287E-04
   9.99999975E-05  -1.44653110E-04
   1.50000007E-04  -1.45533646E-04
   1.99999995E-04  -1.46400314E-04
   2.50000012E-04  -1.47252562E-04
   3.00000014E-04  -1.48089806E-04
   3.49999988E-04  -1.48911451E-04
   3.99999990E-04  -1.49716943E-04
   4.49999992E-04  -1.50505715E-04
   5.00000024E-04  -1.51277214E-04
   5.49999997E-04  -1.52030872E-04
   6.00000028E-04  -1.52766093E-04
   6.50000002E-04  -1.53482237E-04
   6.99999975E-04  -1.54178648E-04
   7.50000007E-04  -1.54854686E-04
   7.99999980E-04  -1.55509697E-04
   8.50000011E-04  -1.56143011E-04
   8.99999985E-04  -1.56754002E-04
   9.50000016E-04  -1.57342030E-04
   1.00000005E-03  -1.57906470E-04
   1.04999996E-03  -1.58446608E-04
   1.09999999E-03  -1.58961790E-04
   1.15000003E-03  -1.59451287E-04
   1.20000006E-03  -1.59914329E-04
   1.24999997E-03  -1.60350217E-04
   1.30000000E-03  -1.60758224E-04
   1.35000004E-03  -1.61137621E-04
   1.39999995E-03  -1.61487667E-04
   1.44999998E-03  -1.61807664E-04
   1.50000001E-03  -1.62096869E-04
   1.55000004E-03  -1.62354510E-04
   1.59999996E-03  -1.62579818E-04
   1.64999999E-03  -1.62771990E-04
   1.70000002E-03  -1.62930199E-04
   1.75000005E-03  -1.63053657E-04
   1.79999997E-03  -1.63141551E-04
   1.85000000E-03  -1.63193079E-04
   1.90000003E-03  -1.63207456E-04
   1.94999995E-03  -1.63183882E-04
   2.00000009E-03  -1.63121542E-04
   2.05000001E-03  -1.63019562E-04
   2.09999993E-03  -1.62877055E-04
   2.15000007E-03  -1.62693133E-04
   2.19999999E-03  -1.62466909E-04
   2.24999990E-03  -1.62197553E-04
   2.30000005E-03  -1.61884192E-04
   2.34999997E-03  -1.61525939E-04
   2.40000011E-03  -1.61121949E-04
   2.45000003E-03  -1.60671334E-04
   2.49999994E-03  -1.60173178E-04
   2.55000009E-03  -1.59626536E-04
   2.60000001E-03  -1.59030446E-04
   2.64999992E-03  -1.58383962E-04
   2.70000007E-03  -1.57686154E-04
   2.74999999E-03  -1.56936105E-04
   2.79999990E-03  -1.56132926E-04