  -3.99999991E-02   0.00000000    
  -3.99499983E-02   0.00000000    
  -3.99000011E-02   0.00000000    
  -3.98500003E-02   0.00000000    
  -3.97999994E-02   1.18239717E-19
  -3.97499986E-02   8.96486664E-19
  -3.97000015E-02   3.65157972E-18
  -3.96500006E-02   1.06363325E-17
  -3.95999998E-02   2.50507744E-17
  -3.95499989E-02   5.13306234E-17
  -3.95000018E-02   9.59055834E-17
  -3.94500010E-02   1.67597671E-16
  -3.94000001E-02   2.76201350E-16
  -3.93499993E-02   4.29039340E-16
  -3.92999984E-02   6.27939935E-16
  -3.92500013E-02   8.70236409E-16
  -3.92000005E-02   1.15473111E-15
  -3.91499996E-02   1.48887163E-15
  -3.90999988E-02   1.89155967E-15
  -3.90500017E-02   2.38965528E-15
  -3.90000008E-02   3.01174253E-15
  -3.89500000E-02   3.78389269E-15
  -3.88999991E-02   4.72785416E-15
  -3.88499983E-02   5.85833736E-15
  -3.88000011E-02   7.17872027E-15
  -3.87500003E-02   8.68080191E-15
  -3.86999995E-02   1.03545975E-14
  -3.86499986E-02   1.22048257E-14
  -3.86000015E-02   1.42605705E-14
  -3.85500006E-02   1.65667718E-14
  -3.84999998E-02   1.91617115E-14
  -3.84499989E-02   2.20580000E-14
  -3.84000018E-02   2.52405586E-14
  -3.83500010E-02   2.86773541E-14
  -3.83000001E-02   3.23274292E-14
  -3.82499993E-02   3.61390978E-14
  -3.81999984E-02   4.00481480E-14
  -3.81500013E-02   4.39892534E-14
  -3.81000005E-02   4.79170299E-14
  -3.80499996E-02   5.18166070E-14
  -3.79999988E-02   5.56898176E-14
  -3.79500017E-02   5.95282490E-14
  -3.79000008E-02   6.32984672E-14
  -3.78500000E-02   6.69490776E-14
  -3.77999991E-02   7.04208420E-14
  -3.77499983E-02   7.36360571E-14
  -3.77000012E-02   7.64716998E-14
  -3.76500003E-02   7.87499948E-14
  -3.75999995E-02   8.02710898E-14
  -3.75499986E-02   8.08690544E-14
  -3.75000015E-02   8.04417568E-14
  -3.74500006E-02   7.89239279E-14
  -3.73999998E-02   7.62247728E-14
  -3.73499990E-02   7.21806783E-14
  -3.73000018E-02   6.65531473E-14
  -3.72500010E-02   5.90605988E-14
  -3.72000001E-02   4.94213367E-14
  -3.71499993E-02   3.74078616E-14
  -3.70999984E-02   2.29254109E-14
  -3.70500013E-02   6.09345126E-15
  -3.70000005E-02  -1.27412119E-14
  -3.69499996E-02  -3.31230371E-14
  -3.68999988E-02  -5.47162549E-14
  -3.68500017E-02  -7.75210720E-14
  -3.68000008E-02  -1.01939439E-13
  -3.67500000E-02  -1.28642187E-13
  -3.66999991E-02  -1.58308547E-13
  -3.66499983E-02  -1.91362036E-13
  -3.66000012E-02  -2.27796867E-13
  -3.65500003E-02  -2.67137901E-13
  -3.64999995E-02  -3.08553042E-13
  -3.64499986E-02  -3.51119470E-13
  -3.64000015E-02  -3.94174033E-13
  -3.63500006E-02  -4.37582452E-13
  -3.62999998E-02  -4.81736287E-13
  -3.62499990E-02  -5.27214557E-13
  -3.62000018E-02  -5.74263022E-13
  -3.61500010E-02  -6.22390486E-13
  -3.61000001E-02  -6.70322738E-13
  -3.60499993E-02  -7.16344193E-13
  -3.59999985E-02  -7.58852562E-13
  -3.59500013E-02  -7.96878351E-13
  -3.59000005E-02  -8.30368001E-13
  -3.58499996E-02  -8.60108534E-13
  -3.57999988E-02  -8.87264329E-13
  -3.57500017E-02  -9.12636720E-13
  -3.57000008E-02  -9.35940019E-13
  -3.56500000E-02  -9.55492955E-13
  -3.55999991E-02  -9.68593912E-13
  -3.55499983E-02  -9.72485547E-13
  -3.55000012E-02  -9.65443003E-13
  -3.54500003E-02  -9.47412396E-13
  -3.53999995E-02  -9.19858157E-13
  -3.53499986E-02  -8.84891823E-13
  -3.53000015E-02  -8.44074268E-13
  -3.52500007E-02  -7.97396003E-13
  -3.51999998E-02  -7.42853966E-13
  -3.51499990E-02  -6.76870886E-13
  -3.51000018E-02  -5.95511216E-13
  -3.50500010E-02  -4.96085052E-13
  -3.50000001E-02  -3.78426240E-13
  -3.49499993E-02  -2.45142665E-13
  -3.48999985E-02  -1.00581219E-13
  -3.48500013E-02   5.10725936E-14
  -3.48000005E-02   2.07637455E-13
  -3.47499996E-02   3.69823069E-13
  -3.46999988E-02   5.40751851E-13
  -3.46500017E-02   7.24349779E-13
  -3.46000008E-02   9.23312425E-13
  -3.45500000E-02   1.13748236E-12
  -3.44999991E-02   1.36333848E-12
  -3.44499983E-02   1.59492894E-12
  -3.44000012E-02   1.82599335E-12
  -3.43500003E-02   2.05241358E-12
  -3.42999995E-02   2.27379335E-12
  -3.42499986E-02   2.49326297E-12
  -3.42000015E-02   2.71546175E-12
  -3.41500007E-02   2.94362516E-12
  -3.40999998E-02   3.17719635E-12
  -3.40499990E-02   3.41109801E-12
  -3.40000018E-02   3.63698416E-12
  -3.39500010E-02   3.84590406E-12
  -3.39000002E-02   4.03126707E-12
  -3.38499993E-02   4.19085600E-12
  -3.37999985E-02   4.32696413E-12
  -3.37500013E-02   4.44442877E-12
  -3.37000005E-02   4.54726361E-12
  -3.36499996E-02   4.63539146E-12
  -3.35999988E-02   4.70314586E-12
  -3.35500017E-02   4.74046757E-12
  -3.35000008E-02   4.73637015E-12
  -3.34500000E-02   4.68307251E-12
  -3.33999991E-02   4.57884815E-12
  -3.33499983E-02   4.42829193E-12
  -3.33000012E-02   4.23990140E-12
  -3.32500003E-02   4.02198717E-12
  -3.31999995E-02   3.77856383E-12
  -3.31499986E-02   3.50694408E-12
  -3.31000015E-02   3.19817653E-12
  -3.30500007E-02   2.84037355E-12
  -3.29999998E-02   2.42365546E-12
  -3.29499990E-02   1.94450142E-12
  -3.29000019E-02   1.40741119E-12
  -3.28500010E-02   8.23018520E-13
  -3.28000002E-02   2.03571508E-13
  -3.27499993E-02  -4.42066685E-13
  -3.26999985E-02  -1.11158923E-12
  -3.26500013E-02  -1.80926346E-12
  -3.26000005E-02  -2.54289450E-12
  -3.25499997E-02  -3.31901629E-12
  -3.24999988E-02  -4.13830428E-12
  -3.24500017E-02  -4.99319986E-12
  -3.24000008E-02  -5.86894899E-12
  -3.23500000E-02  -6.74786702E-12
  -3.22999991E-02  -7.61503100E-12
  -3.22499983E-02  -8.46276261E-12
  -3.22000012E-02  -9.29169588E-12
  -3.21500003E-02  -1.01079206E-11
  -3.20999995E-02  -1.09176071E-11
  -3.20499986E-02  -1.17216636E-11
  -3.20000015E-02  -1.25127530E-11
  -3.19500007E-02  -1.32758752E-11
  -3.18999998E-02  -1.39921625E-11
  -3.18499990E-02  -1.46444037E-11
  -3.18000019E-02  -1.52220164E-11
  -3.17500010E-02  -1.57233549E-11
  -3.17000002E-02  -1.61540434E-11
  -3.16499993E-02  -1.65219106E-11
  -3.15999985E-02  -1.68306740E-11
  -3.15500014E-02  -1.70754019E-11
  -3.15000005E-02  -1.72419492E-11
  -3.14499997E-02  -1.73106269E-11
  -3.13999988E-02  -1.72623808E-11
  -3.13500017E-02  -1.70847763E-11
  -3.13000008E-02  -1.67754404E-11
  -3.12500000E-02  -1.63417561E-11
  -3.11999992E-02  -1.57969592E-11
  -3.11500002E-02  -1.51540759E-11
  -3.10999993E-02  -1.44200199E-11
  -3.10500003E-02  -1.35924163E-11
  -3.09999995E-02  -1.26607154E-11
  -3.09500005E-02  -1.16112849E-11
  -3.08999997E-02  -1.04341431E-11
  -3.08500007E-02  -9.12825024E-12
  -3.07999998E-02  -7.70303439E-12
  -3.07500008E-02  -6.17576086E-12
  -3.07000000E-02  -4.56608926E-12
  -3.06499992E-02  -2.89006471E-12
  -3.06000002E-02  -1.15579117E-12
  -3.05499993E-02   6.37634097E-13
  -3.05000003E-02   2.49739769E-12
  -3.04499995E-02   4.43127132E-12
  -3.04000005E-02   6.44110763E-12
  -3.03499997E-02   8.51842815E-12
  -3.03000007E-02   1.06442502E-11
  -3.02499998E-02   1.27932795E-11
  -3.02000009E-02   1.49405002E-11
  -3.01500000E-02   1.70670283E-11
  -3.00999992E-02   1.91630045E-11
  -3.00500002E-02   2.12265414E-11
  -2.99999993E-02   2.32593476E-11
  -2.99500003E-02   2.52607258E-11
  -2.98999995E-02   2.72221551E-11
  -2.98500005E-02   2.91246957E-11
  -2.97999997E-02   3.09409443E-11
  -2.97500007E-02   3.26411259E-11
  -2.96999998E-02   3.42011350E-11
  -2.96500009E-02   3.56086896E-11
  -2.96000000E-02   3.68645878E-11
  -2.95499992E-02   3.79785231E-11
  -2.95000002E-02   3.89612058E-11
  -2.94499993E-02   3.98161192E-11
  -2.94000003E-02   4.05341351E-11
  -2.93499995E-02   4.10929207E-11
  -2.93000005E-02   4.14616952E-11
  -2.92499997E-02   4.16099481E-11
  -2.92000007E-02   4.15170329E-11
  -2.91499998E-02   4.11785189E-11
  -2.91000009E-02   4.06059804E-11
  -2.90500000E-02   3.98198211E-11
  -2.89999992E-02   3.88381757E-11
  -2.89500002E-02   3.76669564E-11
  -2.88999993E-02   3.62956228E-11
  -2.88500004E-02   3.47003676E-11
  -2.87999995E-02   3.28532514E-11
  -2.87500005E-02   3.07337142E-11
  -2.86999997E-02   2.83380489E-11
  -2.86500007E-02   2.56828569E-11
  -2.85999998E-02   2.28005791E-11
  -2.85500009E-02   1.97281826E-11
  -2.85000000E-02   1.64934472E-11
  -2.84499992E-02   1.31051515E-11
  -2.84000002E-02   9.55194344E-12
  -2.83499993E-02   5.81068440E-12
  -2.83000004E-02   1.86056183E-12
  -2.82499995E-02  -2.30367830E-12
  -2.82000005E-02  -6.66492209E-12
  -2.81499997E-02  -1.11862056E-11
  -2.81000007E-02  -1.58211673E-11
  -2.80499998E-02  -2.05284019E-11
  -2.80000009E-02  -2.52838219E-11
  -2.79500000E-02  -3.00853717E-11
  -2.78999992E-02  -3.49475206E-11
  -2.78500002E-02  -3.98868785E-11
  -2.77999993E-02  -4.49055064E-11
  -2.77500004E-02  -4.99799473E-11
  -2.76999995E-02  -5.50614589E-11
  -2.76500005E-02  -6.00876571E-11
  -2.75999997E-02  -6.50003731E-11
  -2.75500007E-02  -6.97616340E-11
  -2.74999999E-02  -7.43611284E-11
  -2.74500009E-02  -7.88117627E-11
  -2.74000000E-02  -8.31353181E-11
  -2.73499992E-02  -8.73436254E-11
  -2.73000002E-02  -9.14233342E-11
  -2.72499993E-02  -9.53307849E-11
  -2.72000004E-02  -9.90007104E-11
  -2.71499995E-02  -1.02365505E-10
  -2.71000005E-02  -1.05376464E-10
  -2.70499997E-02  -1.08017068E-10
  -2.70000007E-02  -1.10302142E-10
  -2.69499999E-02  -1.12263469E-10
  -2.69000009E-02  -1.13928485E-10
  -2.68500000E-02  -1.15301234E-10
  -2.67999992E-02  -1.16353399E-10
  -2.67500002E-02  -1.17028956E-10
  -2.66999993E-02  -1.17260729E-10
  -2.66500004E-02  -1.16992430E-10
  -2.65999995E-02  -1.16197184E-10
  -2.65500005E-02  -1.14883908E-10
  -2.64999997E-02  -1.13088497E-10
  -2.64500007E-02  -1.10853424E-10
  -2.63999999E-02  -1.08205653E-10
  -2.63500009E-02  -1.05142783E-10
  -2.63000000E-02  -1.01633674E-10
  -2.62499992E-02  -9.76322148E-11
  -2.62000002E-02  -9.30974811E-11
  -2.61499994E-02  -8.80116188E-11
  -2.61000004E-02  -8.23884433E-11
  -2.60499995E-02  -7.62688315E-11
  -2.60000005E-02  -6.97047628E-11
  -2.59499997E-02  -6.27383215E-11
  -2.59000007E-02  -5.53850368E-11
  -2.58499999E-02  -4.76289425E-11
  -2.58000009E-02  -3.94329742E-11
  -2.57500000E-02  -3.07591903E-11
  -2.56999992E-02  -2.15894559E-11
  -2.56500002E-02  -1.19373704E-11
  -2.55999994E-02  -1.84642406E-12
  -2.55500004E-02   8.62308055E-12
  -2.54999995E-02   1.94132228E-11
  -2.54500005E-02   3.04855793E-11
  -2.53999997E-02   4.18299284E-11
  -2.53500007E-02   5.34605346E-11
  -2.52999999E-02   6.54011775E-11
  -2.52500009E-02   7.76651798E-11
  -2.52000000E-02   9.02386985E-11
  -2.51499992E-02   1.03075257E-10
  -2.51000002E-02   1.16104626E-10
  -2.50499994E-02   1.29251165E-10
  -2.50000004E-02   1.42453688E-10
  -2.49499995E-02   1.55678651E-10
  -2.49000005E-02   1.68921904E-10
  -2.48499997E-02   1.82199547E-10
  -2.48000007E-02   1.95531161E-10
  -2.47499999E-02   2.08921380E-10
  -2.47000009E-02   2.22346253E-10
  -2.46500000E-02   2.35749614E-10
  -2.45999992E-02   2.49051835E-10
  -2.45500002E-02   2.62166983E-10
  -2.44999994E-02   2.75021811E-10
  -2.44500004E-02   2.87568080E-10
  -2.43999995E-02   2.99783143E-10
  -2.43500005E-02   3.11659920E-10
  -2.42999997E-02   3.23191057E-10
  -2.42500007E-02   3.34353323E-10
  -2.41999999E-02   3.45096784E-10
  -2.41500009E-02   3.55342950E-10
  -2.41000000E-02   3.64992925E-10
  -2.40499992E-02   3.73943432E-10
  -2.40000002E-02   3.82105486E-10
  -2.39499994E-02   3.89416804E-10
  -2.39000004E-02   3.95842081E-10
  -2.38499995E-02   4.01360639E-10
  -2.38000005E-02   4.05946970E-10
  -2.37499997E-02   4.09552642E-10
  -2.37000007E-02   4.12096884E-10
  -2.36499999E-02   4.13468398E-10
  -2.36000009E-02   4.13539120E-10
  -2.35500000E-02   4.12184176E-10
  -2.34999992E-02   4.09302203E-10
  -2.34500002E-02   4.04825978E-10
  -2.33999994E-02   3.98718197E-10
  -2.33500004E-02   3.90951271E-10
  -2.32999995E-02   3.81479487E-10
  -2.32500006E-02   3.70217135E-10
  -2.31999997E-02   3.57031987E-10
  -2.31500007E-02   3.41759065E-10
  -2.30999999E-02   3.24228588E-10
  -2.30500009E-02   3.04297143E-10
  -2.30000000E-02   2.81869694E-10
  -2.29499992E-02   2.56902943E-10
  -2.29000002E-02   2.29386551E-10
  -2.28499994E-02   1.99309444E-10
  -2.28000004E-02   1.66622022E-10
  -2.27499995E-02   1.31212832E-10
  -2.27000006E-02   9.29121155E-11
  -2.26499997E-02   5.15212872E-11
  -2.26000007E-02   6.85798597E-12
  -2.25499999E-02  -4.12042726E-11
  -2.25000009E-02  -9.27198596E-11
  -2.24500000E-02  -1.47685558E-10
  -2.23999992E-02  -2.06079209E-10
  -2.23500002E-02  -2.67907668E-10
  -2.22999994E-02  -3.33244599E-10
  -2.22500004E-02  -4.02240491E-10
  -2.21999995E-02  -4.75099571E-10
  -2.21500006E-02  -5.52029589E-10
  -2.20999997E-02  -6.33185782E-10
  -2.20500007E-02  -7.18635262E-10
  -2.19999999E-02  -8.08358991E-10
  -2.19500009E-02  -9.02290298E-10
  -2.19000001E-02  -1.00037478E-09
  -2.18499992E-02  -1.10262166E-09
  -2.18000002E-02  -1.20912735E-09
  -2.17499994E-02  -1.32005862E-09
  -2.17000004E-02  -1.43560397E-09
  -2.16499995E-02  -1.55591151E-09
  -2.16000006E-02  -1.68104253E-09
  -2.15499997E-02  -1.81096016E-09
  -2.15000007E-02  -1.94556149E-09
  -2.14499999E-02  -2.08474127E-09
  -2.14000009E-02  -2.22845675E-09
  -2.13500001E-02  -2.37676701E-09
  -2.12999992E-02  -2.52981969E-09
  -2.12500002E-02  -2.68779687E-09
  -2.11999994E-02  -2.85084112E-09
  -2.11500004E-02  -3.01899683E-09
  -2.10999995E-02  -3.19219096E-09
  -2.10500006E-02  -3.37026251E-09
  -2.09999997E-02  -3.55303231E-09
  -2.09500007E-02  -3.74038134E-09
  -2.08999999E-02  -3.93230559E-09
  -2.08500009E-02  -4.12892209E-09
  -2.08000001E-02  -4.33041958E-09
  -2.07499992E-02  -4.53697302E-09
  -2.07000002E-02  -4.74866368E-09
  -2.06499994E-02  -4.96544272E-09
  -2.06000004E-02  -5.18714849E-09
  -2.05499995E-02  -5.41357714E-09
  -2.05000006E-02  -5.64457370E-09
  -2.04499997E-02  -5.88010440E-09
  -2.04000007E-02  -6.12027362E-09
  -2.03499999E-02  -6.36528963E-09
  -2.03000009E-02  -6.61538069E-09
  -2.02500001E-02  -6.87070711E-09
  -2.01999992E-02  -7.13130133E-09
  -2.01500002E-02  -7.39706518E-09
  -2.00999994E-02  -7.66783348E-09
  -2.00500004E-02  -7.94346455E-09
  -1.99999996E-02  -8.22393442E-09
  -1.99500006E-02  -8.50936832E-09
  -1.98999997E-02  -8.80002293E-09
  -1.98500007E-02  -9.09621178E-09
  -1.97999999E-02  -9.39820843E-09
  -1.97500009E-02  -9.70618075E-09
  -1.97000001E-02  -1.00201714E-08
  -1.96499992E-02  -1.03401492E-08
  -1.96000002E-02  -1.06660991E-08
  -1.95499994E-02  -1.09981100E-08
  -1.95000004E-02  -1.13364234E-08
  -1.94499996E-02  -1.16814309E-08
  -1.94000006E-02  -1.20336079E-08
  -1.93499997E-02  -1.23934187E-08
  -1.93000007E-02  -1.27612267E-08
  -1.92499999E-02  -1.31372726E-08
  -1.92000009E-02  -1.35217055E-08
  -1.91500001E-02  -1.39146694E-08
  -1.90999992E-02  -1.43164032E-08
  -1.90500002E-02  -1.47273083E-08
  -1.89999994E-02  -1.51479522E-08
  -1.89500004E-02  -1.55790048E-08
  -1.88999996E-02  -1.60211435E-08
  -1.88500006E-02  -1.64749761E-08
  -1.87999997E-02  -1.69409891E-08
  -1.87500007E-02  -1.74195574E-08
  -1.86999999E-02  -1.79110184E-08
  -1.86500009E-02  -1.84157773E-08
  -1.86000001E-02  -1.89343901E-08
  -1.85499992E-02  -1.94676026E-08
  -1.85000002E-02  -2.00162997E-08
  -1.84499994E-02  -2.05814210E-08
  -1.84000004E-02  -2.11638564E-08
  -1.83499996E-02  -2.17643699E-08
  -1.83000006E-02  -2.23836079E-08
  -1.82499997E-02  -2.30221389E-08
  -1.82000007E-02  -2.36805526E-08
  -1.81499999E-02  -2.43595455E-08
  -1.81000009E-02  -2.50599523E-08
  -1.80500001E-02  -2.57827555E-08
  -1.79999992E-02  -2.65290296E-08
  -1.79500002E-02  -2.72998459E-08
  -1.78999994E-02  -2.80961796E-08
  -1.78500004E-02  -2.89188762E-08
  -1.77999996E-02  -2.97687048E-08
  -1.77500006E-02  -3.06464294E-08
  -1.76999997E-02  -3.15528830E-08
  -1.76500008E-02  -3.24890301E-08
  -1.75999999E-02  -3.34559651E-08
  -1.75500009E-02  -3.44548710E-08
  -1.75000001E-02  -3.54869663E-08
  -1.74499992E-02  -3.65533985E-08
  -1.74000002E-02  -3.76551981E-08
  -1.73499994E-02  -3.87932673E-08
  -1.73000004E-02  -3.99684694E-08
  -1.72499996E-02  -4.11817034E-08
  -1.72000006E-02  -4.24339746E-08
  -1.71499997E-02  -4.37264198E-08
  -1.71000008E-02  -4.50602684E-08
  -1.70499999E-02  -4.64367744E-08
  -1.70000009E-02  -4.78571494E-08
  -1.69500001E-02  -4.93225016E-08
  -1.68999992E-02  -5.08338225E-08
  -1.68500002E-02  -5.23920427E-08
  -1.67999994E-02  -5.39980647E-08
  -1.67500004E-02  -5.56528583E-08
  -1.66999996E-02  -5.73575250E-08
  -1.66500006E-02  -5.91133293E-08
  -1.65999997E-02  -6.09215931E-08
  -1.65500008E-02  -6.27836059E-08
  -1.64999999E-02  -6.47005933E-08
  -1.64500009E-02  -6.66736568E-08
  -1.64000001E-02  -6.87037627E-08
  -1.63499992E-02  -7.07918630E-08
  -1.63000003E-02  -7.29388958E-08
  -1.62499994E-02  -7.51459339E-08
  -1.62000004E-02  -7.74141498E-08
  -1.61499996E-02  -7.97448720E-08
  -1.61000006E-02  -8.21394579E-08
  -1.60499997E-02  -8.45992716E-08
  -1.60000008E-02  -8.71255565E-08
  -1.59499999E-02  -8.97194070E-08
  -1.59000009E-02  -9.23819101E-08
  -1.58500001E-02  -9.51141388E-08
  -1.57999992E-02  -9.79171801E-08
  -1.57500003E-02  -1.00792278E-07
  -1.56999994E-02  -1.03740824E-07
  -1.56500004E-02  -1.06764290E-07
  -1.55999996E-02  -1.09864182E-07
  -1.55499997E-02  -1.13041963E-07
  -1.54999997E-02  -1.16299027E-07
  -1.54499998E-02  -1.19636695E-07
  -1.53999999E-02  -1.23056253E-07
  -1.53500000E-02  -1.26559044E-07
  -1.53000001E-02  -1.30146503E-07
  -1.52500002E-02  -1.33820222E-07
  -1.52000003E-02  -1.37582035E-07
  -1.51500003E-02  -1.41433759E-07
  -1.51000004E-02  -1.45377200E-07
  -1.50499996E-02  -1.49414078E-07
  -1.49999997E-02  -1.53546139E-07
  -1.49499997E-02  -1.57775034E-07
  -1.48999998E-02  -1.62102538E-07
  -1.48499999E-02  -1.66530484E-07
  -1.48000000E-02  -1.71060933E-07
  -1.47500001E-02  -1.75696044E-07
  -1.47000002E-02  -1.80438292E-07
  -1.46500003E-02  -1.85290105E-07
  -1.46000003E-02  -1.90253942E-07
  -1.45500004E-02  -1.95332120E-07
  -1.44999996E-02  -2.00526884E-07
  -1.44499997E-02  -2.05840536E-07
  -1.43999998E-02  -2.11275577E-07
  -1.43499998E-02  -2.16834636E-07
  -1.42999999E-02  -2.22520498E-07
  -1.42500000E-02  -2.28336248E-07
  -1.42000001E-02  -2.34285011E-07
  -1.41500002E-02  -2.40370099E-07
  -1.41000003E-02  -2.46594709E-07
  -1.40500003E-02  -2.52961968E-07
  -1.40000004E-02  -2.59474973E-07
  -1.39499996E-02  -2.66136851E-07
  -1.38999997E-02  -2.72951013E-07
  -1.38499998E-02  -2.79921153E-07
  -1.37999998E-02  -2.87051222E-07
  -1.37499999E-02  -2.94345170E-07
  -1.37000000E-02  -3.01807120E-07
  -1.36500001E-02  -3.09441305E-07
  -1.36000002E-02  -3.17252045E-07
  -1.35500003E-02  -3.25243434E-07
  -1.35000004E-02  -3.33419564E-07
  -1.34500004E-02  -3.41784556E-07
  -1.33999996E-02  -3.50343015E-07
  -1.33499997E-02  -3.59099857E-07
  -1.32999998E-02  -3.68060029E-07
  -1.32499998E-02  -3.77228645E-07
  -1.31999999E-02  -3.86610907E-07
  -1.31500000E-02  -3.96211902E-07
  -1.31000001E-02  -4.06036975E-07
  -1.30500002E-02  -4.16091410E-07
  -1.30000003E-02  -4.26380552E-07
  -1.29500004E-02  -4.36909886E-07
  -1.29000004E-02  -4.47685380E-07
  -1.28499996E-02  -4.58713231E-07
  -1.27999997E-02  -4.69999804E-07
  -1.27499998E-02  -4.81551410E-07
  -1.26999998E-02  -4.93374216E-07
  -1.26499999E-02  -5.05474475E-07
  -1.26000000E-02  -5.17858723E-07
  -1.25500001E-02  -5.30533384E-07
  -1.25000002E-02  -5.43504939E-07
  -1.24500003E-02  -5.56780321E-07
  -1.24000004E-02  -5.70366979E-07
  -1.23500004E-02  -5.84272641E-07
  -1.22999996E-02  -5.98505267E-07
  -1.22499997E-02  -6.13072586E-07
  -1.21999998E-02  -6.27982104E-07
  -1.21499998E-02  -6.43241265E-07
  -1.20999999E-02  -6.58857573E-07
  -1.20500000E-02  -6.74838702E-07
  -1.20000001E-02  -6.91192326E-07
  -1.19500002E-02  -7.07926461E-07
  -1.19000003E-02  -7.25049347E-07
  -1.18500004E-02  -7.42569739E-07
  -1.18000004E-02  -7.60496960E-07
  -1.17499996E-02  -7.78840217E-07
  -1.16999997E-02  -7.97608834E-07
  -1.16499998E-02  -8.16812019E-07
  -1.15999999E-02  -8.36459549E-07
  -1.15499999E-02  -8.56561485E-07
  -1.15000000E-02  -8.77128059E-07
  -1.14500001E-02  -8.98169333E-07
  -1.14000002E-02  -9.19694912E-07
  -1.13500003E-02  -9.41714632E-07
  -1.13000004E-02  -9.64238438E-07
  -1.12500004E-02  -9.87275484E-07
  -1.11999996E-02  -1.01083526E-06
  -1.11499997E-02  -1.03492675E-06
  -1.10999998E-02  -1.05955962E-06
  -1.10499999E-02  -1.08474501E-06
  -1.09999999E-02  -1.11049428E-06
  -1.09500000E-02  -1.13681995E-06
  -1.09000001E-02  -1.16373462E-06
  -1.08500002E-02  -1.19125161E-06
  -1.08000003E-02  -1.21938433E-06
  -1.07500004E-02  -1.24814585E-06
  -1.07000005E-02  -1.27754879E-06
  -1.06499996E-02  -1.30760566E-06
  -1.05999997E-02  -1.33832896E-06
  -1.05499998E-02  -1.36973006E-06
  -1.04999999E-02  -1.40182090E-06
  -1.04499999E-02  -1.43461284E-06
  -1.04000000E-02  -1.46811749E-06
  -1.03500001E-02  -1.50234678E-06
  -1.03000002E-02  -1.53731253E-06
  -1.02500003E-02  -1.57302748E-06
  -1.02000004E-02  -1.60950481E-06
  -1.01500005E-02  -1.64675839E-06
  -1.00999996E-02  -1.68480324E-06
  -1.00499997E-02  -1.72365515E-06
  -9.99999978E-03  -1.76333049E-06
  -9.94999986E-03  -1.80384541E-06
  -9.89999995E-03  -1.84521605E-06
  -9.85000003E-03  -1.88745764E-06
  -9.80000012E-03  -1.93058600E-06
  -9.75000020E-03  -1.97461600E-06
  -9.70000029E-03  -2.01956277E-06
  -9.65000037E-03  -2.06544087E-06
  -9.60000046E-03  -2.11226552E-06
  -9.54999961E-03  -2.16005265E-06
  -9.49999969E-03  -2.20881816E-06
  -9.44999978E-03  -2.25857730E-06
  -9.39999986E-03  -2.30934597E-06
  -9.34999995E-03  -2.36113988E-06
  -9.30000003E-03  -2.41397515E-06
  -9.25000012E-03  -2.46786794E-06
  -9.20000020E-03  -2.52283439E-06
  -9.15000029E-03  -2.57889019E-06
  -9.10000037E-03  -2.63605330E-06
  -9.05000046E-03  -2.69434190E-06
  -8.99999961E-03  -2.75377511E-06
  -8.94999970E-03  -2.81437087E-06
  -8.89999978E-03  -2.87614694E-06
  -8.84999987E-03  -2.93912171E-06
  -8.79999995E-03  -3.00331499E-06
  -8.75000004E-03  -3.06874699E-06
  -8.70000012E-03  -3.13543751E-06
  -8.65000021E-03  -3.20340541E-06
  -8.60000029E-03  -3.27267048E-06
  -8.55000038E-03  -3.34325182E-06
  -8.50000046E-03  -3.41516943E-06
  -8.44999962E-03  -3.48844264E-06
  -8.39999970E-03  -3.56308965E-06
  -8.34999979E-03  -3.63912818E-06
  -8.29999987E-03  -3.71657688E-06
  -8.24999996E-03  -3.79545645E-06
  -8.20000004E-03  -3.87578712E-06
  -8.15000013E-03  -3.95758934E-06
  -8.10000021E-03  -4.04088360E-06
  -8.05000030E-03  -4.12569079E-06
  -8.00000038E-03  -4.21203140E-06
  -7.95000046E-03  -4.29992679E-06
  -7.89999962E-03  -4.38939833E-06
  -7.84999970E-03  -4.48046785E-06
  -7.79999979E-03  -4.57315718E-06
  -7.74999987E-03  -4.66748861E-06
  -7.69999996E-03  -4.76348623E-06
  -7.65000004E-03  -4.86117506E-06
  -7.60000013E-03  -4.96057828E-06
  -7.55000021E-03  -5.06172000E-06
  -7.49999983E-03  -5.16462296E-06
  -7.44999992E-03  -5.26931308E-06
  -7.40000000E-03  -5.37581445E-06
  -7.35000009E-03  -5.48415028E-06
  -7.30000017E-03  -5.59434648E-06
  -7.24999979E-03  -5.70642533E-06
  -7.19999988E-03  -5.82041093E-06
  -7.14999996E-03  -5.93632922E-06
  -7.10000005E-03  -6.05420655E-06
  -7.05000013E-03  -6.17406658E-06
  -7.00000022E-03  -6.29593251E-06
  -6.94999984E-03  -6.41982888E-06
  -6.89999992E-03  -6.54578253E-06
  -6.85000001E-03  -6.67382074E-06
  -6.80000009E-03  -6.80397261E-06
  -6.75000018E-03  -6.93626498E-06
  -6.69999979E-03  -7.07072331E-06
  -6.64999988E-03  -7.20737717E-06
  -6.59999996E-03  -7.34625519E-06
  -6.55000005E-03  -7.48739012E-06
  -6.50000013E-03  -7.63080971E-06
  -6.45000022E-03  -7.77654350E-06
  -6.39999984E-03  -7.92461924E-06
  -6.34999992E-03  -8.07506967E-06
  -6.30000001E-03  -8.22792663E-06
  -6.25000009E-03  -8.38322194E-06
  -6.20000018E-03  -8.54099108E-06
  -6.14999980E-03  -8.70126223E-06
  -6.09999988E-03  -8.86406360E-06
  -6.04999997E-03  -9.02942975E-06
  -6.00000005E-03  -9.19739250E-06
  -5.95000014E-03  -9.36798278E-06
  -5.90000022E-03  -9.54123425E-06
  -5.84999984E-03  -9.71717782E-06
  -5.79999993E-03  -9.89584714E-06
  -5.75000001E-03  -1.00772777E-05
  -5.70000010E-03  -1.02615040E-05
  -5.65000018E-03  -1.04485625E-05
  -5.59999980E-03  -1.06384859E-05
  -5.54999989E-03  -1.08313079E-05
  -5.49999997E-03  -1.10270676E-05
  -5.45000006E-03  -1.12258049E-05
  -5.40000014E-03  -1.14275563E-05
  -5.35000023E-03  -1.16323599E-05
  -5.29999984E-03  -1.18402531E-05
  -5.24999993E-03  -1.20512768E-05
  -5.20000001E-03  -1.22654683E-05
  -5.15000010E-03  -1.24828730E-05
  -5.10000018E-03  -1.27035282E-05
  -5.04999980E-03  -1.29274758E-05
  -4.99999989E-03  -1.31547522E-05
  -4.94999997E-03  -1.33854001E-05
  -4.90000006E-03  -1.36194612E-05
  -4.85000014E-03  -1.38569776E-05
  -4.80000023E-03  -1.40979892E-05
  -4.74999985E-03  -1.43425341E-05
  -4.69999993E-03  -1.45906524E-05
  -4.65000002E-03  -1.48423851E-05
  -4.60000010E-03  -1.50977748E-05
  -4.55000019E-03  -1.53568690E-05
  -4.49999981E-03  -1.56197075E-05
  -4.44999989E-03  -1.58863386E-05
  -4.39999998E-03  -1.61568023E-05
  -4.35000006E-03  -1.64311550E-05
  -4.30000015E-03  -1.67094367E-05
  -4.25000023E-03  -1.69916984E-05
  -4.19999985E-03  -1.72779801E-05
  -4.14999994E-03  -1.75683326E-05
  -4.10000002E-03  -1.78628125E-05
  -4.05000011E-03  -1.81614651E-05
  -4.00000019E-03  -1.84643322E-05
  -3.94999981E-03  -1.87714631E-05
  -3.89999989E-03  -1.90829051E-05
  -3.84999998E-03  -1.93987089E-05
  -3.80000006E-03  -1.97189238E-05
  -3.74999992E-03  -2.00435989E-05
  -3.70000000E-03  -2.03727723E-05
  -3.65000009E-03  -2.07064986E-05
  -3.59999994E-03  -2.10448343E-05
  -3.55000002E-03  -2.13878302E-05
  -3.50000011E-03  -2.17355282E-05
  -3.44999996E-03  -2.20879774E-05
  -3.40000005E-03  -2.24452360E-05
  -3.34999990E-03  -2.28073586E-05
  -3.29999998E-03  -2.31743961E-05
  -3.25000007E-03  -2.35463958E-05
  -3.19999992E-03  -2.39234050E-05
  -3.15000000E-03  -2.43054837E-05
  -3.10000009E-03  -2.46926957E-05
  -3.04999994E-03  -2.50850990E-05
  -3.00000003E-03  -2.54827428E-05
  -2.95000011E-03  -2.58856708E-05
  -2.89999996E-03  -2.62939429E-05
  -2.85000005E-03  -2.67076175E-05
  -2.79999990E-03  -2.71267472E-05
  -2.74999999E-03  -2.75513921E-05
  -2.70000007E-03  -2.79815958E-05
  -2.64999992E-03  -2.84174184E-05
  -2.60000001E-03  -2.88589199E-05
  -2.55000009E-03  -2.93061639E-05
  -2.49999994E-03  -2.97592014E-05
  -2.45000003E-03  -3.02180833E-05
  -2.40000011E-03  -3.06828624E-05
  -2.34999997E-03  -3.11535950E-05
  -2.30000005E-03  -3.16303594E-05
  -2.24999990E-03  -3.21131956E-05
  -2.19999999E-03  -3.26021582E-05
  -2.15000007E-03  -3.30972944E-05
  -2.09999993E-03  -3.35986806E-05
  -2.05000001E-03  -3.41063787E-05
  -2.00000009E-03  -3.46204506E-05
  -1.94999995E-03  -3.51409471E-05
  -1.90000003E-03  -3.56679193E-05
  -1.85000000E-03  -3.62014362E-05
  -1.79999997E-03  -3.67415596E-05
  -1.75000005E-03  -3.72883624E-05
  -1.70000002E-03  -3.78419027E-05
  -1.64999999E-03  -3.84022278E-05
  -1.59999996E-03  -3.89693960E-05
  -1.55000004E-03  -3.95434836E-05
  -1.50000001E-03  -4.01245525E-05
  -1.44999998E-03  -4.07126536E-05
  -1.39999995E-03  -4.13078415E-05
  -1.35000004E-03  -4.19101707E-05
  -1.30000000E-03  -4.25197068E-05
  -1.24999997E-03  -4.31365261E-05
  -1.20000006E-03  -4.37606941E-05
  -1.15000003E-03  -4.43922581E-05
  -1.09999999E-03  -4.50312727E-05
  -1.04999996E-03  -4.56777998E-05
  -1.00000005E-03  -4.63319120E-05
  -9.50000016E-04  -4.69936786E-05
  -8.99999985E-04  -4.76631503E-05
  -8.50000011E-04  -4.83403892E-05
  -7.99999980E-04  -4.90254715E-05
  -7.50000007E-04  -4.97184628E-05
  -6.99999975E-04  -5.04194286E-05
  -6.50000002E-04  -5.11284306E-05
  -6.00000028E-04  -5.18455236E-05
  -5.49999997E-04  -5.25707692E-05
  -5.00000024E-04  -5.33042439E-05
  -4.49999992E-04  -5.40460060E-05
  -3.99999990E-04  -5.47961063E-05
  -3.49999988E-04  -5.55546285E-05
  -3.00000014E-04  -5.63216381E-05
  -2.50000012E-04  -5.70972043E-05
  -1.99999995E-04  -5.78813779E-05
  -1.50000007E-04  -5.86742026E-05
  -9.99999975E-05  -5.94757621E-05
  -4.99999987E-05  -6.02861219E-05
   0.00000000      -6.11053401E-05
   4.99999987E-05  -6.19334678E-05
   9.99999975E-05  -6.27705886E-05
   1.50000007E-04  -6.36167606E-05
   1.99999995E-04  -6.44720785E-05
   2.50000012E-04  -6.53366005E-05
   3.00000014E-04  -6.62103630E-05
   3.49999988E-04  -6.70934241E-05
   3.99999990E-04  -6.79858567E-05
   4.49999992E-04  -6.88877408E-05
   5.00000024E-04  -6.97991636E-05
   5.49999997E-04  -7.07201689E-05
   6.00000028E-04  -7.16508075E-05
   6.50000002E-04  -7.25911450E-05
   6.99999975E-04  -7.35412614E-05
   7.50000007E-04  -7.45012439E-05
   7.99999980E-04  -7.54711436E-05
   8.50000011E-04  -7.64509896E-05
   8.99999985E-04  -7.74408618E-05
   9.50000016E-04  -7.84408185E-05
   1.00000005E-03  -7.94509469E-05
   1.04999996E-03  -8.04712981E-05
   1.09999999E-03  -8.15019303E-05
   1.15000003E-03  -8.25429233E-05
   1.20000006E-03  -8.35943283E-05
   1.24999997E-03  -8.46561888E-05
   1.30000000E-03  -8.57285995E-05
   1.35000004E-03  -8.68116258E-05
   1.39999995E-03  -8.79053187E-05
   1.44999998E-03  -8.90097217E-05
   1.50000001E-03  -9.01249077E-05
   1.55000004E-03  -9.12509568E-05
   1.59999996E-03  -9.23879415E-05
   1.64999999E-03  -9.35359349E-05
   1.70000002E-03  -9.46949658E-05
   1.75000005E-03  -9.58650853E-05
   1.79999997E-03  -9.70463807E-05
   1.85000000E-03  -9.82389029E-05
   1.90000003E-03  -9.94427464E-05
   1.94999995E-03  -1.00657940E-04
   2.00000009E-03  -1.01884529E-04
   2.05000001E-03  -1.03122569E-04
   2.09999993E-03  -1.04372135E-04
   2.15000007E-03  -1.05633284E-04
   2.19999999E-03  -1.06906075E-04
   2.24999990E-03  -1.08190514E-04
   2.30000005E-03  -1.09486667E-04
   2.34999997E-03  -1.10794623E-04
   2.40000011E-03  -1.12114445E-04
   2.45000003E-03  -1.13446193E-04
   2.49999994E-03  -1.14789895E-04
   2.55000009E-03  -1.16145580E-04
   2.60000001E-03  -1.17513315E-04
   2.64999992E-03  -1.18893164E-04
   2.70000007E-03  -1.20285185E-04
   2.74999999E-03  -1.21689431E-04
   2.79999990E-03  -1.23105914E-04