  -3.99999991E-02   0.00000000    
  -3.99499983E-02   0.00000000    
  -3.99000011E-02   0.00000000    
  -3.98500003E-02   0.00000000    
  -3.97999994E-02  -3.86884134E-19
  -3.97499986E-02  -4.65551394E-18
  -3.97000015E-02  -2.89823804E-17
  -3.96500006E-02  -1.23824504E-16
  -3.95999998E-02  -4.06492276E-16
  -3.95499989E-02  -1.08866921E-15
  -3.95000018E-02  -2.46638312E-15
  -3.94500010E-02  -4.83873416E-15
  -3.94000001E-02  -8.35226240E-15
  -3.93499993E-02  -1.28294744E-14
  -3.92999984E-02  -1.77021433E-14
  -3.92500013E-02  -2.21787412E-14
  -3.92000005E-02  -2.56862809E-14
  -3.91499996E-02  -2.84492787E-14
  -3.90999988E-02  -3.18895911E-14
  -3.90500017E-02  -3.84848844E-14
  -3.90000008E-02  -5.09091636E-14
  -3.89500000E-02  -7.06669017E-14
  -3.88999991E-02  -9.68413582E-14
  -3.88499983E-02  -1.25745117E-13
  -3.88000011E-02  -1.51999859E-13
  -3.87500003E-02  -1.70906366E-13
  -3.86999995E-02  -1.81167649E-13
  -3.86499986E-02  -1.86523214E-13
  -3.86000015E-02  -1.95018155E-13
  -3.85500006E-02  -2.15572487E-13
  -3.84999998E-02  -2.52933769E-13
  -3.84499989E-02  -3.03323637E-13
  -3.84000018E-02  -3.53362820E-13
  -3.83500010E-02  -3.83752654E-13
  -3.83000001E-02  -3.76965630E-13
  -3.82499993E-02  -3.25853521E-13
  -3.81999984E-02  -2.38911972E-13
  -3.81500013E-02  -1.38828090E-13
  -3.81000005E-02  -5.37700919E-14
  -3.80499996E-02  -4.45715598E-15
  -3.79999988E-02   7.35926958E-15
  -3.79500017E-02   3.22583562E-15
  -3.79000008E-02   2.20413711E-14
  -3.78500000E-02   1.05323133E-13
  -3.77999991E-02   2.79643387E-13
  -3.77499983E-02   5.44293560E-13
  -3.77000012E-02   8.70591143E-13
  -3.76500003E-02   1.21419942E-12
  -3.75999995E-02   1.53556920E-12
  -3.75499986E-02   1.81925937E-12
  -3.75000015E-02   2.08283087E-12
  -3.74500006E-02   2.37052240E-12
  -3.73999998E-02   2.73389601E-12
  -3.73499990E-02   3.20766959E-12
  -3.73000018E-02   3.79117094E-12
  -3.72500010E-02   4.44333329E-12
  -3.72000001E-02   5.09322619E-12
  -3.71499993E-02   5.66165170E-12
  -3.70999984E-02   6.08525209E-12
  -3.70500013E-02   6.33450931E-12
  -3.70000005E-02   6.42058498E-12
  -3.69499996E-02   6.39083751E-12
  -3.68999988E-02   6.31628734E-12
  -3.68500017E-02   6.27466438E-12
  -3.68000008E-02   6.33096613E-12
  -3.67500000E-02   6.51635777E-12
  -3.66999991E-02   6.80809272E-12
  -3.66499983E-02   7.11747024E-12
  -3.66000012E-02   7.29605439E-12
  -3.65500003E-02   7.16785919E-12
  -3.64999995E-02   6.58502029E-12
  -3.64499986E-02   5.48975015E-12
  -3.64000015E-02   3.95388279E-12
  -3.63500006E-02   2.16775643E-12
  -3.62999998E-02   3.67218273E-13
  -3.62499990E-02  -1.28264803E-12
  -3.62000018E-02  -2.79829545E-12
  -3.61500010E-02  -4.42096880E-12
  -3.61000001E-02  -6.54765651E-12
  -3.60499993E-02  -9.55287151E-12
  -3.59999985E-02  -1.35654829E-11
  -3.59500013E-02  -1.83085248E-11
  -3.59000005E-02  -2.31066399E-11
  -3.58499996E-02  -2.71044541E-11
  -3.57999988E-02  -2.96384202E-11
  -3.57500017E-02  -3.06089078E-11
  -3.57000008E-02  -3.06611334E-11
  -3.56500000E-02  -3.10362049E-11
  -3.55999991E-02  -3.30906101E-11
  -3.55499983E-02  -3.76513681E-11
  -3.55000012E-02  -4.44945157E-11
  -3.54500003E-02  -5.22336618E-11
  -3.53999995E-02  -5.87575405E-11
  -3.53499986E-02  -6.21057372E-11
  -3.53000015E-02  -6.14286122E-11
  -3.52500007E-02  -5.75666875E-11
  -3.51999998E-02  -5.28895434E-11
  -3.51499990E-02  -5.03405789E-11
  -3.51000018E-02  -5.20233058E-11
  -3.50500010E-02  -5.79546133E-11
  -3.50000001E-02  -6.56370305E-11
  -3.49499993E-02  -7.08067840E-11
  -3.48999985E-02  -6.91907850E-11
  -3.48500013E-02  -5.85760190E-11
  -3.48000005E-02  -4.02236126E-11
  -3.47499996E-02  -1.88247282E-11
  -3.46999988E-02  -7.85784849E-13
  -3.46500017E-02   8.57950256E-12
  -3.46000008E-02   7.74698795E-12
  -3.45500000E-02   2.35290167E-13
  -3.44999991E-02  -6.40639278E-12
  -3.44499983E-02  -3.70730443E-12
  -3.44000012E-02   1.37378268E-11
  -3.43500003E-02   4.52244076E-11
  -3.42999995E-02   8.34505104E-11
  -3.42499986E-02   1.17173646E-10
  -3.42000015E-02   1.36143069E-10
  -3.41500007E-02   1.36207948E-10
  -3.40999998E-02   1.22131069E-10
  -3.40499990E-02   1.06426423E-10
  -3.40000018E-02   1.04255320E-10
  -3.39500010E-02   1.26342894E-10
  -3.39000002E-02   1.73097092E-10
  -3.38499993E-02   2.32940417E-10
  -3.37999985E-02   2.86203200E-10
  -3.37500013E-02   3.13402887E-10
  -3.37000005E-02   3.04464232E-10
  -3.36499996E-02   2.64557209E-10
  -3.35999988E-02   2.13335460E-10
  -3.35500017E-02   1.77154680E-10
  -3.35000008E-02   1.77183365E-10
  -3.34500000E-02   2.18640300E-10
  -3.33999991E-02   2.86458662E-10
  -3.33499983E-02   3.50194346E-10
  -3.33000012E-02   3.76869452E-10
  -3.32500003E-02   3.46477402E-10
  -3.31999995E-02   2.63008559E-10
  -3.31499986E-02   1.55211316E-10
  -3.31000015E-02   6.55945367E-11
  -3.30500007E-02   3.16475145E-11
  -3.29999998E-02   6.74101469E-11
  -3.29499990E-02   1.54228144E-10
  -3.29000019E-02   2.46075216E-10
  -3.28500010E-02   2.88432639E-10
  -3.28000002E-02   2.43144588E-10
  -3.27499993E-02   1.08042832E-10
  -3.26999985E-02  -7.85087689E-11
  -3.26500013E-02  -2.51802607E-10
  -3.26000005E-02  -3.48803708E-10
  -3.25499997E-02  -3.38028161E-10
  -3.24999988E-02  -2.37272174E-10
  -3.24500017E-02  -1.09609356E-10
  -3.24000008E-02  -3.74964816E-11
  -3.23500000E-02  -8.52171042E-11
  -3.22999991E-02  -2.66401123E-10
  -3.22499983E-02  -5.32517308E-10
  -3.22000012E-02  -7.89760923E-10
  -3.21500003E-02  -9.38969680E-10
  -3.20999995E-02  -9.21785537E-10
  -3.20499986E-02  -7.51790019E-10
  -3.20000015E-02  -5.14524812E-10
  -3.19500007E-02  -3.33595318E-10
  -3.18999998E-02  -3.15845350E-10
  -3.18499990E-02  -4.99622510E-10
  -3.18000019E-02  -8.30788327E-10
  -3.17500010E-02  -1.18015797E-09
  -3.17000002E-02  -1.39767942E-09
  -3.16499993E-02  -1.38094314E-09
  -3.15999985E-02  -1.12697152E-09
  -3.15500014E-02  -7.41534278E-10
  -3.15000005E-02  -3.98110184E-10
  -3.14499997E-02  -2.61682481E-10
  -3.13999988E-02  -4.10347367E-10
  -3.13500017E-02  -7.91418708E-10
  -3.13000008E-02  -1.23543242E-09
  -3.12500000E-02  -1.52610280E-09
  -3.11999992E-02  -1.49783475E-09
  -3.11500002E-02  -1.11722565E-09
  -3.10999993E-02  -5.09097098E-10
  -3.10500003E-02   8.94240931E-11
  -3.09999995E-02   4.30800784E-10
  -3.09500005E-02   3.71538522E-10
  -3.08999997E-02  -5.33720360E-11
  -3.08500007E-02  -6.33785635E-10
  -3.07999998E-02  -1.06966858E-09
  -3.07500008E-02  -1.10444320E-09
  -3.07000000E-02  -6.47609744E-10
  -3.06499992E-02   1.71380826E-10
  -3.06000002E-02   1.04804698E-09
  -3.05499993E-02   1.63260006E-09
  -3.05000003E-02   1.68987324E-09
  -3.04499995E-02   1.21692301E-09
  -3.04000005E-02   4.60474797E-10
  -3.03499997E-02  -1.80880019E-10
  -3.03000007E-02  -3.32094269E-10
  -3.02499998E-02   1.81725468E-10
  -3.02000009E-02   1.23967614E-09
  -3.01500000E-02   2.46038256E-09
  -3.00999992E-02   3.36064887E-09
  -3.00500002E-02   3.57188834E-09
  -2.99999993E-02   3.01758818E-09
  -2.99500003E-02   1.96684624E-09
  -2.98999995E-02   9.31134170E-10
  -2.98500005E-02   4.42165249E-10
  -2.97999997E-02   8.06396228E-10
  -2.97500007E-02   1.94858774E-09
  -2.96999998E-02   3.42256312E-09
  -2.96500009E-02   4.59459493E-09
  -2.96000000E-02   4.92508878E-09
  -2.95499992E-02   4.22405932E-09
  -2.95000002E-02   2.76042522E-09
  -2.94499993E-02   1.16560828E-09
  -2.94000003E-02   1.63618077E-10
  -2.93499995E-02   2.42088100E-10
  -2.93000005E-02   1.41287959E-09
  -2.92499997E-02   3.17820636E-09
  -2.92000007E-02   4.72997463E-09
  -2.91499998E-02   5.30381650E-09
  -2.91000009E-02   4.53327864E-09
  -2.90500000E-02   2.64073519E-09
  -2.89999992E-02   3.67722020E-10
  -2.89500002E-02  -1.33778288E-09
  -2.88999993E-02  -1.74643167E-09
  -2.88500004E-02  -6.95144942E-10
  -2.87999995E-02   1.30718614E-09
  -2.87500005E-02   3.27787353E-09
  -2.86999997E-02   4.18765156E-09
  -2.86500007E-02   3.43248141E-09
  -2.85999998E-02   1.13502874E-09
  -2.85500009E-02  -1.87210181E-09
  -2.85000000E-02  -4.39057635E-09
  -2.84499992E-02  -5.38690070E-09
  -2.84000002E-02  -4.47513893E-09
  -2.83499993E-02  -2.12737339E-09
  -2.83000004E-02   4.98857733E-10
  -2.82499995E-02   2.05655026E-09
  -2.82000005E-02   1.61737668E-09
  -2.81499997E-02  -8.81466400E-10
  -2.81000007E-02  -4.56480098E-09
  -2.80499998E-02  -7.97322208E-09
  -2.80000009E-02  -9.70185177E-09
  -2.79500000E-02  -9.04516018E-09
  -2.78999992E-02  -6.35260466E-09
  -2.78500002E-02  -2.91811819E-09
  -2.77999993E-02  -4.31687130E-10
  -2.77500004E-02  -2.23322208E-10
  -2.76999995E-02  -2.63576361E-09
  -2.76500005E-02  -6.81919854E-09
  -2.75999997E-02  -1.10617888E-08
  -2.75500007E-02  -1.35298812E-08
  -2.74999999E-02  -1.30984770E-08
  -2.74500009E-02  -9.89653426E-09
  -2.74000000E-02  -5.30496491E-09
  -2.73499992E-02  -1.38338496E-09
  -2.73000002E-02   3.83314665E-11
  -2.72499993E-02  -1.79595705E-09
  -2.72000004E-02  -6.17705931E-09
  -2.71499995E-02  -1.11897052E-08
  -2.71000005E-02  -1.45327421E-08
  -2.70499997E-02  -1.45505483E-08
  -2.70000007E-02  -1.10144880E-08
  -2.69499999E-02  -5.28752109E-09
  -2.69000009E-02   2.29287436E-10
  -2.68500000E-02   3.14656212E-09
  -2.67999992E-02   2.17539942E-09
  -2.67500002E-02  -2.23909202E-09
  -2.66999993E-02  -8.04693734E-09
  -2.66500004E-02  -1.24579946E-08
  -2.65999995E-02  -1.31791200E-08
  -2.65500005E-02  -9.47636813E-09
  -2.64999997E-02  -2.57216182E-09
  -2.64500007E-02   4.82996487E-09
  -2.63999999E-02   9.71213598E-09
  -2.63500009E-02   1.00979349E-08
  -2.63000000E-02   5.98903460E-09
  -2.62499992E-02  -5.59069957E-10
  -2.62000002E-02  -6.29027674E-09
  -2.61499994E-02  -8.17887802E-09
  -2.61000004E-02  -4.81142148E-09
  -2.60499995E-02   2.90931390E-09
  -2.60000005E-02   1.20833770E-08
  -2.59499997E-02   1.90499705E-08
  -2.59000007E-02   2.10153033E-08
  -2.58499999E-02   1.73489703E-08
  -2.58000009E-02   9.94911176E-09
  -2.57500000E-02   2.47626497E-09
  -2.56999992E-02  -1.23908939E-09
  -2.56500002E-02   1.07508225E-09
  -2.55999994E-02   9.04518949E-09
  -2.55500004E-02   1.97211403E-08
  -2.54999995E-02   2.88122717E-08
  -2.54500005E-02   3.25731122E-08
  -2.53999997E-02   2.95097493E-08
  -2.53500007E-02   2.11293116E-08
  -2.52999999E-02   1.13603935E-08
  -2.52500009E-02   4.85977347E-09
  -2.52000000E-02   4.93168972E-09
  -2.51499992E-02   1.19859953E-08
  -2.51000002E-02   2.32500064E-08
  -2.50499994E-02   3.39072272E-08
  -2.50000004E-02   3.91977011E-08
  -2.49499995E-02   3.65649164E-08
  -2.49000005E-02   2.68822546E-08
  -2.48499997E-02   1.41746286E-08
  -2.48000007E-02   3.91034671E-09
  -2.47499999E-02   5.85556159E-10
  -2.47000009E-02   5.66648151E-09
  -2.46500000E-02   1.68285581E-08
  -2.45999992E-02   2.88778068E-08
  -2.45500002E-02   3.59943613E-08
  -2.44999994E-02   3.43306148E-08
  -2.44500004E-02   2.38055726E-08
  -2.43999995E-02   8.26172819E-09
  -2.43500005E-02  -6.13853057E-09
  -2.42999997E-02  -1.36113556E-08
  -2.42500007E-02  -1.13649765E-08
  -2.41999999E-02  -9.49654577E-10
  -2.41500009E-02   1.23032375E-08
  -2.41000000E-02   2.15608900E-08
  -2.40499992E-02   2.15161062E-08
  -2.40000002E-02   1.08241371E-08
  -2.39499994E-02  -7.16451698E-09
  -2.39000004E-02  -2.57574424E-08
  -2.38499995E-02  -3.78159086E-08
  -2.38000005E-02  -3.89392483E-08
  -2.37499997E-02  -2.95166824E-08
  -2.37000007E-02  -1.46910129E-08
  -2.36499999E-02  -2.18749308E-09
  -2.36000009E-02   1.08124720E-09
  -2.35500000E-02  -7.85318388E-09
  -2.34999992E-02  -2.65601674E-08
  -2.34500002E-02  -4.81345701E-08
  -2.33999994E-02  -6.41557065E-08
  -2.33500004E-02  -6.84127812E-08
  -2.32999995E-02  -5.97477552E-08
  -2.32500006E-02  -4.27145856E-08
  -2.31999997E-02  -2.56956607E-08
  -2.31500007E-02  -1.72467161E-08
  -2.30999999E-02  -2.22580407E-08
  -2.30500009E-02  -3.96480608E-08
  -2.30000000E-02  -6.26672971E-08
  -2.29499992E-02  -8.17511250E-08
  -2.29000002E-02  -8.87152680E-08
  -2.28499994E-02  -8.04520042E-08
  -2.28000004E-02  -6.04570829E-08
  -2.27499995E-02  -3.74425824E-08
  -2.27000006E-02  -2.15758309E-08
  -2.26499997E-02  -1.99631689E-08
  -2.26000007E-02  -3.33808821E-08
  -2.25499999E-02  -5.57517268E-08
  -2.25000009E-02  -7.66769830E-08
  -2.24500000E-02  -8.59738520E-08
  -2.23999992E-02  -7.82409870E-08
  -2.23500002E-02  -5.54084814E-08
  -2.22999994E-02  -2.60757353E-08
  -2.22500004E-02  -1.84627724E-09
  -2.21999995E-02   7.78080178E-09
  -2.21500006E-02  -2.84868684E-10
  -2.20999997E-02  -2.11726885E-08
  -2.20500007E-02  -4.40191670E-08
  -2.19999999E-02  -5.66692684E-08
  -2.19500009E-02  -5.10801925E-08
  -2.19000001E-02  -2.70287259E-08
  -2.18499992E-02   7.58045005E-09
  -2.18000002E-02   4.00317539E-08
  -2.17499994E-02   5.83514250E-08
  -2.17000004E-02   5.66700891E-08
  -2.16499995E-02   3.79918923E-08
  -2.16000006E-02   1.30653266E-08
  -2.15499997E-02  -4.23876001E-09
  -2.15000007E-02  -3.06388137E-09
  -2.14499999E-02   1.94865493E-08
  -2.14000009E-02   5.68365763E-08
  -2.13500001E-02   9.56207913E-08
  -2.12999992E-02   1.21469071E-07
  -2.12500002E-02   1.25384588E-07
  -2.11999994E-02   1.07878705E-07
  -2.11500004E-02   7.89590757E-08
  -2.10999995E-02   5.38745262E-08
  -2.10500006E-02   4.64142431E-08
  -2.09999997E-02   6.26965999E-08
  -2.09500007E-02   9.82350201E-08
  -2.08999999E-02   1.39671243E-07
  -2.08500009E-02   1.70513374E-07
  -2.08000001E-02   1.78410033E-07
  -2.07499992E-02   1.60746495E-07
  -2.07000002E-02   1.26022769E-07
  -2.06499994E-02   9.02977035E-08
  -2.06000004E-02   7.01727600E-08
  -2.05499995E-02   7.53698828E-08
  -2.05000006E-02   1.04210528E-07
  -2.04499997E-02   1.44084268E-07
  -2.04000007E-02   1.76813387E-07
  -2.03499999E-02   1.86630260E-07
  -2.03000009E-02   1.67264332E-07
  -2.02500001E-02   1.24952734E-07
  -2.01999992E-02   7.59377485E-08
  -2.01500002E-02   3.94443731E-08
  -2.00999994E-02   2.91722930E-08
  -2.00500004E-02   4.70687240E-08
  -1.99999996E-02   8.22128783E-08
  -1.99500006E-02   1.15421905E-07
  -1.98999997E-02   1.27646572E-07
  -1.98500007E-02   1.08489822E-07
  -1.97999999E-02   6.10469826E-08
  -1.97500009E-02   8.27492019E-10
  -1.97000001E-02  -5.08871558E-08
  -1.96499992E-02  -7.64019106E-08
  -1.96000002E-02  -6.95617004E-08
  -1.95499994E-02  -3.87193957E-08
  -1.95000004E-02  -3.28817551E-09
  -1.94499996E-02   1.47164547E-08
  -1.94000006E-02   4.73717565E-10
  -1.93499997E-02  -4.68512340E-08
  -1.93000007E-02  -1.13414195E-07
  -1.92499999E-02  -1.76530335E-07
  -1.92000009E-02  -2.14570477E-07
  -1.91500001E-02  -2.16579949E-07
  -1.90999992E-02  -1.87322954E-07
  -1.90500002E-02  -1.45412884E-07
  -1.89999994E-02  -1.15227650E-07
  -1.89500004E-02  -1.16097780E-07
  -1.88999996E-02  -1.53539276E-07
  -1.88500006E-02  -2.16483272E-07
  -1.87999997E-02  -2.81853318E-07
  -1.87500007E-02  -3.24586921E-07
  -1.86999999E-02  -3.28733762E-07
  -1.86500009E-02  -2.94698708E-07
  -1.86000001E-02  -2.39326567E-07
  -1.85499992E-02  -1.88658021E-07
  -1.85000002E-02  -1.66453219E-07
  -1.84499994E-02  -1.83523639E-07
  -1.84000004E-02  -2.32645760E-07
  -1.83499996E-02  -2.91424413E-07
  -1.83000006E-02  -3.31970398E-07
  -1.82499997E-02  -3.33199836E-07
  -1.82000007E-02  -2.90316677E-07
  -1.81499999E-02  -2.17203208E-07
  -1.81000009E-02  -1.40532450E-07
  -1.80500001E-02  -8.80862387E-08
  -1.79999992E-02  -7.63875363E-08
  -1.79500002E-02  -1.03151450E-07
  -1.78999994E-02  -1.47999813E-07
  -1.78500004E-02  -1.81256425E-07
  -1.77999996E-02  -1.77036540E-07
  -1.77500006E-02  -1.24868635E-07
  -1.76999997E-02  -3.46419036E-08
  -1.76500008E-02   6.74300011E-08
  -1.75999999E-02   1.50172909E-07
  -1.75500009E-02   1.91201551E-07
  -1.75000001E-02   1.86962851E-07
  -1.74499992E-02   1.54544281E-07
  -1.74000002E-02   1.24316387E-07
  -1.73499994E-02   1.26548130E-07
  -1.73000004E-02   1.77866596E-07
  -1.72499996E-02   2.73585329E-07
  -1.72000006E-02   3.89405841E-07
  -1.71499997E-02   4.91866899E-07
  -1.71000008E-02   5.53016150E-07
  -1.70499999E-02   5.62829086E-07
  -1.70000009E-02   5.33815523E-07
  -1.69500001E-02   4.95652444E-07
  -1.68999992E-02   4.82091309E-07
  -1.68500002E-02   5.15866020E-07
  -1.67999994E-02   5.98292843E-07
  -1.67500004E-02   7.08249217E-07
  -1.66999996E-02   8.11117161E-07
  -1.66500006E-02   8.73848023E-07
  -1.65999997E-02   8.79525203E-07
  -1.65500008E-02   8.34936372E-07
  -1.64999999E-02   7.67705444E-07
  -1.64500009E-02   7.14122734E-07
  -1.64000001E-02   7.02965906E-07
  -1.63499992E-02   7.42475208E-07
  -1.63000003E-02   8.16297131E-07
  -1.62499994E-02   8.90306978E-07
  -1.62000004E-02   9.27423741E-07
  -1.61499996E-02   9.03909267E-07
  -1.61000006E-02   8.19924480E-07
  -1.60499997E-02   6.99583381E-07
  -1.60000008E-02   5.80362666E-07
  -1.59499999E-02   4.96453197E-07
  -1.59000009E-02   4.63391586E-07
  -1.58500001E-02   4.70806640E-07
  -1.57999992E-02   4.86599276E-07
  -1.57500003E-02   4.70833726E-07
  -1.56999994E-02   3.93253856E-07
  -1.56500004E-02   2.46696231E-07
  -1.55999996E-02   5.04027433E-08
  -1.55499997E-02  -1.58342885E-07
  -1.54999997E-02  -3.40662439E-07
  -1.54499998E-02  -4.73388468E-07
  -1.53999999E-02  -5.59552404E-07
  -1.53500000E-02  -6.27331872E-07
  -1.53000001E-02  -7.17807495E-07
  -1.52500002E-02  -8.66881066E-07
  -1.52000003E-02  -1.08932045E-06
  -1.51500003E-02  -1.37203438E-06
  -1.51000004E-02  -1.67963356E-06
  -1.50499996E-02  -1.96993710E-06
  -1.49999997E-02  -2.21263485E-06
  -1.49499997E-02  -2.40283157E-06
  -1.48999998E-02  -2.56341650E-06
  -1.48499999E-02  -2.73511682E-06
  -1.48000000E-02  -2.95856489E-06
  -1.47500001E-02  -3.25624819E-06
  -1.47000002E-02  -3.62234073E-06
  -1.46500003E-02  -4.02499109E-06
  -1.46000003E-02  -4.42016926E-06
  -1.45500004E-02  -4.77099320E-06
  -1.44999996E-02  -5.06401784E-06
  -1.44499997E-02  -5.31525802E-06
  -1.43999998E-02  -5.56317809E-06
  -1.43499998E-02  -5.85167527E-06
  -1.42999999E-02  -6.21053141E-06
  -1.42500000E-02  -6.64200525E-06
  -1.42000001E-02  -7.11950997E-06
  -1.41500002E-02  -7.59906334E-06
  -1.41000003E-02  -8.03853709E-06
  -1.40500003E-02  -8.41619385E-06
  -1.40000004E-02  -8.74031412E-06
  -1.39499996E-02  -9.04560784E-06
  -1.38999997E-02  -9.37789537E-06
  -1.38499998E-02  -9.77376840E-06
  -1.37999998E-02  -1.02442309E-05
  -1.37499999E-02  -1.07695814E-05
  -1.37000000E-02  -1.13078631E-05
  -1.36500001E-02  -1.18132002E-05
  -1.36000002E-02  -1.22559622E-05
  -1.35500003E-02  -1.26358536E-05
  -1.35000004E-02  -1.29820737E-05
  -1.34500004E-02  -1.33404392E-05
  -1.33999996E-02  -1.37531015E-05
  -1.33499997E-02  -1.42398294E-05
  -1.32999998E-02  -1.47891105E-05
  -1.32499998E-02  -1.53630626E-05
  -1.31999999E-02  -1.59140382E-05
  -1.31500000E-02  -1.64056710E-05
  -1.31000001E-02  -1.68290226E-05
  -1.30500002E-02  -1.72066539E-05
  -1.30000003E-02  -1.75828245E-05
  -1.29500004E-02  -1.80040624E-05
  -1.29000004E-02  -1.84986948E-05
  -1.28499996E-02  -1.90643877E-05
  -1.27999997E-02  -1.96691308E-05
  -1.27499998E-02  -2.02654301E-05
  -1.26999998E-02  -2.08114179E-05
  -1.26499999E-02  -2.12894574E-05
  -1.26000000E-02  -2.17141769E-05
  -1.25500001E-02  -2.21261944E-05
  -1.25000002E-02  -2.25744479E-05
  -1.24500003E-02  -2.30948244E-05
  -1.24000004E-02  -2.36944270E-05
  -1.23500004E-02  -2.43486229E-05
  -1.22999996E-02  -2.50120720E-05
  -1.22499997E-02  -2.56390067E-05
  -1.21999998E-02  -2.62037538E-05
  -1.21499998E-02  -2.67123141E-05
  -1.20999999E-02  -2.72001635E-05
  -1.20500000E-02  -2.77170147E-05
  -1.20000001E-02  -2.83051959E-05
  -1.19500002E-02  -2.89814070E-05
  -1.19000003E-02  -2.97298193E-05
  -1.18500004E-02  -3.05094472E-05
  -1.18000004E-02  -3.12725460E-05
  -1.17499996E-02  -3.19862338E-05
  -1.16999997E-02  -3.26474583E-05
  -1.16499998E-02  -3.32846830E-05
  -1.15999999E-02  -3.39458202E-05
  -1.15499999E-02  -3.46775341E-05
  -1.15000000E-02  -3.55051343E-05
  -1.14500001E-02  -3.64218358E-05
  -1.14000002E-02  -3.73922267E-05
  -1.13500003E-02  -3.83684237E-05
  -1.13000004E-02  -3.93116825E-05
  -1.12500004E-02  -4.02099322E-05
  -1.11999996E-02  -4.10836692E-05
  -1.11499997E-02  -4.19775752E-05
  -1.10999998E-02  -4.29412794E-05
  -1.10499999E-02  -4.40079966E-05
  -1.09999999E-02  -4.51805754E-05
  -1.09500000E-02  -4.64310142E-05
  -1.09000001E-02  -4.77132089E-05
  -1.08500002E-02  -4.89838749E-05
  -1.08000003E-02  -5.02221810E-05
  -1.07500004E-02  -5.14393105E-05
  -1.07000005E-02  -5.26740841E-05
  -1.06499996E-02  -5.39762041E-05
  -1.05999997E-02  -5.53848768E-05
  -1.05499998E-02  -5.69120966E-05
  -1.04999999E-02  -5.85379494E-05
  -1.04499999E-02  -6.02199398E-05
  -1.04000000E-02  -6.19122948E-05
  -1.03500001E-02  -6.35867036E-05
  -1.03000002E-02  -6.52453382E-05
  -1.02500003E-02  -6.69202636E-05
  -1.02000004E-02  -6.86597850E-05
  -1.01500005E-02  -7.05076673E-05
  -1.00999996E-02  -7.24844358E-05
  -1.00499997E-02  -7.45790894E-05
  -9.99999978E-03  -7.67544043E-05
  -9.94999986E-03  -7.89641563E-05
  -9.89999995E-03  -8.11740611E-05
  -9.85000003E-03  -8.33770682E-05
  -9.80000012E-03  -8.55972394E-05
  -9.75000020E-03  -8.78795545E-05
  -9.70000029E-03  -9.02703468E-05
  -9.65000037E-03  -9.27976507E-05
  -9.60000046E-03  -9.54595744E-05
  -9.54999961E-03  -9.82256824E-05
  -9.49999969E-03  -1.01051250E-04
  -9.44999978E-03  -1.03897277E-04
  -9.39999986E-03  -1.06748157E-04
  -9.34999995E-03  -1.09619046E-04
  -9.30000003E-03  -1.12549737E-04
  -9.25000012E-03  -1.15587471E-04
  -9.20000020E-03  -1.18766577E-04
  -9.15000029E-03  -1.22094585E-04
  -9.10000037E-03  -1.25549472E-04
  -9.05000046E-03  -1.29090258E-04
  -8.99999961E-03  -1.32676083E-04
  -8.94999970E-03  -1.36284682E-04
  -8.89999978E-03  -1.39922835E-04
  -8.84999987E-03  -1.43623955E-04
  -8.79999995E-03  -1.47434330E-04
  -8.75000004E-03  -1.51392975E-04
  -8.70000012E-03  -1.55515445E-04
  -8.65000021E-03  -1.59788338E-04
  -8.60000029E-03  -1.64175712E-04
  -8.55000038E-03  -1.68636354E-04
  -8.50000046E-03  -1.73142427E-04
  -8.44999962E-03  -1.77692535E-04
  -8.39999970E-03  -1.82313190E-04
  -8.34999979E-03  -1.87047393E-04
  -8.29999987E-03  -1.91937317E-04
  -8.24999996E-03  -1.97006608E-04
  -8.20000004E-03  -2.02251191E-04
  -8.15000013E-03  -2.07642224E-04
  -8.10000021E-03  -2.13140083E-04
  -8.05000030E-03  -2.18713278E-04
  -8.00000038E-03  -2.24353018E-04
  -7.95000046E-03  -2.30077858E-04
  -7.89999962E-03  -2.35927189E-04
  -7.84999970E-03  -2.41944741E-04
  -7.79999979E-03  -2.48160417E-04
  -7.74999987E-03  -2.54579267E-04
  -7.69999996E-03  -2.61180248E-04
  -7.65000004E-03  -2.67926865E-04
  -7.60000013E-03  -2.74785329E-04
  -7.55000021E-03  -2.81740737E-04
  -7.49999983E-03  -2.88803887E-04
  -7.44999992E-03  -2.96007987E-04
  -7.40000000E-03  -3.03395791E-04
  -7.35000009E-03  -3.11002019E-04
  -7.30000017E-03  -3.18840233E-04
  -7.24999979E-03  -3.26897862E-04
  -7.19999988E-03  -3.35144112E-04
  -7.14999996E-03  -3.43545893E-04
  -7.10000005E-03  -3.52082949E-04
  -7.05000013E-03  -3.60758859E-04
  -7.00000022E-03  -3.69600573E-04
  -6.94999984E-03  -3.78647877E-04
  -6.89999992E-03  -3.87938286E-04
  -6.85000001E-03  -3.97491793E-04
  -6.80000009E-03  -4.07305139E-04
  -6.75000018E-03  -4.17354662E-04
  -6.69999979E-03  -4.27607680E-04
  -6.64999988E-03  -4.38040384E-04
  -6.59999996E-03  -4.48650157E-04
  -6.55000005E-03  -4.59456380E-04
  -6.50000013E-03  -4.70494968E-04
  -6.45000022E-03  -4.81804658E-04
  -6.39999984E-03  -4.93411033E-04
  -6.34999992E-03  -5.05319797E-04
  -6.30000001E-03  -5.17514884E-04
  -6.25000009E-03  -5.29967423E-04
  -6.20000018E-03  -5.42650989E-04
  -6.14999980E-03  -5.55554754E-04
  -6.09999988E-03  -5.68691001E-04
  -6.04999997E-03  -5.82092151E-04
  -6.00000005E-03  -5.95796562E-04
  -5.95000014E-03  -6.09833456E-04
  -5.90000022E-03  -6.24214299E-04
  -5.84999984E-03  -6.38930826E-04
  -5.79999993E-03  -6.53959461E-04
  -5.75000001E-03  -6.69273897E-04
  -5.70000010E-03  -6.84860279E-04
  -5.65000018E-03  -7.00724369E-04
  -5.59999980E-03  -7.16889335E-04
  -5.54999989E-03  -7.33389868E-04
  -5.49999997E-03  -7.50259671E-04
  -5.45000006E-03  -7.67518592E-04
  -5.40000014E-03  -7.85166223E-04
  -5.35000023E-03  -8.03183473E-04
  -5.29999984E-03  -8.21545837E-04
  -5.24999993E-03  -8.40236607E-04
  -5.20000001E-03  -8.59253691E-04
  -5.15000010E-03  -8.78614432E-04
  -5.10000018E-03  -8.98352009E-04
  -5.04999980E-03  -9.18500940E-04
  -4.99999989E-03  -9.39084508E-04
  -4.94999997E-03  -9.60109814E-04
  -4.90000006E-03  -9.81567311E-04
  -4.85000014E-03  -1.00343395E-03
  -4.80000023E-03  -1.02568895E-03
  -4.74999985E-03  -1.04832626E-03
  -4.69999993E-03  -1.07135612E-03
  -4.65000002E-03  -1.09480554E-03
  -4.60000010E-03  -1.11871003E-03
  -4.55000019E-03  -1.14310079E-03
  -4.49999981E-03  -1.16799271E-03
  -4.44999989E-03  -1.19338161E-03
  -4.39999998E-03  -1.21925201E-03
  -4.35000006E-03  -1.24558131E-03
  -4.30000015E-03  -1.27235486E-03
  -4.25000023E-03  -1.29957590E-03
  -4.19999985E-03  -1.32726610E-03
  -4.14999994E-03  -1.35546166E-03
  -4.10000002E-03  -1.38419936E-03
  -4.05000011E-03  -1.41350529E-03
  -4.00000019E-03  -1.44338317E-03
  -3.94999981E-03  -1.47381646E-03
  -3.89999989E-03  -1.50478189E-03
  -3.84999998E-03  -1.53626176E-03
  -3.80000006E-03  -1.56825548E-03
  -3.74999992E-03  -1.60077796E-03
  -3.70000000E-03  -1.63386075E-03
  -3.65000009E-03  -1.66754401E-03
  -3.59999994E-03  -1.70185708E-03
  -3.55000002E-03  -1.73681171E-03
  -3.50000011E-03  -1.77240139E-03
  -3.44999996E-03  -1.80860690E-03
  -3.40000005E-03  -1.84541068E-03
  -3.34999990E-03  -1.88280561E-03
  -3.29999998E-03  -1.92080112E-03
  -3.25000007E-03  -1.95942377E-03
  -3.19999992E-03  -1.99870882E-03
  -3.15000000E-03  -2.03868933E-03
  -3.10000009E-03  -2.07938999E-03
  -3.04999994E-03  -2.12081661E-03
  -3.00000003E-03  -2.16295221E-03
  -2.95000011E-03  -2.20577279E-03
  -2.89999996E-03  -2.24926649E-03
  -2.85000005E-03  -2.29343283E-03
  -2.79999990E-03  -2.33828626E-03
  -2.74999999E-03  -2.38386402E-03
  -2.70000007E-03  -2.43020710E-03
  -2.64999992E-03  -2.47734948E-03
  -2.60000001E-03  -2.52530770E-03
  -2.55000009E-03  -2.57407594E-03
  -2.49999994E-03  -2.62362813E-03
  -2.45000003E-03  -2.67393654E-03
  -2.40000011E-03  -2.72498885E-03
  -2.34999997E-03  -2.77679623E-03
  -2.30000005E-03  -2.82939593E-03
  -2.24999990E-03  -2.88283685E-03
  -2.19999999E-03  -2.93715997E-03
  -2.15000007E-03  -2.99238809E-03
  -2.09999993E-03  -3.04852426E-03
  -2.05000001E-03  -3.10554542E-03
  -2.00000009E-03  -3.16341640E-03
  -1.94999995E-03  -3.22211278E-03
  -1.90000003E-03  -3.28163640E-03
  -1.85000000E-03  -3.34201381E-03
  -1.79999997E-03  -3.40329087E-03
  -1.75000005E-03  -3.46551836E-03
  -1.70000002E-03  -3.52873700E-03
  -1.64999999E-03  -3.59296100E-03
  -1.59999996E-03  -3.65816988E-03
  -1.55000004E-03  -3.72432335E-03
  -1.50000001E-03  -3.79137951E-03
  -1.44999998E-03  -3.85932834E-03
  -1.39999995E-03  -3.92818917E-03
  -1.35000004E-03  -3.99800530E-03
  -1.30000000E-03  -4.06883657E-03
  -1.24999997E-03  -4.14073421E-03
  -1.20000006E-03  -4.21372382E-03
  -1.15000003E-03  -4.28779004E-03
  -1.09999999E-03  -4.36288444E-03
  -1.04999996E-03  -4.43896139E-03
  -1.00000005E-03  -4.51599294E-03
  -9.50000016E-04  -4.59397584E-03
  -8.99999985E-04  -4.67295432E-03
  -8.50000011E-04  -4.75299684E-03
  -7.99999980E-04  -4.83417138E-03
  -7.50000007E-04  -4.91652172E-03
  -6.99999975E-04  -5.00004133E-03
  -6.50000002E-04  -5.08467853E-03
  -6.00000028E-04  -5.17035834E-03
  -5.49999997E-04  -5.25702350E-03
  -5.00000024E-04  -5.34467539E-03
  -4.49999992E-04  -5.43335592E-03
  -3.99999990E-04  -5.52312797E-03
  -3.49999988E-04  -5.61408745E-03
  -3.00000014E-04  -5.70628652E-03
  -2.50000012E-04  -5.79971075E-03
  -1.99999995E-04  -5.89430239E-03
  -1.50000007E-04  -5.98999299E-03
  -9.99999975E-05  -6.08672202E-03
  -4.99999987E-05  -6.18444895E-03
   0.00000000      -6.28320733E-03
   4.99999987E-05  -6.38308749E-03
   9.99999975E-05  -6.48417184E-03
   1.50000007E-04  -6.58652838E-03
   1.99999995E-04  -6.69016037E-03
   2.50000012E-04  -6.79501379E-03
   3.00000014E-04  -6.90100389E-03
   3.49999988E-04  -7.00803008E-03
   3.99999990E-04  -7.11605093E-03
   4.49999992E-04  -7.22510368E-03
   5.00000024E-04  -7.33525865E-03
   5.49999997E-04  -7.44660711E-03
   6.00000028E-04  -7.55924219E-03
   6.50000002E-04  -7.67318113E-03
   6.99999975E-04  -7.78835593E-03
   7.50000007E-04  -7.90466741E-03
   7.99999980E-04  -8.02201312E-03
   8.50000011E-04  -8.14032182E-03
   8.99999985E-04  -8.25960375E-03
   9.50000016E-04  -8.37993622E-03
   1.00000005E-03  -8.50142725E-03
   1.04999996E-03  -8.62417649E-03
   1.09999999E-03  -8.74822680E-03
   1.15000003E-03  -8.87354277E-03
   1.20000006E-03  -9.00002476E-03
   1.24999997E-03  -9.12751257E-03
   1.30000000E-03  -9.25589167E-03
   1.35000004E-03  -9.38514899E-03
   1.39999995E-03  -9.51533206E-03
   1.44999998E-03  -9.64656845E-03
   1.50000001E-03  -9.77899041E-03
   1.55000004E-03  -9.91268270E-03
   1.59999996E-03  -1.00476183E-02
   1.64999999E-03  -1.01836752E-02
   1.70000002E-03  -1.03206746E-02
   1.75000005E-03  -1.04584703E-02
   1.79999997E-03  -1.05970185E-02
   1.85000000E-03  -1.07363677E-02
   1.90000003E-03  -1.08766332E-02
   1.94999995E-03  -1.10179605E-02
   2.00000009E-03  -1.11604389E-02
   2.05000001E-03  -1.13040796E-02
   2.09999993E-03  -1.14487838E-02
   2.15000007E-03  -1.15943467E-02
   2.19999999E-03  -1.17405728E-02
   2.24999990E-03  -1.18873762E-02
   2.30000005E-03  -1.20347971E-02
   2.34999997E-03  -1.21829323E-02
   2.40000011E-03  -1.23319393E-02
   2.45000003E-03  -1.24819595E-02
   2.49999994E-03  -1.26329986E-02
   2.55000009E-03  -1.27849495E-02
   2.60000001E-03  -1.29376138E-02
   2.64999992E-03  -1.30907781E-02
   2.70000007E-03  -1.32443290E-02
   2.74999999E-03  -1.33982264E-02
   2.79999990E-03  -1.35525614E-02