  -3.99999991E-02   0.00000000    
  -3.99499983E-02   0.00000000    
  -3.99000011E-02   0.00000000    
  -3.98500003E-02   0.00000000    
  -3.97999994E-02   0.00000000    
  -3.97499986E-02  -1.63633905E-21
  -3.97000015E-02  -1.25823348E-20
  -3.96500006E-02  -5.03488554E-20
  -3.95999998E-02  -1.40856399E-19
  -3.95499989E-02  -3.14763549E-19
  -3.95000018E-02  -6.10598362E-19
  -3.94500010E-02  -1.08267344E-18
  -3.94000001E-02  -1.79198567E-18
  -3.93499993E-02  -2.76291022E-18
  -3.92999984E-02  -3.93030815E-18
  -3.92500013E-02  -5.13821311E-18
  -3.92000005E-02  -6.22381239E-18
  -3.91499996E-02  -7.13585471E-18
  -3.90999988E-02  -7.98333929E-18
  -3.90500017E-02  -8.96166069E-18
  -3.90000008E-02  -1.02156971E-17
  -3.89500000E-02  -1.17467125E-17
  -3.88999991E-02  -1.33977435E-17
  -3.88499983E-02  -1.48576263E-17
  -3.88000011E-02  -1.56409018E-17
  -3.87500003E-02  -1.51125666E-17
  -3.86999995E-02  -1.26609059E-17
  -3.86499986E-02  -7.97216822E-18
  -3.86000015E-02  -1.16602254E-18
  -3.85500006E-02   7.42809927E-18
  -3.84999998E-02   1.77795276E-17
  -3.84499989E-02   3.05817937E-17
  -3.84000018E-02   4.72597665E-17
  -3.83500010E-02   6.95730628E-17
  -3.83000001E-02   9.91327524E-17
  -3.82499993E-02   1.37097788E-16
  -3.81999984E-02   1.84035100E-16
  -3.81500013E-02   2.39804715E-16
  -3.81000005E-02   3.03526448E-16
  -3.80499996E-02   3.73886431E-16
  -3.79999988E-02   4.49864810E-16
  -3.79500017E-02   5.31488558E-16
  -3.79000008E-02   6.19988042E-16
  -3.78500000E-02   7.17133351E-16
  -3.77999991E-02   8.24231773E-16
  -3.77499983E-02   9.41547319E-16
  -3.77000012E-02   1.06843910E-15
  -3.76500003E-02   1.20382239E-15
  -3.75999995E-02   1.34638587E-15
  -3.75499986E-02   1.49449000E-15
  -3.75000015E-02   1.64615019E-15
  -3.74500006E-02   1.79936120E-15
  -3.73999998E-02   1.95242640E-15
  -3.73499990E-02   2.10371983E-15
  -3.73000018E-02   2.25083060E-15
  -3.72500010E-02   2.38973935E-15
  -3.72000001E-02   2.51468243E-15
  -3.71499993E-02   2.61862480E-15
  -3.70999984E-02   2.69364969E-15
  -3.70500013E-02   2.73092570E-15
  -3.70000005E-02   2.72084347E-15
  -3.69499996E-02   2.65425397E-15
  -3.68999988E-02   2.52483327E-15
  -3.68500017E-02   2.33119518E-15
  -3.68000008E-02   2.07701584E-15
  -3.67500000E-02   1.76856742E-15
  -3.66999991E-02   1.41071972E-15
  -3.66499983E-02   1.00323450E-15
  -3.66000012E-02   5.38716713E-16
  -3.65500003E-02   2.78626752E-18
  -3.64999995E-02  -6.23345787E-16
  -3.64499986E-02  -1.35802749E-15
  -3.64000015E-02  -2.21319037E-15
  -3.63500006E-02  -3.18992735E-15
  -3.62999998E-02  -4.27872129E-15
  -3.62499990E-02  -5.46537633E-15
  -3.62000018E-02  -6.73994662E-15
  -3.61500010E-02  -8.10330332E-15
  -3.61000001E-02  -9.56664760E-15
  -3.60499993E-02  -1.11431419E-14
  -3.59999985E-02  -1.28353045E-14
  -3.59500013E-02  -1.46242017E-14
  -3.59000005E-02  -1.64660833E-14
  -3.58499996E-02  -1.82995116E-14
  -3.57999988E-02  -2.00622769E-14
  -3.57500017E-02  -2.17128460E-14
  -3.57000008E-02  -2.32471665E-14
  -3.56500000E-02  -2.47009376E-14
  -3.55999991E-02  -2.61320896E-14
  -3.55499983E-02  -2.75879325E-14
  -3.55000012E-02  -2.90709026E-14
  -3.54500003E-02  -3.05201116E-14
  -3.53999995E-02  -3.18200395E-14
  -3.53499986E-02  -3.28352288E-14
  -3.53000015E-02  -3.34571306E-14
  -3.52500007E-02  -3.36426477E-14
  -3.51999998E-02  -3.34258310E-14
  -3.51499990E-02  -3.28941992E-14
  -3.51000018E-02  -3.21360438E-14
  -3.50500010E-02  -3.11796792E-14
  -3.50000001E-02  -2.99533957E-14
  -3.49499993E-02  -2.82899026E-14
  -3.48999985E-02  -2.59801708E-14
  -3.48500013E-02  -2.28569012E-14
  -3.48000005E-02  -1.88694224E-14
  -3.47499996E-02  -1.41117959E-14
  -3.46999988E-02  -8.78534272E-15
  -3.46500017E-02  -3.10757775E-15
  -3.46000008E-02   2.79365251E-15
  -3.45500000E-02   8.95145689E-15
  -3.44999991E-02   1.55588704E-14
  -3.44499983E-02   2.28874892E-14
  -3.44000012E-02   3.11549696E-14
  -3.43500003E-02   4.03993245E-14
  -3.42999995E-02   5.04228956E-14
  -3.42499986E-02   6.08431762E-14
  -3.42000015E-02   7.12390216E-14
  -3.41500007E-02   8.13310058E-14
  -3.40999998E-02   9.11099199E-14
  -3.40499990E-02   1.00843995E-13
  -3.40000018E-02   1.10947994E-13
  -3.39500010E-02   1.21763100E-13
  -3.39000002E-02   1.33343775E-13
  -3.38499993E-02   1.45353280E-13
  -3.37999985E-02   1.57128434E-13
  -3.37500013E-02   1.67901310E-13
  -3.37000005E-02   1.77090113E-13
  -3.36499996E-02   1.84528946E-13
  -3.35999988E-02   1.90520559E-13
  -3.35500017E-02   1.95668812E-13
  -3.35000008E-02   2.00551056E-13
  -3.34500000E-02   2.05374251E-13
  -3.33999991E-02   2.09779988E-13
  -3.33499983E-02   2.12905309E-13
  -3.33000012E-02   2.13691708E-13
  -3.32500003E-02   2.11315218E-13
  -3.31999995E-02   2.05543847E-13
  -3.31499986E-02   1.96848031E-13
  -3.31000015E-02   1.86190784E-13
  -3.30500007E-02   1.74569492E-13
  -3.29999998E-02   1.62504694E-13
  -3.29499990E-02   1.49714862E-13
  -3.29000019E-02   1.35149297E-13
  -3.28500010E-02   1.17394294E-13
  -3.28000002E-02   9.52888823E-14
  -3.27499993E-02   6.84722258E-14
  -3.26999985E-02   3.75962655E-14
  -3.26500013E-02   4.07980619E-15
  -3.26000005E-02  -3.05087613E-14
  -3.25499997E-02  -6.51714197E-14
  -3.24999988E-02  -9.99667471E-14
  -3.24500017E-02  -1.36013285E-13
  -3.24000008E-02  -1.74970688E-13
  -3.23500000E-02  -2.18202694E-13
  -3.22999991E-02  -2.65995261E-13
  -3.22499983E-02  -3.17207496E-13
  -3.22000012E-02  -3.69559147E-13
  -3.21500003E-02  -4.20469269E-13
  -3.20999995E-02  -4.68091223E-13
  -3.20499986E-02  -5.12067656E-13
  -3.20000015E-02  -5.53631522E-13
  -3.19500007E-02  -5.94963477E-13
  -3.18999998E-02  -6.38059646E-13
  -3.18499990E-02  -6.83610124E-13
  -3.18000019E-02  -7.30410632E-13
  -3.17500010E-02  -7.75615520E-13
  -3.17000002E-02  -8.15767267E-13
  -3.16499993E-02  -8.48171197E-13
  -3.15999985E-02  -8.71993504E-13
  -3.15500014E-02  -8.88549325E-13
  -3.15000005E-02  -9.00598986E-13
  -3.14499997E-02  -9.10925090E-13
  -3.13999988E-02  -9.20823856E-13
  -3.13500017E-02  -9.29217423E-13
  -3.13000008E-02  -9.32842670E-13
  -3.12500000E-02  -9.27483351E-13
  -3.11999992E-02  -9.09728131E-13
  -3.11500002E-02  -8.78461366E-13
  -3.10999993E-02  -8.35376798E-13
  -3.10500003E-02  -7.84226362E-13
  -3.09999995E-02  -7.29084761E-13
  -3.09500005E-02  -6.72388902E-13
  -3.08999997E-02  -6.13658972E-13
  -3.08500007E-02  -5.49541424E-13
  -3.07999998E-02  -4.75224189E-13
  -3.07500008E-02  -3.86630560E-13
  -3.07000000E-02  -2.82401218E-13
  -3.06499992E-02  -1.64724652E-13
  -3.06000002E-02  -3.85745174E-14
  -3.05499993E-02   9.03638126E-14
  -3.05000003E-02   2.18171455E-13
  -3.04499995E-02   3.44443576E-13
  -3.04000005E-02   4.72456113E-13
  -3.03499997E-02   6.07596276E-13
  -3.03000007E-02   7.54696923E-13
  -3.02499998E-02   9.15457488E-13
  -3.02000009E-02   1.08715511E-12
  -3.01500000E-02   1.26330565E-12
  -3.00999992E-02   1.43605906E-12
  -3.00500002E-02   1.59929372E-12
  -2.99999993E-02   1.75100678E-12
  -2.99500003E-02   1.89387199E-12
  -2.98999995E-02   2.03364560E-12
  -2.98500005E-02   2.17607985E-12
  -2.97999997E-02   2.32371782E-12
  -2.97500007E-02   2.47404549E-12
  -2.96999998E-02   2.61990126E-12
  -2.96500009E-02   2.75204967E-12
  -2.96000000E-02   2.86281003E-12
  -2.95499992E-02   2.94911491E-12
  -2.95000002E-02   3.01356054E-12
  -2.94499993E-02   3.06289629E-12
  -2.94000003E-02   3.10456435E-12
  -2.93499995E-02   3.14282649E-12
  -2.93000005E-02   3.17624941E-12
  -2.92499997E-02   3.19775066E-12
  -2.92000007E-02   3.19725670E-12
  -2.91499998E-02   3.16582567E-12
  -2.91000009E-02   3.09939162E-12
  -2.90500000E-02   3.00040179E-12
  -2.89999992E-02   2.87654232E-12
  -2.89500002E-02   2.73704518E-12
  -2.88999993E-02   2.58821198E-12
  -2.88500004E-02   2.43019342E-12
  -2.87999995E-02   2.25656147E-12
  -2.87500005E-02   2.05696029E-12
  -2.86999997E-02   1.82171314E-12
  -2.86500007E-02   1.54632709E-12
  -2.85999998E-02   1.23383476E-12
  -2.85500009E-02   8.93847604E-13
  -2.85000000E-02   5.38670020E-13
  -2.84499992E-02   1.78163013E-13
  -2.84000002E-02  -1.84348278E-13
  -2.83499993E-02  -5.53243703E-13
  -2.83000004E-02  -9.38254791E-13
  -2.82499995E-02  -1.34956347E-12
  -2.82000005E-02  -1.79252435E-12
  -2.81499997E-02  -2.26438182E-12
  -2.81000007E-02  -2.75452296E-12
  -2.80499998E-02  -3.24821138E-12
  -2.80000009E-02  -3.73217256E-12
  -2.79500000E-02  -4.19954089E-12
  -2.78999992E-02  -4.65191644E-12
  -2.78500002E-02  -5.09757861E-12
  -2.77999993E-02  -5.54659964E-12
  -2.77500004E-02  -6.00501766E-12
  -2.76999995E-02  -6.47067643E-12
  -2.76500005E-02  -6.93262808E-12
  -2.75999997E-02  -7.37445088E-12
  -2.75500007E-02  -7.78005351E-12
  -2.74999999E-02  -8.13940495E-12
  -2.74500009E-02  -8.45161528E-12
  -2.74000000E-02  -8.72396686E-12
  -2.73499992E-02  -8.96728785E-12
  -2.73000002E-02  -9.18970629E-12
  -2.72499993E-02  -9.39159774E-12
  -2.72000004E-02  -9.56397288E-12
  -2.71499995E-02  -9.69109515E-12
  -2.71000005E-02  -9.75619759E-12
  -2.70499997E-02  -9.74781020E-12
  -2.70000007E-02  -9.66388948E-12
  -2.69499999E-02  -9.51188867E-12
  -2.69000009E-02  -9.30467942E-12
  -2.68500000E-02  -9.05410122E-12
  -2.67999992E-02  -8.76496792E-12
  -2.67500002E-02  -8.43223321E-12
  -2.66999993E-02  -8.04260911E-12
  -2.66500004E-02  -7.57999392E-12
  -2.65999995E-02  -7.03234129E-12
  -2.65500005E-02  -6.39700575E-12
  -2.64999997E-02  -5.68218693E-12
  -2.64500007E-02  -4.90382041E-12
  -2.63999999E-02  -4.07921179E-12
  -2.63500009E-02  -3.22016806E-12
  -2.63000000E-02  -2.32862449E-12
  -2.62499992E-02  -1.39668789E-12
  -2.62000002E-02  -4.11154834E-13
  -2.61499994E-02   6.39414628E-13
  -2.61000004E-02   1.75813693E-12
  -2.60499995E-02   2.93661753E-12
  -2.60000005E-02   4.15656572E-12
  -2.59499997E-02   5.39555206E-12
  -2.59000007E-02   6.63447075E-12
  -2.58499999E-02   7.86349978E-12
  -2.58000009E-02   9.08396275E-12
  -2.57500000E-02   1.03052584E-11
  -2.56999992E-02   1.15381229E-11
  -2.56500002E-02   1.27870943E-11
  -2.55999994E-02   1.40454271E-11
  -2.55500004E-02   1.52947498E-11
  -2.54999995E-02   1.65096600E-11
  -2.54500005E-02   1.76654056E-11
  -2.53999997E-02   1.87453612E-11
  -2.53500007E-02   1.97450823E-11
  -2.52999999E-02   2.06710569E-11
  -2.52500009E-02   2.15347011E-11
  -2.52000000E-02   2.23440537E-11
  -2.51499992E-02   2.30968491E-11
  -2.51000002E-02   2.37779449E-11
  -2.50499994E-02   2.43624478E-11
  -2.50000004E-02   2.48233430E-11
  -2.49499995E-02   2.51404886E-11
  -2.49000005E-02   2.53071123E-11
  -2.48499997E-02   2.53308624E-11
  -2.48000007E-02   2.52287965E-11
  -2.47499999E-02   2.50182704E-11
  -2.47000009E-02   2.47076231E-11
  -2.46500000E-02   2.42907170E-11
  -2.45999992E-02   2.37478787E-11
  -2.45500002E-02   2.30530491E-11
  -2.44999994E-02   2.21842631E-11
  -2.44500004E-02   2.11329582E-11
  -2.43999995E-02   1.99080613E-11
  -2.43500005E-02   1.85327760E-11
  -2.42999997E-02   1.70352916E-11
  -2.42500007E-02   1.54372105E-11
  -2.41999999E-02   1.37447701E-11
  -2.41500009E-02   1.19469122E-11
  -2.41000000E-02   1.00213050E-11
  -2.40499992E-02   7.94602838E-12
  -2.40000002E-02   5.71188583E-12
  -2.39499994E-02   3.32991642E-12
  -2.39000004E-02   8.30557736E-13
  -2.38499995E-02  -1.74546532E-12
  -2.38000005E-02  -4.36082854E-12
  -2.37499997E-02  -6.99396357E-12
  -2.37000007E-02  -9.64450481E-12
  -2.36499999E-02  -1.23291655E-11
  -2.36000009E-02  -1.50694630E-11
  -2.35500000E-02  -1.78765475E-11
  -2.34999992E-02  -2.07399323E-11
  -2.34500002E-02  -2.36253690E-11
  -2.33999994E-02  -2.64832514E-11
  -2.33500004E-02  -2.92641536E-11
  -2.32999995E-02  -3.19347292E-11
  -2.32500006E-02  -3.44868127E-11
  -2.31999997E-02  -3.69353506E-11
  -2.31500007E-02  -3.93056941E-11
  -2.30999999E-02  -4.16156068E-11
  -2.30500009E-02  -4.38599851E-11
  -2.30000000E-02  -4.60054564E-11
  -2.29499992E-02  -4.79977551E-11
  -2.29000002E-02  -4.97790524E-11
  -2.28499994E-02  -5.13078850E-11
  -2.28000004E-02  -5.25725609E-11
  -2.27499995E-02  -5.35917491E-11
  -2.27000006E-02  -5.44015631E-11
  -2.26499997E-02  -5.50344596E-11
  -2.26000007E-02  -5.54994904E-11
  -2.25499999E-02  -5.57728967E-11
  -2.25000009E-02  -5.58037644E-11
  -2.24500000E-02  -5.55328526E-11
  -2.23999992E-02  -5.49164290E-11
  -2.23500002E-02  -5.39444392E-11
  -2.22999994E-02  -5.26445727E-11
  -2.22500004E-02  -5.10697873E-11
  -2.21999995E-02  -4.92744977E-11
  -2.21500006E-02  -4.72899254E-11
  -2.20999997E-02  -4.51099609E-11
  -2.20500007E-02  -4.26943376E-11
  -2.19999999E-02  -3.99881864E-11
  -2.19500009E-02  -3.69494921E-11
  -2.19000001E-02  -3.35720861E-11
  -2.18499992E-02  -2.98935217E-11
  -2.18000002E-02  -2.59837256E-11
  -2.17499994E-02  -2.19191384E-11
  -2.17000004E-02  -1.77537186E-11
  -2.16499995E-02  -1.35001611E-11
  -2.16000006E-02  -9.13021568E-12
  -2.15499997E-02  -4.59460898E-12
  -2.15000007E-02   1.46131967E-13
  -2.14499999E-02   5.09398426E-12
  -2.14000009E-02   1.02017205E-11
  -2.13500001E-02   1.53831947E-11
  -2.12999992E-02   2.05414557E-11
  -2.12500002E-02   2.56022738E-11
  -2.11999994E-02   3.05378257E-11
  -2.11500004E-02   3.53693880E-11
  -2.10999995E-02   4.01472362E-11
  -2.10500006E-02   4.49165080E-11
  -2.09999997E-02   4.96844128E-11
  -2.09500007E-02   5.44041791E-11
  -2.08999999E-02   5.89834986E-11
  -2.08500009E-02   6.33144440E-11
  -2.08000001E-02   6.73116285E-11
  -2.07499992E-02   7.09410655E-11
  -2.07000002E-02   7.42263959E-11
  -2.06499994E-02   7.72290426E-11
  -2.06000004E-02   8.00107827E-11
  -2.05499995E-02   8.25959717E-11
  -2.05000006E-02   8.49506021E-11
  -2.04499997E-02   8.69885622E-11
  -2.04000007E-02   8.86027779E-11
  -2.03499999E-02   8.97076441E-11
  -2.03000009E-02   9.02733652E-11
  -2.02500001E-02   9.03363218E-11
  -2.01999992E-02   8.99801553E-11
  -2.01500002E-02   8.92957028E-11
  -2.00999994E-02   8.83380036E-11
  -2.00500004E-02   8.71000980E-11
  -1.99999996E-02   8.55161705E-11
  -1.99500006E-02   8.34929764E-11
  -1.98999997E-02   8.09555756E-11
  -1.98500007E-02   7.78864334E-11
  -1.97999999E-02   7.43397219E-11
  -1.97500009E-02   7.04236877E-11
  -1.97000001E-02   6.62585611E-11
  -1.96499992E-02   6.19292256E-11
  -1.96000002E-02   5.74543121E-11
  -1.95499994E-02   5.27865425E-11
  -1.95000004E-02   4.78446484E-11
  -1.94499996E-02   4.25626409E-11
  -1.94000006E-02   3.69338865E-11
  -1.93499997E-02   3.10293249E-11
  -1.93000007E-02   2.49808715E-11
  -1.92499999E-02   1.89371088E-11
  -1.92000009E-02   1.30110705E-11
  -1.91500001E-02   7.24408120E-12
  -1.90999992E-02   1.60266342E-12
  -1.90500002E-02  -3.98958904E-12
  -1.89999994E-02  -9.59937511E-12
  -1.89500004E-02  -1.52344422E-11
  -1.88999996E-02  -2.08206750E-11
  -1.88500006E-02  -2.62166851E-11
  -1.87999997E-02  -3.12599668E-11
  -1.87500007E-02  -3.58239376E-11
  -1.86999999E-02  -3.98596781E-11
  -1.86500009E-02  -4.34032220E-11
  -1.86000001E-02  -4.65443829E-11
  -1.85499992E-02  -4.93712293E-11
  -1.85000002E-02  -5.19155205E-11
  -1.84499994E-02  -5.41245000E-11
  -1.84000004E-02  -5.58723796E-11
  -1.83499996E-02  -5.70069686E-11
  -1.83000006E-02  -5.74105728E-11
  -1.82499997E-02  -5.70471864E-11
  -1.82000007E-02  -5.59742010E-11
  -1.81499999E-02  -5.43126655E-11
  -1.81000009E-02  -5.21897629E-11
  -1.80500001E-02  -4.96795313E-11
  -1.79999992E-02  -4.67695882E-11
  -1.79500002E-02  -4.33693151E-11
  -1.78999994E-02  -3.93568719E-11
  -1.78500004E-02  -3.46437080E-11
  -1.77999996E-02  -2.92269195E-11
  -1.77500006E-02  -2.32051722E-11
  -1.76999997E-02  -1.67505905E-11
  -1.76500008E-02  -1.00491403E-11
  -1.75999999E-02  -3.23612860E-12
  -1.75500009E-02   3.64290759E-12
  -1.75000001E-02   1.06281008E-11
  -1.74499992E-02   1.77984936E-11
  -1.74000002E-02   2.52044080E-11
  -1.73499994E-02   3.28093837E-11
  -1.73000004E-02   4.04693397E-11
  -1.72499996E-02   4.79583075E-11
  -1.72000006E-02   5.50301922E-11
  -1.71499997E-02   6.14885018E-11
  -1.71000008E-02   6.72319631E-11
  -1.70499999E-02   7.22548757E-11
  -1.70000009E-02   7.66016556E-11
  -1.69500001E-02   8.02955064E-11
  -1.68999992E-02   8.32737559E-11
  -1.68500002E-02   8.53597054E-11
  -1.67999994E-02   8.62852151E-11
  -1.67500004E-02   8.57536819E-11
  -1.66999996E-02   8.35147299E-11
  -1.66500006E-02   7.94174865E-11
  -1.65999997E-02   7.34180286E-11
  -1.65500008E-02   6.55372007E-11
  -1.64999999E-02   5.57875690E-11
  -1.64500009E-02   4.41022947E-11
  -1.64000001E-02   3.03004392E-11
  -1.63499992E-02   1.41027615E-11
  -1.63000003E-02  -4.80564633E-12
  -1.62499994E-02  -2.66963777E-11
  -1.62000004E-02  -5.17378779E-11
  -1.61499996E-02  -7.99810912E-11
  -1.61000006E-02  -1.11398779E-10
  -1.60499997E-02  -1.45960563E-10
  -1.60000008E-02  -1.83708160E-10
  -1.59499999E-02  -2.24799249E-10
  -1.59000009E-02  -2.69497202E-10
  -1.58500001E-02  -3.18111093E-10
  -1.57999992E-02  -3.70911413E-10
  -1.57500003E-02  -4.28061059E-10
  -1.56999994E-02  -4.89593532E-10
  -1.56500004E-02  -5.55448243E-10
  -1.55999996E-02  -6.25547947E-10
  -1.55499997E-02  -6.99880431E-10
  -1.54999997E-02  -7.78549392E-10
  -1.54499998E-02  -8.61774319E-10
  -1.53999999E-02  -9.49834433E-10
  -1.53500000E-02  -1.04298081E-09
  -1.53000001E-02  -1.14135867E-09
  -1.52500002E-02  -1.24497523E-09
  -1.52000003E-02  -1.35372702E-09
  -1.51500003E-02  -1.46747858E-09
  -1.51000004E-02  -1.58615243E-09
  -1.50499996E-02  -1.70979253E-09
  -1.49999997E-02  -1.83857163E-09
  -1.49499997E-02  -1.97273931E-09
  -1.48999998E-02  -2.11253237E-09
  -1.48499999E-02  -2.25809127E-09
  -1.48000000E-02  -2.40941378E-09
  -1.47500001E-02  -2.56637467E-09
  -1.47000002E-02  -2.72879652E-09
  -1.46500003E-02  -2.89654745E-09
  -1.46000003E-02  -3.06961678E-09
  -1.45500004E-02  -3.24814065E-09
  -1.44999996E-02  -3.43235196E-09
  -1.44499997E-02  -3.62249364E-09
  -1.43999998E-02  -3.81871912E-09
  -1.43499998E-02  -4.02103906E-09
  -1.42999999E-02  -4.22933066E-09
  -1.42500000E-02  -4.44340698E-09
  -1.42000001E-02  -4.66311567E-09
  -1.41500002E-02  -4.88842256E-09
  -1.41000003E-02  -5.11945464E-09
  -1.40500003E-02  -5.35645883E-09
  -1.40000004E-02  -5.59971580E-09
  -1.39499996E-02  -5.84943738E-09
  -1.38999997E-02  -6.10569373E-09
  -1.38499998E-02  -6.36840980E-09
  -1.37999998E-02  -6.63742528E-09
  -1.37499999E-02  -6.91260427E-09
  -1.37000000E-02  -7.19393078E-09
  -1.36500001E-02  -7.48155937E-09
  -1.36000002E-02  -7.77579601E-09
  -1.35500003E-02  -8.07700395E-09
  -1.35000004E-02  -8.38548697E-09
  -1.34500004E-02  -8.70141381E-09
  -1.33999996E-02  -9.02480046E-09
  -1.33499997E-02  -9.35555011E-09
  -1.32999998E-02  -9.69357039E-09
  -1.32499998E-02  -1.00388799E-08
  -1.31999999E-02  -1.03916813E-08
  -1.31500000E-02  -1.07523599E-08
  -1.31000001E-02  -1.11213918E-08
  -1.30500002E-02  -1.14992211E-08
  -1.30000003E-02  -1.18861623E-08
  -1.29500004E-02  -1.22823502E-08
  -1.29000004E-02  -1.26877939E-08
  -1.28499996E-02  -1.31024791E-08
  -1.27999997E-02  -1.35264946E-08
  -1.27499998E-02  -1.39601015E-08
  -1.26999998E-02  -1.44037511E-08
  -1.26499999E-02  -1.48580268E-08
  -1.26000000E-02  -1.53235167E-08
  -1.25500001E-02  -1.58006852E-08
  -1.25000002E-02  -1.62898139E-08
  -1.24500003E-02  -1.67910201E-08
  -1.24000004E-02  -1.73043819E-08
  -1.23500004E-02  -1.78300574E-08
  -1.22999996E-02  -1.83683806E-08
  -1.22499997E-02  -1.89198968E-08
  -1.21999998E-02  -1.94852934E-08
  -1.21499998E-02  -2.00652615E-08
  -1.20999999E-02  -2.06603818E-08
  -1.20500000E-02  -2.12710489E-08
  -1.20000001E-02  -2.18974758E-08
  -1.19500002E-02  -2.25397869E-08
  -1.19000003E-02  -2.31981705E-08
  -1.18500004E-02  -2.38730156E-08
  -1.18000004E-02  -2.45649616E-08
  -1.17499996E-02  -2.52748293E-08
  -1.16999997E-02  -2.60035034E-08
  -1.16499998E-02  -2.67517777E-08
  -1.15999999E-02  -2.75202421E-08
  -1.15499999E-02  -2.83092518E-08
  -1.15000000E-02  -2.91190307E-08
  -1.14500001E-02  -2.99498133E-08
  -1.14000002E-02  -3.08019743E-08
  -1.13500003E-02  -3.16761266E-08
  -1.13000004E-02  -3.25730731E-08
  -1.12500004E-02  -3.34937056E-08
  -1.11999996E-02  -3.44388660E-08
  -1.11499997E-02  -3.54092080E-08
  -1.10999998E-02  -3.64051935E-08
  -1.10499999E-02  -3.74271529E-08
  -1.09999999E-02  -3.84754486E-08
  -1.09500000E-02  -3.95506206E-08
  -1.09000001E-02  -4.06535037E-08
  -1.08500002E-02  -4.17851460E-08
  -1.08000003E-02  -4.29467448E-08
  -1.07500004E-02  -4.41394192E-08
  -1.07000005E-02  -4.53641000E-08
  -1.06499996E-02  -4.66214019E-08
  -1.05999997E-02  -4.79117368E-08
  -1.05499998E-02  -4.92354530E-08
  -1.04999999E-02  -5.05930515E-08
  -1.04499999E-02  -5.19852641E-08
  -1.04000000E-02  -5.34131317E-08
  -1.03500001E-02  -5.48778623E-08
  -1.03000002E-02  -5.63807063E-08
  -1.02500003E-02  -5.79227901E-08
  -1.02000004E-02  -5.95050018E-08
  -1.01500005E-02  -6.11279987E-08
  -1.00999996E-02  -6.27924166E-08
  -1.00499997E-02  -6.44990408E-08
  -9.99999978E-03  -6.62489370E-08
  -9.94999986E-03  -6.80434766E-08
  -9.89999995E-03  -6.98842371E-08
  -9.85000003E-03  -7.17727744E-08
  -9.80000012E-03  -7.37105452E-08
  -9.75000020E-03  -7.56987575E-08
  -9.70000029E-03  -7.77383988E-08
  -9.65000037E-03  -7.98303503E-08
  -9.60000046E-03  -8.19755925E-08
  -9.54999961E-03  -8.41753973E-08
  -9.49999969E-03  -8.64313279E-08
  -9.44999978E-03  -8.87452813E-08
  -9.39999986E-03  -9.11192117E-08
  -9.34999995E-03  -9.35549025E-08
  -9.30000003E-03  -9.60538813E-08
  -9.25000012E-03  -9.86173845E-08
  -9.20000020E-03  -1.01246549E-07
  -9.15000029E-03  -1.03942611E-07
  -9.10000037E-03  -1.06707049E-07
  -9.05000046E-03  -1.09541766E-07
  -8.99999961E-03  -1.12448880E-07
  -8.94999970E-03  -1.15430709E-07
  -8.89999978E-03  -1.18489531E-07
  -8.84999987E-03  -1.21627437E-07
  -8.79999995E-03  -1.24846224E-07
  -8.75000004E-03  -1.28147519E-07
  -8.70000012E-03  -1.31532985E-07
  -8.65000021E-03  -1.35004555E-07
  -8.60000029E-03  -1.38564573E-07
  -8.55000038E-03  -1.42215711E-07
  -8.50000046E-03  -1.45960797E-07
  -8.44999962E-03  -1.49802574E-07
  -8.39999970E-03  -1.53743500E-07
  -8.34999979E-03  -1.57785834E-07
  -8.29999987E-03  -1.61931652E-07
  -8.24999996E-03  -1.66183014E-07
  -8.20000004E-03  -1.70542165E-07
  -8.15000013E-03  -1.75011721E-07
  -8.10000021E-03  -1.79594650E-07
  -8.05000030E-03  -1.84294109E-07
  -8.00000038E-03  -1.89113322E-07
  -7.95000046E-03  -1.94055204E-07
  -7.89999962E-03  -1.99122312E-07
  -7.84999970E-03  -2.04317075E-07
  -7.79999979E-03  -2.09642010E-07
  -7.74999987E-03  -2.15099732E-07
  -7.69999996E-03  -2.20693195E-07
  -7.65000004E-03  -2.26425840E-07
  -7.60000013E-03  -2.32301275E-07
  -7.55000021E-03  -2.38323310E-07
  -7.49999983E-03  -2.44495396E-07
  -7.44999992E-03  -2.50820733E-07
  -7.40000000E-03  -2.57302247E-07
  -7.35000009E-03  -2.63942781E-07
  -7.30000017E-03  -2.70745517E-07
  -7.24999979E-03  -2.77713923E-07
  -7.19999988E-03  -2.84851808E-07
  -7.14999996E-03  -2.92163122E-07
  -7.10000005E-03  -2.99651987E-07
  -7.05000013E-03  -3.07322381E-07
  -7.00000022E-03  -3.15177999E-07
  -6.94999984E-03  -3.23222224E-07
  -6.89999992E-03  -3.31458352E-07
  -6.85000001E-03  -3.39889596E-07
  -6.80000009E-03  -3.48519791E-07
  -6.75000018E-03  -3.57353173E-07
  -6.69999979E-03  -3.66394289E-07
  -6.64999988E-03  -3.75647573E-07
  -6.59999996E-03  -3.85117261E-07
  -6.55000005E-03  -3.94807358E-07
  -6.50000013E-03  -4.04721874E-07
  -6.45000022E-03  -4.14864701E-07
  -6.39999984E-03  -4.25239563E-07
  -6.34999992E-03  -4.35850723E-07
  -6.30000001E-03  -4.46702671E-07
  -6.25000009E-03  -4.57800553E-07
  -6.20000018E-03  -4.69149541E-07
  -6.14999980E-03  -4.80754636E-07
  -6.09999988E-03  -4.92620416E-07
  -6.04999997E-03  -5.04751199E-07
  -6.00000005E-03  -5.17151420E-07
  -5.95000014E-03  -5.29825684E-07
  -5.90000022E-03  -5.42778764E-07
  -5.84999984E-03  -5.56015664E-07
  -5.79999993E-03  -5.69541839E-07
  -5.75000001E-03  -5.83362919E-07
  -5.70000010E-03  -5.97484473E-07
  -5.65000018E-03  -6.11911673E-07
  -5.59999980E-03  -6.26649410E-07
  -5.54999989E-03  -6.41702286E-07
  -5.49999997E-03  -6.57075532E-07
  -5.45000006E-03  -6.72774433E-07
  -5.40000014E-03  -6.88804562E-07
  -5.35000023E-03  -7.05171828E-07
  -5.29999984E-03  -7.21882600E-07
  -5.24999993E-03  -7.38943072E-07
  -5.20000001E-03  -7.56359157E-07
  -5.15000010E-03  -7.74136709E-07
  -5.10000018E-03  -7.92281412E-07
  -5.04999980E-03  -8.10799122E-07
  -4.99999989E-03  -8.29695978E-07
  -4.94999997E-03  -8.48978345E-07
  -4.90000006E-03  -8.68653331E-07
  -4.85000014E-03  -8.88728096E-07
  -4.80000023E-03  -9.09209461E-07
  -4.74999985E-03  -9.30104022E-07
  -4.69999993E-03  -9.51418315E-07
  -4.65000002E-03  -9.73158876E-07
  -4.60000010E-03  -9.95331902E-07
  -4.55000019E-03  -1.01794467E-06
  -4.49999981E-03  -1.04100423E-06
  -4.44999989E-03  -1.06451830E-06
  -4.39999998E-03  -1.08849451E-06
  -4.35000006E-03  -1.11294082E-06
  -4.30000015E-03  -1.13786473E-06
  -4.25000023E-03  -1.16327362E-06
  -4.19999985E-03  -1.18917490E-06
  -4.14999994E-03  -1.21557582E-06
  -4.10000002E-03  -1.24248436E-06
  -4.05000011E-03  -1.26990869E-06
  -4.00000019E-03  -1.29785769E-06
  -3.94999981E-03  -1.32634000E-06
  -3.89999989E-03  -1.35536413E-06
  -3.84999998E-03  -1.38493920E-06
  -3.80000006E-03  -1.41507360E-06
  -3.74999992E-03  -1.44577575E-06
  -3.70000000E-03  -1.47705441E-06
  -3.65000009E-03  -1.50891799E-06
  -3.59999994E-03  -1.54137626E-06
  -3.55000002E-03  -1.57443890E-06
  -3.50000011E-03  -1.60811635E-06
  -3.44999996E-03  -1.64241806E-06
  -3.40000005E-03  -1.67735368E-06
  -3.34999990E-03  -1.71293243E-06
  -3.29999998E-03  -1.74916352E-06
  -3.25000007E-03  -1.78605694E-06
  -3.19999992E-03  -1.82362305E-06
  -3.15000000E-03  -1.86187162E-06
  -3.10000009E-03  -1.90081300E-06
  -3.04999994E-03  -1.94045788E-06
  -3.00000003E-03  -1.98081784E-06
  -2.95000011E-03  -2.02190449E-06
  -2.89999996E-03  -2.06372806E-06
  -2.85000005E-03  -2.10629764E-06
  -2.79999990E-03  -2.14962483E-06
  -2.74999999E-03  -2.19372077E-06
  -2.70000007E-03  -2.23859843E-06
  -2.64999992E-03  -2.28426939E-06
  -2.60000001E-03  -2.33074661E-06
  -2.55000009E-03  -2.37804170E-06
  -2.49999994E-03  -2.42616647E-06
  -2.45000003E-03  -2.47513321E-06
  -2.40000011E-03  -2.52495465E-06
  -2.34999997E-03  -2.57564261E-06
  -2.30000005E-03  -2.62720960E-06
  -2.24999990E-03  -2.67966675E-06
  -2.19999999E-03  -2.73302840E-06
  -2.15000007E-03  -2.78730795E-06
  -2.09999993E-03  -2.84251973E-06
  -2.05000001E-03  -2.89867648E-06
  -2.00000009E-03  -2.95579002E-06
  -1.94999995E-03  -3.01387263E-06
  -1.90000003E-03  -3.07293863E-06
  -1.85000000E-03  -3.13300166E-06
  -1.79999997E-03  -3.19407604E-06
  -1.75000005E-03  -3.25617521E-06
  -1.70000002E-03  -3.31931483E-06
  -1.64999999E-03  -3.38350947E-06
  -1.59999996E-03  -3.44877458E-06
  -1.55000004E-03  -3.51512358E-06
  -1.50000001E-03  -3.58256921E-06
  -1.44999998E-03  -3.65112578E-06
  -1.39999995E-03  -3.72080899E-06
  -1.35000004E-03  -3.79163475E-06
  -1.30000000E-03  -3.86361717E-06
  -1.24999997E-03  -3.93677283E-06
  -1.20000006E-03  -4.01111856E-06
  -1.15000003E-03  -4.08666801E-06
  -1.09999999E-03  -4.16343573E-06
  -1.04999996E-03  -4.24143673E-06
  -1.00000005E-03  -4.32068691E-06
  -9.50000016E-04  -4.40120084E-06
  -8.99999985E-04  -4.48299534E-06
  -8.50000011E-04  -4.56608541E-06
  -7.99999980E-04  -4.65048697E-06
  -7.50000007E-04  -4.73621913E-06
  -6.99999975E-04  -4.82329733E-06
  -6.50000002E-04  -4.91173523E-06
  -6.00000028E-04  -5.00154874E-06
  -5.49999997E-04  -5.09275378E-06
  -5.00000024E-04  -5.18536581E-06
  -4.49999992E-04  -5.27940210E-06
  -3.99999990E-04  -5.37487904E-06
  -3.49999988E-04  -5.47181253E-06
  -3.00000014E-04  -5.57022031E-06
  -2.50000012E-04  -5.67012012E-06
  -1.99999995E-04  -5.77152650E-06
  -1.50000007E-04  -5.87445720E-06
  -9.99999975E-05  -5.97892631E-06
  -4.99999987E-05  -6.08494929E-06
   0.00000000      -6.19254024E-06
   4.99999987E-05  -6.30171917E-06
   9.99999975E-05  -6.41250426E-06
   1.50000007E-04  -6.52491417E-06
   1.99999995E-04  -6.63896117E-06
   2.50000012E-04  -6.75465844E-06
   3.00000014E-04  -6.87202146E-06
   3.49999988E-04  -6.99106931E-06
   3.99999990E-04  -7.11181747E-06
   4.49999992E-04  -7.23427866E-06
   5.00000024E-04  -7.35846697E-06
   5.49999997E-04  -7.48440061E-06
   6.00000028E-04  -7.61209822E-06
   6.50000002E-04  -7.74157525E-06
   6.99999975E-04  -7.87284898E-06
   7.50000007E-04  -8.00592989E-06
   7.99999980E-04  -8.14083069E-06
   8.50000011E-04  -8.27756867E-06
   8.99999985E-04  -8.41616202E-06
   9.50000016E-04  -8.55662438E-06
   1.00000005E-03  -8.69896940E-06
   1.04999996E-03  -8.84320980E-06
   1.09999999E-03  -8.98936560E-06
   1.15000003E-03  -9.13745225E-06
   1.20000006E-03  -9.28748068E-06
   1.24999997E-03  -9.43945997E-06
   1.30000000E-03  -9.59340559E-06
   1.35000004E-03  -9.74933300E-06
   1.39999995E-03  -9.90725493E-06
   1.44999998E-03  -1.00671859E-05
   1.50000001E-03  -1.02291406E-05
   1.55000004E-03  -1.03931297E-05
   1.59999996E-03  -1.05591644E-05
   1.64999999E-03  -1.07272563E-05
   1.70000002E-03  -1.08974200E-05
   1.75000005E-03  -1.10696674E-05
   1.79999997E-03  -1.12440075E-05
   1.85000000E-03  -1.14204522E-05
   1.90000003E-03  -1.15990160E-05
   1.94999995E-03  -1.17797126E-05
   2.00000009E-03  -1.19625511E-05
   2.05000001E-03  -1.21475432E-05
   2.09999993E-03  -1.23346981E-05
   2.15000007E-03  -1.25240231E-05
   2.19999999E-03  -1.27155281E-05
   2.24999990E-03  -1.29092241E-05
   2.30000005E-03  -1.31051211E-05
   2.34999997E-03  -1.33032281E-05
   2.40000011E-03  -1.35035580E-05
   2.45000003E-03  -1.37061188E-05
   2.49999994E-03  -1.39109161E-05
   2.55000009E-03  -1.41179580E-05
   2.60000001E-03  -1.43272518E-05
   2.64999992E-03  -1.45388076E-05
   2.70000007E-03  -1.47526343E-05
   2.74999999E-03  -1.49687330E-05
   2.79999990E-03  -1.51871072E-05