  -3.99999991E-02   0.00000000    
  -3.99499983E-02   0.00000000    
  -3.99000011E-02   8.95166146E-12
  -3.98500003E-02   4.32450430E-11
  -3.97999994E-02   1.01430038E-10
  -3.97499986E-02   1.58621158E-10
  -3.97000015E-02   2.02152725E-10
  -3.96500006E-02   2.61050515E-10
  -3.95999998E-02   3.73375247E-10
  -3.95499989E-02   5.19709886E-10
  -3.95000018E-02   6.17586871E-10
  -3.94500010E-02   6.10177797E-10
  -3.94000001E-02   5.52245361E-10
  -3.93499993E-02   5.72770775E-10
  -3.92999984E-02   7.34878436E-10
  -3.92500013E-02   9.55072910E-10
  -3.92000005E-02   1.09164733E-09
  -3.91499996E-02   1.10719878E-09
  -3.90999988E-02   1.10540532E-09
  -3.90500017E-02   1.18791277E-09
  -3.90000008E-02   1.30742783E-09
  -3.89500000E-02   1.31247868E-09
  -3.88999991E-02   1.14218568E-09
  -3.88499983E-02   9.24816501E-10
  -3.88000011E-02   8.35295444E-10
  -3.87500003E-02   8.70090777E-10
  -3.86999995E-02   8.24188995E-10
  -3.86499986E-02   5.22426713E-10
  -3.86000015E-02   3.54007310E-11
  -3.85500006E-02  -3.93954452E-10
  -3.84999998E-02  -6.42647713E-10
  -3.84499989E-02  -8.68683236E-10
  -3.84000018E-02  -1.33421363E-09
  -3.83500010E-02  -2.09401274E-09
  -3.83000001E-02  -2.92686009E-09
  -3.82499993E-02  -3.59719765E-09
  -3.81999984E-02  -4.12649870E-09
  -3.81500013E-02  -4.73714890E-09
  -3.81000005E-02  -5.54071677E-09
  -3.80499996E-02  -6.37317799E-09
  -3.79999988E-02  -7.00675873E-09
  -3.79500017E-02  -7.48854401E-09
  -3.79000008E-02  -8.16676327E-09
  -3.78500000E-02  -9.32590449E-09
  -3.77999991E-02  -1.08390390E-08
  -3.77499983E-02  -1.22568240E-08
  -3.77000012E-02  -1.32509310E-08
  -3.76500003E-02  -1.39113165E-08
  -3.75999995E-02  -1.45718611E-08
  -3.75499986E-02  -1.53991166E-08
  -3.75000015E-02  -1.62433889E-08
  -3.74500006E-02  -1.69008629E-08
  -3.73999998E-02  -1.74103576E-08
  -3.73499990E-02  -1.79696134E-08
  -3.73000018E-02  -1.85601454E-08
  -3.72500010E-02  -1.87854905E-08
  -3.72000001E-02  -1.82119102E-08
  -3.71499993E-02  -1.68857444E-08
  -3.70999984E-02  -1.54326294E-08
  -3.70500013E-02  -1.45734065E-08
  -3.70000005E-02  -1.45347103E-08
  -3.69499996E-02  -1.49372319E-08
  -3.68999988E-02  -1.51979940E-08
  -3.68500017E-02  -1.49422075E-08
  -3.68000008E-02  -1.40135308E-08
  -3.67500000E-02  -1.22399051E-08
  -3.66999991E-02  -9.42145206E-09
  -3.66499983E-02  -5.66494363E-09
  -3.66000012E-02  -1.63642355E-09
  -3.65500003E-02   1.73047343E-09
  -3.64999995E-02   3.94250943E-09
  -3.64499986E-02   5.40697620E-09
  -3.64000015E-02   7.15657134E-09
  -3.63500006E-02   1.00776978E-08
  -3.62999998E-02   1.43507126E-08
  -3.62499990E-02   1.95214511E-08
  -3.62000018E-02   2.49490153E-08
  -3.61500010E-02   3.00978300E-08
  -3.61000001E-02   3.45172460E-08
  -3.60499993E-02   3.78343294E-08
  -3.59999985E-02   4.00355553E-08
  -3.59500013E-02   4.17998720E-08
  -3.59000005E-02   4.43576162E-08
  -3.58499996E-02   4.87367480E-08
  -3.57999988E-02   5.49444152E-08
  -3.57500017E-02   6.18255100E-08
  -3.57000008E-02   6.77702090E-08
  -3.56500000E-02   7.16871895E-08
  -3.55999991E-02   7.34984980E-08
  -3.55499983E-02   7.39497281E-08
  -3.55000012E-02   7.41217931E-08
  -3.54500003E-02   7.50665521E-08
  -3.53999995E-02   7.75740077E-08
  -3.53499986E-02   8.18406889E-08
  -3.53000015E-02   8.70785826E-08
  -3.52500007E-02   9.15076086E-08
  -3.51999998E-02   9.30841750E-08
  -3.51499990E-02   9.06796842E-08
  -3.51000018E-02   8.48735553E-08
  -3.50500010E-02   7.77028717E-08
  -3.50000001E-02   7.15161761E-08
  -3.49499993E-02   6.77495464E-08
  -3.48999985E-02   6.63716904E-08
  -3.48500013E-02   6.61058053E-08
  -3.48000005E-02   6.50314789E-08
  -3.47499996E-02   6.12146493E-08
  -3.46999988E-02   5.33335047E-08
  -3.46500017E-02   4.13167882E-08
  -3.46000008E-02   2.66963802E-08
  -3.45500000E-02   1.21879102E-08
  -3.44999991E-02   4.02222033E-10
  -3.44499983E-02  -7.65380914E-09
  -3.44000012E-02  -1.32599105E-08
  -3.43500003E-02  -1.93124876E-08
  -3.42999995E-02  -2.87452000E-08
  -3.42499986E-02  -4.30831548E-08
  -3.42000015E-02  -6.19081888E-08
  -3.41500007E-02  -8.32494678E-08
  -3.40999998E-02  -1.04422931E-07
  -3.40499990E-02  -1.22942993E-07
  -3.40000018E-02  -1.37416706E-07
  -3.39500010E-02  -1.48282993E-07
  -3.39000002E-02  -1.57936157E-07
  -3.38499993E-02  -1.69770786E-07
  -3.37999985E-02  -1.86348288E-07
  -3.37500013E-02  -2.07734317E-07
  -3.37000005E-02  -2.31197120E-07
  -3.36499996E-02  -2.52575234E-07
  -3.35999988E-02  -2.68424202E-07
  -3.35500017E-02  -2.77592164E-07
  -3.35000008E-02  -2.81485882E-07
  -3.34500000E-02  -2.83258942E-07
  -3.33999991E-02  -2.86569247E-07
  -3.33499983E-02  -2.94291937E-07
  -3.33000012E-02  -3.07305726E-07
  -3.32500003E-02  -3.23688994E-07
  -3.31999995E-02  -3.39011109E-07
  -3.31499986E-02  -3.48114384E-07
  -3.31000015E-02  -3.47708692E-07
  -3.30500007E-02  -3.38192166E-07
  -3.29999998E-02  -3.23411712E-07
  -3.29499990E-02  -3.08500972E-07
  -3.29000019E-02  -2.97263711E-07
  -3.28500010E-02  -2.90628321E-07
  -3.28000002E-02  -2.86639988E-07
  -3.27499993E-02  -2.81459563E-07
  -3.26999985E-02  -2.70736194E-07
  -3.26500013E-02  -2.51156877E-07
  -3.26000005E-02  -2.22012943E-07
  -3.25499997E-02  -1.86072441E-07
  -3.24999988E-02  -1.48783855E-07
  -3.24500017E-02  -1.15678773E-07
  -3.24000008E-02  -8.93358703E-08
  -3.23500000E-02  -6.79319996E-08
  -3.22999991E-02  -4.63828513E-08
  -3.22499983E-02  -1.91900487E-08
  -3.22000012E-02   1.69254388E-08
  -3.21500003E-02   6.19182075E-08
  -3.20999995E-02   1.12792023E-07
  -3.20499986E-02   1.64733336E-07
  -3.20000015E-02   2.12638966E-07
  -3.19500007E-02   2.53044732E-07
  -3.18999998E-02   2.85995156E-07
  -3.18499990E-02   3.15607878E-07
  -3.18000019E-02   3.48311374E-07
  -3.17500010E-02   3.89322736E-07
  -3.17000002E-02   4.39534062E-07
  -3.16499993E-02   4.94914218E-07
  -3.15999985E-02   5.48694345E-07
  -3.15500014E-02   5.94666233E-07
  -3.15000005E-02   6.29588953E-07
  -3.14499997E-02   6.53928225E-07
  -3.13999988E-02   6.71372959E-07
  -3.13500017E-02   6.87622958E-07
  -3.13000008E-02   7.08406901E-07
  -3.12500000E-02   7.36844640E-07
  -3.11999992E-02   7.71296357E-07
  -3.11500002E-02   8.05426453E-07
  -3.10999993E-02   8.31105183E-07
  -3.10500003E-02   8.42622853E-07
  -3.09999995E-02   8.39513234E-07
  -3.09500005E-02   8.26287703E-07
  -3.08999997E-02   8.09697440E-07
  -3.08500007E-02   7.95570429E-07
  -3.07999998E-02   7.86766236E-07
  -3.07500008E-02   7.82455004E-07
  -3.07000000E-02   7.78327660E-07
  -3.06499992E-02   7.67798497E-07
  -3.06000002E-02   7.44500881E-07
  -3.05499993E-02   7.05467983E-07
  -3.05000003E-02   6.53146571E-07
  -3.04499995E-02   5.94467508E-07
  -3.04000005E-02   5.37141659E-07
  -3.03499997E-02   4.85519536E-07
  -3.03000007E-02   4.38668565E-07
  -3.02499998E-02   3.91505296E-07
  -3.02000009E-02   3.37676454E-07
  -3.01500000E-02   2.72293846E-07
  -3.00999992E-02   1.93616813E-07
  -3.00500002E-02   1.03774575E-07
  -2.99999993E-02   8.52318660E-09
  -2.99500003E-02  -8.44595220E-08
  -2.98999995E-02  -1.68820222E-07
  -2.98500005E-02  -2.42944822E-07
  -2.97999997E-02  -3.11239290E-07
  -2.97500007E-02  -3.81986723E-07
  -2.96999998E-02  -4.62906257E-07
  -2.96500009E-02  -5.57211649E-07
  -2.96000000E-02  -6.62386299E-07
  -2.95499992E-02  -7.71780662E-07
  -2.95000002E-02  -8.77495893E-07
  -2.94499993E-02  -9.73075544E-07
  -2.94000003E-02  -1.05549282E-06
  -2.93499995E-02  -1.12630232E-06
  -2.93000005E-02  -1.19138770E-06
  -2.92499997E-02  -1.25861868E-06
  -2.92000007E-02  -1.33387186E-06
  -2.91499998E-02  -1.41749206E-06
  -2.91000009E-02  -1.50360142E-06
  -2.90500000E-02  -1.58292994E-06
  -2.89999992E-02  -1.64738935E-06
  -2.89500002E-02  -1.69358555E-06
  -2.88999993E-02  -1.72359262E-06
  -2.88500004E-02  -1.74333491E-06
  -2.87999995E-02  -1.75994569E-06
  -2.87500005E-02  -1.77914490E-06
  -2.86999997E-02  -1.80301731E-06
  -2.86500007E-02  -1.82865551E-06
  -2.85999998E-02  -1.84867326E-06
  -2.85500009E-02  -1.85415388E-06
  -2.85000000E-02  -1.83901295E-06
  -2.84499992E-02  -1.80327982E-06
  -2.84000002E-02  -1.75305570E-06
  -2.83499993E-02  -1.69710393E-06
  -2.83000004E-02  -1.64229118E-06
  -2.82499995E-02  -1.59056833E-06
  -2.82000005E-02  -1.53869769E-06
  -2.81499997E-02  -1.48009133E-06
  -2.81000007E-02  -1.40750535E-06
  -2.80499998E-02  -1.31578815E-06
  -2.80000009E-02  -1.20423874E-06
  -2.79500000E-02  -1.07777896E-06
  -2.78999992E-02  -9.45741078E-07
  -2.78500002E-02  -8.17972762E-07
  -2.77999993E-02  -6.99960310E-07
  -2.77500004E-02  -5.89892863E-07
  -2.76999995E-02  -4.79700532E-07
  -2.76500005E-02  -3.59447540E-07
  -2.75999997E-02  -2.22318022E-07
  -2.75500007E-02  -6.75304292E-08
  -2.74999999E-02   9.96802854E-08
  -2.74500009E-02   2.70176770E-07
  -2.74000000E-02   4.33964601E-07
  -2.73499992E-02   5.83528163E-07
  -2.73000002E-02   7.16842749E-07
  -2.72499993E-02   8.38696963E-07
  -2.72000004E-02   9.58829332E-07
  -2.71499995E-02   1.08701829E-06
  -2.71000005E-02   1.22758399E-06
  -2.70499997E-02   1.37670042E-06
  -2.70000007E-02   1.52427697E-06
  -2.69499999E-02   1.65899326E-06
  -2.69000009E-02   1.77323739E-06
  -2.68500000E-02   1.86552006E-06
  -2.67999992E-02   1.94006066E-06
  -2.67500002E-02   2.00463637E-06
  -2.66999993E-02   2.06753089E-06
  -2.66500004E-02   2.13393196E-06
  -2.65999995E-02   2.20274319E-06
  -2.65500005E-02   2.26575276E-06
  -2.64999997E-02   2.31071567E-06
  -2.64500007E-02   2.32740854E-06
  -2.63999999E-02   2.31313106E-06
  -2.63500009E-02   2.27403234E-06
  -2.63000000E-02   2.22149970E-06
  -2.62499992E-02   2.16618832E-06
  -2.62000002E-02   2.11327506E-06
  -2.61499994E-02   2.06088657E-06
  -2.61000004E-02   2.00121258E-06
  -2.60499995E-02   1.92321590E-06
  -2.60000005E-02   1.81651353E-06
  -2.59499997E-02   1.67585176E-06
  -2.59000007E-02   1.50446249E-06
  -2.58499999E-02   1.31369166E-06
  -2.58000009E-02   1.11782526E-06
  -2.57500000E-02   9.26549887E-07
  -2.56999992E-02   7.39804875E-07
  -2.56500002E-02   5.48198045E-07
  -2.55999994E-02   3.38334502E-07
  -2.55500004E-02   9.94296414E-08
  -2.54999995E-02  -1.72364736E-07
  -2.54500005E-02  -4.72866361E-07
  -2.53999997E-02  -7.91342927E-07
  -2.53500007E-02  -1.11390125E-06
  -2.52999999E-02  -1.42854230E-06
  -2.52500009E-02  -1.73067758E-06
  -2.52000000E-02  -2.02615115E-06
  -2.51499992E-02  -2.32899311E-06
  -2.51000002E-02  -2.65412950E-06
  -2.50499994E-02  -3.00921351E-06
  -2.50000004E-02  -3.39072062E-06
  -2.49499995E-02  -3.78630989E-06
  -2.49000005E-02  -4.18129594E-06
  -2.48499997E-02  -4.56502130E-06
  -2.48000007E-02  -4.93434482E-06
  -2.47499999E-02  -5.29409135E-06
  -2.47000009E-02  -5.65505479E-06
  -2.46500000E-02  -6.02976797E-06
  -2.45999992E-02  -6.42657096E-06
  -2.45500002E-02  -6.84415045E-06
  -2.44999994E-02  -7.27039469E-06
  -2.44500004E-02  -7.68756581E-06
  -2.43999995E-02  -8.08127697E-06
  -2.43500005E-02  -8.44807346E-06
  -2.42999997E-02  -8.79674099E-06
  -2.42500007E-02  -9.14314751E-06
  -2.41999999E-02  -9.50242793E-06
  -2.41500009E-02  -9.88262946E-06
  -2.41000000E-02  -1.02819859E-05
  -2.40499992E-02  -1.06894558E-05
  -2.40000002E-02  -1.10882065E-05
  -2.39499994E-02  -1.14619561E-05
  -2.39000004E-02  -1.18026173E-05
  -2.38499995E-02  -1.21151015E-05
  -2.38000005E-02  -1.24157978E-05
  -2.37499997E-02  -1.27246076E-05
  -2.37000007E-02  -1.30546341E-05
  -2.36499999E-02  -1.34059192E-05
  -2.36000009E-02  -1.37662237E-05
  -2.35500000E-02  -1.41176333E-05
  -2.34999992E-02  -1.44449368E-05
  -2.34500002E-02  -1.47418968E-05
  -2.33999994E-02  -1.50133183E-05
  -2.33500004E-02  -1.52733683E-05
  -2.32999995E-02  -1.55405378E-05
  -2.32500006E-02  -1.58297280E-05
  -2.31999997E-02  -1.61449570E-05
  -2.31500007E-02  -1.64764733E-05
  -2.30999999E-02  -1.68048718E-05
  -2.30500009E-02  -1.71112479E-05
  -2.30000000E-02  -1.73872431E-05
  -2.29499992E-02  -1.76390549E-05
  -2.29000002E-02  -1.78840710E-05
  -2.28499994E-02  -1.81424221E-05
  -2.28000004E-02  -1.84281071E-05
  -2.27499995E-02  -1.87441510E-05
  -2.27000006E-02  -1.90817809E-05
  -2.26499997E-02  -1.94237491E-05
  -2.26000007E-02  -1.97514037E-05
  -2.25499999E-02  -2.00536761E-05
  -2.25000009E-02  -2.03336331E-05
  -2.24500000E-02  -2.06082204E-05
  -2.23999992E-02  -2.09010777E-05
  -2.23500002E-02  -2.12303985E-05
  -2.22999994E-02  -2.15995879E-05
  -2.22500004E-02  -2.19963604E-05
  -2.21999995E-02  -2.23996303E-05
  -2.21500006E-02  -2.27894052E-05
  -2.20999997E-02  -2.31551403E-05
  -2.20500007E-02  -2.35000716E-05
  -2.19999999E-02  -2.38400571E-05
  -2.19500009E-02  -2.41980269E-05
  -2.19000001E-02  -2.45953725E-05
  -2.18499992E-02  -2.50416342E-05
  -2.18000002E-02  -2.55287832E-05
  -2.17499994E-02  -2.60346205E-05
  -2.17000004E-02  -2.65335984E-05
  -2.16499995E-02  -2.70092605E-05
  -2.16000006E-02  -2.74620779E-05
  -2.15499997E-02  -2.79080305E-05
  -2.15000007E-02  -2.83699555E-05
  -2.14499999E-02  -2.88673000E-05
  -2.14000009E-02  -2.94082784E-05
  -2.13500001E-02  -2.99872245E-05
  -2.12999992E-02  -3.05866670E-05
  -2.12500002E-02  -3.11848889E-05
  -2.11999994E-02  -3.17657068E-05
  -2.11500004E-02  -3.23269305E-05
  -2.10999995E-02  -3.28832793E-05
  -2.10500006E-02  -3.34604556E-05
  -2.09999997E-02  -3.40824481E-05
  -2.09500007E-02  -3.47591340E-05
  -2.08999999E-02  -3.54816402E-05
  -2.08500009E-02  -3.62276987E-05
  -2.08000001E-02  -3.69729460E-05
  -2.07499992E-02  -3.77012548E-05
  -2.07000002E-02  -3.84107771E-05
  -2.06499994E-02  -3.91153553E-05
  -2.06000004E-02  -3.98398115E-05
  -2.05499995E-02  -4.06098479E-05
  -2.05000006E-02  -4.14417227E-05
  -2.04499997E-02  -4.23336605E-05
  -2.04000007E-02  -4.32662928E-05
  -2.03499999E-02  -4.42123892E-05
  -2.03000009E-02  -4.51511296E-05
  -2.02500001E-02  -4.60795382E-05
  -2.01999992E-02  -4.70133236E-05
  -2.01500002E-02  -4.79795635E-05
  -2.00999994E-02  -4.90050443E-05
  -2.00500004E-02  -5.01058057E-05
  -1.99999996E-02  -5.12810220E-05
  -1.99500006E-02  -5.25144642E-05
  -1.98999997E-02  -5.37821834E-05
  -1.98500007E-02  -5.50626282E-05
  -1.97999999E-02  -5.63472968E-05
  -1.97500009E-02  -5.76470957E-05
  -1.97000001E-02  -5.89900519E-05
  -1.96499992E-02  -6.04089400E-05
  -1.96000002E-02  -6.19261627E-05
  -1.95499994E-02  -6.35443794E-05
  -1.95000004E-02  -6.52470990E-05
  -1.94499996E-02  -6.70100053E-05
  -1.94000006E-02  -6.88134533E-05
  -1.93499997E-02  -7.06516439E-05
  -1.93000007E-02  -7.25345089E-05
  -1.92499999E-02  -7.44848221E-05
  -1.92000009E-02  -7.65314326E-05
  -1.91500001E-02  -7.86976525E-05
  -1.90999992E-02  -8.09917401E-05
  -1.90500002E-02  -8.34015445E-05
  -1.89999994E-02  -8.58998828E-05
  -1.89500004E-02  -8.84625915E-05
  -1.88999996E-02  -9.10829840E-05
  -1.88500006E-02  -9.37748191E-05
  -1.87999997E-02  -9.65660583E-05
  -1.87500007E-02  -9.94884758E-05
  -1.86999999E-02  -1.02565318E-04
  -1.86500009E-02  -1.05803440E-04
  -1.86000001E-02  -1.09191380E-04
  -1.85499992E-02  -1.12705085E-04
  -1.85000002E-02  -1.16319294E-04
  -1.84499994E-02  -1.20017401E-04
  -1.84000004E-02  -1.23801830E-04
  -1.83499996E-02  -1.27697305E-04
  -1.83000006E-02  -1.31741763E-04
  -1.82499997E-02  -1.35967144E-04
  -1.82000007E-02  -1.40383243E-04
  -1.81499999E-02  -1.44977792E-04
  -1.81000009E-02  -1.49726446E-04
  -1.80500001E-02  -1.54605848E-04
  -1.79999992E-02  -1.59602569E-04
  -1.79500002E-02  -1.64718542E-04
  -1.78999994E-02  -1.69970372E-04
  -1.78500004E-02  -1.75385852E-04
  -1.77999996E-02  -1.80993389E-04
  -1.77500006E-02  -1.86807578E-04
  -1.76999997E-02  -1.92823325E-04
  -1.76500008E-02  -1.99014888E-04
  -1.75999999E-02  -2.05348551E-04
  -1.75500009E-02  -2.11804290E-04
  -1.75000001E-02  -2.18386864E-04
  -1.74499992E-02  -2.25120588E-04
  -1.74000002E-02  -2.32037011E-04
  -1.73499994E-02  -2.39158690E-04
  -1.73000004E-02  -2.46493233E-04
  -1.72499996E-02  -2.54038023E-04
  -1.72000006E-02  -2.61777255E-04
  -1.71499997E-02  -2.69683951E-04
  -1.71000008E-02  -2.77732383E-04
  -1.70499999E-02  -2.85908929E-04
  -1.70000009E-02  -2.94229452E-04
  -1.69500001E-02  -3.02733242E-04
  -1.68999992E-02  -3.11451993E-04
  -1.68500002E-02  -3.20394203E-04
  -1.67999994E-02  -3.29548930E-04
  -1.67500004E-02  -3.38892482E-04
  -1.66999996E-02  -3.48396279E-04
  -1.66500006E-02  -3.58043122E-04
  -1.65999997E-02  -3.67832865E-04
  -1.65500008E-02  -3.77775752E-04
  -1.64999999E-02  -3.87893902E-04
  -1.64500009E-02  -3.98220291E-04
  -1.64000001E-02  -4.08782595E-04
  -1.63499992E-02  -4.19587246E-04
  -1.63000003E-02  -4.30607528E-04
  -1.62499994E-02  -4.41798940E-04
  -1.62000004E-02  -4.53133602E-04
  -1.61499996E-02  -4.64616547E-04
  -1.61000006E-02  -4.76266927E-04
  -1.60499997E-02  -4.88102814E-04
  -1.60000008E-02  -5.00141468E-04
  -1.59499999E-02  -5.12402097E-04
  -1.59000009E-02  -5.24899864E-04
  -1.58500001E-02  -5.37626038E-04
  -1.57999992E-02  -5.50554134E-04
  -1.57500003E-02  -5.63655572E-04
  -1.56999994E-02  -5.76913881E-04
  -1.56500004E-02  -5.90344134E-04
  -1.55999996E-02  -6.03986729E-04
  -1.55499997E-02  -6.17876009E-04
  -1.54999997E-02  -6.32024952E-04
  -1.54499998E-02  -6.46428089E-04
  -1.53999999E-02  -6.61069760E-04
  -1.53500000E-02  -6.75928080E-04
  -1.53000001E-02  -6.90986402E-04
  -1.52500002E-02  -7.06238381E-04
  -1.52000003E-02  -7.21690129E-04
  -1.51500003E-02  -7.37366092E-04
  -1.51000004E-02  -7.53301487E-04
  -1.50499996E-02  -7.69534963E-04
  -1.49999997E-02  -7.86075601E-04
  -1.49499997E-02  -8.02896800E-04
  -1.48999998E-02  -8.19974521E-04
  -1.48499999E-02  -8.37290369E-04
  -1.48000000E-02  -8.54845450E-04
  -1.47500001E-02  -8.72654549E-04
  -1.47000002E-02  -8.90741590E-04
  -1.46500003E-02  -9.09130322E-04
  -1.46000003E-02  -9.27832909E-04
  -1.45500004E-02  -9.46873450E-04
  -1.44999996E-02  -9.66260559E-04
  -1.44499997E-02  -9.85966646E-04
  -1.43999998E-02  -1.00595341E-03
  -1.43499998E-02  -1.02621794E-03
  -1.42999999E-02  -1.04679260E-03
  -1.42500000E-02  -1.06770813E-03
  -1.42000001E-02  -1.08898559E-03
  -1.41500002E-02  -1.11063756E-03
  -1.41000003E-02  -1.13268790E-03
  -1.40500003E-02  -1.15515210E-03
  -1.40000004E-02  -1.17800967E-03
  -1.39499996E-02  -1.20122312E-03
  -1.38999997E-02  -1.22477615E-03
  -1.38499998E-02  -1.24869752E-03
  -1.37999998E-02  -1.27302366E-03
  -1.37499999E-02  -1.29777822E-03
  -1.37000000E-02  -1.32298993E-03
  -1.36500001E-02  -1.34865823E-03
  -1.36000002E-02  -1.37477764E-03
  -1.35500003E-02  -1.40136154E-03
  -1.35000004E-02  -1.42838969E-03
  -1.34500004E-02  -1.45583809E-03
  -1.33999996E-02  -1.48372503E-03
  -1.33499997E-02  -1.51209836E-03
  -1.32999998E-02  -1.54099788E-03
  -1.32499998E-02  -1.57043862E-03
  -1.31999999E-02  -1.60042453E-03
  -1.31500000E-02  -1.63096271E-03
  -1.31000001E-02  -1.66204188E-03
  -1.30500002E-02  -1.69363874E-03
  -1.30000003E-02  -1.72574387E-03
  -1.29500004E-02  -1.75835169E-03
  -1.29000004E-02  -1.79148873E-03
  -1.28499996E-02  -1.82522973E-03
  -1.27999997E-02  -1.85962592E-03
  -1.27499998E-02  -1.89465529E-03
  -1.26999998E-02  -1.93029956E-03
  -1.26499999E-02  -1.96657586E-03
  -1.26000000E-02  -2.00350210E-03
  -1.25500001E-02  -2.04109773E-03
  -1.25000002E-02  -2.07933760E-03
  -1.24500003E-02  -2.11819890E-03
  -1.24000004E-02  -2.15773284E-03
  -1.23500004E-02  -2.19801790E-03
  -1.22999996E-02  -2.23906222E-03
  -1.22499997E-02  -2.28081504E-03
  -1.21999998E-02  -2.32324284E-03
  -1.21499998E-02  -2.36634095E-03
  -1.20999999E-02  -2.41018040E-03
  -1.20500000E-02  -2.45480542E-03
  -1.20000001E-02  -2.50017294E-03
  -1.19500002E-02  -2.54631322E-03
  -1.19000003E-02  -2.59334035E-03
  -1.18500004E-02  -2.64131534E-03
  -1.18000004E-02  -2.69022677E-03
  -1.17499996E-02  -2.74001388E-03
  -1.16999997E-02  -2.79060821E-03
  -1.16499998E-02  -2.84202769E-03
  -1.15999999E-02  -2.89433100E-03
  -1.15499999E-02  -2.94754072E-03
  -1.15000000E-02  -3.00164614E-03
  -1.14500001E-02  -3.05661699E-03
  -1.14000002E-02  -3.11248167E-03
  -1.13500003E-02  -3.16930725E-03
  -1.13000004E-02  -3.22709722E-03
  -1.12500004E-02  -3.28582316E-03
  -1.11999996E-02  -3.34551535E-03
  -1.11499997E-02  -3.40625853E-03
  -1.10999998E-02  -3.46812792E-03
  -1.10499999E-02  -3.53115192E-03
  -1.09999999E-02  -3.59530887E-03
  -1.09500000E-02  -3.66065698E-03
  -1.09000001E-02  -3.72725260E-03
  -1.08500002E-02  -3.79504985E-03
  -1.08000003E-02  -3.86395026E-03
  -1.07500004E-02  -3.93385952E-03
  -1.07000005E-02  -4.00477182E-03
  -1.06499996E-02  -4.07678215E-03
  -1.05999997E-02  -4.14994312E-03
  -1.05499998E-02  -4.22428688E-03
  -1.04999999E-02  -4.29982459E-03
  -1.04499999E-02  -4.37652692E-03
  -1.04000000E-02  -4.45443112E-03
  -1.03500001E-02  -4.53360705E-03
  -1.03000002E-02  -4.61411662E-03
  -1.02500003E-02  -4.69591515E-03
  -1.02000004E-02  -4.77897236E-03
  -1.01500005E-02  -4.86339768E-03
  -1.00999996E-02  -4.94930707E-03
  -1.00499997E-02  -5.03673498E-03
  -9.99999978E-03  -5.12562506E-03
  -9.94999986E-03  -5.21585019E-03
  -9.89999995E-03  -5.30743087E-03
  -9.85000003E-03  -5.40048024E-03
  -9.80000012E-03  -5.49498945E-03
  -9.75000020E-03  -5.59085701E-03
  -9.70000029E-03  -5.68806520E-03
  -9.65000037E-03  -5.78673743E-03
  -9.60000046E-03  -5.88695006E-03
  -9.54999961E-03  -5.98867750E-03
  -9.49999969E-03  -6.09189551E-03
  -9.44999978E-03  -6.19653240E-03
  -9.39999986E-03  -6.30243449E-03
  -9.34999995E-03  -6.40966743E-03
  -9.30000003E-03  -6.51846966E-03
  -9.25000012E-03  -6.62895525E-03
  -9.20000020E-03  -6.74107764E-03
  -9.15000029E-03  -6.85467385E-03
  -9.10000037E-03  -6.96981419E-03
  -9.05000046E-03  -7.08673615E-03
  -8.99999961E-03  -7.20557990E-03
  -8.94999970E-03  -7.32606743E-03
  -8.89999978E-03  -7.44791375E-03
  -8.84999987E-03  -7.57137407E-03
  -8.79999995E-03  -7.69672263E-03
  -8.75000004E-03  -7.82397669E-03
  -8.70000012E-03  -7.95290805E-03
  -8.65000021E-03  -8.08339939E-03
  -8.60000029E-03  -8.21565557E-03
  -8.55000038E-03  -8.34973063E-03
  -8.50000046E-03  -8.48541502E-03
  -8.44999962E-03  -8.62259977E-03
  -8.39999970E-03  -8.76137801E-03
  -8.34999979E-03  -8.90195277E-03
  -8.29999987E-03  -9.04438645E-03
  -8.24999996E-03  -9.18853655E-03
  -8.20000004E-03  -9.33436584E-03
  -8.15000013E-03  -9.48196091E-03
  -8.10000021E-03  -9.63145215E-03
  -8.05000030E-03  -9.78292152E-03
  -8.00000038E-03  -9.93620511E-03
  -7.95000046E-03  -1.00910505E-02
  -7.89999962E-03  -1.02475118E-02
  -7.84999970E-03  -1.04059260E-02
  -7.79999979E-03  -1.05665866E-02
  -7.74999987E-03  -1.07294451E-02
  -7.69999996E-03  -1.08941216E-02
  -7.65000004E-03  -1.10603319E-02
  -7.60000013E-03  -1.12282680E-02
  -7.55000021E-03  -1.13983378E-02
  -7.49999983E-03  -1.15706893E-02
  -7.44999992E-03  -1.17449416E-02
  -7.40000000E-03  -1.19207399E-02
  -7.35000009E-03  -1.20983487E-02
  -7.30000017E-03  -1.22782886E-02
  -7.24999979E-03  -1.24606155E-02
  -7.19999988E-03  -1.26449196E-02
  -7.14999996E-03  -1.28308618E-02
  -7.10000005E-03  -1.30183417E-02
  -7.05000013E-03  -1.32076768E-02
  -7.00000022E-03  -1.33992638E-02
  -6.94999984E-03  -1.35931317E-02
  -6.89999992E-03  -1.37889171E-02
  -6.85000001E-03  -1.39863025E-02
  -6.80000009E-03  -1.41854947E-02
  -6.75000018E-03  -1.43870767E-02
  -6.69999979E-03  -1.45911789E-02
  -6.64999988E-03  -1.47972647E-02
  -6.59999996E-03  -1.50047727E-02
  -6.55000005E-03  -1.52140176E-02
  -6.50000013E-03  -1.54257733E-02
  -6.45000022E-03  -1.56402234E-02
  -6.39999984E-03  -1.58569682E-02
  -6.34999992E-03  -1.60756540E-02
  -6.30000001E-03  -1.62963662E-02
  -6.25000009E-03  -1.65191367E-02
  -6.20000018E-03  -1.67440511E-02
  -6.14999980E-03  -1.69711858E-02
  -6.09999988E-03  -1.72002744E-02
  -6.04999997E-03  -1.74311083E-02
  -6.00000005E-03  -1.76638532E-02
  -5.95000014E-03  -1.78986490E-02
  -5.90000022E-03  -1.81356128E-02
  -5.84999984E-03  -1.83748323E-02
  -5.79999993E-03  -1.86161008E-02
  -5.75000001E-03  -1.88591257E-02
  -5.70000010E-03  -1.91038828E-02
  -5.65000018E-03  -1.93504747E-02
  -5.59999980E-03  -1.95991807E-02
  -5.54999989E-03  -1.98502988E-02
  -5.49999997E-03  -2.01038197E-02
  -5.45000006E-03  -2.03595534E-02
  -5.40000014E-03  -2.06171200E-02
  -5.35000023E-03  -2.08765976E-02
  -5.29999984E-03  -2.11383589E-02
  -5.24999993E-03  -2.14026794E-02
  -5.20000001E-03  -2.16689575E-02
  -5.15000010E-03  -2.19362546E-02
  -5.10000018E-03  -2.22051516E-02
  -5.04999980E-03  -2.24766787E-02
  -4.99999989E-03  -2.27509122E-02
  -4.94999997E-03  -2.30269730E-02
  -4.90000006E-03  -2.33040135E-02
  -4.85000014E-03  -2.35822164E-02
  -4.80000023E-03  -2.38622669E-02
  -4.74999985E-03  -2.41444856E-02
  -4.69999993E-03  -2.44285148E-02
  -4.65000002E-03  -2.47135591E-02
  -4.60000010E-03  -2.49994956E-02
  -4.55000019E-03  -2.52874717E-02
  -4.49999981E-03  -2.55784187E-02
  -4.44999989E-03  -2.58716941E-02
  -4.39999998E-03  -2.61660386E-02
  -4.35000006E-03  -2.64611281E-02
  -4.30000015E-03  -2.67576072E-02
  -4.25000023E-03  -2.70561334E-02
  -4.19999985E-03  -2.73565948E-02
  -4.14999994E-03  -2.76585128E-02
  -4.10000002E-03  -2.79616453E-02
  -4.05000011E-03  -2.82659251E-02
  -4.00000019E-03  -2.85717919E-02
  -3.94999981E-03  -2.88792327E-02
  -3.89999989E-03  -2.91873794E-02
  -3.84999998E-03  -2.94957571E-02
  -3.80000006E-03  -2.98046656E-02
  -3.74999992E-03  -3.01146209E-02
  -3.70000000E-03  -3.04263327E-02
  -3.65000009E-03  -3.07396073E-02
  -3.59999994E-03  -3.10533531E-02
  -3.55000002E-03  -3.13670672E-02
  -3.50000011E-03  -3.16812657E-02
  -3.44999996E-03  -3.19967605E-02
  -3.40000005E-03  -3.23132500E-02
  -3.34999990E-03  -3.26300599E-02
  -3.29999998E-03  -3.29466090E-02
  -3.25000007E-03  -3.32627632E-02
  -3.19999992E-03  -3.35798450E-02
  -3.15000000E-03  -3.38985510E-02
  -3.10000009E-03  -3.42177749E-02
  -3.04999994E-03  -3.45361419E-02
  -3.00000003E-03  -3.48534063E-02
  -2.95000011E-03  -3.51703390E-02
  -2.89999996E-03  -3.54878642E-02
  -2.85000005E-03  -3.58057246E-02
  -2.79999990E-03  -3.61227132E-02
  -2.74999999E-03  -3.64386477E-02
  -2.70000007E-03  -3.67542356E-02
  -2.64999992E-03  -3.70696411E-02
  -2.60000001E-03  -3.73845957E-02
  -2.55000009E-03  -3.76983546E-02
  -2.49999994E-03  -3.80099602E-02
  -2.45000003E-03  -3.83194424E-02
  -2.40000011E-03  -3.86278145E-02
  -2.34999997E-03  -3.89360562E-02
  -2.30000005E-03  -3.92433181E-02
  -2.24999990E-03  -3.95482332E-02
  -2.19999999E-03  -3.98505181E-02
  -2.15000007E-03  -4.01506834E-02
  -2.09999993E-03  -4.04497497E-02
  -2.05000001E-03  -4.07471284E-02
  -2.00000009E-03  -4.10413034E-02
  -1.94999995E-03  -4.13322002E-02
  -1.90000003E-03  -4.16206270E-02
  -1.85000000E-03  -4.19072025E-02
  -1.79999997E-03  -4.21915092E-02
  -1.75000005E-03  -4.24732007E-02
  -1.70000002E-03  -4.27516587E-02
  -1.64999999E-03  -4.30255979E-02
  -1.59999996E-03  -4.32950743E-02
  -1.55000004E-03  -4.35607061E-02
  -1.50000001E-03  -4.38230485E-02
  -1.44999998E-03  -4.40819748E-02
  -1.39999995E-03  -4.43357192E-02
  -1.35000004E-03  -4.45839986E-02
  -1.30000000E-03  -4.48277481E-02
  -1.24999997E-03  -4.50671650E-02
  -1.20000006E-03  -4.53025885E-02
  -1.15000003E-03  -4.55325209E-02
  -1.09999999E-03  -4.57539856E-02
  -1.04999996E-03  -4.59673554E-02
  -1.00000005E-03  -4.61767241E-02
  -9.50000016E-04  -4.63842079E-02
  -8.99999985E-04  -4.65867817E-02
  -8.50000011E-04  -4.67800386E-02
  -7.99999980E-04  -4.69625555E-02
  -7.50000007E-04  -4.71380018E-02
  -6.99999975E-04  -4.73099351E-02
  -6.50000002E-04  -4.74763997E-02
  -6.00000028E-04  -4.76324484E-02
  -5.49999997E-04  -4.77760881E-02
  -5.00000024E-04  -4.79110703E-02
  -4.49999992E-04  -4.80417944E-02
  -3.99999990E-04  -4.81669642E-02
  -3.49999988E-04  -4.82811928E-02
  -3.00000014E-04  -4.83817235E-02
  -2.50000012E-04  -4.84706089E-02
  -1.99999995E-04  -4.85517904E-02
  -1.50000007E-04  -4.86257672E-02
  -9.99999975E-05  -4.86888140E-02
  -4.99999987E-05  -4.87380959E-02
   0.00000000      -4.87743728E-02
   4.99999987E-05  -4.88007888E-02
   9.99999975E-05  -4.88190874E-02
   1.50000007E-04  -4.88261431E-02
   1.99999995E-04  -4.88172956E-02
   2.50000012E-04  -4.87916581E-02
   3.00000014E-04  -4.87526245E-02
   3.49999988E-04  -4.87040654E-02
   3.99999990E-04  -4.86449376E-02
   4.49999992E-04  -4.85703461E-02
   5.00000024E-04  -4.84778248E-02
   5.49999997E-04  -4.83690426E-02
   6.00000028E-04  -4.82471958E-02
   6.50000002E-04  -4.81131859E-02
   6.99999975E-04  -4.79638763E-02
   7.50000007E-04  -4.77952249E-02
   7.99999980E-04  -4.76060770E-02
   8.50000011E-04  -4.73998971E-02
   8.99999985E-04  -4.71801572E-02
   9.50000016E-04  -4.69449982E-02
   1.00000005E-03  -4.66894545E-02
   1.04999996E-03  -4.64106426E-02
   1.09999999E-03  -4.61110324E-02
   1.15000003E-03  -4.57953140E-02
   1.20000006E-03  -4.54638600E-02
   1.24999997E-03  -4.51114215E-02
   1.30000000E-03  -4.47336696E-02
   1.35000004E-03  -4.43328507E-02
   1.39999995E-03  -4.39134464E-02
   1.44999998E-03  -4.34760712E-02
   1.50000001E-03  -4.30164710E-02
   1.55000004E-03  -4.25301492E-02
   1.59999996E-03  -4.20175008E-02
   1.64999999E-03  -4.14819270E-02
   1.70000002E-03  -4.09258641E-02
   1.75000005E-03  -4.03471999E-02
   1.79999997E-03  -3.97409499E-02
   1.85000000E-03  -3.91050242E-02
   1.90000003E-03  -3.84413525E-02
   1.94999995E-03  -3.77545319E-02
   2.00000009E-03  -3.70450355E-02
   2.05000001E-03  -3.63066867E-02
   2.09999993E-03  -3.55353616E-02
   2.15000007E-03  -3.47325951E-02
   2.19999999E-03  -3.39027531E-02
   2.24999990E-03  -3.30479257E-02
   2.30000005E-03  -3.21648344E-02
   2.34999997E-03  -3.12475488E-02
   2.40000011E-03  -3.02944481E-02
   2.45000003E-03  -2.93101948E-02
   2.49999994E-03  -2.82984469E-02
   2.55000009E-03  -2.72569284E-02
   2.60000001E-03  -2.61797607E-02
   2.64999992E-03  -2.50645038E-02
   2.70000007E-03  -2.39140652E-02
   2.74999999E-03  -2.27331109E-02
   2.79999990E-03  -2.15213690E-02