  -3.99999991E-02   0.00000000    
  -3.99499983E-02   0.00000000    
  -3.99000011E-02   0.00000000    
  -3.98500003E-02   0.00000000    
  -3.97999994E-02   0.00000000    
  -3.97499986E-02  -2.07213873E-21
  -3.97000015E-02  -1.59170536E-20
  -3.96500006E-02  -6.35880556E-20
  -3.95999998E-02  -1.77437492E-19
  -3.95499989E-02  -3.95003842E-19
  -3.95000018E-02  -7.62271905E-19
  -3.94500010E-02  -1.34268422E-18
  -3.94000001E-02  -2.20416605E-18
  -3.93499993E-02  -3.36248113E-18
  -3.92999984E-02  -4.71292399E-18
  -3.92500013E-02  -6.02944398E-18
  -3.92000005E-02  -7.07518680E-18
  -3.91499996E-02  -7.75906582E-18
  -3.90999988E-02  -8.20240154E-18
  -3.90500017E-02  -8.64358824E-18
  -3.90000008E-02  -9.25384239E-18
  -3.89500000E-02  -1.00028718E-17
  -3.88999991E-02  -1.06262186E-17
  -3.88499983E-02  -1.06264427E-17
  -3.88000011E-02  -9.25805522E-18
  -3.87500003E-02  -5.58270151E-18
  -3.86999995E-02   1.28027531E-18
  -3.86499986E-02   1.17778616E-17
  -3.86000015E-02   2.57442247E-17
  -3.85500006E-02   4.27123014E-17
  -3.84999998E-02   6.26220722E-17
  -3.84499989E-02   8.64328037E-17
  -3.84000018E-02   1.16168319E-16
  -3.83500010E-02   1.54374785E-16
  -3.83000001E-02   2.03390147E-16
  -3.82499993E-02   2.64805740E-16
  -3.81999984E-02   3.39167239E-16
  -3.81500013E-02   4.25796686E-16
  -3.81000005E-02   5.22830663E-16
  -3.80499996E-02   6.27784186E-16
  -3.79999988E-02   7.38690234E-16
  -3.79500017E-02   8.55230797E-16
  -3.79000008E-02   9.78981410E-16
  -3.78500000E-02   1.11243230E-15
  -3.77999991E-02   1.25742570E-15
  -3.77499983E-02   1.41409832E-15
  -3.77000012E-02   1.58086778E-15
  -3.76500003E-02   1.75506233E-15
  -3.75999995E-02   1.93345223E-15
  -3.75499986E-02   2.11244914E-15
  -3.75000015E-02   2.28832918E-15
  -3.74500006E-02   2.45769553E-15
  -3.73999998E-02   2.61773923E-15
  -3.73499990E-02   2.76562504E-15
  -3.73000018E-02   2.89704961E-15
  -3.72500010E-02   3.00494255E-15
  -3.72000001E-02   3.07929955E-15
  -3.71499993E-02   3.10811498E-15
  -3.70999984E-02   3.07845421E-15
  -3.70500013E-02   2.97701800E-15
  -3.70000005E-02   2.79072199E-15
  -3.69499996E-02   2.50836695E-15
  -3.68999988E-02   2.12346692E-15
  -3.68500017E-02   1.63658846E-15
  -3.68000008E-02   1.05504370E-15
  -3.67500000E-02   3.89183767E-16
  -3.66999991E-02  -3.53283652E-16
  -3.66499983E-02  -1.17243834E-15
  -3.66000012E-02  -2.07876052E-15
  -3.65500003E-02  -3.09237160E-15
  -3.64999995E-02  -4.23877648E-15
  -3.64499986E-02  -5.54158177E-15
  -3.64000015E-02  -7.01403208E-15
  -3.63500006E-02  -8.65311495E-15
  -3.62999998E-02  -1.04403502E-14
  -3.62499990E-02  -1.23505315E-14
  -3.62000018E-02  -1.43644997E-14
  -3.61500010E-02  -1.64783077E-14
  -3.61000001E-02  -1.87019623E-14
  -3.60499993E-02  -2.10465004E-14
  -3.59999985E-02  -2.35048526E-14
  -3.59500013E-02  -2.60358954E-14
  -3.59000005E-02  -2.85606770E-14
  -3.58499996E-02  -3.09754833E-14
  -3.57999988E-02  -3.31799475E-14
  -3.57500017E-02  -3.51110437E-14
  -3.57000008E-02  -3.67681756E-14
  -3.56500000E-02  -3.82141760E-14
  -3.55999991E-02  -3.95450477E-14
  -3.55499983E-02  -4.08361970E-14
  -3.55000012E-02  -4.20876238E-14
  -3.54500003E-02  -4.31953735E-14
  -3.53999995E-02  -4.39674610E-14
  -3.53499986E-02  -4.41822617E-14
  -3.53000015E-02  -4.36664864E-14
  -3.52500007E-02  -4.23584338E-14
  -3.51999998E-02  -4.03254327E-14
  -3.51499990E-02  -3.77219787E-14
  -3.51000018E-02  -3.47005682E-14
  -3.50500010E-02  -3.13116944E-14
  -3.50000001E-02  -2.74408876E-14
  -3.49499993E-02  -2.28210192E-14
  -3.48999985E-02  -1.71260812E-14
  -3.48500013E-02  -1.01118421E-14
  -3.48000005E-02  -1.73901687E-15
  -3.47499996E-02   7.78508914E-15
  -3.46999988E-02   1.80771840E-14
  -3.46500017E-02   2.87389673E-14
  -3.46000008E-02   3.95400536E-14
  -3.45500000E-02   5.05364793E-14
  -3.44999991E-02   6.20600644E-14
  -3.44499983E-02   7.45677866E-14
  -3.44000012E-02   8.84061162E-14
  -3.43500003E-02   1.03594169E-13
  -3.42999995E-02   1.19734843E-13
  -3.42499986E-02   1.36115579E-13
  -3.42000015E-02   1.51974055E-13
  -3.41500007E-02   1.66818003E-13
  -3.40999998E-02   1.80646473E-13
  -3.40499990E-02   1.93951138E-13
  -3.40000018E-02   2.07470678E-13
  -3.39500010E-02   2.21789885E-13
  -3.39000002E-02   2.36959703E-13
  -3.38499993E-02   2.52322468E-13
  -3.37999985E-02   2.66648628E-13
  -3.37500013E-02   2.78555445E-13
  -3.37000005E-02   2.87040763E-13
  -3.36499996E-02   2.91891511E-13
  -3.35999988E-02   2.93759103E-13
  -3.35500017E-02   2.93830688E-13
  -3.35000008E-02   2.93214915E-13
  -3.34500000E-02   2.92311341E-13
  -3.33999991E-02   2.90467276E-13
  -3.33499983E-02   2.86115749E-13
  -3.33000012E-02   2.77370818E-13
  -3.32500003E-02   2.62836411E-13
  -3.31999995E-02   2.42260259E-13
  -3.31499986E-02   2.16708243E-13
  -3.31000015E-02   1.88132035E-13
  -3.30500007E-02   1.58480610E-13
  -3.29999998E-02   1.28737122E-13
  -3.29499990E-02   9.83348670E-14
  -3.29000019E-02   6.52686659E-14
  -3.28500010E-02   2.69127660E-14
  -3.28000002E-02  -1.87831047E-14
  -3.27499993E-02  -7.22595947E-14
  -3.26999985E-02  -1.31983508E-13
  -3.26500013E-02  -1.94979124E-13
  -3.26000005E-02  -2.58068984E-13
  -3.25499997E-02  -3.19284936E-13
  -3.24999988E-02  -3.78788038E-13
  -3.24500017E-02  -4.38817467E-13
  -3.24000008E-02  -5.02613901E-13
  -3.23500000E-02  -5.72743350E-13
  -3.22999991E-02  -6.49572464E-13
  -3.22499983E-02  -7.30637935E-13
  -3.22000012E-02  -8.11291952E-13
  -3.21500003E-02  -8.86425753E-13
  -3.20999995E-02  -9.52543491E-13
  -3.20499986E-02  -1.00922981E-12
  -3.20000015E-02  -1.05927300E-12
  -3.19500007E-02  -1.10728766E-12
  -3.18999998E-02  -1.15738072E-12
  -3.18499990E-02  -1.21089087E-12
  -3.18000019E-02  -1.26526697E-12
  -3.17500010E-02  -1.31468881E-12
  -3.17000002E-02  -1.35225945E-12
  -3.16499993E-02  -1.37284867E-12
  -3.15999985E-02  -1.37529734E-12
  -3.15500014E-02  -1.36290295E-12
  -3.15000005E-02  -1.34184764E-12
  -3.14499997E-02  -1.31817896E-12
  -3.13999988E-02  -1.29468376E-12
  -3.13500017E-02  -1.26912868E-12
  -3.13000008E-02  -1.23478907E-12
  -3.12500000E-02  -1.18315687E-12
  -3.11999992E-02  -1.10768924E-12
  -3.11500002E-02  -1.00690073E-12
  -3.10999993E-02  -8.85307561E-13
  -3.10500003E-02  -7.51652158E-13
  -3.09999995E-02  -6.15072283E-13
  -3.09500005E-02  -4.80886544E-13
  -3.08999997E-02  -3.47950564E-13
  -3.08500007E-02  -2.08924051E-13
  -3.07999998E-02  -5.34975743E-14
  -3.07500008E-02   1.26765365E-13
  -3.07000000E-02   3.34151706E-13
  -3.06499992E-02   5.63128157E-13
  -3.06000002E-02   8.02200537E-13
  -3.05499993E-02   1.03862101E-12
  -3.05000003E-02   1.26389372E-12
  -3.04499995E-02   1.47754606E-12
  -3.04000005E-02   1.68730557E-12
  -3.03499997E-02   1.90540249E-12
  -3.03000007E-02   2.14250189E-12
  -3.02499998E-02   2.40196556E-12
  -3.02000009E-02   2.67713260E-12
  -3.01500000E-02   2.95305447E-12
  -3.00999992E-02   3.21211308E-12
  -3.00500002E-02   3.44111133E-12
  -2.99999993E-02   3.63662117E-12
  -2.99500003E-02   3.80603665E-12
  -2.98999995E-02   3.96366317E-12
  -2.98500005E-02   4.12344117E-12
  -2.97999997E-02   4.29153371E-12
  -2.97500007E-02   4.46222009E-12
  -2.96999998E-02   4.61913450E-12
  -2.96500009E-02   4.74153182E-12
  -2.96000000E-02   4.81290051E-12
  -2.95499992E-02   4.82804031E-12
  -2.95000002E-02   4.79526141E-12
  -2.94499993E-02   4.73246572E-12
  -2.94000003E-02   4.65868186E-12
  -2.93499995E-02   4.58477267E-12
  -2.93000005E-02   4.50759265E-12
  -2.92499997E-02   4.41043339E-12
  -2.92000007E-02   4.26979415E-12
  -2.91499998E-02   4.06559335E-12
  -2.91000009E-02   3.79025197E-12
  -2.90500000E-02   3.45242736E-12
  -2.89999992E-02   3.07347355E-12
  -2.89500002E-02   2.67799498E-12
  -2.88999993E-02   2.28262483E-12
  -2.88500004E-02   1.88815023E-12
  -2.87999995E-02   1.47875635E-12
  -2.87500005E-02   1.02902257E-12
  -2.86999997E-02   5.15737355E-13
  -2.86500007E-02  -7.07274747E-14
  -2.85999998E-02  -7.20726213E-13
  -2.85500009E-02  -1.40814563E-12
  -2.85000000E-02  -2.10071652E-12
  -2.84499992E-02  -2.77337875E-12
  -2.84000002E-02  -3.41870391E-12
  -2.83499993E-02  -4.04953328E-12
  -2.83000004E-02  -4.69237453E-12
  -2.82499995E-02  -5.37426353E-12
  -2.82000005E-02  -6.10888640E-12
  -2.81499997E-02  -6.88823868E-12
  -2.81000007E-02  -7.68381105E-12
  -2.80499998E-02  -8.45701981E-12
  -2.80000009E-02  -9.17440256E-12
  -2.79500000E-02  -9.82079175E-12
  -2.78999992E-02  -1.04044317E-11
  -2.78500002E-02  -1.09515209E-11
  -2.77999993E-02  -1.14924095E-11
  -2.77500004E-02  -1.20455156E-11
  -2.76999995E-02  -1.26062147E-11
  -2.76500005E-02  -1.31458820E-11
  -2.75999997E-02  -1.36218250E-11
  -2.75500007E-02  -1.39939067E-11
  -2.74999999E-02  -1.42405081E-11
  -2.74500009E-02  -1.43666259E-11
  -2.74000000E-02  -1.44002241E-11
  -2.73499992E-02  -1.43782599E-11
  -2.73000002E-02  -1.43284568E-11
  -2.72499993E-02  -1.42549887E-11
  -2.72000004E-02  -1.41346119E-11
  -2.71499995E-02  -1.39252420E-11
  -2.71000005E-02  -1.35833844E-11
  -2.70499997E-02  -1.30827875E-11
  -2.70000007E-02  -1.24259587E-11
  -2.69499999E-02  -1.16432142E-11
  -2.69000009E-02  -1.07794017E-11
  -2.68500000E-02  -9.87398618E-12
  -2.67999992E-02  -8.94329315E-12
  -2.67500002E-02  -7.97296430E-12
  -2.66999993E-02  -6.92423115E-12
  -2.66500004E-02  -5.75153423E-12
  -2.65999995E-02  -4.42383760E-12
  -2.65500005E-02  -2.94023464E-12
  -2.64999997E-02  -1.33278122E-12
  -2.64500007E-02   3.44963777E-13
  -2.63999999E-02   2.03888946E-12
  -2.63500009E-02   3.71567360E-12
  -2.63000000E-02   5.37506888E-12
  -2.62499992E-02   7.04752532E-12
  -2.62000002E-02   8.77790549E-12
  -2.61499994E-02   1.06022482E-11
  -2.61000004E-02   1.25277896E-11
  -2.60499995E-02   1.45251311E-11
  -2.60000005E-02   1.65363001E-11
  -2.59499997E-02   1.84954118E-11
  -2.59000007E-02   2.03530734E-11
  -2.58499999E-02   2.20938077E-11
  -2.58000009E-02   2.37387245E-11
  -2.57500000E-02   2.53319726E-11
  -2.56999992E-02   2.69166738E-11
  -2.56500002E-02   2.85107458E-11
  -2.55999994E-02   3.00932612E-11
  -2.55500004E-02   3.16076713E-11
  -2.54999995E-02   3.29807882E-11
  -2.54500005E-02   3.41495617E-11
  -2.53999997E-02   3.50840954E-11
  -2.53500007E-02   3.57965949E-11
  -2.52999999E-02   3.63320971E-11
  -2.52500009E-02   3.67446976E-11
  -2.52000000E-02   3.70694447E-11
  -2.51499992E-02   3.73023140E-11
  -2.51000002E-02   3.73972034E-11
  -2.50499994E-02   3.72818582E-11
  -2.50000004E-02   3.68862163E-11
  -2.49499995E-02   3.61711182E-11
  -2.49000005E-02   3.51447448E-11
  -2.48499997E-02   3.38592036E-11
  -2.48000007E-02   3.23881408E-11
  -2.47499999E-02   3.07947071E-11
  -2.47000009E-02   2.91036258E-11
  -2.46500000E-02   2.72898336E-11
  -2.45999992E-02   2.52891059E-11
  -2.45500002E-02   2.30266795E-11
  -2.44999994E-02   2.04517878E-11
  -2.44500004E-02   1.75631350E-11
  -2.43999995E-02   1.44138278E-11
  -2.43500005E-02   1.10929477E-11
  -2.42999997E-02   7.69117495E-12
  -2.42500007E-02   4.26506616E-12
  -2.41999999E-02   8.15736584E-13
  -2.41500009E-02  -2.70810653E-12
  -2.41000000E-02  -6.38331662E-12
  -2.40499992E-02  -1.02726820E-11
  -2.40000002E-02  -1.43897160E-11
  -2.39499994E-02  -1.86836067E-11
  -2.39000004E-02  -2.30517359E-11
  -2.38499995E-02  -2.73751178E-11
  -2.38000005E-02  -3.15619406E-11
  -2.37499997E-02  -3.55801846E-11
  -2.37000007E-02  -3.94645150E-11
  -2.36499999E-02  -4.32935320E-11
  -2.36000009E-02  -4.71464430E-11
  -2.35500000E-02  -5.10577691E-11
  -2.34999992E-02  -5.49904393E-11
  -2.34500002E-02  -5.88398635E-11
  -2.33999994E-02  -6.24684957E-11
  -2.33500004E-02  -6.57564697E-11
  -2.32999995E-02  -6.86462276E-11
  -2.32500006E-02  -7.11610146E-11
  -2.31999997E-02  -7.33879277E-11
  -2.31500007E-02  -7.54319315E-11
  -2.30999999E-02  -7.73603612E-11
  -2.30500009E-02  -7.91626070E-11
  -2.30000000E-02  -8.07437520E-11
  -2.29499992E-02  -8.19564208E-11
  -2.29000002E-02  -8.26580401E-11
  -2.28499994E-02  -8.27688681E-11
  -2.28000004E-02  -8.23046145E-11
  -2.27499995E-02  -8.13680234E-11
  -2.27000006E-02  -8.01018210E-11
  -2.26499997E-02  -7.86227333E-11
  -2.26000007E-02  -7.69657810E-11
  -2.25499999E-02  -7.50643644E-11
  -2.25000009E-02  -7.27763544E-11
  -2.24500000E-02  -6.99462224E-11
  -2.23999992E-02  -6.64763730E-11
  -2.23500002E-02  -6.23758128E-11
  -2.22999994E-02  -5.77633635E-11
  -2.22500004E-02  -5.28223333E-11
  -2.21999995E-02  -4.77254000E-11
  -2.21500006E-02  -4.25626791E-11
  -2.20999997E-02  -3.73056551E-11
  -2.20500007E-02  -3.18244979E-11
  -2.19999999E-02  -2.59526844E-11
  -2.19500009E-02  -1.95710167E-11
  -2.19000001E-02  -1.26736278E-11
  -2.18499992E-02  -5.38538658E-12
  -2.18000002E-02   2.07873627E-12
  -2.17499994E-02   9.49571324E-12
  -2.17000004E-02   1.67220491E-11
  -2.16499995E-02   2.37471969E-11
  -2.16000006E-02   3.06875983E-11
  -2.15499997E-02   3.77221206E-11
  -2.15000007E-02   4.49966071E-11
  -2.14499999E-02   5.25402534E-11
  -2.14000009E-02   6.02323330E-11
  -2.13500001E-02   6.78361881E-11
  -2.12999992E-02   7.50870685E-11
  -2.12500002E-02   8.17954871E-11
  -2.11999994E-02   8.79195952E-11
  -2.11500004E-02   9.35727815E-11
  -2.10999995E-02   9.89612073E-11
  -2.10500006E-02   1.04277809E-10
  -2.09999997E-02   1.09599878E-10
  -2.09500007E-02   1.14837036E-10
  -2.08999999E-02   1.19754776E-10
  -2.08500009E-02   1.24065036E-10
  -2.08000001E-02   1.27544503E-10
  -2.07499992E-02   1.30127381E-10
  -2.07000002E-02   1.31929676E-10
  -2.06499994E-02   1.33192540E-10
  -2.06000004E-02   1.34168052E-10
  -2.05499995E-02   1.34998748E-10
  -2.05000006E-02   1.35645314E-10
  -2.04499997E-02   1.35896780E-10
  -2.04000007E-02   1.35460754E-10
  -2.03499999E-02   1.34094458E-10
  -2.03000009E-02   1.31717970E-10
  -2.02500001E-02   1.28457800E-10
  -2.01999992E-02   1.24599081E-10
  -2.01500002E-02   1.20466345E-10
  -2.00999994E-02   1.16285384E-10
  -2.00500004E-02   1.12088963E-10
  -1.99999996E-02   1.07709834E-10
  -1.99500006E-02   1.02866111E-10
  -1.98999997E-02   9.73015696E-11
  -1.98500007E-02   9.09178566E-11
  -1.97999999E-02   8.38381448E-11
  -1.97500009E-02   7.63717561E-11
  -1.97000001E-02   6.88937934E-11
  -1.96499992E-02   6.16931922E-11
  -1.96000002E-02   5.48577989E-11
  -1.95499994E-02   4.82497410E-11
  -1.95000004E-02   4.15839724E-11
  -1.94499996E-02   3.45760573E-11
  -1.94000006E-02   2.70928766E-11
  -1.93499997E-02   1.92373704E-11
  -1.93000007E-02   1.13274320E-11
  -1.92499999E-02   3.77659796E-12
  -1.92000009E-02  -3.07089684E-12
  -1.91500001E-02  -9.07653466E-12
  -1.90999992E-02  -1.43528210E-11
  -1.90500002E-02  -1.91956433E-11
  -1.89999994E-02  -2.39327481E-11
  -1.89500004E-02  -2.87563567E-11
  -1.88999996E-02  -3.36159815E-11
  -1.88500006E-02  -3.82214538E-11
  -1.87999997E-02  -4.21567017E-11
  -1.87500007E-02  -4.50542242E-11
  -1.86999999E-02  -4.67517206E-11
  -1.86500009E-02  -4.73596579E-11
  -1.86000001E-02  -4.72078175E-11
  -1.85499992E-02  -4.66937634E-11
  -1.85000002E-02  -4.61010431E-11
  -1.84499994E-02  -4.54694928E-11
  -1.84000004E-02  -4.45770990E-11
  -1.83499996E-02  -4.30432565E-11
  -1.83000006E-02  -4.05077291E-11
  -1.82499997E-02  -3.68051215E-11
  -1.82000007E-02  -3.20553098E-11
  -1.81499999E-02  -2.66279238E-11
  -1.81000009E-02  -2.09960521E-11
  -1.80500001E-02  -1.55445327E-11
  -1.79999992E-02  -1.04199323E-11
  -1.79500002E-02  -5.49061100E-12
  -1.78999994E-02  -4.36632609E-13
  -1.78500004E-02   5.07045317E-12
  -1.77999996E-02   1.11790455E-11
  -1.77500006E-02   1.77459714E-11
  -1.76999997E-02   2.43530664E-11
  -1.76500008E-02   3.04459721E-11
  -1.75999999E-02   3.55332395E-11
  -1.75500009E-02   3.93559595E-11
  -1.75000001E-02   4.19511578E-11
  -1.74499992E-02   4.35783423E-11
  -1.74000002E-02   4.45428416E-11
  -1.73499994E-02   4.49945498E-11
  -1.73000004E-02   4.47945674E-11
  -1.72499996E-02   4.35102579E-11
  -1.72000006E-02   4.05422466E-11
  -1.71499997E-02   3.53266721E-11
  -1.71000008E-02   2.75216360E-11
  -1.70499999E-02   1.70930596E-11
  -1.70000009E-02   4.26126105E-12
  -1.69500001E-02  -1.06698643E-11
  -1.68999992E-02  -2.75233152E-11
  -1.68500002E-02  -4.64044636E-11
  -1.67999994E-02  -6.77290515E-11
  -1.67500004E-02  -9.21117557E-11
  -1.66999996E-02  -1.20163837E-10
  -1.66500006E-02  -1.52290902E-10
  -1.65999997E-02  -1.88582039E-10
  -1.65500008E-02  -2.28839669E-10
  -1.64999999E-02  -2.72738443E-10
  -1.64500009E-02  -3.20040550E-10
  -1.64000001E-02  -3.70769943E-10
  -1.63499992E-02  -4.25267849E-10
  -1.63000003E-02  -4.84101370E-10
  -1.62499994E-02  -5.47868140E-10
  -1.62000004E-02  -6.16983964E-10
  -1.61499996E-02  -6.91551316E-10
  -1.61000006E-02  -7.71366526E-10
  -1.60499997E-02  -8.56063720E-10
  -1.60000008E-02  -9.45329370E-10
  -1.59499999E-02  -1.03909303E-09
  -1.59000009E-02  -1.13760690E-09
  -1.58500001E-02  -1.24137522E-09
  -1.57999992E-02  -1.35096656E-09
  -1.57500003E-02  -1.46679391E-09
  -1.56999994E-02  -1.58895919E-09
  -1.56500004E-02  -1.71723746E-09
  -1.55999996E-02  -1.85120674E-09
  -1.55499997E-02  -1.99046157E-09
  -1.54999997E-02  -2.13481588E-09
  -1.54499998E-02  -2.28441044E-09
  -1.53999999E-02  -2.43966802E-09
  -1.53500000E-02  -2.60111799E-09
  -1.53000001E-02  -2.76917134E-09
  -1.52500002E-02  -2.94394620E-09
  -1.52000003E-02  -3.12522408E-09
  -1.51500003E-02  -3.31256089E-09
  -1.51000004E-02  -3.50549656E-09
  -1.50499996E-02  -3.70377329E-09
  -1.49999997E-02  -3.90746280E-09
  -1.49499997E-02  -4.11695034E-09
  -1.48999998E-02  -4.33277059E-09
  -1.48499999E-02  -4.55538585E-09
  -1.48000000E-02  -4.78498796E-09
  -1.47500001E-02  -5.02142461E-09
  -1.47000002E-02  -5.26428501E-09
  -1.46500003E-02  -5.51310242E-09
  -1.46000003E-02  -5.76758019E-09
  -1.45500004E-02  -6.02775341E-09
  -1.44999996E-02  -6.29398889E-09
  -1.44499997E-02  -6.56684929E-09
  -1.43999998E-02  -6.84686441E-09
  -1.43499998E-02  -7.13432158E-09
  -1.42999999E-02  -7.42917194E-09
  -1.42500000E-02  -7.73108688E-09
  -1.42000001E-02  -8.03964806E-09
  -1.41500002E-02  -8.35457925E-09
  -1.41000003E-02  -8.67593197E-09
  -1.40500003E-02  -9.00410946E-09
  -1.40000004E-02  -9.33975741E-09
  -1.39499996E-02  -9.68353042E-09
  -1.38999997E-02  -1.00358726E-08
  -1.38499998E-02  -1.03968940E-08
  -1.37999998E-02  -1.07663976E-08
  -1.37499999E-02  -1.11440608E-08
  -1.37000000E-02  -1.15296759E-08
  -1.36500001E-02  -1.19233414E-08
  -1.36000002E-02  -1.23255388E-08
  -1.35500003E-02  -1.27370159E-08
  -1.35000004E-02  -1.31585685E-08
  -1.34500004E-02  -1.35908103E-08
  -1.33999996E-02  -1.40340246E-08
  -1.33499997E-02  -1.44881573E-08
  -1.32999998E-02  -1.49529846E-08
  -1.32499998E-02  -1.54283608E-08
  -1.31999999E-02  -1.59144395E-08
  -1.31500000E-02  -1.64117804E-08
  -1.31000001E-02  -1.69212555E-08
  -1.30500002E-02  -1.74438295E-08
  -1.30000003E-02  -1.79803159E-08
  -1.29500004E-02  -1.85311908E-08
  -1.29000004E-02  -1.90965768E-08
  -1.28499996E-02  -1.96763725E-08
  -1.27999997E-02  -2.02705088E-08
  -1.27499998E-02  -2.08791668E-08
  -1.26999998E-02  -2.15029115E-08
  -1.26499999E-02  -2.21426752E-08
  -1.26000000E-02  -2.27995400E-08
  -1.25500001E-02  -2.34744562E-08
  -1.25000002E-02  -2.41680649E-08
  -1.24500003E-02  -2.48806113E-08
  -1.24000004E-02  -2.56121044E-08
  -1.23500004E-02  -2.63625424E-08
  -1.22999996E-02  -2.71321685E-08
  -1.22499997E-02  -2.79216170E-08
  -1.21999998E-02  -2.87318720E-08
  -1.21499998E-02  -2.95640774E-08
  -1.20999999E-02  -3.04192831E-08
  -1.20500000E-02  -3.12982245E-08
  -1.20000001E-02  -3.22012212E-08
  -1.19500002E-02  -3.31282735E-08
  -1.19000003E-02  -3.40793456E-08
  -1.18500004E-02  -3.50546685E-08
  -1.18000004E-02  -3.60549102E-08
  -1.17499996E-02  -3.70811932E-08
  -1.16999997E-02  -3.81348819E-08
  -1.16499998E-02  -3.92172979E-08
  -1.15999999E-02  -4.03294500E-08
  -1.15499999E-02  -4.14719246E-08
  -1.15000000E-02  -4.26449489E-08
  -1.14500001E-02  -4.38486012E-08
  -1.14000002E-02  -4.50830733E-08
  -1.13500003E-02  -4.63489371E-08
  -1.13000004E-02  -4.76471556E-08
  -1.12500004E-02  -4.89790146E-08
  -1.11999996E-02  -5.03457507E-08
  -1.11499997E-02  -5.17483159E-08
  -1.10999998E-02  -5.31872679E-08
  -1.10499999E-02  -5.46628875E-08
  -1.09999999E-02  -5.61754341E-08
  -1.09500000E-02  -5.77253800E-08
  -1.09000001E-02  -5.93136882E-08
  -1.08500002E-02  -6.09418365E-08
  -1.08000003E-02  -6.26116545E-08
  -1.07500004E-02  -6.43250573E-08
  -1.07000005E-02  -6.60836577E-08
  -1.06499996E-02  -6.78885144E-08
  -1.05999997E-02  -6.97401532E-08
  -1.05499998E-02  -7.16388655E-08
  -1.04999999E-02  -7.35850847E-08
  -1.04499999E-02  -7.55796137E-08
  -1.04000000E-02  -7.76237243E-08
  -1.03500001E-02  -7.97190296E-08
  -1.03000002E-02  -8.18673200E-08
  -1.02500003E-02  -8.40702441E-08
  -1.02000004E-02  -8.63291163E-08
  -1.01500005E-02  -8.86448106E-08
  -1.00999996E-02  -9.10180376E-08
  -1.00499997E-02  -9.34497280E-08
  -9.99999978E-03  -9.59413171E-08
  -9.94999986E-03  -9.84948656E-08
  -9.89999995E-03  -1.01112889E-07
  -9.85000003E-03  -1.03797966E-07
  -9.80000012E-03  -1.06552505E-07
  -9.75000020E-03  -1.09378568E-07
  -9.70000029E-03  -1.12277725E-07
  -9.65000037E-03  -1.15251204E-07
  -9.60000046E-03  -1.18300299E-07
  -9.54999961E-03  -1.21426694E-07
  -9.49999969E-03  -1.24632706E-07
  -9.44999978E-03  -1.27921169E-07
  -9.39999986E-03  -1.31294996E-07
  -9.34999995E-03  -1.34756917E-07
  -9.30000003E-03  -1.38309105E-07
  -9.25000012E-03  -1.41953237E-07
  -9.20000020E-03  -1.45690720E-07
  -9.15000029E-03  -1.49522975E-07
  -9.10000037E-03  -1.53451921E-07
  -9.05000046E-03  -1.57480045E-07
  -8.99999961E-03  -1.61610416E-07
  -8.94999970E-03  -1.65846501E-07
  -8.89999978E-03  -1.70191797E-07
  -8.84999987E-03  -1.74649401E-07
  -8.79999995E-03  -1.79221914E-07
  -8.75000004E-03  -1.83911581E-07
  -8.70000012E-03  -1.88720705E-07
  -8.65000021E-03  -1.93651999E-07
  -8.60000029E-03  -1.98708932E-07
  -8.55000038E-03  -2.03895411E-07
  -8.50000046E-03  -2.09215713E-07
  -8.44999962E-03  -2.14673790E-07
  -8.39999970E-03  -2.20273179E-07
  -8.34999979E-03  -2.26016979E-07
  -8.29999987E-03  -2.31907734E-07
  -8.24999996E-03  -2.37947916E-07
  -8.20000004E-03  -2.44140182E-07
  -8.15000013E-03  -2.50487858E-07
  -8.10000021E-03  -2.56994895E-07
  -8.05000030E-03  -2.63665555E-07
  -8.00000038E-03  -2.70504131E-07
  -7.95000046E-03  -2.77514346E-07
  -7.89999962E-03  -2.84699354E-07
  -7.84999970E-03  -2.92061998E-07
  -7.79999979E-03  -2.99605148E-07
  -7.74999987E-03  -3.07331931E-07
  -7.69999996E-03  -3.15246183E-07
  -7.65000004E-03  -3.23352424E-07
  -7.60000013E-03  -3.31655713E-07
  -7.55000021E-03  -3.40161193E-07
  -7.49999983E-03  -3.48873584E-07
  -7.44999992E-03  -3.57797063E-07
  -7.40000000E-03  -3.66935097E-07
  -7.35000009E-03  -3.76291155E-07
  -7.30000017E-03  -3.85869043E-07
  -7.24999979E-03  -3.95673055E-07
  -7.19999988E-03  -4.05708107E-07
  -7.14999996E-03  -4.15979457E-07
  -7.10000005E-03  -4.26492392E-07
  -7.05000013E-03  -4.37251856E-07
  -7.00000022E-03  -4.48262085E-07
  -6.94999984E-03  -4.59526859E-07
  -6.89999992E-03  -4.71049674E-07
  -6.85000001E-03  -4.82834253E-07
  -6.80000009E-03  -4.94885001E-07
  -6.75000018E-03  -5.07207005E-07
  -6.69999979E-03  -5.19805837E-07
  -6.64999988E-03  -5.32687181E-07
  -6.59999996E-03  -5.45856665E-07
  -6.55000005E-03  -5.59319062E-07
  -6.50000013E-03  -5.73078751E-07
  -6.45000022E-03  -5.87139994E-07
  -6.39999984E-03  -6.01507224E-07
  -6.34999992E-03  -6.16185957E-07
  -6.30000001E-03  -6.31182218E-07
  -6.25000009E-03  -6.46502428E-07
  -6.20000018E-03  -6.62153070E-07
  -6.14999980E-03  -6.78140850E-07
  -6.09999988E-03  -6.94471566E-07
  -6.04999997E-03  -7.11150221E-07
  -6.00000005E-03  -7.28181931E-07
  -5.95000014E-03  -7.45571811E-07
  -5.90000022E-03  -7.63325602E-07
  -5.84999984E-03  -7.81449614E-07
  -5.79999993E-03  -7.99950783E-07
  -5.75000001E-03  -8.18836384E-07
  -5.70000010E-03  -8.38113294E-07
  -5.65000018E-03  -8.57787256E-07
  -5.59999980E-03  -8.77864125E-07
  -5.54999989E-03  -8.98349242E-07
  -5.49999997E-03  -9.19248521E-07
  -5.45000006E-03  -9.40568327E-07
  -5.40000014E-03  -9.62315653E-07
  -5.35000023E-03  -9.84498342E-07
  -5.29999984E-03  -1.00712475E-06
  -5.24999993E-03  -1.03020295E-06
  -5.20000001E-03  -1.05374056E-06
  -5.15000010E-03  -1.07774486E-06
  -5.10000018E-03  -1.10222300E-06
  -5.04999980E-03  -1.12718203E-06
  -4.99999989E-03  -1.15262981E-06
  -4.94999997E-03  -1.17857485E-06
  -4.90000006E-03  -1.20502625E-06
  -4.85000014E-03  -1.23199368E-06
  -4.80000023E-03  -1.25948577E-06
  -4.74999985E-03  -1.28751071E-06
  -4.69999993E-03  -1.31607601E-06
  -4.65000002E-03  -1.34518984E-06
  -4.60000010E-03  -1.37485949E-06
  -4.55000019E-03  -1.40509326E-06
  -4.49999981E-03  -1.43590012E-06
  -4.44999989E-03  -1.46729019E-06
  -4.39999998E-03  -1.49927325E-06
  -4.35000006E-03  -1.53185954E-06
  -4.30000015E-03  -1.56505848E-06
  -4.25000023E-03  -1.59887952E-06
  -4.19999985E-03  -1.63333164E-06
  -4.14999994E-03  -1.66842381E-06
  -4.10000002E-03  -1.70416615E-06
  -4.05000011E-03  -1.74056970E-06
  -4.00000019E-03  -1.77764628E-06
  -3.94999981E-03  -1.81540770E-06
  -3.89999989E-03  -1.85386500E-06
  -3.84999998E-03  -1.89302955E-06
  -3.80000006E-03  -1.93291157E-06
  -3.74999992E-03  -1.97352165E-06
  -3.70000000E-03  -2.01487023E-06
  -3.65000009E-03  -2.05696870E-06
  -3.59999994E-03  -2.09982841E-06
  -3.55000002E-03  -2.14346210E-06
  -3.50000011E-03  -2.18788296E-06
  -3.44999996E-03  -2.23310326E-06
  -3.40000005E-03  -2.27913574E-06
  -3.34999990E-03  -2.32599018E-06
  -3.29999998E-03  -2.37367885E-06
  -3.25000007E-03  -2.42221313E-06
  -3.19999992E-03  -2.47160506E-06
  -3.15000000E-03  -2.52186737E-06
  -3.10000009E-03  -2.57301417E-06
  -3.04999994E-03  -2.62506001E-06
  -3.00000003E-03  -2.67801875E-06
  -2.95000011E-03  -2.73190426E-06
  -2.89999996E-03  -2.78672837E-06
  -2.85000005E-03  -2.84250405E-06
  -2.79999990E-03  -2.89924537E-06
  -2.74999999E-03  -2.95696714E-06
  -2.70000007E-03  -3.01568389E-06
  -2.64999992E-03  -3.07541018E-06
  -2.60000001E-03  -3.13616238E-06
  -2.55000009E-03  -3.19795754E-06
  -2.49999994E-03  -3.26081135E-06
  -2.45000003E-03  -3.32473792E-06
  -2.40000011E-03  -3.38974974E-06
  -2.34999997E-03  -3.45586000E-06
  -2.30000005E-03  -3.52308507E-06
  -2.24999990E-03  -3.59144065E-06
  -2.19999999E-03  -3.66094378E-06
  -2.15000007E-03  -3.73160992E-06
  -2.09999993E-03  -3.80345477E-06
  -2.05000001E-03  -3.87649561E-06
  -2.00000009E-03  -3.95074721E-06
  -1.94999995E-03  -4.02622436E-06
  -1.90000003E-03  -4.10294115E-06
  -1.85000000E-03  -4.18091395E-06
  -1.79999997E-03  -4.26015959E-06
  -1.75000005E-03  -4.34069852E-06
  -1.70000002E-03  -4.42254895E-06
  -1.64999999E-03  -4.50572998E-06
  -1.59999996E-03  -4.59025887E-06
  -1.55000004E-03  -4.67615109E-06
  -1.50000001E-03  -4.76342211E-06
  -1.44999998E-03  -4.85208784E-06
  -1.39999995E-03  -4.94216692E-06
  -1.35000004E-03  -5.03367755E-06
  -1.30000000E-03  -5.12663792E-06
  -1.24999997E-03  -5.22106620E-06
  -1.20000006E-03  -5.31698151E-06
  -1.15000003E-03  -5.41440340E-06
  -1.09999999E-03  -5.51334733E-06
  -1.04999996E-03  -5.61382740E-06
  -1.00000005E-03  -5.71585997E-06
  -9.50000016E-04  -5.81946051E-06
  -8.99999985E-04  -5.92465176E-06
  -8.50000011E-04  -6.03144963E-06
  -7.99999980E-04  -6.13987459E-06
  -7.50000007E-04  -6.24994709E-06
  -6.99999975E-04  -6.36168579E-06
  -6.50000002E-04  -6.47510888E-06
  -6.00000028E-04  -6.59023090E-06
  -5.49999997E-04  -6.70706686E-06
  -5.00000024E-04  -6.82563177E-06
  -4.49999992E-04  -6.94594655E-06
  -3.99999990E-04  -7.06803166E-06
  -3.49999988E-04  -7.19190712E-06
  -3.00000014E-04  -7.31759474E-06
  -2.50000012E-04  -7.44510999E-06
  -1.99999995E-04  -7.57446742E-06
  -1.50000007E-04  -7.70568658E-06
  -9.99999975E-05  -7.83878386E-06
  -4.99999987E-05  -7.97377288E-06
   0.00000000      -8.11066548E-06
   4.99999987E-05  -8.24948256E-06
   9.99999975E-05  -8.39024869E-06
   1.50000007E-04  -8.53298388E-06
   1.99999995E-04  -8.67770359E-06
   2.50000012E-04  -8.82441873E-06
   3.00000014E-04  -8.97314112E-06
   3.49999988E-04  -9.12388805E-06
   3.99999990E-04  -9.27667679E-06
   4.49999992E-04  -9.43152099E-06
   5.00000024E-04  -9.58843611E-06
   5.49999997E-04  -9.74743853E-06
   6.00000028E-04  -9.90855006E-06
   6.50000002E-04  -1.00717889E-05
   6.99999975E-04  -1.02371678E-05
   7.50000007E-04  -1.04046985E-05
   7.99999980E-04  -1.05743948E-05
   8.50000011E-04  -1.07462693E-05
   8.99999985E-04  -1.09203384E-05
   9.50000016E-04  -1.10966139E-05
   1.00000005E-03  -1.12751131E-05
   1.04999996E-03  -1.14558570E-05
   1.09999999E-03  -1.16388637E-05
   1.15000003E-03  -1.18241414E-05
   1.20000006E-03  -1.20116965E-05
   1.24999997E-03  -1.22015344E-05
   1.30000000E-03  -1.23936725E-05
   1.35000004E-03  -1.25881243E-05
   1.39999995E-03  -1.27848998E-05
   1.44999998E-03  -1.29840128E-05
   1.50000001E-03  -1.31854740E-05
   1.55000004E-03  -1.33893018E-05
   1.59999996E-03  -1.35955088E-05
   1.64999999E-03  -1.38041041E-05
   1.70000002E-03  -1.40150842E-05
   1.75000005E-03  -1.42284616E-05
   1.79999997E-03  -1.44442492E-05
   1.85000000E-03  -1.46624616E-05
   1.90000003E-03  -1.48831132E-05
   1.94999995E-03  -1.51062104E-05
   2.00000009E-03  -1.53317651E-05
   2.05000001E-03  -1.55597882E-05
   2.09999993E-03  -1.57902941E-05
   2.15000007E-03  -1.60232776E-05
   2.19999999E-03  -1.62587385E-05
   2.24999990E-03  -1.64966859E-05
   2.30000005E-03  -1.67371309E-05
   2.34999997E-03  -1.69800860E-05
   2.40000011E-03  -1.72255641E-05
   2.45000003E-03  -1.74735724E-05
   2.49999994E-03  -1.77241091E-05
   2.55000009E-03  -1.79771778E-05
   2.60000001E-03  -1.82327876E-05
   2.64999992E-03  -1.84909477E-05
   2.70000007E-03  -1.87516525E-05
   2.74999999E-03  -1.90149003E-05
   2.79999990E-03  -1.92806983E-05