  -3.99999991E-02   0.00000000    
  -3.99499983E-02   0.00000000    
  -3.99000011E-02   0.00000000    
  -3.98500003E-02   0.00000000    
  -3.97999994E-02   0.00000000    
  -3.97499986E-02  -2.15127996E-20
  -3.97000015E-02  -1.65733287E-19
  -3.96500006E-02  -6.65055125E-19
  -3.95999998E-02  -1.86818638E-18
  -3.95499989E-02  -4.19874480E-18
  -3.95000018E-02  -8.20708007E-18
  -3.94500010E-02  -1.46911380E-17
  -3.94000001E-02  -2.46022060E-17
  -3.93499993E-02  -3.85054428E-17
  -3.92999984E-02  -5.59025863E-17
  -3.92500013E-02  -7.51976594E-17
  -3.92000005E-02  -9.47387227E-17
  -3.91499996E-02  -1.14289467E-16
  -3.90999988E-02  -1.35616129E-16
  -3.90500017E-02  -1.61551722E-16
  -3.90000008E-02  -1.94337654E-16
  -3.89500000E-02  -2.34608565E-16
  -3.88999991E-02  -2.81391439E-16
  -3.88499983E-02  -3.32237186E-16
  -3.88000011E-02  -3.82850131E-16
  -3.87500003E-02  -4.27104055E-16
  -3.86999995E-02  -4.58875176E-16
  -3.86499986E-02  -4.75263410E-16
  -3.86000015E-02  -4.78280806E-16
  -3.85500006E-02  -4.72295831E-16
  -3.84999998E-02  -4.58157580E-16
  -3.84499989E-02  -4.28478260E-16
  -3.84000018E-02  -3.67941980E-16
  -3.83500010E-02  -2.58024976E-16
  -3.83000001E-02  -8.19388439E-17
  -3.82499993E-02   1.73251801E-16
  -3.81999984E-02   5.16371666E-16
  -3.81500013E-02   9.51193436E-16
  -3.81000005E-02   1.47516442E-15
  -3.80499996E-02   2.08133126E-15
  -3.79999988E-02   2.76521825E-15
  -3.79500017E-02   3.53255853E-15
  -3.79000008E-02   4.40081982E-15
  -3.78500000E-02   5.39215372E-15
  -3.77999991E-02   6.52363643E-15
  -3.77499983E-02   7.80338674E-15
  -3.77000012E-02   9.23470556E-15
  -3.76500003E-02   1.08219504E-14
  -3.75999995E-02   1.25708583E-14
  -3.75499986E-02   1.44836366E-14
  -3.75000015E-02   1.65558671E-14
  -3.74500006E-02   1.87798572E-14
  -3.73999998E-02   2.11504483E-14
  -3.73499990E-02   2.36652450E-14
  -3.73000018E-02   2.63173357E-14
  -3.72500010E-02   2.90873655E-14
  -3.72000001E-02   3.19420055E-14
  -3.71499993E-02   3.48371370E-14
  -3.70999984E-02   3.77173912E-14
  -3.70500013E-02   4.05094252E-14
  -3.70000005E-02   4.31185984E-14
  -3.69499996E-02   4.54423689E-14
  -3.68999988E-02   4.74007599E-14
  -3.68500017E-02   4.89657990E-14
  -3.68000008E-02   5.01673593E-14
  -3.67500000E-02   5.10679179E-14
  -3.66999991E-02   5.17191101E-14
  -3.66499983E-02   5.21213017E-14
  -3.66000012E-02   5.21998792E-14
  -3.65500003E-02   5.18027766E-14
  -3.64999995E-02   5.07214781E-14
  -3.64499986E-02   4.87371882E-14
  -3.64000015E-02   4.56831160E-14
  -3.63500006E-02   4.14942027E-14
  -3.62999998E-02   3.62084867E-14
  -3.62499990E-02   2.99062736E-14
  -3.62000018E-02   2.26154036E-14
  -3.61500010E-02   1.42408600E-14
  -3.61000001E-02   4.56749684E-15
  -3.60499993E-02  -6.65780263E-15
  -3.59999985E-02  -1.96029648E-14
  -3.59500013E-02  -3.42439734E-14
  -3.59000005E-02  -5.03240536E-14
  -3.58499996E-02  -6.74057368E-14
  -3.57999988E-02  -8.50133156E-14
  -3.57500017E-02  -1.02826500E-13
  -3.57000008E-02  -1.20845432E-13
  -3.56500000E-02  -1.39432506E-13
  -3.55999991E-02  -1.59174011E-13
  -3.55499983E-02  -1.80595488E-13
  -3.55000012E-02  -2.03856043E-13
  -3.54500003E-02  -2.28577682E-13
  -3.53999995E-02  -2.53909171E-13
  -3.53499986E-02  -2.78811127E-13
  -3.53000015E-02  -3.02442018E-13
  -3.52500007E-02  -3.24478563E-13
  -3.51999998E-02  -3.45220895E-13
  -3.51499990E-02  -3.65411423E-13
  -3.51000018E-02  -3.85808247E-13
  -3.50500010E-02  -4.06675155E-13
  -3.50000001E-02  -4.27424155E-13
  -3.49499993E-02  -4.46617867E-13
  -3.48999985E-02  -4.62389079E-13
  -3.48500013E-02  -4.73121488E-13
  -3.48000005E-02  -4.78078785E-13
  -3.47499996E-02  -4.77667060E-13
  -3.46999988E-02  -4.73174993E-13
  -3.46500017E-02  -4.66083823E-13
  -3.46000008E-02  -4.57241070E-13
  -3.45500000E-02  -4.46271600E-13
  -3.44999991E-02  -4.31519675E-13
  -3.44499983E-02  -4.10604114E-13
  -3.44000012E-02  -3.81397361E-13
  -3.43500003E-02  -3.43008906E-13
  -3.42999995E-02  -2.96288249E-13
  -3.42499986E-02  -2.43533438E-13
  -3.42000015E-02  -1.87454056E-13
  -3.41500007E-02  -1.29827505E-13
  -3.40999998E-02  -7.04897160E-14
  -3.40499990E-02  -7.18989433E-15
  -3.40000018E-02   6.35465530E-14
  -3.39500010E-02   1.44869929E-13
  -3.39000002E-02   2.38038945E-13
  -3.38499993E-02   3.41552524E-13
  -3.37999985E-02   4.51442215E-13
  -3.37500013E-02   5.62703855E-13
  -3.37000005E-02   6.71313807E-13
  -3.36499996E-02   7.75939317E-13
  -3.35999988E-02   8.78491615E-13
  -3.35500017E-02   9.83143254E-13
  -3.35000008E-02   1.09414940E-12
  -3.34500000E-02   1.21343224E-12
  -3.33999991E-02   1.33907187E-12
  -3.33499983E-02   1.46548908E-12
  -3.33000012E-02   1.58534698E-12
  -3.32500003E-02   1.69239839E-12
  -3.31999995E-02   1.78402551E-12
  -3.31499986E-02   1.86228615E-12
  -3.31000015E-02   1.93286684E-12
  -3.30500007E-02   2.00226077E-12
  -3.29999998E-02   2.07434092E-12
  -3.29499990E-02   2.14787996E-12
  -3.29000019E-02   2.21627664E-12
  -3.28500010E-02   2.26976749E-12
  -3.28000002E-02   2.29924543E-12
  -3.27499993E-02   2.29996968E-12
  -3.26999985E-02   2.27340716E-12
  -3.26500013E-02   2.22626084E-12
  -3.26000005E-02   2.16701180E-12
  -3.25499997E-02   2.10146961E-12
  -3.24999988E-02   2.02936279E-12
  -3.24500017E-02   1.94363275E-12
  -3.24000008E-02   1.83295718E-12
  -3.23500000E-02   1.68656636E-12
  -3.22999991E-02   1.49926599E-12
  -3.22499983E-02   1.27430228E-12
  -3.22000012E-02   1.02254847E-12
  -3.21500003E-02   7.58135254E-13
  -3.20999995E-02   4.92360276E-13
  -3.20499986E-02   2.28629209E-13
  -3.20000015E-02  -3.91693717E-14
  -3.19500007E-02  -3.23941882E-13
  -3.18999998E-02  -6.39369200E-13
  -3.18499990E-02  -9.93178304E-13
  -3.18000019E-02  -1.38273052E-12
  -3.17500010E-02  -1.79505803E-12
  -3.17000002E-02  -2.21157619E-12
  -3.16499993E-02  -2.61556879E-12
  -3.15999985E-02  -2.99913154E-12
  -3.15500014E-02  -3.36629205E-12
  -3.15000005E-02  -3.73067723E-12
  -3.14499997E-02  -4.10853166E-12
  -3.13999988E-02  -4.51014530E-12
  -3.13500017E-02  -4.93357829E-12
  -3.13000008E-02  -5.36369083E-12
  -3.12500000E-02  -5.77709321E-12
  -3.11999992E-02  -6.15100072E-12
  -3.11500002E-02  -6.47215007E-12
  -3.10999993E-02  -6.74173521E-12
  -3.10500003E-02  -6.97399040E-12
  -3.09999995E-02  -7.18878863E-12
  -3.09500005E-02  -7.40139200E-12
  -3.08999997E-02  -7.61395894E-12
  -3.08500007E-02  -7.81283892E-12
  -3.07999998E-02  -7.97312043E-12
  -3.07500008E-02  -8.06858226E-12
  -3.07000000E-02  -8.08262571E-12
  -3.06499992E-02  -8.01518660E-12
  -3.06000002E-02  -7.88235362E-12
  -3.05499993E-02  -7.70865056E-12
  -3.05000003E-02  -7.51525665E-12
  -3.04499995E-02  -7.30933890E-12
  -3.04000005E-02  -7.07939870E-12
  -3.03499997E-02  -6.79899843E-12
  -3.03000007E-02  -6.43756055E-12
  -3.02499998E-02  -5.97361830E-12
  -3.02000009E-02  -5.40459084E-12
  -3.01500000E-02  -4.74849066E-12
  -3.00999992E-02  -4.03655451E-12
  -3.00500002E-02  -3.29990852E-12
  -2.99999993E-02  -2.55615386E-12
  -2.99500003E-02  -1.80190053E-12
  -2.98999995E-02  -1.01471197E-12
  -2.98500005E-02  -1.63797700E-13
  -2.97999997E-02   7.75086972E-13
  -2.97500007E-02   1.80704453E-12
  -2.96999998E-02   2.91345290E-12
  -2.96500009E-02   4.05771640E-12
  -2.96000000E-02   5.19911284E-12
  -2.95499992E-02   6.30878249E-12
  -2.95000002E-02   7.38070542E-12
  -2.94499993E-02   8.43265388E-12
  -2.94000003E-02   9.49650081E-12
  -2.93499995E-02   1.06020514E-11
  -2.93000005E-02   1.17614434E-11
  -2.92499997E-02   1.29610116E-11
  -2.92000007E-02   1.41642280E-11
  -2.91499998E-02   1.53245628E-11
  -2.91000009E-02   1.64028478E-11
  -2.90500000E-02   1.73815129E-11
  -2.89999992E-02   1.82693721E-11
  -2.89500002E-02   1.90946235E-11
  -2.88999993E-02   1.98889447E-11
  -2.88500004E-02   2.06696795E-11
  -2.87999995E-02   2.14281006E-11
  -2.87500005E-02   2.21291561E-11
  -2.86999997E-02   2.27229919E-11
  -2.86500007E-02   2.31633740E-11
  -2.85999998E-02   2.34250813E-11
  -2.85500009E-02   2.35126536E-11
  -2.85000000E-02   2.34565319E-11
  -2.84499992E-02   2.32979781E-11
  -2.84000002E-02   2.30690224E-11
  -2.83499993E-02   2.27760467E-11
  -2.83000004E-02   2.23943173E-11
  -2.82499995E-02   2.18761103E-11
  -2.82000005E-02   2.11692261E-11
  -2.81499997E-02   2.02379762E-11
  -2.81000007E-02   1.90775607E-11
  -2.80499998E-02   1.77155200E-11
  -2.80000009E-02   1.61994550E-11
  -2.79500000E-02   1.45761823E-11
  -2.78999992E-02   1.28711295E-11
  -2.78500002E-02   1.10769137E-11
  -2.77999993E-02   9.15624260E-12
  -2.77500004E-02   7.05834653E-12
  -2.76999995E-02   4.74227428E-12
  -2.76500005E-02   2.19722894E-12
  -2.75999997E-02  -5.49015640E-13
  -2.75500007E-02  -3.43749270E-12
  -2.74999999E-02  -6.39848331E-12
  -2.74500009E-02  -9.37650478E-12
  -2.74000000E-02  -1.23492215E-11
  -2.73499992E-02  -1.53320152E-11
  -2.73000002E-02  -1.83660621E-11
  -2.72499993E-02  -2.14947435E-11
  -2.72000004E-02  -2.47383589E-11
  -2.71499995E-02  -2.80777502E-11
  -2.71000005E-02  -3.14543669E-11
  -2.70499997E-02  -3.47872113E-11
  -2.70000007E-02  -3.79998984E-11
  -2.69499999E-02  -4.10463434E-11
  -2.69000009E-02  -4.39238333E-11
  -2.68500000E-02  -4.66672360E-11
  -2.67999992E-02  -4.93262202E-11
  -2.67500002E-02  -5.19352582E-11
  -2.66999993E-02  -5.44891667E-11
  -2.66500004E-02  -5.69350921E-11
  -2.65999995E-02  -5.91849902E-11
  -2.65500005E-02  -6.11439788E-11
  -2.64999997E-02  -6.27429497E-11
  -2.64500007E-02  -6.39613917E-11
  -2.63999999E-02  -6.48300719E-11
  -2.63500009E-02  -6.54116067E-11
  -2.63000000E-02  -6.57664895E-11
  -2.62499992E-02  -6.59191035E-11
  -2.62000002E-02  -6.58389038E-11
  -2.61499994E-02  -6.54457738E-11
  -2.61000004E-02  -6.46382184E-11
  -2.60499995E-02  -6.33327071E-11
  -2.60000005E-02  -6.14974391E-11
  -2.59499997E-02  -5.91655475E-11
  -2.59000007E-02  -5.64211351E-11
  -2.58499999E-02  -5.33633242E-11
  -2.58000009E-02  -5.00627838E-11
  -2.57500000E-02  -4.65298980E-11
  -2.56999992E-02  -4.27089024E-11
  -2.56500002E-02  -3.85019273E-11
  -2.55999994E-02  -3.38133445E-11
  -2.55500004E-02  -2.85956068E-11
  -2.54999995E-02  -2.28762842E-11
  -2.54500005E-02  -1.67537078E-11
  -2.53999997E-02  -1.03624071E-11
  -2.53500007E-02  -3.82268089E-12
  -2.52999999E-02   2.80381404E-12
  -2.52500009E-02   9.53276520E-12
  -2.52000000E-02   1.64410048E-11
  -2.51499992E-02   2.36215943E-11
  -2.51000002E-02   3.11290126E-11
  -2.50499994E-02   3.89387654E-11
  -2.50000004E-02   4.69402260E-11
  -2.49499995E-02   5.49672530E-11
  -2.49000005E-02   6.28542565E-11
  -2.48499997E-02   7.04931807E-11
  -2.48000007E-02   7.78660122E-11
  -2.47499999E-02   8.50377407E-11
  -2.47000009E-02   9.21119778E-11
  -2.46500000E-02   9.91680141E-11
  -2.45999992E-02   1.06206696E-10
  -2.45500002E-02   1.13129478E-10
  -2.44999994E-02   1.19761409E-10
  -2.44500004E-02   1.25909033E-10
  -2.43999995E-02   1.31428757E-10
  -2.43500005E-02   1.36274811E-10
  -2.42999997E-02   1.40505108E-10
  -2.42500007E-02   1.44240661E-10
  -2.41999999E-02   1.47596116E-10
  -2.41500009E-02   1.50611773E-10
  -2.41000000E-02   1.53217716E-10
  -2.40499992E-02   1.55246996E-10
  -2.40000002E-02   1.56493332E-10
  -2.39499994E-02   1.56788998E-10
  -2.39000004E-02   1.56068977E-10
  -2.38499995E-02   1.54392832E-10
  -2.38000005E-02   1.51913288E-10
  -2.37499997E-02   1.48804011E-10
  -2.37000007E-02   1.45177953E-10
  -2.36499999E-02   1.41032616E-10
  -2.36000009E-02   1.36247180E-10
  -2.35500000E-02   1.30633421E-10
  -2.34999992E-02   1.24019114E-10
  -2.34500002E-02   1.16326761E-10
  -2.33999994E-02   1.07613196E-10
  -2.33500004E-02   9.80520595E-11
  -2.32999995E-02   8.78660270E-11
  -2.32500006E-02   7.72381048E-11
  -2.31999997E-02   6.62411861E-11
  -2.31500007E-02   5.48173833E-11
  -2.30999999E-02   4.28173816E-11
  -2.30500009E-02   3.00831200E-11
  -2.30000000E-02   1.65377451E-11
  -2.29499992E-02   2.24255814E-12
  -2.29000002E-02  -1.26048443E-11
  -2.28499994E-02  -2.77308003E-11
  -2.28000004E-02  -4.28782357E-11
  -2.27499995E-02  -5.78906992E-11
  -2.27000006E-02  -7.27512980E-11
  -2.26499997E-02  -8.75584119E-11
  -2.26000007E-02  -1.02448883E-10
  -2.25499999E-02  -1.17501703E-10
  -2.25000009E-02  -1.32664976E-10
  -2.24500000E-02  -1.47739751E-10
  -2.23999992E-02  -1.62428460E-10
  -2.23500002E-02  -1.76427803E-10
  -2.22999994E-02  -1.89525159E-10
  -2.22500004E-02  -2.01656469E-10
  -2.21999995E-02  -2.12899837E-10
  -2.21500006E-02  -2.23407723E-10
  -2.20999997E-02  -2.33306374E-10
  -2.20500007E-02  -2.42606657E-10
  -2.19999999E-02  -2.51165255E-10
  -2.19500009E-02  -2.58713329E-10
  -2.19000001E-02  -2.64941596E-10
  -2.18499992E-02  -2.69604700E-10
  -2.18000002E-02  -2.72599526E-10
  -2.17499994E-02  -2.73983891E-10
  -2.17000004E-02  -2.73926409E-10
  -2.16499995E-02  -2.72611128E-10
  -2.16000006E-02  -2.70136941E-10
  -2.15499997E-02  -2.66456940E-10
  -2.15000007E-02  -2.61383359E-10
  -2.14499999E-02  -2.54657018E-10
  -2.14000009E-02  -2.46051068E-10
  -2.13500001E-02  -2.35465036E-10
  -2.12999992E-02  -2.22968172E-10
  -2.12500002E-02  -2.08773832E-10
  -2.11999994E-02  -1.93155436E-10
  -2.11500004E-02  -1.76340539E-10
  -2.10999995E-02  -1.58428382E-10
  -2.10500006E-02  -1.39366588E-10
  -2.09999997E-02  -1.18997201E-10
  -2.09500007E-02  -9.71515993E-11
  -2.08999999E-02  -7.37537045E-11
  -2.08500009E-02  -4.88866621E-11
  -2.08000001E-02  -2.27952171E-11
  -2.07499992E-02   4.17865091E-12
  -2.07000002E-02   3.16980851E-11
  -2.06499994E-02   5.95283753E-11
  -2.06000004E-02   8.75865283E-11
  -2.05499995E-02   1.15921842E-10
  -2.05000006E-02   1.44634540E-10
  -2.04499997E-02   1.73767306E-10
  -2.04000007E-02   2.03216888E-10
  -2.03499999E-02   2.32703606E-10
  -2.03000009E-02   2.61812821E-10
  -2.02500001E-02   2.90091451E-10
  -2.01999992E-02   3.17160270E-10
  -2.01500002E-02   3.42793766E-10
  -2.00999994E-02   3.66933650E-10
  -2.00500004E-02   3.89629773E-10
  -1.99999996E-02   4.10932594E-10
  -1.99500006E-02   4.30782632E-10
  -1.98999997E-02   4.48943577E-10
  -1.98500007E-02   4.65009753E-10
  -1.97999999E-02   4.78485418E-10
  -1.97500009E-02   4.88903473E-10
  -1.97000001E-02   4.95933739E-10
  -1.96499992E-02   4.99434383E-10
  -1.96000002E-02   4.99423836E-10
  -1.95499994E-02   4.95984864E-10
  -1.95000004E-02   4.89139285E-10
  -1.94499996E-02   4.78747320E-10
  -1.94000006E-02   4.64474653E-10
  -1.93499997E-02   4.45843473E-10
  -1.93000007E-02   4.22347379E-10
  -1.92499999E-02   3.93582333E-10
  -1.92000009E-02   3.59338476E-10
  -1.91500001E-02   3.19610977E-10
  -1.90999992E-02   2.74525319E-10
  -1.90500002E-02   2.24207361E-10
  -1.89999994E-02   1.68653980E-10
  -1.89500004E-02   1.07660041E-10
  -1.88999996E-02   4.08346586E-11
  -1.88500006E-02  -3.22980045E-11
  -1.87999997E-02  -1.12154445E-10
  -1.87500007E-02  -1.98966704E-10
  -1.86999999E-02  -2.92731089E-10
  -1.86500009E-02  -3.93256511E-10
  -1.86000001E-02  -5.00292252E-10
  -1.85499992E-02  -6.13682660E-10
  -1.85000002E-02  -7.33479888E-10
  -1.84499994E-02  -8.59966376E-10
  -1.84000004E-02  -9.93570892E-10
  -1.83499996E-02  -1.13471510E-09
  -1.83000006E-02  -1.28365418E-09
  -1.82499997E-02  -1.44038315E-09
  -1.82000007E-02  -1.60464941E-09
  -1.81499999E-02  -1.77607140E-09
  -1.81000009E-02  -1.95431404E-09
  -1.80500001E-02  -2.13924434E-09
  -1.79999992E-02  -2.33099873E-09
  -1.79500002E-02  -2.52992782E-09
  -1.78999994E-02  -2.73644285E-09
  -1.78500004E-02  -2.95082891E-09
  -1.77999996E-02  -3.17310467E-09
  -1.77500006E-02  -3.40299411E-09
  -1.76999997E-02  -3.64002606E-09
  -1.76500008E-02  -3.88372179E-09
  -1.75999999E-02  -4.13379153E-09
  -1.75500009E-02  -4.39025305E-09
  -1.75000001E-02  -4.65341587E-09
  -1.74499992E-02  -4.92374008E-09
  -1.74000002E-02  -5.20162224E-09
  -1.73499994E-02  -5.48721157E-09
  -1.73000004E-02  -5.78033044E-09
  -1.72499996E-02  -6.08053341E-09
  -1.72000006E-02  -6.38729336E-09
  -1.71499997E-02  -6.70021993E-09
  -1.71000008E-02  -7.01923186E-09
  -1.70499999E-02  -7.34458361E-09
  -1.70000009E-02  -7.67675168E-09
  -1.69500001E-02  -8.01621969E-09
  -1.68999992E-02  -8.36325675E-09
  -1.68500002E-02  -8.71779537E-09
  -1.67999994E-02  -9.07945719E-09
  -1.67500004E-02  -9.44773060E-09
  -1.66999996E-02  -9.82220794E-09
  -1.66500006E-02  -1.02027853E-08
  -1.65999997E-02  -1.05897451E-08
  -1.65500008E-02  -1.09836717E-08
  -1.64999999E-02  -1.13852270E-08
  -1.64500009E-02  -1.17949019E-08
  -1.64000001E-02  -1.22128361E-08
  -1.63499992E-02  -1.26388073E-08
  -1.63000003E-02  -1.30723770E-08
  -1.62499994E-02  -1.35131595E-08
  -1.62000004E-02  -1.39610519E-08
  -1.61499996E-02  -1.44163597E-08
  -1.61000006E-02  -1.48797517E-08
  -1.60499997E-02  -1.53520503E-08
  -1.60000008E-02  -1.58339599E-08
  -1.59499999E-02  -1.63258473E-08
  -1.59000009E-02  -1.68276735E-08
  -1.58500001E-02  -1.73391133E-08
  -1.57999992E-02  -1.78598256E-08
  -1.57500003E-02  -1.83897235E-08
  -1.56999994E-02  -1.89291551E-08
  -1.56500004E-02  -1.94789003E-08
  -1.55999996E-02  -2.00399768E-08
  -1.55499997E-02  -2.06133652E-08
  -1.54999997E-02  -2.11997406E-08
  -1.54499998E-02  -2.17993463E-08
  -1.53999999E-02  -2.24120669E-08
  -1.53500000E-02  -2.30376767E-08
  -1.53000001E-02  -2.36761313E-08
  -1.52500002E-02  -2.43277931E-08
  -1.52000003E-02  -2.49934988E-08
  -1.51500003E-02  -2.56743977E-08
  -1.51000004E-02  -2.63716604E-08
  -1.50499996E-02  -2.70862053E-08
  -1.49999997E-02  -2.78185244E-08
  -1.49499997E-02  -2.85687047E-08
  -1.48999998E-02  -2.93366611E-08
  -1.48499999E-02  -3.01224254E-08
  -1.48000000E-02  -3.09264081E-08
  -1.47500001E-02  -3.17495115E-08
  -1.47000002E-02  -3.25930252E-08
  -1.46500003E-02  -3.34583561E-08
  -1.46000003E-02  -3.43467228E-08
  -1.45500004E-02  -3.52589105E-08
  -1.44999996E-02  -3.61952814E-08
  -1.44499997E-02  -3.71559388E-08
  -1.43999998E-02  -3.81410779E-08
  -1.43499998E-02  -3.91512422E-08
  -1.42999999E-02  -4.01874800E-08
  -1.42500000E-02  -4.12512478E-08
  -1.42000001E-02  -4.23441904E-08
  -1.41500002E-02  -4.34678427E-08
  -1.41000003E-02  -4.46233450E-08
  -1.40500003E-02  -4.58113583E-08
  -1.40000004E-02  -4.70322057E-08
  -1.39499996E-02  -4.82861608E-08
  -1.38999997E-02  -4.95738526E-08
  -1.38499998E-02  -5.08964355E-08
  -1.37999998E-02  -5.22555759E-08
  -1.37499999E-02  -5.36531743E-08
  -1.37000000E-02  -5.50910890E-08
  -1.36500001E-02  -5.65708405E-08
  -1.36000002E-02  -5.80935158E-08
  -1.35500003E-02  -5.96597971E-08
  -1.35000004E-02  -6.12702209E-08
  -1.34500004E-02  -6.29255297E-08
  -1.33999996E-02  -6.46269669E-08
  -1.33499997E-02  -6.63763657E-08
  -1.32999998E-02  -6.81758863E-08
  -1.32499998E-02  -7.00277525E-08
  -1.31999999E-02  -7.19338402E-08
  -1.31500000E-02  -7.38955706E-08
  -1.31000001E-02  -7.59139738E-08
  -1.30500002E-02  -7.79899310E-08
  -1.30000003E-02  -8.01244155E-08
  -1.29500004E-02  -8.23188202E-08
  -1.29000004E-02  -8.45751131E-08
  -1.28499996E-02  -8.68957102E-08
  -1.27999997E-02  -8.92831480E-08
  -1.27499998E-02  -9.17397784E-08
  -1.26999998E-02  -9.42675058E-08
  -1.26499999E-02  -9.68677725E-08
  -1.26000000E-02  -9.95418006E-08
  -1.25500001E-02  -1.02290990E-07
  -1.25000002E-02  -1.05117117E-07
  -1.24500003E-02  -1.08022491E-07
  -1.24000004E-02  -1.11009825E-07
  -1.23500004E-02  -1.14082020E-07
  -1.22999996E-02  -1.17241768E-07
  -1.22499997E-02  -1.20491336E-07
  -1.21999998E-02  -1.23832407E-07
  -1.21499998E-02  -1.27266333E-07
  -1.20999999E-02  -1.30794376E-07
  -1.20500000E-02  -1.34418400E-07
  -1.20000001E-02  -1.38140891E-07
  -1.19500002E-02  -1.41964946E-07
  -1.19000003E-02  -1.45894035E-07
  -1.18500004E-02  -1.49931608E-07
  -1.18000004E-02  -1.54080823E-07
  -1.17499996E-02  -1.58344349E-07
  -1.16999997E-02  -1.62724334E-07
  -1.16499998E-02  -1.67222694E-07
  -1.15999999E-02  -1.71841492E-07
  -1.15499999E-02  -1.76583100E-07
  -1.15000000E-02  -1.81450432E-07
  -1.14500001E-02  -1.86446570E-07
  -1.14000002E-02  -1.91574529E-07
  -1.13500003E-02  -1.96836993E-07
  -1.13000004E-02  -2.02236237E-07
  -1.12500004E-02  -2.07774434E-07
  -1.11999996E-02  -2.13453802E-07
  -1.11499997E-02  -2.19277155E-07
  -1.10999998E-02  -2.25248016E-07
  -1.10499999E-02  -2.31370720E-07
  -1.09999999E-02  -2.37650127E-07
  -1.09500000E-02  -2.44091069E-07
  -1.09000001E-02  -2.50697894E-07
  -1.08500002E-02  -2.57474142E-07
  -1.08000003E-02  -2.64422340E-07
  -1.07500004E-02  -2.71544479E-07
  -1.07000005E-02  -2.78842350E-07
  -1.06499996E-02  -2.86318055E-07
  -1.05999997E-02  -2.93974210E-07
  -1.05499998E-02  -3.01813998E-07
  -1.04999999E-02  -3.09840857E-07
  -1.04499999E-02  -3.18058369E-07
  -1.04000000E-02  -3.26470058E-07
  -1.03500001E-02  -3.35079562E-07
  -1.03000002E-02  -3.43890378E-07
  -1.02500003E-02  -3.52906483E-07
  -1.02000004E-02  -3.62132653E-07
  -1.01500005E-02  -3.71574345E-07
  -1.00999996E-02  -3.81237470E-07
  -1.00499997E-02  -3.91127827E-07
  -9.99999978E-03  -4.01250674E-07
  -9.94999986E-03  -4.11610159E-07
  -9.89999995E-03  -4.22209695E-07
  -9.85000003E-03  -4.33052293E-07
  -9.80000012E-03  -4.44140767E-07
  -9.75000020E-03  -4.55478045E-07
  -9.70000029E-03  -4.67067821E-07
  -9.65000037E-03  -4.78914501E-07
  -9.60000046E-03  -4.91023172E-07
  -9.54999961E-03  -5.03398724E-07
  -9.49999969E-03  -5.16045759E-07
  -9.44999978E-03  -5.28968371E-07
  -9.39999986E-03  -5.42170199E-07
  -9.34999995E-03  -5.55655390E-07
  -9.30000003E-03  -5.69428948E-07
  -9.25000012E-03  -5.83496444E-07
  -9.20000020E-03  -5.97864414E-07
  -9.15000029E-03  -6.12539850E-07
  -9.10000037E-03  -6.27529857E-07
  -9.05000046E-03  -6.42841314E-07
  -8.99999961E-03  -6.58480872E-07
  -8.94999970E-03  -6.74454213E-07
  -8.89999978E-03  -6.90766967E-07
  -8.84999987E-03  -7.07424874E-07
  -8.79999995E-03  -7.24434528E-07
  -8.75000004E-03  -7.41802921E-07
  -8.70000012E-03  -7.59536988E-07
  -8.65000021E-03  -7.77643322E-07
  -8.60000029E-03  -7.96127836E-07
  -8.55000038E-03  -8.14995872E-07
  -8.50000046E-03  -8.34252546E-07
  -8.44999962E-03  -8.53902520E-07
  -8.39999970E-03  -8.73951137E-07
  -8.34999979E-03  -8.94404877E-07
  -8.29999987E-03  -9.15271585E-07
  -8.24999996E-03  -9.36559786E-07
  -8.20000004E-03  -9.58278633E-07
  -8.15000013E-03  -9.80436425E-07
  -8.10000021E-03  -1.00304135E-06
  -8.05000030E-03  -1.02610147E-06
  -8.00000038E-03  -1.04962498E-06
  -7.95000046E-03  -1.07362052E-06
  -7.89999962E-03  -1.09809741E-06
  -7.84999970E-03  -1.12306543E-06
  -7.79999979E-03  -1.14853560E-06
  -7.74999987E-03  -1.17451907E-06
  -7.69999996E-03  -1.20102686E-06
  -7.65000004E-03  -1.22806819E-06
  -7.60000013E-03  -1.25565180E-06
  -7.55000021E-03  -1.28378565E-06
  -7.49999983E-03  -1.31247839E-06
  -7.44999992E-03  -1.34173956E-06
  -7.40000000E-03  -1.37157906E-06
  -7.35000009E-03  -1.40200780E-06
  -7.30000017E-03  -1.43303589E-06
  -7.24999979E-03  -1.46467369E-06
  -7.19999988E-03  -1.49693210E-06
  -7.14999996E-03  -1.52982159E-06
  -7.10000005E-03  -1.56335193E-06
  -7.05000013E-03  -1.59753336E-06
  -7.00000022E-03  -1.63237712E-06
  -6.94999984E-03  -1.66789664E-06
  -6.89999992E-03  -1.70410647E-06
  -6.85000001E-03  -1.74102115E-06
  -6.80000009E-03  -1.77865456E-06
  -6.75000018E-03  -1.81701989E-06
  -6.69999979E-03  -1.85613044E-06
  -6.64999988E-03  -1.89599939E-06
  -6.59999996E-03  -1.93664005E-06
  -6.55000005E-03  -1.97806548E-06
  -6.50000013E-03  -2.02028968E-06
  -6.45000022E-03  -2.06332857E-06
  -6.39999984E-03  -2.10719872E-06
  -6.34999992E-03  -2.15191517E-06
  -6.30000001E-03  -2.19749222E-06
  -6.25000009E-03  -2.24394239E-06
  -6.20000018E-03  -2.29127841E-06
  -6.14999980E-03  -2.33951414E-06
  -6.09999988E-03  -2.38866437E-06
  -6.04999997E-03  -2.43874410E-06
  -6.00000005E-03  -2.48976835E-06
  -5.95000014E-03  -2.54175302E-06
  -5.90000022E-03  -2.59471653E-06
  -5.84999984E-03  -2.64867685E-06
  -5.79999993E-03  -2.70365035E-06
  -5.75000001E-03  -2.75965158E-06
  -5.70000010E-03  -2.81669645E-06
  -5.65000018E-03  -2.87480202E-06
  -5.59999980E-03  -2.93398853E-06
  -5.54999989E-03  -2.99427597E-06
  -5.49999997E-03  -3.05568301E-06
  -5.45000006E-03  -3.11822919E-06
  -5.40000014E-03  -3.18193497E-06
  -5.35000023E-03  -3.24681878E-06
  -5.29999984E-03  -3.31289903E-06
  -5.24999993E-03  -3.38019208E-06
  -5.20000001E-03  -3.44871387E-06
  -5.15000010E-03  -3.51848325E-06
  -5.10000018E-03  -3.58952025E-06
  -5.04999980E-03  -3.66184440E-06
  -4.99999989E-03  -3.73547573E-06
  -4.94999997E-03  -3.81043242E-06
  -4.90000006E-03  -3.88673106E-06
  -4.85000014E-03  -3.96439054E-06
  -4.80000023E-03  -4.04342882E-06
  -4.74999985E-03  -4.12386453E-06
  -4.69999993E-03  -4.20571541E-06
  -4.65000002E-03  -4.28900194E-06
  -4.60000010E-03  -4.37374911E-06
  -4.55000019E-03  -4.45998239E-06
  -4.49999981E-03  -4.54772407E-06
  -4.44999989E-03  -4.63699507E-06
  -4.39999998E-03  -4.72781539E-06
  -4.35000006E-03  -4.82020641E-06
  -4.30000015E-03  -4.91418996E-06
  -4.25000023E-03  -5.00978877E-06
  -4.19999985E-03  -5.10702193E-06
  -4.14999994E-03  -5.20590993E-06
  -4.10000002E-03  -5.30647594E-06
  -4.05000011E-03  -5.40874271E-06
  -4.00000019E-03  -5.51273160E-06
  -3.94999981E-03  -5.61846173E-06
  -3.89999989E-03  -5.72594899E-06
  -3.84999998E-03  -5.83521114E-06
  -3.80000006E-03  -5.94626863E-06
  -3.74999992E-03  -6.05914329E-06
  -3.70000000E-03  -6.17385922E-06
  -3.65000009E-03  -6.29043916E-06
  -3.59999994E-03  -6.40890221E-06
  -3.55000002E-03  -6.52927338E-06
  -3.50000011E-03  -6.65157586E-06
  -3.44999996E-03  -6.77583375E-06
  -3.40000005E-03  -6.90206525E-06
  -3.34999990E-03  -7.03029036E-06
  -3.29999998E-03  -7.16052955E-06
  -3.25000007E-03  -7.29281010E-06
  -3.19999992E-03  -7.42715883E-06
  -3.15000000E-03  -7.56359714E-06
  -3.10000009E-03  -7.70214683E-06
  -3.04999994E-03  -7.84282929E-06
  -3.00000003E-03  -7.98566452E-06
  -2.95000011E-03  -8.13067436E-06
  -2.89999996E-03  -8.27787699E-06
  -2.85000005E-03  -8.42729696E-06
  -2.79999990E-03  -8.57895157E-06
  -2.74999999E-03  -8.73286263E-06
  -2.70000007E-03  -8.88905379E-06
  -2.64999992E-03  -9.04755052E-06
  -2.60000001E-03  -9.20837556E-06
  -2.55000009E-03  -9.37154164E-06
  -2.49999994E-03  -9.53706876E-06
  -2.45000003E-03  -9.70497695E-06
  -2.40000011E-03  -9.87528892E-06
  -2.34999997E-03  -1.00480265E-05
  -2.30000005E-03  -1.02232107E-05
  -2.24999990E-03  -1.04008641E-05
  -2.19999999E-03  -1.05810104E-05
  -2.15000007E-03  -1.07636770E-05
  -2.09999993E-03  -1.09488883E-05
  -2.05000001E-03  -1.11366653E-05
  -2.00000009E-03  -1.13270235E-05
  -1.94999995E-03  -1.15199855E-05
  -1.90000003E-03  -1.17155741E-05
  -1.85000000E-03  -1.19138194E-05
  -1.79999997E-03  -1.21147432E-05
  -1.75000005E-03  -1.23183627E-05
  -1.70000002E-03  -1.25246970E-05
  -1.64999999E-03  -1.27337680E-05
  -1.59999996E-03  -1.29455948E-05
  -1.55000004E-03  -1.31601964E-05
  -1.50000001E-03  -1.33775920E-05
  -1.44999998E-03  -1.35977971E-05
  -1.39999995E-03  -1.38208270E-05
  -1.35000004E-03  -1.40467109E-05
  -1.30000000E-03  -1.42754752E-05
  -1.24999997E-03  -1.45071408E-05
  -1.20000006E-03  -1.47417286E-05
  -1.15000003E-03  -1.49792595E-05
  -1.09999999E-03  -1.52197563E-05
  -1.04999996E-03  -1.54632398E-05
  -1.00000005E-03  -1.57097311E-05
  -9.50000016E-04  -1.59592582E-05
  -8.99999985E-04  -1.62118413E-05
  -8.50000011E-04  -1.64675057E-05
  -7.99999980E-04  -1.67262733E-05
  -7.50000007E-04  -1.69881678E-05
  -6.99999975E-04  -1.72532073E-05
  -6.50000002E-04  -1.75214082E-05
  -6.00000028E-04  -1.77927905E-05
  -5.49999997E-04  -1.80673724E-05
  -5.00000024E-04  -1.83451739E-05
  -4.49999992E-04  -1.86262241E-05
  -3.99999990E-04  -1.89105394E-05
  -3.49999988E-04  -1.91981435E-05
  -3.00000014E-04  -1.94890599E-05
  -2.50000012E-04  -1.97833069E-05
  -1.99999995E-04  -2.00809027E-05
  -1.50000007E-04  -2.03818672E-05
  -9.99999975E-05  -2.06862242E-05
  -4.99999987E-05  -2.09939953E-05
   0.00000000      -2.13052008E-05
   4.99999987E-05  -2.16198714E-05
   9.99999975E-05  -2.19380327E-05
   1.50000007E-04  -2.22597064E-05
   1.99999995E-04  -2.25849108E-05
   2.50000012E-04  -2.29136604E-05
   3.00000014E-04  -2.32459806E-05
   3.49999988E-04  -2.35819007E-05
   3.99999990E-04  -2.39214405E-05
   4.49999992E-04  -2.42646183E-05
   5.00000024E-04  -2.46114505E-05
   5.49999997E-04  -2.49619698E-05
   6.00000028E-04  -2.53162034E-05
   6.50000002E-04  -2.56741769E-05
   6.99999975E-04  -2.60358975E-05
   7.50000007E-04  -2.64013779E-05
   7.99999980E-04  -2.67706473E-05
   8.50000011E-04  -2.71437330E-05
   8.99999985E-04  -2.75206530E-05
   9.50000016E-04  -2.79014257E-05
   1.00000005E-03  -2.82860710E-05
   1.04999996E-03  -2.86746144E-05
   1.09999999E-03  -2.90670778E-05
   1.15000003E-03  -2.94634847E-05
   1.20000006E-03  -2.98638624E-05
   1.24999997E-03  -3.02682238E-05
   1.30000000E-03  -3.06765869E-05
   1.35000004E-03  -3.10889845E-05
   1.39999995E-03  -3.15054458E-05
   1.44999998E-03  -3.19260034E-05
   1.50000001E-03  -3.23506647E-05
   1.55000004E-03  -3.27794514E-05
   1.59999996E-03  -3.32123855E-05
   1.64999999E-03  -3.36495032E-05
   1.70000002E-03  -3.40908337E-05
   1.75000005E-03  -3.45363769E-05
   1.79999997E-03  -3.49861511E-05
   1.85000000E-03  -3.54401745E-05
   1.90000003E-03  -3.58984798E-05
   1.94999995E-03  -3.63610998E-05
   2.00000009E-03  -3.68280489E-05
   2.05000001E-03  -3.72993345E-05
   2.09999993E-03  -3.77749711E-05
   2.15000007E-03  -3.82549915E-05
   2.19999999E-03  -3.87394393E-05
   2.24999990E-03  -3.92283328E-05
   2.30000005E-03  -3.97216754E-05
   2.34999997E-03  -4.02194855E-05
   2.40000011E-03  -4.07217958E-05
   2.45000003E-03  -4.12286499E-05
   2.49999994E-03  -4.17400770E-05
   2.55000009E-03  -4.22560915E-05
   2.60000001E-03  -4.27766863E-05
   2.64999992E-03  -4.33018868E-05
   2.70000007E-03  -4.38317365E-05
   2.74999999E-03  -4.43662684E-05
   2.79999990E-03  -4.49054969E-05