  -3.99999991E-02   0.00000000    
  -3.99499983E-02   0.00000000    
  -3.99000011E-02   0.00000000    
  -3.98500003E-02   0.00000000    
  -3.97999994E-02   9.11281927E-19
  -3.97499986E-02   1.04706003E-17
  -3.97000015E-02   6.26988875E-17
  -3.96500006E-02   2.59385576E-16
  -3.95999998E-02   8.29282101E-16
  -3.95499989E-02   2.17381477E-15
  -3.95000018E-02   4.84181058E-15
  -3.94500010E-02   9.37879603E-15
  -3.94000001E-02   1.60539832E-14
  -3.93499993E-02   2.45742351E-14
  -3.92999984E-02   3.39939462E-14
  -3.92500013E-02   4.30328313E-14
  -3.92000005E-02   5.08506167E-14
  -3.91499996E-02   5.80239185E-14
  -3.90999988E-02   6.71803718E-14
  -3.90500017E-02   8.26946272E-14
  -3.90000008E-02   1.09190692E-13
  -3.89500000E-02   1.49254564E-13
  -3.88999991E-02   2.01417781E-13
  -3.88499983E-02   2.59696778E-13
  -3.88000011E-02   3.15486623E-13
  -3.87500003E-02   3.61491436E-13
  -3.86999995E-02   3.96102693E-13
  -3.86499986E-02   4.25891635E-13
  -3.86000015E-02   4.64238131E-13
  -3.85500006E-02   5.25688705E-13
  -3.84999998E-02   6.17894136E-13
  -3.84499989E-02   7.34842363E-13
  -3.84000018E-02   8.55393447E-13
  -3.83500010E-02   9.49239819E-13
  -3.83000001E-02   9.88892019E-13
  -3.82499993E-02   9.62761012E-13
  -3.81999984E-02   8.82855963E-13
  -3.81500013E-02   7.82259565E-13
  -3.81000005E-02   7.01970058E-13
  -3.80499996E-02   6.71959287E-13
  -3.79999988E-02   6.94782014E-13
  -3.79500017E-02   7.39836469E-13
  -3.79000008E-02   7.52150078E-13
  -3.78500000E-02   6.72985593E-13
  -3.77999991E-02   4.63588965E-13
  -3.77499983E-02   1.21096235E-13
  -3.77000012E-02  -3.21450792E-13
  -3.76500003E-02  -8.11804942E-13
  -3.75999995E-02  -1.30458719E-12
  -3.75499986E-02  -1.78452370E-12
  -3.75000015E-02  -2.27578091E-12
  -3.74500006E-02  -2.83297886E-12
  -3.73999998E-02  -3.51810876E-12
  -3.73499990E-02  -4.37376697E-12
  -3.73000018E-02  -5.40390259E-12
  -3.72500010E-02  -6.56889994E-12
  -3.72000001E-02  -7.79505887E-12
  -3.71499993E-02  -8.99303895E-12
  -3.70999984E-02  -1.00781770E-11
  -3.70500013E-02  -1.09877914E-11
  -3.70000005E-02  -1.16944380E-11
  -3.69499996E-02  -1.22160927E-11
  -3.68999988E-02  -1.26223511E-11
  -3.68500017E-02  -1.30309409E-11
  -3.68000008E-02  -1.35856396E-11
  -3.67500000E-02  -1.44106619E-11
  -3.66999991E-02  -1.55489718E-11
  -3.66499983E-02  -1.69079577E-11
  -3.66000012E-02  -1.82449368E-11
  -3.65500003E-02  -1.92171418E-11
  -3.64999995E-02  -1.94944842E-11
  -3.64499986E-02  -1.88978572E-11
  -3.64000015E-02  -1.74993388E-11
  -3.63500006E-02  -1.56215544E-11
  -3.62999998E-02  -1.37093965E-11
  -3.62499990E-02  -1.21082692E-11
  -3.62000018E-02  -1.08428275E-11
  -3.61500010E-02  -9.51556542E-12
  -3.61000001E-02  -7.41141003E-12
  -3.60499993E-02  -3.80550149E-12
  -3.59999985E-02   1.63933157E-12
  -3.59500013E-02   8.57576076E-12
  -3.59000005E-02   1.59588245E-11
  -3.58499996E-02   2.23922252E-11
  -3.57999988E-02   2.67383685E-11
  -3.57500017E-02   2.87377240E-11
  -3.57000008E-02   2.93234083E-11
  -3.56500000E-02   3.04073468E-11
  -3.55999991E-02   3.41375608E-11
  -3.55499983E-02   4.18939640E-11
  -3.55000012E-02   5.34737116E-11
  -3.54500003E-02   6.69067718E-11
  -3.53999995E-02   7.91058816E-11
  -3.53499986E-02   8.71719086E-11
  -3.53000015E-02   8.98142324E-11
  -3.52500007E-02   8.81959922E-11
  -3.51999998E-02   8.56874294E-11
  -3.51499990E-02   8.64734048E-11
  -3.51000018E-02   9.35256594E-11
  -3.50500010E-02   1.06848939E-10
  -3.50000001E-02   1.22917274E-10
  -3.49499993E-02   1.35768466E-10
  -3.48999985E-02   1.39475986E-10
  -3.48500013E-02   1.30994410E-10
  -3.48000005E-02   1.12039281E-10
  -3.47499996E-02   8.89392796E-11
  -3.46999988E-02   7.02412919E-11
  -3.46500017E-02   6.29194821E-11
  -3.46000008E-02   6.88398782E-11
  -3.45500000E-02   8.32307070E-11
  -3.44999991E-02   9.61598162E-11
  -3.44499983E-02   9.66844729E-11
  -3.44000012E-02   7.79951034E-11
  -3.43500003E-02   4.11807845E-11
  -3.42999995E-02  -4.37902579E-12
  -3.42499986E-02  -4.45957819E-11
  -3.42000015E-02  -6.69665920E-11
  -3.41500007E-02  -6.68501504E-11
  -3.40999998E-02  -5.06710368E-11
  -3.40499990E-02  -3.41272427E-11
  -3.40000018E-02  -3.56745605E-11
  -3.39500010E-02  -6.78849754E-11
  -3.39000002E-02  -1.30607927E-10
  -3.38499993E-02  -2.09441492E-10
  -3.37999985E-02  -2.80851897E-10
  -3.37500013E-02  -3.22224081E-10
  -3.37000005E-02  -3.22565585E-10
  -3.36499996E-02  -2.88809199E-10
  -3.35999988E-02  -2.44232856E-10
  -3.35500017E-02  -2.18930166E-10
  -3.35000008E-02  -2.36069442E-10
  -3.34500000E-02  -3.00084069E-10
  -3.33999991E-02  -3.92639615E-10
  -3.33499983E-02  -4.79088547E-10
  -3.33000012E-02  -5.23370625E-10
  -3.32500003E-02  -5.05072040E-10
  -3.31999995E-02  -4.30703972E-10
  -3.31499986E-02  -3.33252620E-10
  -3.31000015E-02  -2.59074262E-10
  -3.30500007E-02  -2.47156406E-10
  -3.29999998E-02  -3.09872600E-10
  -3.29499990E-02  -4.24502988E-10
  -3.29000019E-02  -5.40535783E-10
  -3.28500010E-02  -6.00734462E-10
  -3.28000002E-02  -5.67246194E-10
  -3.27499993E-02  -4.40864623E-10
  -3.26999985E-02  -2.63760541E-10
  -3.26500013E-02  -1.02986342E-10
  -3.26000005E-02  -2.09296191E-11
  -3.25499997E-02  -4.55875719E-11
  -3.24999988E-02  -1.54688942E-10
  -3.24500017E-02  -2.82298629E-10
  -3.24000008E-02  -3.46613821E-10
  -3.23500000E-02  -2.87539104E-10
  -3.22999991E-02  -9.70828209E-11
  -3.22499983E-02   1.72360556E-10
  -3.22000012E-02   4.27533536E-10
  -3.21500003E-02   5.74669923E-10
  -3.20999995E-02   5.63336655E-10
  -3.20499986E-02   4.13416190E-10
  -3.20000015E-02   2.11241913E-10
  -3.19500007E-02   7.43349479E-11
  -3.18999998E-02   9.89055435E-11
  -3.18499990E-02   3.13430115E-10
  -3.18000019E-02   6.60482891E-10
  -3.17500010E-02   1.01736530E-09
  -3.17000002E-02   1.24864896E-09
  -3.16499993E-02   1.26830668E-09
  -3.15999985E-02   1.08303488E-09
  -3.15500014E-02   7.95191635E-10
  -3.15000005E-02   5.61177549E-10
  -3.14499997E-02   5.21658439E-10
  -3.13999988E-02   7.34335315E-10
  -3.13500017E-02   1.14087018E-09
  -3.13000008E-02   1.58574620E-09
  -3.12500000E-02   1.88177340E-09
  -3.11999992E-02   1.89481431E-09
  -3.11500002E-02   1.60952818E-09
  -3.10999993E-02   1.14428489E-09
  -3.10500003E-02   7.05018044E-10
  -3.09999995E-02   4.95560759E-10
  -3.09500005E-02   6.23346652E-10
  -3.08999997E-02   1.04393705E-09
  -3.08500007E-02   1.57247926E-09
  -3.07999998E-02   1.96081662E-09
  -3.07500008E-02   2.00840367E-09
  -3.07000000E-02   1.65758740E-09
  -3.06499992E-02   1.02815922E-09
  -3.06000002E-02   3.71629033E-10
  -3.05499993E-02  -3.81945343E-11
  -3.05000003E-02  -3.12295433E-11
  -3.04499995E-02   3.73742565E-10
  -3.04000005E-02   9.66636771E-10
  -3.03499997E-02   1.43216039E-09
  -3.03000007E-02   1.48960011E-09
  -3.02499998E-02   1.02464359E-09
  -3.02000009E-02   1.51851171E-10
  -3.01500000E-02  -8.24911695E-10
  -3.00999992E-02  -1.54137181E-09
  -3.00500002E-02  -1.73642312E-09
  -2.99999993E-02  -1.37679801E-09
  -2.99500003E-02  -6.83334611E-10
  -2.98999995E-02  -4.16694804E-11
  -2.98500005E-02   1.67405798E-10
  -2.97999997E-02  -2.56164229E-10
  -2.97500007E-02  -1.23027488E-09
  -2.96999998E-02  -2.41413711E-09
  -2.96500009E-02  -3.35205397E-09
  -2.96000000E-02  -3.67724629E-09
  -2.95499992E-02  -3.28486660E-09
  -2.95000002E-02  -2.39308529E-09
  -2.94499993E-02  -1.45869516E-09
  -2.94000003E-02  -9.78980785E-10
  -2.93499995E-02  -1.26538713E-09
  -2.93000005E-02  -2.29154473E-09
  -2.92499997E-02  -3.68884212E-09
  -2.92000007E-02  -4.89839813E-09
  -2.91499998E-02  -5.41696599E-09
  -2.91000009E-02  -5.02837993E-09
  -2.90500000E-02  -3.91396293E-09
  -2.89999992E-02  -2.58606048E-09
  -2.89500002E-02  -1.66745895E-09
  -2.88999993E-02  -1.61102764E-09
  -2.88500004E-02  -2.48532528E-09
  -2.87999995E-02  -3.92707866E-09
  -2.87500005E-02  -5.28930233E-09
  -2.86999997E-02  -5.92547789E-09
  -2.86500007E-02  -5.48544099E-09
  -2.85999998E-02  -4.08812584E-09
  -2.85500009E-02  -2.28708208E-09
  -2.85000000E-02  -8.35999492E-10
  -2.84499992E-02  -3.53200247E-10
  -2.84000002E-02  -1.03416087E-09
  -2.83499993E-02  -2.54517274E-09
  -2.83000004E-02  -4.15380308E-09
  -2.82499995E-02  -5.04593300E-09
  -2.82000005E-02  -4.69212003E-09
  -2.81499997E-02  -3.09827275E-09
  -2.81000007E-02  -8.22131418E-10
  -2.80499998E-02   1.26065014E-09
  -2.80000009E-02   2.34349007E-09
  -2.79500000E-02   2.05827799E-09
  -2.78999992E-02   6.58292698E-10
  -2.78500002E-02  -1.07540366E-09
  -2.77999993E-02  -2.17142793E-09
  -2.77500004E-02  -1.90448524E-09
  -2.76999995E-02  -1.35610939E-10
  -2.76500005E-02   2.60200306E-09
  -2.75999997E-02   5.31966382E-09
  -2.75500007E-02   7.00446501E-09
  -2.74999999E-02   7.07673742E-09
  -2.74500009E-02   5.66681813E-09
  -2.74000000E-02   3.57940766E-09
  -2.73499992E-02   1.95123140E-09
  -2.73000002E-02   1.74719705E-09
  -2.72499993E-02   3.31830186E-09
  -2.72000004E-02   6.22366381E-09
  -2.71499995E-02   9.40570377E-09
  -2.71000005E-02   1.16499912E-08
  -2.70499997E-02   1.21300205E-08
  -2.70000007E-02   1.07924656E-08
  -2.69499999E-02   8.40330916E-09
  -2.69000009E-02   6.22363983E-09
  -2.68500000E-02   5.45099965E-09
  -2.67999992E-02   6.67253675E-09
  -2.67500002E-02   9.57830171E-09
  -2.66999993E-02   1.30724054E-08
  -2.66500004E-02   1.57433835E-08
  -2.65999995E-02   1.64911782E-08
  -2.65500005E-02   1.50313273E-08
  -2.64999997E-02   1.20445520E-08
  -2.64500007E-02   8.89410590E-09
  -2.63999999E-02   7.02682401E-09
  -2.63500009E-02   7.32028393E-09
  -2.63000000E-02   9.67004432E-09
  -2.62499992E-02   1.30101405E-08
  -2.62000002E-02   1.57690128E-08
  -2.61499994E-02   1.65659042E-08
  -2.61000004E-02   1.48387400E-08
  -2.60499995E-02   1.11175469E-08
  -2.60000005E-02   6.81057699E-09
  -2.59499997E-02   3.58765795E-09
  -2.59000007E-02   2.62971400E-09
  -2.58499999E-02   4.08090317E-09
  -2.58000009E-02   6.95630220E-09
  -2.57500000E-02   9.55820312E-09
  -2.56999992E-02   1.02250732E-08
  -2.56500002E-02   8.08251333E-09
  -2.55999994E-02   3.45675488E-09
  -2.55500004E-02  -2.24397345E-09
  -2.54999995E-02  -7.13869541E-09
  -2.54500005E-02  -9.70909220E-09
  -2.53999997E-02  -9.48842160E-09
  -2.53500007E-02  -7.28939042E-09
  -2.52999999E-02  -4.85823692E-09
  -2.52500009E-02  -4.09959888E-09
  -2.52000000E-02  -6.21396445E-09
  -2.51499992E-02  -1.11362617E-08
  -2.51000002E-02  -1.75357346E-08
  -2.50499994E-02  -2.33882833E-08
  -2.50000004E-02  -2.68737264E-08
  -2.49499995E-02  -2.71981548E-08
  -2.49000005E-02  -2.49677683E-08
  -2.48499997E-02  -2.19366125E-08
  -2.48000007E-02  -2.02306545E-08
  -2.47499999E-02  -2.13898126E-08
  -2.47000009E-02  -2.56582062E-08
  -2.46500000E-02  -3.18480815E-08
  -2.45999992E-02  -3.78487215E-08
  -2.45500002E-02  -4.15604262E-08
  -2.44999994E-02  -4.18375485E-08
  -2.44500004E-02  -3.90136456E-08
  -2.43999995E-02  -3.47643017E-08
  -2.43500005E-02  -3.13599031E-08
  -2.42999997E-02  -3.06383114E-08
  -2.42500007E-02  -3.31592744E-08
  -2.41999999E-02  -3.79271192E-08
  -2.41500009E-02  -4.28157563E-08
  -2.41000000E-02  -4.55130049E-08
  -2.40499992E-02  -4.45627464E-08
  -2.40000002E-02  -4.00330329E-08
  -2.39499994E-02  -3.35019585E-08
  -2.39000004E-02  -2.73590732E-08
  -2.38499995E-02  -2.37311628E-08
  -2.38000005E-02  -2.35159536E-08
  -2.37499997E-02  -2.59637627E-08
  -2.37000007E-02  -2.90030489E-08
  -2.36499999E-02  -3.01694278E-08
  -2.36000009E-02  -2.77214287E-08
  -2.35500000E-02  -2.14370797E-08
  -2.34999992E-02  -1.27258826E-08
  -2.34500002E-02  -3.99936351E-09
  -2.33999994E-02   2.41867548E-09
  -2.33500004E-02   5.34867217E-09
  -2.32999995E-02   5.29588418E-09
  -2.32500006E-02   4.22419344E-09
  -2.31999997E-02   4.66120609E-09
  -2.31500007E-02   8.53912940E-09
  -2.30999999E-02   1.62998681E-08
  -2.30500009E-02   2.66757212E-08
  -2.30000000E-02   3.72498725E-08
  -2.29499992E-02   4.55440130E-08
  -2.29000002E-02   5.01370749E-08
  -2.28499994E-02   5.13020488E-08
  -2.28000004E-02   5.08668734E-08
  -2.27499995E-02   5.13607432E-08
  -2.27000006E-02   5.48368853E-08
  -2.26499997E-02   6.19133473E-08
  -2.26000007E-02   7.14746946E-08
  -2.25499999E-02   8.11742069E-08
  -2.25000009E-02   8.85062263E-08
  -2.24500000E-02   9.19532326E-08
  -2.23999992E-02   9.16759717E-08
  -2.23500002E-02   8.94253489E-08
  -2.22999994E-02   8.77151365E-08
  -2.22500004E-02   8.86385862E-08
  -2.21999995E-02   9.28794179E-08
  -2.21500006E-02   9.93787737E-08
  -2.20999997E-02   1.05814671E-07
  -2.20500007E-02   1.09671426E-07
  -2.19999999E-02   1.09399686E-07
  -2.19500009E-02   1.05123249E-07
  -2.19000001E-02   9.85600792E-08
  -2.18499992E-02   9.21937655E-08
  -2.18000002E-02   8.80846613E-08
  -2.17499994E-02   8.68819328E-08
  -2.17000004E-02   8.75053274E-08
  -2.16499995E-02   8.76502710E-08
  -2.16000006E-02   8.48799786E-08
  -2.15499997E-02   7.77872486E-08
  -2.15000007E-02   6.66720652E-08
  -2.14499999E-02   5.34073621E-08
  -2.14000009E-02   4.05509653E-08
  -2.13500001E-02   3.01235374E-08
  -2.12999992E-02   2.26368631E-08
  -2.12500002E-02   1.68432113E-08
  -2.11999994E-02   1.03352100E-08
  -2.11500004E-02   7.16981308E-10
  -2.10999995E-02  -1.32130769E-08
  -2.10500006E-02  -3.08418535E-08
  -2.09999997E-02  -4.99949131E-08
  -2.09500007E-02  -6.79560372E-08
  -2.08999999E-02  -8.27704909E-08
  -2.08500009E-02  -9.42005229E-08
  -2.08000001E-02  -1.03856358E-07
  -2.07499992E-02  -1.14416331E-07
  -2.07000002E-02  -1.28293550E-07
  -2.06499994E-02  -1.46387322E-07
  -2.06000004E-02  -1.67535489E-07
  -2.05499995E-02  -1.88961280E-07
  -2.05000006E-02  -2.07530576E-07
  -2.04499997E-02  -2.21231872E-07
  -2.04000007E-02  -2.30161575E-07
  -2.03499999E-02  -2.36511767E-07
  -2.03000009E-02  -2.43526443E-07
  -2.02500001E-02  -2.53895820E-07
  -2.01999992E-02  -2.68352466E-07
  -2.01500002E-02  -2.85166664E-07
  -2.00999994E-02  -3.00829356E-07
  -2.00500004E-02  -3.11642850E-07
  -1.99999996E-02  -3.15485124E-07
  -1.99500006E-02  -3.12892411E-07
  -1.98999997E-02  -3.06898500E-07
  -1.98500007E-02  -3.01645201E-07
  -1.97999999E-02  -3.00377820E-07
  -1.97500009E-02  -3.03768985E-07
  -1.97000001E-02  -3.09401202E-07
  -1.96499992E-02  -3.12720829E-07
  -1.96000002E-02  -3.09080264E-07
  -1.95499994E-02  -2.95940112E-07
  -1.95000004E-02  -2.74178518E-07
  -1.94499996E-02  -2.47829490E-07
  -1.94000006E-02  -2.22294261E-07
  -1.93499997E-02  -2.01804141E-07
  -1.93000007E-02  -1.87313091E-07
  -1.92499999E-02  -1.75852705E-07
  -1.92000009E-02  -1.61736878E-07
  -1.91500001E-02  -1.39139814E-07
  -1.90999992E-02  -1.04888642E-07
  -1.90500002E-02  -6.01503132E-08
  -1.89999994E-02  -1.01515276E-08
  -1.89500004E-02   3.80414384E-08
  -1.88999996E-02   7.87319863E-08
  -1.88500006E-02   1.10322453E-07
  -1.87999997E-02   1.36246655E-07
  -1.87500007E-02   1.63570419E-07
  -1.86999999E-02   1.99800681E-07
  -1.86500009E-02   2.49315320E-07
  -1.86000001E-02   3.11075269E-07
  -1.85499992E-02   3.78757704E-07
  -1.85000002E-02   4.43368577E-07
  -1.84499994E-02   4.97230985E-07
  -1.84000004E-02   5.37545873E-07
  -1.83499996E-02   5.67835798E-07
  -1.83000006E-02   5.96494033E-07
  -1.82499997E-02   6.32978924E-07
  -1.82000007E-02   6.83319684E-07
  -1.81499999E-02   7.46998694E-07
  -1.81000009E-02   8.16732665E-07
  -1.80500001E-02   8.81389383E-07
  -1.79999992E-02   9.30827355E-07
  -1.79500002E-02   9.60499278E-07
  -1.78999994E-02   9.73669216E-07
  -1.78500004E-02   9.80106392E-07
  -1.77999996E-02   9.91706202E-07
  -1.77500006E-02   1.01693354E-06
  -1.76999997E-02   1.05660672E-06
  -1.76500008E-02   1.10303722E-06
  -1.75999999E-02   1.14306397E-06
  -1.75500009E-02   1.16373906E-06
  -1.75000001E-02   1.15815885E-06
  -1.74499992E-02   1.12874591E-06
  -1.74000002E-02   1.08636573E-06
  -1.73499994E-02   1.04551077E-06
  -1.73000004E-02   1.01761100E-06
  -1.72499996E-02   1.00548539E-06
  -1.72000006E-02   1.00152420E-06
  -1.71499997E-02   9.90601166E-07
  -1.71000008E-02   9.56559120E-07
  -1.70499999E-02   8.89431703E-07
  -1.70000009E-02   7.90116701E-07
  -1.69500001E-02   6.70252064E-07
  -1.68999992E-02   5.47179297E-07
  -1.68500002E-02   4.36113794E-07
  -1.67999994E-02   3.43007713E-07
  -1.67500004E-02   2.61395172E-07
  -1.66999996E-02   1.74819064E-07
  -1.66500006E-02   6.39276934E-08
  -1.65999997E-02  -8.48518624E-08
  -1.65500008E-02  -2.72952832E-07
  -1.64999999E-02  -4.88632736E-07
  -1.64500009E-02  -7.11906978E-07
  -1.64000001E-02  -9.23399682E-07
  -1.63499992E-02  -1.11324277E-06
  -1.63000003E-02  -1.28591989E-06
  -1.62499994E-02  -1.45871797E-06
  -1.62000004E-02  -1.65429719E-06
  -1.61499996E-02  -1.89054742E-06
  -1.61000006E-02  -2.17226784E-06
  -1.60499997E-02  -2.48851484E-06
  -1.60000008E-02  -2.81700795E-06
  -1.59499999E-02  -3.13382088E-06
  -1.59000009E-02  -3.42413182E-06
  -1.58500001E-02  -3.68913720E-06
  -1.57999992E-02  -3.94589551E-06
  -1.57500003E-02  -4.21996447E-06
  -1.56999994E-02  -4.53392431E-06
  -1.56500004E-02  -4.89691547E-06
  -1.55999996E-02  -5.29994713E-06
  -1.55499997E-02  -5.71931059E-06
  -1.54999997E-02  -6.12677604E-06
  -1.54499998E-02  -6.50212996E-06
  -1.53999999E-02  -6.84245379E-06
  -1.53500000E-02  -7.16383329E-06
  -1.53000001E-02  -7.49451056E-06
  -1.52500002E-02  -7.86232067E-06
  -1.52000003E-02  -8.28194788E-06
  -1.51500003E-02  -8.74776742E-06
  -1.51000004E-02  -9.23571133E-06
  -1.50499996E-02  -9.71349800E-06
  -1.49999997E-02  -1.01548694E-05
  -1.49499997E-02  -1.05514673E-05
  -1.48999998E-02  -1.09169505E-05
  -1.48499999E-02  -1.12812859E-05
  -1.48000000E-02  -1.16774772E-05
  -1.47500001E-02  -1.21265975E-05
  -1.47000002E-02  -1.26278710E-05
  -1.46500003E-02  -1.31583311E-05
  -1.46000003E-02  -1.36825447E-05
  -1.45500004E-02  -1.41682249E-05
  -1.44999996E-02  -1.46008324E-05
  -1.44499997E-02  -1.49905563E-05
  -1.43999998E-02  -1.53682831E-05
  -1.43499998E-02  -1.57721697E-05
  -1.42999999E-02  -1.62306405E-05
  -1.42500000E-02  -1.67493326E-05
  -1.42000001E-02  -1.73080098E-05
  -1.41500002E-02  -1.78691625E-05
  -1.41000003E-02  -1.83945303E-05
  -1.40500003E-02  -1.88623762E-05
  -1.40000004E-02  -1.92777734E-05
  -1.39499996E-02  -1.96709643E-05
  -1.38999997E-02  -2.00844006E-05
  -1.38499998E-02  -2.05539891E-05
  -1.37999998E-02  -2.10929393E-05
  -1.37499999E-02  -2.16854678E-05
  -1.37000000E-02  -2.22934068E-05
  -1.36500001E-02  -2.28731442E-05
  -1.36000002E-02  -2.33953779E-05
  -1.35500003E-02  -2.38588473E-05
  -1.35000004E-02  -2.42917795E-05
  -1.34500004E-02  -2.47401113E-05
  -1.33999996E-02  -2.52475002E-05
  -1.33499997E-02  -2.58359287E-05
  -1.32999998E-02  -2.64957125E-05
  -1.32499998E-02  -2.71896315E-05
  -1.31999999E-02  -2.78694370E-05
  -1.31500000E-02  -2.84977050E-05
  -1.31000001E-02  -2.90652697E-05
  -1.30500002E-02  -2.95962709E-05
  -1.30000003E-02  -3.01383261E-05
  -1.29500004E-02  -3.07419905E-05
  -1.29000004E-02  -3.14385470E-05
  -1.28499996E-02  -3.22259148E-05
  -1.27999997E-02  -3.30694529E-05
  -1.27499998E-02  -3.39174258E-05
  -1.26999998E-02  -3.47244422E-05
  -1.26499999E-02  -3.54724179E-05
  -1.26000000E-02  -3.61796701E-05
  -1.25500001E-02  -3.68940382E-05
  -1.25000002E-02  -3.76722710E-05
  -1.24500003E-02  -3.85552921E-05
  -1.24000004E-02  -3.95502720E-05
  -1.23500004E-02  -4.06272884E-05
  -1.22999996E-02  -4.17327356E-05
  -1.22499997E-02  -4.28136627E-05
  -1.21999998E-02  -4.38421885E-05
  -1.21499998E-02  -4.48288665E-05
  -1.20999999E-02  -4.58190771E-05
  -1.20500000E-02  -4.68737962E-05
  -1.20000001E-02  -4.80429699E-05
  -1.19500002E-02  -4.93433254E-05
  -1.19000003E-02  -5.07508448E-05
  -1.18500004E-02  -5.22116388E-05
  -1.18000004E-02  -5.36661064E-05
  -1.17499996E-02  -5.50762379E-05
  -1.16999997E-02  -5.64435431E-05
  -1.16499998E-02  -5.78095205E-05
  -1.15999999E-02  -5.92382312E-05
  -1.15499999E-02  -6.07884940E-05
  -1.15000000E-02  -6.24881141E-05
  -1.14500001E-02  -6.43214662E-05
  -1.14000002E-02  -6.62365273E-05
  -1.13500003E-02  -6.81684905E-05
  -1.13000004E-02  -7.00691162E-05
  -1.12500004E-02  -7.19289164E-05
  -1.11999996E-02  -7.37824375E-05
  -1.11499997E-02  -7.56939044E-05
  -1.10999998E-02  -7.77290406E-05
  -1.10499999E-02  -7.99258778E-05
  -1.09999999E-02  -8.22780858E-05
  -1.09500000E-02  -8.47377742E-05
  -1.09000001E-02  -8.72370292E-05
  -1.08500002E-02  -8.97188074E-05
  -1.08000003E-02  -9.21632891E-05
  -1.07500004E-02  -9.45977590E-05
  -1.07000005E-02  -9.70856199E-05
  -1.06499996E-02  -9.96989329E-05
  -1.05999997E-02  -1.02487036E-04
  -1.05499998E-02  -1.05454776E-04
  -1.04999999E-02  -1.08560504E-04
  -1.04499999E-02  -1.11734997E-04
  -1.04000000E-02  -1.14912924E-04
  -1.03500001E-02  -1.18062679E-04
  -1.03000002E-02  -1.21201345E-04
  -1.02500003E-02  -1.24388200E-04
  -1.02000004E-02  -1.27698979E-04
  -1.01500005E-02  -1.31192704E-04
  -1.00999996E-02  -1.34885588E-04
  -1.00499997E-02  -1.38744086E-04
  -9.99999978E-03  -1.42700359E-04
  -9.94999986E-03  -1.46682869E-04
  -9.89999995E-03  -1.50649488E-04
  -9.85000003E-03  -1.54607449E-04
  -9.80000012E-03  -1.58611234E-04
  -9.75000020E-03  -1.62739248E-04
  -9.70000029E-03  -1.67059916E-04
  -9.65000037E-03  -1.71602194E-04
  -9.60000046E-03  -1.76343034E-04
  -9.54999961E-03  -1.81218580E-04
  -9.49999969E-03  -1.86153920E-04
  -9.44999978E-03  -1.91097686E-04
  -9.39999986E-03  -1.96046254E-04
  -9.34999995E-03  -2.01046976E-04
  -9.30000003E-03  -2.06178025E-04
  -9.25000012E-03  -2.11514183E-04
  -9.20000020E-03  -2.17094741E-04
  -9.15000029E-03  -2.22906499E-04
  -9.10000037E-03  -2.28890363E-04
  -9.05000046E-03  -2.34968858E-04
  -8.99999961E-03  -2.41082234E-04
  -8.94999970E-03  -2.47215707E-04
  -8.89999978E-03  -2.53407401E-04
  -8.84999987E-03  -2.59733410E-04
  -8.79999995E-03  -2.66274583E-04
  -8.75000004E-03  -2.73081620E-04
  -8.70000012E-03  -2.80154141E-04
  -8.65000021E-03  -2.87442468E-04
  -8.60000029E-03  -2.94871483E-04
  -8.55000038E-03  -3.02375556E-04
  -8.50000046E-03  -3.09929979E-04
  -8.44999962E-03  -3.17564292E-04
  -8.39999970E-03  -3.25351139E-04
  -8.34999979E-03  -3.33374599E-04
  -8.29999987E-03  -3.41693842E-04
  -8.24999996E-03  -3.50319577E-04
  -8.20000004E-03  -3.59210593E-04
  -8.15000013E-03  -3.68293782E-04
  -8.10000021E-03  -3.77498596E-04
  -8.05000030E-03  -3.86790227E-04
  -8.00000038E-03  -3.96186835E-04
  -7.95000046E-03  -4.05752769E-04
  -7.89999962E-03  -4.15572023E-04
  -7.84999970E-03  -4.25711682E-04
  -7.79999979E-03  -4.36192611E-04
  -7.74999987E-03  -4.46982711E-04
  -7.69999996E-03  -4.58014081E-04
  -7.65000004E-03  -4.69215418E-04
  -7.60000013E-03  -4.80545597E-04
  -7.55000021E-03  -4.92014457E-04
  -7.49999983E-03  -5.03681309E-04
  -7.44999992E-03  -5.15628955E-04
  -7.40000000E-03  -5.27930155E-04
  -7.35000009E-03  -5.40616515E-04
  -7.30000017E-03  -5.53665624E-04
  -7.24999979E-03  -5.67014795E-04
  -7.19999988E-03  -5.80591790E-04
  -7.14999996E-03  -5.94350626E-04
  -7.10000005E-03  -6.08292816E-04
  -7.05000013E-03  -6.22469815E-04
  -7.00000022E-03  -6.36961660E-04
  -6.94999984E-03  -6.51842216E-04
  -6.89999992E-03  -6.67148444E-04
  -6.85000001E-03  -6.82865852E-04
  -6.80000009E-03  -6.98938267E-04
  -6.75000018E-03  -7.15296192E-04
  -6.69999979E-03  -7.31889857E-04
  -6.64999988E-03  -7.48713617E-04
  -6.59999996E-03  -7.65811128E-04
  -6.55000005E-03  -7.83256430E-04
  -6.50000013E-03  -8.01123329E-04
  -6.45000022E-03  -8.19454901E-04
  -6.39999984E-03  -8.38246895E-04
  -6.34999992E-03  -8.57451814E-04
  -6.30000001E-03  -8.77005572E-04
  -6.25000009E-03  -8.96857819E-04
  -6.20000018E-03  -9.16996854E-04
  -6.14999980E-03  -9.37460689E-04
  -6.09999988E-03  -9.58320452E-04
  -6.04999997E-03  -9.79648903E-04
  -6.00000005E-03  -1.00149075E-03
  -5.95000014E-03  -1.02384842E-03
  -5.90000022E-03  -1.04668317E-03
  -5.84999984E-03  -1.06993713E-03
  -5.79999993E-03  -1.09356025E-03
  -5.75000001E-03  -1.11753505E-03
  -5.70000010E-03  -1.14189042E-03
  -5.65000018E-03  -1.16669037E-03
  -5.59999980E-03  -1.19200780E-03
  -5.54999989E-03  -1.21789041E-03
  -5.49999997E-03  -1.24434533E-03
  -5.45000006E-03  -1.27133913E-03
  -5.40000014E-03  -1.29881606E-03
  -5.35000023E-03  -1.32672791E-03
  -5.29999984E-03  -1.35505944E-03
  -5.24999993E-03  -1.38383999E-03
  -5.20000001E-03  -1.41312869E-03
  -5.15000010E-03  -1.44299329E-03
  -5.10000018E-03  -1.47348421E-03
  -5.04999980E-03  -1.50461192E-03
  -4.99999989E-03  -1.53634755E-03
  -4.94999997E-03  -1.56864210E-03
  -4.90000006E-03  -1.60145271E-03
  -4.85000014E-03  -1.63476495E-03
  -4.80000023E-03  -1.66860479E-03
  -4.74999985E-03  -1.70303101E-03
  -4.69999993E-03  -1.73810683E-03
  -4.65000002E-03  -1.77387521E-03
  -4.60000010E-03  -1.81034801E-03
  -4.55000019E-03  -1.84750382E-03
  -4.49999981E-03  -1.88529654E-03
  -4.44999989E-03  -1.92368461E-03
  -4.39999998E-03  -1.96265569E-03
  -4.35000006E-03  -2.00222922E-03
  -4.30000015E-03  -2.04245979E-03
  -4.25000023E-03  -2.08341423E-03
  -4.19999985E-03  -2.12513586E-03
  -4.14999994E-03  -2.16763583E-03
  -4.10000002E-03  -2.21089437E-03
  -4.05000011E-03  -2.25486886E-03
  -4.00000019E-03  -2.29952065E-03
  -3.94999981E-03  -2.34483718E-03
  -3.89999989E-03  -2.39084428E-03
  -3.84999998E-03  -2.43759993E-03
  -3.80000006E-03  -2.48516584E-03
  -3.74999992E-03  -2.53358786E-03
  -3.70000000E-03  -2.58287741E-03
  -3.65000009E-03  -2.63300934E-03
  -3.59999994E-03  -2.68393825E-03
  -3.55000002E-03  -2.73562688E-03
  -3.50000011E-03  -2.78807036E-03
  -3.44999996E-03  -2.84129335E-03
  -3.40000005E-03  -2.89534987E-03
  -3.34999990E-03  -2.95029581E-03
  -3.29999998E-03  -3.00617656E-03
  -3.25000007E-03  -3.06300935E-03
  -3.19999992E-03  -3.12076253E-03
  -3.15000000E-03  -3.17939278E-03
  -3.10000009E-03  -3.23886913E-03
  -3.04999994E-03  -3.29917506E-03
  -3.00000003E-03  -3.36032989E-03
  -2.95000011E-03  -3.42238881E-03
  -2.89999996E-03  -3.48542025E-03
  -2.85000005E-03  -3.54947778E-03
  -2.79999990E-03  -3.61457327E-03
  -2.74999999E-03  -3.68068018E-03
  -2.70000007E-03  -3.74775054E-03
  -2.64999992E-03  -3.81573709E-03
  -2.60000001E-03  -3.88462422E-03
  -2.55000009E-03  -3.95443477E-03
  -2.49999994E-03  -4.02522879E-03
  -2.45000003E-03  -4.09707706E-03
  -2.40000011E-03  -4.17003548E-03
  -2.34999997E-03  -4.24412265E-03
  -2.30000005E-03  -4.31930227E-03
  -2.24999990E-03  -4.39550541E-03
  -2.19999999E-03  -4.47267527E-03
  -2.15000007E-03  -4.55079600E-03
  -2.09999993E-03  -4.62988950E-03
  -2.05000001E-03  -4.71002236E-03
  -2.00000009E-03  -4.79127932E-03
  -1.94999995E-03  -4.87371814E-03
  -1.90000003E-03  -4.95735370E-03
  -1.85000000E-03  -5.04215294E-03
  -1.79999997E-03  -5.12803765E-03
  -1.75000005E-03  -5.21494029E-03
  -1.70000002E-03  -5.30283945E-03
  -1.64999999E-03  -5.39175374E-03
  -1.59999996E-03  -5.48175815E-03
  -1.55000004E-03  -5.57293463E-03
  -1.50000001E-03  -5.66534558E-03
  -1.44999998E-03  -5.75901475E-03
  -1.39999995E-03  -5.85389929E-03
  -1.35000004E-03  -5.94992097E-03
  -1.30000000E-03  -6.04700530E-03
  -1.24999997E-03  -6.14511315E-03
  -1.20000006E-03  -6.24425709E-03
  -1.15000003E-03  -6.34449953E-03
  -1.09999999E-03  -6.44593500E-03
  -1.04999996E-03  -6.54865848E-03
  -1.00000005E-03  -6.65270630E-03
  -9.50000016E-04  -6.75801840E-03
  -8.99999985E-04  -6.86449790E-03
  -8.50000011E-04  -6.97204331E-03
  -7.99999980E-04  -7.08057964E-03
  -7.50000007E-04  -7.19011854E-03
  -6.99999975E-04  -7.30075780E-03
  -6.50000002E-04  -7.41260638E-03
  -6.00000028E-04  -7.52575230E-03
  -5.49999997E-04  -7.64024304E-03
  -5.00000024E-04  -7.75602832E-03
  -4.49999992E-04  -7.87298009E-03
  -3.99999990E-04  -7.99097959E-03
  -3.49999988E-04  -8.10996816E-03
  -3.00000014E-04  -8.22994206E-03
  -2.50000012E-04  -8.35098047E-03
  -1.99999995E-04  -8.47321469E-03
  -1.50000007E-04  -8.59673787E-03
  -9.99999975E-05  -8.72158166E-03
  -4.99999987E-05  -8.84768553E-03
   0.00000000      -8.97493679E-03
   4.99999987E-05  -9.10319760E-03
   9.99999975E-05  -9.23239905E-03
   1.50000007E-04  -9.36254393E-03
   1.99999995E-04  -9.49368626E-03
   2.50000012E-04  -9.62595362E-03
   3.00000014E-04  -9.75943636E-03
   3.49999988E-04  -9.89416335E-03
   3.99999990E-04  -1.00300917E-02
   4.49999992E-04  -1.01671088E-02
   5.00000024E-04  -1.03050722E-02
   5.49999997E-04  -1.04438858E-02
   6.00000028E-04  -1.05835330E-02
   6.50000002E-04  -1.07240817E-02
   6.99999975E-04  -1.08656408E-02
   7.50000007E-04  -1.10082822E-02
   7.99999980E-04  -1.11520765E-02
   8.50000011E-04  -1.12970024E-02
   8.99999985E-04  -1.14429407E-02
   9.50000016E-04  -1.15897339E-02
   1.00000005E-03  -1.17372619E-02
   1.04999996E-03  -1.18854735E-02
   1.09999999E-03  -1.20343817E-02
   1.15000003E-03  -1.21841021E-02
   1.20000006E-03  -1.23347603E-02
   1.24999997E-03  -1.24864457E-02
   1.30000000E-03  -1.26391482E-02
   1.35000004E-03  -1.27927298E-02
   1.39999995E-03  -1.29469791E-02
   1.44999998E-03  -1.31017389E-02
   1.50000001E-03  -1.32569466E-02
   1.55000004E-03  -1.34126497E-02
   1.59999996E-03  -1.35689778E-02
   1.64999999E-03  -1.37260538E-02
   1.70000002E-03  -1.38839409E-02
   1.75000005E-03  -1.40425786E-02
   1.79999997E-03  -1.42018348E-02
   1.85000000E-03  -1.43615576E-02
   1.90000003E-03  -1.45216025E-02
   1.94999995E-03  -1.46818664E-02
   2.00000009E-03  -1.48423463E-02
   2.05000001E-03  -1.50031541E-02
   2.09999993E-03  -1.51644126E-02
   2.15000007E-03  -1.53261712E-02
   2.19999999E-03  -1.54884122E-02
   2.24999990E-03  -1.56510379E-02
   2.30000005E-03  -1.58138778E-02
   2.34999997E-03  -1.59767363E-02
   2.40000011E-03  -1.61394924E-02
   2.45000003E-03  -1.63021181E-02
   2.49999994E-03  -1.64646693E-02
   2.55000009E-03  -1.66272838E-02
   2.60000001E-03  -1.67900398E-02
   2.64999992E-03  -1.69529468E-02
   2.70000007E-03  -1.71158928E-02
   2.74999999E-03  -1.72786675E-02
   2.79999990E-03  -1.74410902E-02