  -3.99999991E-02   0.00000000    
  -3.99499983E-02   0.00000000    
  -3.99000011E-02  -1.26568013E-13
  -3.98500003E-02  -1.05700485E-12
  -3.97999994E-02  -4.66455910E-12
  -3.97499986E-02  -1.43611347E-11
  -3.97000015E-02  -3.43891443E-11
  -3.96500006E-02  -6.78237813E-11
  -3.95999998E-02  -1.14067610E-10
  -3.95499989E-02  -1.67453648E-10
  -3.95000018E-02  -2.18535356E-10
  -3.94500010E-02  -2.58503219E-10
  -3.94000001E-02  -2.85319129E-10
  -3.93499993E-02  -3.08509940E-10
  -3.92999984E-02  -3.49210660E-10
  -3.92500013E-02  -4.33722919E-10
  -3.92000005E-02  -5.82223436E-10
  -3.91499996E-02  -7.97672983E-10
  -3.90999988E-02  -1.06116171E-09
  -3.90500017E-02  -1.33750355E-09
  -3.90000008E-02  -1.58972147E-09
  -3.89500000E-02  -1.79602722E-09
  -3.88999991E-02  -1.96105332E-09
  -3.88499983E-02  -2.11559992E-09
  -3.88000011E-02  -2.30453256E-09
  -3.87500003E-02  -2.56786259E-09
  -3.86999995E-02  -2.92299562E-09
  -3.86499986E-02  -3.35568728E-09
  -3.86000015E-02  -3.82365517E-09
  -3.85500006E-02  -4.27136726E-09
  -3.84999998E-02  -4.64943684E-09
  -3.84499989E-02  -4.93001240E-09
  -3.84000018E-02  -5.11218179E-09
  -3.83500010E-02  -5.21743759E-09
  -3.83000001E-02  -5.28047428E-09
  -3.82499993E-02  -5.34109601E-09
  -3.81999984E-02  -5.43860823E-09
  -3.81500013E-02  -5.60500402E-09
  -3.81000005E-02  -5.85282045E-09
  -3.80499996E-02  -6.15894535E-09
  -3.79999988E-02  -6.45282139E-09
  -3.79500017E-02  -6.62041488E-09
  -3.79000008E-02  -6.53063825E-09
  -3.78500000E-02  -6.08031447E-09
  -3.77999991E-02  -5.24209298E-09
  -3.77499983E-02  -4.09239265E-09
  -3.77000012E-02  -2.79837820E-09
  -3.76500003E-02  -1.55685820E-09
  -3.75999995E-02  -5.01784003E-10
  -3.75499986E-02   3.78981985E-10
  -3.75000015E-02   1.26854149E-09
  -3.74500006E-02   2.45710252E-09
  -3.73999998E-02   4.20198676E-09
  -3.73499990E-02   6.57097754E-09
  -3.73000018E-02   9.35136146E-09
  -3.72500010E-02   1.20882664E-08
  -3.72000001E-02   1.42599026E-08
  -3.71499993E-02   1.55280144E-08
  -3.70999984E-02   1.59518141E-08
  -3.70500013E-02   1.60497091E-08
  -3.70000005E-02   1.66448615E-08
  -3.69499996E-02   1.85253910E-08
  -3.68999988E-02   2.20501182E-08
  -3.68500017E-02   2.68860614E-08
  -3.68000008E-02   3.20336540E-08
  -3.67500000E-02   3.61776706E-08
  -3.66999991E-02   3.82429164E-08
  -3.66499983E-02   3.79123968E-08
  -3.66000012E-02   3.58507535E-08
  -3.65500003E-02   3.34869661E-08
  -3.64999995E-02   3.24054064E-08
  -3.64499986E-02   3.35882966E-08
  -3.64000015E-02   3.68540114E-08
  -3.63500006E-02   4.07869187E-08
  -3.62999998E-02   4.32580549E-08
  -3.62499990E-02   4.23630730E-08
  -3.62000018E-02   3.73759832E-08
  -3.61500010E-02   2.92549043E-08
  -3.61000001E-02   2.03968558E-08
  -3.60499993E-02   1.36710945E-08
  -3.59999985E-02   1.11167306E-08
  -3.59500013E-02   1.28939064E-08
  -3.59000005E-02   1.70145302E-08
  -3.58499996E-02   2.00579695E-08
  -3.57999988E-02   1.86309279E-08
  -3.57500017E-02   1.09568701E-08
  -3.57000008E-02  -2.14163998E-09
  -3.56500000E-02  -1.73923471E-08
  -3.55999991E-02  -3.03955474E-08
  -3.55499983E-02  -3.76027671E-08
  -3.55000012E-02  -3.80667018E-08
  -3.54500003E-02  -3.41003705E-08
  -3.53999995E-02  -3.04295042E-08
  -3.53499986E-02  -3.21113340E-08
  -3.53000015E-02  -4.21077253E-08
  -3.52500007E-02  -5.96378698E-08
  -3.51999998E-02  -8.01568163E-08
  -3.51499990E-02  -9.71092149E-08
  -3.51000018E-02  -1.04786913E-07
  -3.50500010E-02  -1.01045465E-07
  -3.50000001E-02  -8.85921665E-08
  -3.49499993E-02  -7.41170467E-08
  -3.48999985E-02  -6.54924932E-08
  -3.48500013E-02  -6.82005918E-08
  -3.48000005E-02  -8.26092403E-08
  -3.47499996E-02  -1.03442098E-07
  -3.46999988E-02  -1.21849595E-07
  -3.46500017E-02  -1.29291493E-07
  -3.46000008E-02  -1.21540666E-07
  -3.45500000E-02  -1.00950864E-07
  -3.44999991E-02  -7.58172973E-08
  -3.44499983E-02  -5.69291103E-08
  -3.44000012E-02  -5.27207433E-08
  -3.43500003E-02  -6.51780496E-08
  -3.42999995E-02  -8.84571278E-08
  -3.42499986E-02  -1.11046781E-07
  -3.42000015E-02  -1.20705806E-07
  -3.41500007E-02  -1.10055957E-07
  -3.40999998E-02  -8.02706595E-08
  -3.40499990E-02  -4.10354843E-08
  -3.40000018E-02  -6.58941568E-09
  -3.39500010E-02   1.05372973E-08
  -3.39000002E-02   5.32462252E-09
  -3.38499993E-02  -1.70931127E-08
  -3.37999985E-02  -4.33266543E-08
  -3.37500013E-02  -5.75432502E-08
  -3.37000005E-02  -4.87173679E-08
  -3.36499996E-02  -1.60389124E-08
  -3.35999988E-02   3.01371550E-08
  -3.35500017E-02   7.24903373E-08
  -3.35000008E-02   9.44128260E-08
  -3.34500000E-02   8.77846560E-08
  -3.33999991E-02   5.72437173E-08
  -3.33499983E-02   1.87950331E-08
  -3.33000012E-02  -6.88560275E-09
  -3.32500003E-02  -3.63969987E-09
  -3.31999995E-02   3.25839586E-08
  -3.31499986E-02   9.12903104E-08
  -3.31000015E-02   1.51517767E-07
  -3.30500007E-02   1.90885515E-07
  -3.29999998E-02   1.95701134E-07
  -3.29499990E-02   1.67542964E-07
  -3.29000019E-02   1.23132850E-07
  -3.28500010E-02   8.72613128E-08
  -3.28000002E-02   8.17175732E-08
  -3.27499993E-02   1.15140629E-07
  -3.26999985E-02   1.78484655E-07
  -3.26500013E-02   2.48403637E-07
  -3.26000005E-02   2.97327716E-07
  -3.25499997E-02   3.05902375E-07
  -3.24999988E-02   2.72211167E-07
  -3.24500017E-02   2.13438611E-07
  -3.24000008E-02   1.58896654E-07
  -3.23500000E-02   1.37232462E-07
  -3.22999991E-02   1.63408799E-07
  -3.22499983E-02   2.31380170E-07
  -3.22000012E-02   3.16014450E-07
  -3.21500003E-02   3.83717520E-07
  -3.20999995E-02   4.07228271E-07
  -3.20499986E-02   3.78001232E-07
  -3.20000015E-02   3.10483358E-07
  -3.19500007E-02   2.36094095E-07
  -3.18999998E-02   1.89322606E-07
  -3.18499990E-02   1.92007818E-07
  -3.18000019E-02   2.42886017E-07
  -3.17500010E-02   3.17334951E-07
  -3.17000002E-02   3.77771187E-07
  -3.16499993E-02   3.90322469E-07
  -3.15999985E-02   3.40387970E-07
  -3.15500014E-02   2.39962105E-07
  -3.15000005E-02   1.23124451E-07
  -3.14499997E-02   3.13736415E-08
  -3.13999988E-02  -4.85329421E-09
  -3.13500017E-02   1.97773158E-08
  -3.13000008E-02   8.23712298E-08
  -3.12500000E-02   1.41321109E-07
  -3.11999992E-02   1.54524173E-07
  -3.11500002E-02   9.83272272E-08
  -3.10999993E-02  -2.13296207E-08
  -3.10500003E-02  -1.70816705E-07
  -3.09999995E-02  -3.03259952E-07
  -3.09500005E-02  -3.79333557E-07
  -3.08999997E-02  -3.85162252E-07
  -3.08500007E-02  -3.39164160E-07
  -3.07999998E-02  -2.84460612E-07
  -3.07500008E-02  -2.69919269E-07
  -3.07000000E-02  -3.28102175E-07
  -3.06499992E-02  -4.59975723E-07
  -3.06000002E-02  -6.33427192E-07
  -3.05499993E-02  -7.96584118E-07
  -3.05000003E-02  -9.00303235E-07
  -3.04499995E-02  -9.19953095E-07
  -3.04000005E-02  -8.66702976E-07
  -3.03499997E-02  -7.83026678E-07
  -3.03000007E-02  -7.24113136E-07
  -3.02499998E-02  -7.33247191E-07
  -3.02000009E-02  -8.22102834E-07
  -3.01500000E-02  -9.64893047E-07
  -3.00999992E-02  -1.10925646E-06
  -3.00500002E-02  -1.19928541E-06
  -2.99999993E-02  -1.20056427E-06
  -2.99500003E-02  -1.11600480E-06
  -2.98999995E-02  -9.85198767E-07
  -2.98500005E-02  -8.67275162E-07
  -2.97999997E-02  -8.14644579E-07
  -2.97500007E-02  -8.49238120E-07
  -2.96999998E-02  -9.51943605E-07
  -2.96500009E-02  -1.07021992E-06
  -2.96000000E-02  -1.14081399E-06
  -2.95499992E-02  -1.11766929E-06
  -2.95000002E-02  -9.92622745E-07
  -2.94499993E-02  -7.99523207E-07
  -2.94000003E-02  -5.99685052E-07
  -2.93499995E-02  -4.54924560E-07
  -2.93000005E-02  -4.00057871E-07
  -2.92499997E-02  -4.27141885E-07
  -2.92000007E-02  -4.88649903E-07
  -2.91499998E-02  -5.18414367E-07
  -2.91000009E-02  -4.61216501E-07
  -2.90500000E-02  -2.97912408E-07
  -2.89999992E-02  -5.47887886E-08
  -2.89500002E-02   2.07275178E-07
  -2.88999993E-02   4.19288625E-07
  -2.88500004E-02   5.34661979E-07
  -2.87999995E-02   5.50186485E-07
  -2.87500005E-02   5.08004575E-07
  -2.86999997E-02   4.77470223E-07
  -2.86500007E-02   5.24737516E-07
  -2.85999998E-02   6.83454402E-07
  -2.85500009E-02   9.39562995E-07
  -2.85000000E-02   1.23705752E-06
  -2.84499992E-02   1.50231654E-06
  -2.84000002E-02   1.67635619E-06
  -2.83499993E-02   1.74075296E-06
  -2.83000004E-02   1.72566695E-06
  -2.82499995E-02   1.69627765E-06
  -2.82000005E-02   1.72353020E-06
  -2.81499997E-02   1.85213639E-06
  -2.81000007E-02   2.08007782E-06
  -2.80499998E-02   2.35880793E-06
  -2.80000009E-02   2.61419223E-06
  -2.79500000E-02   2.77898880E-06
  -2.78999992E-02   2.82250585E-06
  -2.78500002E-02   2.76426272E-06
  -2.77999993E-02   2.66549023E-06
  -2.77500004E-02   2.60209799E-06
  -2.76999995E-02   2.63098104E-06
  -2.76500005E-02   2.76455421E-06
  -2.75999997E-02   2.96485405E-06
  -2.75500007E-02   3.15989587E-06
  -2.74999999E-02   3.27508928E-06
  -2.74500009E-02   3.26583017E-06
  -2.74000000E-02   3.13681039E-06
  -2.73499992E-02   2.93948642E-06
  -2.73000002E-02   2.74883791E-06
  -2.72499993E-02   2.62967774E-06
  -2.72000004E-02   2.60742172E-06
  -2.71499995E-02   2.65625931E-06
  -2.71000005E-02   2.70999135E-06
  -2.70499997E-02   2.69079260E-06
  -2.70000007E-02   2.54322936E-06
  -2.69499999E-02   2.25851522E-06
  -2.69000009E-02   1.87824935E-06
  -2.68500000E-02   1.47600053E-06
  -2.67999992E-02   1.12490557E-06
  -2.67500002E-02   8.65601294E-07
  -2.66999993E-02   6.88600892E-07
  -2.66500004E-02   5.38761128E-07
  -2.65999995E-02   3.39763432E-07
  -2.65500005E-02   2.77631944E-08
  -2.64999997E-02  -4.20648092E-07
  -2.64500007E-02  -9.78413141E-07
  -2.63999999E-02  -1.58019566E-06
  -2.63500009E-02  -2.15132559E-06
  -2.63000000E-02  -2.64064397E-06
  -2.62499992E-02  -3.04276182E-06
  -2.62000002E-02  -3.39997587E-06
  -2.61499994E-02  -3.78320397E-06
  -2.61000004E-02  -4.26050065E-06
  -2.60499995E-02  -4.86705994E-06
  -2.60000005E-02  -5.58985630E-06
  -2.59499997E-02  -6.37345329E-06
  -2.59000007E-02  -7.14417365E-06
  -2.58499999E-02  -7.84188887E-06
  -2.58000009E-02  -8.44547230E-06
  -2.57500000E-02  -8.98080361E-06
  -2.56999992E-02  -9.50810954E-06
  -2.56500002E-02  -1.00944881E-05
  -2.55999994E-02  -1.07838205E-05
  -2.55500004E-02  -1.15773955E-05
  -2.54999995E-02  -1.24335083E-05
  -2.54500005E-02  -1.32859595E-05
  -2.53999997E-02  -1.40730690E-05
  -2.53500007E-02  -1.47643168E-05
  -2.52999999E-02  -1.53731216E-05
  -2.52500009E-02  -1.59503397E-05
  -2.52000000E-02  -1.65616275E-05
  -2.51499992E-02  -1.72587206E-05
  -2.51000002E-02  -1.80571260E-05
  -2.50499994E-02  -1.89298262E-05
  -2.50000004E-02  -1.98193175E-05
  -2.49499995E-02  -2.06624609E-05
  -2.49000005E-02  -2.14171396E-05
  -2.48499997E-02  -2.20791280E-05
  -2.48000007E-02  -2.26824432E-05
  -2.47499999E-02  -2.32832590E-05
  -2.47000009E-02  -2.39349047E-05
  -2.46500000E-02  -2.46649652E-05
  -2.45999992E-02  -2.54641400E-05
  -2.45500002E-02  -2.62912654E-05
  -2.44999994E-02  -2.70918244E-05
  -2.44500004E-02  -2.78217758E-05
  -2.43999995E-02  -2.84661710E-05
  -2.43500005E-02  -2.90448897E-05
  -2.42999997E-02  -2.96034832E-05
  -2.42500007E-02  -3.01934651E-05
  -2.41999999E-02  -3.08507224E-05
  -2.41500009E-02  -3.15811812E-05
  -2.41000000E-02  -3.23595159E-05
  -2.40499992E-02  -3.31407464E-05
  -2.40000002E-02  -3.38795580E-05
  -2.39499994E-02  -3.45489316E-05
  -2.39000004E-02  -3.51504168E-05
  -2.38499995E-02  -3.57121535E-05
  -2.38000005E-02  -3.62762148E-05
  -2.37499997E-02  -3.68810288E-05
  -2.37000007E-02  -3.75458585E-05
  -2.36499999E-02  -3.82639846E-05
  -2.36000009E-02  -3.90070963E-05
  -2.35500000E-02  -3.97382028E-05
  -2.34999992E-02  -4.04273778E-05
  -2.34500002E-02  -4.10643115E-05
  -2.33999994E-02  -4.16624425E-05
  -2.33500004E-02  -4.22534285E-05
  -2.32999995E-02  -4.28749299E-05
  -2.32500006E-02  -4.35560942E-05
  -2.31999997E-02  -4.43069766E-05
  -2.31500007E-02  -4.51158085E-05
  -2.30999999E-02  -4.59545918E-05
  -2.30500009E-02  -4.67906975E-05
  -2.30000000E-02  -4.76001514E-05
  -2.29499992E-02  -4.83773438E-05
  -2.29000002E-02  -4.91377541E-05
  -2.28499994E-02  -4.99124872E-05
  -2.28000004E-02  -5.07368713E-05
  -2.27499995E-02  -5.16378605E-05
  -2.27000006E-02  -5.26241311E-05
  -2.26499997E-02  -5.36834559E-05
  -2.26000007E-02  -5.47878517E-05
  -2.25499999E-02  -5.59050313E-05
  -2.25000009E-02  -5.70121447E-05
  -2.24500000E-02  -5.81061977E-05
  -2.23999992E-02  -5.92073266E-05
  -2.23500002E-02  -6.03529734E-05
  -2.22999994E-02  -6.15847384E-05
  -2.22500004E-02  -6.29331553E-05
  -2.21999995E-02  -6.44060856E-05
  -2.21500006E-02  -6.59854632E-05
  -2.20999997E-02  -6.76342679E-05
  -2.20500007E-02  -6.93116963E-05
  -2.19999999E-02  -7.09908636E-05
  -2.19500009E-02  -7.26716025E-05
  -2.19000001E-02  -7.43825440E-05
  -2.18499992E-02  -7.61708870E-05
  -2.18000002E-02  -7.80838600E-05
  -2.17499994E-02  -8.01489950E-05
  -2.17000004E-02  -8.23615410E-05
  -2.16499995E-02  -8.46859330E-05
  -2.16000006E-02  -8.70705408E-05
  -2.15499997E-02  -8.94699333E-05
  -2.15000007E-02  -9.18662190E-05
  -2.14499999E-02  -9.42797997E-05
  -2.14000009E-02  -9.67638844E-05
  -2.13500001E-02  -9.93841095E-05
  -2.12999992E-02  -1.02191254E-04
  -2.12500002E-02  -1.05199040E-04
  -2.11999994E-02  -1.08377171E-04
  -2.11500004E-02  -1.11662695E-04
  -2.10999995E-02  -1.14987139E-04
  -2.10500006E-02  -1.18307551E-04
  -2.09999997E-02  -1.21626217E-04
  -2.09500007E-02  -1.24992031E-04
  -2.08999999E-02  -1.28481406E-04
  -2.08500009E-02  -1.32166053E-04
  -2.08000001E-02  -1.36080780E-04
  -2.07499992E-02  -1.40206757E-04
  -2.07000002E-02  -1.44478734E-04
  -2.06499994E-02  -1.48812789E-04
  -2.06000004E-02  -1.53144560E-04
  -2.05499995E-02  -1.57460760E-04
  -2.05000006E-02  -1.61809541E-04
  -2.04499997E-02  -1.66282305E-04
  -2.04000007E-02  -1.70975793E-04
  -2.03499999E-02  -1.75950612E-04
  -2.03000009E-02  -1.81203650E-04
  -2.02500001E-02  -1.86668723E-04
  -2.01999992E-02  -1.92244057E-04
  -2.01500002E-02  -1.97836969E-04
  -2.00999994E-02  -2.03406758E-04
  -2.00500004E-02  -2.08984522E-04
  -1.99999996E-02  -2.14663087E-04
  -1.99500006E-02  -2.20556904E-04
  -1.98999997E-02  -2.26752265E-04
  -1.98500007E-02  -2.33268423E-04
  -1.97999999E-02  -2.40047972E-04
  -1.97500009E-02  -2.46982556E-04
  -1.97000001E-02  -2.53961567E-04
  -1.96499992E-02  -2.60923203E-04
  -1.96000002E-02  -2.67885916E-04
  -1.95499994E-02  -2.74943595E-04
  -1.95000004E-02  -2.82226916E-04
  -1.94499996E-02  -2.89847609E-04
  -1.94000006E-02  -2.97847640E-04
  -1.93499997E-02  -3.06179631E-04
  -1.93000007E-02  -3.14727484E-04
  -1.92499999E-02  -3.23357643E-04
  -1.92000009E-02  -3.31980351E-04
  -1.91500001E-02  -3.40592436E-04
  -1.90999992E-02  -3.49283364E-04
  -1.90500002E-02  -3.58196557E-04
  -1.89999994E-02  -3.67466419E-04
  -1.89500004E-02  -3.77159187E-04
  -1.88999996E-02  -3.87242326E-04
  -1.88500006E-02  -3.97597149E-04
  -1.87999997E-02  -4.08073101E-04
  -1.87500007E-02  -4.18557232E-04
  -1.86999999E-02  -4.29026695E-04
  -1.86500009E-02  -4.39564494E-04
  -1.86000001E-02  -4.50325926E-04
  -1.85499992E-02  -4.61471733E-04
  -1.85000002E-02  -4.73097374E-04
  -1.84499994E-02  -4.85191093E-04
  -1.84000004E-02  -4.97639645E-04
  -1.83499996E-02  -5.10279497E-04
  -1.83000006E-02  -5.22971735E-04
  -1.82499997E-02  -5.35667525E-04
  -1.82000007E-02  -5.48433512E-04
  -1.81499999E-02  -5.61427325E-04
  -1.81000009E-02  -5.74829057E-04
  -1.80500001E-02  -5.88760129E-04
  -1.79999992E-02  -6.03230787E-04
  -1.79500002E-02  -6.18135324E-04
  -1.78999994E-02  -6.33298187E-04
  -1.78500004E-02  -6.48554822E-04
  -1.77999996E-02  -6.63830840E-04
  -1.77500006E-02  -6.79180259E-04
  -1.76999997E-02  -6.94763788E-04
  -1.76500008E-02  -7.10782013E-04
  -1.75999999E-02  -7.27389066E-04
  -1.75500009E-02  -7.44623365E-04
  -1.75000001E-02  -7.62390788E-04
  -1.74499992E-02  -7.80510076E-04
  -1.74000002E-02  -7.98796245E-04
  -1.73499994E-02  -8.17149936E-04
  -1.73000004E-02  -8.35606887E-04
  -1.72499996E-02  -8.54322105E-04
  -1.72000006E-02  -8.73507117E-04
  -1.71499997E-02  -8.93333403E-04
  -1.71000008E-02  -9.13855969E-04
  -1.70499999E-02  -9.34986747E-04
  -1.70000009E-02  -9.56533302E-04
  -1.69500001E-02  -9.78291151E-04
  -1.68999992E-02  -1.00013765E-03
  -1.68500002E-02  -1.02208927E-03
  -1.67999994E-02  -1.04430318E-03
  -1.67500004E-02  -1.06701104E-03
  -1.66999996E-02  -1.09041517E-03
  -1.66500006E-02  -1.11460080E-03
  -1.65999997E-02  -1.13950204E-03
  -1.65500008E-02  -1.16492982E-03
  -1.64999999E-02  -1.19065959E-03
  -1.64500009E-02  -1.21654035E-03
  -1.64000001E-02  -1.24256406E-03
  -1.63499992E-02  -1.26887066E-03
  -1.63000003E-02  -1.29569357E-03
  -1.62499994E-02  -1.32325536E-03
  -1.62000004E-02  -1.35166280E-03
  -1.61499996E-02  -1.38086465E-03
  -1.61000006E-02  -1.41067372E-03
  -1.60499997E-02  -1.44085311E-03
  -1.60000008E-02  -1.47122587E-03
  -1.59499999E-02  -1.50176301E-03
  -1.59000009E-02  -1.53260503E-03
  -1.58500001E-02  -1.56399701E-03
  -1.57999992E-02  -1.59618736E-03
  -1.57500003E-02  -1.62932160E-03
  -1.56999994E-02  -1.66337262E-03
  -1.56500004E-02  -1.69815461E-03
  -1.55999996E-02  -1.73341366E-03
  -1.55499997E-02  -1.76894129E-03
  -1.54999997E-02  -1.80468033E-03
  -1.54499998E-02  -1.84076093E-03
  -1.53999999E-02  -1.87743374E-03
  -1.53500000E-02  -1.91496976E-03
  -1.53000001E-02  -1.95353758E-03
  -1.52500002E-02  -1.99312554E-03
  -1.52000003E-02  -2.03355053E-03
  -1.51500003E-02  -2.07453663E-03
  -1.51000004E-02  -2.11584941E-03
  -1.50499996E-02  -2.15741200E-03
  -1.49999997E-02  -2.19933758E-03
  -1.49499997E-02  -2.24189204E-03
  -1.48999998E-02  -2.28538341E-03
  -1.48499999E-02  -2.33001402E-03
  -1.48000000E-02  -2.37579341E-03
  -1.47500001E-02  -2.42253835E-03
  -1.47000002E-02  -2.46995455E-03
  -1.46500003E-02  -2.51777470E-03
  -1.46000003E-02  -2.56588939E-03
  -1.45500004E-02  -2.61440710E-03
  -1.44999996E-02  -2.66360887E-03
  -1.44499997E-02  -2.71382020E-03
  -1.43999998E-02  -2.76526087E-03
  -1.43499998E-02  -2.81796395E-03
  -1.42999999E-02  -2.87175481E-03
  -1.42500000E-02  -2.92632147E-03
  -1.42000001E-02  -2.98137218E-03
  -1.41500002E-02  -3.03677260E-03
  -1.41000003E-02  -3.09261074E-03
  -1.40500003E-02  -3.14916624E-03
  -1.40000004E-02  -3.20678297E-03
  -1.39499996E-02  -3.26571637E-03
  -1.38999997E-02  -3.32602137E-03
  -1.38499998E-02  -3.38752638E-03
  -1.37999998E-02  -3.44991614E-03
  -1.37499999E-02  -3.51288007E-03
  -1.37000000E-02  -3.57625145E-03
  -1.36500001E-02  -3.64010199E-03
  -1.36000002E-02  -3.70472064E-03
  -1.35500003E-02  -3.77046969E-03
  -1.35000004E-02  -3.83764016E-03
  -1.34500004E-02  -3.90631473E-03
  -1.33999996E-02  -3.97632737E-03
  -1.33499997E-02  -4.04734025E-03
  -1.32999998E-02  -4.11899062E-03
  -1.32499998E-02  -4.19107638E-03
  -1.31999999E-02  -4.26364411E-03
  -1.31500000E-02  -4.33697319E-03
  -1.31000001E-02  -4.41146595E-03
  -1.30500002E-02  -4.48745210E-03
  -1.30000003E-02  -4.56503080E-03
  -1.29500004E-02  -4.64404840E-03
  -1.29000004E-02  -4.72416962E-03
  -1.28499996E-02  -4.80500609E-03
  -1.27999997E-02  -4.88630962E-03
  -1.27499998E-02  -4.96812537E-03
  -1.26999998E-02  -5.05073601E-03
  -1.26499999E-02  -5.13453875E-03
  -1.26000000E-02  -5.21987956E-03
  -1.25500001E-02  -5.30688651E-03
  -1.25000002E-02  -5.39542176E-03
  -1.24500003E-02  -5.48512116E-03
  -1.24000004E-02  -5.57556795E-03
  -1.23500004E-02  -5.66648785E-03
  -1.22999996E-02  -5.75786037E-03
  -1.22499997E-02  -5.84993465E-03
  -1.21999998E-02  -5.94313070E-03
  -1.21499998E-02  -6.03784434E-03
  -1.20999999E-02  -6.13424880E-03
  -1.20500000E-02  -6.23221928E-03
  -1.20000001E-02  -6.33138698E-03
  -1.19500002E-02  -6.43130671E-03
  -1.19000003E-02  -6.53165765E-03
  -1.18500004E-02  -6.63237553E-03
  -1.18000004E-02  -6.73370669E-03
  -1.17499996E-02  -6.83608418E-03
  -1.16999997E-02  -6.93993317E-03
  -1.16499998E-02  -7.04549393E-03
  -1.15999999E-02  -7.15268124E-03
  -1.15499999E-02  -7.26112351E-03
  -1.15000000E-02  -7.37031875E-03
  -1.14500001E-02  -7.47984787E-03
  -1.14000002E-02  -7.58958329E-03
  -1.13500003E-02  -7.69971916E-03
  -1.13000004E-02  -7.81068346E-03
  -1.12500004E-02  -7.92295765E-03
  -1.11999996E-02  -8.03685561E-03
  -1.11499997E-02  -8.15232098E-03
  -1.10999998E-02  -8.26896448E-03
  -1.10499999E-02  -8.38627573E-03
  -1.09999999E-02  -8.50377884E-03
  -1.09500000E-02  -8.62129871E-03
  -1.09000001E-02  -8.73904955E-03
  -1.08500002E-02  -8.85749608E-03
  -1.08000003E-02  -8.97714216E-03
  -1.07500004E-02  -9.09832772E-03
  -1.07000005E-02  -9.22105461E-03
  -1.06499996E-02  -9.34494473E-03
  -1.05999997E-02  -9.46939085E-03
  -1.05499998E-02  -9.59384907E-03
  -1.04999999E-02  -9.71805397E-03
  -1.04499999E-02  -9.84211266E-03
  -1.04000000E-02  -9.96645540E-03
  -1.03500001E-02  -1.00916261E-02
  -1.03000002E-02  -1.02180792E-02
  -1.02500003E-02  -1.03458837E-02
  -1.02000004E-02  -1.04746856E-02
  -1.01500005E-02  -1.06039224E-02
  -1.00999996E-02  -1.07329888E-02
  -1.00499997E-02  -1.08614909E-02
  -9.99999978E-03  -1.09894462E-02
  -9.94999986E-03  -1.11172767E-02
  -9.89999995E-03  -1.12455916E-02
  -9.85000003E-03  -1.13748917E-02
  -9.80000012E-03  -1.15053197E-02
  -9.75000020E-03  -1.16366046E-02
  -9.70000029E-03  -1.17681362E-02
  -9.65000037E-03  -1.18992459E-02
  -9.60000046E-03  -1.20294569E-02
  -9.54999961E-03  -1.21586844E-02
  -9.49999969E-03  -1.22872693E-02
  -9.44999978E-03  -1.24157853E-02
  -9.39999986E-03  -1.25447838E-02
  -9.34999995E-03  -1.26745142E-02
  -9.30000003E-03  -1.28047662E-02
  -9.25000012E-03  -1.29349008E-02
  -9.20000020E-03  -1.30641516E-02
  -9.15000029E-03  -1.31919598E-02
  -9.10000037E-03  -1.33181876E-02
  -9.05000046E-03  -1.34431431E-02
  -8.99999961E-03  -1.35674160E-02
  -8.94999970E-03  -1.36916293E-02
  -8.89999978E-03  -1.38161490E-02
  -8.84999987E-03  -1.39408726E-02
  -8.79999995E-03  -1.40652033E-02
  -8.75000004E-03  -1.41883362E-02
  -8.70000012E-03  -1.43095870E-02
  -8.65000021E-03  -1.44286593E-02
  -8.60000029E-03  -1.45457368E-02
  -8.55000038E-03  -1.46614052E-02
  -8.50000046E-03  -1.47763109E-02
  -8.44999962E-03  -1.48908179E-02
  -8.39999970E-03  -1.50048649E-02
  -8.34999979E-03  -1.51179302E-02
  -8.29999987E-03  -1.52292093E-02
  -8.24999996E-03  -1.53379235E-02
  -8.20000004E-03  -1.54436696E-02
  -8.15000013E-03  -1.55465277E-02
  -8.10000021E-03  -1.56470183E-02
  -8.05000030E-03  -1.57458242E-02
  -8.00000038E-03  -1.58434231E-02
  -7.95000046E-03  -1.59398373E-02
  -7.89999962E-03  -1.60346292E-02
  -7.84999970E-03  -1.61270332E-02
  -7.79999979E-03  -1.62162315E-02
  -7.74999987E-03  -1.63016524E-02
  -7.69999996E-03  -1.63832083E-02
  -7.65000004E-03  -1.64613985E-02
  -7.60000013E-03  -1.65369157E-02
  -7.55000021E-03  -1.66102871E-02
  -7.49999983E-03  -1.66816134E-02
  -7.44999992E-03  -1.67505294E-02
  -7.40000000E-03  -1.68162622E-02
  -7.35000009E-03  -1.68778580E-02
  -7.30000017E-03  -1.69345923E-02
  -7.24999979E-03  -1.69862658E-02
  -7.19999988E-03  -1.70332305E-02
  -7.14999996E-03  -1.70761775E-02
  -7.10000005E-03  -1.71157531E-02
  -7.05000013E-03  -1.71522684E-02
  -7.00000022E-03  -1.71854738E-02
  -6.94999984E-03  -1.72146037E-02
  -6.89999992E-03  -1.72386691E-02
  -6.85000001E-03  -1.72567889E-02
  -6.80000009E-03  -1.72685683E-02
  -6.75000018E-03  -1.72742140E-02
  -6.69999979E-03  -1.72743462E-02
  -6.64999988E-03  -1.72696691E-02
  -6.59999996E-03  -1.72605831E-02
  -6.55000005E-03  -1.72470044E-02
  -6.50000013E-03  -1.72282755E-02
  -6.45000022E-03  -1.72033496E-02
  -6.39999984E-03  -1.71713568E-02
  -6.34999992E-03  -1.71318278E-02
  -6.30000001E-03  -1.70847923E-02
  -6.25000009E-03  -1.70306861E-02
  -6.20000018E-03  -1.69700999E-02
  -6.14999980E-03  -1.69035848E-02
  -6.09999988E-03  -1.68311689E-02
  -6.04999997E-03  -1.67522635E-02
  -6.00000005E-03  -1.66659392E-02
  -5.95000014E-03  -1.65712405E-02
  -5.90000022E-03  -1.64674874E-02
  -5.84999984E-03  -1.63544863E-02
  -5.79999993E-03  -1.62325986E-02
  -5.75000001E-03  -1.61024388E-02
  -5.70000010E-03  -1.59645621E-02
  -5.65000018E-03  -1.58191770E-02
  -5.59999980E-03  -1.56658627E-02
  -5.54999989E-03  -1.55037222E-02
  -5.49999997E-03  -1.53317247E-02
  -5.45000006E-03  -1.51490541E-02
  -5.40000014E-03  -1.49553865E-02
  -5.35000023E-03  -1.47508979E-02
  -5.29999984E-03  -1.45361498E-02
  -5.24999993E-03  -1.43118501E-02
  -5.20000001E-03  -1.40782567E-02
  -5.15000010E-03  -1.38350939E-02
  -5.10000018E-03  -1.35816531E-02
  -5.04999980E-03  -1.33168921E-02
  -4.99999989E-03  -1.30398991E-02
  -4.94999997E-03  -1.27501050E-02
  -4.90000006E-03  -1.24474186E-02
  -4.85000014E-03  -1.21322377E-02
  -4.80000023E-03  -1.18052503E-02
  -4.74999985E-03  -1.14668822E-02
  -4.69999993E-03  -1.11170476E-02
  -4.65000002E-03  -1.07551692E-02
  -4.60000010E-03  -1.03802579E-02
  -4.55000019E-03  -9.99123976E-03
  -4.49999981E-03  -9.58734564E-03
  -4.44999989E-03  -9.16851405E-03
  -4.39999998E-03  -8.73505604E-03
  -4.35000006E-03  -8.28745868E-03
  -4.30000015E-03  -7.82619324E-03
  -4.25000023E-03  -7.35134957E-03
  -4.19999985E-03  -6.86255563E-03
  -4.14999994E-03  -6.35896623E-03
  -4.10000002E-03  -5.83965611E-03
  -4.05000011E-03  -5.30377822E-03
  -4.00000019E-03  -4.75089718E-03
  -3.94999981E-03  -4.18114290E-03
  -3.89999989E-03  -3.59487976E-03
  -3.84999998E-03  -2.99259648E-03
  -3.80000006E-03  -2.37452914E-03
  -3.74999992E-03  -1.74045097E-03
  -3.70000000E-03  -1.08970096E-03
  -3.65000009E-03  -4.21321602E-04
  -3.59999994E-03   2.65688344E-04
  -3.55000002E-03   9.72073700E-04
  -3.50000011E-03   1.69789919E-03
  -3.44999996E-03   2.44278554E-03
  -3.40000005E-03   3.20621347E-03
  -3.34999990E-03   3.98774538E-03
  -3.29999998E-03   4.78741946E-03
  -3.25000007E-03   5.60568459E-03
  -3.19999992E-03   6.44342508E-03
  -3.15000000E-03   7.30170356E-03
  -3.10000009E-03   8.18121154E-03
  -3.04999994E-03   9.08222329E-03
  -3.00000003E-03   1.00046881E-02
  -2.95000011E-03   1.09481420E-02
  -2.89999996E-03   1.19120162E-02
  -2.85000005E-03   1.28961280E-02
  -2.79999990E-03   1.39008928E-02
  -2.74999999E-03   1.49270985E-02
  -2.70000007E-03   1.59757640E-02
  -2.64999992E-03   1.70478169E-02
  -2.60000001E-03   1.81436278E-02
  -2.55000009E-03   1.92631707E-02
  -2.49999994E-03   2.04061083E-02
  -2.45000003E-03   2.15719715E-02
  -2.40000011E-03   2.27604937E-02
  -2.34999997E-03   2.39717811E-02
  -2.30000005E-03   2.52065007E-02
  -2.24999990E-03   2.64655109E-02
  -2.19999999E-03   2.77496018E-02
  -2.15000007E-03   2.90593226E-02
  -2.09999993E-03   3.03948745E-02
  -2.05000001E-03   3.17560695E-02
  -2.00000009E-03   3.31423543E-02
  -1.94999995E-03   3.45533416E-02
  -1.90000003E-03   3.59888896E-02
  -1.85000000E-03   3.74493822E-02
  -1.79999997E-03   3.89355943E-02
  -1.75000005E-03   4.04482260E-02
  -1.70000002E-03   4.19880711E-02
  -1.64999999E-03   4.35555577E-02
  -1.59999996E-03   4.51506600E-02
  -1.55000004E-03   4.67731059E-02
  -1.50000001E-03   4.84224595E-02
  -1.44999998E-03   5.00983708E-02
  -1.39999995E-03   5.18007651E-02
  -1.35000004E-03   5.35301790E-02
  -1.30000000E-03   5.52874878E-02
  -1.24999997E-03   5.70734181E-02
  -1.20000006E-03   5.88884614E-02
  -1.15000003E-03   6.07327521E-02
  -1.09999999E-03   6.26060367E-02
  -1.04999996E-03   6.45079091E-02
  -1.00000005E-03   6.64377287E-02
  -9.50000016E-04   6.83952942E-02
  -8.99999985E-04   7.03807846E-02
  -8.50000011E-04   7.23946989E-02
  -7.99999980E-04   7.44378567E-02
  -7.50000007E-04   7.65109509E-02
  -6.99999975E-04   7.86144361E-02
  -6.50000002E-04   8.07482153E-02
  -6.00000028E-04   8.29118118E-02
  -5.49999997E-04   8.51045921E-02
  -5.00000024E-04   8.73260424E-02
  -4.49999992E-04   8.95760953E-02
  -3.99999990E-04   9.18552354E-02
  -3.49999988E-04   9.41641405E-02
  -3.00000014E-04   9.65036452E-02
  -2.50000012E-04   9.88742262E-02
  -1.99999995E-04  0.101275824    
  -1.50000007E-04  0.103708148    
  -9.99999975E-05  0.106170386    
  -4.99999987E-05  0.108661614    
   0.00000000      0.111181445    
   4.99999987E-05  0.113730095    
   9.99999975E-05  0.116308212    
   1.50000007E-04  0.118916564    
   1.99999995E-04  0.121555835    
   2.50000012E-04  0.124226213    
   3.00000014E-04  0.126927301    
   3.49999988E-04  0.129658431    
   3.99999990E-04  0.132418454    
   4.49999992E-04  0.135206476    
   5.00000024E-04  0.138022318    
   5.49999997E-04  0.140866637    
   6.00000028E-04  0.143740401    
   6.50000002E-04  0.146644071    
   6.99999975E-04  0.149577856    
   7.50000007E-04  0.152541637    
   7.99999980E-04  0.155534610    
   8.50000011E-04  0.158555806    
   8.99999985E-04  0.161604524    
   9.50000016E-04  0.164680317    
   1.00000005E-03  0.167782798    
   1.04999996E-03  0.170912474    
   1.09999999E-03  0.174069956    
   1.15000003E-03  0.177255556    
   1.20000006E-03  0.180469587    
   1.24999997E-03  0.183711633    
   1.30000000E-03  0.186980605    
   1.35000004E-03  0.190275207    
   1.39999995E-03  0.193594262    
   1.44999998E-03  0.196937129    
   1.50000001E-03  0.200303808    
   1.55000004E-03  0.203695312    
   1.59999996E-03  0.207112849    
   1.64999999E-03  0.210556746    
   1.70000002E-03  0.214026362    
   1.75000005E-03  0.217520431    
   1.79999997E-03  0.221037090    
   1.85000000E-03  0.224574313    
   1.90000003E-03  0.228131294    
   1.94999995E-03  0.231708512    
   2.00000009E-03  0.235307336    
   2.05000001E-03  0.238928527    
   2.09999993E-03  0.242572054    
   2.15000007E-03  0.246237740    
   2.19999999E-03  0.249924421    
   2.24999990E-03  0.253630042    
   2.30000005E-03  0.257352263    
   2.34999997E-03  0.261089295    
   2.40000011E-03  0.264841527    
   2.45000003E-03  0.268610358    
   2.49999994E-03  0.272396773    
   2.55000009E-03  0.276200980    
   2.60000001E-03  0.280022562    
   2.64999992E-03  0.283860296    
   2.70000007E-03  0.287712306    
   2.74999999E-03  0.291576087    
   2.79999990E-03  0.295449406    