  -3.99999991E-02   0.00000000    
  -3.99499983E-02   0.00000000    
  -3.99000011E-02   0.00000000    
  -3.98500003E-02  -1.24349328E-15
  -3.97999994E-02  -1.06041757E-14
  -3.97499986E-02  -4.62249528E-14
  -3.97000015E-02  -1.37664199E-13
  -3.96500006E-02  -3.18373474E-13
  -3.95999998E-02  -6.22027603E-13
  -3.95499989E-02  -1.09412587E-12
  -3.95000018E-02  -1.80220660E-12
  -3.94500010E-02  -2.80526101E-12
  -3.94000001E-02  -4.07748618E-12
  -3.93499993E-02  -5.45939812E-12
  -3.92999984E-02  -6.73133814E-12
  -3.92500013E-02  -7.80067157E-12
  -3.92000005E-02  -8.84806638E-12
  -3.91499996E-02  -1.02695534E-11
  -3.90999988E-02  -1.24341570E-11
  -3.90500017E-02  -1.54685049E-11
  -3.90000008E-02  -1.92474231E-11
  -3.89500000E-02  -2.35330349E-11
  -3.88999991E-02  -2.80532975E-11
  -3.88499983E-02  -3.24522839E-11
  -3.88000011E-02  -3.63030335E-11
  -3.87500003E-02  -3.93686611E-11
  -3.86999995E-02  -4.19498880E-11
  -3.86499986E-02  -4.48795202E-11
  -3.86000015E-02  -4.89553155E-11
  -3.85500006E-02  -5.42023891E-11
  -3.84999998E-02  -5.96536223E-11
  -3.84499989E-02  -6.39018491E-11
  -3.84000018E-02  -6.59153843E-11
  -3.83500010E-02  -6.53749832E-11
  -3.83000001E-02  -6.23760765E-11
  -3.82499993E-02  -5.70548886E-11
  -3.81999984E-02  -4.96670691E-11
  -3.81500013E-02  -4.09094182E-11
  -3.81000005E-02  -3.17949521E-11
  -3.80499996E-02  -2.28780328E-11
  -3.79999988E-02  -1.35576194E-11
  -3.79500017E-02  -2.34320831E-12
  -3.79000008E-02   1.20233537E-11
  -3.78500000E-02   2.97413240E-11
  -3.77999991E-02   5.03475699E-11
  -3.77499983E-02   7.38749825E-11
  -3.77000012E-02   1.01349013E-10
  -3.76500003E-02   1.33903111E-10
  -3.75999995E-02   1.71444317E-10
  -3.75499986E-02   2.12453832E-10
  -3.75000015E-02   2.55304639E-10
  -3.74500006E-02   2.99753833E-10
  -3.73999998E-02   3.47049917E-10
  -3.73499990E-02   3.98649308E-10
  -3.73000018E-02   4.54979276E-10
  -3.72500010E-02   5.15283649E-10
  -3.72000001E-02   5.77957460E-10
  -3.71499993E-02   6.40159592E-10
  -3.70999984E-02   6.96893654E-10
  -3.70500013E-02   7.41442296E-10
  -3.70000005E-02   7.68501041E-10
  -3.69499996E-02   7.78547782E-10
  -3.68999988E-02   7.79807885E-10
  -3.68500017E-02   7.85354448E-10
  -3.68000008E-02   8.06654243E-10
  -3.67500000E-02   8.47637960E-10
  -3.66999991E-02   9.02585728E-10
  -3.66499983E-02   9.58052526E-10
  -3.66000012E-02   9.97050220E-10
  -3.65500003E-02   1.00412467E-09
  -3.64999995E-02   9.70886260E-10
  -3.64499986E-02   9.00604424E-10
  -3.64000015E-02   8.08579093E-10
  -3.63500006E-02   7.15540904E-10
  -3.62999998E-02   6.35806074E-10
  -3.62499990E-02   5.67064840E-10
  -3.62000018E-02   4.89258412E-10
  -3.61500010E-02   3.74449971E-10
  -3.61000001E-02   2.02136155E-10
  -3.60499993E-02  -2.87666280E-11
  -3.59999985E-02  -2.97184666E-10
  -3.59500013E-02  -5.66969194E-10
  -3.59000005E-02  -8.00752853E-10
  -3.58499996E-02  -9.76314363E-10
  -3.57999988E-02  -1.10003828E-09
  -3.57500017E-02  -1.21051191E-09
  -3.57000008E-02  -1.36656997E-09
  -3.56500000E-02  -1.62114955E-09
  -3.55999991E-02  -1.99238959E-09
  -3.55499983E-02  -2.44850673E-09
  -3.55000012E-02  -2.91731328E-09
  -3.54500003E-02  -3.31740480E-09
  -3.53999995E-02  -3.59564112E-09
  -3.53499986E-02  -3.75271725E-09
  -3.53000015E-02  -3.84534093E-09
  -3.52500007E-02  -3.96399891E-09
  -3.51999998E-02  -4.19410684E-09
  -3.51499990E-02  -4.57443772E-09
  -3.51000018E-02  -5.07030196E-09
  -3.50500010E-02  -5.57723645E-09
  -3.50000001E-02  -5.96005512E-09
  -3.49499993E-02  -6.11364737E-09
  -3.48999985E-02  -6.01636030E-09
  -3.48500013E-02  -5.74637316E-09
  -3.48000005E-02  -5.44924772E-09
  -3.47499996E-02  -5.27075139E-09
  -3.46999988E-02  -5.28697619E-09
  -3.46500017E-02  -5.46422330E-09
  -3.46000008E-02  -5.66692870E-09
  -3.45500000E-02  -5.71186387E-09
  -3.44999991E-02  -5.44848566E-09
  -3.44499983E-02  -4.83279861E-09
  -3.44000012E-02  -3.95963440E-09
  -3.43500003E-02  -3.03106051E-09
  -3.42999995E-02  -2.26690622E-09
  -3.42499986E-02  -1.79572479E-09
  -3.42000015E-02  -1.58096425E-09
  -3.41500007E-02  -1.42401757E-09
  -3.40999998E-02  -1.04798636E-09
  -3.40499990E-02  -2.24785399E-10
  -3.40000018E-02   1.11350362E-09
  -3.39500010E-02   2.83066259E-09
  -3.39000002E-02   4.63216621E-09
  -3.38499993E-02   6.18585716E-09
  -3.37999985E-02   7.26992422E-09
  -3.37500013E-02   7.88395926E-09
  -3.37000005E-02   8.26668334E-09
  -3.36499996E-02   8.80003093E-09
  -3.35999988E-02   9.83343362E-09
  -3.35500017E-02   1.15078969E-08
  -3.35000008E-02   1.36680667E-08
  -3.34500000E-02   1.59121250E-08
  -3.33999991E-02   1.77623054E-08
  -3.33499983E-02   1.88794349E-08
  -3.33000012E-02   1.92236893E-08
  -3.32500003E-02   1.90869489E-08
  -3.31999995E-02   1.89767455E-08
  -3.31499986E-02   1.93948164E-08
  -3.31000015E-02   2.06015969E-08
  -3.30500007E-02   2.24729497E-08
  -3.29999998E-02   2.45249634E-08
  -3.29499990E-02   2.61109090E-08
  -3.29000019E-02   2.67096230E-08
  -3.28500010E-02   2.61708273E-08
  -3.28000002E-02   2.47949909E-08
  -3.27499993E-02   2.32022774E-08
  -3.26999985E-02   2.20465814E-08
  -3.26500013E-02   2.17050680E-08
  -3.26000005E-02   2.20858372E-08
  -3.25499997E-02   2.26445991E-08
  -3.24999988E-02   2.26117045E-08
  -3.24500017E-02   2.13388063E-08
  -3.24000008E-02   1.86148394E-08
  -3.23500000E-02   1.48010253E-08
  -3.22999991E-02   1.07047393E-08
  -3.22499983E-02   7.23090299E-09
  -3.22000012E-02   4.96304775E-09
  -3.21500003E-02   3.87303034E-09
  -3.20999995E-02   3.30627348E-09
  -3.20499986E-02   2.26035146E-09
  -3.20000015E-02  -1.64561101E-10
  -3.19500007E-02  -4.34584946E-09
  -3.18999998E-02  -9.93973259E-09
  -3.18499990E-02  -1.59998788E-08
  -3.18000019E-02  -2.13742357E-08
  -3.17500010E-02  -2.52166643E-08
  -3.17000002E-02  -2.73870544E-08
  -3.16499993E-02  -2.85463138E-08
  -3.15999985E-02  -2.98804501E-08
  -3.15500014E-02  -3.25609726E-08
  -3.15000005E-02  -3.71850533E-08
  -3.14499997E-02  -4.34616396E-08
  -3.13999988E-02  -5.03005175E-08
  -3.13500017E-02  -5.62724232E-08
  -3.13000008E-02  -6.02360331E-08
  -3.12500000E-02  -6.18515656E-08
  -3.11999992E-02  -6.17486222E-08
  -3.11500002E-02  -6.12636128E-08
  -3.10999993E-02  -6.18470821E-08
  -3.10500003E-02  -6.43923741E-08
  -3.09999995E-02  -6.87891415E-08
  -3.09500005E-02  -7.39225356E-08
  -3.08999997E-02  -7.81432590E-08
  -3.08500007E-02  -8.00076094E-08
  -3.07999998E-02  -7.89465915E-08
  -3.07500008E-02  -7.55457137E-08
  -3.07000000E-02  -7.12961068E-08
  -3.06499992E-02  -6.79240557E-08
  -3.06000002E-02  -6.65991138E-08
  -3.05499993E-02  -6.73747849E-08
  -3.05000003E-02  -6.91169362E-08
  -3.04499995E-02  -6.99679248E-08
  -3.04000005E-02  -6.81620094E-08
  -3.03499997E-02  -6.28389927E-08
  -3.03000007E-02  -5.44797345E-08
  -3.02499998E-02  -4.47403998E-08
  -3.02000009E-02  -3.57347290E-08
  -3.01500000E-02  -2.90810540E-08
  -3.00999992E-02  -2.51534544E-08
  -3.00500002E-02  -2.28889476E-08
  -2.99999993E-02  -2.02466097E-08
  -2.99500003E-02  -1.51178661E-08
  -2.98999995E-02  -6.28634700E-09
  -2.98500005E-02   5.98647354E-09
  -2.97999997E-02   2.00177208E-08
  -2.97500007E-02   3.33988979E-08
  -2.96999998E-02   4.40451657E-08
  -2.96500009E-02   5.11388087E-08
  -2.96000000E-02   5.55280515E-08
  -2.95499992E-02   5.93745426E-08
  -2.95000002E-02   6.51890275E-08
  -2.94499993E-02   7.46863336E-08
  -2.94000003E-02   8.79843114E-08
  -2.93499995E-02   1.03512647E-07
  -2.93000005E-02   1.18673100E-07
  -2.92499997E-02   1.30959947E-07
  -2.92000007E-02   1.39050172E-07
  -2.91499998E-02   1.43385691E-07
  -2.91000009E-02   1.45979584E-07
  -2.90500000E-02   1.49509532E-07
  -2.89999992E-02   1.56081896E-07
  -2.89500002E-02   1.66219507E-07
  -2.88999993E-02   1.78549712E-07
  -2.88500004E-02   1.90359245E-07
  -2.87999995E-02   1.98779603E-07
  -2.87500005E-02   2.02065195E-07
  -2.86999997E-02   2.00381777E-07
  -2.86500007E-02   1.95747617E-07
  -2.85999998E-02   1.91151557E-07
  -2.85500009E-02   1.89229070E-07
  -2.85000000E-02   1.91067386E-07
  -2.84499992E-02   1.95664910E-07
  -2.84000002E-02   2.00302964E-07
  -2.83499993E-02   2.01697560E-07
  -2.83000004E-02   1.97442986E-07
  -2.82499995E-02   1.87101165E-07
  -2.82000005E-02   1.72426283E-07
  -2.81499997E-02   1.56603122E-07
  -2.81000007E-02   1.42832448E-07
  -2.80499998E-02   1.32897270E-07
  -2.80000009E-02   1.26352546E-07
  -2.79500000E-02   1.20693798E-07
  -2.78999992E-02   1.12432851E-07
  -2.78500002E-02   9.86266855E-08
  -2.77999993E-02   7.82075347E-08
  -2.77500004E-02   5.25276178E-08
  -2.76999995E-02   2.48528700E-08
  -2.76500005E-02  -1.00758546E-09
  -2.75999997E-02  -2.23490826E-08
  -2.75500007E-02  -3.87589800E-08
  -2.74999999E-02  -5.22944390E-08
  -2.74500009E-02  -6.65574476E-08
  -2.74000000E-02  -8.50779287E-08
  -2.73499992E-02  -1.09719110E-07
  -2.73000002E-02  -1.39807184E-07
  -2.72499993E-02  -1.72358497E-07
  -2.72000004E-02  -2.03311885E-07
  -2.71499995E-02  -2.29253899E-07
  -2.71000005E-02  -2.48897550E-07
  -2.70499997E-02  -2.63656432E-07
  -2.70000007E-02  -2.77025322E-07
  -2.69499999E-02  -2.93002813E-07
  -2.69000009E-02  -3.14244517E-07
  -2.68500000E-02  -3.40782123E-07
  -2.67999992E-02  -3.69899396E-07
  -2.67500002E-02  -3.97236391E-07
  -2.66999993E-02  -4.18637171E-07
  -2.66500004E-02  -4.31931284E-07
  -2.65999995E-02  -4.37874661E-07
  -2.65500005E-02  -4.39830984E-07
  -2.64999997E-02  -4.42304213E-07
  -2.64500007E-02  -4.48925988E-07
  -2.63999999E-02  -4.60760532E-07
  -2.63500009E-02  -4.75697590E-07
  -2.63000000E-02  -4.89253068E-07
  -2.62499992E-02  -4.96468999E-07
  -2.62000002E-02  -4.94085043E-07
  -2.61499994E-02  -4.82007465E-07
  -2.61000004E-02  -4.63399772E-07
  -2.60499995E-02  -4.43335608E-07
  -2.60000005E-02  -4.26599485E-07
  -2.59499997E-02  -4.15575897E-07
  -2.59000007E-02  -4.09137698E-07
  -2.58499999E-02  -4.03043259E-07
  -2.58000009E-02  -3.91717293E-07
  -2.57500000E-02  -3.70675821E-07
  -2.56999992E-02  -3.38551587E-07
  -2.56500002E-02  -2.97793719E-07
  -2.55999994E-02  -2.53681208E-07
  -2.55500004E-02  -2.12047354E-07
  -2.54999995E-02  -1.76709307E-07
  -2.54500005E-02  -1.47769995E-07
  -2.53999997E-02  -1.21558969E-07
  -2.53500007E-02  -9.22560446E-08
  -2.52999999E-02  -5.45008909E-08
  -2.52500009E-02  -5.85157345E-09
  -2.52000000E-02   5.19802228E-08
  -2.51499992E-02   1.13704679E-07
  -2.51000002E-02   1.72642473E-07
  -2.50499994E-02   2.23614933E-07
  -2.50000004E-02   2.65263395E-07
  -2.49499995E-02   3.00707143E-07
  -2.49000005E-02   3.36179681E-07
  -2.48499997E-02   3.78211695E-07
  -2.48000007E-02   4.30617689E-07
  -2.47499999E-02   4.92644858E-07
  -2.47000009E-02   5.59131081E-07
  -2.46500000E-02   6.22630694E-07
  -2.45999992E-02   6.76597210E-07
  -2.45500002E-02   7.18241608E-07
  -2.44999994E-02   7.49790274E-07
  -2.44500004E-02   7.77531511E-07
  -2.43999995E-02   8.08989455E-07
  -2.43500005E-02   8.49427749E-07
  -2.42999997E-02   8.99263739E-07
  -2.42500007E-02   9.53619860E-07
  -2.41999999E-02   1.00428326E-06
  -2.41500009E-02   1.04323715E-06
  -2.41000000E-02   1.06618268E-06
  -2.40499992E-02   1.07446090E-06
  -2.40000002E-02   1.07449739E-06
  -2.39499994E-02   1.07497613E-06
  -2.39000004E-02   1.08295751E-06
  -2.38499995E-02   1.10062103E-06
  -2.38000005E-02   1.12410589E-06
  -2.37499997E-02   1.14503655E-06
  -2.37000007E-02   1.15412990E-06
  -2.36499999E-02   1.14532395E-06
  -2.36000009E-02   1.11853979E-06
  -2.35500000E-02   1.07975825E-06
  -2.34999992E-02   1.03833679E-06
  -2.34500002E-02   1.00276714E-06
  -2.33999994E-02   9.76787419E-07
  -2.33500004E-02   9.57597535E-07
  -2.32999995E-02   9.37018001E-07
  -2.32500006E-02   9.05080526E-07
  -2.31999997E-02   8.54498580E-07
  -2.31500007E-02   7.84056454E-07
  -2.30999999E-02   6.99330201E-07
  -2.30500009E-02   6.10344557E-07
  -2.30000000E-02   5.27118800E-07
  -2.29499992E-02   4.55106857E-07
  -2.29000002E-02   3.92664958E-07
  -2.28499994E-02   3.31746463E-07
  -2.28000004E-02   2.61545409E-07
  -2.27499995E-02   1.73458957E-07
  -2.27000006E-02   6.51130634E-08
  -2.26499997E-02  -5.83799000E-08
  -2.26000007E-02  -1.86505602E-07
  -2.25499999E-02  -3.07910653E-07
  -2.25000009E-02  -4.15439871E-07
  -2.24500000E-02  -5.09393885E-07
  -2.23999992E-02  -5.97487883E-07
  -2.23500002E-02  -6.91414186E-07
  -2.22999994E-02  -8.01497663E-07
  -2.22500004E-02  -9.31869067E-07
  -2.21999995E-02  -1.07840356E-06
  -2.21500006E-02  -1.23042059E-06
  -2.20999997E-02  -1.37536790E-06
  -2.20500007E-02  -1.50435665E-06
  -2.19999999E-02  -1.61608193E-06
  -2.19500009E-02  -1.71735962E-06
  -2.19000001E-02  -1.82001418E-06
  -2.18499992E-02  -1.93547044E-06
  -2.18000002E-02  -2.06942877E-06
  -2.17499994E-02  -2.21906112E-06
  -2.17000004E-02  -2.37406766E-06
  -2.16499995E-02  -2.52118343E-06
  -2.16000006E-02  -2.65013728E-06
  -2.15499997E-02  -2.75830189E-06
  -2.15000007E-02  -2.85186820E-06
  -2.14499999E-02  -2.94299434E-06
  -2.14000009E-02  -3.04425339E-06
  -2.13500001E-02  -3.16289197E-06
  -2.12999992E-02  -3.29748400E-06
  -2.12500002E-02  -3.43848706E-06
  -2.11999994E-02  -3.57246131E-06
  -2.11500004E-02  -3.68811834E-06
  -2.10999995E-02  -3.78146615E-06
  -2.10500006E-02  -3.85769272E-06
  -2.09999997E-02  -3.92883521E-06
  -2.09500007E-02  -4.00824229E-06
  -2.08999999E-02  -4.10438588E-06
  -2.08500009E-02  -4.21684308E-06
  -2.08000001E-02  -4.33644391E-06
  -2.07499992E-02  -4.44943726E-06
  -2.07000002E-02  -4.54370456E-06
  -2.06499994E-02  -4.61428453E-06
  -2.06000004E-02  -4.66576012E-06
  -2.05499995E-02  -4.71034537E-06
  -2.05000006E-02  -4.76250034E-06
  -2.04499997E-02  -4.83243684E-06
  -2.04000007E-02  -4.92143909E-06
  -2.03499999E-02  -5.02128842E-06
  -2.03000009E-02  -5.11799135E-06
  -2.02500001E-02  -5.19816240E-06
  -2.01999992E-02  -5.25514588E-06
  -2.01500002E-02  -5.29208410E-06
  -2.00999994E-02  -5.32048034E-06
  -2.00500004E-02  -5.35498611E-06
  -1.99999996E-02  -5.40682413E-06
  -1.99500006E-02  -5.47879426E-06
  -1.98999997E-02  -5.56413352E-06
  -1.98500007E-02  -5.64962602E-06
  -1.97999999E-02  -5.72172758E-06
  -1.97500009E-02  -5.77288938E-06
  -1.97000001E-02  -5.80521146E-06
  -1.96499992E-02  -5.82969642E-06
  -1.96000002E-02  -5.86129363E-06
  -1.95499994E-02  -5.91210346E-06
  -1.95000004E-02  -5.98594852E-06
  -1.94499996E-02  -6.07686889E-06
  -1.94000006E-02  -6.17206751E-06
  -1.93499997E-02  -6.25786834E-06
  -1.93000007E-02  -6.32601632E-06
  -1.92499999E-02  -6.37761514E-06
  -1.92000009E-02  -6.42286659E-06
  -1.91500001E-02  -6.47664001E-06
  -1.90999992E-02  -6.55173289E-06
  -1.90500002E-02  -6.65313883E-06
  -1.89999994E-02  -6.77583694E-06
  -1.89500004E-02  -6.90715797E-06
  -1.88999996E-02  -7.03291153E-06
  -1.88500006E-02  -7.14412954E-06
  -1.87999997E-02  -7.24125448E-06
  -1.87500007E-02  -7.33407887E-06
  -1.86999999E-02  -7.43750661E-06
  -1.86500009E-02  -7.56494956E-06
  -1.86000001E-02  -7.72257317E-06
  -1.85499992E-02  -7.90670310E-06
  -1.85000002E-02  -8.10557958E-06
  -1.84499994E-02  -8.30489626E-06
  -1.84000004E-02  -8.49449316E-06
  -1.83499996E-02  -8.67334347E-06
  -1.83000006E-02  -8.85036570E-06
  -1.82499997E-02  -9.04040098E-06
  -1.82000007E-02  -9.25744826E-06
  -1.81499999E-02  -9.50841513E-06
  -1.81000009E-02  -9.79032211E-06
  -1.80500001E-02  -1.00922798E-05
  -1.79999992E-02  -1.04004021E-05
  -1.79500002E-02  -1.07040296E-05
  -1.78999994E-02  -1.10009278E-05
  -1.78500004E-02  -1.12986718E-05
  -1.77999996E-02  -1.16115662E-05
  -1.77500006E-02  -1.19541164E-05
  -1.76999997E-02  -1.23343452E-05
  -1.76500008E-02  -1.27504954E-05
  -1.75999999E-02  -1.31923780E-05
  -1.75500009E-02  -1.36465196E-05
  -1.75000001E-02  -1.41026921E-05
  -1.74499992E-02  -1.45586973E-05
  -1.74000002E-02  -1.50217911E-05
  -1.73499994E-02  -1.55057314E-05
  -1.73000004E-02  -1.60244763E-05
  -1.72499996E-02  -1.65861838E-05
  -1.72000006E-02  -1.71895699E-05
  -1.71499997E-02  -1.78244209E-05
  -1.71000008E-02  -1.84762230E-05
  -1.70499999E-02  -1.91331965E-05
  -1.70000009E-02  -1.97920872E-05
  -1.69500001E-02  -2.04598618E-05
  -1.68999992E-02  -2.11507140E-05
  -1.68500002E-02  -2.18795576E-05
  -1.67999994E-02  -2.26555912E-05
  -1.67500004E-02  -2.34786403E-05
  -1.66999996E-02  -2.43397553E-05
  -1.66500006E-02  -2.52254194E-05
  -1.65999997E-02  -2.61235946E-05
  -1.65500008E-02  -2.70294022E-05
  -1.64999999E-02  -2.79479627E-05
  -1.64500009E-02  -2.88923602E-05
  -1.64000001E-02  -2.98775904E-05
  -1.63499992E-02  -3.09136449E-05
  -1.63000003E-02  -3.20006620E-05
  -1.62499994E-02  -3.31291303E-05
  -1.62000004E-02  -3.42848507E-05
  -1.61499996E-02  -3.54555232E-05
  -1.61000006E-02  -3.66360473E-05
  -1.60499997E-02  -3.78306977E-05
  -1.60000008E-02  -3.90514106E-05
  -1.59499999E-02  -4.03129488E-05
  -1.59000009E-02  -4.16262264E-05
  -1.58500001E-02  -4.29929205E-05
  -1.57999992E-02  -4.44043944E-05
  -1.57500003E-02  -4.58459435E-05
  -1.56999994E-02  -4.73039836E-05
  -1.56500004E-02  -4.87727411E-05
  -1.55999996E-02  -5.02564581E-05
  -1.55499997E-02  -5.17669469E-05
  -1.54999997E-02  -5.33187231E-05
  -1.54499998E-02  -5.49225188E-05
  -1.53999999E-02  -5.65795890E-05
  -1.53500000E-02  -5.82813955E-05
  -1.53000001E-02  -6.00134190E-05
  -1.52500002E-02  -6.17609912E-05
  -1.52000003E-02  -6.35172473E-05
  -1.51500003E-02  -6.52855379E-05
  -1.51000004E-02  -6.70774825E-05
  -1.50499996E-02  -6.89090521E-05
  -1.49999997E-02  -7.07929066E-05
  -1.49499997E-02  -7.27320803E-05
  -1.48999998E-02  -7.47185186E-05
  -1.48499999E-02  -7.67372403E-05
  -1.48000000E-02  -7.87726240E-05
  -1.47500001E-02  -8.08159239E-05
  -1.47000002E-02  -8.28705088E-05
  -1.46500003E-02  -8.49487042E-05
  -1.46000003E-02  -8.70660733E-05
  -1.45500004E-02  -8.92347525E-05
  -1.44999996E-02  -9.14591874E-05
  -1.44499997E-02  -9.37350487E-05
  -1.43999998E-02  -9.60490142E-05
  -1.43499998E-02  -9.83848004E-05
  -1.42999999E-02  -1.00731988E-04
  -1.42500000E-02  -1.03091726E-04
  -1.42000001E-02  -1.05476858E-04
  -1.41500002E-02  -1.07905282E-04
  -1.41000003E-02  -1.10390873E-04
  -1.40500003E-02  -1.12937843E-04
  -1.40000004E-02  -1.15539835E-04
  -1.39499996E-02  -1.18184325E-04
  -1.38999997E-02  -1.20858538E-04
  -1.38499998E-02  -1.23553342E-04
  -1.37999998E-02  -1.26268220E-04
  -1.37499999E-02  -1.29015316E-04
  -1.37000000E-02  -1.31814188E-04
  -1.36500001E-02  -1.34680929E-04
  -1.36000002E-02  -1.37623108E-04
  -1.35500003E-02  -1.40637407E-04
  -1.35000004E-02  -1.43708981E-04
  -1.34500004E-02  -1.46822014E-04
  -1.33999996E-02  -1.49967280E-04
  -1.33499997E-02  -1.53144312E-04
  -1.32999998E-02  -1.56364535E-04
  -1.32499998E-02  -1.59648684E-04
  -1.31999999E-02  -1.63016841E-04
  -1.31500000E-02  -1.66479251E-04
  -1.31000001E-02  -1.70032581E-04
  -1.30500002E-02  -1.73662687E-04
  -1.30000003E-02  -1.77354814E-04
  -1.29500004E-02  -1.81100608E-04
  -1.29000004E-02  -1.84900229E-04
  -1.28499996E-02  -1.88763734E-04
  -1.27999997E-02  -1.92708714E-04
  -1.27499998E-02  -1.96756882E-04
  -1.26999998E-02  -2.00924915E-04
  -1.26499999E-02  -2.05216507E-04
  -1.26000000E-02  -2.09621270E-04
  -1.25500001E-02  -2.14118190E-04
  -1.25000002E-02  -2.18694535E-04
  -1.24500003E-02  -2.23354073E-04
  -1.24000004E-02  -2.28110177E-04
  -1.23500004E-02  -2.32981794E-04
  -1.22999996E-02  -2.37984175E-04
  -1.22499997E-02  -2.43124348E-04
  -1.21999998E-02  -2.48402735E-04
  -1.21499998E-02  -2.53812905E-04
  -1.20999999E-02  -2.59341090E-04
  -1.20500000E-02  -2.64974631E-04
  -1.20000001E-02  -2.70711782E-04
  -1.19500002E-02  -2.76567327E-04
  -1.19000003E-02  -2.82570196E-04
  -1.18500004E-02  -2.88750220E-04
  -1.18000004E-02  -2.95125879E-04
  -1.17499996E-02  -3.01700260E-04
  -1.16999997E-02  -3.08464892E-04
  -1.16499998E-02  -3.15402373E-04
  -1.15999999E-02  -3.22492968E-04
  -1.15499999E-02  -3.29724659E-04
  -1.15000000E-02  -3.37098580E-04
  -1.14500001E-02  -3.44626518E-04
  -1.14000002E-02  -3.52325878E-04
  -1.13500003E-02  -3.60215432E-04
  -1.13000004E-02  -3.68299428E-04
  -1.12500004E-02  -3.76570009E-04
  -1.11999996E-02  -3.85020889E-04
  -1.11499997E-02  -3.93646798E-04
  -1.10999998E-02  -4.02454229E-04
  -1.10499999E-02  -4.11466608E-04
  -1.09999999E-02  -4.20711411E-04
  -1.09500000E-02  -4.30215441E-04
  -1.09000001E-02  -4.40001080E-04
  -1.08500002E-02  -4.50073509E-04
  -1.08000003E-02  -4.60414682E-04
  -1.07500004E-02  -4.70989937E-04
  -1.07000005E-02  -4.81772004E-04
  -1.06499996E-02  -4.92748281E-04
  -1.05999997E-02  -5.03916526E-04
  -1.05499998E-02  -5.15284715E-04
  -1.04999999E-02  -5.26865246E-04
  -1.04499999E-02  -5.38681110E-04
  -1.04000000E-02  -5.50754077E-04
  -1.03500001E-02  -5.63089096E-04
  -1.03000002E-02  -5.75678481E-04
  -1.02500003E-02  -5.88507042E-04
  -1.02000004E-02  -6.01573091E-04
  -1.01500005E-02  -6.14896184E-04
  -1.00999996E-02  -6.28509384E-04
  -1.00499997E-02  -6.42438361E-04
  -9.99999978E-03  -6.56695163E-04
  -9.94999986E-03  -6.71285612E-04
  -9.89999995E-03  -6.86198531E-04
  -9.85000003E-03  -7.01425888E-04
  -9.80000012E-03  -7.16952607E-04
  -9.75000020E-03  -7.32748653E-04
  -9.70000029E-03  -7.48810300E-04
  -9.65000037E-03  -7.65162928E-04
  -9.60000046E-03  -7.81829003E-04
  -9.54999961E-03  -7.98826048E-04
  -9.49999969E-03  -8.16158368E-04
  -9.44999978E-03  -8.33805243E-04
  -9.39999986E-03  -8.51748569E-04
  -9.34999995E-03  -8.69973330E-04
  -9.30000003E-03  -8.88465496E-04
  -9.25000012E-03  -9.07222973E-04
  -9.20000020E-03  -9.26256995E-04
  -9.15000029E-03  -9.45607491E-04
  -9.10000037E-03  -9.65321844E-04
  -9.05000046E-03  -9.85424034E-04
  -8.99999961E-03  -1.00591767E-03
  -8.94999970E-03  -1.02677778E-03
  -8.89999978E-03  -1.04797934E-03
  -8.84999987E-03  -1.06952840E-03
  -8.79999995E-03  -1.09145429E-03
  -8.75000004E-03  -1.11377623E-03
  -8.70000012E-03  -1.13648211E-03
  -8.65000021E-03  -1.15956808E-03
  -8.60000029E-03  -1.18304207E-03
  -8.55000038E-03  -1.20692363E-03
  -8.50000046E-03  -1.23121333E-03
  -8.44999962E-03  -1.25586148E-03
  -8.39999970E-03  -1.28081080E-03
  -8.34999979E-03  -1.30605104E-03
  -8.29999987E-03  -1.33162737E-03
  -8.24999996E-03  -1.35759939E-03
  -8.20000004E-03  -1.38400041E-03
  -8.15000013E-03  -1.41080492E-03
  -8.10000021E-03  -1.43797603E-03
  -8.05000030E-03  -1.46551256E-03
  -8.00000038E-03  -1.49343384E-03
  -7.95000046E-03  -1.52174546E-03
  -7.89999962E-03  -1.55043055E-03
  -7.84999970E-03  -1.57948560E-03
  -7.79999979E-03  -1.60893961E-03
  -7.74999987E-03  -1.63885520E-03
  -7.69999996E-03  -1.66927325E-03
  -7.65000004E-03  -1.70017569E-03
  -7.60000013E-03  -1.73151237E-03
  -7.55000021E-03  -1.76324102E-03
  -7.49999983E-03  -1.79536885E-03
  -7.44999992E-03  -1.82792917E-03
  -7.40000000E-03  -1.86093582E-03
  -7.35000009E-03  -1.89437368E-03
  -7.30000017E-03  -1.92822411E-03
  -7.24999979E-03  -1.96252391E-03
  -7.19999988E-03  -1.99732697E-03
  -7.14999996E-03  -2.03263108E-03
  -7.10000005E-03  -2.06835824E-03
  -7.05000013E-03  -2.10441905E-03
  -7.00000022E-03  -2.14081910E-03
  -6.94999984E-03  -2.17764545E-03
  -6.89999992E-03  -2.21497635E-03
  -6.85000001E-03  -2.25280970E-03
  -6.80000009E-03  -2.29109544E-03
  -6.75000018E-03  -2.32979446E-03
  -6.69999979E-03  -2.36893399E-03
  -6.64999988E-03  -2.40859599E-03
  -6.59999996E-03  -2.44880072E-03
  -6.55000005E-03  -2.48945504E-03
  -6.50000013E-03  -2.53047980E-03
  -6.45000022E-03  -2.57196114E-03
  -6.39999984E-03  -2.61405087E-03
  -6.34999992E-03  -2.65679555E-03
  -6.30000001E-03  -2.70011206E-03
  -6.25000009E-03  -2.74390355E-03
  -6.20000018E-03  -2.78814463E-03
  -6.14999980E-03  -2.83287000E-03
  -6.09999988E-03  -2.87812878E-03
  -6.04999997E-03  -2.92389560E-03
  -6.00000005E-03  -2.97012110E-03
  -5.95000014E-03  -3.01683461E-03
  -5.90000022E-03  -3.06413905E-03
  -5.84999984E-03  -3.11208307E-03
  -5.79999993E-03  -3.16058937E-03
  -5.75000001E-03  -3.20956158E-03
  -5.70000010E-03  -3.25897452E-03
  -5.65000018E-03  -3.30884987E-03
  -5.59999980E-03  -3.35924397E-03
  -5.54999989E-03  -3.41024459E-03
  -5.49999997E-03  -3.46188876E-03
  -5.45000006E-03  -3.51415086E-03
  -5.40000014E-03  -3.56703252E-03
  -5.35000023E-03  -3.62055912E-03
  -5.29999984E-03  -3.67475231E-03
  -5.24999993E-03  -3.72958812E-03
  -5.20000001E-03  -3.78499972E-03
  -5.15000010E-03  -3.84096662E-03
  -5.10000018E-03  -3.89758428E-03
  -5.04999980E-03  -3.95497819E-03
  -4.99999989E-03  -4.01317654E-03
  -4.94999997E-03  -4.07211157E-03
  -4.90000006E-03  -4.13165661E-03
  -4.85000014E-03  -4.19173948E-03
  -4.80000023E-03  -4.25240770E-03
  -4.74999985E-03  -4.31370502E-03
  -4.69999993E-03  -4.37563611E-03
  -4.65000002E-03  -4.43817209E-03
  -4.60000010E-03  -4.50131437E-03
  -4.55000019E-03  -4.56520543E-03
  -4.49999981E-03  -4.62995470E-03
  -4.44999989E-03  -4.69555520E-03
  -4.39999998E-03  -4.76193521E-03
  -4.35000006E-03  -4.82895458E-03
  -4.30000015E-03  -4.89655510E-03
  -4.25000023E-03  -4.96484432E-03
  -4.19999985E-03  -5.03400899E-03
  -4.14999994E-03  -5.10419440E-03
  -4.10000002E-03  -5.17533673E-03
  -4.05000011E-03  -5.24727255E-03
  -4.00000019E-03  -5.31998370E-03
  -3.94999981E-03  -5.39353024E-03
  -3.89999989E-03  -5.46792895E-03
  -3.84999998E-03  -5.54310530E-03
  -3.80000006E-03  -5.61894709E-03
  -3.74999992E-03  -5.69542404E-03
  -3.70000000E-03  -5.77271357E-03
  -3.65000009E-03  -5.85109182E-03
  -3.59999994E-03  -5.93056809E-03
  -3.55000002E-03  -6.01088116E-03
  -3.50000011E-03  -6.09184243E-03
  -3.44999996E-03  -6.17353572E-03
  -3.40000005E-03  -6.25614170E-03
  -3.34999990E-03  -6.33964734E-03
  -3.29999998E-03  -6.42389013E-03
  -3.25000007E-03  -6.50888775E-03
  -3.19999992E-03  -6.59489306E-03
  -3.15000000E-03  -6.68210676E-03
  -3.10000009E-03  -6.77052932E-03
  -3.04999994E-03  -6.85993722E-03
  -3.00000003E-03  -6.94998493E-03
  -2.95000011E-03  -7.04068644E-03
  -2.89999996E-03  -7.13230763E-03
  -2.85000005E-03  -7.22500170E-03
  -2.79999990E-03  -7.31875421E-03
  -2.74999999E-03  -7.41352839E-03
  -2.70000007E-03  -7.50935171E-03
  -2.64999992E-03  -7.60625955E-03
  -2.60000001E-03  -7.70430826E-03
  -2.55000009E-03  -7.80332414E-03
  -2.49999994E-03  -7.90294539E-03
  -2.45000003E-03  -8.00321158E-03
  -2.40000011E-03  -8.10445007E-03
  -2.34999997E-03  -8.20685085E-03
  -2.30000005E-03  -8.31032544E-03
  -2.24999990E-03  -8.41472205E-03
  -2.19999999E-03  -8.52006208E-03
  -2.15000007E-03  -8.62647779E-03
  -2.09999993E-03  -8.73406231E-03
  -2.05000001E-03  -8.84259213E-03
  -2.00000009E-03  -8.95183161E-03
  -1.94999995E-03  -9.06183198E-03
  -1.90000003E-03  -9.17290710E-03
  -1.85000000E-03  -9.28529818E-03
  -1.79999997E-03  -9.39903874E-03
  -1.75000005E-03  -9.51402169E-03
  -1.70000002E-03  -9.62998066E-03
  -1.64999999E-03  -9.74682253E-03
  -1.59999996E-03  -9.86452587E-03
  -1.55000004E-03  -9.98317264E-03
  -1.50000001E-03  -1.01028597E-02
  -1.44999998E-03  -1.02234734E-02
  -1.39999995E-03  -1.03448750E-02
  -1.35000004E-03  -1.04673868E-02
  -1.30000000E-03  -1.05913980E-02
  -1.24999997E-03  -1.07166674E-02
  -1.20000006E-03  -1.08428467E-02
  -1.15000003E-03  -1.09697292E-02
  -1.09999999E-03  -1.10972384E-02
  -1.04999996E-03  -1.12255765E-02
  -1.00000005E-03  -1.13551309E-02
  -9.50000016E-04  -1.14859184E-02
  -8.99999985E-04  -1.16178738E-02
  -8.50000011E-04  -1.17511451E-02
  -7.99999980E-04  -1.18856877E-02
  -7.50000007E-04  -1.20212911E-02
  -6.99999975E-04  -1.21578267E-02
  -6.50000002E-04  -1.22951306E-02
  -6.00000028E-04  -1.24331694E-02
  -5.49999997E-04  -1.25722578E-02
  -5.00000024E-04  -1.27125615E-02
  -4.49999992E-04  -1.28540210E-02
  -3.99999990E-04  -1.29968543E-02
  -3.49999988E-04  -1.31411441E-02
  -3.00000014E-04  -1.32865356E-02
  -2.50000012E-04  -1.34326601E-02
  -1.99999995E-04  -1.35793956E-02
  -1.50000007E-04  -1.37270605E-02
  -9.99999975E-05  -1.38758942E-02
  -4.99999987E-05  -1.40258493E-02
   0.00000000      -1.41768456E-02
   4.99999987E-05  -1.43289696E-02
   9.99999975E-05  -1.44826071E-02
   1.50000007E-04  -1.46378772E-02
   1.99999995E-04  -1.47941168E-02
   2.50000012E-04  -1.49504347E-02
   3.00000014E-04  -1.51069118E-02
   3.49999988E-04  -1.52645186E-02
   3.99999990E-04  -1.54241910E-02
   4.49999992E-04  -1.55859198E-02
   5.00000024E-04  -1.57484431E-02
   5.49999997E-04  -1.59112792E-02
   6.00000028E-04  -1.60751212E-02
   6.50000002E-04  -1.62407774E-02
   6.99999975E-04  -1.64081324E-02
   7.50000007E-04  -1.65761914E-02
   7.99999980E-04  -1.67443566E-02
   8.50000011E-04  -1.69131421E-02
   8.99999985E-04  -1.70836151E-02
   9.50000016E-04  -1.72561277E-02
   1.00000005E-03  -1.74302235E-02
   1.04999996E-03  -1.76052079E-02
   1.09999999E-03  -1.77805983E-02
   1.15000003E-03  -1.79564729E-02
   1.20000006E-03  -1.81333348E-02
   1.24999997E-03  -1.83116067E-02
   1.30000000E-03  -1.84913445E-02
   1.35000004E-03  -1.86719000E-02
   1.39999995E-03  -1.88531522E-02
   1.44999998E-03  -1.90357883E-02
   1.50000001E-03  -1.92204248E-02
   1.55000004E-03  -1.94068514E-02
   1.59999996E-03  -1.95939951E-02
   1.64999999E-03  -1.97810754E-02
   1.70000002E-03  -1.99687853E-02
   1.75000005E-03  -2.01582350E-02
   1.79999997E-03  -2.03497745E-02
   1.85000000E-03  -2.05429848E-02
   1.90000003E-03  -2.07368769E-02
   1.94999995E-03  -2.09312141E-02
   2.00000009E-03  -2.11267509E-02
   2.05000001E-03  -2.13242490E-02
   2.09999993E-03  -2.15231050E-02
   2.15000007E-03  -2.17221435E-02
   2.19999999E-03  -2.19210610E-02
   2.24999990E-03  -2.21210644E-02
   2.30000005E-03  -2.23237332E-02
   2.34999997E-03  -2.25287508E-02
   2.40000011E-03  -2.27346066E-02
   2.45000003E-03  -2.29404662E-02
   2.49999994E-03  -2.31468827E-02
   2.55000009E-03  -2.33549140E-02
   2.60000001E-03  -2.35646218E-02
   2.64999992E-03  -2.37754229E-02
   2.70000007E-03  -2.39867810E-02
   2.74999999E-03  -2.41989177E-02
   2.79999990E-03  -2.44129822E-02