  -3.99999991E-02   0.00000000    
  -3.99499983E-02   0.00000000    
  -3.99000011E-02   0.00000000    
  -3.98500003E-02  -2.60274882E-18
  -3.97999994E-02  -1.45158270E-17
  -3.97499986E-02  -4.15457121E-17
  -3.97000015E-02  -7.50442935E-17
  -3.96500006E-02  -7.64919787E-17
  -3.95999998E-02   2.52489288E-17
  -3.95499989E-02   3.11927188E-16
  -3.95000018E-02   8.32589130E-16
  -3.94500010E-02   1.56139428E-15
  -3.94000001E-02   2.38595671E-15
  -3.93499993E-02   3.14275100E-15
  -3.92999984E-02   3.69025997E-15
  -3.92500013E-02   3.98710436E-15
  -3.92000005E-02   4.13418740E-15
  -3.91499996E-02   4.35126542E-15
  -3.90999988E-02   4.88625398E-15
  -3.90500017E-02   5.89065844E-15
  -3.90000008E-02   7.32063810E-15
  -3.89500000E-02   8.92180989E-15
  -3.88999991E-02   1.03191330E-14
  -3.88499983E-02   1.11762169E-14
  -3.88000011E-02   1.13446104E-14
  -3.87500003E-02   1.09224932E-14
  -3.86999995E-02   1.01865368E-14
  -3.86499986E-02   9.42532439E-15
  -3.86000015E-02   8.75293016E-15
  -3.85500006E-02   7.99412077E-15
  -3.84999998E-02   6.70375629E-15
  -3.84499989E-02   4.32262258E-15
  -3.84000018E-02   4.02948449E-16
  -3.83500010E-02  -5.20797234E-15
  -3.83000001E-02  -1.23270365E-14
  -3.82499993E-02  -2.05667917E-14
  -3.81999984E-02  -2.95710179E-14
  -3.81500013E-02  -3.92233717E-14
  -3.81000005E-02  -4.97119571E-14
  -3.80499996E-02  -6.14157366E-14
  -3.79999988E-02  -7.46782735E-14
  -3.79500017E-02  -8.95937513E-14
  -3.79000008E-02  -1.05922100E-13
  -3.78500000E-02  -1.23184083E-13
  -3.77999991E-02  -1.40893780E-13
  -3.77499983E-02  -1.58804664E-13
  -3.77000012E-02  -1.77018922E-13
  -3.76500003E-02  -1.95867655E-13
  -3.75999995E-02  -2.15599619E-13
  -3.75499986E-02  -2.36048540E-13
  -3.75000015E-02  -2.56492771E-13
  -3.74500006E-02  -2.75828297E-13
  -3.73999998E-02  -2.92991244E-13
  -3.73499990E-02  -3.07402920E-13
  -3.73000018E-02  -3.19171772E-13
  -3.72500010E-02  -3.28899017E-13
  -3.72000001E-02  -3.37141122E-13
  -3.71499993E-02  -3.43780722E-13
  -3.70999984E-02  -3.47651514E-13
  -3.70500013E-02  -3.46693269E-13
  -3.70000005E-02  -3.38675106E-13
  -3.69499996E-02  -3.22209138E-13
  -3.68999988E-02  -2.97537494E-13
  -3.68500017E-02  -2.66590217E-13
  -3.68000008E-02  -2.32125896E-13
  -3.67500000E-02  -1.96258605E-13
  -3.66999991E-02  -1.59074075E-13
  -3.66499983E-02  -1.18105192E-13
  -3.66000012E-02  -6.90953032E-14
  -3.65500003E-02  -7.87197608E-15
  -3.64999995E-02   6.74395503E-14
  -3.64499986E-02   1.54926460E-13
  -3.64000015E-02   2.48998494E-13
  -3.63500006E-02   3.42321088E-13
  -3.62999998E-02   4.28909187E-13
  -3.62499990E-02   5.07009853E-13
  -3.62000018E-02   5.80282350E-13
  -3.61500010E-02   6.56424242E-13
  -3.61000001E-02   7.43578864E-13
  -3.60499993E-02   8.46027512E-13
  -3.59999985E-02   9.61213747E-13
  -3.59500013E-02   1.07972019E-12
  -3.59000005E-02   1.18855566E-12
  -3.58499996E-02   1.27654094E-12
  -3.57999988E-02   1.33943106E-12
  -3.57500017E-02   1.38225575E-12
  -3.57000008E-02   1.41740623E-12
  -3.56500000E-02   1.45889659E-12
  -3.55999991E-02   1.51516625E-12
  -3.55499983E-02   1.58381370E-12
  -3.55000012E-02   1.65109061E-12
  -3.54500003E-02   1.69695312E-12
  -3.53999995E-02   1.70380745E-12
  -3.53499986E-02   1.66509146E-12
  -3.53000015E-02   1.58952224E-12
  -3.52500007E-02   1.49852667E-12
  -3.51999998E-02   1.41738661E-12
  -3.51499990E-02   1.36369496E-12
  -3.51000018E-02   1.33837060E-12
  -3.50500010E-02   1.32380207E-12
  -3.50000001E-02   1.29074908E-12
  -3.49499993E-02   1.21157273E-12
  -3.48999985E-02   1.07405935E-12
  -3.48500013E-02   8.89242293E-13
  -3.48000005E-02   6.88892411E-13
  -3.47499996E-02   5.12916532E-13
  -3.46999988E-02   3.91754717E-13
  -3.46500017E-02   3.31685959E-13
  -3.46000008E-02   3.10253884E-13
  -3.45500000E-02   2.84859349E-13
  -3.44999991E-02   2.11625463E-13
  -3.44499983E-02   6.65404621E-14
  -3.44000012E-02  -1.40897778E-13
  -3.43500003E-02  -3.68630148E-13
  -3.42999995E-02  -5.58387700E-13
  -3.42499986E-02  -6.61033945E-13
  -3.42000015E-02  -6.59703412E-13
  -3.41500007E-02  -5.79700621E-13
  -3.40999998E-02  -4.79528852E-13
  -3.40499990E-02  -4.25874288E-13
  -3.40000018E-02  -4.63098201E-13
  -3.39500010E-02  -5.91115264E-13
  -3.39000002E-02  -7.62610407E-13
  -3.38499993E-02  -9.02290233E-13
  -3.37999985E-02  -9.40765044E-13
  -3.37500013E-02  -8.48251536E-13
  -3.37000005E-02  -6.52286439E-13
  -3.36499996E-02  -4.29989133E-13
  -3.35999988E-02  -2.76677688E-13
  -3.35500017E-02  -2.63867568E-13
  -3.35000008E-02  -4.05550973E-13
  -3.34500000E-02  -6.49040066E-13
  -3.33999991E-02  -8.96259737E-13
  -3.33499983E-02  -1.04755614E-12
  -3.33000012E-02  -1.04909419E-12
  -3.32500003E-02  -9.22033066E-13
  -3.31999995E-02  -7.58716007E-13
  -3.31499986E-02  -6.85491811E-13
  -3.31000015E-02  -8.07266038E-13
  -3.30500007E-02  -1.15835781E-12
  -3.29999998E-02  -1.68287357E-12
  -3.29499990E-02  -2.25554623E-12
  -3.29000019E-02  -2.73585538E-12
  -3.28500010E-02  -3.03234824E-12
  -3.28000002E-02  -3.14797364E-12
  -3.27499993E-02  -3.18431002E-12
  -3.26999985E-02  -3.30029992E-12
  -3.26500013E-02  -3.64186112E-12
  -3.26000005E-02  -4.27312005E-12
  -3.25499997E-02  -5.14103560E-12
  -3.24999988E-02  -6.09158600E-12
  -3.24500017E-02  -6.93295811E-12
  -3.24000008E-02  -7.51927427E-12
  -3.23500000E-02  -7.81745502E-12
  -3.22999991E-02  -7.92557166E-12
  -3.22499983E-02  -8.03170724E-12
  -3.22000012E-02  -8.32915334E-12
  -3.21500003E-02  -8.92470993E-12
  -3.20999995E-02  -9.78188103E-12
  -3.20499986E-02  -1.07268829E-11
  -3.20000015E-02  -1.15178761E-11
  -3.19500007E-02  -1.19488785E-11
  -3.18999998E-02  -1.19424444E-11
  -3.18499990E-02  -1.15880916E-11
  -3.18000019E-02  -1.11062071E-11
  -3.17500010E-02  -1.07503789E-11
  -3.17000002E-02  -1.06899394E-11
  -3.16499993E-02  -1.09256198E-11
  -3.15999985E-02  -1.12785432E-11
  -3.15500014E-02  -1.14610830E-11
  -3.15000005E-02  -1.12009881E-11
  -3.14499997E-02  -1.03644975E-11
  -3.13999988E-02  -9.02210771E-12
  -3.13500017E-02  -7.42437622E-12
  -3.13000008E-02  -5.89478683E-12
  -3.12500000E-02  -4.68494037E-12
  -3.11999992E-02  -3.85654616E-12
  -3.11500002E-02  -3.24534280E-12
  -3.10999993E-02  -2.52707404E-12
  -3.10500003E-02  -1.35997236E-12
  -3.09999995E-02   4.57852940E-13
  -3.09500005E-02   2.88720523E-12
  -3.08999997E-02   5.65131015E-12
  -3.08500007E-02   8.34695594E-12
  -3.07999998E-02   1.06172553E-11
  -3.07500008E-02   1.23100783E-11
  -3.07000000E-02   1.35496067E-11
  -3.06499992E-02   1.46850431E-11
  -3.06000002E-02   1.61348730E-11
  -3.05499993E-02   1.81932681E-11
  -3.05000003E-02   2.08850454E-11
  -3.04499995E-02   2.39368490E-11
  -3.04000005E-02   2.68822482E-11
  -3.03499997E-02   2.92581445E-11
  -3.03000007E-02   3.08070028E-11
  -3.02499998E-02   3.15933460E-11
  -3.02000009E-02   3.19784754E-11
  -3.01500000E-02   3.24596461E-11
  -3.00999992E-02   3.34415932E-11
  -3.00500002E-02   3.50415703E-11
  -2.99999993E-02   3.70174516E-11
  -2.99500003E-02   3.88560434E-11
  -2.98999995E-02   3.99874196E-11
  -2.98500005E-02   4.00329596E-11
  -2.97999997E-02   3.89761105E-11
  -2.97500007E-02   3.71760088E-11
  -2.96999998E-02   3.52123851E-11
  -2.96500009E-02   3.36260603E-11
  -2.96000000E-02   3.26688572E-11
  -2.95499992E-02   3.21764768E-11
  -2.95000002E-02   3.16260559E-11
  -2.94499993E-02   3.03587190E-11
  -2.94000003E-02   2.78720814E-11
  -2.93499995E-02   2.40529090E-11
  -2.93000005E-02   1.92428348E-11
  -2.92499997E-02   1.41019106E-11
  -2.92000007E-02   9.32483778E-12
  -2.91499998E-02   5.33307036E-12
  -2.91000009E-02   2.08088516E-12
  -2.90500000E-02  -9.33312564E-13
  -2.89999992E-02  -4.44881371E-12
  -2.89500002E-02  -9.10918736E-12
  -2.88999993E-02  -1.51602012E-11
  -2.88500004E-02  -2.23161524E-11
  -2.87999995E-02  -2.98600589E-11
  -2.87500005E-02  -3.69397672E-11
  -2.86999997E-02  -4.29326644E-11
  -2.86500007E-02  -4.77169554E-11
  -2.85999998E-02  -5.17246732E-11
  -2.85500009E-02  -5.57460883E-11
  -2.85000000E-02  -6.05661840E-11
  -2.84499992E-02  -6.65918015E-11
  -2.84000002E-02  -7.36371103E-11
  -2.83499993E-02  -8.09686693E-11
  -2.83000004E-02  -8.75974987E-11
  -2.82499995E-02  -9.26942204E-11
  -2.82000005E-02  -9.59439889E-11
  -2.81499997E-02  -9.76802667E-11
  -2.81000007E-02  -9.87310719E-11
  -2.80499998E-02  -1.00039033E-10
  -2.80000009E-02  -1.02219726E-10
  -2.79500000E-02  -1.05255311E-10
  -2.78999992E-02  -1.08464841E-10
  -2.78500002E-02  -1.10772315E-10
  -2.77999993E-02  -1.11160366E-10
  -2.77500004E-02  -1.09110845E-10
  -2.76999995E-02  -1.04834107E-10
  -2.76500005E-02  -9.91784016E-11
  -2.75999997E-02  -9.32517535E-11
  -2.75500007E-02  -8.79186585E-11
  -2.74999999E-02  -8.33947772E-11
  -2.74500009E-02  -7.91243807E-11
  -2.74000000E-02  -7.40033035E-11
  -2.73499992E-02  -6.68565273E-11
  -2.73000002E-02  -5.69627505E-11
  -2.72499993E-02  -4.43924134E-11
  -2.72000004E-02  -3.00021952E-11
  -2.71499995E-02  -1.50805791E-11
  -2.71000005E-02  -7.94038500E-13
  -2.70499997E-02   1.23221763E-11
  -2.70000007E-02   2.45994700E-11
  -2.69499999E-02   3.70847346E-11
  -2.69000009E-02   5.10613322E-11
  -2.68500000E-02   6.74486300E-11
  -2.67999992E-02   8.63469088E-11
  -2.67500002E-02   1.06934586E-10
  -2.66999993E-02   1.27772445E-10
  -2.66500004E-02   1.47387949E-10
  -2.65999995E-02   1.64884453E-10
  -2.65500005E-02   1.80303369E-10
  -2.64999997E-02   1.94570277E-10
  -2.64500007E-02   2.09040826E-10
  -2.63999999E-02   2.24840285E-10
  -2.63500009E-02   2.42287829E-10
  -2.63000000E-02   2.60666183E-10
  -2.62499992E-02   2.78446655E-10
  -2.62000002E-02   2.93879671E-10
  -2.61499994E-02   3.05693193E-10
  -2.61000004E-02   3.13590293E-10
  -2.60499995E-02   3.18317622E-10
  -2.60000005E-02   3.21265875E-10
  -2.59499997E-02   3.23771565E-10
  -2.59000007E-02   3.26427690E-10
  -2.58499999E-02   3.28711502E-10
  -2.58000009E-02   3.29102828E-10
  -2.57500000E-02   3.25651867E-10
  -2.56999992E-02   3.16750126E-10
  -2.56500002E-02   3.01763781E-10
  -2.55999994E-02   2.81244666E-10
  -2.55500004E-02   2.56613314E-10
  -2.54999995E-02   2.29448530E-10
  -2.54500005E-02   2.00692810E-10
  -2.53999997E-02   1.70127204E-10
  -2.53500007E-02   1.36357065E-10
  -2.52999999E-02   9.73237463E-11
  -2.52500009E-02   5.11253782E-11
  -2.52000000E-02  -3.21704534E-12
  -2.51499992E-02  -6.53887847E-11
  -2.51000002E-02  -1.33981756E-10
  -2.50499994E-02  -2.07183631E-10
  -2.50000004E-02  -2.83658541E-10
  -2.49499995E-02  -3.63227753E-10
  -2.49000005E-02  -4.47040183E-10
  -2.48499997E-02  -5.37151157E-10
  -2.48000007E-02  -6.35684227E-10
  -2.47499999E-02  -7.43946238E-10
  -2.47000009E-02  -8.61885674E-10
  -2.46500000E-02  -9.88149673E-10
  -2.45999992E-02  -1.12071596E-09
  -2.45500002E-02  -1.25783173E-09
  -2.44999994E-02  -1.39884515E-09
  -2.44500004E-02  -1.54455171E-09
  -2.43999995E-02  -1.69689873E-09
  -2.43500005E-02  -1.85816695E-09
  -2.42999997E-02  -2.02998818E-09
  -2.42500007E-02  -2.21263630E-09
  -2.41999999E-02  -2.40490916E-09
  -2.41500009E-02  -2.60466715E-09
  -2.41000000E-02  -2.80979506E-09
  -2.40499992E-02  -3.01916359E-09
  -2.40000002E-02  -3.23316174E-09
  -2.39499994E-02  -3.45355411E-09
  -2.39000004E-02  -3.68272168E-09
  -2.38499995E-02  -3.92261468E-09
  -2.38000005E-02  -4.17387946E-09
  -2.37499997E-02  -4.43555548E-09
  -2.37000007E-02  -4.70548445E-09
  -2.36499999E-02  -4.98125718E-09
  -2.36000009E-02  -5.26128652E-09
  -2.35500000E-02  -5.54552182E-09
  -2.34999992E-02  -5.83549342E-09
  -2.34500002E-02  -6.13364604E-09
  -2.33999994E-02  -6.44225917E-09
  -2.33500004E-02  -6.76243417E-09
  -2.32999995E-02  -7.09358794E-09
  -2.32500006E-02  -7.43369988E-09
  -2.31999997E-02  -7.78020226E-09
  -2.31500007E-02  -8.13112777E-09
  -2.30999999E-02  -8.48600390E-09
  -2.30500009E-02  -8.84609364E-09
  -2.30000000E-02  -9.21386700E-09
  -2.29499992E-02  -9.59193880E-09
  -2.29000002E-02  -9.98192728E-09
  -2.28499994E-02  -1.03837525E-08
  -2.28000004E-02  -1.07956861E-08
  -2.27499995E-02  -1.12151506E-08
  -2.27000006E-02  -1.16398864E-08
  -2.26499997E-02  -1.20690204E-08
  -2.26000007E-02  -1.25035120E-08
  -2.25499999E-02  -1.29457955E-08
  -2.25000009E-02  -1.33987808E-08
  -2.24500000E-02  -1.38646286E-08
  -2.23999992E-02  -1.43438568E-08
  -2.23500002E-02  -1.48351855E-08
  -2.22999994E-02  -1.53361839E-08
  -2.22500004E-02  -1.58444315E-08
  -2.21999995E-02  -1.63587242E-08
  -2.21500006E-02  -1.68797030E-08
  -2.20999997E-02  -1.74097217E-08
  -2.20500007E-02  -1.79519386E-08
  -2.19999999E-02  -1.85090503E-08
  -2.19500009E-02  -1.90822309E-08
  -2.19000001E-02  -1.96707557E-08
  -2.18499992E-02  -2.02724735E-08
  -2.18000002E-02  -2.08849116E-08
  -2.17499994E-02  -2.15065565E-08
  -2.17000004E-02  -2.21377086E-08
  -2.16499995E-02  -2.27805490E-08
  -2.16000006E-02  -2.34383837E-08
  -2.15499997E-02  -2.41143709E-08
  -2.15000007E-02  -2.48103529E-08
  -2.14499999E-02  -2.55262247E-08
  -2.14000009E-02  -2.62602242E-08
  -2.13500001E-02  -2.70099374E-08
  -2.12999992E-02  -2.77736074E-08
  -2.12500002E-02  -2.85511810E-08
  -2.11999994E-02  -2.93445943E-08
  -2.11500004E-02  -3.01572030E-08
  -2.10999995E-02  -3.09925667E-08
  -2.10500006E-02  -3.18531583E-08
  -2.09999997E-02  -3.27395675E-08
  -2.09500007E-02  -3.36505188E-08
  -2.08999999E-02  -3.45837670E-08
  -2.08500009E-02  -3.55373686E-08
  -2.08000001E-02  -3.65109116E-08
  -2.07499992E-02  -3.75059841E-08
  -2.07000002E-02  -3.85258581E-08
  -2.06499994E-02  -3.95743562E-08
  -2.06000004E-02  -4.06545269E-08
  -2.05499995E-02  -4.17676631E-08
  -2.05000006E-02  -4.29130971E-08
  -2.04499997E-02  -4.40888677E-08
  -2.04000007E-02  -4.52929960E-08
  -2.03499999E-02  -4.65247503E-08
  -2.03000009E-02  -4.77854023E-08
  -2.02500001E-02  -4.90780536E-08
  -2.01999992E-02  -5.04067117E-08
  -2.01500002E-02  -5.17749505E-08
  -2.00999994E-02  -5.31847668E-08
  -2.00500004E-02  -5.46361782E-08
  -1.99999996E-02  -5.61276501E-08
  -1.99500006E-02  -5.76572852E-08
  -1.98999997E-02  -5.92241278E-08
  -1.98500007E-02  -6.08291089E-08
  -1.97999999E-02  -6.24751095E-08
  -1.97500009E-02  -6.41662226E-08
  -1.97000001E-02  -6.59064767E-08
  -1.96499992E-02  -6.76985792E-08
  -1.96000002E-02  -6.95432760E-08
  -1.95499994E-02  -7.14396080E-08
  -1.95000004E-02  -7.33858911E-08
  -1.94499996E-02  -7.53810951E-08
  -1.94000006E-02  -7.74258595E-08
  -1.93499997E-02  -7.95228488E-08
  -1.93000007E-02  -8.16761485E-08
  -1.92499999E-02  -8.38901855E-08
  -1.92000009E-02  -8.61683489E-08
  -1.91500001E-02  -8.85122020E-08
  -1.90999992E-02  -9.09214677E-08
  -1.90500002E-02  -9.33948741E-08
  -1.89999994E-02  -9.59314121E-08
  -1.89500004E-02  -9.85315154E-08
  -1.88999996E-02  -1.01197593E-07
  -1.88500006E-02  -1.03933729E-07
  -1.87999997E-02  -1.06744608E-07
  -1.87500007E-02  -1.09634279E-07
  -1.86999999E-02  -1.12605115E-07
  -1.86500009E-02  -1.15657635E-07
  -1.86000001E-02  -1.18791156E-07
  -1.85499992E-02  -1.22004877E-07
  -1.85000002E-02  -1.25299181E-07
  -1.84499994E-02  -1.28676206E-07
  -1.84000004E-02  -1.32140002E-07
  -1.83499996E-02  -1.35695458E-07
  -1.83000006E-02  -1.39347179E-07
  -1.82499997E-02  -1.43098404E-07
  -1.82000007E-02  -1.46950541E-07
  -1.81499999E-02  -1.50903546E-07
  -1.81000009E-02  -1.54957092E-07
  -1.80500001E-02  -1.59111536E-07
  -1.79999992E-02  -1.63368995E-07
  -1.79500002E-02  -1.67733376E-07
  -1.78999994E-02  -1.72209710E-07
  -1.78500004E-02  -1.76803084E-07
  -1.77999996E-02  -1.81517578E-07
  -1.77500006E-02  -1.86355464E-07
  -1.76999997E-02  -1.91317554E-07
  -1.76500008E-02  -1.96403931E-07
  -1.75999999E-02  -2.01615237E-07
  -1.75500009E-02  -2.06953459E-07
  -1.75000001E-02  -2.12422464E-07
  -1.74499992E-02  -2.18027353E-07
  -1.74000002E-02  -2.23773611E-07
  -1.73499994E-02  -2.29666043E-07
  -1.73000004E-02  -2.35707915E-07
  -1.72499996E-02  -2.41900949E-07
  -1.72000006E-02  -2.48245954E-07
  -1.71499997E-02  -2.54743810E-07
  -1.71000008E-02  -2.61396650E-07
  -1.70499999E-02  -2.68208254E-07
  -1.70000009E-02  -2.75183794E-07
  -1.69500001E-02  -2.82329069E-07
  -1.68999992E-02  -2.89649535E-07
  -1.68500002E-02  -2.97149370E-07
  -1.67999994E-02  -3.04831190E-07
  -1.67500004E-02  -3.12696585E-07
  -1.66999996E-02  -3.20747034E-07
  -1.66500006E-02  -3.28984811E-07
  -1.65999997E-02  -3.37413667E-07
  -1.65500008E-02  -3.46038803E-07
  -1.64999999E-02  -3.54866359E-07
  -1.64500009E-02  -3.63902302E-07
  -1.64000001E-02  -3.73151636E-07
  -1.63499992E-02  -3.82618055E-07
  -1.63000003E-02  -3.92304031E-07
  -1.62499994E-02  -4.02211782E-07
  -1.62000004E-02  -4.12343951E-07
  -1.61499996E-02  -4.22704403E-07
  -1.61000006E-02  -4.33298453E-07
  -1.60499997E-02  -4.44132326E-07
  -1.60000008E-02  -4.55212614E-07
  -1.59499999E-02  -4.66544918E-07
  -1.59000009E-02  -4.78134098E-07
  -1.58500001E-02  -4.89983677E-07
  -1.57999992E-02  -5.02096725E-07
  -1.57500003E-02  -5.14476312E-07
  -1.56999994E-02  -5.27126645E-07
  -1.56500004E-02  -5.40053236E-07
  -1.55999996E-02  -5.53262510E-07
  -1.55499997E-02  -5.66761344E-07
  -1.54999997E-02  -5.80556446E-07
  -1.54499998E-02  -5.94653386E-07
  -1.53999999E-02  -6.09056997E-07
  -1.53500000E-02  -6.23771200E-07
  -1.53000001E-02  -6.38800032E-07
  -1.52500002E-02  -6.54147982E-07
  -1.52000003E-02  -6.69820793E-07
  -1.51500003E-02  -6.85825114E-07
  -1.51000004E-02  -7.02168336E-07
  -1.50499996E-02  -7.18857791E-07
  -1.49999997E-02  -7.35900187E-07
  -1.49499997E-02  -7.53301549E-07
  -1.48999998E-02  -7.71066823E-07
  -1.48499999E-02  -7.89200953E-07
  -1.48000000E-02  -8.07709057E-07
  -1.47500001E-02  -8.26597272E-07
  -1.47000002E-02  -8.45872762E-07
  -1.46500003E-02  -8.65543427E-07
  -1.46000003E-02  -8.85617055E-07
  -1.45500004E-02  -9.06101263E-07
  -1.44999996E-02  -9.27003157E-07
  -1.44499997E-02  -9.48329216E-07
  -1.43999998E-02  -9.70084898E-07
  -1.43499998E-02  -9.92276568E-07
  -1.42999999E-02  -1.01491059E-06
  -1.42500000E-02  -1.03799471E-06
  -1.42000001E-02  -1.06153720E-06
  -1.41500002E-02  -1.08554673E-06
  -1.41000003E-02  -1.11003180E-06
  -1.40500003E-02  -1.13500039E-06
  -1.40000004E-02  -1.16046022E-06
  -1.39499996E-02  -1.18641833E-06
  -1.38999997E-02  -1.21288122E-06
  -1.38499998E-02  -1.23985672E-06
  -1.37999998E-02  -1.26735245E-06
  -1.37499999E-02  -1.29537761E-06
  -1.37000000E-02  -1.32394132E-06
  -1.36500001E-02  -1.35305288E-06
  -1.36000002E-02  -1.38272151E-06
  -1.35500003E-02  -1.41295584E-06
  -1.35000004E-02  -1.44376440E-06
  -1.34500004E-02  -1.47515493E-06
  -1.33999996E-02  -1.50713561E-06
  -1.33499997E-02  -1.53971496E-06
  -1.32999998E-02  -1.57290208E-06
  -1.32499998E-02  -1.60670686E-06
  -1.31999999E-02  -1.64113953E-06
  -1.31500000E-02  -1.67621045E-06
  -1.31000001E-02  -1.71192949E-06
  -1.30500002E-02  -1.74830598E-06
  -1.30000003E-02  -1.78534913E-06
  -1.29500004E-02  -1.82306815E-06
  -1.29000004E-02  -1.86147167E-06
  -1.28499996E-02  -1.90056915E-06
  -1.27999997E-02  -1.94037170E-06
  -1.27499998E-02  -1.98088924E-06
  -1.26999998E-02  -2.02213346E-06
  -1.26499999E-02  -2.06411528E-06
  -1.26000000E-02  -2.10684561E-06
  -1.25500001E-02  -2.15033424E-06
  -1.25000002E-02  -2.19459139E-06
  -1.24500003E-02  -2.23962616E-06
  -1.24000004E-02  -2.28544923E-06
  -1.23500004E-02  -2.33207061E-06
  -1.22999996E-02  -2.37950212E-06
  -1.22499997E-02  -2.42775513E-06
  -1.21999998E-02  -2.47684125E-06
  -1.21499998E-02  -2.52677251E-06
  -1.20999999E-02  -2.57756028E-06
  -1.20500000E-02  -2.62921571E-06
  -1.20000001E-02  -2.68174813E-06
  -1.19500002E-02  -2.73516821E-06
  -1.19000003E-02  -2.78948642E-06
  -1.18500004E-02  -2.84471389E-06
  -1.18000004E-02  -2.90086359E-06
  -1.17499996E-02  -2.95794825E-06
  -1.16999997E-02  -3.01598084E-06
  -1.16499998E-02  -3.07497339E-06
  -1.15999999E-02  -3.13493706E-06
  -1.15499999E-02  -3.19588207E-06
  -1.15000000E-02  -3.25781843E-06
  -1.14500001E-02  -3.32075729E-06
  -1.14000002E-02  -3.38470977E-06
  -1.13500003E-02  -3.44968817E-06
  -1.13000004E-02  -3.51570588E-06
  -1.12500004E-02  -3.58277612E-06
  -1.11999996E-02  -3.65091114E-06
  -1.11499997E-02  -3.72012278E-06
  -1.10999998E-02  -3.79042103E-06
  -1.10499999E-02  -3.86181682E-06
  -1.09999999E-02  -3.93432083E-06
  -1.09500000E-02  -4.00794261E-06
  -1.09000001E-02  -4.08269580E-06
  -1.08500002E-02  -4.15859267E-06
  -1.08000003E-02  -4.23564597E-06
  -1.07500004E-02  -4.31386979E-06
  -1.07000005E-02  -4.39327596E-06
  -1.06499996E-02  -4.47387538E-06
  -1.05999997E-02  -4.55567806E-06
  -1.05499998E-02  -4.63869310E-06
  -1.04999999E-02  -4.72292959E-06
  -1.04499999E-02  -4.80839890E-06
  -1.04000000E-02  -4.89511285E-06
  -1.03500001E-02  -4.98308418E-06
  -1.03000002E-02  -5.07232699E-06
  -1.02500003E-02  -5.16285172E-06
  -1.02000004E-02  -5.25466885E-06
  -1.01500005E-02  -5.34778746E-06
  -1.00999996E-02  -5.44221439E-06
  -1.00499997E-02  -5.53795826E-06
  -9.99999978E-03  -5.63502908E-06
  -9.94999986E-03  -5.73343732E-06
  -9.89999995E-03  -5.83319525E-06
  -9.85000003E-03  -5.93431514E-06
  -9.80000012E-03  -6.03680701E-06
  -9.75000020E-03  -6.14067994E-06
  -9.70000029E-03  -6.24594213E-06
  -9.65000037E-03  -6.35259948E-06
  -9.60000046E-03  -6.46065700E-06
  -9.54999961E-03  -6.57012333E-06
  -9.49999969E-03  -6.68100665E-06
  -9.44999978E-03  -6.79331833E-06
  -9.39999986E-03  -6.90706793E-06
  -9.34999995E-03  -7.02226453E-06
  -9.30000003E-03  -7.13891586E-06
  -9.25000012E-03  -7.25702466E-06
  -9.20000020E-03  -7.37659457E-06
  -9.15000029E-03  -7.49762921E-06
  -9.10000037E-03  -7.62013224E-06
  -9.05000046E-03  -7.74410910E-06
  -8.99999961E-03  -7.86956934E-06
  -8.94999970E-03  -7.99652025E-06
  -8.89999978E-03  -8.12496819E-06
  -8.84999987E-03  -8.25491770E-06
  -8.79999995E-03  -8.38636879E-06
  -8.75000004E-03  -8.51932055E-06
  -8.70000012E-03  -8.65377388E-06
  -8.65000021E-03  -8.78972878E-06
  -8.60000029E-03  -8.92718799E-06
  -8.55000038E-03  -9.06615605E-06
  -8.50000046E-03  -9.20663933E-06
  -8.44999962E-03  -9.34863965E-06
  -8.39999970E-03  -9.49215610E-06
  -8.34999979E-03  -9.63718685E-06
  -8.29999987E-03  -9.78372736E-06
  -8.24999996E-03  -9.93177127E-06
  -8.20000004E-03  -1.00813140E-05
  -8.15000013E-03  -1.02323520E-05
  -8.10000021E-03  -1.03848852E-05
  -8.05000030E-03  -1.05389145E-05
  -8.00000038E-03  -1.06944362E-05
  -7.95000046E-03  -1.08514505E-05
  -7.89999962E-03  -1.10099445E-05
  -7.84999970E-03  -1.11699128E-05
  -7.79999979E-03  -1.13313390E-05
  -7.74999987E-03  -1.14942140E-05
  -7.69999996E-03  -1.16585288E-05
  -7.65000004E-03  -1.18242770E-05
  -7.60000013E-03  -1.19914521E-05
  -7.55000021E-03  -1.21600488E-05
  -7.49999983E-03  -1.23300579E-05
  -7.44999992E-03  -1.25014649E-05
  -7.40000000E-03  -1.26742543E-05
  -7.35000009E-03  -1.28484044E-05
  -7.30000017E-03  -1.30238968E-05
  -7.24999979E-03  -1.32007153E-05
  -7.19999988E-03  -1.33788453E-05
  -7.14999996E-03  -1.35582750E-05
  -7.10000005E-03  -1.37389898E-05
  -7.05000013E-03  -1.39209751E-05
  -7.00000022E-03  -1.41042101E-05
  -6.94999984E-03  -1.42886684E-05
  -6.89999992E-03  -1.44743217E-05
  -6.85000001E-03  -1.46611437E-05
  -6.80000009E-03  -1.48491072E-05
  -6.75000018E-03  -1.50381884E-05
  -6.69999979E-03  -1.52283665E-05
  -6.64999988E-03  -1.54196205E-05
  -6.59999996E-03  -1.56119258E-05
  -6.55000005E-03  -1.58052535E-05
  -6.50000013E-03  -1.59995707E-05
  -6.45000022E-03  -1.61948374E-05
  -6.39999984E-03  -1.63910154E-05
  -6.34999992E-03  -1.65880665E-05
  -6.30000001E-03  -1.67859598E-05
  -6.25000009E-03  -1.69846626E-05
  -6.20000018E-03  -1.71841475E-05
  -6.14999980E-03  -1.73843764E-05
  -6.09999988E-03  -1.75853111E-05
  -6.04999997E-03  -1.77869078E-05
  -6.00000005E-03  -1.79891158E-05
  -5.95000014E-03  -1.81918840E-05
  -5.90000022E-03  -1.83951652E-05
  -5.84999984E-03  -1.85989084E-05
  -5.79999993E-03  -1.88030790E-05
  -5.75000001E-03  -1.90076298E-05
  -5.70000010E-03  -1.92125153E-05
  -5.65000018E-03  -1.94176846E-05
  -5.59999980E-03  -1.96230831E-05
  -5.54999989E-03  -1.98286471E-05
  -5.49999997E-03  -2.00343093E-05
  -5.45000006E-03  -2.02400097E-05
  -5.40000014E-03  -2.04456828E-05
  -5.35000023E-03  -2.06512777E-05
  -5.29999984E-03  -2.08567417E-05
  -5.24999993E-03  -2.10620128E-05
  -5.20000001E-03  -2.12670329E-05
  -5.15000010E-03  -2.14717238E-05
  -5.10000018E-03  -2.16760145E-05
  -5.04999980E-03  -2.18798232E-05
  -4.99999989E-03  -2.20830716E-05
  -4.94999997E-03  -2.22856816E-05
  -4.90000006E-03  -2.24875839E-05
  -4.85000014E-03  -2.26887096E-05
  -4.80000023E-03  -2.28889876E-05
  -4.74999985E-03  -2.30883379E-05
  -4.69999993E-03  -2.32866751E-05
  -4.65000002E-03  -2.34839063E-05
  -4.60000010E-03  -2.36799351E-05
  -4.55000019E-03  -2.38746634E-05
  -4.49999981E-03  -2.40679929E-05
  -4.44999989E-03  -2.42598417E-05
  -4.39999998E-03  -2.44501207E-05
  -4.35000006E-03  -2.46387463E-05
  -4.30000015E-03  -2.48256256E-05
  -4.25000023E-03  -2.50106605E-05
  -4.19999985E-03  -2.51937308E-05
  -4.14999994E-03  -2.53747221E-05
  -4.10000002E-03  -2.55535215E-05
  -4.05000011E-03  -2.57300180E-05
  -4.00000019E-03  -2.59041026E-05
  -3.94999981E-03  -2.60756733E-05
  -3.89999989E-03  -2.62446247E-05
  -3.84999998E-03  -2.64108512E-05
  -3.80000006E-03  -2.65742274E-05
  -3.74999992E-03  -2.67346313E-05
  -3.70000000E-03  -2.68919212E-05
  -3.65000009E-03  -2.70459677E-05
  -3.59999994E-03  -2.71966346E-05
  -3.55000002E-03  -2.73437890E-05
  -3.50000011E-03  -2.74873128E-05
  -3.44999996E-03  -2.76270785E-05
  -3.40000005E-03  -2.77629661E-05
  -3.34999990E-03  -2.78948373E-05
  -3.29999998E-03  -2.80225431E-05
  -3.25000007E-03  -2.81459306E-05
  -3.19999992E-03  -2.82648398E-05
  -3.15000000E-03  -2.83791142E-05
  -3.10000009E-03  -2.84886009E-05
  -3.04999994E-03  -2.85931601E-05
  -3.00000003E-03  -2.86926443E-05
  -2.95000011E-03  -2.87869134E-05
  -2.89999996E-03  -2.88758129E-05
  -2.85000005E-03  -2.89591735E-05
  -2.79999990E-03  -2.90368225E-05
  -2.74999999E-03  -2.91085744E-05
  -2.70000007E-03  -2.91742617E-05
  -2.64999992E-03  -2.92337063E-05
  -2.60000001E-03  -2.92867444E-05
  -2.55000009E-03  -2.93332087E-05
  -2.49999994E-03  -2.93729336E-05
  -2.45000003E-03  -2.94057427E-05
  -2.40000011E-03  -2.94314523E-05
  -2.34999997E-03  -2.94498659E-05
  -2.30000005E-03  -2.94607871E-05
  -2.24999990E-03  -2.94640085E-05
  -2.19999999E-03  -2.94593392E-05
  -2.15000007E-03  -2.94465863E-05
  -2.09999993E-03  -2.94255697E-05
  -2.05000001E-03  -2.93961002E-05
  -2.00000009E-03  -2.93579869E-05
  -1.94999995E-03  -2.93110206E-05
  -1.90000003E-03  -2.92549885E-05
  -1.85000000E-03  -2.91896686E-05
  -1.79999997E-03  -2.91148408E-05
  -1.75000005E-03  -2.90302833E-05
  -1.70000002E-03  -2.89357868E-05
  -1.64999999E-03  -2.88311421E-05
  -1.59999996E-03  -2.87161438E-05
  -1.55000004E-03  -2.85905808E-05
  -1.50000001E-03  -2.84542293E-05
  -1.44999998E-03  -2.83068548E-05
  -1.39999995E-03  -2.81482135E-05
  -1.35000004E-03  -2.79780706E-05
  -1.30000000E-03  -2.77961772E-05
  -1.24999997E-03  -2.76023056E-05
  -1.20000006E-03  -2.73962196E-05
  -1.15000003E-03  -2.71776971E-05
  -1.09999999E-03  -2.69465072E-05
  -1.04999996E-03  -2.67024116E-05
  -1.00000005E-03  -2.64451610E-05
  -9.50000016E-04  -2.61744972E-05
  -8.99999985E-04  -2.58901546E-05
  -8.50000011E-04  -2.55918749E-05
  -7.99999980E-04  -2.52794016E-05
  -7.50000007E-04  -2.49524855E-05
  -6.99999975E-04  -2.46108866E-05
  -6.50000002E-04  -2.42543556E-05
  -6.00000028E-04  -2.38826415E-05
  -5.49999997E-04  -2.34954750E-05
  -5.00000024E-04  -2.30925834E-05
  -4.49999992E-04  -2.26736865E-05
  -3.99999990E-04  -2.22385061E-05
  -3.49999988E-04  -2.17867691E-05
  -3.00000014E-04  -2.13182175E-05
  -2.50000012E-04  -2.08325891E-05
  -1.99999995E-04  -2.03296240E-05
  -1.50000007E-04  -1.98090529E-05
  -9.99999975E-05  -1.92706011E-05
  -4.99999987E-05  -1.87139831E-05
   0.00000000      -1.81389059E-05
   4.99999987E-05  -1.75450714E-05
   9.99999975E-05  -1.69321975E-05
   1.50000007E-04  -1.63000059E-05
   1.99999995E-04  -1.56482220E-05
   2.50000012E-04  -1.49765801E-05
   3.00000014E-04  -1.42848039E-05
   3.49999988E-04  -1.35726104E-05
   3.99999990E-04  -1.28396996E-05
   4.49999992E-04  -1.20857740E-05
   5.00000024E-04  -1.13105243E-05
   5.49999997E-04  -1.05136587E-05
   6.00000028E-04  -9.69488519E-06
   6.50000002E-04  -8.85392910E-06
   6.99999975E-04  -7.99051486E-06
   7.50000007E-04  -7.10436689E-06
   7.99999980E-04  -6.19520188E-06
   8.50000011E-04  -5.26272561E-06
   8.99999985E-04  -4.30662885E-06
   9.50000016E-04  -3.32660397E-06
   1.00000005E-03  -2.32233742E-06
   1.04999996E-03  -1.29354146E-06
   1.09999999E-03  -2.39922628E-07
   1.15000003E-03   8.38782341E-07
   1.20000006E-03   1.94284826E-06
   1.24999997E-03   3.07254345E-06
   1.30000000E-03   4.22817675E-06
   1.35000004E-03   5.41003692E-06
   1.39999995E-03   6.61844160E-06
   1.44999998E-03   7.85370503E-06
   1.50000001E-03   9.11612551E-06
   1.55000004E-03   1.04059700E-05
   1.59999996E-03   1.17235104E-05
   1.64999999E-03   1.30690159E-05
   1.70000002E-03   1.44427449E-05
   1.75000005E-03   1.58449748E-05
   1.79999997E-03   1.72759992E-05
   1.85000000E-03   1.87361184E-05
   1.90000003E-03   2.02256433E-05
   1.94999995E-03   2.17448633E-05
   2.00000009E-03   2.32940565E-05
   2.05000001E-03   2.48734705E-05
   2.09999993E-03   2.64833452E-05
   2.15000007E-03   2.81239354E-05
   2.19999999E-03   2.97954903E-05
   2.24999990E-03   3.14982753E-05
   2.30000005E-03   3.32325799E-05
   2.34999997E-03   3.49986949E-05
   2.40000011E-03   3.67969078E-05
   2.45000003E-03   3.86274733E-05
   2.49999994E-03   4.04906350E-05
   2.55000009E-03   4.23866004E-05
   2.60000001E-03   4.43155841E-05
   2.64999992E-03   4.62778080E-05
   2.70000007E-03   4.82735304E-05
   2.74999999E-03   5.03030096E-05
   2.79999990E-03   5.23665221E-05