  -3.99999991E-02   0.00000000    
  -3.99499983E-02   0.00000000    
  -3.99000011E-02   0.00000000    
  -3.98500003E-02  -6.09324797E-15
  -3.97999994E-02  -4.93727035E-14
  -3.97499986E-02  -2.07879097E-13
  -3.97000015E-02  -6.02700290E-13
  -3.96500006E-02  -1.34054345E-12
  -3.95999998E-02  -2.41314716E-12
  -3.95499989E-02  -3.61858330E-12
  -3.95000018E-02  -4.58873651E-12
  -3.94500010E-02  -4.95585734E-12
  -3.94000001E-02  -4.59354516E-12
  -3.93499993E-02  -3.79351281E-12
  -3.92999984E-02  -3.24523373E-12
  -3.92500013E-02  -3.77278851E-12
  -3.92000005E-02  -5.90941835E-12
  -3.91499996E-02  -9.50036837E-12
  -3.90999988E-02  -1.35648541E-11
  -3.90500017E-02  -1.65719695E-11
  -3.90000008E-02  -1.70876577E-11
  -3.89500000E-02  -1.45116592E-11
  -3.88999991E-02  -9.49841074E-12
  -3.88499983E-02  -3.76475370E-12
  -3.88000011E-02   6.98682323E-13
  -3.87500003E-02   2.65908259E-12
  -3.86999995E-02   2.40692926E-12
  -3.86499986E-02   1.85175139E-12
  -3.86000015E-02   3.84013221E-12
  -3.85500006E-02   1.09367211E-11
  -3.84999998E-02   2.41838997E-11
  -3.84499989E-02   4.24456616E-11
  -3.84000018E-02   6.27512417E-11
  -3.83500010E-02   8.15898252E-11
  -3.83000001E-02   9.65698493E-11
  -3.82499993E-02   1.07584518E-10
  -3.81999984E-02   1.16852417E-10
  -3.81500013E-02   1.27824654E-10
  -3.81000005E-02   1.43568199E-10
  -3.80499996E-02   1.65460270E-10
  -3.79999988E-02   1.92780139E-10
  -3.79500017E-02   2.23284655E-10
  -3.79000008E-02   2.54394783E-10
  -3.78500000E-02   2.84368862E-10
  -3.77999991E-02   3.12848220E-10
  -3.77499983E-02   3.40461548E-10
  -3.77000012E-02   3.67715774E-10
  -3.76500003E-02   3.93923838E-10
  -3.75999995E-02   4.17013535E-10
  -3.75499986E-02   4.34498604E-10
  -3.75000015E-02   4.44979720E-10
  -3.74500006E-02   4.48981990E-10
  -3.73999998E-02   4.48256404E-10
  -3.73499990E-02   4.43748177E-10
  -3.73000018E-02   4.33511976E-10
  -3.72500010E-02   4.12164858E-10
  -3.72000001E-02   3.72787162E-10
  -3.71499993E-02   3.10853870E-10
  -3.70999984E-02   2.28445832E-10
  -3.70500013E-02   1.36260697E-10
  -3.70000005E-02   5.13259678E-11
  -3.69499996E-02  -9.96447543E-12
  -3.68999988E-02  -4.12227960E-11
  -3.68500017E-02  -5.32853865E-11
  -3.68000008E-02  -7.44319884E-11
  -3.67500000E-02  -1.41377215E-10
  -3.66999991E-02  -2.83484541E-10
  -3.66499983E-02  -5.06980069E-10
  -3.66000012E-02  -7.87330923E-10
  -3.65500003E-02  -1.07521059E-09
  -3.64999995E-02  -1.31552513E-09
  -3.64499986E-02  -1.47238755E-09
  -3.64000015E-02  -1.54873681E-09
  -3.63500006E-02  -1.58987434E-09
  -3.62999998E-02  -1.66619796E-09
  -3.62499990E-02  -1.84006810E-09
  -3.62000018E-02  -2.13089990E-09
  -3.61500010E-02  -2.49618148E-09
  -3.61000001E-02  -2.84103807E-09
  -3.60499993E-02  -3.05628078E-09
  -3.59999985E-02  -3.07017545E-09
  -3.59500013E-02  -2.88992763E-09
  -3.59000005E-02  -2.61055488E-09
  -3.58499996E-02  -2.38181830E-09
  -3.57999988E-02  -2.34319675E-09
  -3.57500017E-02  -2.55396171E-09
  -3.57000008E-02  -2.95181302E-09
  -3.56500000E-02  -3.36457084E-09
  -3.55999991E-02  -3.57698560E-09
  -3.55499983E-02  -3.42776052E-09
  -3.55000012E-02  -2.89324631E-09
  -3.54500003E-02  -2.11478968E-09
  -3.53999995E-02  -1.34893663E-09
  -3.53499986E-02  -8.55185978E-10
  -3.53000015E-02  -7.68545116E-10
  -3.52500007E-02  -1.01726261E-09
  -3.51999998E-02  -1.33132105E-09
  -3.51499990E-02  -1.34876921E-09
  -3.51000018E-02  -7.80546683E-10
  -3.50500010E-02   4.38597381E-10
  -3.50000001E-02   2.08773354E-09
  -3.49499993E-02   3.72699027E-09
  -3.48999985E-02   4.87770047E-09
  -3.48500013E-02   5.24206323E-09
  -3.48000005E-02   4.86128870E-09
  -3.47499996E-02   4.12963663E-09
  -3.46999988E-02   3.64231867E-09
  -3.46500017E-02   3.93269284E-09
  -3.46000008E-02   5.21271470E-09
  -3.45500000E-02   7.24037541E-09
  -3.44999991E-02   9.38961531E-09
  -3.44499983E-02   1.09093401E-08
  -3.44000012E-02   1.12668586E-08
  -3.43500003E-02   1.04204547E-08
  -3.42999995E-02   8.88418850E-09
  -3.42499986E-02   7.53375939E-09
  -3.42000015E-02   7.22117832E-09
  -3.41500007E-02   8.36382785E-09
  -3.40999998E-02   1.07012408E-08
  -3.40499990E-02   1.33506735E-08
  -3.40000018E-02   1.51621844E-08
  -3.39500010E-02   1.52319082E-08
  -3.39000002E-02   1.33449607E-08
  -3.38499993E-02   1.01330029E-08
  -3.37999985E-02   6.84773660E-09
  -3.37500013E-02   4.82442353E-09
  -3.37000005E-02   4.86225682E-09
  -3.36499996E-02   6.80696566E-09
  -3.35999988E-02   9.54938884E-09
  -3.35500017E-02   1.14746914E-08
  -3.35000008E-02   1.11865521E-08
  -3.34500000E-02   8.18650836E-09
  -3.33999991E-02   3.18427040E-09
  -3.33499983E-02  -2.13647966E-09
  -3.33000012E-02  -5.82951953E-09
  -3.32500003E-02  -6.57775567E-09
  -3.31999995E-02  -4.36069314E-09
  -3.31499986E-02  -5.67514646E-10
  -3.31000015E-02   2.53962984E-09
  -3.30500007E-02   2.81039214E-09
  -3.29999998E-02  -7.87443555E-10
  -3.29499990E-02  -7.60798979E-09
  -3.29000019E-02  -1.55066306E-08
  -3.28500010E-02  -2.17268479E-08
  -3.28000002E-02  -2.41298856E-08
  -3.27499993E-02  -2.22177015E-08
  -3.26999985E-02  -1.74591701E-08
  -3.26500013E-02  -1.27221078E-08
  -3.26000005E-02  -1.10175788E-08
  -3.25499997E-02  -1.40968801E-08
  -3.24999988E-02  -2.15453486E-08
  -3.24500017E-02  -3.08271630E-08
  -3.24000008E-02  -3.83217120E-08
  -3.23500000E-02  -4.09328464E-08
  -3.22999991E-02  -3.75590474E-08
  -3.22499983E-02  -2.97322984E-08
  -3.22000012E-02  -2.10767670E-08
  -3.21500003E-02  -1.57654139E-08
  -3.20999995E-02  -1.66286593E-08
  -3.20499986E-02  -2.37699691E-08
  -3.20000015E-02  -3.43586031E-08
  -3.19500007E-02  -4.37635705E-08
  -3.18999998E-02  -4.75810786E-08
  -3.18499990E-02  -4.36688410E-08
  -3.18000019E-02  -3.32477263E-08
  -3.17500010E-02  -2.05100363E-08
  -3.17000002E-02  -1.08334541E-08
  -3.16499993E-02  -8.35002734E-09
  -3.15999985E-02  -1.39591263E-08
  -3.15500014E-02  -2.47272514E-08
  -3.15000005E-02  -3.50274938E-08
  -3.14499997E-02  -3.89867552E-08
  -3.13999988E-02  -3.31817063E-08
  -3.13500017E-02  -1.83536706E-08
  -3.13000008E-02   6.99133917E-10
  -3.12500000E-02   1.70972889E-08
  -3.11999992E-02   2.49117509E-08
  -3.11500002E-02   2.19126726E-08
  -3.10999993E-02   1.07601261E-08
  -3.10500003E-02  -1.98547756E-09
  -3.09999995E-02  -8.68481376E-09
  -3.09500005E-02  -4.06697431E-09
  -3.08999997E-02   1.22476678E-08
  -3.08500007E-02   3.53479450E-08
  -3.07999998E-02   5.70361500E-08
  -3.07500008E-02   6.94265054E-08
  -3.07000000E-02   6.85605812E-08
  -3.06499992E-02   5.63835982E-08
  -3.06000002E-02   4.01034832E-08
  -3.05499993E-02   2.91102502E-08
  -3.05000003E-02   3.07581232E-08
  -3.04499995E-02   4.68900687E-08
  -3.04000005E-02   7.27257827E-08
  -3.03499997E-02   9.87232056E-08
  -3.03000007E-02   1.14690899E-07
  -3.02499998E-02   1.14369918E-07
  -3.02000009E-02   9.84151569E-08
  -3.01500000E-02   7.43517390E-08
  -3.00999992E-02   5.34048290E-08
  -3.00500002E-02   4.55239295E-08
  -2.99999993E-02   5.47985053E-08
  -2.99500003E-02   7.73690161E-08
  -2.98999995E-02   1.02881124E-07
  -2.98500005E-02   1.18956343E-07
  -2.97999997E-02   1.16758237E-07
  -2.97500007E-02   9.51612762E-08
  -2.96999998E-02   6.15715123E-08
  -2.96500009E-02   2.88976878E-08
  -2.96000000E-02   9.90486360E-09
  -2.95499992E-02   1.14185266E-08
  -2.95000002E-02   3.10066142E-08
  -2.94499993E-02   5.77370862E-08
  -2.94000003E-02   7.68149988E-08
  -2.93499995E-02   7.61352368E-08
  -2.93000005E-02   5.18494545E-08
  -2.92499997E-02   1.03930979E-08
  -2.92000007E-02  -3.40641719E-08
  -2.91499998E-02  -6.57433432E-08
  -2.91000009E-02  -7.43034221E-08
  -2.90500000E-02  -5.96531393E-08
  -2.89999992E-02  -3.22780380E-08
  -2.89500002E-02  -8.79086937E-09
  -2.88999993E-02  -4.56583882E-09
  -2.88500004E-02  -2.66969575E-08
  -2.87999995E-02  -7.04768368E-08
  -2.87500005E-02  -1.21100001E-07
  -2.86999997E-02  -1.59985504E-07
  -2.86500007E-02  -1.73006313E-07
  -2.85999998E-02  -1.56969804E-07
  -2.85500009E-02  -1.21372267E-07
  -2.85000000E-02  -8.44941610E-08
  -2.84499992E-02  -6.54276988E-08
  -2.84000002E-02  -7.55086589E-08
  -2.83499993E-02  -1.12993831E-07
  -2.83000004E-02  -1.63472947E-07
  -2.82499995E-02  -2.05990546E-07
  -2.82000005E-02  -2.22279269E-07
  -2.81499997E-02  -2.05031995E-07
  -2.81000007E-02  -1.61461728E-07
  -2.80499998E-02  -1.10419336E-07
  -2.80000009E-02  -7.41944319E-08
  -2.79500000E-02  -6.85485162E-08
  -2.78999992E-02  -9.54206101E-08
  -2.78500002E-02  -1.41660550E-07
  -2.77999993E-02  -1.84522150E-07
  -2.77500004E-02  -2.01628453E-07
  -2.76999995E-02  -1.81049700E-07
  -2.76500005E-02  -1.26969383E-07
  -2.75999997E-02  -5.82787543E-08
  -2.75500007E-02  -5.47038415E-10
  -2.74999999E-02   2.52002064E-08
  -2.74500009E-02   1.19438948E-08
  -2.74000000E-02  -2.99076071E-08
  -2.73499992E-02  -7.68152830E-08
  -2.73000002E-02  -1.02381023E-07
  -2.72499993E-02  -8.91322500E-08
  -2.72000004E-02  -3.65763029E-08
  -2.71499995E-02   3.81678937E-08
  -2.71000005E-02   1.07613239E-07
  -2.70499997E-02   1.45957983E-07
  -2.70000007E-02   1.40659566E-07
  -2.69499999E-02   9.83350432E-08
  -2.69000009E-02   4.22188613E-08
  -2.68500000E-02   2.12647522E-09
  -2.67999992E-02   1.24877075E-09
  -2.67500002E-02   4.56133087E-08
  -2.66999993E-02   1.20981312E-07
  -2.66500004E-02   1.98725274E-07
  -2.65999995E-02   2.48249393E-07
  -2.65500005E-02   2.50541774E-07
  -2.64999997E-02   2.06830890E-07
  -2.64500007E-02   1.38383953E-07
  -2.63999999E-02   7.73623015E-08
  -2.63500009E-02   5.26427222E-08
  -2.63000000E-02   7.68383188E-08
  -2.62499992E-02   1.40339040E-07
  -2.62000002E-02   2.15168811E-07
  -2.61499994E-02   2.67124989E-07
  -2.61000004E-02   2.70938216E-07
  -2.60499995E-02   2.21741246E-07
  -2.60000005E-02   1.37657125E-07
  -2.59499997E-02   5.21834593E-08
  -2.59000007E-02  -4.22413715E-10
  -2.58499999E-02  -3.71620651E-10
  -2.58000009E-02   4.85901808E-08
  -2.57500000E-02   1.20430329E-07
  -2.56999992E-02   1.78018425E-07
  -2.56500002E-02   1.89449807E-07
  -2.55999994E-02   1.42324055E-07
  -2.55500004E-02   4.95878183E-08
  -2.54999995E-02  -5.57976669E-08
  -2.54500005E-02  -1.35173579E-07
  -2.53999997E-02  -1.61256551E-07
  -2.53500007E-02  -1.30410243E-07
  -2.52999999E-02  -6.45766605E-08
  -2.52500009E-02  -1.84325089E-09
  -2.52000000E-02   2.03346460E-08
  -2.51499992E-02  -1.80942141E-08
  -2.51000002E-02  -1.10471554E-07
  -2.50499994E-02  -2.25845639E-07
  -2.50000004E-02  -3.22214788E-07
  -2.49499995E-02  -3.64876996E-07
  -2.49000005E-02  -3.41809766E-07
  -2.48499997E-02  -2.69208925E-07
  -2.48000007E-02  -1.84591869E-07
  -2.47499999E-02  -1.30360363E-07
  -2.47000009E-02  -1.34994892E-07
  -2.46500000E-02  -2.00198031E-07
  -2.45999992E-02  -2.99767777E-07
  -2.45500002E-02  -3.90843581E-07
  -2.44999994E-02  -4.32681418E-07
  -2.44500004E-02  -4.04711045E-07
  -2.43999995E-02  -3.15846847E-07
  -2.43500005E-02  -2.00811712E-07
  -2.42999997E-02  -1.04953408E-07
  -2.42500007E-02  -6.41601474E-08
  -2.41999999E-02  -8.87360869E-08
  -2.41500009E-02  -1.58446326E-07
  -2.41000000E-02  -2.31061620E-07
  -2.40499992E-02  -2.60766541E-07
  -2.40000002E-02  -2.18381246E-07
  -2.39499994E-02  -1.04455182E-07
  -2.39000004E-02   5.06419617E-08
  -2.38499995E-02   1.99803296E-07
  -2.38000005E-02   2.99775650E-07
  -2.37499997E-02   3.30212885E-07
  -2.37000007E-02   3.02745292E-07
  -2.36499999E-02   2.55959293E-07
  -2.36000009E-02   2.38390527E-07
  -2.35500000E-02   2.86960272E-07
  -2.34999992E-02   4.10367619E-07
  -2.34500002E-02   5.84830048E-07
  -2.33999994E-02   7.64156937E-07
  -2.33500004E-02   8.99812107E-07
  -2.32999995E-02   9.62160925E-07
  -2.32500006E-02   9.53519930E-07
  -2.31999997E-02   9.07176855E-07
  -2.31500007E-02   8.72715248E-07
  -2.30999999E-02   8.94035281E-07
  -2.30500009E-02   9.89726118E-07
  -2.30000000E-02   1.14447209E-06
  -2.29499992E-02   1.31534409E-06
  -2.29000002E-02   1.45027627E-06
  -2.28499994E-02   1.51063443E-06
  -2.28000004E-02   1.48794629E-06
  -2.27499995E-02   1.40738962E-06
  -2.27000006E-02   1.31645152E-06
  -2.26499997E-02   1.26371560E-06
  -2.26000007E-02   1.27710734E-06
  -2.25499999E-02   1.35118739E-06
  -2.25000009E-02   1.44912360E-06
  -2.24500000E-02   1.51852748E-06
  -2.23999992E-02   1.51420920E-06
  -2.23500002E-02   1.41784926E-06
  -2.22999994E-02   1.24591350E-06
  -2.22500004E-02   1.04230139E-06
  -2.21999995E-02   8.58932879E-07
  -2.21500006E-02   7.32798696E-07
  -2.20999997E-02   6.69552435E-07
  -2.20500007E-02   6.40869246E-07
  -2.19999999E-02   5.96734935E-07
  -2.19500009E-02   4.87244961E-07
  -2.19000001E-02   2.84360880E-07
  -2.18499992E-02  -5.93965099E-09
  -2.18000002E-02  -3.46454954E-07
  -2.17499994E-02  -6.85230304E-07
  -2.17000004E-02  -9.78482831E-07
  -2.16499995E-02  -1.20991604E-06
  -2.16000006E-02  -1.39793246E-06
  -2.15499997E-02  -1.58759894E-06
  -2.15000007E-02  -1.83093834E-06
  -2.14499999E-02  -2.16416493E-06
  -2.14000009E-02  -2.59183753E-06
  -2.13500001E-02  -3.08484687E-06
  -2.12999992E-02  -3.59306068E-06
  -2.12500002E-02  -4.06705203E-06
  -2.11999994E-02  -4.47942375E-06
  -2.11500004E-02  -4.83642452E-06
  -2.10999995E-02  -5.17484068E-06
  -2.10500006E-02  -5.54560211E-06
  -2.09999997E-02  -5.99136138E-06
  -2.09500007E-02  -6.52780454E-06
  -2.08999999E-02  -7.13680765E-06
  -2.08500009E-02  -7.77439982E-06
  -2.08000001E-02  -8.38989854E-06
  -2.07499992E-02  -8.94780624E-06
  -2.07000002E-02  -9.44294970E-06
  -2.06499994E-02  -9.90234003E-06
  -2.06000004E-02  -1.03730035E-05
  -2.05499995E-02  -1.09011717E-05
  -2.05000006E-02  -1.15119619E-05
  -2.04499997E-02  -1.21982875E-05
  -2.04000007E-02  -1.29237651E-05
  -2.03499999E-02  -1.36382478E-05
  -2.03000009E-02  -1.42991621E-05
  -2.02500001E-02  -1.48893705E-05
  -2.01999992E-02  -1.54239060E-05
  -2.01500002E-02  -1.59427855E-05
  -2.00999994E-02  -1.64931807E-05
  -2.00500004E-02  -1.71087213E-05
  -1.99999996E-02  -1.77949023E-05
  -1.99500006E-02  -1.85267891E-05
  -1.98999997E-02  -1.92598454E-05
  -1.98500007E-02  -1.99491169E-05
  -1.97999999E-02  -2.05685155E-05
  -1.97500009E-02  -2.11217630E-05
  -1.97000001E-02  -2.16404806E-05
  -1.96499992E-02  -2.21703431E-05
  -1.96000002E-02  -2.27512792E-05
  -1.95499994E-02  -2.34004274E-05
  -1.95000004E-02  -2.41049165E-05
  -1.94499996E-02  -2.48275428E-05
  -1.94000006E-02  -2.55227824E-05
  -1.93499997E-02  -2.61561981E-05
  -1.93000007E-02  -2.67188825E-05
  -1.92499999E-02  -2.72310172E-05
  -1.92000009E-02  -2.77331656E-05
  -1.91500001E-02  -2.82690198E-05
  -1.90999992E-02  -2.88670526E-05
  -1.90500002E-02  -2.95289537E-05
  -1.89999994E-02  -3.02295393E-05
  -1.89500004E-02  -3.09281168E-05
  -1.88999996E-02  -3.15863181E-05
  -1.88500006E-02  -3.21848784E-05
  -1.87999997E-02  -3.27321941E-05
  -1.87500007E-02  -3.32611271E-05
  -1.86999999E-02  -3.38156460E-05
  -1.86500009E-02  -3.44327709E-05
  -1.86000001E-02  -3.51275994E-05
  -1.85499992E-02  -3.58877696E-05
  -1.85000002E-02  -3.66793356E-05
  -1.84499994E-02  -3.74617521E-05
  -1.84000004E-02  -3.82056642E-05
  -1.83499996E-02  -3.89057604E-05
  -1.83000006E-02  -3.95835159E-05
  -1.82499997E-02  -4.02787737E-05
  -1.82000007E-02  -4.10337052E-05
  -1.81499999E-02  -4.18757736E-05
  -1.81000009E-02  -4.28069980E-05
  -1.80500001E-02  -4.38039351E-05
  -1.79999992E-02  -4.48284190E-05
  -1.79500002E-02  -4.58446229E-05
  -1.78999994E-02  -4.68349499E-05
  -1.78500004E-02  -4.78086331E-05
  -1.77999996E-02  -4.87989673E-05
  -1.77500006E-02  -4.98503250E-05
  -1.76999997E-02  -5.10003265E-05
  -1.76500008E-02  -5.22646587E-05
  -1.75999999E-02  -5.36312327E-05
  -1.75500009E-02  -5.50656732E-05
  -1.75000001E-02  -5.65259397E-05
  -1.74499992E-02  -5.79806292E-05
  -1.74000002E-02  -5.94231715E-05
  -1.73499994E-02  -6.08750670E-05
  -1.73000004E-02  -6.23778105E-05
  -1.72499996E-02  -6.39762366E-05
  -1.72000006E-02  -6.56998891E-05
  -1.71499997E-02  -6.75509727E-05
  -1.71000008E-02  -6.95036942E-05
  -1.70499999E-02  -7.15155111E-05
  -1.70000009E-02  -7.35456997E-05
  -1.69500001E-02  -7.55735455E-05
  -1.68999992E-02  -7.76083107E-05
  -1.68500002E-02  -7.96865061E-05
  -1.67999994E-02  -8.18576518E-05
  -1.67500004E-02  -8.41639630E-05
  -1.66999996E-02  -8.66223709E-05
  -1.66500006E-02  -8.92172320E-05
  -1.65999997E-02  -9.19069789E-05
  -1.65500008E-02  -9.46418149E-05
  -1.64999999E-02  -9.73848146E-05
  -1.64500009E-02  -1.00128382E-04
  -1.64000001E-02  -1.02898797E-04
  -1.63499992E-02  -1.05745436E-04
  -1.63000003E-02  -1.08720131E-04
  -1.62499994E-02  -1.11855392E-04
  -1.62000004E-02  -1.15150186E-04
  -1.61499996E-02  -1.18569827E-04
  -1.61000006E-02  -1.22060999E-04
  -1.60499997E-02  -1.25575680E-04
  -1.60000008E-02  -1.29092747E-04
  -1.59499999E-02  -1.32628425E-04
  -1.59000009E-02  -1.36230548E-04
  -1.58500001E-02  -1.39959055E-04
  -1.57999992E-02  -1.43860729E-04
  -1.57500003E-02  -1.47948420E-04
  -1.56999994E-02  -1.52194872E-04
  -1.56500004E-02  -1.56544076E-04
  -1.55999996E-02  -1.60935582E-04
  -1.55499997E-02  -1.65331090E-04
  -1.54999997E-02  -1.69732259E-04
  -1.54499998E-02  -1.74181157E-04
  -1.53999999E-02  -1.78743125E-04
  -1.53500000E-02  -1.83479031E-04
  -1.53000001E-02  -1.88418853E-04
  -1.52500002E-02  -1.93548098E-04
  -1.52000003E-02  -1.98814945E-04
  -1.51500003E-02  -2.04153184E-04
  -1.51000004E-02  -2.09511942E-04
  -1.50499996E-02  -2.14880172E-04
  -1.49999997E-02  -2.20292713E-04
  -1.49499997E-02  -2.25818178E-04
  -1.48999998E-02  -2.31530110E-04
  -1.48499999E-02  -2.37475077E-04
  -1.48000000E-02  -2.43653441E-04
  -1.47500001E-02  -2.50019162E-04
  -1.47000002E-02  -2.56500498E-04
  -1.46500003E-02  -2.63032416E-04
  -1.46000003E-02  -2.69586948E-04
  -1.45500004E-02  -2.76187900E-04
  -1.44999996E-02  -2.82902445E-04
  -1.44499997E-02  -2.89813266E-04
  -1.43999998E-02  -2.96984304E-04
  -1.43499998E-02  -3.04433372E-04
  -1.42999999E-02  -3.12124233E-04
  -1.42500000E-02  -3.19984858E-04
  -1.42000001E-02  -3.27941292E-04
  -1.41500002E-02  -3.35951569E-04
  -1.41000003E-02  -3.44028842E-04
  -1.40500003E-02  -3.52238974E-04
  -1.40000004E-02  -3.60673323E-04
  -1.39499996E-02  -3.69411777E-04
  -1.38999997E-02  -3.78489087E-04
  -1.38499998E-02  -3.87878972E-04
  -1.37999998E-02  -3.97508848E-04
  -1.37499999E-02  -4.07294603E-04
  -1.37000000E-02  -4.17178206E-04
  -1.36500001E-02  -4.27158055E-04
  -1.36000002E-02  -4.37293900E-04
  -1.35500003E-02  -4.47682221E-04
  -1.35000004E-02  -4.58415074E-04
  -1.34500004E-02  -4.69542952E-04
  -1.33999996E-02  -4.81052964E-04
  -1.33499997E-02  -4.92875872E-04
  -1.32999998E-02  -5.04919677E-04
  -1.32499998E-02  -5.17113367E-04
  -1.31999999E-02  -5.29442215E-04
  -1.31500000E-02  -5.41958550E-04
  -1.31000001E-02  -5.54762140E-04
  -1.30500002E-02  -5.67958166E-04
  -1.30000003E-02  -5.81615604E-04
  -1.29500004E-02  -5.95737074E-04
  -1.29000004E-02  -6.10258197E-04
  -1.28499996E-02  -6.25080836E-04
  -1.27999997E-02  -6.40118204E-04
  -1.27499998E-02  -6.55334385E-04
  -1.26999998E-02  -6.70767040E-04
  -1.26499999E-02  -6.86513551E-04
  -1.26000000E-02  -7.02687888E-04
  -1.25500001E-02  -7.19373813E-04
  -1.25000002E-02  -7.36588496E-04
  -1.24500003E-02  -7.54275941E-04
  -1.24000004E-02  -7.72333588E-04
  -1.23500004E-02  -7.90663471E-04
  -1.22999996E-02  -8.09219840E-04
  -1.22499997E-02  -8.28032265E-04
  -1.21999998E-02  -8.47200223E-04
  -1.21499998E-02  -8.66849907E-04
  -1.20999999E-02  -8.87079514E-04
  -1.20500000E-02  -9.07918438E-04
  -1.20000001E-02  -9.29315051E-04
  -1.19500002E-02  -9.51163471E-04
  -1.19000003E-02  -9.73350659E-04
  -1.18500004E-02  -9.95810959E-04
  -1.18000004E-02  -1.01856026E-03
  -1.17499996E-02  -1.04169210E-03
  -1.16999997E-02  -1.06533756E-03
  -1.16499998E-02  -1.08961202E-03
  -1.15999999E-02  -1.11456448E-03
  -1.15499999E-02  -1.14015886E-03
  -1.15000000E-02  -1.16629223E-03
  -1.14500001E-02  -1.19284389E-03
  -1.14000002E-02  -1.21973455E-03
  -1.13500003E-02  -1.24696700E-03
  -1.13000004E-02  -1.27462950E-03
  -1.12500004E-02  -1.30285847E-03
  -1.11999996E-02  -1.33178127E-03
  -1.11499997E-02  -1.36145693E-03
  -1.10999998E-02  -1.39185286E-03
  -1.10499999E-02  -1.42286194E-03
  -1.09999999E-02  -1.45434914E-03
  -1.09500000E-02  -1.48621853E-03
  -1.09000001E-02  -1.51846372E-03
  -1.08500002E-02  -1.55117502E-03
  -1.08000003E-02  -1.58450147E-03
  -1.07500004E-02  -1.61858881E-03
  -1.07000005E-02  -1.65351725E-03
  -1.06499996E-02  -1.68927084E-03
  -1.05999997E-02  -1.72574271E-03
  -1.05499998E-02  -1.76279002E-03
  -1.04999999E-02  -1.80030125E-03
  -1.04499999E-02  -1.83824799E-03
  -1.04000000E-02  -1.87670602E-03
  -1.03500001E-02  -1.91582530E-03
  -1.03000002E-02  -1.95576157E-03
  -1.02500003E-02  -1.99661311E-03
  -1.02000004E-02  -2.03837804E-03
  -1.01500005E-02  -2.08095089E-03
  -1.00999996E-02  -2.12417915E-03
  -1.00499997E-02  -2.16793292E-03
  -9.99999978E-03  -2.21217237E-03
  -9.94999986E-03  -2.25696876E-03
  -9.89999995E-03  -2.30247830E-03
  -9.85000003E-03  -2.34887959E-03
  -9.80000012E-03  -2.39629182E-03
  -9.75000020E-03  -2.44472292E-03
  -9.70000029E-03  -2.49407580E-03
  -9.65000037E-03  -2.54418817E-03
  -9.60000046E-03  -2.59491499E-03
  -9.54999961E-03  -2.64620478E-03
  -9.49999969E-03  -2.69812136E-03
  -9.44999978E-03  -2.75082910E-03
  -9.39999986E-03  -2.80451612E-03
  -9.34999995E-03  -2.85931234E-03
  -9.30000003E-03  -2.91524339E-03
  -9.25000012E-03  -2.97221122E-03
  -9.20000020E-03  -3.03003867E-03
  -9.15000029E-03  -3.08856159E-03
  -9.10000037E-03  -3.14769428E-03
  -9.05000046E-03  -3.20747960E-03
  -8.99999961E-03  -3.26807750E-03
  -8.94999970E-03  -3.32969148E-03
  -8.89999978E-03  -3.39248800E-03
  -8.84999987E-03  -3.45651060E-03
  -8.79999995E-03  -3.52166872E-03
  -8.75000004E-03  -3.58778751E-03
  -8.70000012E-03  -3.65469162E-03
  -8.65000021E-03  -3.72228492E-03
  -8.60000029E-03  -3.79060348E-03
  -8.55000038E-03  -3.85980331E-03
  -8.50000046E-03  -3.93009139E-03
  -8.44999962E-03  -4.00164723E-03
  -8.39999970E-03  -4.07455163E-03
  -8.34999979E-03  -4.14872775E-03
  -8.29999987E-03  -4.22399212E-03
  -8.24999996E-03  -4.30014031E-03
  -8.20000004E-03  -4.37703077E-03
  -8.15000013E-03  -4.45467373E-03
  -8.10000021E-03  -4.53321729E-03
  -8.05000030E-03  -4.61288542E-03
  -8.00000038E-03  -4.69387090E-03
  -7.95000046E-03  -4.77625336E-03
  -7.89999962E-03  -4.85996716E-03
  -7.84999970E-03  -4.94482229E-03
  -7.79999979E-03  -5.03059616E-03
  -7.74999987E-03  -5.11713652E-03
  -7.69999996E-03  -5.20444103E-03
  -7.65000004E-03  -5.29264659E-03
  -7.60000013E-03  -5.38198464E-03
  -7.55000021E-03  -5.47270663E-03
  -7.49999983E-03  -5.56494342E-03
  -7.44999992E-03  -5.65865682E-03
  -7.40000000E-03  -5.75364567E-03
  -7.35000009E-03  -5.84965758E-03
  -7.30000017E-03  -5.94650954E-03
  -7.24999979E-03  -6.04414428E-03
  -7.19999988E-03  -6.14268053E-03
  -7.14999996E-03  -6.24236092E-03
  -7.10000005E-03  -6.34344481E-03
  -7.05000013E-03  -6.44609006E-03
  -7.00000022E-03  -6.55026501E-03
  -6.94999984E-03  -6.65577454E-03
  -6.89999992E-03  -6.76234625E-03
  -6.85000001E-03  -6.86975196E-03
  -6.80000009E-03  -6.97793392E-03
  -6.75000018E-03  -7.08699552E-03
  -6.69999979E-03  -7.19716214E-03
  -6.64999988E-03  -7.30870152E-03
  -6.59999996E-03  -7.42179528E-03
  -6.55000005E-03  -7.53645971E-03
  -6.50000013E-03  -7.65252672E-03
  -6.45000022E-03  -7.76972063E-03
  -6.39999984E-03  -7.88780674E-03
  -6.34999992E-03  -8.00667144E-03
  -6.30000001E-03  -8.12636688E-03
  -6.25000009E-03  -8.24711937E-03
  -6.20000018E-03  -8.36921483E-03
  -6.14999980E-03  -8.49288516E-03
  -6.09999988E-03  -8.61818623E-03
  -6.04999997E-03  -8.74495506E-03
  -6.00000005E-03  -8.87290016E-03
  -5.95000014E-03  -9.00172908E-03
  -5.90000022E-03  -9.13124904E-03
  -5.84999984E-03  -9.26149171E-03
  -5.79999993E-03  -9.39266663E-03
  -5.75000001E-03  -9.52505972E-03
  -5.70000010E-03  -9.65893921E-03
  -5.65000018E-03  -9.79439355E-03
  -5.59999980E-03  -9.93133243E-03
  -5.54999989E-03  -1.00694718E-02
  -5.49999997E-03  -1.02084549E-02
  -5.45000006E-03  -1.03480583E-02
  -5.40000014E-03  -1.04882484E-02
  -5.35000023E-03  -1.06291864E-02
  -5.29999984E-03  -1.07711740E-02
  -5.24999993E-03  -1.09145315E-02
  -5.20000001E-03  -1.10594248E-02
  -5.15000010E-03  -1.12057980E-02
  -5.10000018E-03  -1.13533773E-02
  -5.04999980E-03  -1.15017919E-02
  -4.99999989E-03  -1.16507392E-02
  -4.94999997E-03  -1.18001048E-02
  -4.90000006E-03  -1.19500225E-02
  -4.85000014E-03  -1.21007832E-02
  -4.80000023E-03  -1.22527061E-02
  -4.74999985E-03  -1.24059990E-02
  -4.69999993E-03  -1.25606162E-02
  -4.65000002E-03  -1.27163026E-02
  -4.60000010E-03  -1.28726838E-02
  -4.55000019E-03  -1.30294189E-02
  -4.49999981E-03  -1.31863253E-02
  -4.44999989E-03  -1.33434851E-02
  -4.39999998E-03  -1.35011999E-02
  -4.35000006E-03  -1.36597985E-02
  -4.30000015E-03  -1.38195297E-02
  -4.25000023E-03  -1.39804007E-02
  -4.19999985E-03  -1.41421715E-02
  -4.14999994E-03  -1.43044656E-02
  -4.10000002E-03  -1.44668687E-02
  -4.05000011E-03  -1.46291722E-02
  -4.00000019E-03  -1.47914216E-02
  -3.94999981E-03  -1.49538377E-02
  -3.89999989E-03  -1.51167400E-02
  -3.84999998E-03  -1.52803995E-02
  -3.80000006E-03  -1.54449437E-02
  -3.74999992E-03  -1.56101985E-02
  -3.70000000E-03  -1.57757364E-02
  -3.65000009E-03  -1.59411319E-02
  -3.59999994E-03  -1.61060747E-02
  -3.55000002E-03  -1.62704568E-02
  -3.50000011E-03  -1.64344460E-02
  -3.44999996E-03  -1.65983997E-02
  -3.40000005E-03  -1.67626478E-02
  -3.34999990E-03  -1.69272926E-02
  -3.29999998E-03  -1.70922205E-02
  -3.25000007E-03  -1.72571037E-02
  -3.19999992E-03  -1.74215138E-02
  -3.15000000E-03  -1.75850876E-02
  -3.10000009E-03  -1.77475903E-02
  -3.04999994E-03  -1.79090649E-02
  -3.00000003E-03  -1.80698391E-02
  -2.95000011E-03  -1.82303060E-02
  -2.89999996E-03  -1.83907021E-02
  -2.85000005E-03  -1.85509920E-02
  -2.79999990E-03  -1.87108312E-02
  -2.74999999E-03  -1.88697055E-02
  -2.70000007E-03  -1.90271568E-02
  -2.64999992E-03  -1.91829354E-02
  -2.60000001E-03  -1.93370655E-02
  -2.55000009E-03  -1.94897950E-02
  -2.49999994E-03  -1.96415260E-02
  -2.45000003E-03  -1.97925139E-02
  -2.40000011E-03  -1.99426841E-02
  -2.34999997E-03  -2.00919192E-02
  -2.30000005E-03  -2.02397890E-02
  -2.24999990E-03  -2.03856900E-02
  -2.19999999E-03  -2.05291882E-02
  -2.15000007E-03  -2.06701327E-02
  -2.09999993E-03  -2.08087210E-02
  -2.05000001E-03  -2.09453125E-02
  -2.00000009E-03  -2.10802760E-02
  -1.94999995E-03  -2.12137885E-02
  -1.90000003E-03  -2.13457420E-02
  -1.85000000E-03  -2.14757156E-02
  -1.79999997E-03  -2.16030814E-02
  -1.75000005E-03  -2.17272621E-02
  -1.70000002E-03  -2.18479782E-02
  -1.64999999E-03  -2.19653379E-02
  -1.59999996E-03  -2.20796615E-02
  -1.55000004E-03  -2.21914407E-02
  -1.50000001E-03  -2.23010350E-02
  -1.44999998E-03  -2.24082898E-02
  -1.39999995E-03  -2.25128215E-02
  -1.35000004E-03  -2.26140954E-02
  -1.30000000E-03  -2.27113925E-02
  -1.24999997E-03  -2.28043254E-02
  -1.20000006E-03  -2.28928756E-02
  -1.15000003E-03  -2.29772311E-02
  -1.09999999E-03  -2.30577718E-02
  -1.04999996E-03  -2.31348500E-02
  -1.00000005E-03  -2.32085511E-02
  -9.50000016E-04  -2.32786611E-02
  -8.99999985E-04  -2.33446918E-02
  -8.50000011E-04  -2.34059710E-02
  -7.99999980E-04  -2.34618373E-02
  -7.50000007E-04  -2.35120021E-02
  -6.99999975E-04  -2.35566851E-02
  -6.50000002E-04  -2.35962477E-02
  -6.00000028E-04  -2.36311723E-02
  -5.49999997E-04  -2.36618128E-02
  -5.00000024E-04  -2.36880202E-02
  -4.49999992E-04  -2.37092860E-02
  -3.99999990E-04  -2.37248987E-02
  -3.49999988E-04  -2.37340797E-02
  -3.00000014E-04  -2.37363428E-02
  -2.50000012E-04  -2.37317197E-02
  -1.99999995E-04  -2.37205438E-02
  -1.50000007E-04  -2.37033311E-02
  -9.99999975E-05  -2.36805715E-02
  -4.99999987E-05  -2.36522984E-02
   0.00000000      -2.36180052E-02
   4.99999987E-05  -2.35769488E-02
   9.99999975E-05  -2.35283170E-02
   1.50000007E-04  -2.34713890E-02
   1.99999995E-04  -2.34060902E-02
   2.50000012E-04  -2.33328398E-02
   3.00000014E-04  -2.32521556E-02
   3.49999988E-04  -2.31645536E-02
   3.99999990E-04  -2.30702218E-02
   4.49999992E-04  -2.29687598E-02
   5.00000024E-04  -2.28593592E-02
   5.49999997E-04  -2.27411222E-02
   6.00000028E-04  -2.26134155E-02
   6.50000002E-04  -2.24759914E-02
   6.99999975E-04  -2.23290194E-02
   7.50000007E-04  -2.21731421E-02
   7.99999980E-04  -2.20088027E-02
   8.50000011E-04  -2.18361560E-02
   8.99999985E-04  -2.16551293E-02
   9.50000016E-04  -2.14650687E-02
   1.00000005E-03  -2.12650709E-02
   1.04999996E-03  -2.10544541E-02
   1.09999999E-03  -2.08328366E-02
   1.15000003E-03  -2.06001606E-02
   1.20000006E-03  -2.03568377E-02
   1.24999997E-03  -2.01033577E-02
   1.30000000E-03  -1.98399406E-02
   1.35000004E-03  -1.95665155E-02
   1.39999995E-03  -1.92826670E-02
   1.44999998E-03  -1.89877991E-02
   1.50000001E-03  -1.86812319E-02
   1.55000004E-03  -1.83622465E-02
   1.59999996E-03  -1.80305000E-02
   1.64999999E-03  -1.76863093E-02
   1.70000002E-03  -1.73303057E-02
   1.75000005E-03  -1.69630051E-02
   1.79999997E-03  -1.65845323E-02
   1.85000000E-03  -1.61945708E-02
   1.90000003E-03  -1.57924835E-02
   1.94999995E-03  -1.53773017E-02
   2.00000009E-03  -1.49481175E-02
   2.05000001E-03  -1.45046171E-02
   2.09999993E-03  -1.40470648E-02
   2.15000007E-03  -1.35760484E-02
   2.19999999E-03  -1.30921640E-02
   2.24999990E-03  -1.25956219E-02
   2.30000005E-03  -1.20863020E-02
   2.34999997E-03  -1.15635982E-02
   2.40000011E-03  -1.10266255E-02
   2.45000003E-03  -1.04746167E-02
   2.49999994E-03  -9.90691129E-03
   2.55000009E-03  -9.32346378E-03
   2.60000001E-03  -8.72480683E-03
   2.64999992E-03  -8.11165199E-03
   2.70000007E-03  -7.48454826E-03
   2.74999999E-03  -6.84335455E-03
   2.79999990E-03  -6.18747901E-03