  -3.99999991E-02   0.00000000    
  -3.99499983E-02   0.00000000    
  -3.99000011E-02   0.00000000    
  -3.98500003E-02   0.00000000    
  -3.97999994E-02  -2.29232872E-21
  -3.97499986E-02  -2.04842700E-20
  -3.97000015E-02  -9.34692702E-20
  -3.96500006E-02  -2.88192646E-19
  -3.95999998E-02  -6.66094012E-19
  -3.95499989E-02  -1.20170287E-18
  -3.95000018E-02  -1.68033521E-18
  -3.94500010E-02  -1.64186987E-18
  -3.94000001E-02  -4.40871860E-19
  -3.93499993E-02   2.56268639E-18
  -3.92999984E-02   7.76044969E-18
  -3.92500013E-02   1.51402954E-17
  -3.92000005E-02   2.43213748E-17
  -3.91499996E-02   3.47451625E-17
  -3.90999988E-02   4.58441793E-17
  -3.90500017E-02   5.69989448E-17
  -3.90000008E-02   6.72795954E-17
  -3.89500000E-02   7.52463175E-17
  -3.88999991E-02   7.92097170E-17
  -3.88499983E-02   7.81224906E-17
  -3.88000011E-02   7.27292399E-17
  -3.87500003E-02   6.60857554E-17
  -3.86999995E-02   6.25390498E-17
  -3.86499986E-02   6.49813171E-17
  -3.86000015E-02   7.14279128E-17
  -3.85500006E-02   7.30195142E-17
  -3.84999998E-02   5.55798403E-17
  -3.84499989E-02   5.42663280E-18
  -3.84000018E-02  -8.24099729E-17
  -3.83500010E-02  -1.97827245E-16
  -3.83000001E-02  -3.16045833E-16
  -3.82499993E-02  -4.07377081E-16
  -3.81999984E-02  -4.54112362E-16
  -3.81500013E-02  -4.67049891E-16
  -3.81000005E-02  -4.91733701E-16
  -3.80499996E-02  -5.97283059E-16
  -3.79999988E-02  -8.48549930E-16
  -3.79500017E-02  -1.27192553E-15
  -3.79000008E-02  -1.83134029E-15
  -3.78500000E-02  -2.42948468E-15
  -3.77999991E-02  -2.93924626E-15
  -3.77499983E-02  -3.25549956E-15
  -3.77000012E-02  -3.34473363E-15
  -3.76500003E-02  -3.26676870E-15
  -3.75999995E-02  -3.15254652E-15
  -3.75499986E-02  -3.14205072E-15
  -3.75000015E-02  -3.30789913E-15
  -3.74500006E-02  -3.60175096E-15
  -3.73999998E-02  -3.85446790E-15
  -3.73499990E-02  -3.83751665E-15
  -3.73000018E-02  -3.36265748E-15
  -3.72500010E-02  -2.37460308E-15
  -3.72000001E-02  -9.89837514E-16
  -3.71499993E-02   5.43319331E-16
  -3.70999984E-02   1.95209352E-15
  -3.70500013E-02   3.06924802E-15
  -3.70000005E-02   3.92677783E-15
  -3.69499996E-02   4.76769435E-15
  -3.68999988E-02   5.96630442E-15
  -3.68500017E-02   7.88911664E-15
  -3.68000008E-02   1.07559827E-14
  -3.67500000E-02   1.45598865E-14
  -3.66999991E-02   1.90749499E-14
  -3.66499983E-02   2.39411203E-14
  -3.66000012E-02   2.87816713E-14
  -3.65500003E-02   3.33026656E-14
  -3.64999995E-02   3.73418812E-14
  -3.64499986E-02   4.08641084E-14
  -3.64000015E-02   4.39221955E-14
  -3.63500006E-02   4.66066225E-14
  -3.62999998E-02   4.89942864E-14
  -3.62499990E-02   5.10938473E-14
  -3.62000018E-02   5.27847893E-14
  -3.61500010E-02   5.37666598E-14
  -3.61000001E-02   5.35591231E-14
  -3.60499993E-02   5.15983334E-14
  -3.59999985E-02   4.74428134E-14
  -3.59500013E-02   4.10317091E-14
  -3.59000005E-02   3.28640584E-14
  -3.58499996E-02   2.39441865E-14
  -3.57999988E-02   1.54060250E-14
  -3.57500017E-02   7.88601057E-15
  -3.57000008E-02   8.96936211E-16
  -3.56500000E-02  -7.44175365E-15
  -3.55999991E-02  -2.00303793E-14
  -3.55499983E-02  -3.97430197E-14
  -3.55000012E-02  -6.80400357E-14
  -3.54500003E-02  -1.03859318E-13
  -3.53999995E-02  -1.43442306E-13
  -3.53499986E-02  -1.81441179E-13
  -3.53000015E-02  -2.13071910E-13
  -3.52500007E-02  -2.36469834E-13
  -3.51999998E-02  -2.54087929E-13
  -3.51499990E-02  -2.72198740E-13
  -3.51000018E-02  -2.98330777E-13
  -3.50500010E-02  -3.37503246E-13
  -3.50000001E-02  -3.88932674E-13
  -3.49499993E-02  -4.44995142E-13
  -3.48999985E-02  -4.93431847E-13
  -3.48500013E-02  -5.22319059E-13
  -3.48000005E-02  -5.25809919E-13
  -3.47499996E-02  -5.07879492E-13
  -3.46999988E-02  -4.81796731E-13
  -3.46500017E-02  -4.64805223E-13
  -3.46000008E-02  -4.69838740E-13
  -3.45500000E-02  -4.97939147E-13
  -3.44999991E-02  -5.35336207E-13
  -3.44499983E-02  -5.57475181E-13
  -3.44000012E-02  -5.39155363E-13
  -3.43500003E-02  -4.66707077E-13
  -3.42999995E-02  -3.46426799E-13
  -3.42499986E-02  -2.04433868E-13
  -3.42000015E-02  -7.66463851E-14
  -3.41500007E-02   7.66741593E-15
  -3.40999998E-02   4.15412740E-14
  -3.40499990E-02   4.72186851E-14
  -3.40000018E-02   6.95224789E-14
  -3.39500010E-02   1.56929835E-13
  -3.39000002E-02   3.37904455E-13
  -3.38499993E-02   6.03521085E-13
  -3.37999985E-02   9.05900788E-13
  -3.37500013E-02   1.17549861E-12
  -3.37000005E-02   1.35138049E-12
  -3.36499996E-02   1.41138154E-12
  -3.35999988E-02   1.38730509E-12
  -3.35500017E-02   1.35569399E-12
  -3.35000008E-02   1.40547610E-12
  -3.34500000E-02   1.59534040E-12
  -3.33999991E-02   1.92041912E-12
  -3.33499983E-02   2.30578599E-12
  -3.33000012E-02   2.63334276E-12
  -3.32500003E-02   2.79310776E-12
  -3.31999995E-02   2.73684807E-12
  -3.31499986E-02   2.50812999E-12
  -3.31000015E-02   2.23126574E-12
  -3.30500007E-02   2.05962482E-12
  -3.29999998E-02   2.10368311E-12
  -3.29499990E-02   2.37148387E-12
  -3.29000019E-02   2.75191090E-12
  -3.28500010E-02   3.05382889E-12
  -3.28000002E-02   3.08843055E-12
  -3.27499993E-02   2.75969872E-12
  -3.26999985E-02   2.12004437E-12
  -3.26500013E-02   1.36038891E-12
  -3.26000005E-02   7.32434783E-13
  -3.25499997E-02   4.33505418E-13
  -3.24999988E-02   5.05752395E-13
  -3.24500017E-02   8.00032078E-13
  -3.24000008E-02   1.02867324E-12
  -3.23500000E-02   8.90874885E-13
  -3.22999991E-02   2.17610638E-13
  -3.22499983E-02  -9.31929880E-13
  -3.22000012E-02  -2.27379639E-12
  -3.21500003E-02  -3.41103925E-12
  -3.20999995E-02  -4.01075050E-12
  -3.20499986E-02  -3.96769596E-12
  -3.20000015E-02  -3.47461079E-12
  -3.19500007E-02  -2.95643024E-12
  -3.18999998E-02  -2.88708684E-12
  -3.18499990E-02  -3.56564127E-12
  -3.18000019E-02  -4.95527751E-12
  -3.17500010E-02  -6.66808492E-12
  -3.17000002E-02  -8.11622037E-12
  -3.16499993E-02  -8.77218524E-12
  -3.15999985E-02  -8.42353010E-12
  -3.15500014E-02  -7.29971812E-12
  -3.15000005E-02  -5.99936854E-12
  -3.14499997E-02  -5.23526795E-12
  -3.13999988E-02  -5.50317864E-12
  -3.13500017E-02  -6.82601762E-12
  -3.13000008E-02  -8.70183352E-12
  -3.12500000E-02  -1.02975319E-11
  -3.11999992E-02  -1.08165525E-11
  -3.11500002E-02  -9.87971857E-12
  -3.10999993E-02  -7.73904725E-12
  -3.10500003E-02  -5.20919245E-12
  -3.09999995E-02  -3.32635460E-12
  -3.09500005E-02  -2.87506412E-12
  -3.08999997E-02  -3.99718540E-12
  -3.08500007E-02  -6.07516641E-12
  -3.07999998E-02  -7.96628648E-12
  -3.07500008E-02  -8.50359453E-12
  -3.07000000E-02  -7.04629280E-12
  -3.06499992E-02  -3.82241157E-12
  -3.06000002E-02   1.14235566E-13
  -3.05499993E-02   3.32100471E-12
  -3.05000003E-02   4.61937129E-12
  -3.04499995E-02   3.67046454E-12
  -3.04000005E-02   1.19516907E-12
  -3.03499997E-02  -1.29096647E-12
  -3.03000007E-02  -2.13749287E-12
  -3.02499998E-02  -3.29748165E-13
  -3.02000009E-02   3.98557749E-12
  -3.01500000E-02   9.48501087E-12
  -3.00999992E-02   1.42054242E-11
  -3.00500002E-02   1.64181654E-11
  -2.99999993E-02   1.54510935E-11
  -2.99500003E-02   1.20679803E-11
  -2.98999995E-02   8.19754247E-12
  -2.98500005E-02   6.09715186E-12
  -2.97999997E-02   7.30831541E-12
  -2.97500007E-02   1.18820006E-11
  -2.96999998E-02   1.82555256E-11
  -2.96500009E-02   2.38802433E-11
  -2.96000000E-02   2.63522763E-11
  -2.95499992E-02   2.45464777E-11
  -2.95000002E-02   1.92213329E-11
  -2.94499993E-02   1.27783999E-11
  -2.94000003E-02   8.23772908E-12
  -2.93499995E-02   7.86246328E-12
  -2.93000005E-02   1.20563733E-11
  -2.92499997E-02   1.90668835E-11
  -2.92000007E-02   2.56797344E-11
  -2.91499998E-02   2.86373113E-11
  -2.91000009E-02   2.61581937E-11
  -2.90500000E-02   1.88526486E-11
  -2.89999992E-02   9.57170194E-12
  -2.89500002E-02   2.20078686E-12
  -2.88999993E-02  -9.64639406E-14
  -2.88500004E-02   3.60646062E-12
  -2.87999995E-02   1.14455884E-11
  -2.87500005E-02   1.94857862E-11
  -2.86999997E-02   2.34452509E-11
  -2.86500007E-02   2.06738654E-11
  -2.85999998E-02   1.14760050E-11
  -2.85500009E-02  -8.73574542E-13
  -2.85000000E-02  -1.14959240E-11
  -2.84499992E-02  -1.60907156E-11
  -2.84000002E-02  -1.29606395E-11
  -2.83499993E-02  -3.92697680E-12
  -2.83000004E-02   6.34505296E-12
  -2.82499995E-02   1.23757810E-11
  -2.82000005E-02   1.03779138E-11
  -2.81499997E-02   9.86802464E-14
  -2.81000007E-02  -1.48907726E-11
  -2.80499998E-02  -2.86667877E-11
  -2.80000009E-02  -3.55848476E-11
  -2.79500000E-02  -3.29036971E-11
  -2.78999992E-02  -2.21834998E-11
  -2.78500002E-02  -8.75306945E-12
  -2.77999993E-02   5.94438452E-13
  -2.77500004E-02   6.88291492E-13
  -2.76999995E-02  -9.54664646E-12
  -2.76500005E-02  -2.64038565E-11
  -2.75999997E-02  -4.28928525E-11
  -2.75500007E-02  -5.18223381E-11
  -2.74999999E-02  -4.91101292E-11
  -2.74500009E-02  -3.57983955E-11
  -2.74000000E-02  -1.77876169E-11
  -2.73499992E-02  -3.31693635E-12
  -2.73000002E-02   7.37410241E-13
  -2.72499993E-02  -7.91626313E-12
  -2.72000004E-02  -2.57510159E-11
  -2.71499995E-02  -4.48246440E-11
  -2.71000005E-02  -5.62770525E-11
  -2.70499997E-02  -5.43897843E-11
  -2.70000007E-02  -3.93561433E-11
  -2.69499999E-02  -1.74333811E-11
  -2.69000009E-02   1.69481486E-12
  -2.68500000E-02   9.23654903E-12
  -2.67999992E-02   1.36480963E-12
  -2.67500002E-02  -1.88397353E-11
  -2.66999993E-02  -4.25501162E-11
  -2.66500004E-02  -5.90384755E-11
  -2.65999995E-02  -6.05342651E-11
  -2.65500005E-02  -4.58973450E-11
  -2.64999997E-02  -2.13748585E-11
  -2.64500007E-02   2.00887527E-12
  -2.63999999E-02   1.33483892E-11
  -2.63500009E-02   6.86930591E-12
  -2.63000000E-02  -1.52406768E-11
  -2.62499992E-02  -4.35559228E-11
  -2.62000002E-02  -6.54800589E-11
  -2.61499994E-02  -7.09016804E-11
  -2.61000004E-02  -5.68973306E-11
  -2.60499995E-02  -2.92941955E-11
  -2.60000005E-02  -2.73368079E-13
  -2.59499997E-02   1.70160986E-11
  -2.59000007E-02   1.44608041E-11
  -2.58499999E-02  -7.12539186E-12
  -2.58000009E-02  -3.80698459E-11
  -2.57500000E-02  -6.39629946E-11
  -2.56999992E-02  -7.20744714E-11
  -2.56500002E-02  -5.72000745E-11
  -2.55999994E-02  -2.42500256E-11
  -2.55500004E-02   1.37015859E-11
  -2.54999995E-02   4.11505725E-11
  -2.54500005E-02   4.71725749E-11
  -2.53999997E-02   3.05456077E-11
  -2.53500007E-02   5.91689133E-13
  -2.52999999E-02  -2.67704574E-11
  -2.52500009E-02  -3.60979684E-11
  -2.52000000E-02  -1.94847801E-11
  -2.51499992E-02   1.96092240E-11
  -2.51000002E-02   6.75984477E-11
  -2.50499994E-02   1.06658272E-10
  -2.50000004E-02   1.22706637E-10
  -2.49499995E-02   1.11903160E-10
  -2.49000005E-02   8.26665403E-11
  -2.48499997E-02   5.21692758E-11
  -2.48000007E-02   3.87543227E-11
  -2.47499999E-02   5.36119413E-11
  -2.47000009E-02   9.54807969E-11
  -2.46500000E-02   1.50861268E-10
  -2.45999992E-02   1.99788561E-10
  -2.45500002E-02   2.24687977E-10
  -2.44999994E-02   2.18370766E-10
  -2.44500004E-02   1.87516780E-10
  -2.43999995E-02   1.49947305E-10
  -2.43500005E-02   1.26766195E-10
  -2.42999997E-02   1.32805197E-10
  -2.42500007E-02   1.69666073E-10
  -2.41999999E-02   2.24582450E-10
  -2.41500009E-02   2.75766826E-10
  -2.41000000E-02   3.01982328E-10
  -2.40499992E-02   2.92110391E-10
  -2.40000002E-02   2.50379828E-10
  -2.39499994E-02   1.94780386E-10
  -2.39000004E-02   1.49211130E-10
  -2.38499995E-02   1.32763994E-10
  -2.38000005E-02   1.50922441E-10
  -2.37499997E-02   1.92707045E-10
  -2.37000007E-02   2.35207492E-10
  -2.36499999E-02   2.53630922E-10
  -2.36000009E-02   2.32456734E-10
  -2.35500000E-02   1.72679787E-10
  -2.34999992E-02   9.17684886E-11
  -2.34500002E-02   1.61783295E-11
  -2.33999994E-02  -3.03756707E-11
  -2.33500004E-02  -3.76899033E-11
  -2.32999995E-02  -1.39937159E-11
  -2.32500006E-02   1.73501023E-11
  -2.31999997E-02   2.80780347E-11
  -2.31500007E-02  -2.26041061E-12
  -2.30999999E-02  -7.67906849E-11
  -2.30500009E-02  -1.79379595E-10
  -2.30000000E-02  -2.81343671E-10
  -2.29499992E-02  -3.53985563E-10
  -2.29000002E-02  -3.81441462E-10
  -2.28499994E-02  -3.68047925E-10
  -2.28000004E-02  -3.36764172E-10
  -2.27499995E-02  -3.19139465E-10
  -2.27000006E-02  -3.41144918E-10
  -2.26499997E-02  -4.11165657E-10
  -2.26000007E-02  -5.15630816E-10
  -2.25499999E-02  -6.24451435E-10
  -2.25000009E-02  -7.04061032E-10
  -2.24500000E-02  -7.32363281E-10
  -2.23999992E-02  -7.08886450E-10
  -2.23500002E-02  -6.55431542E-10
  -2.22999994E-02  -6.06676154E-10
  -2.22500004E-02  -5.94713889E-10
  -2.21999995E-02  -6.34355457E-10
  -2.21500006E-02  -7.15850823E-10
  -2.20999997E-02  -8.08515754E-10
  -2.20500007E-02  -8.73915718E-10
  -2.19999999E-02  -8.82902973E-10
  -2.19500009E-02  -8.28911051E-10
  -2.19000001E-02  -7.31403160E-10
  -2.18499992E-02  -6.27648378E-10
  -2.18000002E-02  -5.56233504E-10
  -2.17499994E-02  -5.39543743E-10
  -2.17000004E-02  -5.73106396E-10
  -2.16499995E-02  -6.26812158E-10
  -2.16000006E-02  -6.57788823E-10
  -2.15499997E-02  -6.29426955E-10
  -2.15000007E-02  -5.28124600E-10
  -2.14499999E-02  -3.70101311E-10
  -2.14000009E-02  -1.94922120E-10
  -2.13500001E-02  -4.82898582E-11
  -2.12999992E-02   3.84110140E-11
  -2.12500002E-02   6.26463048E-11
  -2.11999994E-02   5.25849225E-11
  -2.11500004E-02   5.50716729E-11
  -2.10999995E-02   1.14768396E-10
  -2.10500006E-02   2.53659732E-10
  -2.09999997E-02   4.60229022E-10
  -2.09500007E-02   6.93489932E-10
  -2.08999999E-02   9.00477359E-10
  -2.08500009E-02   1.03966025E-09
  -2.08000001E-02   1.09982612E-09
  -2.07499992E-02   1.10573140E-09
  -2.07000002E-02   1.10756526E-09
  -2.06499994E-02   1.15852461E-09
  -2.06000004E-02   1.29033406E-09
  -2.05499995E-02   1.49777157E-09
  -2.05000006E-02   1.73950121E-09
  -2.04499997E-02   1.95533301E-09
  -2.04000007E-02   2.09256101E-09
  -2.03499999E-02   2.12968954E-09
  -2.03000009E-02   2.08668238E-09
  -2.02500001E-02   2.01667127E-09
  -2.01999992E-02   1.98233319E-09
  -2.01500002E-02   2.02721795E-09
  -2.00999994E-02   2.15492846E-09
  -2.00500004E-02   2.32586395E-09
  -1.99999996E-02   2.47354914E-09
  -1.99500006E-02   2.53371923E-09
  -1.98999997E-02   2.47331022E-09
  -1.98500007E-02   2.30613706E-09
  -1.97999999E-02   2.08771356E-09
  -1.97500009E-02   1.89093607E-09
  -1.97000001E-02   1.77312165E-09
  -1.96499992E-02   1.74915604E-09
  -1.96000002E-02   1.78319759E-09
  -1.95499994E-02   1.80329018E-09
  -1.95000004E-02   1.73294867E-09
  -1.94499996E-02   1.52583790E-09
  -1.94000006E-02   1.18783161E-09
  -1.93499997E-02   7.75998932E-10
  -1.93000007E-02   3.74268422E-10
  -1.92499999E-02   5.61612944E-11
  -1.92000009E-02  -1.48803497E-10
  -1.91500001E-02  -2.69568368E-10
  -1.90999992E-02  -3.81682241E-10
  -1.90500002E-02  -5.73712522E-10
  -1.89999994E-02  -9.06597797E-10
  -1.89500004E-02  -1.38428380E-09
  -1.88999996E-02  -1.94940508E-09
  -1.88500006E-02  -2.50676235E-09
  -1.87999997E-02  -2.96473823E-09
  -1.87500007E-02  -3.27629301E-09
  -1.86999999E-02  -3.46079765E-09
  -1.86500009E-02  -3.59614538E-09
  -1.86000001E-02  -3.78384124E-09
  -1.85499992E-02  -4.10217327E-09
  -1.85000002E-02  -4.56851756E-09
  -1.84499994E-02  -5.12827558E-09
  -1.84000004E-02  -5.67631453E-09
  -1.83499996E-02  -6.10212103E-09
  -1.83000006E-02  -6.33875841E-09
  -1.82499997E-02  -6.39337383E-09
  -1.82000007E-02  -6.34476649E-09
  -1.81499999E-02  -6.30813535E-09
  -1.81000009E-02  -6.38214015E-09
  -1.80500001E-02  -6.60193455E-09
  -1.79999992E-02  -6.91983626E-09
  -1.79500002E-02  -7.22330817E-09
  -1.78999994E-02  -7.38317851E-09
  -1.78500004E-02  -7.31096828E-09
  -1.77999996E-02  -6.99941394E-09
  -1.77500006E-02  -6.52716947E-09
  -1.76999997E-02  -6.02451289E-09
  -1.76500008E-02  -5.61452218E-09
  -1.75999999E-02  -5.35591482E-09
  -1.75500009E-02  -5.21373078E-09
  -1.75000001E-02  -5.07201614E-09
  -1.74499992E-02  -4.78400430E-09
  -1.74000002E-02  -4.23795488E-09
  -1.73499994E-02  -3.40907125E-09
  -1.73000004E-02  -2.37333109E-09
  -1.72499996E-02  -1.27585242E-09
  -1.72000006E-02  -2.66932587E-10
  -1.71499997E-02   5.65971436E-10
  -1.71000008E-02   1.23934818E-09
  -1.70499999E-02   1.86831084E-09
  -1.70000009E-02   2.61590349E-09
  -1.69500001E-02   3.61892694E-09
  -1.68999992E-02   4.92340391E-09
  -1.68500002E-02   6.45939702E-09
  -1.67999994E-02   8.06784328E-09
  -1.67500004E-02   9.56855306E-09
  -1.66999996E-02   1.08395248E-08
  -1.66500006E-02   1.18716921E-08
  -1.65999997E-02   1.27734836E-08
  -1.65500008E-02   1.37217473E-08
  -1.64999999E-02   1.48799657E-08
  -1.64500009E-02   1.63200919E-08
  -1.64000001E-02   1.79837762E-08
  -1.63499992E-02   1.97017798E-08
  -1.63000003E-02   2.12641798E-08
  -1.62499994E-02   2.25108732E-08
  -1.62000004E-02   2.34016859E-08
  -1.61499996E-02   2.40335503E-08
  -1.61000006E-02   2.45955629E-08
  -1.60499997E-02   2.52808139E-08
  -1.60000008E-02   2.61939270E-08
  -1.59499999E-02   2.72962879E-08
  -1.59000009E-02   2.84149078E-08
  -1.58500001E-02   2.93125151E-08
  -1.57999992E-02   2.97886782E-08
  -1.57500003E-02   2.97667047E-08
  -1.56999994E-02   2.93264844E-08
  -1.56500004E-02   2.86669710E-08
  -1.55999996E-02   2.80136181E-08
  -1.55499997E-02   2.75114083E-08
  -1.54999997E-02   2.71518843E-08
  -1.54499998E-02   2.67680882E-08
  -1.53999999E-02   2.61014126E-08
  -1.53500000E-02   2.49118823E-08
  -1.53000001E-02   2.30827819E-08
  -1.52500002E-02   2.06720667E-08
  -1.52000003E-02   1.78859860E-08
  -1.51500003E-02   1.49848312E-08
  -1.51000004E-02   1.21621628E-08
  -1.50499996E-02   9.45157641E-09
  -1.49999997E-02   6.70389655E-09
  -1.49499997E-02   3.64694674E-09
  -1.48999998E-02   2.68408516E-12
  -1.48499999E-02  -4.38992354E-09
  -1.48000000E-02  -9.50196988E-09
  -1.47500001E-02  -1.51256838E-08
  -1.47000002E-02  -2.09664552E-08
  -1.46500003E-02  -2.67760090E-08
  -1.46000003E-02  -3.24673053E-08
  -1.45500004E-02  -3.81587206E-08
  -1.44999996E-02  -4.41258514E-08
  -1.44499997E-02  -5.06807041E-08
  -1.43999998E-02  -5.80314818E-08
  -1.43499998E-02  -6.61856632E-08
  -1.42999999E-02  -7.49412692E-08
  -1.42500000E-02  -8.39722958E-08
  -1.42000001E-02  -9.29718382E-08
  -1.41500002E-02  -1.01789247E-07
  -1.41000003E-02  -1.10499279E-07
  -1.40500003E-02  -1.19370753E-07
  -1.40000004E-02  -1.28746535E-07
  -1.39499996E-02  -1.38887259E-07
  -1.38999997E-02  -1.49848404E-07
  -1.38499998E-02  -1.61447375E-07
  -1.37999998E-02  -1.73336886E-07
  -1.37499999E-02  -1.85154022E-07
  -1.37000000E-02  -1.96679224E-07
  -1.36500001E-02  -2.07933795E-07
  -1.36000002E-02  -2.19170346E-07
  -1.35500003E-02  -2.30758857E-07
  -1.35000004E-02  -2.43017581E-07
  -1.34500004E-02  -2.56063203E-07
  -1.33999996E-02  -2.69749250E-07
  -1.33499997E-02  -2.83721619E-07
  -1.32999998E-02  -2.97568278E-07
  -1.32499998E-02  -3.10998473E-07
  -1.31999999E-02  -3.23971079E-07
  -1.31500000E-02  -3.36712787E-07
  -1.31000001E-02  -3.49616556E-07
  -1.30500002E-02  -3.63063435E-07
  -1.30000003E-02  -3.77246522E-07
  -1.29500004E-02  -3.92076259E-07
  -1.29000004E-02  -4.07211161E-07
  -1.28499996E-02  -4.22203016E-07
  -1.27999997E-02  -4.36693227E-07
  -1.27499998E-02  -4.50572429E-07
  -1.26999998E-02  -4.64031132E-07
  -1.26499999E-02  -4.77477272E-07
  -1.26000000E-02  -4.91355422E-07
  -1.25500001E-02  -5.05946673E-07
  -1.25000002E-02  -5.21237212E-07
  -1.24500003E-02  -5.36919401E-07
  -1.24000004E-02  -5.52524057E-07
  -1.23500004E-02  -5.67629002E-07
  -1.22999996E-02  -5.82049495E-07
  -1.22499997E-02  -5.95926281E-07
  -1.21999998E-02  -6.09671247E-07
  -1.21499998E-02  -6.23788935E-07
  -1.20999999E-02  -6.38656502E-07
  -1.20500000E-02  -6.54355460E-07
  -1.20000001E-02  -6.70634563E-07
  -1.19500002E-02  -6.87022350E-07
  -1.19000003E-02  -7.03040484E-07
  -1.18500004E-02  -7.18425042E-07
  -1.18000004E-02  -7.33253842E-07
  -1.17499996E-02  -7.47925753E-07
  -1.16999997E-02  -7.62996933E-07
  -1.16499998E-02  -7.78943956E-07
  -1.15999999E-02  -7.95958442E-07
  -1.15499999E-02  -8.13866336E-07
  -1.15000000E-02  -8.32213516E-07
  -1.14500001E-02  -8.50475260E-07
  -1.14000002E-02  -8.68300276E-07
  -1.13500003E-02  -8.85683278E-07
  -1.13000004E-02  -9.02985335E-07
  -1.12500004E-02  -9.20794150E-07
  -1.11999996E-02  -9.39675886E-07
  -1.11499997E-02  -9.59937324E-07
  -1.10999998E-02  -9.81500193E-07
  -1.10499999E-02  -1.00394550E-06
  -1.09999999E-02  -1.02671106E-06
  -1.09500000E-02  -1.04935725E-06
  -1.09000001E-02  -1.07178346E-06
  -1.08500002E-02  -1.09429573E-06
  -1.08000003E-02  -1.11749057E-06
  -1.07500004E-02  -1.14201146E-06
  -1.07000005E-02  -1.16828130E-06
  -1.06499996E-02  -1.19632898E-06
  -1.05999997E-02  -1.22579024E-06
  -1.05499998E-02  -1.25608005E-06
  -1.04999999E-02  -1.28666920E-06
  -1.04499999E-02  -1.31733555E-06
  -1.04000000E-02  -1.34828565E-06
  -1.03500001E-02  -1.38009068E-06
  -1.03000002E-02  -1.41344788E-06
  -1.02500003E-02  -1.44888929E-06
  -1.02000004E-02  -1.48656136E-06
  -1.01500005E-02  -1.52617213E-06
  -1.00999996E-02  -1.56713293E-06
  -1.00499997E-02  -1.60883303E-06
  -9.99999978E-03  -1.65092763E-06
  -9.94999986E-03  -1.69351290E-06
  -9.89999995E-03  -1.73710828E-06
  -9.85000003E-03  -1.78244625E-06
  -9.80000012E-03  -1.83015993E-06
  -9.75000020E-03  -1.88052513E-06
  -9.70000029E-03  -1.93335131E-06
  -9.65000037E-03  -1.98806720E-06
  -9.60000046E-03  -2.04398998E-06
  -9.54999961E-03  -2.10064491E-06
  -9.49999969E-03  -2.15797922E-06
  -9.44999978E-03  -2.21641631E-06
  -9.39999986E-03  -2.27668670E-06
  -9.34999995E-03  -2.33951732E-06
  -9.30000003E-03  -2.40531654E-06
  -9.25000012E-03  -2.47400612E-06
  -9.20000020E-03  -2.54506608E-06
  -9.15000029E-03  -2.61776313E-06
  -9.10000037E-03  -2.69148882E-06
  -9.05000046E-03  -2.76605306E-06
  -8.99999961E-03  -2.84178282E-06
  -8.94999970E-03  -2.91938841E-06
  -8.89999978E-03  -2.99967246E-06
  -8.84999987E-03  -3.08318977E-06
  -8.79999995E-03  -3.17001286E-06
  -8.75000004E-03  -3.25970882E-06
  -8.70000012E-03  -3.35154050E-06
  -8.65000021E-03  -3.44480759E-06
  -8.60000029E-03  -3.53917494E-06
  -8.55000038E-03  -3.63483082E-06
  -8.50000046E-03  -3.73243370E-06
  -8.44999962E-03  -3.83284714E-06
  -8.39999970E-03  -3.93675464E-06
  -8.34999979E-03  -4.04438060E-06
  -8.29999987E-03  -4.15540262E-06
  -8.24999996E-03  -4.26910765E-06
  -8.20000004E-03  -4.38473444E-06
  -8.15000013E-03  -4.50180960E-06
  -8.10000021E-03  -4.62039679E-06
  -8.05000030E-03  -4.74106719E-06
  -8.00000038E-03  -4.86469025E-06
  -7.95000046E-03  -4.99209364E-06
  -7.89999962E-03  -5.12368615E-06
  -7.84999970E-03  -5.25931773E-06
  -7.79999979E-03  -5.39837492E-06
  -7.74999987E-03  -5.54006010E-06
  -7.69999996E-03  -5.68378391E-06
  -7.65000004E-03  -5.82944767E-06
  -7.60000013E-03  -5.97752478E-06
  -7.55000021E-03  -6.12890244E-06
  -7.49999983E-03  -6.28451971E-06
  -7.44999992E-03  -6.44497686E-06
  -7.40000000E-03  -6.61030526E-06
  -7.35000009E-03  -6.77999014E-06
  -7.30000017E-03  -6.95323024E-06
  -7.24999979E-03  -7.12933570E-06
  -7.19999988E-03  -7.30805095E-06
  -7.14999996E-03  -7.48973116E-06
  -7.10000005E-03  -7.67523670E-06
  -7.05000013E-03  -7.86557393E-06
  -7.00000022E-03  -8.06152002E-06
  -6.94999984E-03  -8.26330233E-06
  -6.89999992E-03  -8.47055708E-06
  -6.85000001E-03  -8.68253392E-06
  -6.80000009E-03  -8.89845978E-06
  -6.75000018E-03  -9.11793541E-06
  -6.69999979E-03  -9.34117907E-06
  -6.64999988E-03  -9.56898566E-06
  -6.59999996E-03  -9.80240111E-06
  -6.55000005E-03  -1.00423404E-05
  -6.50000013E-03  -1.02892609E-05
  -6.45000022E-03  -1.05430063E-05
  -6.39999984E-03  -1.08028908E-05
  -6.34999992E-03  -1.10680785E-05
  -6.30000001E-03  -1.13380520E-05
  -6.25000009E-03  -1.16128485E-05
  -6.20000018E-03  -1.18931166E-05
  -6.14999980E-03  -1.21798994E-05
  -6.09999988E-03  -1.24742346E-05
  -6.04999997E-03  -1.27767453E-05
  -6.00000005E-03  -1.30874650E-05
  -5.95000014E-03  -1.34058673E-05
  -5.90000022E-03  -1.37311172E-05
  -5.84999984E-03  -1.40625434E-05
  -5.79999993E-03  -1.43999960E-05
  -5.75000001E-03  -1.47439741E-05
  -5.70000010E-03  -1.50954529E-05
  -5.65000018E-03  -1.54554946E-05
  -5.59999980E-03  -1.58249186E-05
  -5.54999989E-03  -1.62039632E-05
  -5.49999997E-03  -1.65922556E-05
  -5.45000006E-03  -1.69890518E-05
  -5.40000014E-03  -1.73935750E-05
  -5.35000023E-03  -1.78054543E-05
  -5.29999984E-03  -1.82249569E-05
  -5.24999993E-03  -1.86529596E-05
  -5.20000001E-03  -1.90905794E-05
  -5.15000010E-03  -1.95387784E-05
  -5.10000018E-03  -1.99980113E-05
  -5.04999980E-03  -2.04680764E-05
  -4.99999989E-03  -2.09482514E-05
  -4.94999997E-03  -2.14377324E-05
  -4.90000006E-03  -2.19360190E-05
  -4.85000014E-03  -2.24431278E-05
  -4.80000023E-03  -2.29597481E-05
  -4.74999985E-03  -2.34869567E-05
  -4.69999993E-03  -2.40258196E-05
  -4.65000002E-03  -2.45770061E-05
  -4.60000010E-03  -2.51405618E-05
  -4.55000019E-03  -2.57159081E-05
  -4.49999981E-03  -2.63021739E-05
  -4.44999989E-03  -2.68986769E-05
  -4.39999998E-03  -2.75052371E-05
  -4.35000006E-03  -2.81223292E-05
  -4.30000015E-03  -2.87510084E-05
  -4.25000023E-03  -2.93924513E-05
  -4.19999985E-03  -3.00475458E-05
  -4.14999994E-03  -3.07165974E-05
  -4.10000002E-03  -3.13991513E-05
  -4.05000011E-03  -3.20944164E-05
  -4.00000019E-03  -3.28014867E-05
  -3.94999981E-03  -3.35199293E-05
  -3.89999989E-03  -3.42501407E-05
  -3.84999998E-03  -3.49930924E-05
  -3.80000006E-03  -3.57500248E-05
  -3.74999992E-03  -3.65218839E-05
  -3.70000000E-03  -3.73092153E-05
  -3.65000009E-03  -3.81118662E-05
  -3.59999994E-03  -3.89290290E-05
  -3.55000002E-03  -3.97597942E-05
  -3.50000011E-03  -4.06036452E-05
  -3.44999996E-03  -4.14606875E-05
  -3.40000005E-03  -4.23316960E-05
  -3.34999990E-03  -4.32177876E-05
  -3.29999998E-03  -4.41201482E-05
  -3.25000007E-03  -4.50395892E-05
  -3.19999992E-03  -4.59761759E-05
  -3.15000000E-03  -4.69294100E-05
  -3.10000009E-03  -4.78984257E-05
  -3.04999994E-03  -4.88825935E-05
  -3.00000003E-03  -4.98817462E-05
  -2.95000011E-03  -5.08962548E-05
  -2.89999996E-03  -5.19272580E-05
  -2.85000005E-03  -5.29761201E-05
  -2.79999990E-03  -5.40438050E-05
  -2.74999999E-03  -5.51306985E-05
  -2.70000007E-03  -5.62364730E-05
  -2.64999992E-03  -5.73605284E-05
  -2.60000001E-03  -5.85020425E-05
  -2.55000009E-03  -5.96603495E-05
  -2.49999994E-03  -6.08357368E-05
  -2.45000003E-03  -6.20293140E-05
  -2.40000011E-03  -6.32424781E-05
  -2.34999997E-03  -6.44763277E-05
  -2.30000005E-03  -6.57313794E-05
  -2.24999990E-03  -6.70076697E-05
  -2.19999999E-03  -6.83047256E-05
  -2.15000007E-03  -6.96216666E-05
  -2.09999993E-03  -7.09576416E-05
  -2.05000001E-03  -7.23127523E-05
  -2.00000009E-03  -7.36878428E-05
  -1.94999995E-03  -7.50844047E-05
  -1.90000003E-03  -7.65038931E-05
  -1.85000000E-03  -7.79469992E-05
  -1.79999997E-03  -7.94137377E-05
  -1.75000005E-03  -8.09036428E-05
  -1.70000002E-03  -8.24161034E-05
  -1.64999999E-03  -8.39501445E-05
  -1.59999996E-03  -8.55054313E-05
  -1.55000004E-03  -8.70826989E-05
  -1.50000001E-03  -8.86831112E-05
  -1.44999998E-03  -9.03082400E-05
  -1.39999995E-03  -9.19592712E-05
  -1.35000004E-03  -9.36366487E-05
  -1.30000000E-03  -9.53399576E-05
  -1.24999997E-03  -9.70682813E-05
  -1.20000006E-03  -9.88208121E-05
  -1.15000003E-03  -1.00596408E-04
  -1.09999999E-03  -1.02395250E-04
  -1.04999996E-03  -1.04218954E-04
  -1.00000005E-03  -1.06069274E-04
  -9.50000016E-04  -1.07947395E-04
  -8.99999985E-04  -1.09853812E-04
  -8.50000011E-04  -1.11788671E-04
  -7.99999980E-04  -1.13751172E-04
  -7.50000007E-04  -1.15740266E-04
  -6.99999975E-04  -1.17754906E-04
  -6.50000002E-04  -1.19794669E-04
  -6.00000028E-04  -1.21860190E-04
  -5.49999997E-04  -1.23953141E-04
  -5.00000024E-04  -1.26075174E-04
  -4.49999992E-04  -1.28227563E-04
  -3.99999990E-04  -1.30410845E-04
  -3.49999988E-04  -1.32624205E-04
  -3.00000014E-04  -1.34866452E-04
  -2.50000012E-04  -1.37136187E-04
  -1.99999995E-04  -1.39432304E-04
  -1.50000007E-04  -1.41754965E-04
  -9.99999975E-05  -1.44105856E-04
  -4.99999987E-05  -1.46486447E-04
   0.00000000      -1.48898296E-04
   4.99999987E-05  -1.51342974E-04
   9.99999975E-05  -1.53820089E-04
   1.50000007E-04  -1.56327995E-04
   1.99999995E-04  -1.58864612E-04
   2.50000012E-04  -1.61427975E-04
   3.00000014E-04  -1.64017780E-04
   3.49999988E-04  -1.66635713E-04
   3.99999990E-04  -1.69284162E-04
   4.49999992E-04  -1.71964930E-04
   5.00000024E-04  -1.74678862E-04
   5.49999997E-04  -1.77426627E-04
   6.00000028E-04  -1.80206960E-04
   6.50000002E-04  -1.83016629E-04
   6.99999975E-04  -1.85853583E-04
   7.50000007E-04  -1.88716978E-04
   7.99999980E-04  -1.91607629E-04
   8.50000011E-04  -1.94527747E-04
   8.99999985E-04  -1.97479734E-04
   9.50000016E-04  -2.00465467E-04
   1.00000005E-03  -2.03485484E-04
   1.04999996E-03  -2.06539073E-04
   1.09999999E-03  -2.09623337E-04
   1.15000003E-03  -2.12735060E-04
   1.20000006E-03  -2.15872235E-04
   1.24999997E-03  -2.19034657E-04
   1.30000000E-03  -2.22224538E-04
   1.35000004E-03  -2.25444470E-04
   1.39999995E-03  -2.28697070E-04
   1.44999998E-03  -2.31983751E-04
   1.50000001E-03  -2.35304455E-04
   1.55000004E-03  -2.38656154E-04
   1.59999996E-03  -2.42035108E-04
   1.64999999E-03  -2.45438569E-04
   1.70000002E-03  -2.48864177E-04
   1.75000005E-03  -2.52313446E-04
   1.79999997E-03  -2.55790597E-04
   1.85000000E-03  -2.59298919E-04
   1.90000003E-03  -2.62839807E-04
   1.94999995E-03  -2.66412972E-04
   2.00000009E-03  -2.70016608E-04
   2.05000001E-03  -2.73646379E-04
   2.09999993E-03  -2.77297688E-04
   2.15000007E-03  -2.80968234E-04
   2.19999999E-03  -2.84657319E-04
   2.24999990E-03  -2.88368348E-04
   2.30000005E-03  -2.92108132E-04
   2.34999997E-03  -2.95879930E-04
   2.40000011E-03  -2.99681531E-04
   2.45000003E-03  -3.03509936E-04
   2.49999994E-03  -3.07360606E-04
   2.55000009E-03  -3.11227865E-04
   2.60000001E-03  -3.15108249E-04
   2.64999992E-03  -3.19003011E-04
   2.70000007E-03  -3.22918291E-04
   2.74999999E-03  -3.26857669E-04
   2.79999990E-03  -3.30821204E-04