  -3.99999991E-02   0.00000000    
  -3.99499983E-02   0.00000000    
  -3.99000011E-02   0.00000000    
  -3.98500003E-02   0.00000000    
  -3.97999994E-02  -1.32518696E-20
  -3.97499986E-02  -1.17015244E-19
  -3.97000015E-02  -5.22917630E-19
  -3.96500006E-02  -1.55479711E-18
  -3.95999998E-02  -3.36675620E-18
  -3.95499989E-02  -5.34471090E-18
  -3.95000018E-02  -5.44617659E-18
  -3.94500010E-02  -8.71193148E-20
  -3.94000001E-02   1.47395082E-17
  -3.93499993E-02   4.09187786E-17
  -3.92999984E-02   7.50821453E-17
  -3.92500013E-02   1.06809200E-16
  -3.92000005E-02   1.20359623E-16
  -3.91499996E-02   1.00897440E-16
  -3.90999988E-02   4.35102627E-17
  -3.90500017E-02  -3.95070063E-17
  -3.90000008E-02  -1.18643826E-16
  -3.89500000E-02  -1.57627220E-16
  -3.88999991E-02  -1.32083552E-16
  -3.88499983E-02  -4.81687520E-17
  -3.88000011E-02   4.98898932E-17
  -3.87500003E-02   9.13140626E-17
  -3.86999995E-02   8.58076636E-18
  -3.86499986E-02  -2.26033495E-16
  -3.86000015E-02  -5.75858261E-16
  -3.85500006E-02  -9.44391444E-16
  -3.84999998E-02  -1.21463265E-15
  -3.84499989E-02  -1.31079270E-15
  -3.84000018E-02  -1.25395086E-15
  -3.83500010E-02  -1.17891782E-15
  -3.83000001E-02  -1.29270452E-15
  -3.82499993E-02  -1.78258761E-15
  -3.81999984E-02  -2.71145644E-15
  -3.81500013E-02  -3.95350087E-15
  -3.81000005E-02  -5.21279407E-15
  -3.80499996E-02  -6.13188835E-15
  -3.79999988E-02  -6.45185885E-15
  -3.79500017E-02  -6.15171146E-15
  -3.79000008E-02  -5.49295572E-15
  -3.78500000E-02  -4.93060462E-15
  -3.77999991E-02  -4.91310873E-15
  -3.77499983E-02  -5.65380728E-15
  -3.77000012E-02  -6.98410132E-15
  -3.76500003E-02  -8.37390324E-15
  -3.75999995E-02  -9.13236280E-15
  -3.75499986E-02  -8.71235643E-15
  -3.75000015E-02  -6.98059122E-15
  -3.74500006E-02  -4.31687758E-15
  -3.73999998E-02  -1.47675387E-15
  -3.73499990E-02   7.38645711E-16
  -3.73000018E-02   1.86442391E-15
  -3.72500010E-02   2.02896197E-15
  -3.72000001E-02   1.95659825E-15
  -3.71499993E-02   2.69833251E-15
  -3.70999984E-02   5.20000726E-15
  -3.70500013E-02   9.89791457E-15
  -3.70000005E-02   1.65242762E-14
  -3.69499996E-02   2.42090453E-14
  -3.68999988E-02   3.18260026E-14
  -3.68500017E-02   3.84208724E-14
  -3.68000008E-02   4.35328890E-14
  -3.67500000E-02   4.72892057E-14
  -3.66999991E-02   5.02705313E-14
  -3.66499983E-02   5.32484891E-14
  -3.66000012E-02   5.69259876E-14
  -3.65500003E-02   6.17659881E-14
  -3.64999995E-02   6.79114154E-14
  -3.64499986E-02   7.51418513E-14
  -3.64000015E-02   8.28240539E-14
  -3.63500006E-02   8.98867027E-14
  -3.62999998E-02   9.49265013E-14
  -3.62499990E-02   9.65552711E-14
  -3.62000018E-02   9.39811719E-14
  -3.61500010E-02   8.76178944E-14
  -3.61000001E-02   7.93525469E-14
  -3.60499993E-02   7.21199969E-14
  -3.59999985E-02   6.87036962E-14
  -3.59500013E-02   7.01341722E-14
  -3.59000005E-02   7.44569879E-14
  -3.58499996E-02   7.67214458E-14
  -3.57999988E-02   7.06361036E-14
  -3.57500017E-02   5.15295170E-14
  -3.57000008E-02   1.93940543E-14
  -3.56500000E-02  -1.96435157E-14
  -3.55999991E-02  -5.47150046E-14
  -3.55499983E-02  -7.45611729E-14
  -3.55000012E-02  -7.33434513E-14
  -3.54500003E-02  -5.52077203E-14
  -3.53999995E-02  -3.48248109E-14
  -3.53499986E-02  -3.25566160E-14
  -3.53000015E-02  -6.54088193E-14
  -3.52500007E-02  -1.37444364E-13
  -3.51999998E-02  -2.34496613E-13
  -3.51499990E-02  -3.26906064E-13
  -3.51000018E-02  -3.80689810E-13
  -3.50500010E-02  -3.73299021E-13
  -3.50000001E-02  -3.06950537E-13
  -3.49499993E-02  -2.12298102E-13
  -3.48999985E-02  -1.38662356E-13
  -3.48500013E-02  -1.33115686E-13
  -3.48000005E-02  -2.16809426E-13
  -3.47499996E-02  -3.69919752E-13
  -3.46999988E-02  -5.34344812E-13
  -3.46500017E-02  -6.35985568E-13
  -3.46000008E-02  -6.18896427E-13
  -3.45500000E-02  -4.76254995E-13
  -3.44999991E-02  -2.62090859E-13
  -3.44499983E-02  -7.46377854E-14
  -3.44000012E-02  -1.48667869E-14
  -3.43500003E-02  -1.36783908E-13
  -3.42999995E-02  -4.12920593E-13
  -3.42499986E-02  -7.34661464E-13
  -3.42000015E-02  -9.52837852E-13
  -3.41500007E-02  -9.44807492E-13
  -3.40999998E-02  -6.78899753E-13
  -3.40499990E-02  -2.43904750E-13
  -3.40000018E-02   1.76313255E-13
  -3.39500010E-02   3.78805385E-13
  -3.39000002E-02   2.38160484E-13
  -3.38499993E-02  -2.20842089E-13
  -3.37999985E-02  -8.13801825E-13
  -3.37500013E-02  -1.26422180E-12
  -3.37000005E-02  -1.32576383E-12
  -3.36499996E-02  -9.06925956E-13
  -3.35999988E-02  -1.37335618E-13
  -3.35500017E-02   6.64909479E-13
  -3.35000008E-02   1.12244534E-12
  -3.34500000E-02   9.74358615E-13
  -3.33999991E-02   2.18899023E-13
  -3.33499983E-02  -8.50757615E-13
  -3.33000012E-02  -1.74915247E-12
  -3.32500003E-02  -2.00765229E-12
  -3.31999995E-02  -1.40212321E-12
  -3.31499986E-02  -9.11051020E-14
  -3.31000015E-02   1.41364665E-12
  -3.30500007E-02   2.45068614E-12
  -3.29999998E-02   2.50925387E-12
  -3.29499990E-02   1.49299269E-12
  -3.29000019E-02  -1.84771076E-13
  -3.28500010E-02  -1.74011630E-12
  -3.28000002E-02  -2.35231387E-12
  -3.27499993E-02  -1.55386836E-12
  -3.26999985E-02   5.04789027E-13
  -3.26500013E-02   3.05785020E-12
  -3.26000005E-02   5.02298680E-12
  -3.25499997E-02   5.48588952E-12
  -3.24999988E-02   4.15804370E-12
  -3.24500017E-02   1.58460831E-12
  -3.24000008E-02  -1.02497676E-12
  -3.23500000E-02  -2.30347577E-12
  -3.22999991E-02  -1.36287834E-12
  -3.22499983E-02   1.72943214E-12
  -3.22000012E-02   5.88056296E-12
  -3.21500003E-02   9.38435354E-12
  -3.20999995E-02   1.06690533E-11
  -3.20499986E-02   9.05758975E-12
  -3.20000015E-02   5.17834603E-12
  -3.19500007E-02   7.94665386E-13
  -3.18999998E-02  -1.92419388E-12
  -3.18499990E-02  -1.39868434E-12
  -3.18000019E-02   2.54723803E-12
  -3.17500010E-02   8.46020129E-12
  -3.17000002E-02   1.37848517E-11
  -3.16499993E-02   1.59670766E-11
  -3.15999985E-02   1.36639536E-11
  -3.15500014E-02   7.49554325E-12
  -3.15000005E-02  -6.23271169E-14
  -3.14499997E-02  -5.67453289E-12
  -3.13999988E-02  -6.64301643E-12
  -3.13500017E-02  -2.24015663E-12
  -3.13000008E-02   5.76750887E-12
  -3.12500000E-02   1.37268981E-11
  -3.11999992E-02   1.76519337E-11
  -3.11500002E-02   1.50728787E-11
  -3.10999993E-02   6.33333446E-12
  -3.10500003E-02  -5.32679456E-12
  -3.09999995E-02  -1.50476333E-11
  -3.09500005E-02  -1.85001996E-11
  -3.08999997E-02  -1.39717248E-11
  -3.08500007E-02  -3.39557115E-12
  -3.07999998E-02   8.24999097E-12
  -3.07500008E-02   1.50287543E-11
  -3.07000000E-02   1.27605903E-11
  -3.06499992E-02   1.13623802E-12
  -3.06000002E-02  -1.58124971E-11
  -3.05499993E-02  -3.12439727E-11
  -3.05000003E-02  -3.84828558E-11
  -3.04499995E-02  -3.41593594E-11
  -3.04000005E-02  -2.00496217E-11
  -3.03499997E-02  -2.64902705E-12
  -3.03000007E-02   9.50141268E-12
  -3.02499998E-02   9.65822040E-12
  -3.02000009E-02  -3.82279104E-12
  -3.01500000E-02  -2.63163571E-11
  -3.00999992E-02  -4.86023201E-11
  -3.00500002E-02  -6.08188500E-11
  -2.99999993E-02  -5.70170751E-11
  -2.99500003E-02  -3.82307519E-11
  -2.98999995E-02  -1.25128987E-11
  -2.98500005E-02   8.30460787E-12
  -2.97999997E-02   1.38575861E-11
  -2.97500007E-02   1.99094647E-13
  -2.96999998E-02  -2.78813327E-11
  -2.96500009E-02  -5.84431323E-11
  -2.96000000E-02  -7.74280778E-11
  -2.95499992E-02  -7.50425555E-11
  -2.95000002E-02  -5.06105782E-11
  -2.94499993E-02  -1.35285550E-11
  -2.94000003E-02   2.03967589E-11
  -2.93499995E-02   3.58449173E-11
  -2.93000005E-02   2.51283647E-11
  -2.92499997E-02  -7.71782291E-12
  -2.92000007E-02  -4.80132288E-11
  -2.91499998E-02  -7.65267225E-11
  -2.91000009E-02  -7.80950304E-11
  -2.90500000E-02  -4.89310571E-11
  -2.89999992E-02   8.58848149E-13
  -2.89500002E-02   5.10350373E-11
  -2.88999993E-02   7.99313948E-11
  -2.88500004E-02   7.43949555E-11
  -2.87999995E-02   3.64301332E-11
  -2.87500005E-02  -1.67451279E-11
  -2.86999997E-02  -5.96816832E-11
  -2.86500007E-02  -6.99374100E-11
  -2.85999998E-02  -3.86401813E-11
  -2.85500009E-02   2.45542493E-11
  -2.85000000E-02   9.47540865E-11
  -2.84499992E-02   1.42365481E-10
  -2.84000002E-02   1.46448756E-10
  -2.83499993E-02   1.04899603E-10
  -2.83000004E-02   3.65584264E-11
  -2.82499995E-02  -2.62182324E-11
  -2.82000005E-02  -5.16732178E-11
  -2.81499997E-02  -2.33409889E-11
  -2.81000007E-02   5.14256589E-11
  -2.80499998E-02   1.43393714E-10
  -2.80000009E-02   2.13580736E-10
  -2.79500000E-02   2.30590838E-10
  -2.78999992E-02   1.85477605E-10
  -2.78500002E-02   9.71481853E-11
  -2.77999993E-02   5.27371072E-12
  -2.77500004E-02  -4.67522028E-11
  -2.76999995E-02  -3.15407110E-11
  -2.76500005E-02   4.87937017E-11
  -2.75999997E-02   1.61917355E-10
  -2.75500007E-02   2.58390920E-10
  -2.74999999E-02   2.93363833E-10
  -2.74500009E-02   2.47367127E-10
  -2.74000000E-02   1.36613706E-10
  -2.73499992E-02   7.50450049E-12
  -2.73000002E-02  -8.30021329E-11
  -2.72499993E-02  -9.29256325E-11
  -2.72000004E-02  -1.53174591E-11
  -2.71499995E-02   1.16650481E-10
  -2.71000005E-02   2.42696502E-10
  -2.70499997E-02   3.01546205E-10
  -2.70000007E-02   2.58895322E-10
  -2.69499999E-02   1.24519603E-10
  -2.69000009E-02  -4.98655145E-11
  -2.68500000E-02  -1.92021982E-10
  -2.67999992E-02  -2.41093728E-10
  -2.67500002E-02  -1.75958470E-10
  -2.66999993E-02  -2.68904933E-11
  -2.66500004E-02   1.35647327E-10
  -2.65999995E-02   2.31128380E-10
  -2.65500005E-02   2.05209710E-10
  -2.64999997E-02   5.58670124E-11
  -2.64500007E-02  -1.63016114E-10
  -2.63999999E-02  -3.63369224E-10
  -2.63500009E-02  -4.61321037E-10
  -2.63000000E-02  -4.15575546E-10
  -2.62499992E-02  -2.48285642E-10
  -2.62000002E-02  -3.80525611E-11
  -2.61499994E-02   1.13125773E-10
  -2.61000004E-02   1.25175953E-10
  -2.60499995E-02  -2.24976357E-11
  -2.60000005E-02  -2.78694345E-10
  -2.59499997E-02  -5.40152700E-10
  -2.59000007E-02  -6.95898172E-10
  -2.58499999E-02  -6.77210732E-10
  -2.58000009E-02  -4.90763152E-10
  -2.57500000E-02  -2.19075050E-10
  -2.56999992E-02   1.34584947E-11
  -2.56500002E-02   9.51414850E-11
  -2.55999994E-02  -2.16730002E-11
  -2.55500004E-02  -2.95926089E-10
  -2.54999995E-02  -6.12317863E-10
  -2.54500005E-02  -8.30130797E-10
  -2.53999997E-02  -8.45832848E-10
  -2.53500007E-02  -6.41687092E-10
  -2.52999999E-02  -2.97680852E-10
  -2.52500009E-02   4.03007350E-11
  -2.52000000E-02   2.23605981E-10
  -2.51499992E-02   1.68043857E-10
  -2.51000002E-02  -1.05076919E-10
  -2.50499994E-02  -4.73864170E-10
  -2.50000004E-02  -7.66534836E-10
  -2.49499995E-02  -8.36957115E-10
  -2.49000005E-02  -6.31931285E-10
  -2.48499997E-02  -2.19384774E-10
  -2.48000007E-02   2.36998282E-10
  -2.47499999E-02   5.47576651E-10
  -2.47000009E-02   5.81330983E-10
  -2.46500000E-02   3.27595895E-10
  -2.45999992E-02  -9.39702829E-11
  -2.45500002E-02  -4.81926166E-10
  -2.44999994E-02  -6.40665576E-10
  -2.44500004E-02  -4.69174866E-10
  -2.43999995E-02  -1.08497291E-11
  -2.43500005E-02   5.59808810E-10
  -2.42999997E-02   1.01029840E-09
  -2.42500007E-02   1.15252574E-09
  -2.41999999E-02   9.29496979E-10
  -2.41500009E-02   4.46469695E-10
  -2.41000000E-02  -6.98377398E-11
  -2.40499992E-02  -3.68572783E-10
  -2.40000002E-02  -2.87030205E-10
  -2.39499994E-02   1.72175593E-10
  -2.39000004E-02   8.35336356E-10
  -2.38499995E-02   1.42882917E-09
  -2.38000005E-02   1.69829917E-09
  -2.37499997E-02   1.52404223E-09
  -2.37000007E-02   9.80375114E-10
  -2.36499999E-02   3.09924419E-10
  -2.36000009E-02  -1.79030027E-10
  -2.35500000E-02  -2.48982779E-10
  -2.34999992E-02   1.56757315E-10
  -2.34500002E-02   8.81099749E-10
  -2.33999994E-02   1.61524594E-09
  -2.33500004E-02   2.03163708E-09
  -2.32999995E-02   1.93068295E-09
  -2.32500006E-02   1.33569500E-09
  -2.31999997E-02   4.91177321E-10
  -2.31500007E-02  -2.38578463E-10
  -2.30999999E-02  -5.28843302E-10
  -2.30500009E-02  -2.42231679E-10
  -2.30000000E-02   5.02116348E-10
  -2.29499992E-02   1.37219358E-09
  -2.29000002E-02   1.96436334E-09
  -2.28499994E-02   1.98235184E-09
  -2.28000004E-02   1.37484624E-09
  -2.27499995E-02   3.68127279E-10
  -2.27000006E-02  -6.25012542E-10
  -2.26499997E-02  -1.18381338E-09
  -2.26000007E-02  -1.06851827E-09
  -2.25499999E-02  -3.35088846E-10
  -2.25000009E-02   6.78810230E-10
  -2.24500000E-02   1.49514756E-09
  -2.23999992E-02   1.70539394E-09
  -2.23500002E-02   1.15705512E-09
  -2.22999994E-02   3.20453247E-11
  -2.22500004E-02  -1.22243016E-09
  -2.21999995E-02  -2.08490070E-09
  -2.21500006E-02  -2.19115770E-09
  -2.20999997E-02  -1.50362378E-09
  -2.20500007E-02  -3.40064782E-10
  -2.19999999E-02   7.56460727E-10
  -2.19500009E-02   1.25374744E-09
  -2.19000001E-02   8.70345629E-10
  -2.18499992E-02  -2.88551211E-10
  -2.18000002E-02  -1.76414683E-09
  -2.17499994E-02  -2.93728419E-09
  -2.17000004E-02  -3.30077743E-09
  -2.16499995E-02  -2.69121969E-09
  -2.16000006E-02  -1.37456979E-09
  -2.15499997E-02   5.81969646E-11
  -2.15000007E-02   9.45237222E-10
  -2.14499999E-02   8.48842829E-10
  -2.14000009E-02  -2.39879949E-10
  -2.13500001E-02  -1.88185201E-09
  -2.12999992E-02  -3.37151906E-09
  -2.12500002E-02  -4.04444123E-09
  -2.11999994E-02  -3.57711816E-09
  -2.11500004E-02  -2.14401807E-09
  -2.10999995E-02  -3.56289803E-10
  -2.10500006E-02   9.97816829E-10
  -2.09999997E-02   1.30097622E-09
  -2.09500007E-02   3.89887927E-10
  -2.08999999E-02  -1.35599487E-09
  -2.08500009E-02  -3.16658100E-09
  -2.08000001E-02  -4.21390967E-09
  -2.07499992E-02  -3.98214839E-09
  -2.07000002E-02  -2.50984056E-09
  -2.06499994E-02  -3.91294025E-10
  -2.06000004E-02   1.47154744E-09
  -2.05499995E-02   2.26357555E-09
  -2.05000006E-02   1.62498692E-09
  -2.04499997E-02  -1.72594772E-10
  -2.04000007E-02  -2.32774577E-09
  -2.03499999E-02  -3.85203913E-09
  -2.03000009E-02  -4.00790601E-09
  -2.02500001E-02  -2.64801625E-09
  -2.01999992E-02  -3.00613728E-10
  -2.01500002E-02   2.04566386E-09
  -2.00999994E-02   3.37046790E-09
  -2.00500004E-02   3.07825943E-09
  -1.99999996E-02   1.27860500E-09
  -1.99500006E-02  -1.24112864E-09
  -1.98999997E-02  -3.34807471E-09
  -1.98500007E-02  -4.06154799E-09
  -1.97999999E-02  -2.99787861E-09
  -1.97500009E-02  -5.61120428E-10
  -1.97000001E-02   2.21378049E-09
  -1.96499992E-02   4.10564915E-09
  -1.96000002E-02   4.24885638E-09
  -1.95499994E-02   2.53208721E-09
  -1.95000004E-02  -3.29115846E-10
  -1.94499996E-02  -3.08840575E-09
  -1.94000006E-02  -4.51148852E-09
  -1.93499997E-02  -3.92965971E-09
  -1.93000007E-02  -1.55605295E-09
  -1.92499999E-02   1.58426705E-09
  -1.92000009E-02   4.09032141E-09
  -1.91500001E-02   4.80254858E-09
  -1.90999992E-02   3.32987726E-09
  -1.90500002E-02   2.47594362E-10
  -1.89999994E-02  -3.13222692E-09
  -1.89500004E-02  -5.32707523E-09
  -1.88999996E-02  -5.34284483E-09
  -1.88500006E-02  -3.13248849E-09
  -1.87999997E-02   3.56772667E-10
  -1.87500007E-02   3.58043306E-09
  -1.86999999E-02   5.07239806E-09
  -1.86500009E-02   4.10435552E-09
  -1.86000001E-02   1.03291975E-09
  -1.85499992E-02  -2.82959034E-09
  -1.85000002E-02  -5.77593884E-09
  -1.84499994E-02  -6.45686127E-09
  -1.84000004E-02  -4.49399407E-09
  -1.83499996E-02  -6.74573786E-10
  -1.83000006E-02   3.37058670E-09
  -1.82499997E-02   5.87539706E-09
  -1.82000007E-02   5.72611647E-09
  -1.81499999E-02   2.97774361E-09
  -1.81000009E-02  -1.13921250E-09
  -1.80500001E-02  -4.73797090E-09
  -1.79999992E-02  -6.10197848E-09
  -1.79500002E-02  -4.45667681E-09
  -1.78999994E-02  -3.39706291E-10
  -1.78500004E-02   4.60647120E-09
  -1.77999996E-02   8.34139335E-09
  -1.77500006E-02   9.32922095E-09
  -1.76999997E-02   7.23826776E-09
  -1.76500008E-02   3.11934412E-09
  -1.75999999E-02  -1.02988429E-09
  -1.75500009E-02  -3.13488258E-09
  -1.75000001E-02  -1.97001726E-09
  -1.74499992E-02   2.27247154E-09
  -1.74000002E-02   8.03343347E-09
  -1.73499994E-02   1.30500295E-08
  -1.73000004E-02   1.53493431E-08
  -1.72499996E-02   1.41360568E-08
  -1.72000006E-02   1.01747712E-08
  -1.71499997E-02   5.48406964E-09
  -1.71000008E-02   2.46275222E-09
  -1.70499999E-02   2.82555024E-09
  -1.70000009E-02   6.81940149E-09
  -1.69500001E-02   1.30772539E-08
  -1.68999992E-02   1.91892635E-08
  -1.68500002E-02   2.27525749E-08
  -1.67999994E-02   2.24418741E-08
  -1.67500004E-02   1.86227691E-08
  -1.66999996E-02   1.32237190E-08
  -1.66500006E-02   8.90703422E-09
  -1.65999997E-02   7.89360755E-09
  -1.65500008E-02   1.09585985E-08
  -1.64999999E-02   1.70503753E-08
  -1.64500009E-02   2.37163160E-08
  -1.64000001E-02   2.81631056E-08
  -1.63499992E-02   2.84922557E-08
  -1.63000003E-02   2.45624534E-08
  -1.62499994E-02   1.80863751E-08
  -1.62000004E-02   1.19023991E-08
  -1.61499996E-02   8.72830253E-09
  -1.61000006E-02   9.94250282E-09
  -1.60499997E-02   1.49372585E-08
  -1.60000008E-02   2.13442259E-08
  -1.59499999E-02   2.60498059E-08
  -1.59000009E-02   2.65635531E-08
  -1.58500001E-02   2.21366321E-08
  -1.57999992E-02   1.41265790E-08
  -1.57500003E-02   5.43053069E-09
  -1.56999994E-02  -7.79460052E-10
  -1.56500004E-02  -2.46870968E-09
  -1.55999996E-02   3.27071953E-10
  -1.55499997E-02   5.47296919E-09
  -1.54999997E-02   9.64136859E-09
  -1.54499998E-02   9.76771641E-09
  -1.53999999E-02   4.41757964E-09
  -1.53500000E-02  -5.54630697E-09
  -1.53000001E-02  -1.73070980E-08
  -1.52500002E-02  -2.73138756E-08
  -1.52000003E-02  -3.28515668E-08
  -1.51500003E-02  -3.32679519E-08
  -1.51000004E-02  -3.03044771E-08
  -1.50499996E-02  -2.73671308E-08
  -1.49999997E-02  -2.80427805E-08
  -1.49499997E-02  -3.45069004E-08
  -1.48999998E-02  -4.65306869E-08
  -1.48499999E-02  -6.15399074E-08
  -1.48000000E-02  -7.57186598E-08
  -1.47500001E-02  -8.56855351E-08
  -1.47000002E-02  -9.00055568E-08
  -1.46500003E-02  -8.98625458E-08
  -1.46000003E-02  -8.85775080E-08
  -1.45500004E-02  -9.01672834E-08
  -1.44999996E-02  -9.75682966E-08
  -1.44499997E-02  -1.11309426E-07
  -1.43999998E-02  -1.29233825E-07
  -1.43499998E-02  -1.47409935E-07
  -1.42999999E-02  -1.61846529E-07
  -1.42500000E-02  -1.70263007E-07
  -1.42000001E-02  -1.73129308E-07
  -1.41500002E-02  -1.73499629E-07
  -1.41000003E-02  -1.75693486E-07
  -1.40500003E-02  -1.83393112E-07
  -1.40000004E-02  -1.97993131E-07
  -1.39499996E-02  -2.17940041E-07
  -1.38999997E-02  -2.39370905E-07
  -1.38499998E-02  -2.57788884E-07
  -1.37999998E-02  -2.70047536E-07
  -1.37499999E-02  -2.75765842E-07
  -1.37000000E-02  -2.77536714E-07
  -1.36500001E-02  -2.79817243E-07
  -1.36000002E-02  -2.86972835E-07
  -1.35500003E-02  -3.01333131E-07
  -1.35000004E-02  -3.22122673E-07
  -1.34500004E-02  -3.45753648E-07
  -1.33999996E-02  -3.67373559E-07
  -1.33499997E-02  -3.82997769E-07
  -1.32999998E-02  -3.91286562E-07
  -1.32499998E-02  -3.94176908E-07
  -1.31999999E-02  -3.96067435E-07
  -1.31500000E-02  -4.01898859E-07
  -1.31000001E-02  -4.14968127E-07
  -1.30500002E-02  -4.35438864E-07
  -1.30000003E-02  -4.60222793E-07
  -1.29500004E-02  -4.84304678E-07
  -1.29000004E-02  -5.02938860E-07
  -1.28499996E-02  -5.13759346E-07
  -1.27999997E-02  -5.17863384E-07
  -1.27499998E-02  -5.19372463E-07
  -1.26999998E-02  -5.23648566E-07
  -1.26499999E-02  -5.34933406E-07
  -1.26000000E-02  -5.54453493E-07
  -1.25500001E-02  -5.79839423E-07
  -1.25000002E-02  -6.06132005E-07
  -1.24500003E-02  -6.27950612E-07
  -1.24000004E-02  -6.41877591E-07
  -1.23500004E-02  -6.48005994E-07
  -1.22999996E-02  -6.49946855E-07
  -1.22499997E-02  -6.53278960E-07
  -1.21999998E-02  -6.63110995E-07
  -1.21499998E-02  -6.81818790E-07
  -1.20999999E-02  -7.07968240E-07
  -1.20500000E-02  -7.36912511E-07
  -1.20000001E-02  -7.62820036E-07
  -1.19500002E-02  -7.81259075E-07
  -1.19000003E-02  -7.91187233E-07
  -1.18500004E-02  -7.95463848E-07
  -1.18000004E-02  -7.99642692E-07
  -1.17499996E-02  -8.09553512E-07
  -1.16999997E-02  -8.28736631E-07
  -1.16499998E-02  -8.56859629E-07
  -1.15999999E-02  -8.89832336E-07
  -1.15499999E-02  -9.21586832E-07
  -1.15000000E-02  -9.46757666E-07
  -1.14500001E-02  -9.63079970E-07
  -1.14000002E-02  -9.72440148E-07
  -1.13500003E-02  -9.80103096E-07
  -1.13000004E-02  -9.92434593E-07
  -1.12500004E-02  -1.01411740E-06
  -1.11999996E-02  -1.04607466E-06
  -1.11499997E-02  -1.08503684E-06
  -1.10999998E-02  -1.12496525E-06
  -1.10499999E-02  -1.15970931E-06
  -1.09999999E-02  -1.18574349E-06
  -1.09500000E-02  -1.20376865E-06
  -1.09000001E-02  -1.21846108E-06
  -1.08500002E-02  -1.23645896E-06
  -1.08000003E-02  -1.26345958E-06
  -1.07500004E-02  -1.30170463E-06
  -1.07000005E-02  -1.34896322E-06
  -1.06499996E-02  -1.39949566E-06
  -1.05999997E-02  -1.44657258E-06
  -1.05499998E-02  -1.48545212E-06
  -1.04999999E-02  -1.51551239E-06
  -1.04499999E-02  -1.54057693E-06
  -1.04000000E-02  -1.56728822E-06
  -1.03500001E-02  -1.60221214E-06
  -1.03000002E-02  -1.64894686E-06
  -1.02500003E-02  -1.70652834E-06
  -1.02000004E-02  -1.76982837E-06
  -1.01500005E-02  -1.83179384E-06
  -1.00999996E-02  -1.88656168E-06
  -1.00499997E-02  -1.93207688E-06
  -9.99999978E-03  -1.97104532E-06
  -9.94999986E-03  -2.00978820E-06
  -9.89999995E-03  -2.05550032E-06
  -9.85000003E-03  -2.11308088E-06
  -9.80000012E-03  -2.18295168E-06
  -9.75000020E-03  -2.26085535E-06
  -9.70000029E-03  -2.33971105E-06
  -9.65000037E-03  -2.41270845E-06
  -9.60000046E-03  -2.47632624E-06
  -9.54999961E-03  -2.53194094E-06
  -9.49999969E-03  -2.58524551E-06
  -9.44999978E-03  -2.64378104E-06
  -9.39999986E-03  -2.71364092E-06
  -9.34999995E-03  -2.79678125E-06
  -9.30000003E-03  -2.89013838E-06
  -9.25000012E-03  -2.98696386E-06
  -9.20000020E-03  -3.07978848E-06
  -9.15000029E-03  -3.16372643E-06
  -9.10000037E-03  -3.23866880E-06
  -9.05000046E-03  -3.30937701E-06
  -8.99999961E-03  -3.38343852E-06
  -8.94999970E-03  -3.46794309E-06
  -8.89999978E-03  -3.56636451E-06
  -8.84999987E-03  -3.67704320E-06
  -8.79999995E-03  -3.79388030E-06
  -8.75000004E-03  -3.90899822E-06
  -8.70000012E-03  -4.01623765E-06
  -8.65000021E-03  -4.11388874E-06
  -8.60000029E-03  -4.20549577E-06
  -8.55000038E-03  -4.29832335E-06
  -8.50000046E-03  -4.40020722E-06
  -8.44999962E-03  -4.51613596E-06
  -8.39999970E-03  -4.64602863E-06
  -8.34999979E-03  -4.78475749E-06
  -8.29999987E-03  -4.92441541E-06
  -8.24999996E-03  -5.05781736E-06
  -8.20000004E-03  -5.18169236E-06
  -8.15000013E-03  -5.29817953E-06
  -8.10000021E-03  -5.41392910E-06
  -8.05000030E-03  -5.53724112E-06
  -8.00000038E-03  -5.67447751E-06
  -7.95000046E-03  -5.82727489E-06
  -7.89999962E-03  -5.99184204E-06
  -7.84999970E-03  -6.16063835E-06
  -7.79999979E-03  -6.32568890E-06
  -7.74999987E-03  -6.48213245E-06
  -7.69999996E-03  -6.63046058E-06
  -7.65000004E-03  -6.77631488E-06
  -7.60000013E-03  -6.92806134E-06
  -7.55000021E-03  -7.09321148E-06
  -7.49999983E-03  -7.27511770E-06
  -7.44999992E-03  -7.47153399E-06
  -7.40000000E-03  -7.67558959E-06
  -7.35000009E-03  -7.87886256E-06
  -7.30000017E-03  -8.07513516E-06
  -7.24999979E-03  -8.26313317E-06
  -7.19999988E-03  -8.44717306E-06
  -7.14999996E-03  -8.63537025E-06
  -7.10000005E-03  -8.83614575E-06
  -7.05000013E-03  -9.05453726E-06
  -7.00000022E-03  -9.29007729E-06
  -6.94999984E-03  -9.53695962E-06
  -6.89999992E-03  -9.78669050E-06
  -6.85000001E-03  -1.00318821E-05
  -6.80000009E-03  -1.02694839E-05
  -6.75000018E-03  -1.05022800E-05
  -6.69999979E-03  -1.07377355E-05
  -6.64999988E-03  -1.09847470E-05
  -6.59999996E-03  -1.12497992E-05
  -6.55000005E-03  -1.15342400E-05
  -6.50000013E-03  -1.18337157E-05
  -6.45000022E-03  -1.21401081E-05
  -6.39999984E-03  -1.24451080E-05
  -6.34999992E-03  -1.27438761E-05
  -6.30000001E-03  -1.30373583E-05
  -6.25000009E-03  -1.33318727E-05
  -6.20000018E-03  -1.36363860E-05
  -6.14999980E-03  -1.39587401E-05
  -6.09999988E-03  -1.43022316E-05
  -6.04999997E-03  -1.46641805E-05
  -6.00000005E-03  -1.50371334E-05
  -5.95000014E-03  -1.54122354E-05
  -5.90000022E-03  -1.57831146E-05
  -5.84999984E-03  -1.61487478E-05
  -5.79999993E-03  -1.65140518E-05
  -5.75000001E-03  -1.68877086E-05
  -5.70000010E-03  -1.72785149E-05
  -5.65000018E-03  -1.76915873E-05
  -5.59999980E-03  -1.81261694E-05
  -5.54999989E-03  -1.85760327E-05
  -5.49999997E-03  -1.90321825E-05
  -5.45000006E-03  -1.94869026E-05
  -5.40000014E-03  -1.99371243E-05
  -5.35000023E-03  -2.03858781E-05
  -5.29999984E-03  -2.08411038E-05
  -5.24999993E-03  -2.13121748E-05
  -5.20000001E-03  -2.18059195E-05
  -5.15000010E-03  -2.23236566E-05
  -5.10000018E-03  -2.28605968E-05
  -5.04999980E-03  -2.34080544E-05
  -4.99999989E-03  -2.39572219E-05
  -4.94999997E-03  -2.45030533E-05
  -4.90000006E-03  -2.50466401E-05
  -4.85000014E-03  -2.55947325E-05
  -4.80000023E-03  -2.61569876E-05
  -4.74999985E-03  -2.67417272E-05
  -4.69999993E-03  -2.73523310E-05
  -4.65000002E-03  -2.79858559E-05
  -4.60000010E-03  -2.86343802E-05
  -4.55000019E-03  -2.92884979E-05
  -4.49999981E-03  -2.99413550E-05
  -4.44999989E-03  -3.05919057E-05
  -4.39999998E-03  -3.12454140E-05
  -4.35000006E-03  -3.19111678E-05
  -4.30000015E-03  -3.25986730E-05
  -4.25000023E-03  -3.33134230E-05
  -4.19999985E-03  -3.40546030E-05
  -4.14999994E-03  -3.48155045E-05
  -4.10000002E-03  -3.55863231E-05
  -4.05000011E-03  -3.63586842E-05
  -4.00000019E-03  -3.71292954E-05
  -3.94999981E-03  -3.79014164E-05
  -3.89999989E-03  -3.86837455E-05
  -3.84999998E-03  -3.94866074E-05
  -3.80000006E-03  -4.03174854E-05
  -3.74999992E-03  -4.11779038E-05
  -3.70000000E-03  -4.20625038E-05
  -3.65000009E-03  -4.29617103E-05
  -3.59999994E-03  -4.38660572E-05
  -3.55000002E-03  -4.47701932E-05
  -3.50000011E-03  -4.56753914E-05
  -3.44999996E-03  -4.65890334E-05
  -3.40000005E-03  -4.75217275E-05
  -3.34999990E-03  -4.84826705E-05
  -3.29999998E-03  -4.94756750E-05
  -3.25000007E-03  -5.04976560E-05
  -3.19999992E-03  -5.15398096E-05
  -3.15000000E-03  -5.25917130E-05
  -3.10000009E-03  -5.36459411E-05
  -3.04999994E-03  -5.47014279E-05
  -3.00000003E-03  -5.57640342E-05
  -2.95000011E-03  -5.68440119E-05
  -2.89999996E-03  -5.79519910E-05
  -2.85000005E-03  -5.90942764E-05
  -2.79999990E-03  -6.02699220E-05
  -2.74999999E-03  -6.14713572E-05
  -2.70000007E-03  -6.26877227E-05
  -2.64999992E-03  -6.39096543E-05
  -2.60000001E-03  -6.51334631E-05
  -2.55000009E-03  -6.63629689E-05
  -2.49999994E-03  -6.76082636E-05
  -2.45000003E-03  -6.88811560E-05
  -2.40000011E-03  -7.01899189E-05
  -2.34999997E-03  -7.15359129E-05
  -2.30000005E-03  -7.29131716E-05
  -2.24999990E-03  -7.43110868E-05
  -2.19999999E-03  -7.57187372E-05
  -2.15000007E-03  -7.71300183E-05
  -2.09999993E-03  -7.85465018E-05
  -2.05000001E-03  -7.99771224E-05
  -2.00000009E-03  -8.14343512E-05
  -1.94999995E-03  -8.29286291E-05
  -1.90000003E-03  -8.44638562E-05
  -1.85000000E-03  -8.60359214E-05
  -1.79999997E-03  -8.76346021E-05
  -1.75000005E-03  -8.92481039E-05
  -1.70000002E-03  -9.08679940E-05
  -1.64999999E-03  -9.24928463E-05
  -1.59999996E-03  -9.41294638E-05
  -1.55000004E-03  -9.57903248E-05
  -1.50000001E-03  -9.74877621E-05
  -1.44999998E-03  -9.92286077E-05
  -1.39999995E-03  -1.01011479E-04
  -1.35000004E-03  -1.02827522E-04
  -1.30000000E-03  -1.04663952E-04
  -1.24999997E-03  -1.06509673E-04
  -1.20000006E-03  -1.08360728E-04
  -1.15000003E-03  -1.10221830E-04
  -1.09999999E-03  -1.12104652E-04
  -1.04999996E-03  -1.14023154E-04
  -1.00000005E-03  -1.15987394E-04
  -9.50000016E-04  -1.17998767E-04
  -8.99999985E-04  -1.20048870E-04
  -8.50000011E-04  -1.22124402E-04
  -7.99999980E-04  -1.24212922E-04
  -7.50000007E-04  -1.26307306E-04
  -6.99999975E-04  -1.28409796E-04
  -6.50000002E-04  -1.30531349E-04
  -6.00000028E-04  -1.32686837E-04
  -5.49999997E-04  -1.34888687E-04
  -5.00000024E-04  -1.37140829E-04
  -4.49999992E-04  -1.39437776E-04
  -3.99999990E-04  -1.41766533E-04
  -3.49999988E-04  -1.44111153E-04
  -3.00000014E-04  -1.46461563E-04
  -2.50000012E-04  -1.48817853E-04
  -1.99999995E-04  -1.51189553E-04
  -1.50000007E-04  -1.53593006E-04
  -9.99999975E-05  -1.56043752E-04
  -4.99999987E-05  -1.58548180E-04
   0.00000000      -1.61101736E-04
   4.99999987E-05  -1.63691540E-04
   9.99999975E-05  -1.66300961E-04
   1.50000007E-04  -1.68916697E-04
   1.99999995E-04  -1.71535881E-04
   2.50000012E-04  -1.74167479E-04
   3.00000014E-04  -1.76827612E-04
   3.49999988E-04  -1.79532886E-04
   3.99999990E-04  -1.82293108E-04
   4.49999992E-04  -1.85106735E-04
   5.00000024E-04  -1.87961588E-04
   5.49999997E-04  -1.90840321E-04
   6.00000028E-04  -1.93727348E-04
   6.50000002E-04  -1.96616194E-04
   6.99999975E-04  -1.99512710E-04
   7.50000007E-04  -2.02432086E-04
   7.99999980E-04  -2.05392920E-04
   8.50000011E-04  -2.08408528E-04
   8.99999985E-04  -2.11480656E-04
   9.50000016E-04  -2.14598505E-04
   1.00000005E-03  -2.17743815E-04
   1.04999996E-03  -2.20899266E-04
   1.09999999E-03  -2.24054646E-04
   1.15000003E-03  -2.27212571E-04
   1.20000006E-03  -2.30387202E-04
   1.24999997E-03  -2.33597646E-04
   1.30000000E-03  -2.36859880E-04
   1.35000004E-03  -2.40179885E-04
   1.39999995E-03  -2.43549934E-04
   1.44999998E-03  -2.46951880E-04
   1.50000001E-03  -2.50365178E-04
   1.55000004E-03  -2.53775273E-04
   1.59999996E-03  -2.57183012E-04
   1.64999999E-03  -2.60601024E-04
   1.70000002E-03  -2.64047791E-04
   1.75000005E-03  -2.67541676E-04
   1.79999997E-03  -2.71091762E-04
   1.85000000E-03  -2.74693040E-04
   1.90000003E-03  -2.78327381E-04
   1.94999995E-03  -2.81972723E-04
   2.00000009E-03  -2.85613496E-04
   2.05000001E-03  -2.89245945E-04
   2.09999993E-03  -2.92880461E-04
   2.15000007E-03  -2.96536135E-04
   2.19999999E-03  -3.00232030E-04
   2.24999990E-03  -3.03979585E-04
   2.30000005E-03  -3.07777169E-04
   2.34999997E-03  -3.11609474E-04
   2.40000011E-03  -3.15452635E-04
   2.45000003E-03  -3.19287239E-04
   2.49999994E-03  -3.23106709E-04
   2.55000009E-03  -3.26918816E-04
   2.60000001E-03  -3.30740761E-04
   2.64999992E-03  -3.34593729E-04
   2.70000007E-03  -3.38496175E-04
   2.74999999E-03  -3.42449435E-04
   2.79999990E-03  -3.46436864E-04