  -3.99999991E-02   0.00000000    
  -3.99499983E-02   0.00000000    
  -3.99000011E-02   0.00000000    
  -3.98500003E-02   8.04196469E-19
  -3.97999994E-02   4.48809175E-18
  -3.97499986E-02   1.28605037E-17
  -3.97000015E-02   2.32854436E-17
  -3.96500006E-02   2.39098872E-17
  -3.95999998E-02  -7.24172390E-18
  -3.95499989E-02  -9.55933392E-17
  -3.95000018E-02  -2.56813110E-16
  -3.94500010E-02  -4.83944704E-16
  -3.94000001E-02  -7.43849405E-16
  -3.93499993E-02  -9.87964089E-16
  -3.92999984E-02  -1.17445332E-15
  -3.92500013E-02  -1.29173361E-15
  -3.92000005E-02  -1.37097185E-15
  -3.91499996E-02  -1.47877765E-15
  -3.90999988E-02  -1.68984036E-15
  -3.90500017E-02  -2.04978564E-15
  -3.90000008E-02  -2.54616600E-15
  -3.89500000E-02  -3.10475247E-15
  -3.88999991E-02  -3.61699967E-15
  -3.88499983E-02  -3.98746054E-15
  -3.88000011E-02  -4.17714467E-15
  -3.87500003E-02  -4.21910796E-15
  -3.86999995E-02  -4.19639646E-15
  -3.86499986E-02  -4.19193090E-15
  -3.86000015E-02  -4.23436937E-15
  -3.85500006E-02  -4.26685986E-15
  -3.84999998E-02  -4.15597351E-15
  -3.84499989E-02  -3.73974194E-15
  -3.84000018E-02  -2.89365513E-15
  -3.83500010E-02  -1.58132772E-15
  -3.83000001E-02   1.38785713E-16
  -3.82499993E-02   2.15692811E-15
  -3.81999984E-02   4.38319264E-15
  -3.81500013E-02   6.80623923E-15
  -3.81000005E-02   9.50575271E-15
  -3.80499996E-02   1.26112855E-14
  -3.79999988E-02   1.62302846E-14
  -3.79500017E-02   2.03846458E-14
  -3.79000008E-02   2.49905924E-14
  -3.78500000E-02   2.98949233E-14
  -3.77999991E-02   3.49516931E-14
  -3.77499983E-02   4.00995460E-14
  -3.77000012E-02   4.53933495E-14
  -3.76500003E-02   5.09629706E-14
  -3.75999995E-02   5.69124622E-14
  -3.75499986E-02   6.32129847E-14
  -3.75000015E-02   6.96557815E-14
  -3.74500006E-02   7.59025614E-14
  -3.73999998E-02   8.16150397E-14
  -3.73499990E-02   8.65954782E-14
  -3.73000018E-02   9.08578564E-14
  -3.72500010E-02   9.45814810E-14
  -3.72000001E-02   9.79584456E-14
  -3.71499993E-02   1.01004613E-13
  -3.70999984E-02   1.03433497E-13
  -3.70500013E-02   1.04676162E-13
  -3.70000005E-02   1.04066617E-13
  -3.69499996E-02   1.01122825E-13
  -3.68999988E-02   9.57836376E-14
  -3.68500017E-02   8.84585848E-14
  -3.68000008E-02   7.98293181E-14
  -3.67500000E-02   7.04724500E-14
  -3.66999991E-02   6.04842850E-14
  -3.66499983E-02   4.93109107E-14
  -3.66000012E-02   3.59036395E-14
  -3.65500003E-02   1.91669800E-14
  -3.64999995E-02  -1.48527386E-15
  -3.64499986E-02  -2.57290645E-14
  -3.64000015E-02  -5.23093294E-14
  -3.63500006E-02  -7.94700880E-14
  -3.62999998E-02  -1.05689173E-13
  -3.62499990E-02  -1.30391845E-13
  -3.62000018E-02  -1.54277903E-13
  -3.61500010E-02  -1.79044239E-13
  -3.61000001E-02  -2.06567063E-13
  -3.60499993E-02  -2.37890409E-13
  -3.59999985E-02  -2.72499769E-13
  -3.59500013E-02  -3.08265322E-13
  -3.59000005E-02  -3.42148808E-13
  -3.58499996E-02  -3.71410964E-13
  -3.57999988E-02  -3.94791242E-13
  -3.57500017E-02  -4.13090135E-13
  -3.57000008E-02  -4.28809549E-13
  -3.56500000E-02  -4.44925889E-13
  -3.55999991E-02  -4.63306477E-13
  -3.55499983E-02  -4.83512481E-13
  -3.55000012E-02  -5.02619105E-13
  -3.54500003E-02  -5.16242431E-13
  -3.53999995E-02  -5.20383161E-13
  -3.53499986E-02  -5.13270578E-13
  -3.53000015E-02  -4.96321463E-13
  -3.52500007E-02  -4.73685707E-13
  -3.51999998E-02  -4.50475486E-13
  -3.51499990E-02  -4.30409316E-13
  -3.51000018E-02  -4.13938388E-13
  -3.50500010E-02  -3.97794238E-13
  -3.50000001E-02  -3.76300933E-13
  -3.49499993E-02  -3.43979565E-13
  -3.48999985E-02  -2.98303754E-13
  -3.48500013E-02  -2.41294858E-13
  -3.48000005E-02  -1.79097324E-13
  -3.47499996E-02  -1.19581089E-13
  -3.46999988E-02  -6.89606453E-14
  -3.46500017E-02  -2.89545575E-14
  -3.46000008E-02   4.14149136E-15
  -3.45500000E-02   3.78955561E-14
  -3.44999991E-02   8.02415995E-14
  -3.44499983E-02   1.35537184E-13
  -3.44000012E-02   2.01992123E-13
  -3.43500003E-02   2.71779317E-13
  -3.42999995E-02   3.33974249E-13
  -3.42499986E-02   3.79146123E-13
  -3.42000015E-02   4.03564064E-13
  -3.41500007E-02   4.11031696E-13
  -3.40999998E-02   4.11358989E-13
  -3.40499990E-02   4.15992598E-13
  -3.40000018E-02   4.32678036E-13
  -3.39500010E-02   4.61574897E-13
  -3.39000002E-02   4.94709037E-13
  -3.38499993E-02   5.19207398E-13
  -3.37999985E-02   5.23038915E-13
  -3.37500013E-02   5.00742568E-13
  -3.37000005E-02   4.56481803E-13
  -3.36499996E-02   4.02851119E-13
  -3.35999988E-02   3.55753133E-13
  -3.35500017E-02   3.27516226E-13
  -3.35000008E-02   3.21354190E-13
  -3.34500000E-02   3.29798092E-13
  -3.33999991E-02   3.38014827E-13
  -3.33499983E-02   3.30709445E-13
  -3.33000012E-02   2.99594849E-13
  -3.32500003E-02   2.48009621E-13
  -3.31999995E-02   1.90410445E-13
  -3.31499986E-02   1.46715241E-13
  -3.31000015E-02   1.33846263E-13
  -3.30500007E-02   1.58233696E-13
  -3.29999998E-02   2.12782632E-13
  -3.29499990E-02   2.79908556E-13
  -3.29000019E-02   3.39515688E-13
  -3.28500010E-02   3.78455541E-13
  -3.28000002E-02   3.97174210E-13
  -3.27499993E-02   4.10365914E-13
  -3.26999985E-02   4.41071035E-13
  -3.26500013E-02   5.10634124E-13
  -3.26000005E-02   6.28927791E-13
  -3.25499997E-02   7.89311650E-13
  -3.24999988E-02   9.70816418E-13
  -3.24500017E-02   1.14684553E-12
  -3.24000008E-02   1.29667967E-12
  -3.23500000E-02   1.41463826E-12
  -3.22999991E-02   1.51262423E-12
  -3.22499983E-02   1.61464971E-12
  -3.22000012E-02   1.74555466E-12
  -3.21500003E-02   1.91886155E-12
  -3.20999995E-02   2.12927571E-12
  -3.20499986E-02   2.35340393E-12
  -3.20000015E-02   2.55865489E-12
  -3.19500007E-02   2.71655398E-12
  -3.18999998E-02   2.81458992E-12
  -3.18499990E-02   2.86117874E-12
  -3.18000019E-02   2.88128809E-12
  -3.17500010E-02   2.90442735E-12
  -3.17000002E-02   2.95023923E-12
  -3.16499993E-02   3.01817447E-12
  -3.15999985E-02   3.08607371E-12
  -3.15500014E-02   3.11856140E-12
  -3.15000005E-02   3.08173062E-12
  -3.14499997E-02   2.95762937E-12
  -3.13999988E-02   2.75198440E-12
  -3.13500017E-02   2.49148792E-12
  -3.13000008E-02   2.21161284E-12
  -3.12500000E-02   1.94024788E-12
  -3.11999992E-02   1.68447732E-12
  -3.11500002E-02   1.42660417E-12
  -3.10999993E-02   1.13148293E-12
  -3.10500003E-02   7.62159216E-13
  -3.09999995E-02   2.96963978E-13
  -3.09500005E-02  -2.59635656E-13
  -3.08999997E-02  -8.77489758E-13
  -3.08500007E-02  -1.51259983E-12
  -3.07999998E-02  -2.12525765E-12
  -3.07500008E-02  -2.69644658E-12
  -3.07000000E-02  -3.23507258E-12
  -3.06499992E-02  -3.77257600E-12
  -3.06000002E-02  -4.34709820E-12
  -3.05499993E-02  -4.98413637E-12
  -3.05000003E-02  -5.68234652E-12
  -3.04499995E-02  -6.41101148E-12
  -3.04000005E-02  -7.12056933E-12
  -3.03499997E-02  -7.76172702E-12
  -3.03000007E-02  -8.30472410E-12
  -3.02499998E-02  -8.75008486E-12
  -3.02000009E-02  -9.12584938E-12
  -3.01500000E-02  -9.47232570E-12
  -3.00999992E-02  -9.82102854E-12
  -3.00500002E-02  -1.01772219E-11
  -2.99999993E-02  -1.05140055E-11
  -2.99500003E-02  -1.07807921E-11
  -2.98999995E-02  -1.09226161E-11
  -2.98500005E-02  -1.09017708E-11
  -2.97999997E-02  -1.07121005E-11
  -2.97500007E-02  -1.03794629E-11
  -2.96999998E-02  -9.94798428E-12
  -2.96500009E-02  -9.45815041E-12
  -2.96000000E-02  -8.92654440E-12
  -2.95499992E-02  -8.33643918E-12
  -2.95000002E-02  -7.64364353E-12
  -2.94499993E-02  -6.79517987E-12
  -2.94000003E-02  -5.75250091E-12
  -2.93499995E-02  -4.50883818E-12
  -2.93000005E-02  -3.09278970E-12
  -2.92499997E-02  -1.55639553E-12
  -2.92000007E-02   4.70952047E-14
  -2.91499998E-02   1.68583452E-12
  -2.91000009E-02   3.36216515E-12
  -2.90500000E-02   5.10969218E-12
  -2.89999992E-02   6.97578150E-12
  -2.89500002E-02   8.99724479E-12
  -2.88999993E-02   1.11801375E-11
  -2.88500004E-02   1.34928613E-11
  -2.87999995E-02   1.58757920E-11
  -2.87500005E-02   1.82632121E-11
  -2.86999997E-02   2.06077239E-11
  -2.86500007E-02   2.28961294E-11
  -2.85999998E-02   2.51495786E-11
  -2.85500009E-02   2.74077878E-11
  -2.85000000E-02   2.97044160E-11
  -2.84499992E-02   3.20446725E-11
  -2.84000002E-02   3.43953442E-11
  -2.83499993E-02   3.66918614E-11
  -2.83000004E-02   3.88593602E-11
  -2.82499995E-02   4.08382460E-11
  -2.82000005E-02   4.26027685E-11
  -2.81499997E-02   4.41641376E-11
  -2.81000007E-02   4.55568638E-11
  -2.80499998E-02   4.68145279E-11
  -2.80000009E-02   4.79460222E-11
  -2.79500000E-02   4.89231988E-11
  -2.78999992E-02   4.96855439E-11
  -2.78500002E-02   5.01598381E-11
  -2.77999993E-02   5.02859074E-11
  -2.77500004E-02   5.00366831E-11
  -2.76999995E-02   4.94234792E-11
  -2.76500005E-02   4.84839738E-11
  -2.75999997E-02   4.72585270E-11
  -2.75500007E-02   4.57657454E-11
  -2.74999999E-02   4.39886391E-11
  -2.74500009E-02   4.18778207E-11
  -2.74000000E-02   3.93703854E-11
  -2.73499992E-02   3.64158217E-11
  -2.73000002E-02   3.29970426E-11
  -2.72499993E-02   2.91369359E-11
  -2.72000004E-02   2.48873231E-11
  -2.71499995E-02   2.03055975E-11
  -2.71000005E-02   1.54297946E-11
  -2.70499997E-02   1.02638687E-11
  -2.70000007E-02   4.78008475E-12
  -2.69499999E-02  -1.06241068E-12
  -2.69000009E-02  -7.29146344E-12
  -2.68500000E-02  -1.39003991E-11
  -2.67999992E-02  -2.08412679E-11
  -2.67500002E-02  -2.80361238E-11
  -2.66999993E-02  -3.54010987E-11
  -2.66500004E-02  -4.28721156E-11
  -2.65999995E-02  -5.04201333E-11
  -2.65500005E-02  -5.80486874E-11
  -2.64999997E-02  -6.57746774E-11
  -2.64500007E-02  -7.36013195E-11
  -2.63999999E-02  -8.14961432E-11
  -2.63500009E-02  -8.93842847E-11
  -2.63000000E-02  -9.71607031E-11
  -2.62499992E-02  -1.04715729E-10
  -2.62000002E-02  -1.11961738E-10
  -2.61499994E-02  -1.18848542E-10
  -2.61000004E-02  -1.25359806E-10
  -2.60499995E-02  -1.31491942E-10
  -2.60000005E-02  -1.37225453E-10
  -2.59499997E-02  -1.42502260E-10
  -2.59000007E-02  -1.47220416E-10
  -2.58499999E-02  -1.51249097E-10
  -2.58000009E-02  -1.54457197E-10
  -2.57500000E-02  -1.56742466E-10
  -2.56999992E-02  -1.58047256E-10
  -2.56500002E-02  -1.58352609E-10
  -2.55999994E-02  -1.57653474E-10
  -2.55500004E-02  -1.55925967E-10
  -2.54999995E-02  -1.53102669E-10
  -2.54500005E-02  -1.49068188E-10
  -2.53999997E-02  -1.43677778E-10
  -2.53500007E-02  -1.36791092E-10
  -2.52999999E-02  -1.28305477E-10
  -2.52500009E-02  -1.18172958E-10
  -2.52000000E-02  -1.06391645E-10
  -2.51499992E-02  -9.29755301E-11
  -2.51000002E-02  -7.79154796E-11
  -2.50499994E-02  -6.11502793E-11
  -2.50000004E-02  -4.25620927E-11
  -2.49499995E-02  -2.19993607E-11
  -2.49000005E-02   6.81961052E-13
  -2.48499997E-02   2.55782843E-11
  -2.48000007E-02   5.27176879E-11
  -2.47499999E-02   8.20702048E-11
  -2.47000009E-02   1.13584267E-10
  -2.46500000E-02   1.47234863E-10
  -2.45999992E-02   1.83058971E-10
  -2.45500002E-02   2.21162810E-10
  -2.44999994E-02   2.61695027E-10
  -2.44500004E-02   3.04797437E-10
  -2.43999995E-02   3.50555696E-10
  -2.43500005E-02   3.98972799E-10
  -2.42999997E-02   4.49979526E-10
  -2.42500007E-02   5.03478093E-10
  -2.41999999E-02   5.59400137E-10
  -2.41500009E-02   6.17752960E-10
  -2.41000000E-02   6.78631207E-10
  -2.40499992E-02   7.42186812E-10
  -2.40000002E-02   8.08570544E-10
  -2.39499994E-02   8.77870165E-10
  -2.39000004E-02   9.50074464E-10
  -2.38499995E-02   1.02508169E-09
  -2.38000005E-02   1.10274900E-09
  -2.37499997E-02   1.18296362E-09
  -2.37000007E-02   1.26570177E-09
  -2.36499999E-02   1.35104927E-09
  -2.36000009E-02   1.43917012E-09
  -2.35500000E-02   1.53023894E-09
  -2.34999992E-02   1.62436375E-09
  -2.34500002E-02   1.72153680E-09
  -2.33999994E-02   1.82163584E-09
  -2.33500004E-02   1.92447991E-09
  -2.32999995E-02   2.02991290E-09
  -2.32500006E-02   2.13788076E-09
  -2.31999997E-02   2.24846475E-09
  -2.31500007E-02   2.36185427E-09
  -2.30999999E-02   2.47826981E-09
  -2.30500009E-02   2.59786859E-09
  -2.30000000E-02   2.72067724E-09
  -2.29499992E-02   2.84658297E-09
  -2.29000002E-02   2.97538705E-09
  -2.28499994E-02   3.10690318E-09
  -2.28000004E-02   3.24105276E-09
  -2.27499995E-02   3.37791772E-09
  -2.27000006E-02   3.51772056E-09
  -2.26499997E-02   3.66074238E-09
  -2.26000007E-02   3.80721232E-09
  -2.25499999E-02   3.95721589E-09
  -2.25000009E-02   4.11067225E-09
  -2.24500000E-02   4.26738200E-09
  -2.23999992E-02   4.42713688E-09
  -2.23500002E-02   4.58983740E-09
  -2.22999994E-02   4.75556572E-09
  -2.22500004E-02   4.92458252E-09
  -2.21999995E-02   5.09724440E-09
  -2.21500006E-02   5.27387645E-09
  -2.20999997E-02   5.45465584E-09
  -2.20500007E-02   5.63956570E-09
  -2.19999999E-02   5.82843551E-09
  -2.19500009E-02   6.02105210E-09
  -2.19000001E-02   6.21730267E-09
  -2.18499992E-02   6.41727160E-09
  -2.18000002E-02   6.62126087E-09
  -2.17499994E-02   6.82970702E-09
  -2.17000004E-02   7.04304615E-09
  -2.16499995E-02   7.26156868E-09
  -2.16000006E-02   7.48534656E-09
  -2.15499997E-02   7.71425146E-09
  -2.15000007E-02   7.94807509E-09
  -2.14499999E-02   8.18668155E-09
  -2.14000009E-02   8.43014902E-09
  -2.13500001E-02   8.67880612E-09
  -2.12999992E-02   8.93316798E-09
  -2.12500002E-02   9.19379328E-09
  -2.11999994E-02   9.46110923E-09
  -2.11500004E-02   9.73530767E-09
  -2.10999995E-02   1.00163353E-08
  -2.10500006E-02   1.03040048E-08
  -2.09999997E-02   1.05981712E-08
  -2.09500007E-02   1.08988933E-08
  -2.08999999E-02   1.12065131E-08
  -2.08500009E-02   1.15216121E-08
  -2.08000001E-02   1.18448655E-08
  -2.07499992E-02   1.21768489E-08
  -2.07000002E-02   1.25178916E-08
  -2.06499994E-02   1.28680373E-08
  -2.06000004E-02   1.32271367E-08
  -2.05499995E-02   1.35950344E-08
  -2.05000006E-02   1.39717633E-08
  -2.04499997E-02   1.43576599E-08
  -2.04000007E-02   1.47533576E-08
  -2.03499999E-02   1.51596407E-08
  -2.03000009E-02   1.55772426E-08
  -2.02500001E-02   1.60066520E-08
  -2.01999992E-02   1.64480447E-08
  -2.01500002E-02   1.69013390E-08
  -2.00999994E-02   1.73663910E-08
  -2.00500004E-02   1.78432078E-08
  -1.99999996E-02   1.83321145E-08
  -1.99500006E-02   1.88337772E-08
  -1.98999997E-02   1.93490894E-08
  -1.98500007E-02   1.98789447E-08
  -1.97999999E-02   2.04240145E-08
  -1.97500009E-02   2.09846327E-08
  -1.97000001E-02   2.15608154E-08
  -1.96499992E-02   2.21524434E-08
  -1.96000002E-02   2.27595045E-08
  -1.95499994E-02   2.33822899E-08
  -1.95000004E-02   2.40214835E-08
  -1.94499996E-02   2.46780658E-08
  -1.94000006E-02   2.53530921E-08
  -1.93499997E-02   2.60474362E-08
  -1.93000007E-02   2.67616223E-08
  -1.92499999E-02   2.74958047E-08
  -1.92000009E-02   2.82499233E-08
  -1.91500001E-02   2.90239548E-08
  -1.90999992E-02   2.98181639E-08
  -1.90500002E-02   3.06332346E-08
  -1.89999994E-02   3.14702149E-08
  -1.89500004E-02   3.23303198E-08
  -1.88999996E-02   3.32146328E-08
  -1.88500006E-02   3.41239108E-08
  -1.87999997E-02   3.50584806E-08
  -1.87500007E-02   3.60183847E-08
  -1.86999999E-02   3.70036055E-08
  -1.86500009E-02   3.80143703E-08
  -1.86000001E-02   3.90513542E-08
  -1.85499992E-02   4.01156441E-08
  -1.85000002E-02   4.12085868E-08
  -1.84499994E-02   4.23314823E-08
  -1.84000004E-02   4.34853256E-08
  -1.83499996E-02   4.46706636E-08
  -1.83000006E-02   4.58876634E-08
  -1.82499997E-02   4.71363677E-08
  -1.82000007E-02   4.84169931E-08
  -1.81499999E-02   4.97301826E-08
  -1.81000009E-02   5.10770661E-08
  -1.80500001E-02   5.24591108E-08
  -1.79999992E-02   5.38778444E-08
  -1.79500002E-02   5.53345281E-08
  -1.78999994E-02   5.68299612E-08
  -1.78500004E-02   5.83645026E-08
  -1.77999996E-02   5.99382872E-08
  -1.77500006E-02   6.15515390E-08
  -1.76999997E-02   6.32048724E-08
  -1.76500008E-02   6.48994245E-08
  -1.75999999E-02   6.66367868E-08
  -1.75500009E-02   6.84186716E-08
  -1.75000001E-02   7.02466423E-08
  -1.74499992E-02   7.21217859E-08
  -1.74000002E-02   7.40447135E-08
  -1.73499994E-02   7.60157022E-08
  -1.73000004E-02   7.80350291E-08
  -1.72499996E-02   8.01033124E-08
  -1.72000006E-02   8.22217245E-08
  -1.71499997E-02   8.43919139E-08
  -1.71000008E-02   8.66158558E-08
  -1.70499999E-02   8.88953977E-08
  -1.70000009E-02   9.12320104E-08
  -1.69500001E-02   9.36265963E-08
  -1.68999992E-02   9.60796598E-08
  -1.68500002E-02   9.85915776E-08
  -1.67999994E-02   1.01163003E-07
  -1.67500004E-02   1.03795102E-07
  -1.66999996E-02   1.06489651E-07
  -1.66500006E-02   1.09248788E-07
  -1.65999997E-02   1.12074687E-07
  -1.65500008E-02   1.14969183E-07
  -1.64999999E-02   1.17933567E-07
  -1.64500009E-02   1.20968622E-07
  -1.64000001E-02   1.24074887E-07
  -1.63499992E-02   1.27253102E-07
  -1.63000003E-02   1.30504489E-07
  -1.62499994E-02   1.33830895E-07
  -1.62000004E-02   1.37234679E-07
  -1.61499996E-02   1.40718299E-07
  -1.61000006E-02   1.44284002E-07
  -1.60499997E-02   1.47933505E-07
  -1.60000008E-02   1.51667933E-07
  -1.59499999E-02   1.55488067E-07
  -1.59000009E-02   1.59394759E-07
  -1.58500001E-02   1.63389302E-07
  -1.57999992E-02   1.67473630E-07
  -1.57500003E-02   1.71650242E-07
  -1.56999994E-02   1.75921926E-07
  -1.56500004E-02   1.80291337E-07
  -1.55999996E-02   1.84760637E-07
  -1.55499997E-02   1.89331345E-07
  -1.54999997E-02   1.94004556E-07
  -1.54499998E-02   1.98781279E-07
  -1.53999999E-02   2.03662879E-07
  -1.53500000E-02   2.08651329E-07
  -1.53000001E-02   2.13749360E-07
  -1.52500002E-02   2.18959983E-07
  -1.52000003E-02   2.24286325E-07
  -1.51500003E-02   2.29730944E-07
  -1.51000004E-02   2.35295872E-07
  -1.50499996E-02   2.40982530E-07
  -1.49999997E-02   2.46792155E-07
  -1.49499997E-02   2.52726238E-07
  -1.48999998E-02   2.58786798E-07
  -1.48499999E-02   2.64976705E-07
  -1.48000000E-02   2.71299257E-07
  -1.47500001E-02   2.77757891E-07
  -1.47000002E-02   2.84355735E-07
  -1.46500003E-02   2.91095262E-07
  -1.46000003E-02   2.97978318E-07
  -1.45500004E-02   3.05006381E-07
  -1.44999996E-02   3.12181072E-07
  -1.44499997E-02   3.19504522E-07
  -1.43999998E-02   3.26979659E-07
  -1.43499998E-02   3.34610007E-07
  -1.42999999E-02   3.42399346E-07
  -1.42500000E-02   3.50351286E-07
  -1.42000001E-02   3.58468810E-07
  -1.41500002E-02   3.66754165E-07
  -1.41000003E-02   3.75209282E-07
  -1.40500003E-02   3.83835896E-07
  -1.40000004E-02   3.92636252E-07
  -1.39499996E-02   4.01613420E-07
  -1.38999997E-02   4.10770980E-07
  -1.38499998E-02   4.20113167E-07
  -1.37999998E-02   4.29643904E-07
  -1.37499999E-02   4.39366772E-07
  -1.37000000E-02   4.49284556E-07
  -1.36500001E-02   4.59399445E-07
  -1.36000002E-02   4.69713484E-07
  -1.35500003E-02   4.80229005E-07
  -1.35000004E-02   4.90949049E-07
  -1.34500004E-02   5.01877537E-07
  -1.33999996E-02   5.13018904E-07
  -1.33499997E-02   5.24377583E-07
  -1.32999998E-02   5.35957554E-07
  -1.32499998E-02   5.47762170E-07
  -1.31999999E-02   5.59794046E-07
  -1.31500000E-02   5.72055512E-07
  -1.31000001E-02   5.84549184E-07
  -1.30500002E-02   5.97278131E-07
  -1.30000003E-02   6.10246445E-07
  -1.29500004E-02   6.23458789E-07
  -1.29000004E-02   6.36919935E-07
  -1.28499996E-02   6.50634377E-07
  -1.27999997E-02   6.64606091E-07
  -1.27499998E-02   6.78838148E-07
  -1.26999998E-02   6.93333220E-07
  -1.26499999E-02   7.08093978E-07
  -1.26000000E-02   7.23123890E-07
  -1.25500001E-02   7.38426934E-07
  -1.25000002E-02   7.54008056E-07
  -1.24500003E-02   7.69872429E-07
  -1.24000004E-02   7.86025169E-07
  -1.23500004E-02   8.02470424E-07
  -1.22999996E-02   8.19211948E-07
  -1.22499997E-02   8.36252809E-07
  -1.21999998E-02   8.53595907E-07
  -1.21499998E-02   8.71244765E-07
  -1.20999999E-02   8.89203648E-07
  -1.20500000E-02   9.07477670E-07
  -1.20000001E-02   9.26072289E-07
  -1.19500002E-02   9.44992962E-07
  -1.19000003E-02   9.64244464E-07
  -1.18500004E-02   9.83830887E-07
  -1.18000004E-02   1.00375576E-06
  -1.17499996E-02   1.02402237E-06
  -1.16999997E-02   1.04463413E-06
  -1.16499998E-02   1.06559548E-06
  -1.15999999E-02   1.08691131E-06
  -1.15499999E-02   1.10858753E-06
  -1.15000000E-02   1.13062970E-06
  -1.14500001E-02   1.15304351E-06
  -1.14000002E-02   1.17583318E-06
  -1.13500003E-02   1.19900267E-06
  -1.13000004E-02   1.22255551E-06
  -1.12500004E-02   1.24649546E-06
  -1.11999996E-02   1.27082660E-06
  -1.11499997E-02   1.29555428E-06
  -1.10999998E-02   1.32068385E-06
  -1.10499999E-02   1.34622155E-06
  -1.09999999E-02   1.37217296E-06
  -1.09500000E-02   1.39854274E-06
  -1.09000001E-02   1.42533520E-06
  -1.08500002E-02   1.45255387E-06
  -1.08000003E-02   1.48020206E-06
  -1.07500004E-02   1.50828430E-06
  -1.07000005E-02   1.53680537E-06
  -1.06499996E-02   1.56577119E-06
  -1.05999997E-02   1.59518777E-06
  -1.05499998E-02   1.62506092E-06
  -1.04999999E-02   1.65539575E-06
  -1.04499999E-02   1.68619636E-06
  -1.04000000E-02   1.71746638E-06
  -1.03500001E-02   1.74920910E-06
  -1.03000002E-02   1.78142875E-06
  -1.02500003E-02   1.81412986E-06
  -1.02000004E-02   1.84731778E-06
  -1.01500005E-02   1.88099841E-06
  -1.00999996E-02   1.91517734E-06
  -1.00499997E-02   1.94985978E-06
  -9.99999978E-03   1.98504972E-06
  -9.94999986E-03   2.02075034E-06
  -9.89999995E-03   2.05696506E-06
  -9.85000003E-03   2.09369728E-06
  -9.80000012E-03   2.13095109E-06
  -9.75000020E-03   2.16873127E-06
  -9.70000029E-03   2.20704328E-06
  -9.65000037E-03   2.24589280E-06
  -9.60000046E-03   2.28528438E-06
  -9.54999961E-03   2.32522211E-06
  -9.49999969E-03   2.36570872E-06
  -9.44999978E-03   2.40674763E-06
  -9.39999986E-03   2.44834087E-06
  -9.34999995E-03   2.49049231E-06
  -9.30000003E-03   2.53320604E-06
  -9.25000012E-03   2.57648662E-06
  -9.20000020E-03   2.62033859E-06
  -9.15000029E-03   2.66476673E-06
  -9.10000037E-03   2.70977421E-06
  -9.05000046E-03   2.75536354E-06
  -8.99999961E-03   2.80153631E-06
  -8.94999970E-03   2.84829434E-06
  -8.89999978E-03   2.89563968E-06
  -8.84999987E-03   2.94357551E-06
  -8.79999995E-03   2.99210524E-06
  -8.75000004E-03   3.04123228E-06
  -8.70000012E-03   3.09096072E-06
  -8.65000021E-03   3.14129284E-06
  -8.60000029E-03   3.19223022E-06
  -8.55000038E-03   3.24377402E-06
  -8.50000046E-03   3.29592444E-06
  -8.44999962E-03   3.34868287E-06
  -8.39999970E-03   3.40205065E-06
  -8.34999979E-03   3.45602984E-06
  -8.29999987E-03   3.51062340E-06
  -8.24999996E-03   3.56583337E-06
  -8.20000004E-03   3.62166111E-06
  -8.15000013E-03   3.67810685E-06
  -8.10000021E-03   3.73517014E-06
  -8.05000030E-03   3.79284984E-06
  -8.00000038E-03   3.85114527E-06
  -7.95000046E-03   3.91005642E-06
  -7.89999962E-03   3.96958285E-06
  -7.84999970E-03   4.02972637E-06
  -7.79999979E-03   4.09048653E-06
  -7.74999987E-03   4.15186287E-06
  -7.69999996E-03   4.21385448E-06
  -7.65000004E-03   4.27645909E-06
  -7.60000013E-03   4.33967261E-06
  -7.55000021E-03   4.40349368E-06
  -7.49999983E-03   4.46791819E-06
  -7.44999992E-03   4.53294570E-06
  -7.40000000E-03   4.59857438E-06
  -7.35000009E-03   4.66480196E-06
  -7.30000017E-03   4.73162754E-06
  -7.24999979E-03   4.79904611E-06
  -7.19999988E-03   4.86705449E-06
  -7.14999996E-03   4.93564676E-06
  -7.10000005E-03   5.00481701E-06
  -7.05000013E-03   5.07456116E-06
  -7.00000022E-03   5.14487419E-06
  -6.94999984E-03   5.21575112E-06
  -6.89999992E-03   5.28718738E-06
  -6.85000001E-03   5.35917934E-06
  -6.80000009E-03   5.43172064E-06
  -6.75000018E-03   5.50480263E-06
  -6.69999979E-03   5.57841850E-06
  -6.64999988E-03   5.65255868E-06
  -6.59999996E-03   5.72721547E-06
  -6.55000005E-03   5.80238066E-06
  -6.50000013E-03   5.87804652E-06
  -6.45000022E-03   5.95420488E-06
  -6.39999984E-03   6.03084754E-06
  -6.34999992E-03   6.10796542E-06
  -6.30000001E-03   6.18554850E-06
  -6.25000009E-03   6.26358496E-06
  -6.20000018E-03   6.34206299E-06
  -6.14999980E-03   6.42096984E-06
  -6.09999988E-03   6.50029324E-06
  -6.04999997E-03   6.58002227E-06
  -6.00000005E-03   6.66014512E-06
  -5.95000014E-03   6.74064995E-06
  -5.90000022E-03   6.82152404E-06
  -5.84999984E-03   6.90275238E-06
  -5.79999993E-03   6.98432041E-06
  -5.75000001E-03   7.06621086E-06
  -5.70000010E-03   7.14840780E-06
  -5.65000018E-03   7.23089397E-06
  -5.59999980E-03   7.31365253E-06
  -5.54999989E-03   7.39666802E-06
  -5.49999997E-03   7.47992362E-06
  -5.45000006E-03   7.56340205E-06
  -5.40000014E-03   7.64708420E-06
  -5.35000023E-03   7.73094962E-06
  -5.29999984E-03   7.81497783E-06
  -5.24999993E-03   7.89914702E-06
  -5.20000001E-03   7.98343444E-06
  -5.15000010E-03   8.06782009E-06
  -5.10000018E-03   8.15228123E-06
  -5.04999980E-03   8.23679784E-06
  -4.99999989E-03   8.32134629E-06
  -4.94999997E-03   8.40590474E-06
  -4.90000006E-03   8.49044591E-06
  -4.85000014E-03   8.57494342E-06
  -4.80000023E-03   8.65937000E-06
  -4.74999985E-03   8.74369834E-06
  -4.69999993E-03   8.82790118E-06
  -4.65000002E-03   8.91195214E-06
  -4.60000010E-03   8.99582210E-06
  -4.55000019E-03   9.07948288E-06
  -4.49999981E-03   9.16290537E-06
  -4.44999989E-03   9.24605774E-06
  -4.39999998E-03   9.32890725E-06
  -4.35000006E-03   9.41142116E-06
  -4.30000015E-03   9.49356581E-06
  -4.25000023E-03   9.57530756E-06
  -4.19999985E-03   9.65661093E-06
  -4.14999994E-03   9.73744227E-06
  -4.10000002E-03   9.81776793E-06
  -4.05000011E-03   9.89755154E-06
  -4.00000019E-03   9.97675579E-06
  -3.94999981E-03   1.00553425E-05
  -3.89999989E-03   1.01332689E-05
  -3.84999998E-03   1.02104977E-05
  -3.80000006E-03   1.02869844E-05
  -3.74999992E-03   1.03626899E-05
  -3.70000000E-03   1.04375731E-05
  -3.65000009E-03   1.05115932E-05
  -3.59999994E-03   1.05847057E-05
  -3.55000002E-03   1.06568677E-05
  -3.50000011E-03   1.07280321E-05
  -3.44999996E-03   1.07981514E-05
  -3.40000005E-03   1.08671775E-05
  -3.34999990E-03   1.09350613E-05
  -3.29999998E-03   1.10017563E-05
  -3.25000007E-03   1.10672117E-05
  -3.19999992E-03   1.11313784E-05
  -3.15000000E-03   1.11942072E-05
  -3.10000009E-03   1.12556445E-05
  -3.04999994E-03   1.13156384E-05
  -3.00000003E-03   1.13741326E-05
  -2.95000011E-03   1.14310724E-05
  -2.89999996E-03   1.14864006E-05
  -2.85000005E-03   1.15400589E-05
  -2.79999990E-03   1.15919929E-05
  -2.74999999E-03   1.16421434E-05
  -2.70000007E-03   1.16904548E-05
  -2.64999992E-03   1.17368654E-05
  -2.60000001E-03   1.17813170E-05
  -2.55000009E-03   1.18237449E-05
  -2.49999994E-03   1.18640837E-05
  -2.45000003E-03   1.19022689E-05
  -2.40000011E-03   1.19382339E-05
  -2.34999997E-03   1.19719143E-05
  -2.30000005E-03   1.20032464E-05
  -2.24999990E-03   1.20321629E-05
  -2.19999999E-03   1.20585973E-05
  -2.15000007E-03   1.20824798E-05
  -2.09999993E-03   1.21037392E-05
  -2.05000001E-03   1.21223020E-05
  -2.00000009E-03   1.21380945E-05
  -1.94999995E-03   1.21510411E-05
  -1.90000003E-03   1.21610692E-05
  -1.85000000E-03   1.21681041E-05
  -1.79999997E-03   1.21720741E-05
  -1.75000005E-03   1.21729036E-05
  -1.70000002E-03   1.21705143E-05
  -1.64999999E-03   1.21648263E-05
  -1.59999996E-03   1.21557587E-05
  -1.55000004E-03   1.21432295E-05
  -1.50000001E-03   1.21271542E-05
  -1.44999998E-03   1.21074518E-05
  -1.39999995E-03   1.20840386E-05
  -1.35000004E-03   1.20568347E-05
  -1.30000000E-03   1.20257555E-05
  -1.24999997E-03   1.19907181E-05
  -1.20000006E-03   1.19516326E-05
  -1.15000003E-03   1.19084107E-05
  -1.09999999E-03   1.18609605E-05
  -1.04999996E-03   1.18091921E-05
  -1.00000005E-03   1.17530135E-05
  -9.50000016E-04   1.16923338E-05
  -8.99999985E-04   1.16270649E-05
  -8.50000011E-04   1.15571138E-05
  -7.99999980E-04   1.14823906E-05
  -7.50000007E-04   1.14027980E-05
  -6.99999975E-04   1.13182396E-05
  -6.50000002E-04   1.12286152E-05
  -6.00000028E-04   1.11338259E-05
  -5.49999997E-04   1.10337724E-05
  -5.00000024E-04   1.09283583E-05
  -4.49999992E-04   1.08174863E-05
  -3.99999990E-04   1.07010601E-05
  -3.49999988E-04   1.05789804E-05
  -3.00000014E-04   1.04511446E-05
  -2.50000012E-04   1.03174489E-05
  -1.99999995E-04   1.01777869E-05
  -1.50000007E-04   1.00320513E-05
  -9.99999975E-05   9.88013653E-06
  -4.99999987E-05   9.72193902E-06
   0.00000000       9.55735595E-06
   4.99999987E-05   9.38628364E-06
   9.99999975E-05   9.20861930E-06
   1.50000007E-04   9.02425290E-06
   1.99999995E-04   8.83307530E-06
   2.50000012E-04   8.63497371E-06
   3.00000014E-04   8.42983445E-06
   3.49999988E-04   8.21754656E-06
   3.99999990E-04   7.99799818E-06
   4.49999992E-04   7.77108380E-06
   5.00000024E-04   7.53669337E-06
   5.49999997E-04   7.29472231E-06
   6.00000028E-04   7.04505692E-06
   6.50000002E-04   6.78758397E-06
   6.99999975E-04   6.52218523E-06
   7.50000007E-04   6.24874338E-06
   7.99999980E-04   5.96714108E-06
   8.50000011E-04   5.67726693E-06
   8.99999985E-04   5.37900860E-06
   9.50000016E-04   5.07225695E-06
   1.00000005E-03   4.75690058E-06
   1.04999996E-03   4.43282579E-06
   1.09999999E-03   4.09991389E-06
   1.15000003E-03   3.75804484E-06
   1.20000006E-03   3.40709903E-06
   1.24999997E-03   3.04695936E-06
   1.30000000E-03   2.67750784E-06
   1.35000004E-03   2.29863258E-06
   1.39999995E-03   1.91022195E-06
   1.44999998E-03   1.51216273E-06
   1.50000001E-03   1.10434166E-06
   1.55000004E-03   6.86643318E-07
   1.59999996E-03   2.58946784E-07
   1.64999999E-03  -1.78868689E-07
   1.70000002E-03  -6.26923566E-07
   1.75000005E-03  -1.08533368E-06
   1.79999997E-03  -1.55421094E-06
   1.85000000E-03  -2.03366562E-06
   1.90000003E-03  -2.52380801E-06
   1.94999995E-03  -3.02474905E-06
   2.00000009E-03  -3.53660312E-06
   2.05000001E-03  -4.05948640E-06
   2.09999993E-03  -4.59351713E-06
   2.15000007E-03  -5.13881378E-06
   2.19999999E-03  -5.69549093E-06
   2.24999990E-03  -6.26365727E-06
   2.30000005E-03  -6.84341921E-06
   2.34999997E-03  -7.43488135E-06
   2.40000011E-03  -8.03815146E-06
   2.45000003E-03  -8.65333914E-06
   2.49999994E-03  -9.28055670E-06
   2.55000009E-03  -9.91991510E-06
   2.60000001E-03  -1.05715262E-05
   2.64999992E-03  -1.12354992E-05
   2.70000007E-03  -1.19119359E-05
   2.74999999E-03  -1.26009381E-05
   2.79999990E-03  -1.33026069E-05