  -3.99999991E-02   0.00000000    
  -3.99499983E-02   0.00000000    
  -3.99000011E-02   0.00000000    
  -3.98500003E-02   0.00000000    
  -3.97999994E-02  -2.40137489E-22
  -3.97499986E-02  -2.12638065E-21
  -3.97000015E-02  -9.88403768E-21
  -3.96500006E-02  -3.14076052E-20
  -3.95999998E-02  -7.46380770E-20
  -3.95499989E-02  -1.35149163E-19
  -3.95000018E-02  -1.73676586E-19
  -3.94500010E-02  -8.95084903E-20
  -3.94000001E-02   2.95661441E-19
  -3.93499993E-02   1.22419773E-18
  -3.92999984E-02   2.94608192E-18
  -3.92500013E-02   5.62634646E-18
  -3.92000005E-02   9.25204989E-18
  -3.91499996E-02   1.35963247E-17
  -3.90999988E-02   1.82911818E-17
  -3.90500017E-02   2.30164594E-17
  -3.90000008E-02   2.77425806E-17
  -3.89500000E-02   3.29072267E-17
  -3.88999991E-02   3.94032779E-17
  -3.88499983E-02   4.83261678E-17
  -3.88000011E-02   6.05499120E-17
  -3.87500003E-02   7.63132415E-17
  -3.86999995E-02   9.50349394E-17
  -3.86499986E-02   1.15504192E-16
  -3.86000015E-02   1.36424040E-16
  -3.85500006E-02   1.57093377E-16
  -3.84999998E-02   1.77893158E-16
  -3.84499989E-02   2.00276149E-16
  -3.84000018E-02   2.26163011E-16
  -3.83500010E-02   2.56942574E-16
  -3.83000001E-02   2.92516608E-16
  -3.82499993E-02   3.30874363E-16
  -3.81999984E-02   3.68475717E-16
  -3.81500013E-02   4.01346180E-16
  -3.81000005E-02   4.26423464E-16
  -3.80499996E-02   4.42537498E-16
  -3.79999988E-02   4.50543548E-16
  -3.79500017E-02   4.52509511E-16
  -3.79000008E-02   4.50306379E-16
  -3.78500000E-02   4.44245434E-16
  -3.77999991E-02   4.32402140E-16
  -3.77499983E-02   4.10946452E-16
  -3.77000012E-02   3.75317255E-16
  -3.76500003E-02   3.21675955E-16
  -3.75999995E-02   2.47966566E-16
  -3.75499986E-02   1.54151394E-16
  -3.75000015E-02   4.16383067E-17
  -3.74500006E-02  -8.77040347E-17
  -3.73999998E-02  -2.32439499E-16
  -3.73499990E-02  -3.92061561E-16
  -3.73000018E-02  -5.67111375E-16
  -3.72500010E-02  -7.59133056E-16
  -3.72000001E-02  -9.70613995E-16
  -3.71499993E-02  -1.20478112E-15
  -3.70999984E-02  -1.46488387E-15
  -3.70500013E-02  -1.75264786E-15
  -3.70000005E-02  -2.06605545E-15
  -3.69499996E-02  -2.39731309E-15
  -3.68999988E-02  -2.73237942E-15
  -3.68500017E-02  -3.05325753E-15
  -3.68000008E-02  -3.34316387E-15
  -3.67500000E-02  -3.59298798E-15
  -3.66999991E-02  -3.80600914E-15
  -3.66499983E-02  -3.99765162E-15
  -3.66000012E-02  -4.18870286E-15
  -3.65500003E-02  -4.39352432E-15
  -3.64999995E-02  -4.60798883E-15
  -3.64499986E-02  -4.80337477E-15
  -3.64000015E-02  -4.93100866E-15
  -3.63500006E-02  -4.93803988E-15
  -3.62999998E-02  -4.78909252E-15
  -3.62499990E-02  -4.48423732E-15
  -3.62000018E-02  -4.06345676E-15
  -3.61500010E-02  -3.59251576E-15
  -3.61000001E-02  -3.13357721E-15
  -3.60499993E-02  -2.71235874E-15
  -3.59999985E-02  -2.29771748E-15
  -3.59500013E-02  -1.80624440E-15
  -3.59000005E-02  -1.13406584E-15
  -3.58499996E-02  -2.04655111E-16
  -3.57999988E-02   9.88560294E-16
  -3.57500017E-02   2.36697174E-15
  -3.57000008E-02   3.79103360E-15
  -3.56500000E-02   5.11822369E-15
  -3.55999991E-02   6.27112955E-15
  -3.55499983E-02   7.28321449E-15
  -3.55000012E-02   8.29583052E-15
  -3.54500003E-02   9.50028003E-15
  -3.53999995E-02   1.10452630E-14
  -3.53499986E-02   1.29504129E-14
  -3.53000015E-02   1.50697648E-14
  -3.52500007E-02   1.71307010E-14
  -3.51999998E-02   1.88402913E-14
  -3.51499990E-02   2.00165778E-14
  -3.51000018E-02   2.06842972E-14
  -3.50500010E-02   2.10836496E-14
  -3.50000001E-02   2.15764669E-14
  -3.49499993E-02   2.24819451E-14
  -3.48999985E-02   2.39126159E-14
  -3.48500013E-02   2.56900146E-14
  -3.48000005E-02   2.73907297E-14
  -3.47499996E-02   2.85165365E-14
  -3.46999988E-02   2.87213490E-14
  -3.46500017E-02   2.79922417E-14
  -3.46000008E-02   2.66920089E-14
  -3.45500000E-02   2.54269364E-14
  -3.44999991E-02   2.47836216E-14
  -3.44499983E-02   2.50464492E-14
  -3.44000012E-02   2.60287312E-14
  -3.43500003E-02   2.71102958E-14
  -3.42999995E-02   2.74853026E-14
  -3.42499986E-02   2.65239507E-14
  -3.42000015E-02   2.40875655E-14
  -3.41500007E-02   2.06425182E-14
  -3.40999998E-02   1.70991456E-14
  -3.40499990E-02   1.44256707E-14
  -3.40000018E-02   1.31991924E-14
  -3.39500010E-02   1.33010397E-14
  -3.39000002E-02   1.39143415E-14
  -3.38499993E-02   1.38522472E-14
  -3.37999985E-02   1.20905695E-14
  -3.37500013E-02   8.27019761E-15
  -3.37000005E-02   2.92803662E-15
  -3.36499996E-02  -2.67718273E-15
  -3.35999988E-02  -7.09755249E-15
  -3.35500017E-02  -9.36634379E-15
  -3.35000008E-02  -9.50105507E-15
  -3.34500000E-02  -8.58703452E-15
  -3.33999991E-02  -8.36651627E-15
  -3.33499983E-02  -1.04851591E-14
  -3.33000012E-02  -1.57223274E-14
  -3.32500003E-02  -2.35655052E-14
  -3.31999995E-02  -3.23560115E-14
  -3.31499986E-02  -3.99824522E-14
  -3.31000015E-02  -4.48391663E-14
  -3.30500007E-02  -4.66208120E-14
  -3.29999998E-02  -4.65683163E-14
  -3.29499990E-02  -4.70094443E-14
  -3.29000019E-02  -5.03558139E-14
  -3.28500010E-02  -5.79844536E-14
  -3.28000002E-02  -6.95173831E-14
  -3.27499993E-02  -8.28635866E-14
  -3.26999985E-02  -9.50580218E-14
  -3.26500013E-02  -1.03562538E-13
  -3.26000005E-02  -1.07455271E-13
  -3.25499997E-02  -1.07947824E-13
  -3.24999988E-02  -1.07944639E-13
  -3.24500017E-02  -1.10785242E-13
  -3.24000008E-02  -1.18698969E-13
  -3.23500000E-02  -1.31669157E-13
  -3.22999991E-02  -1.47258616E-13
  -3.22499983E-02  -1.61537369E-13
  -3.22000012E-02  -1.70751434E-13
  -3.21500003E-02  -1.73006046E-13
  -3.20999995E-02  -1.69185765E-13
  -3.20499986E-02  -1.62640816E-13
  -3.20000015E-02  -1.57712263E-13
  -3.19500007E-02  -1.57710406E-13
  -3.18999998E-02  -1.63250354E-13
  -3.18499990E-02  -1.71735198E-13
  -3.18000019E-02  -1.78293375E-13
  -3.17500010E-02  -1.77821882E-13
  -3.17000002E-02  -1.67257877E-13
  -3.16499993E-02  -1.47045990E-13
  -3.15999985E-02  -1.21082303E-13
  -3.15500014E-02  -9.50778695E-14
  -3.15000005E-02  -7.40090091E-14
  -3.14499997E-02  -5.97780695E-14
  -3.13999988E-02  -5.01710862E-14
  -3.13500017E-02  -3.96602341E-14
  -3.13000008E-02  -2.17795617E-14
  -3.12500000E-02   7.93361043E-15
  -3.11999992E-02   4.97506834E-14
  -3.11500002E-02   9.93571883E-14
  -3.10999993E-02   1.49521739E-13
  -3.10500003E-02   1.93167503E-13
  -3.09999995E-02   2.26509946E-13
  -3.09500005E-02   2.50829766E-13
  -3.08999997E-02   2.72004316E-13
  -3.08500007E-02   2.97903954E-13
  -3.07999998E-02   3.34739533E-13
  -3.07500008E-02   3.83978087E-13
  -3.07000000E-02   4.41258792E-13
  -3.06499992E-02   4.97896266E-13
  -3.06000002E-02   5.44404799E-13
  -3.05499993E-02   5.74533205E-13
  -3.05000003E-02   5.88000731E-13
  -3.04499995E-02   5.90638270E-13
  -3.04000005E-02   5.91762479E-13
  -3.03499997E-02   5.99863475E-13
  -3.03000007E-02   6.18496031E-13
  -3.02499998E-02   6.44253639E-13
  -3.02000009E-02   6.67833790E-13
  -3.01500000E-02   6.77840867E-13
  -3.00999992E-02   6.65715584E-13
  -3.00500002E-02   6.29600430E-13
  -2.99999993E-02   5.75348308E-13
  -2.99500003E-02   5.14103462E-13
  -2.98999995E-02   4.57416873E-13
  -2.98500005E-02   4.12013983E-13
  -2.97999997E-02   3.76571604E-13
  -2.97500007E-02   3.42042177E-13
  -2.96999998E-02   2.95516893E-13
  -2.96500009E-02   2.26015590E-13
  -2.96000000E-02   1.29659629E-13
  -2.95499992E-02   1.18665826E-14
  -2.95000002E-02  -1.14535429E-13
  -2.94499993E-02  -2.34571911E-13
  -2.94000003E-02  -3.37509778E-13
  -2.93499995E-02  -4.21525201E-13
  -2.93000005E-02  -4.94481246E-13
  -2.92499997E-02  -5.70326067E-13
  -2.92000007E-02  -6.62583161E-13
  -2.91499998E-02  -7.77768583E-13
  -2.91000009E-02  -9.11706257E-13
  -2.90500000E-02  -1.05050918E-12
  -2.89999992E-02  -1.17595137E-12
  -2.89500002E-02  -1.27297218E-12
  -2.88999993E-02  -1.33601149E-12
  -2.88500004E-02  -1.37129468E-12
  -2.87999995E-02  -1.39390875E-12
  -2.87500005E-02  -1.42081973E-12
  -2.86999997E-02  -1.46284493E-12
  -2.86500007E-02  -1.51916034E-12
  -2.85999998E-02  -1.57689844E-12
  -2.85500009E-02  -1.61618050E-12
  -2.85000000E-02  -1.61849798E-12
  -2.84499992E-02  -1.57478024E-12
  -2.84000002E-02  -1.48951782E-12
  -2.83499993E-02  -1.37896985E-12
  -2.83000004E-02  -1.26408335E-12
  -2.82499995E-02  -1.16115104E-12
  -2.82000005E-02  -1.07434146E-12
  -2.81499997E-02  -9.93518961E-13
  -2.81000007E-02  -8.98495471E-13
  -2.80499998E-02  -7.67996940E-13
  -2.80000009E-02  -5.89455676E-13
  -2.79500000E-02  -3.65257466E-13
  -2.78999992E-02  -1.12533084E-13
  -2.78500002E-02   1.43596235E-13
  -2.77999993E-02   3.80473349E-13
  -2.77500004E-02   5.87469689E-13
  -2.76999995E-02   7.70343804E-13
  -2.76500005E-02   9.48294611E-13
  -2.75999997E-02   1.14483835E-12
  -2.75500007E-02   1.37644540E-12
  -2.74999999E-02   1.64399332E-12
  -2.74500009E-02   1.93095995E-12
  -2.74000000E-02   2.20936399E-12
  -2.73499992E-02   2.45100273E-12
  -2.73000002E-02   2.63908383E-12
  -2.72499993E-02   2.77505189E-12
  -2.72000004E-02   2.87741402E-12
  -2.71499995E-02   2.97289905E-12
  -2.71000005E-02   3.08372338E-12
  -2.70499997E-02   3.21658997E-12
  -2.70000007E-02   3.35841229E-12
  -2.69499999E-02   3.48085514E-12
  -2.69000009E-02   3.55187906E-12
  -2.68500000E-02   3.54928240E-12
  -2.67999992E-02   3.47021695E-12
  -2.67500002E-02   3.33231684E-12
  -2.66999993E-02   3.16575043E-12
  -2.66500004E-02   2.99956869E-12
  -2.65999995E-02   2.84836282E-12
  -2.65500005E-02   2.70524813E-12
  -2.64999997E-02   2.54447310E-12
  -2.64500007E-02   2.33269914E-12
  -2.63999999E-02   2.04407259E-12
  -2.63500009E-02   1.67239801E-12
  -2.63000000E-02   1.23487722E-12
  -2.62499992E-02   7.65562310E-13
  -2.62000002E-02   3.01255738E-13
  -2.61499994E-02  -1.33950603E-13
  -2.61000004E-02  -5.38565449E-13
  -2.60499995E-02  -9.33461641E-13
  -2.60000005E-02  -1.35142830E-12
  -2.59499997E-02  -1.82103356E-12
  -2.59000007E-02  -2.35196953E-12
  -2.58499999E-02  -2.92851724E-12
  -2.58000009E-02  -3.51423795E-12
  -2.57500000E-02  -4.06597672E-12
  -2.56999992E-02  -4.55104097E-12
  -2.56500002E-02  -4.95985891E-12
  -2.55999994E-02  -5.30834057E-12
  -2.55500004E-02  -5.62870106E-12
  -2.54999995E-02  -5.95271488E-12
  -2.54500005E-02  -6.29484225E-12
  -2.53999997E-02  -6.64287115E-12
  -2.53500007E-02  -6.96043743E-12
  -2.52999999E-02  -7.20048804E-12
  -2.52500009E-02  -7.32379261E-12
  -2.52000000E-02  -7.31424036E-12
  -2.51499992E-02  -7.18398431E-12
  -2.51000002E-02  -6.96599028E-12
  -2.50499994E-02  -6.69721657E-12
  -2.50000004E-02  -6.39993874E-12
  -2.49499995E-02  -6.06967124E-12
  -2.49000005E-02  -5.67525931E-12
  -2.48499997E-02  -5.17127617E-12
  -2.48000007E-02  -4.51726980E-12
  -2.47499999E-02  -3.69523162E-12
  -2.47000009E-02  -2.71736214E-12
  -2.46500000E-02  -1.62052251E-12
  -2.45999992E-02  -4.49765523E-13
  -2.45500002E-02   7.61675499E-13
  -2.44999994E-02   2.00685909E-12
  -2.44500004E-02   3.30744243E-12
  -2.43999995E-02   4.70263932E-12
  -2.43500005E-02   6.22973288E-12
  -2.42999997E-02   7.90492932E-12
  -2.42500007E-02   9.71327359E-12
  -2.41999999E-02   1.16122693E-11
  -2.41500009E-02   1.35476647E-11
  -2.41000000E-02   1.54742469E-11
  -2.40499992E-02   1.73721974E-11
  -2.40000002E-02   1.92514719E-11
  -2.39499994E-02   2.11421523E-11
  -2.39000004E-02   2.30751078E-11
  -2.38499995E-02   2.50617652E-11
  -2.38000005E-02   2.70823416E-11
  -2.37499997E-02   2.90879820E-11
  -2.37000007E-02   3.10159537E-11
  -2.36499999E-02   3.28110143E-11
  -2.36000009E-02   3.44432052E-11
  -2.35500000E-02   3.59138726E-11
  -2.34999992E-02   3.72471012E-11
  -2.34500002E-02   3.84705219E-11
  -2.33999994E-02   3.95942758E-11
  -2.33500004E-02   4.05979590E-11
  -2.32999995E-02   4.14316637E-11
  -2.32500006E-02   4.20307088E-11
  -2.31999997E-02   4.23374183E-11
  -2.31500007E-02   4.23198837E-11
  -2.30999999E-02   4.19790210E-11
  -2.30500009E-02   4.13406635E-11
  -2.30000000E-02   4.04362863E-11
  -2.29499992E-02   3.92814670E-11
  -2.29000002E-02   3.78620364E-11
  -2.28499994E-02   3.61346959E-11
  -2.28000004E-02   3.40418353E-11
  -2.27499995E-02   3.15338936E-11
  -2.27000006E-02   2.85887824E-11
  -2.26499997E-02   2.52193908E-11
  -2.26000007E-02   2.14654995E-11
  -2.25499999E-02   1.73739443E-11
  -2.25000009E-02   1.29762754E-11
  -2.24500000E-02   8.27453297E-12
  -2.23999992E-02   3.24201386E-12
  -2.23500002E-02  -2.16110138E-12
  -2.22999994E-02  -7.96447370E-12
  -2.22500004E-02  -1.41675803E-11
  -2.21999995E-02  -2.07325320E-11
  -2.21500006E-02  -2.75933755E-11
  -2.20999997E-02  -3.46775594E-11
  -2.20500007E-02  -4.19296715E-11
  -2.19999999E-02  -4.93260086E-11
  -2.19500009E-02  -5.68728363E-11
  -2.19000001E-02  -6.45888204E-11
  -2.18499992E-02  -7.24796750E-11
  -2.18000002E-02  -8.05169612E-11
  -2.17499994E-02  -8.86313939E-11
  -2.17000004E-02  -9.67241565E-11
  -2.16499995E-02  -1.04691408E-10
  -2.16000006E-02  -1.12450445E-10
  -2.15499997E-02  -1.19955240E-10
  -2.15000007E-02  -1.27193311E-10
  -2.14499999E-02  -1.34165304E-10
  -2.14000009E-02  -1.40855952E-10
  -2.13500001E-02  -1.47210980E-10
  -2.12999992E-02  -1.53130425E-10
  -2.12500002E-02  -1.58482796E-10
  -2.11999994E-02  -1.63133881E-10
  -2.11500004E-02  -1.66977140E-10
  -2.10999995E-02  -1.69951025E-10
  -2.10500006E-02  -1.72034817E-10
  -2.09999997E-02  -1.73223907E-10
  -2.09500007E-02  -1.73496037E-10
  -2.08999999E-02  -1.72783912E-10
  -2.08500009E-02  -1.70967879E-10
  -2.08000001E-02  -1.67892908E-10
  -2.07499992E-02  -1.63403055E-10
  -2.07000002E-02  -1.57377680E-10
  -2.06499994E-02  -1.49751975E-10
  -2.06000004E-02  -1.40512310E-10
  -2.05499995E-02  -1.29666722E-10
  -2.05000006E-02  -1.17204205E-10
  -2.04499997E-02  -1.03061351E-10
  -2.04000007E-02  -8.71127337E-11
  -2.03499999E-02  -6.91906185E-11
  -2.03000009E-02  -4.91265188E-11
  -2.02500001E-02  -2.67950540E-11
  -2.01999992E-02  -2.14077627E-12
  -2.01500002E-02   2.48260683E-11
  -2.00999994E-02   5.40641698E-11
  -2.00500004E-02   8.55505597E-11
  -1.99999996E-02   1.19322802E-10
  -1.99500006E-02   1.55493854E-10
  -1.98999997E-02   1.94230368E-10
  -1.98500007E-02   2.35704400E-10
  -1.97999999E-02   2.80039075E-10
  -1.97500009E-02   3.27272570E-10
  -1.97000001E-02   3.77360421E-10
  -1.96499992E-02   4.30213365E-10
  -1.96000002E-02   4.85758045E-10
  -1.95499994E-02   5.43990408E-10
  -1.95000004E-02   6.04998551E-10
  -1.94499996E-02   6.68942346E-10
  -1.94000006E-02   7.35997152E-10
  -1.93499997E-02   8.06287814E-10
  -1.93000007E-02   8.79840367E-10
  -1.92499999E-02   9.56577706E-10
  -1.92000009E-02   1.03636000E-09
  -1.91500001E-02   1.11905596E-09
  -1.90999992E-02   1.20461119E-09
  -1.90500002E-02   1.29308275E-09
  -1.89999994E-02   1.38462308E-09
  -1.89500004E-02   1.47941837E-09
  -1.88999996E-02   1.57760827E-09
  -1.88500006E-02   1.67922254E-09
  -1.87999997E-02   1.78416582E-09
  -1.87500007E-02   1.89225879E-09
  -1.86999999E-02   2.00331840E-09
  -1.86500009E-02   2.11724438E-09
  -1.86000001E-02   2.23406849E-09
  -1.85499992E-02   2.35394770E-09
  -1.85000002E-02   2.47709830E-09
  -1.84499994E-02   2.60370170E-09
  -1.84000004E-02   2.73382184E-09
  -1.83499996E-02   2.86737500E-09
  -1.83000006E-02   3.00416581E-09
  -1.82499997E-02   3.14397708E-09
  -1.82000007E-02   3.28667316E-09
  -1.81499999E-02   3.43227224E-09
  -1.81000009E-02   3.58095020E-09
  -1.80500001E-02   3.73297659E-09
  -1.79999992E-02   3.88860588E-09
  -1.79500002E-02   4.04797307E-09
  -1.78999994E-02   4.21104263E-09
  -1.78500004E-02   4.37763648E-09
  -1.77999996E-02   4.54752680E-09
  -1.77500006E-02   4.72056083E-09
  -1.76999997E-02   4.89675456E-09
  -1.76500008E-02   5.07631936E-09
  -1.75999999E-02   5.25959809E-09
  -1.75500009E-02   5.44695089E-09
  -1.75000001E-02   5.63862201E-09
  -1.74499992E-02   5.83466786E-09
  -1.74000002E-02   6.03496408E-09
  -1.73499994E-02   6.23929974E-09
  -1.73000004E-02   6.44752074E-09
  -1.72499996E-02   6.65964928E-09
  -1.72000006E-02   6.87593671E-09
  -1.71499997E-02   7.09681336E-09
  -1.71000008E-02   7.32276195E-09
  -1.70499999E-02   7.55416707E-09
  -1.70000009E-02   7.79120590E-09
  -1.69500001E-02   8.03383848E-09
  -1.68999992E-02   8.28189517E-09
  -1.68500002E-02   8.53522852E-09
  -1.67999994E-02   8.79386786E-09
  -1.67500004E-02   9.05810271E-09
  -1.66999996E-02   9.32844557E-09
  -1.66500006E-02   9.60551372E-09
  -1.65999997E-02   9.88984805E-09
  -1.65500008E-02   1.01817763E-08
  -1.64999999E-02   1.04813660E-08
  -1.64500009E-02   1.07885043E-08
  -1.64000001E-02   1.11030607E-08
  -1.63499992E-02   1.14250636E-08
  -1.63000003E-02   1.17548220E-08
  -1.62499994E-02   1.20929231E-08
  -1.62000004E-02   1.24401058E-08
  -1.61499996E-02   1.27970727E-08
  -1.61000006E-02   1.31643132E-08
  -1.60499997E-02   1.35420208E-08
  -1.60000008E-02   1.39301495E-08
  -1.59499999E-02   1.43285801E-08
  -1.59000009E-02   1.47373260E-08
  -1.58500001E-02   1.51566937E-08
  -1.57999992E-02   1.55873146E-08
  -1.57500003E-02   1.60300342E-08
  -1.56999994E-02   1.64857124E-08
  -1.56500004E-02   1.69550098E-08
  -1.55999996E-02   1.74382624E-08
  -1.55499997E-02   1.79355109E-08
  -1.54999997E-02   1.84466522E-08
  -1.54499998E-02   1.89716758E-08
  -1.53999999E-02   1.95108605E-08
  -1.53500000E-02   2.00648511E-08
  -1.53000001E-02   2.06345732E-08
  -1.52500002E-02   2.12210267E-08
  -1.52000003E-02   2.18250449E-08
  -1.51500003E-02   2.24471215E-08
  -1.51000004E-02   2.30873898E-08
  -1.50499996E-02   2.37457733E-08
  -1.49999997E-02   2.44222296E-08
  -1.49499997E-02   2.51169929E-08
  -1.48999998E-02   2.58306869E-08
  -1.48499999E-02   2.65642939E-08
  -1.48000000E-02   2.73189436E-08
  -1.47500001E-02   2.80956396E-08
  -1.47000002E-02   2.88950517E-08
  -1.46500003E-02   2.97174392E-08
  -1.46000003E-02   3.05627772E-08
  -1.45500004E-02   3.14310000E-08
  -1.44999996E-02   3.23222835E-08
  -1.44499997E-02   3.32372245E-08
  -1.43999998E-02   3.41768356E-08
  -1.43499998E-02   3.51423637E-08
  -1.42999999E-02   3.61350097E-08
  -1.42500000E-02   3.71556332E-08
  -1.42000001E-02   3.82046572E-08
  -1.41500002E-02   3.92821420E-08
  -1.41000003E-02   4.03880200E-08
  -1.40500003E-02   4.15224264E-08
  -1.40000004E-02   4.26859259E-08
  -1.39499996E-02   4.38795524E-08
  -1.38999997E-02   4.51046773E-08
  -1.38499998E-02   4.63626932E-08
  -1.37999998E-02   4.76547015E-08
  -1.37499999E-02   4.89813345E-08
  -1.37000000E-02   5.03428019E-08
  -1.36500001E-02   5.17390966E-08
  -1.36000002E-02   5.31703357E-08
  -1.35500003E-02   5.46370735E-08
  -1.35000004E-02   5.61403901E-08
  -1.34500004E-02   5.76817669E-08
  -1.33999996E-02   5.92628204E-08
  -1.33499997E-02   6.08849220E-08
  -1.32999998E-02   6.25489847E-08
  -1.32499998E-02   6.42554383E-08
  -1.31999999E-02   6.60043966E-08
  -1.31500000E-02   6.77960443E-08
  -1.31000001E-02   6.96309499E-08
  -1.30500002E-02   7.15102075E-08
  -1.30000003E-02   7.34354586E-08
  -1.29500004E-02   7.54085292E-08
  -1.29000004E-02   7.74311459E-08
  -1.28499996E-02   7.95045523E-08
  -1.27999997E-02   8.16294659E-08
  -1.27499998E-02   8.38061993E-08
  -1.26999998E-02   8.60350582E-08
  -1.26499999E-02   8.83166535E-08
  -1.26000000E-02   9.06521933E-08
  -1.25500001E-02   9.30434396E-08
  -1.25000002E-02   9.54925241E-08
  -1.24500003E-02   9.80014931E-08
  -1.24000004E-02   1.00571995E-07
  -1.23500004E-02   1.03205103E-07
  -1.22999996E-02   1.05901442E-07
  -1.22499997E-02   1.08661467E-07
  -1.21999998E-02   1.11485917E-07
  -1.21499998E-02   1.14376093E-07
  -1.20999999E-02   1.17333954E-07
  -1.20500000E-02   1.20361861E-07
  -1.20000001E-02   1.23462257E-07
  -1.19500002E-02   1.26637232E-07
  -1.19000003E-02   1.29888335E-07
  -1.18500004E-02   1.33216503E-07
  -1.18000004E-02   1.36622504E-07
  -1.17499996E-02   1.40107232E-07
  -1.16999997E-02   1.43672096E-07
  -1.16499998E-02   1.47319227E-07
  -1.15999999E-02   1.51051239E-07
  -1.15499999E-02   1.54870989E-07
  -1.15000000E-02   1.58781020E-07
  -1.14500001E-02   1.62783323E-07
  -1.14000002E-02   1.66879317E-07
  -1.13500003E-02   1.71070070E-07
  -1.13000004E-02   1.75356703E-07
  -1.12500004E-02   1.79740852E-07
  -1.11999996E-02   1.84224788E-07
  -1.11499997E-02   1.88811441E-07
  -1.10999998E-02   1.93504022E-07
  -1.10499999E-02   1.98305585E-07
  -1.09999999E-02   2.03218647E-07
  -1.09500000E-02   2.08245140E-07
  -1.09000001E-02   2.13386443E-07
  -1.08500002E-02   2.18643976E-07
  -1.08000003E-02   2.24019487E-07
  -1.07500004E-02   2.29515450E-07
  -1.07000005E-02   2.35135062E-07
  -1.06499996E-02   2.40881832E-07
  -1.05999997E-02   2.46759328E-07
  -1.05499998E-02   2.52770633E-07
  -1.04999999E-02   2.58918220E-07
  -1.04499999E-02   2.65203937E-07
  -1.04000000E-02   2.71629546E-07
  -1.03500001E-02   2.78197120E-07
  -1.03000002E-02   2.84909305E-07
  -1.02500003E-02   2.91769510E-07
  -1.02000004E-02   2.98781714E-07
  -1.01500005E-02   3.05949868E-07
  -1.00999996E-02   3.13277610E-07
  -1.00499997E-02   3.20767981E-07
  -9.99999978E-03   3.28423312E-07
  -9.94999986E-03   3.36245733E-07
  -9.89999995E-03   3.44237549E-07
  -9.85000003E-03   3.52401543E-07
  -9.80000012E-03   3.60741438E-07
  -9.75000020E-03   3.69261357E-07
  -9.70000029E-03   3.77965847E-07
  -9.65000037E-03   3.86859028E-07
  -9.60000046E-03   3.95944539E-07
  -9.54999961E-03   4.05225279E-07
  -9.49999969E-03   4.14703806E-07
  -9.44999978E-03   4.24382705E-07
  -9.39999986E-03   4.34265104E-07
  -9.34999995E-03   4.44354924E-07
  -9.30000003E-03   4.54656742E-07
  -9.25000012E-03   4.65175503E-07
  -9.20000020E-03   4.75915954E-07
  -9.15000029E-03   4.86882357E-07
  -9.10000037E-03   4.98078236E-07
  -9.05000046E-03   5.09506549E-07
  -8.99999961E-03   5.21170250E-07
  -8.94999970E-03   5.33072864E-07
  -8.89999978E-03   5.45218427E-07
  -8.84999987E-03   5.57611770E-07
  -8.79999995E-03   5.70258180E-07
  -8.75000004E-03   5.83163001E-07
  -8.70000012E-03   5.96330892E-07
  -8.65000021E-03   6.09765948E-07
  -8.60000029E-03   6.23471749E-07
  -8.55000038E-03   6.37451649E-07
  -8.50000046E-03   6.51709342E-07
  -8.44999962E-03   6.66249207E-07
  -8.39999970E-03   6.81076415E-07
  -8.34999979E-03   6.96196651E-07
  -8.29999987E-03   7.11615712E-07
  -8.24999996E-03   7.27339057E-07
  -8.20000004E-03   7.43371515E-07
  -8.15000013E-03   7.59717125E-07
  -8.10000021E-03   7.76379864E-07
  -8.05000030E-03   7.93363711E-07
  -8.00000038E-03   8.10673441E-07
  -7.95000046E-03   8.28314512E-07
  -7.89999962E-03   8.46292949E-07
  -7.84999970E-03   8.64615004E-07
  -7.79999979E-03   8.83286702E-07
  -7.74999987E-03   9.02313332E-07
  -7.69999996E-03   9.21699552E-07
  -7.65000004E-03   9.41449628E-07
  -7.60000013E-03   9.61567821E-07
  -7.55000021E-03   9.82059191E-07
  -7.49999983E-03   1.00292914E-06
  -7.44999992E-03   1.02418426E-06
  -7.40000000E-03   1.04583114E-06
  -7.35000009E-03   1.06787616E-06
  -7.30000017E-03   1.09032510E-06
  -7.24999979E-03   1.11318343E-06
  -7.19999988E-03   1.13645569E-06
  -7.14999996E-03   1.16014689E-06
  -7.10000005E-03   1.18426226E-06
  -7.05000013E-03   1.20880770E-06
  -7.00000022E-03   1.23379004E-06
  -6.94999984E-03   1.25921633E-06
  -6.89999992E-03   1.28509316E-06
  -6.85000001E-03   1.31142724E-06
  -6.80000009E-03   1.33822414E-06
  -6.75000018E-03   1.36548897E-06
  -6.69999979E-03   1.39322697E-06
  -6.64999988E-03   1.42144359E-06
  -6.59999996E-03   1.45014485E-06
  -6.55000005E-03   1.47933781E-06
  -6.50000013E-03   1.50902963E-06
  -6.45000022E-03   1.53922736E-06
  -6.39999984E-03   1.56993769E-06
  -6.34999992E-03   1.60116679E-06
  -6.30000001E-03   1.63292009E-06
  -6.25000009E-03   1.66520294E-06
  -6.20000018E-03   1.69802104E-06
  -6.14999980E-03   1.73138062E-06
  -6.09999988E-03   1.76528863E-06
  -6.04999997E-03   1.79975268E-06
  -6.00000005E-03   1.83478005E-06
  -5.95000014E-03   1.87037801E-06
  -5.90000022E-03   1.90655294E-06
  -5.84999984E-03   1.94331074E-06
  -5.79999993E-03   1.98065663E-06
  -5.75000001E-03   2.01859712E-06
  -5.70000010E-03   2.05713764E-06
  -5.65000018E-03   2.09628593E-06
  -5.59999980E-03   2.13604903E-06
  -5.54999989E-03   2.17643424E-06
  -5.49999997E-03   2.21744926E-06
  -5.45000006E-03   2.25910071E-06
  -5.40000014E-03   2.30139403E-06
  -5.35000023E-03   2.34433537E-06
  -5.29999984E-03   2.38792973E-06
  -5.24999993E-03   2.43218392E-06
  -5.20000001E-03   2.47710454E-06
  -5.15000010E-03   2.52269888E-06
  -5.10000018E-03   2.56897420E-06
  -5.04999980E-03   2.61593800E-06
  -4.99999989E-03   2.66359643E-06
  -4.94999997E-03   2.71195586E-06
  -4.90000006E-03   2.76102173E-06
  -4.85000014E-03   2.81079974E-06
  -4.80000023E-03   2.86129580E-06
  -4.74999985E-03   2.91251649E-06
  -4.69999993E-03   2.96446888E-06
  -4.65000002E-03   3.01716045E-06
  -4.60000010E-03   3.07059781E-06
  -4.55000019E-03   3.12478733E-06
  -4.49999981E-03   3.17973513E-06
  -4.44999989E-03   3.23544577E-06
  -4.39999998E-03   3.29192517E-06
  -4.35000006E-03   3.34917809E-06
  -4.30000015E-03   3.40721067E-06
  -4.25000023E-03   3.46602974E-06
  -4.19999985E-03   3.52564166E-06
  -4.14999994E-03   3.58605325E-06
  -4.10000002E-03   3.64726998E-06
  -4.05000011E-03   3.70929752E-06
  -4.00000019E-03   3.77213996E-06
  -3.94999981E-03   3.83580209E-06
  -3.89999989E-03   3.90028799E-06
  -3.84999998E-03   3.96560381E-06
  -3.80000006E-03   4.03175545E-06
  -3.74999992E-03   4.09874838E-06
  -3.70000000E-03   4.16658850E-06
  -3.65000009E-03   4.23528036E-06
  -3.59999994E-03   4.30482987E-06
  -3.55000002E-03   4.37523886E-06
  -3.50000011E-03   4.44651232E-06
  -3.44999996E-03   4.51865344E-06
  -3.40000005E-03   4.59166586E-06
  -3.34999990E-03   4.66555548E-06
  -3.29999998E-03   4.74032640E-06
  -3.25000007E-03   4.81598408E-06
  -3.19999992E-03   4.89253171E-06
  -3.15000000E-03   4.96997245E-06
  -3.10000009E-03   5.04830905E-06
  -3.04999994E-03   5.12754286E-06
  -3.00000003E-03   5.20767708E-06
  -2.95000011E-03   5.28871306E-06
  -2.89999996E-03   5.37065489E-06
  -2.85000005E-03   5.45350485E-06
  -2.79999990E-03   5.53726750E-06
  -2.74999999E-03   5.62194555E-06
  -2.70000007E-03   5.70753991E-06
  -2.64999992E-03   5.79405150E-06
  -2.60000001E-03   5.88147986E-06
  -2.55000009E-03   5.96982454E-06
  -2.49999994E-03   6.05908690E-06
  -2.45000003E-03   6.14926830E-06
  -2.40000011E-03   6.24037148E-06
  -2.34999997E-03   6.33239824E-06
  -2.30000005E-03   6.42534815E-06
  -2.24999990E-03   6.51922073E-06
  -2.19999999E-03   6.61401373E-06
  -2.15000007E-03   6.70972486E-06
  -2.09999993E-03   6.80635276E-06
  -2.05000001E-03   6.90389516E-06
  -2.00000009E-03   7.00235023E-06
  -1.94999995E-03   7.10171844E-06
  -1.90000003E-03   7.20199932E-06
  -1.85000000E-03   7.30318925E-06
  -1.79999997E-03   7.40528640E-06
  -1.75000005E-03   7.50828576E-06
  -1.70000002E-03   7.61218143E-06
  -1.64999999E-03   7.71696887E-06
  -1.59999996E-03   7.82264215E-06
  -1.55000004E-03   7.92919855E-06
  -1.50000001E-03   8.03663443E-06
  -1.44999998E-03   8.14494615E-06
  -1.39999995E-03   8.25412826E-06
  -1.35000004E-03   8.36417439E-06
  -1.30000000E-03   8.47507636E-06
  -1.24999997E-03   8.58682506E-06
  -1.20000006E-03   8.69941232E-06
  -1.15000003E-03   8.81282995E-06
  -1.09999999E-03   8.92707158E-06
  -1.04999996E-03   9.04212811E-06
  -1.00000005E-03   9.15799501E-06
  -9.50000016E-04   9.27466135E-06
  -8.99999985E-04   9.39211714E-06
  -8.50000011E-04   9.51035054E-06
  -7.99999980E-04   9.62934882E-06
  -7.50000007E-04   9.74909926E-06
  -6.99999975E-04   9.86958912E-06
  -6.50000002E-04   9.99080657E-06
  -6.00000028E-04   1.01127416E-05
  -5.49999997E-04   1.02353815E-05
  -5.00000024E-04   1.03587136E-05
  -4.49999992E-04   1.04827232E-05
  -3.99999990E-04   1.06073940E-05
  -3.49999988E-04   1.07327069E-05
  -3.00000014E-04   1.08586464E-05
  -2.50000012E-04   1.09851935E-05
  -1.99999995E-04   1.11123336E-05
  -1.50000007E-04   1.12400494E-05
  -9.99999975E-05   1.13683254E-05
  -4.99999987E-05   1.14971454E-05
   0.00000000       1.16264882E-05
   4.99999987E-05   1.17563350E-05
   9.99999975E-05   1.18866601E-05
   1.50000007E-04   1.20174400E-05
   1.99999995E-04   1.21486537E-05
   2.50000012E-04   1.22802767E-05
   3.00000014E-04   1.24122880E-05
   3.49999988E-04   1.25446677E-05
   3.99999990E-04   1.26773930E-05
   4.49999992E-04   1.28104393E-05
   5.00000024E-04   1.29437803E-05
   5.49999997E-04   1.30773860E-05
   6.00000028E-04   1.32112255E-05
   6.50000002E-04   1.33452695E-05
   6.99999975E-04   1.34794918E-05
   7.50000007E-04   1.36138642E-05
   7.99999980E-04   1.37483594E-05
   8.50000011E-04   1.38829491E-05
   8.99999985E-04   1.40176053E-05
   9.50000016E-04   1.41522914E-05
   1.00000005E-03   1.42869749E-05
   1.04999996E-03   1.44216183E-05
   1.09999999E-03   1.45561880E-05
   1.15000003E-03   1.46906423E-05
   1.20000006E-03   1.48249519E-05
   1.24999997E-03   1.49590833E-05
   1.30000000E-03   1.50930018E-05
   1.35000004E-03   1.52266730E-05
   1.39999995E-03   1.53600577E-05
   1.44999998E-03   1.54931131E-05
   1.50000001E-03   1.56257975E-05
   1.55000004E-03   1.57580635E-05
   1.59999996E-03   1.58898711E-05
   1.64999999E-03   1.60211748E-05
   1.70000002E-03   1.61519365E-05
   1.75000005E-03   1.62821143E-05
   1.79999997E-03   1.64116682E-05
   1.85000000E-03   1.65405545E-05
   1.90000003E-03   1.66687241E-05
   1.94999995E-03   1.67961261E-05
   2.00000009E-03   1.69227096E-05
   2.05000001E-03   1.70484182E-05
   2.09999993E-03   1.71732045E-05
   2.15000007E-03   1.72970231E-05
   2.19999999E-03   1.74198231E-05
   2.24999990E-03   1.75415607E-05
   2.30000005E-03   1.76621870E-05
   2.34999997E-03   1.77816437E-05
   2.40000011E-03   1.78998725E-05
   2.45000003E-03   1.80168154E-05
   2.49999994E-03   1.81324122E-05
   2.55000009E-03   1.82466028E-05
   2.60000001E-03   1.83593329E-05
   2.64999992E-03   1.84705477E-05
   2.70000007E-03   1.85801946E-05
   2.74999999E-03   1.86882153E-05
   2.79999990E-03   1.87945498E-05