  -3.99999991E-02   0.00000000    
  -3.99499983E-02   0.00000000    
  -3.99000011E-02   0.00000000    
  -3.98500003E-02  -2.63655197E-18
  -3.97999994E-02  -2.29239789E-17
  -3.97499986E-02  -1.02144206E-16
  -3.97000015E-02  -3.04701812E-16
  -3.96500006E-02  -6.60677705E-16
  -3.95999998E-02  -1.02876185E-15
  -3.95499989E-02  -9.07983321E-16
  -3.95000018E-02   6.96729386E-16
  -3.94500010E-02   5.19903233E-15
  -3.94000001E-02   1.40201935E-14
  -3.93499993E-02   2.78641297E-14
  -3.92999984E-02   4.59403091E-14
  -3.92500013E-02   6.56169658E-14
  -3.92000005E-02   8.30003113E-14
  -3.91499996E-02   9.45901750E-14
  -3.90999988E-02   9.95088547E-14
  -3.90500017E-02   1.01173945E-13
  -3.90000008E-02   1.07162333E-13
  -3.89500000E-02   1.26678046E-13
  -3.88999991E-02   1.66303332E-13
  -3.88499983E-02   2.25925073E-13
  -3.88000011E-02   2.97129156E-13
  -3.87500003E-02   3.65533694E-13
  -3.86999995E-02   4.16719908E-13
  -3.86499986E-02   4.43411231E-13
  -3.86000015E-02   4.50374845E-13
  -3.85500006E-02   4.53968541E-13
  -3.84999998E-02   4.75449595E-13
  -3.84499989E-02   5.30312935E-13
  -3.84000018E-02   6.18495706E-13
  -3.83500010E-02   7.20704475E-13
  -3.83000001E-02   8.03729641E-13
  -3.82499993E-02   8.33284017E-13
  -3.81999984E-02   7.88818067E-13
  -3.81500013E-02   6.73204981E-13
  -3.81000005E-02   5.12196459E-13
  -3.80499996E-02   3.43277110E-13
  -3.79999988E-02   1.98691744E-13
  -3.79500017E-02   9.04144991E-14
  -3.79000008E-02   4.14480368E-15
  -3.78500000E-02  -9.47076415E-14
  -3.77999991E-02  -2.45789012E-13
  -3.77499983E-02  -4.76550982E-13
  -3.77000012E-02  -7.91094891E-13
  -3.76500003E-02  -1.16992776E-12
  -3.75999995E-02  -1.57969872E-12
  -3.75499986E-02  -1.98706980E-12
  -3.75000015E-02  -2.36971185E-12
  -3.74500006E-02  -2.72039791E-12
  -3.73999998E-02  -3.04502517E-12
  -3.73499990E-02  -3.35863737E-12
  -3.73000018E-02  -3.68290598E-12
  -3.72500010E-02  -4.04475411E-12
  -3.72000001E-02  -4.47208460E-12
  -3.71499993E-02  -4.98228065E-12
  -3.70999984E-02  -5.56369534E-12
  -3.70500013E-02  -6.15789537E-12
  -3.70000005E-02  -6.65611576E-12
  -3.69499996E-02  -6.92210265E-12
  -3.68999988E-02  -6.84269395E-12
  -3.68500017E-02  -6.39017355E-12
  -3.68000008E-02  -5.66539524E-12
  -3.67500000E-02  -4.88894819E-12
  -3.66999991E-02  -4.32534390E-12
  -3.66499983E-02  -4.15857800E-12
  -3.66000012E-02  -4.37107859E-12
  -3.65500003E-02  -4.69222447E-12
  -3.64999995E-02  -4.66371343E-12
  -3.64499986E-02  -3.81904881E-12
  -3.64000015E-02  -1.91328919E-12
  -3.63500006E-02   9.02834773E-13
  -3.62999998E-02   4.06654007E-12
  -3.62499990E-02   6.78831210E-12
  -3.62000018E-02   8.38877318E-12
  -3.61500010E-02   8.64817332E-12
  -3.61000001E-02   7.99417563E-12
  -3.60499993E-02   7.40129919E-12
  -3.59999985E-02   7.99833637E-12
  -3.59500013E-02   1.05284904E-11
  -3.59000005E-02   1.49080158E-11
  -3.58499996E-02   2.01221557E-11
  -3.57999988E-02   2.45671278E-11
  -3.57500017E-02   2.67401917E-11
  -3.57000008E-02   2.59891188E-11
  -3.56500000E-02   2.29562723E-11
  -3.55999991E-02   1.94474801E-11
  -3.55499983E-02   1.77011149E-11
  -3.55000012E-02   1.93288354E-11
  -3.54500003E-02   2.44053614E-11
  -3.53999995E-02   3.11828410E-11
  -3.53499986E-02   3.66649246E-11
  -3.53000015E-02   3.78825755E-11
  -3.52500007E-02   3.33427556E-11
  -3.51999998E-02   2.39616538E-11
  -3.51499990E-02   1.29539487E-11
  -3.51000018E-02   4.59179439E-12
  -3.50500010E-02   2.28917449E-12
  -3.50000001E-02   6.85609859E-12
  -3.49499993E-02   1.57922234E-11
  -3.48999985E-02   2.40932569E-11
  -3.48500013E-02   2.63668618E-11
  -3.48000005E-02   1.93933099E-11
  -3.47499996E-02   3.94539132E-12
  -3.46999988E-02  -1.50995865E-11
  -3.46500017E-02  -3.06081514E-11
  -3.46000008E-02  -3.63322324E-11
  -3.45500000E-02  -2.99776350E-11
  -3.44999991E-02  -1.47184123E-11
  -3.44499983E-02   1.73627432E-12
  -3.44000012E-02   1.03361633E-11
  -3.43500003E-02   4.85514233E-12
  -3.42999995E-02  -1.48593117E-11
  -3.42499986E-02  -4.21938491E-11
  -3.42000015E-02  -6.62191413E-11
  -3.41500007E-02  -7.64246444E-11
  -3.40999998E-02  -6.77062920E-11
  -3.40499990E-02  -4.32599338E-11
  -3.40000018E-02  -1.38102047E-11
  -3.39500010E-02   6.79470846E-12
  -3.39000002E-02   7.85825398E-12
  -3.38499993E-02  -1.28315934E-11
  -3.37999985E-02  -4.72243772E-11
  -3.37500013E-02  -7.99379174E-11
  -3.37000005E-02  -9.49183301E-11
  -3.36499996E-02  -8.29969427E-11
  -3.35999988E-02  -4.68446323E-11
  -3.35500017E-02  -7.59088105E-13
  -3.35000008E-02   3.50509691E-11
  -3.34500000E-02   4.34453445E-11
  -3.33999991E-02   1.86291555E-11
  -3.33499983E-02  -3.02298013E-11
  -3.33000012E-02  -8.21190893E-11
  -3.32500003E-02  -1.13100126E-10
  -3.31999995E-02  -1.07287790E-10
  -3.31499986E-02  -6.48971432E-11
  -3.31000015E-02  -3.36247675E-12
  -3.30500007E-02   4.95158324E-11
  -3.29999998E-02   6.77822312E-11
  -3.29499990E-02   3.95784377E-11
  -3.29000019E-02  -2.62836471E-11
  -3.28500010E-02  -1.02906197E-10
  -3.28000002E-02  -1.56491861E-10
  -3.27499993E-02  -1.61518313E-10
  -3.26999985E-02  -1.13107100E-10
  -3.26500013E-02  -3.06394320E-11
  -3.26000005E-02   4.96493194E-11
  -3.25499997E-02   9.03834854E-11
  -3.24999988E-02   7.03145875E-11
  -3.24500017E-02  -4.76486819E-12
  -3.24000008E-02  -1.02920436E-10
  -3.23500000E-02  -1.79108173E-10
  -3.22999991E-02  -1.95056249E-10
  -3.22499983E-02  -1.37215711E-10
  -3.22000012E-02  -2.43618858E-11
  -3.21500003E-02   9.92787727E-11
  -3.20999995E-02   1.83046051E-10
  -3.20499986E-02   1.92918861E-10
  -3.20000015E-02   1.28211219E-10
  -3.19500007E-02   2.38158434E-11
  -3.18999998E-02  -6.38541026E-11
  -3.18499990E-02  -8.16497356E-11
  -3.18000019E-02  -4.36554395E-12
  -3.17500010E-02   1.52062113E-10
  -3.17000002E-02   3.35536043E-10
  -3.16499993E-02   4.79643103E-10
  -3.15999985E-02   5.33215083E-10
  -3.15500014E-02   4.84423779E-10
  -3.15000005E-02   3.68054975E-10
  -3.14499997E-02   2.51753673E-10
  -3.13999988E-02   2.06483108E-10
  -3.13500017E-02   2.73955608E-10
  -3.13000008E-02   4.45818382E-10
  -3.12500000E-02   6.64713673E-10
  -3.11999992E-02   8.47797887E-10
  -3.11500002E-02   9.23045640E-10
  -3.10999993E-02   8.62350136E-10
  -3.10500003E-02   6.96142588E-10
  -3.09999995E-02   5.01984287E-10
  -3.09500005E-02   3.71125713E-10
  -3.08999997E-02   3.67274794E-10
  -3.08500007E-02   4.96019559E-10
  -3.07999998E-02   6.99323155E-10
  -3.07500008E-02   8.78718764E-10
  -3.07000000E-02   9.37915856E-10
  -3.06499992E-02   8.26285484E-10
  -3.06000002E-02   5.63510405E-10
  -3.05499993E-02   2.33422198E-10
  -3.05000003E-02  -5.14437243E-11
  -3.04499995E-02  -1.99675873E-10
  -3.04000005E-02  -1.83170229E-10
  -3.03499997E-02  -5.22287283E-11
  -3.03000007E-02   8.43477926E-11
  -3.02499998E-02   1.06522201E-10
  -3.02000009E-02  -6.27278784E-11
  -3.01500000E-02  -4.20488366E-10
  -3.00999992E-02  -8.81705875E-10
  -3.00500002E-02  -1.31403088E-09
  -2.99999993E-02  -1.59532443E-09
  -2.99500003E-02  -1.66864700E-09
  -2.98999995E-02  -1.56976687E-09
  -2.98500005E-02  -1.41374668E-09
  -2.97999997E-02  -1.34518385E-09
  -2.97500007E-02  -1.47328483E-09
  -2.96999998E-02  -1.82055404E-09
  -2.96500009E-02  -2.30875341E-09
  -2.96000000E-02  -2.78978463E-09
  -2.95499992E-02  -3.10912429E-09
  -2.95000002E-02  -3.17432725E-09
  -2.94499993E-02  -2.99787062E-09
  -2.94000003E-02  -2.69415690E-09
  -2.93499995E-02  -2.43048381E-09
  -2.93000005E-02  -2.35254061E-09
  -2.92499997E-02  -2.51717203E-09
  -2.92000007E-02  -2.86293322E-09
  -2.91499998E-02  -3.23295901E-09
  -2.91000009E-02  -3.44158391E-09
  -2.90500000E-02  -3.35618688E-09
  -2.89999992E-02  -2.95797475E-09
  -2.89500002E-02  -2.35373165E-09
  -2.88999993E-02  -1.73172554E-09
  -2.88500004E-02  -1.27984301E-09
  -2.87999995E-02  -1.10154197E-09
  -2.87500005E-02  -1.16727072E-09
  -2.86999997E-02  -1.32421718E-09
  -2.86500007E-02  -1.36172240E-09
  -2.85999998E-02  -1.10463139E-09
  -2.85500009E-02  -4.93518504E-10
  -2.85000000E-02   3.84570209E-10
  -2.84499992E-02   1.33004174E-09
  -2.84000002E-02   2.11595763E-09
  -2.83499993E-02   2.58774091E-09
  -2.83000004E-02   2.73308109E-09
  -2.82499995E-02   2.68988098E-09
  -2.82000005E-02   2.68698686E-09
  -2.81499997E-02   2.94246050E-09
  -2.81000007E-02   3.56385810E-09
  -2.80499998E-02   4.49528414E-09
  -2.80000009E-02   5.53620216E-09
  -2.79500000E-02   6.42544329E-09
  -2.78999992E-02   6.95446456E-09
  -2.78500002E-02   7.05987180E-09
  -2.77999993E-02   6.85321755E-09
  -2.77500004E-02   6.57318067E-09
  -2.76999995E-02   6.47963150E-09
  -2.76500005E-02   6.73565470E-09
  -2.75999997E-02   7.33014183E-09
  -2.75500007E-02   8.07670197E-09
  -2.74999999E-02   8.69125660E-09
  -2.74500009E-02   8.91547369E-09
  -2.74000000E-02   8.63178418E-09
  -2.73499992E-02   7.91822607E-09
  -2.73000002E-02   7.01710778E-09
  -2.72499993E-02   6.22950624E-09
  -2.72000004E-02   5.78115911E-09
  -2.71499995E-02   5.71920200E-09
  -2.71000005E-02   5.88672755E-09
  -2.70499997E-02   5.98830052E-09
  -2.70000007E-02   5.71910608E-09
  -2.69499999E-02   4.90125851E-09
  -2.69000009E-02   3.56635588E-09
  -2.68500000E-02   1.94618655E-09
  -2.67999992E-02   3.73869491E-10
  -2.67500002E-02  -8.62069860E-10
  -2.66999993E-02  -1.64614766E-09
  -2.66500004E-02  -2.08898987E-09
  -2.65999995E-02  -2.47977239E-09
  -2.65500005E-02  -3.15743565E-09
  -2.64999997E-02  -4.35696457E-09
  -2.64500007E-02  -6.09923001E-09
  -2.63999999E-02  -8.17463874E-09
  -2.63500009E-02  -1.02295932E-08
  -2.63000000E-02  -1.19187149E-08
  -2.62499992E-02  -1.30556410E-08
  -2.62000002E-02  -1.36946587E-08
  -2.61499994E-02  -1.41053720E-08
  -2.61000004E-02  -1.46501113E-08
  -2.60499995E-02  -1.56177258E-08
  -2.60000005E-02  -1.70878884E-08
  -2.59499997E-02  -1.88874658E-08
  -2.59000007E-02  -2.06598898E-08
  -2.58499999E-02  -2.20180159E-08
  -2.58000009E-02  -2.27127419E-08
  -2.57500000E-02  -2.27416805E-08
  -2.56999992E-02  -2.23480487E-08
  -2.56500002E-02  -2.19088427E-08
  -2.55999994E-02  -2.17612879E-08
  -2.55500004E-02  -2.20451302E-08
  -2.54999995E-02  -2.26321664E-08
  -2.54500005E-02  -2.31760300E-08
  -2.53999997E-02  -2.32612063E-08
  -2.53500007E-02  -2.25851835E-08
  -2.52999999E-02  -2.10918749E-08
  -2.52500009E-02  -1.89955500E-08
  -2.52000000E-02  -1.66833871E-08
  -2.51499992E-02  -1.45395189E-08
  -2.51000002E-02  -1.27695206E-08
  -2.50499994E-02  -1.13047465E-08
  -2.50000004E-02  -9.83060211E-09
  -2.49499995E-02  -7.92699950E-09
  -2.49000005E-02  -5.25820276E-09
  -2.48499997E-02  -1.72635439E-09
  -2.48000007E-02   2.48117327E-09
  -2.47499999E-02   6.97291336E-09
  -2.47000009E-02   1.13268319E-08
  -2.46500000E-02   1.52778661E-08
  -2.45999992E-02   1.88342000E-08
  -2.45500002E-02   2.22689867E-08
  -2.44999994E-02   2.59906958E-08
  -2.44500004E-02   3.03506091E-08
  -2.43999995E-02   3.54749865E-08
  -2.43500005E-02   4.11987386E-08
  -2.42999997E-02   4.71311488E-08
  -2.42500007E-02   5.28238431E-08
  -2.41999999E-02   5.79645736E-08
  -2.41500009E-02   6.25077377E-08
  -2.41000000E-02   6.66815509E-08
  -2.40499992E-02   7.08684453E-08
  -2.40000002E-02   7.54134319E-08
  -2.39499994E-02   8.04487357E-08
  -2.39000004E-02   8.58159837E-08
  -2.38499995E-02   9.11219900E-08
  -2.38000005E-02   9.59029762E-08
  -2.37499997E-02   9.98213565E-08
  -2.37000007E-02   1.02803916E-07
  -2.36499999E-02   1.05057062E-07
  -2.36000009E-02   1.06951752E-07
  -2.35500000E-02   1.08831216E-07
  -2.34999992E-02   1.10830975E-07
  -2.34500002E-02   1.12795377E-07
  -2.33999994E-02   1.14330199E-07
  -2.33500004E-02   1.14967172E-07
  -2.32999995E-02   1.14364042E-07
  -2.32500006E-02   1.12446251E-07
  -2.31999997E-02   1.09423169E-07
  -2.31500007E-02   1.05670857E-07
  -2.30999999E-02   1.01535612E-07
  -2.30500009E-02   9.71508101E-08
  -2.30000000E-02   9.23540426E-08
  -2.29499992E-02   8.67448477E-08
  -2.29000002E-02   7.98571520E-08
  -2.28499994E-02   7.13656405E-08
  -2.28000004E-02   6.12283699E-08
  -2.27499995E-02   4.96964638E-08
  -2.27000006E-02   3.71847300E-08
  -2.26499997E-02   2.40630644E-08
  -2.26000007E-02   1.04673958E-08
  -2.25499999E-02  -3.77825060E-09
  -2.25000009E-02  -1.90898799E-08
  -2.24500000E-02  -3.59329881E-08
  -2.23999992E-02  -5.46019372E-08
  -2.23500002E-02  -7.50761870E-08
  -2.22999994E-02  -9.70243974E-08
  -2.22500004E-02  -1.19957988E-07
  -2.21999995E-02  -1.43464334E-07
  -2.21500006E-02  -1.67409169E-07
  -2.20999997E-02  -1.92009111E-07
  -2.20500007E-02  -2.17735362E-07
  -2.19999999E-02  -2.45088671E-07
  -2.19500009E-02  -2.74350612E-07
  -2.19000001E-02  -3.05430262E-07
  -2.18499992E-02  -3.37884018E-07
  -2.18000002E-02  -3.71105614E-07
  -2.17499994E-02  -4.04601337E-07
  -2.17000004E-02  -4.38221520E-07
  -2.16499995E-02  -4.72234916E-07
  -2.16000006E-02  -5.07203481E-07
  -2.15499997E-02  -5.43709632E-07
  -2.15000007E-02  -5.82060181E-07
  -2.14499999E-02  -6.22107393E-07
  -2.14000009E-02  -6.63280730E-07
  -2.13500001E-02  -7.04820536E-07
  -2.12999992E-02  -7.46112960E-07
  -2.12500002E-02  -7.86971384E-07
  -2.11999994E-02  -8.27727263E-07
  -2.11500004E-02  -8.69078917E-07
  -2.10999995E-02  -9.11757866E-07
  -2.10500006E-02  -9.56165081E-07
  -2.09999997E-02  -1.00214618E-06
  -2.09500007E-02  -1.04901790E-06
  -2.08999999E-02  -1.09584801E-06
  -2.08500009E-02  -1.14186594E-06
  -2.08000001E-02  -1.18681737E-06
  -2.07499992E-02  -1.23109373E-06
  -2.07000002E-02  -1.27556359E-06
  -2.06499994E-02  -1.32117111E-06
  -2.06000004E-02  -1.36848246E-06
  -2.05499995E-02  -1.41739008E-06
  -2.05000006E-02  -1.46711841E-06
  -2.04499997E-02  -1.51654012E-06
  -2.04000007E-02  -1.56467843E-06
  -2.03499999E-02  -1.61116395E-06
  -2.03000009E-02  -1.65643098E-06
  -2.02500001E-02  -1.70154874E-06
  -2.01999992E-02  -1.74775505E-06
  -2.01500002E-02  -1.79589085E-06
  -2.00999994E-02  -1.84599082E-06
  -2.00500004E-02  -1.89723994E-06
  -1.99999996E-02  -1.94831455E-06
  -1.99500006E-02  -1.99797910E-06
  -1.98999997E-02  -2.04567323E-06
  -1.98500007E-02  -2.09180894E-06
  -1.97999999E-02  -2.13764292E-06
  -1.97500009E-02  -2.18475247E-06
  -1.97000001E-02  -2.23434131E-06
  -1.96499992E-02  -2.28669023E-06
  -1.96000002E-02  -2.34101299E-06
  -1.95499994E-02  -2.39580004E-06
  -1.95000004E-02  -2.44950093E-06
  -1.94499996E-02  -2.50126254E-06
  -1.94000006E-02  -2.55138229E-06
  -1.93499997E-02  -2.60125103E-06
  -1.93000007E-02  -2.65279755E-06
  -1.92499999E-02  -2.70767237E-06
  -1.92000009E-02  -2.76652372E-06
  -1.91500001E-02  -2.82870565E-06
  -1.90999992E-02  -2.89257150E-06
  -1.90500002E-02  -2.95622476E-06
  -1.89999994E-02  -3.01842238E-06
  -1.89500004E-02  -3.07921368E-06
  -1.88999996E-02  -3.14001204E-06
  -1.88500006E-02  -3.20306594E-06
  -1.87999997E-02  -3.27051771E-06
  -1.87500007E-02  -3.34347533E-06
  -1.86999999E-02  -3.42153203E-06
  -1.86500009E-02  -3.50295568E-06
  -1.86000001E-02  -3.58547322E-06
  -1.85499992E-02  -3.66734139E-06
  -1.85000002E-02  -3.74821821E-06
  -1.84499994E-02  -3.82940289E-06
  -1.84000004E-02  -3.91338426E-06
  -1.83499996E-02  -4.00282215E-06
  -1.83000006E-02  -4.09939958E-06
  -1.82499997E-02  -4.20309107E-06
  -1.82000007E-02  -4.31217859E-06
  -1.81499999E-02  -4.42403052E-06
  -1.81000009E-02  -4.53630992E-06
  -1.80500001E-02  -4.64809818E-06
  -1.79999992E-02  -4.76041441E-06
  -1.79500002E-02  -4.87588204E-06
  -1.78999994E-02  -4.99766020E-06
  -1.78500004E-02  -5.12809129E-06
  -1.77999996E-02  -5.26767326E-06
  -1.77500006E-02  -5.41483814E-06
  -1.76999997E-02  -5.56666237E-06
  -1.76500008E-02  -5.72016916E-06
  -1.75999999E-02  -5.87371960E-06
  -1.75500009E-02  -6.02783848E-06
  -1.75000001E-02  -6.18510103E-06
  -1.74499992E-02  -6.34908110E-06
  -1.74000002E-02  -6.52284143E-06
  -1.73499994E-02  -6.70760164E-06
  -1.73000004E-02  -6.90218030E-06
  -1.72499996E-02  -7.10350696E-06
  -1.72000006E-02  -7.30799957E-06
  -1.71499997E-02  -7.51319249E-06
  -1.71000008E-02  -7.71891700E-06
  -1.70499999E-02  -7.92749233E-06
  -1.70000009E-02  -8.14280611E-06
  -1.69500001E-02  -8.36867366E-06
  -1.68999992E-02  -8.60717500E-06
  -1.68500002E-02  -8.85772897E-06
  -1.67999994E-02  -9.11730422E-06
  -1.67500004E-02  -9.38176527E-06
  -1.66999996E-02  -9.64774790E-06
  -1.66500006E-02  -9.91420802E-06
  -1.65999997E-02  -1.01830055E-05
  -1.65500008E-02  -1.04581968E-05
  -1.64999999E-02  -1.07443293E-05
  -1.64500009E-02  -1.10444607E-05
  -1.64000001E-02  -1.13588212E-05
  -1.63499992E-02  -1.16846859E-05
  -1.63000003E-02  -1.20175564E-05
  -1.62499994E-02  -1.23531981E-05
  -1.62000004E-02  -1.26895511E-05
  -1.61499996E-02  -1.30277758E-05
  -1.61000006E-02  -1.33718822E-05
  -1.60499997E-02  -1.37270717E-05
  -1.60000008E-02  -1.40974917E-05
  -1.59499999E-02  -1.44844425E-05
  -1.59000009E-02  -1.48858198E-05
  -1.58500001E-02  -1.52969842E-05
  -1.57999992E-02  -1.57128525E-05
  -1.57500003E-02  -1.61302050E-05
  -1.56999994E-02  -1.65492511E-05
  -1.56500004E-02  -1.69736850E-05
  -1.55999996E-02  -1.74092020E-05
  -1.55499997E-02  -1.78610790E-05
  -1.54999997E-02  -1.83318934E-05
  -1.54499998E-02  -1.88204485E-05
  -1.53999999E-02  -1.93222986E-05
  -1.53500000E-02  -1.98317102E-05
  -1.53000001E-02  -2.03443196E-05
  -1.52500002E-02  -2.08591828E-05
  -1.52000003E-02  -2.13793501E-05
  -1.51500003E-02  -2.19107660E-05
  -1.51000004E-02  -2.24597734E-05
  -1.50499996E-02  -2.30303594E-05
  -1.49999997E-02  -2.36225624E-05
  -1.49499997E-02  -2.42324804E-05
  -1.48999998E-02  -2.48539654E-05
  -1.48499999E-02  -2.54814895E-05
  -1.48000000E-02  -2.61127661E-05
  -1.47500001E-02  -2.67499090E-05
  -1.47000002E-02  -2.73987589E-05
  -1.46500003E-02  -2.80665226E-05
  -1.46000003E-02  -2.87587136E-05
  -1.45500004E-02  -2.94768579E-05
  -1.44999996E-02  -3.02178832E-05
  -1.44499997E-02  -3.09755414E-05
  -1.43999998E-02  -3.17433332E-05
  -1.43499998E-02  -3.25175279E-05
  -1.42999999E-02  -3.32989948E-05
  -1.42500000E-02  -3.40931292E-05
  -1.42000001E-02  -3.49077018E-05
  -1.41500002E-02  -3.57496392E-05
  -1.41000003E-02  -3.66221830E-05
  -1.40500003E-02  -3.75235359E-05
  -1.40000004E-02  -3.84477717E-05
  -1.39499996E-02  -3.93875562E-05
  -1.38999997E-02  -4.03375961E-05
  -1.38499998E-02  -4.12972076E-05
  -1.37999998E-02  -4.22708654E-05
  -1.37499999E-02  -4.32664638E-05
  -1.37000000E-02  -4.42922719E-05
  -1.36500001E-02  -4.53534158E-05
  -1.36000002E-02  -4.64496588E-05
  -1.35500003E-02  -4.75758134E-05
  -1.35000004E-02  -4.87240141E-05
  -1.34500004E-02  -4.98874724E-05
  -1.33999996E-02  -5.10636637E-05
  -1.33499997E-02  -5.22557166E-05
  -1.32999998E-02  -5.34714854E-05
  -1.32499998E-02  -5.47201234E-05
  -1.31999999E-02  -5.60084409E-05
  -1.31500000E-02  -5.73382495E-05
  -1.31000001E-02  -5.87054965E-05
  -1.30500002E-02  -6.01022512E-05
  -1.30000003E-02  -6.15204917E-05
  -1.29500004E-02  -6.29557908E-05
  -1.29000004E-02  -6.44095417E-05
  -1.28499996E-02  -6.58887075E-05
  -1.27999997E-02  -6.74030525E-05
  -1.27499998E-02  -6.89610461E-05
  -1.26999998E-02  -7.05664934E-05
  -1.26499999E-02  -7.22170153E-05
  -1.26000000E-02  -7.39051975E-05
  -1.25500001E-02  -7.56219306E-05
  -1.25000002E-02  -7.73608699E-05
  -1.24500003E-02  -7.91214770E-05
  -1.24000004E-02  -8.09095218E-05
  -1.23500004E-02  -8.27349140E-05
  -1.22999996E-02  -8.46075491E-05
  -1.22499997E-02  -8.65335023E-05
  -1.21999998E-02  -8.85123736E-05
  -1.21499998E-02  -9.05375200E-05
  -1.20999999E-02  -9.25995046E-05
  -1.20500000E-02  -9.46901419E-05
  -1.20000001E-02  -9.68063687E-05
  -1.19500002E-02  -9.89520486E-05
  -1.19000003E-02  -1.01136517E-04
  -1.18500004E-02  -1.03370869E-04
  -1.18000004E-02  -1.05663457E-04
  -1.17499996E-02  -1.08016320E-04
  -1.16999997E-02  -1.10424764E-04
  -1.16499998E-02  -1.12879352E-04
  -1.15999999E-02  -1.15370240E-04
  -1.15499999E-02  -1.17891861E-04
  -1.15000000E-02  -1.20445940E-04
  -1.14500001E-02  -1.23041042E-04
  -1.14000002E-02  -1.25688966E-04
  -1.13500003E-02  -1.28399770E-04
  -1.13000004E-02  -1.31177847E-04
  -1.12500004E-02  -1.34020112E-04
  -1.11999996E-02  -1.36917355E-04
  -1.11499997E-02  -1.39858908E-04
  -1.10999998E-02  -1.42837278E-04
  -1.10499999E-02  -1.45851809E-04
  -1.09999999E-02  -1.48909094E-04
  -1.09500000E-02  -1.52020788E-04
  -1.09000001E-02  -1.55198708E-04
  -1.08500002E-02  -1.58450144E-04
  -1.08000003E-02  -1.61775126E-04
  -1.07500004E-02  -1.65166450E-04
  -1.07000005E-02  -1.68612794E-04
  -1.06499996E-02  -1.72104090E-04
  -1.05999997E-02  -1.75636509E-04
  -1.05499998E-02  -1.79214214E-04
  -1.04999999E-02  -1.82848089E-04
  -1.04499999E-02  -1.86551100E-04
  -1.04000000E-02  -1.90332808E-04
  -1.03500001E-02  -1.94196051E-04
  -1.03000002E-02  -1.98135225E-04
  -1.02500003E-02  -2.02138821E-04
  -1.02000004E-02  -2.06195240E-04
  -1.01500005E-02  -2.10298080E-04
  -1.00999996E-02  -2.14449014E-04
  -1.00499997E-02  -2.18658053E-04
  -9.99999978E-03  -2.22939023E-04
  -9.94999986E-03  -2.27303448E-04
  -9.89999995E-03  -2.31756771E-04
  -9.85000003E-03  -2.36295979E-04
  -9.80000012E-03  -2.40910798E-04
  -9.75000020E-03  -2.45588541E-04
  -9.70000029E-03  -2.50320183E-04
  -9.65000037E-03  -2.55104969E-04
  -9.60000046E-03  -2.59950466E-04
  -9.54999961E-03  -2.64869916E-04
  -9.49999969E-03  -2.69876851E-04
  -9.44999978E-03  -2.74979131E-04
  -9.39999986E-03  -2.80176173E-04
  -9.34999995E-03  -2.85459275E-04
  -9.30000003E-03  -2.90815544E-04
  -9.25000012E-03  -2.96233338E-04
  -9.20000020E-03  -3.01707740E-04
  -9.15000029E-03  -3.07243550E-04
  -9.10000037E-03  -3.12853197E-04
  -9.05000046E-03  -3.18551407E-04
  -8.99999961E-03  -3.24349356E-04
  -8.94999970E-03  -3.30249663E-04
  -8.89999978E-03  -3.36245692E-04
  -8.84999987E-03  -3.42324580E-04
  -8.79999995E-03  -3.48473201E-04
  -8.75000004E-03  -3.54684598E-04
  -8.70000012E-03  -3.60961247E-04
  -8.65000021E-03  -3.67313158E-04
  -8.60000029E-03  -3.73755029E-04
  -8.55000038E-03  -3.80300684E-04
  -8.50000046E-03  -3.86955478E-04
  -8.44999962E-03  -3.93715076E-04
  -8.39999970E-03  -4.00567864E-04
  -8.34999979E-03  -4.07499756E-04
  -8.29999987E-03  -4.14500711E-04
  -8.24999996E-03  -4.21568751E-04
  -8.20000004E-03  -4.28710890E-04
  -8.15000013E-03  -4.35941009E-04
  -8.10000021E-03  -4.43273602E-04
  -8.05000030E-03  -4.50717635E-04
  -8.00000038E-03  -4.58272872E-04
  -7.95000046E-03  -4.65929596E-04
  -7.89999962E-03  -4.73673310E-04
  -7.84999970E-03  -4.81491617E-04
  -7.79999979E-03  -4.89379396E-04
  -7.74999987E-03  -4.97340166E-04
  -7.69999996E-03  -5.05386037E-04
  -7.65000004E-03  -5.13532315E-04
  -7.60000013E-03  -5.21790935E-04
  -7.55000021E-03  -5.30164980E-04
  -7.49999983E-03  -5.38649387E-04
  -7.44999992E-03  -5.47232456E-04
  -7.40000000E-03  -5.55897248E-04
  -7.35000009E-03  -5.64632996E-04
  -7.30000017E-03  -5.73440979E-04
  -7.24999979E-03  -5.82330511E-04
  -7.19999988E-03  -5.91316028E-04
  -7.14999996E-03  -6.00412022E-04
  -7.10000005E-03  -6.09626528E-04
  -7.05000013E-03  -6.18956459E-04
  -7.00000022E-03  -6.28388720E-04
  -6.94999984E-03  -6.37905614E-04
  -6.89999992E-03  -6.47493405E-04
  -6.85000001E-03  -6.57148310E-04
  -6.80000009E-03  -6.66875916E-04
  -6.75000018E-03  -6.76690950E-04
  -6.69999979E-03  -6.86612038E-04
  -6.64999988E-03  -6.96649135E-04
  -6.59999996E-03  -7.06801831E-04
  -6.55000005E-03  -7.17062387E-04
  -6.50000013E-03  -7.27412291E-04
  -6.45000022E-03  -7.37832801E-04
  -6.39999984E-03  -7.48316990E-04
  -6.34999992E-03  -7.58867362E-04
  -6.30000001E-03  -7.69495731E-04
  -6.25000009E-03  -7.80220958E-04
  -6.20000018E-03  -7.91057828E-04
  -6.14999980E-03  -8.02010880E-04
  -6.09999988E-03  -8.13069928E-04
  -6.04999997E-03  -8.24216404E-04
  -6.00000005E-03  -8.35430925E-04
  -5.95000014E-03  -8.46700685E-04
  -5.90000022E-03  -8.58025684E-04
  -5.84999984E-03  -8.69416865E-04
  -5.79999993E-03  -8.80890351E-04
  -5.75000001E-03  -8.92460695E-04
  -5.70000010E-03  -9.04136919E-04
  -5.65000018E-03  -9.15913493E-04
  -5.59999980E-03  -9.27774061E-04
  -5.54999989E-03  -9.39695921E-04
  -5.49999997E-03  -9.51660331E-04
  -5.45000006E-03  -9.63664672E-04
  -5.40000014E-03  -9.75718081E-04
  -5.35000023E-03  -9.87839187E-04
  -5.29999984E-03  -1.00004417E-03
  -5.24999993E-03  -1.01233996E-03
  -5.20000001E-03  -1.02472375E-03
  -5.15000010E-03  -1.03718101E-03
  -5.10000018E-03  -1.04969100E-03
  -5.04999980E-03  -1.06223347E-03
  -4.99999989E-03  -1.07480155E-03
  -4.94999997E-03  -1.08739838E-03
  -4.90000006E-03  -1.10003632E-03
  -4.85000014E-03  -1.11273245E-03
  -4.80000023E-03  -1.12549704E-03
  -4.74999985E-03  -1.13832823E-03
  -4.69999993E-03  -1.15121284E-03
  -4.65000002E-03  -1.16413413E-03
  -4.60000010E-03  -1.17706903E-03
  -4.55000019E-03  -1.19000592E-03
  -4.49999981E-03  -1.20294502E-03
  -4.44999989E-03  -1.21589378E-03
  -4.39999998E-03  -1.22886826E-03
  -4.35000006E-03  -1.24188117E-03
  -4.30000015E-03  -1.25493447E-03
  -4.25000023E-03  -1.26801967E-03
  -4.19999985E-03  -1.28111849E-03
  -4.14999994E-03  -1.29420869E-03
  -4.10000002E-03  -1.30727421E-03
  -4.05000011E-03  -1.32030889E-03
  -4.00000019E-03  -1.33331388E-03
  -3.94999981E-03  -1.34630303E-03
  -3.89999989E-03  -1.35929522E-03
  -3.84999998E-03  -1.37229625E-03
  -3.80000006E-03  -1.38529961E-03
  -3.74999992E-03  -1.39828201E-03
  -3.70000000E-03  -1.41121703E-03
  -3.65000009E-03  -1.42409129E-03
  -3.59999994E-03  -1.43689616E-03
  -3.55000002E-03  -1.44963374E-03
  -3.50000011E-03  -1.46231323E-03
  -3.44999996E-03  -1.47494557E-03
  -3.40000005E-03  -1.48753659E-03
  -3.34999990E-03  -1.50007708E-03
  -3.29999998E-03  -1.51254958E-03
  -3.25000007E-03  -1.52493455E-03
  -3.19999992E-03  -1.53721543E-03
  -3.15000000E-03  -1.54937815E-03
  -3.10000009E-03  -1.56142609E-03
  -3.04999994E-03  -1.57337054E-03
  -3.00000003E-03  -1.58521929E-03
  -2.95000011E-03  -1.59697386E-03
  -2.89999996E-03  -1.60862191E-03
  -2.85000005E-03  -1.62014726E-03
  -2.79999990E-03  -1.63153093E-03
  -2.74999999E-03  -1.64275523E-03
  -2.70000007E-03  -1.65381003E-03
  -2.64999992E-03  -1.66469382E-03
  -2.60000001E-03  -1.67540822E-03
  -2.55000009E-03  -1.68595975E-03
  -2.49999994E-03  -1.69635424E-03
  -2.45000003E-03  -1.70658063E-03
  -2.40000011E-03  -1.71662355E-03
  -2.34999997E-03  -1.72646635E-03
  -2.30000005E-03  -1.73608668E-03
  -2.24999990E-03  -1.74546486E-03
  -2.19999999E-03  -1.75459532E-03
  -2.15000007E-03  -1.76348351E-03
  -2.09999993E-03  -1.77213899E-03
  -2.05000001E-03  -1.78056327E-03
  -2.00000009E-03  -1.78874494E-03
  -1.94999995E-03  -1.79666979E-03
  -1.90000003E-03  -1.80432026E-03
  -1.85000000E-03  -1.81168295E-03
  -1.79999997E-03  -1.81873934E-03
  -1.75000005E-03  -1.82547967E-03
  -1.70000002E-03  -1.83190091E-03
  -1.64999999E-03  -1.83799746E-03
  -1.59999996E-03  -1.84376934E-03
  -1.55000004E-03  -1.84921676E-03
  -1.50000001E-03  -1.85433624E-03
  -1.44999998E-03  -1.85910729E-03
  -1.39999995E-03  -1.86350697E-03
  -1.35000004E-03  -1.86751655E-03
  -1.30000000E-03  -1.87111355E-03
  -1.24999997E-03  -1.87428738E-03
  -1.20000006E-03  -1.87704444E-03
  -1.15000003E-03  -1.87939068E-03
  -1.09999999E-03  -1.88132667E-03
  -1.04999996E-03  -1.88285334E-03
  -1.00000005E-03  -1.88394776E-03
  -9.50000016E-04  -1.88457523E-03
  -8.99999985E-04  -1.88470539E-03
  -8.50000011E-04  -1.88432180E-03
  -7.99999980E-04  -1.88342517E-03
  -7.50000007E-04  -1.88201468E-03
  -6.99999975E-04  -1.88009650E-03
  -6.50000002E-04  -1.87767879E-03
  -6.00000028E-04  -1.87475618E-03
  -5.49999997E-04  -1.87131402E-03
  -5.00000024E-04  -1.86731783E-03
  -4.49999992E-04  -1.86272897E-03
  -3.99999990E-04  -1.85751228E-03
  -3.49999988E-04  -1.85164984E-03
  -3.00000014E-04  -1.84516225E-03
  -2.50000012E-04  -1.83807244E-03
  -1.99999995E-04  -1.83038472E-03
  -1.50000007E-04  -1.82208733E-03
  -9.99999975E-05  -1.81315839E-03
  -4.99999987E-05  -1.80356891E-03
   0.00000000      -1.79328851E-03
   4.99999987E-05  -1.78229064E-03
   9.99999975E-05  -1.77055062E-03
   1.50000007E-04  -1.75806240E-03
   1.99999995E-04  -1.74484320E-03
   2.50000012E-04  -1.73089642E-03
   3.00000014E-04  -1.71622366E-03
   3.49999988E-04  -1.70082494E-03
   3.99999990E-04  -1.68467697E-03
   4.49999992E-04  -1.66773866E-03
   5.00000024E-04  -1.64996716E-03
   5.49999997E-04  -1.63134013E-03
   6.00000028E-04  -1.61184685E-03
   6.50000002E-04  -1.59148814E-03
   6.99999975E-04  -1.57028669E-03
   7.50000007E-04  -1.54824951E-03
   7.99999980E-04  -1.52537925E-03
   8.50000011E-04  -1.50165509E-03
   8.99999985E-04  -1.47703022E-03
   9.50000016E-04  -1.45146565E-03
   1.00000005E-03  -1.42492610E-03
   1.04999996E-03  -1.39739900E-03
   1.09999999E-03  -1.36889343E-03
   1.15000003E-03  -1.33942964E-03
   1.20000006E-03  -1.30902673E-03
   1.24999997E-03  -1.27766363E-03
   1.30000000E-03  -1.24531018E-03
   1.35000004E-03  -1.21193496E-03
   1.39999995E-03  -1.17750559E-03
   1.44999998E-03  -1.14200648E-03
   1.50000001E-03  -1.10543228E-03
   1.55000004E-03  -1.06777623E-03
   1.59999996E-03  -1.02903775E-03
   1.64999999E-03  -9.89229418E-04
   1.70000002E-03  -9.48337314E-04
   1.75000005E-03  -9.06358997E-04
   1.79999997E-03  -8.63271242E-04
   1.85000000E-03  -8.19018169E-04
   1.90000003E-03  -7.73571024E-04
   1.94999995E-03  -7.26914092E-04
   2.00000009E-03  -6.79061690E-04
   2.05000001E-03  -6.30038325E-04
   2.09999993E-03  -5.79838350E-04
   2.15000007E-03  -5.28451696E-04
   2.19999999E-03  -4.75864479E-04
   2.24999990E-03  -4.22047946E-04
   2.30000005E-03  -3.66960419E-04
   2.34999997E-03  -3.10591538E-04
   2.40000011E-03  -2.52936094E-04
   2.45000003E-03  -1.93981177E-04
   2.49999994E-03  -1.33730748E-04
   2.55000009E-03  -7.21930337E-05
   2.60000001E-03  -9.37188088E-06
   2.64999992E-03   5.47538839E-05
   2.70000007E-03   1.20213859E-04
   2.74999999E-03   1.87029218E-04
   2.79999990E-03   2.55230058E-04