  -3.99999991E-02   0.00000000    
  -3.99499983E-02   0.00000000    
  -3.99000011E-02   0.00000000    
  -3.98500003E-02   0.00000000    
  -3.97999994E-02  -1.83322404E-19
  -3.97499986E-02  -1.51216443E-18
  -3.97000015E-02  -6.69862854E-18
  -3.96500006E-02  -2.09753482E-17
  -3.95999998E-02  -5.17359750E-17
  -3.95499989E-02  -1.06516570E-16
  -3.95000018E-02  -1.89947840E-16
  -3.94500010E-02  -3.01420486E-16
  -3.94000001E-02  -4.35297617E-16
  -3.93499993E-02  -5.84350878E-16
  -3.92999984E-02  -7.45405511E-16
  -3.92500013E-02  -9.24932344E-16
  -3.92000005E-02  -1.14205283E-15
  -3.91499996E-02  -1.42715163E-15
  -3.90999988E-02  -1.81587876E-15
  -3.90500017E-02  -2.34042255E-15
  -3.90000008E-02  -3.02165536E-15
  -3.89500000E-02  -3.86586515E-15
  -3.88999991E-02  -4.86778612E-15
  -3.88499983E-02  -6.01854560E-15
  -3.88000011E-02  -7.31496129E-15
  -3.87500003E-02  -8.76663600E-15
  -3.86999995E-02  -1.03988541E-14
  -3.86499986E-02  -1.22508908E-14
  -3.86000015E-02  -1.43700291E-14
  -3.85500006E-02  -1.68020268E-14
  -3.84999998E-02  -1.95796155E-14
  -3.84499989E-02  -2.27117553E-14
  -3.84000018E-02  -2.61768062E-14
  -3.83500010E-02  -2.99220962E-14
  -3.83000001E-02  -3.38710722E-14
  -3.82499993E-02  -3.79379552E-14
  -3.81999984E-02  -4.20478268E-14
  -3.81500013E-02  -4.61567396E-14
  -3.81000005E-02  -5.02633688E-14
  -3.80499996E-02  -5.44034083E-14
  -3.79999988E-02  -5.86236517E-14
  -3.79500017E-02  -6.29417511E-14
  -3.79000008E-02  -6.73060240E-14
  -3.78500000E-02  -7.15707875E-14
  -3.77999991E-02  -7.54978491E-14
  -3.77499983E-02  -7.87845131E-14
  -3.77000012E-02  -8.11093339E-14
  -3.76500003E-02  -8.21794415E-14
  -3.75999995E-02  -8.17607023E-14
  -3.75499986E-02  -7.96759983E-14
  -3.75000015E-02  -7.57682288E-14
  -3.74500006E-02  -6.98403669E-14
  -3.73999998E-02  -6.15966967E-14
  -3.73499990E-02  -5.06122311E-14
  -3.73000018E-02  -3.63476034E-14
  -3.72500010E-02  -1.82129821E-14
  -3.72000001E-02   4.33104167E-15
  -3.71499993E-02   3.16600926E-14
  -3.70999984E-02   6.38950562E-14
  -3.70500013E-02   1.00873384E-13
  -3.70000005E-02   1.42214148E-13
  -3.69499996E-02   1.87481744E-13
  -3.68999988E-02   2.36412994E-13
  -3.68500017E-02   2.89133626E-13
  -3.68000008E-02   3.46271731E-13
  -3.67500000E-02   4.08893243E-13
  -3.66999991E-02   4.78235995E-13
  -3.66499983E-02   5.55298375E-13
  -3.66000012E-02   6.40416648E-13
  -3.65500003E-02   7.33006483E-13
  -3.64999995E-02   8.31619333E-13
  -3.64499986E-02   9.34351121E-13
  -3.64000015E-02   1.03948003E-12
  -3.63500006E-02   1.14606599E-12
  -3.62999998E-02   1.25420280E-12
  -3.62499990E-02   1.36472225E-12
  -3.62000018E-02   1.47838079E-12
  -3.61500010E-02   1.59483147E-12
  -3.61000001E-02   1.71185657E-12
  -3.60499993E-02   1.82532158E-12
  -3.59999985E-02   1.93005442E-12
  -3.59500013E-02   2.02143770E-12
  -3.59000005E-02   2.09709333E-12
  -3.58499996E-02   2.15785246E-12
  -3.57999988E-02   2.20737382E-12
  -3.57500017E-02   2.25031669E-12
  -3.57000008E-02   2.28966412E-12
  -3.56500000E-02   2.32432433E-12
  -3.55999991E-02   2.34821190E-12
  -3.55499983E-02   2.35150593E-12
  -3.55000012E-02   2.32384619E-12
  -3.54500003E-02   2.25825847E-12
  -3.53999995E-02   2.15404842E-12
  -3.53499986E-02   2.01711347E-12
  -3.53000015E-02   1.85713315E-12
  -3.52500007E-02   1.68253475E-12
  -3.51999998E-02   1.49536763E-12
  -3.51499990E-02   1.28860280E-12
  -3.51000018E-02   1.04758389E-12
  -3.50500010E-02   7.55583421E-13
  -3.50000001E-02   4.01415283E-13
  -3.49499993E-02  -1.42504908E-14
  -3.48999985E-02  -4.77090101E-13
  -3.48500013E-02  -9.63350602E-13
  -3.48000005E-02  -1.44893006E-12
  -3.47499996E-02  -1.91966343E-12
  -3.46999988E-02  -2.37809859E-12
  -3.46500017E-02  -2.84310422E-12
  -3.46000008E-02  -3.34161063E-12
  -3.45500000E-02  -3.89546381E-12
  -3.44999991E-02  -4.50908495E-12
  -3.44499983E-02  -5.16392094E-12
  -3.44000012E-02  -5.82313408E-12
  -3.43500003E-02  -6.44545181E-12
  -3.42999995E-02  -7.00259035E-12
  -3.42499986E-02  -7.49230452E-12
  -3.42000015E-02  -7.94027864E-12
  -3.41500007E-02  -8.38867170E-12
  -3.40999998E-02  -8.87523301E-12
  -3.40499990E-02  -9.41190355E-12
  -3.40000018E-02  -9.97306751E-12
  -3.39500010E-02  -1.05001502E-11
  -3.39000002E-02  -1.09222518E-11
  -3.38499993E-02  -1.11847840E-11
  -3.37999985E-02  -1.12734900E-11
  -3.37500013E-02  -1.12220276E-11
  -3.37000005E-02  -1.10979646E-11
  -3.36499996E-02  -1.09716576E-11
  -3.35999988E-02  -1.08810903E-11
  -3.35500017E-02  -1.08088937E-11
  -3.35000008E-02  -1.06835825E-11
  -3.34500000E-02  -1.04067475E-11
  -3.33999991E-02  -9.89580900E-12
  -3.33499983E-02  -9.12357689E-12
  -3.33000012E-02  -8.13558335E-12
  -3.32500003E-02  -7.03489133E-12
  -3.31999995E-02  -5.93847844E-12
  -3.31499986E-02  -4.92310706E-12
  -3.31000015E-02  -3.98518891E-12
  -3.30500007E-02  -3.03475387E-12
  -3.29999998E-02  -1.92941951E-12
  -3.29499990E-02  -5.36004834E-13
  -3.29000019E-02   1.20656610E-12
  -3.28500010E-02   3.25224027E-12
  -3.28000002E-02   5.45923506E-12
  -3.27499993E-02   7.64619878E-12
  -3.26999985E-02   9.67041551E-12
  -3.26500013E-02   1.14932213E-11
  -3.26000005E-02   1.32010887E-11
  -3.25499997E-02   1.49691544E-11
  -3.24999988E-02   1.69799383E-11
  -3.24500017E-02   1.93319787E-11
  -3.24000008E-02   2.19804643E-11
  -3.23500000E-02   2.47401787E-11
  -3.22999991E-02   2.73542057E-11
  -3.22499983E-02   2.96013387E-11
  -3.22000012E-02   3.13950498E-11
  -3.21500003E-02   3.28272895E-11
  -3.20999995E-02   3.41326724E-11
  -3.20499986E-02   3.55839212E-11
  -3.20000015E-02   3.73621724E-11
  -3.19500007E-02   3.94605008E-11
  -3.18999998E-02   4.16676728E-11
  -3.18499990E-02   4.36450251E-11
  -3.18000019E-02   4.50669467E-11
  -3.17500010E-02   4.57641425E-11
  -3.17000002E-02   4.58033403E-11
  -3.16499993E-02   4.54625296E-11
  -3.15999985E-02   4.51065574E-11
  -3.15500014E-02   4.50144887E-11
  -3.15000005E-02   4.52358984E-11
  -3.14499997E-02   4.55446757E-11
  -3.13999988E-02   4.55182073E-11
  -3.13500017E-02   4.47133337E-11
  -3.13000008E-02   4.28639138E-11
  -3.12500000E-02   4.00101653E-11
  -3.11999992E-02   3.64960076E-11
  -3.11500002E-02   3.28276052E-11
  -3.10999993E-02   2.94500500E-11
  -3.10500003E-02   2.65401746E-11
  -3.09999995E-02   2.39116019E-11
  -3.09500005E-02   2.10820701E-11
  -3.08999997E-02   1.74810114E-11
  -3.08500007E-02   1.27096779E-11
  -3.07999998E-02   6.73707921E-12
  -3.07500008E-02  -6.17713210E-14
  -3.07000000E-02  -7.05123676E-12
  -3.06499992E-02  -1.36068067E-11
  -3.06000002E-02  -1.93947670E-11
  -3.05499993E-02  -2.45313856E-11
  -3.05000003E-02  -2.95419661E-11
  -3.04499995E-02  -3.51279804E-11
  -3.04000005E-02  -4.18391884E-11
  -3.03499997E-02  -4.97964135E-11
  -3.03000007E-02  -5.85946985E-11
  -3.02499998E-02  -6.74406087E-11
  -3.02000009E-02  -7.54726004E-11
  -3.01500000E-02  -8.21270968E-11
  -3.00999992E-02  -8.73852934E-11
  -3.00500002E-02  -9.17822832E-11
  -2.99999993E-02  -9.61635355E-11
  -2.99500003E-02  -1.01288304E-10
  -2.98999995E-02  -1.07454816E-10
  -2.98500005E-02  -1.14319554E-10
  -2.97999997E-02  -1.21002555E-10
  -2.97500007E-02  -1.26443633E-10
  -2.96999998E-02  -1.29858152E-10
  -2.96500009E-02  -1.31088654E-10
  -2.96000000E-02  -1.30686892E-10
  -2.95499992E-02  -1.29676880E-10
  -2.95000002E-02  -1.29092806E-10
  -2.94499993E-02  -1.29492500E-10
  -2.94000003E-02  -1.30667283E-10
  -2.93499995E-02  -1.31688785E-10
  -2.93000005E-02  -1.31285913E-10
  -2.92499997E-02  -1.28394656E-10
  -2.92000007E-02  -1.22638108E-10
  -2.91499998E-02  -1.14516292E-10
  -2.91000009E-02  -1.05208273E-10
  -2.90500000E-02  -9.60615615E-11
  -2.89999992E-02  -8.79889286E-11
  -2.89500002E-02  -8.10432832E-11
  -2.88999993E-02  -7.43707040E-11
  -2.88500004E-02  -6.65774241E-11
  -2.87999995E-02  -5.63596357E-11
  -2.87500005E-02  -4.31199937E-11
  -2.86999997E-02  -2.72898683E-11
  -2.86500007E-02  -1.01999121E-11
  -2.85999998E-02   6.45972035E-12
  -2.85500009E-02   2.13601758E-11
  -2.85000000E-02   3.41159948E-11
  -2.84499992E-02   4.54600108E-11
  -2.84000002E-02   5.69175262E-11
  -2.83499993E-02   7.01095709E-11
  -2.83000004E-02   8.59877100E-11
  -2.82499995E-02   1.04343909E-10
  -2.82000005E-02   1.23826671E-10
  -2.81499997E-02   1.42472853E-10
  -2.81000007E-02   1.58532062E-10
  -2.80499998E-02   1.71220621E-10
  -2.80000009E-02   1.81061735E-10
  -2.79500000E-02   1.89645091E-10
  -2.78999992E-02   1.98895622E-10
  -2.78500002E-02   2.10166898E-10
  -2.77999993E-02   2.23563307E-10
  -2.77500004E-02   2.37805609E-10
  -2.76999995E-02   2.50718668E-10
  -2.76500005E-02   2.60141936E-10
  -2.75999997E-02   2.64865907E-10
  -2.75500007E-02   2.65173938E-10
  -2.74999999E-02   2.62733585E-10
  -2.74500009E-02   2.59866378E-10
  -2.74000000E-02   2.58506772E-10
  -2.73499992E-02   2.59309074E-10
  -2.73000002E-02   2.61308419E-10
  -2.72499993E-02   2.62304317E-10
  -2.72000004E-02   2.59814226E-10
  -2.71499995E-02   2.52184246E-10
  -2.71000005E-02   2.39361503E-10
  -2.70499997E-02   2.22971266E-10
  -2.70000007E-02   2.05645057E-10
  -2.69499999E-02   1.89881319E-10
  -2.69000009E-02   1.76938353E-10
  -2.68500000E-02   1.66258562E-10
  -2.67999992E-02   1.55697344E-10
  -2.67500002E-02   1.42476017E-10
  -2.66999993E-02   1.24450270E-10
  -2.66500004E-02   1.01133338E-10
  -2.65999995E-02   7.40079109E-11
  -2.65500005E-02   4.59688607E-11
  -2.64999997E-02   2.01240413E-11
  -2.64500007E-02  -1.52511781E-12
  -2.63999999E-02  -1.89349734E-11
  -2.63500009E-02  -3.40100864E-11
  -2.63000000E-02  -4.97164948E-11
  -2.62499992E-02  -6.86948554E-11
  -2.62000002E-02  -9.19840107E-11
  -2.61499994E-02  -1.18430890E-10
  -2.61000004E-02  -1.45068554E-10
  -2.60499995E-02  -1.68316944E-10
  -2.60000005E-02  -1.85488042E-10
  -2.59499997E-02  -1.95928745E-10
  -2.59000007E-02  -2.01280645E-10
  -2.58499999E-02  -2.04720310E-10
  -2.58000009E-02  -2.09496184E-10
  -2.57500000E-02  -2.17401347E-10
  -2.56999992E-02  -2.27864214E-10
  -2.56500002E-02  -2.38078390E-10
  -2.55999994E-02  -2.44137127E-10
  -2.55500004E-02  -2.42688342E-10
  -2.54999995E-02  -2.32381572E-10
  -2.54500005E-02  -2.14457396E-10
  -2.53999997E-02  -1.92198216E-10
  -2.53500007E-02  -1.69463235E-10
  -2.52999999E-02  -1.48945092E-10
  -2.52500009E-02  -1.30922759E-10
  -2.52000000E-02  -1.13079907E-10
  -2.51499992E-02  -9.14926815E-11
  -2.51000002E-02  -6.23701923E-11
  -2.50499994E-02  -2.37859090E-11
  -2.50000004E-02   2.33733779E-11
  -2.49499995E-02   7.56801496E-11
  -2.49000005E-02   1.28562702E-10
  -2.48499997E-02   1.78224088E-10
  -2.48000007E-02   2.23237026E-10
  -2.47499999E-02   2.65096889E-10
  -2.47000009E-02   3.07466858E-10
  -2.46500000E-02   3.54427765E-10
  -2.45999992E-02   4.08496459E-10
  -2.45500002E-02   4.69291828E-10
  -2.44999994E-02   5.33455835E-10
  -2.44500004E-02   5.95886507E-10
  -2.43999995E-02   6.51754706E-10
  -2.43500005E-02   6.98417491E-10
  -2.42999997E-02   7.36371852E-10
  -2.42500007E-02   7.68805797E-10
  -2.41999999E-02   7.99922850E-10
  -2.41500009E-02   8.32767189E-10
  -2.41000000E-02   8.67511396E-10
  -2.40499992E-02   9.00980957E-10
  -2.40000002E-02   9.27648736E-10
  -2.39499994E-02   9.41682732E-10
  -2.39000004E-02   9.39152089E-10
  -2.38499995E-02   9.19413157E-10
  -2.38000005E-02   8.85045981E-10
  -2.37499997E-02   8.40347847E-10
  -2.37000007E-02   7.89036336E-10
  -2.36499999E-02   7.32172656E-10
  -2.36000009E-02   6.67236433E-10
  -2.35500000E-02   5.88781468E-10
  -2.34999992E-02   4.90404772E-10
  -2.34500002E-02   3.67169350E-10
  -2.33999994E-02   2.17409951E-10
  -2.33500004E-02   4.31070631E-11
  -2.32999995E-02  -1.51355262E-10
  -2.32500006E-02  -3.61516705E-10
  -2.31999997E-02  -5.85229532E-10
  -2.31500007E-02  -8.24044333E-10
  -2.30999999E-02  -1.08296161E-09
  -2.30500009E-02  -1.36863587E-09
  -2.30000000E-02  -1.68681191E-09
  -2.29499992E-02  -2.04012229E-09
  -2.29000002E-02  -2.42722975E-09
  -2.28499994E-02  -2.84371038E-09
  -2.28000004E-02  -3.28430394E-09
  -2.27499995E-02  -3.74554165E-09
  -2.27000006E-02  -4.22758939E-09
  -2.26499997E-02  -4.73446882E-09
  -2.26000007E-02  -5.27254951E-09
  -2.25499999E-02  -5.84795901E-09
  -2.25000009E-02  -6.46405551E-09
  -2.24500000E-02  -7.12008852E-09
  -2.23999992E-02  -7.81166332E-09
  -2.23500002E-02  -8.53281268E-09
  -2.22999994E-02  -9.27877597E-09
  -2.22500004E-02  -1.00482547E-08
  -2.21999995E-02  -1.08441380E-08
  -2.21500006E-02  -1.16723582E-08
  -2.20999997E-02  -1.25393731E-08
  -2.20500007E-02  -1.34493705E-08
  -2.19999999E-02  -1.44024543E-08
  -2.19500009E-02  -1.53946225E-08
  -2.19000001E-02  -1.64195395E-08
  -2.18499992E-02  -1.74713648E-08
  -2.18000002E-02  -1.85473592E-08
  -2.17499994E-02  -1.96491161E-08
  -2.17000004E-02  -2.07818722E-08
  -2.16499995E-02  -2.19521734E-08
  -2.16000006E-02  -2.31649349E-08
  -2.15499997E-02  -2.44212064E-08
  -2.15000007E-02  -2.57176342E-08
  -2.14499999E-02  -2.70478697E-08
  -2.14000009E-02  -2.84053225E-08
  -2.13500001E-02  -2.97860403E-08
  -2.12999992E-02  -3.11904351E-08
  -2.12500002E-02  -3.26231024E-08
  -2.11999994E-02  -3.40907818E-08
  -2.11500004E-02  -3.55993777E-08
  -2.10999995E-02  -3.71513451E-08
  -2.10500006E-02  -3.87446271E-08
  -2.09999997E-02  -4.03735889E-08
  -2.09500007E-02  -4.20315800E-08
  -2.08999999E-02  -4.37139320E-08
  -2.08500009E-02  -4.54201476E-08
  -2.08000001E-02  -4.71542130E-08
  -2.07499992E-02  -4.89229635E-08
  -2.07000002E-02  -5.07332061E-08
  -2.06499994E-02  -5.25888666E-08
  -2.06000004E-02  -5.44894192E-08
  -2.05499995E-02  -5.64303662E-08
  -2.05000006E-02  -5.84054618E-08
  -2.04499997E-02  -6.04098034E-08
  -2.04000007E-02  -6.24423180E-08
  -2.03499999E-02  -6.45066507E-08
  -2.03000009E-02  -6.66099140E-08
  -2.02500001E-02  -6.87600661E-08
  -2.01999992E-02  -7.09628765E-08
  -2.01500002E-02  -7.32199084E-08
  -2.00999994E-02  -7.55284830E-08
  -2.00500004E-02  -7.78834703E-08
  -1.99999996E-02  -8.02802873E-08
  -1.99500006E-02  -8.27176336E-08
  -1.98999997E-02  -8.51988347E-08
  -1.98500007E-02  -8.77311379E-08
  -1.97999999E-02  -9.03233399E-08
  -1.97500009E-02  -9.29827806E-08
  -1.97000001E-02  -9.57129913E-08
  -1.96499992E-02  -9.85131408E-08
  -1.96000002E-02  -1.01379371E-07
  -1.95499994E-02  -1.04307610E-07
  -1.95000004E-02  -1.07296430E-07
  -1.94499996E-02  -1.10348800E-07
  -1.94000006E-02  -1.13471962E-07
  -1.93499997E-02  -1.16675380E-07
  -1.93000007E-02  -1.19967879E-07
  -1.92499999E-02  -1.23354994E-07
  -1.92000009E-02  -1.26838017E-07
  -1.91500001E-02  -1.30414762E-07
  -1.90999992E-02  -1.34082043E-07
  -1.90500002E-02  -1.37838484E-07
  -1.89999994E-02  -1.41686641E-07
  -1.89500004E-02  -1.45633337E-07
  -1.88999996E-02  -1.49688105E-07
  -1.88500006E-02  -1.53860555E-07
  -1.87999997E-02  -1.58157661E-07
  -1.87500007E-02  -1.62582324E-07
  -1.86999999E-02  -1.67133777E-07
  -1.86500009E-02  -1.71809603E-07
  -1.86000001E-02  -1.76608410E-07
  -1.85499992E-02  -1.81532258E-07
  -1.85000002E-02  -1.86587258E-07
  -1.84499994E-02  -1.91782647E-07
  -1.84000004E-02  -1.97128472E-07
  -1.83499996E-02  -2.02632890E-07
  -1.83000006E-02  -2.08300420E-07
  -1.82499997E-02  -2.14131887E-07
  -1.82000007E-02  -2.20125997E-07
  -1.81499999E-02  -2.26281713E-07
  -1.81000009E-02  -2.32600726E-07
  -1.80500001E-02  -2.39088507E-07
  -1.79999992E-02  -2.45753824E-07
  -1.79500002E-02  -2.52606668E-07
  -1.78999994E-02  -2.59656019E-07
  -1.78500004E-02  -2.66907676E-07
  -1.77999996E-02  -2.74363941E-07
  -1.77500006E-02  -2.82024587E-07
  -1.76999997E-02  -2.89889158E-07
  -1.76500008E-02  -2.97959105E-07
  -1.75999999E-02  -3.06239400E-07
  -1.75500009E-02  -3.14738287E-07
  -1.75000001E-02  -3.23465883E-07
  -1.74499992E-02  -3.32431995E-07
  -1.74000002E-02  -3.41644011E-07
  -1.73499994E-02  -3.51106252E-07
  -1.73000004E-02  -3.60820479E-07
  -1.72499996E-02  -3.70787632E-07
  -1.72000006E-02  -3.81010011E-07
  -1.71499997E-02  -3.91492705E-07
  -1.71000008E-02  -4.02244012E-07
  -1.70499999E-02  -4.13274137E-07
  -1.70000009E-02  -4.24593679E-07
  -1.69500001E-02  -4.36211565E-07
  -1.68999992E-02  -4.48134045E-07
  -1.68500002E-02  -4.60364930E-07
  -1.67999994E-02  -4.72907004E-07
  -1.67500004E-02  -4.85763621E-07
  -1.66999996E-02  -4.98940551E-07
  -1.66500006E-02  -5.12446263E-07
  -1.65999997E-02  -5.26291558E-07
  -1.65500008E-02  -5.40488145E-07
  -1.64999999E-02  -5.55046768E-07
  -1.64500009E-02  -5.69976180E-07
  -1.64000001E-02  -5.85283203E-07
  -1.63499992E-02  -6.00973351E-07
  -1.63000003E-02  -6.17052422E-07
  -1.62499994E-02  -6.33527804E-07
  -1.62000004E-02  -6.50409220E-07
  -1.61499996E-02  -6.67708491E-07
  -1.61000006E-02  -6.85438522E-07
  -1.60499997E-02  -7.03612045E-07
  -1.60000008E-02  -7.22240316E-07
  -1.59499999E-02  -7.41332997E-07
  -1.59000009E-02  -7.60898558E-07
  -1.58500001E-02  -7.80945243E-07
  -1.57999992E-02  -8.01482429E-07
  -1.57500003E-02  -8.22521429E-07
  -1.56999994E-02  -8.44075146E-07
  -1.56500004E-02  -8.66158189E-07
  -1.55999996E-02  -8.88785337E-07
  -1.55499997E-02  -9.11970801E-07
  -1.54999997E-02  -9.35727826E-07
  -1.54499998E-02  -9.60068405E-07
  -1.53999999E-02  -9.85004590E-07
  -1.53500000E-02  -1.01054843E-06
  -1.53000001E-02  -1.03671334E-06
  -1.52500002E-02  -1.06351445E-06
  -1.52000003E-02  -1.09096777E-06
  -1.51500003E-02  -1.11908969E-06
  -1.51000004E-02  -1.14789714E-06
  -1.50499996E-02  -1.17740592E-06
  -1.49999997E-02  -1.20763173E-06
  -1.49499997E-02  -1.23858979E-06
  -1.48999998E-02  -1.27029500E-06
  -1.48499999E-02  -1.30276305E-06
  -1.48000000E-02  -1.33601054E-06
  -1.47500001E-02  -1.37005475E-06
  -1.47000002E-02  -1.40491397E-06
  -1.46500003E-02  -1.44060709E-06
  -1.46000003E-02  -1.47715321E-06
  -1.45500004E-02  -1.51457118E-06
  -1.44999996E-02  -1.55288001E-06
  -1.44499997E-02  -1.59209799E-06
  -1.43999998E-02  -1.63224354E-06
  -1.43499998E-02  -1.67333508E-06
  -1.42999999E-02  -1.71539148E-06
  -1.42500000E-02  -1.75843286E-06
  -1.42000001E-02  -1.80247923E-06
  -1.41500002E-02  -1.84755243E-06
  -1.41000003E-02  -1.89367393E-06
  -1.40500003E-02  -1.94086579E-06
  -1.40000004E-02  -1.98914950E-06
  -1.39499996E-02  -2.03854597E-06
  -1.38999997E-02  -2.08907545E-06
  -1.38499998E-02  -2.14075772E-06
  -1.37999998E-02  -2.19361436E-06
  -1.37499999E-02  -2.24766700E-06
  -1.37000000E-02  -2.30293949E-06
  -1.36500001E-02  -2.35945686E-06
  -1.36000002E-02  -2.41724388E-06
  -1.35500003E-02  -2.47632579E-06
  -1.35000004E-02  -2.53672670E-06
  -1.34500004E-02  -2.59846888E-06
  -1.33999996E-02  -2.66157485E-06
  -1.33499997E-02  -2.72606690E-06
  -1.32999998E-02  -2.79196911E-06
  -1.32499998E-02  -2.85930696E-06
  -1.31999999E-02  -2.92810864E-06
  -1.31500000E-02  -2.99840258E-06
  -1.31000001E-02  -3.07021696E-06
  -1.30500002E-02  -3.14357953E-06
  -1.30000003E-02  -3.21851508E-06
  -1.29500004E-02  -3.29504837E-06
  -1.29000004E-02  -3.37320330E-06
  -1.28499996E-02  -3.45300577E-06
  -1.27999997E-02  -3.53448377E-06
  -1.27499998E-02  -3.61766774E-06
  -1.26999998E-02  -3.70259045E-06
  -1.26499999E-02  -3.78928507E-06
  -1.26000000E-02  -3.87778346E-06
  -1.25500001E-02  -3.96811538E-06
  -1.25000002E-02  -4.06030767E-06
  -1.24500003E-02  -4.15438808E-06
  -1.24000004E-02  -4.25038388E-06
  -1.23500004E-02  -4.34832737E-06
  -1.22999996E-02  -4.44825127E-06
  -1.22499997E-02  -4.55019244E-06
  -1.21999998E-02  -4.65418771E-06
  -1.21499998E-02  -4.76027344E-06
  -1.20999999E-02  -4.86848330E-06
  -1.20500000E-02  -4.97884776E-06
  -1.20000001E-02  -5.09139591E-06
  -1.19500002E-02  -5.20615913E-06
  -1.19000003E-02  -5.32317063E-06
  -1.18500004E-02  -5.44246723E-06
  -1.18000004E-02  -5.56409123E-06
  -1.17499996E-02  -5.68808537E-06
  -1.16999997E-02  -5.81449103E-06
  -1.16499998E-02  -5.94334824E-06
  -1.15999999E-02  -6.07469110E-06
  -1.15499999E-02  -6.20855280E-06
  -1.15000000E-02  -6.34496519E-06
  -1.14500001E-02  -6.48396644E-06
  -1.14000002E-02  -6.62559478E-06
  -1.13500003E-02  -6.76989703E-06
  -1.13000004E-02  -6.91691912E-06
  -1.12500004E-02  -7.06670835E-06
  -1.11999996E-02  -7.21930701E-06
  -1.11499997E-02  -7.37475466E-06
  -1.10999998E-02  -7.53308814E-06
  -1.10499999E-02  -7.69434246E-06
  -1.09999999E-02  -7.85855900E-06
  -1.09500000E-02  -8.02578143E-06
  -1.09000001E-02  -8.19606157E-06
  -1.08500002E-02  -8.36945128E-06
  -1.08000003E-02  -8.54600148E-06
  -1.07500004E-02  -8.72576038E-06
  -1.07000005E-02  -8.90877072E-06
  -1.06499996E-02  -9.09507253E-06
  -1.05999997E-02  -9.28470308E-06
  -1.05499998E-02  -9.47770422E-06
  -1.04999999E-02  -9.67412325E-06
  -1.04499999E-02  -9.87401290E-06
  -1.04000000E-02  -1.00774278E-05
  -1.03500001E-02  -1.02844251E-05
  -1.03000002E-02  -1.04950586E-05
  -1.02500003E-02  -1.07093720E-05
  -1.02000004E-02  -1.09274106E-05
  -1.01500005E-02  -1.11492136E-05
  -1.00999996E-02  -1.13748265E-05
  -1.00499997E-02  -1.16042975E-05
  -9.99999978E-03  -1.18376847E-05
  -9.94999986E-03  -1.20750465E-05
  -9.89999995E-03  -1.23164436E-05
  -9.85000003E-03  -1.25619317E-05
  -9.80000012E-03  -1.28115607E-05
  -9.75000020E-03  -1.30653743E-05
  -9.70000029E-03  -1.33234171E-05
  -9.65000037E-03  -1.35857335E-05
  -9.60000046E-03  -1.38523710E-05
  -9.54999961E-03  -1.41233886E-05
  -9.49999969E-03  -1.43988482E-05
  -9.44999978E-03  -1.46788116E-05
  -9.39999986E-03  -1.49633370E-05
  -9.34999995E-03  -1.52524735E-05
  -9.30000003E-03  -1.55462676E-05
  -9.25000012E-03  -1.58447619E-05
  -9.20000020E-03  -1.61479984E-05
  -9.15000029E-03  -1.64560261E-05
  -9.10000037E-03  -1.67689068E-05
  -9.05000046E-03  -1.70867061E-05
  -8.99999961E-03  -1.74094857E-05
  -8.94999970E-03  -1.77373095E-05
  -8.89999978E-03  -1.80702300E-05
  -8.84999987E-03  -1.84082910E-05
  -8.79999995E-03  -1.87515343E-05
  -8.75000004E-03  -1.91000017E-05
  -8.70000012E-03  -1.94537461E-05
  -8.65000021E-03  -1.98128237E-05
  -8.60000029E-03  -2.01773018E-05
  -8.55000038E-03  -2.05472406E-05
  -8.50000046E-03  -2.09227037E-05
  -8.44999962E-03  -2.13037438E-05
  -8.39999970E-03  -2.16903991E-05
  -8.34999979E-03  -2.20827096E-05
  -8.29999987E-03  -2.24807100E-05
  -8.24999996E-03  -2.28844510E-05
  -8.20000004E-03  -2.32939819E-05
  -8.15000013E-03  -2.37093682E-05
  -8.10000021E-03  -2.41306734E-05
  -8.05000030E-03  -2.45579595E-05
  -8.00000038E-03  -2.49912755E-05
  -7.95000046E-03  -2.54306651E-05
  -7.89999962E-03  -2.58761575E-05
  -7.84999970E-03  -2.63277907E-05
  -7.79999979E-03  -2.67856012E-05
  -7.74999987E-03  -2.72496436E-05
  -7.69999996E-03  -2.77199815E-05
  -7.65000004E-03  -2.81966750E-05
  -7.60000013E-03  -2.86797822E-05
  -7.55000021E-03  -2.91693486E-05
  -7.49999983E-03  -2.96654107E-05
  -7.44999992E-03  -3.01679847E-05
  -7.40000000E-03  -3.06770962E-05
  -7.35000009E-03  -3.11927870E-05
  -7.30000017E-03  -3.17150880E-05
  -7.24999979E-03  -3.22440574E-05
  -7.19999988E-03  -3.27797461E-05
  -7.14999996E-03  -3.33222015E-05
  -7.10000005E-03  -3.38714744E-05
  -7.05000013E-03  -3.44275795E-05
  -7.00000022E-03  -3.49905386E-05
  -6.94999984E-03  -3.55603588E-05
  -6.89999992E-03  -3.61370585E-05
  -6.85000001E-03  -3.67206703E-05
  -6.80000009E-03  -3.73112380E-05
  -6.75000018E-03  -3.79088087E-05
  -6.69999979E-03  -3.85134190E-05
  -6.64999988E-03  -3.91251051E-05
  -6.59999996E-03  -3.97438780E-05
  -6.55000005E-03  -4.03697413E-05
  -6.50000013E-03  -4.10026914E-05
  -6.45000022E-03  -4.16427283E-05
  -6.39999984E-03  -4.22898665E-05
  -6.34999992E-03  -4.29441279E-05
  -6.30000001E-03  -4.36055452E-05
  -6.25000009E-03  -4.42741512E-05
  -6.20000018E-03  -4.49499566E-05
  -6.14999980E-03  -4.56329653E-05
  -6.09999988E-03  -4.63231518E-05
  -6.04999997E-03  -4.70204941E-05
  -6.00000005E-03  -4.77249669E-05
  -5.95000014E-03  -4.84365664E-05
  -5.90000022E-03  -4.91552928E-05
  -5.84999984E-03  -4.98811605E-05
  -5.79999993E-03  -5.06141805E-05
  -5.75000001E-03  -5.13543491E-05
  -5.70000010E-03  -5.21016518E-05
  -5.65000018E-03  -5.28560486E-05
  -5.59999980E-03  -5.36174884E-05
  -5.54999989E-03  -5.43859205E-05
  -5.49999997E-03  -5.51613048E-05
  -5.45000006E-03  -5.59436157E-05
  -5.40000014E-03  -5.67328425E-05
  -5.35000023E-03  -5.75289814E-05
  -5.29999984E-03  -5.83320143E-05
  -5.24999993E-03  -5.91418902E-05
  -5.20000001E-03  -5.99585401E-05
  -5.15000010E-03  -6.07818874E-05
  -5.10000018E-03  -6.16118487E-05
  -5.04999980E-03  -6.24483437E-05
  -4.99999989E-03  -6.32913216E-05
  -4.94999997E-03  -6.41407241E-05
  -4.90000006E-03  -6.49965223E-05
  -4.85000014E-03  -6.58586650E-05
  -4.80000023E-03  -6.67270797E-05
  -4.74999985E-03  -6.76016789E-05
  -4.69999993E-03  -6.84823317E-05
  -4.65000002E-03  -6.93689290E-05
  -4.60000010E-03  -7.02613543E-05
  -4.55000019E-03  -7.11594985E-05
  -4.49999981E-03  -7.20632888E-05
  -4.44999989E-03  -7.29726453E-05
  -4.39999998E-03  -7.38874878E-05
  -4.35000006E-03  -7.48077146E-05
  -4.30000015E-03  -7.57331945E-05
  -4.25000023E-03  -7.66637750E-05
  -4.19999985E-03  -7.75992812E-05
  -4.14999994E-03  -7.85395678E-05
  -4.10000002E-03  -7.94844746E-05
  -4.05000011E-03  -8.04338852E-05
  -4.00000019E-03  -8.13876759E-05
  -3.94999981E-03  -8.23457303E-05
  -3.89999989E-03  -8.33079030E-05
  -3.84999998E-03  -8.42740264E-05
  -3.80000006E-03  -8.52439043E-05
  -3.74999992E-03  -8.62173110E-05
  -3.70000000E-03  -8.71940429E-05
  -3.65000009E-03  -8.81738961E-05
  -3.59999994E-03  -8.91566742E-05
  -3.55000002E-03  -9.01422172E-05
  -3.50000011E-03  -9.11303723E-05
  -3.44999996E-03  -9.21209648E-05
  -3.40000005E-03  -9.31137693E-05
  -3.34999990E-03  -9.41085309E-05
  -3.29999998E-03  -9.51049878E-05
  -3.25000007E-03  -9.61028563E-05
  -3.19999992E-03  -9.71018817E-05
  -3.15000000E-03  -9.81018238E-05
  -3.10000009E-03  -9.91024717E-05
  -3.04999994E-03  -1.00103607E-04
  -3.00000003E-03  -1.01104990E-04
  -2.95000011E-03  -1.02106365E-04
  -2.89999996E-03  -1.03107435E-04
  -2.85000005E-03  -1.04107858E-04
  -2.79999990E-03  -1.05107290E-04
  -2.74999999E-03  -1.06105421E-04
  -2.70000007E-03  -1.07101914E-04
  -2.64999992E-03  -1.08096501E-04
  -2.60000001E-03  -1.09088920E-04
  -2.55000009E-03  -1.10078865E-04
  -2.49999994E-03  -1.11066038E-04
  -2.45000003E-03  -1.12050046E-04
  -2.40000011E-03  -1.13030510E-04
  -2.34999997E-03  -1.14007031E-04
  -2.30000005E-03  -1.14979193E-04
  -2.24999990E-03  -1.15946619E-04
  -2.19999999E-03  -1.16908945E-04
  -2.15000007E-03  -1.17865835E-04
  -2.09999993E-03  -1.18816948E-04
  -2.05000001E-03  -1.19761928E-04
  -2.00000009E-03  -1.20700322E-04
  -1.94999995E-03  -1.21631681E-04
  -1.90000003E-03  -1.22555517E-04
  -1.85000000E-03  -1.23471342E-04
  -1.79999997E-03  -1.24378683E-04
  -1.75000005E-03  -1.25277118E-04
  -1.70000002E-03  -1.26166226E-04
  -1.64999999E-03  -1.27045627E-04
  -1.59999996E-03  -1.27914856E-04
  -1.55000004E-03  -1.28773449E-04
  -1.50000001E-03  -1.29620850E-04
  -1.44999998E-03  -1.30456465E-04
  -1.39999995E-03  -1.31279739E-04
  -1.35000004E-03  -1.32090121E-04
  -1.30000000E-03  -1.32887100E-04
  -1.24999997E-03  -1.33670197E-04
  -1.20000006E-03  -1.34438917E-04
  -1.15000003E-03  -1.35192764E-04
  -1.09999999E-03  -1.35931172E-04
  -1.04999996E-03  -1.36653543E-04
  -1.00000005E-03  -1.37359209E-04
  -9.50000016E-04  -1.38047515E-04
  -8.99999985E-04  -1.38717820E-04
  -8.50000011E-04  -1.39369513E-04
  -7.99999980E-04  -1.40002041E-04
  -7.50000007E-04  -1.40614880E-04
  -6.99999975E-04  -1.41207434E-04
  -6.50000002E-04  -1.41779077E-04
  -6.00000028E-04  -1.42329111E-04
  -5.49999997E-04  -1.42856778E-04
  -5.00000024E-04  -1.43361351E-04
  -4.49999992E-04  -1.43842073E-04
  -3.99999990E-04  -1.44298276E-04
  -3.49999988E-04  -1.44729289E-04
  -3.00000014E-04  -1.45134472E-04
  -2.50000012E-04  -1.45513215E-04
  -1.99999995E-04  -1.45864775E-04
  -1.50000007E-04  -1.46188439E-04
  -9.99999975E-05  -1.46483362E-04
  -4.99999987E-05  -1.46748702E-04
   0.00000000      -1.46983628E-04
   4.99999987E-05  -1.47187369E-04
   9.99999975E-05  -1.47359140E-04
   1.50000007E-04  -1.47498286E-04
   1.99999995E-04  -1.47604078E-04
   2.50000012E-04  -1.47675761E-04
   3.00000014E-04  -1.47712504E-04
   3.49999988E-04  -1.47713421E-04
   3.99999990E-04  -1.47677565E-04
   4.49999992E-04  -1.47604005E-04
   5.00000024E-04  -1.47491839E-04
   5.49999997E-04  -1.47340266E-04
   6.00000028E-04  -1.47148472E-04
   6.50000002E-04  -1.46915685E-04
   6.99999975E-04  -1.46641105E-04
   7.50000007E-04  -1.46323815E-04
   7.99999980E-04  -1.45962855E-04
   8.50000011E-04  -1.45557220E-04
   8.99999985E-04  -1.45105892E-04
   9.50000016E-04  -1.44607882E-04
   1.00000005E-03  -1.44062287E-04
   1.04999996E-03  -1.43468220E-04
   1.09999999E-03  -1.42824822E-04
   1.15000003E-03  -1.42131234E-04
   1.20000006E-03  -1.41386510E-04
   1.24999997E-03  -1.40589633E-04
   1.30000000E-03  -1.39739539E-04
   1.35000004E-03  -1.38835108E-04
   1.39999995E-03  -1.37875279E-04
   1.44999998E-03  -1.36859046E-04
   1.50000001E-03  -1.35785434E-04
   1.55000004E-03  -1.34653572E-04
   1.59999996E-03  -1.33462512E-04
   1.64999999E-03  -1.32211309E-04
   1.70000002E-03  -1.30898872E-04
   1.75000005E-03  -1.29524065E-04
   1.79999997E-03  -1.28085740E-04
   1.85000000E-03  -1.26582716E-04
   1.90000003E-03  -1.25013903E-04
   1.94999995E-03  -1.23378268E-04
   2.00000009E-03  -1.21674864E-04
   2.05000001E-03  -1.19902717E-04
   2.09999993E-03  -1.18060809E-04
   2.15000007E-03  -1.16148061E-04
   2.19999999E-03  -1.14163304E-04
   2.24999990E-03  -1.12105321E-04
   2.30000005E-03  -1.09972891E-04
   2.34999997E-03  -1.07764827E-04
   2.40000011E-03  -1.05480081E-04
   2.45000003E-03  -1.03117600E-04
   2.49999994E-03  -1.00676414E-04
   2.55000009E-03  -9.81554913E-05
   2.60000001E-03  -9.55537398E-05
   2.64999992E-03  -9.28699592E-05
   2.70000007E-03  -9.01028980E-05
   2.74999999E-03  -8.72512901E-05
   2.79999990E-03  -8.43139278E-05