  -3.99999991E-02   0.00000000    
  -3.99499983E-02   0.00000000    
  -3.99000011E-02   0.00000000    
  -3.98500003E-02   0.00000000    
  -3.97999994E-02   0.00000000    
  -3.97499986E-02  -9.50108906E-25
  -3.97000015E-02  -8.45920319E-24
  -3.96500006E-02  -3.93055910E-23
  -3.95999998E-02  -1.25446756E-22
  -3.95499989E-02  -3.04668280E-22
  -3.95000018E-02  -5.88002227E-22
  -3.94500010E-02  -9.06402341E-22
  -3.94000001E-02  -1.05945973E-21
  -3.93499993E-02  -7.03930348E-22
  -3.92999984E-02   5.86725863E-22
  -3.92500013E-02   3.19498835E-21
  -3.92000005E-02   7.31535673E-21
  -3.91499996E-02   1.28750291E-20
  -3.90999988E-02   1.95817917E-20
  -3.90500017E-02   2.70918178E-20
  -3.90000008E-02   3.52058829E-20
  -3.89500000E-02   4.39637416E-20
  -3.88999991E-02   5.35538959E-20
  -3.88499983E-02   6.40731194E-20
  -3.88000011E-02   7.52831745E-20
  -3.87500003E-02   8.65345434E-20
  -3.86999995E-02   9.69239900E-20
  -3.86499986E-02   1.05577146E-19
  -3.86000015E-02   1.11816220E-19
  -3.85500006E-02   1.14996924E-19
  -3.84999998E-02   1.14002885E-19
  -3.84499989E-02   1.06672482E-19
  -3.84000018E-02   8.96185635E-20
  -3.83500010E-02   5.88052843E-20
  -3.83000001E-02   1.08282555E-20
  -3.82499993E-02  -5.57214775E-20
  -3.81999984E-02  -1.39791145E-19
  -3.81500013E-02  -2.39091102E-19
  -3.81000005E-02  -3.52988676E-19
  -3.80499996E-02  -4.85928854E-19
  -3.79999988E-02  -6.49458325E-19
  -3.79500017E-02  -8.61084730E-19
  -3.79000008E-02  -1.13946321E-18
  -3.78500000E-02  -1.49730899E-18
  -3.77999991E-02  -1.93503209E-18
  -3.77499983E-02  -2.43842091E-18
  -3.77000012E-02  -2.98231098E-18
  -3.76500003E-02  -3.53943388E-18
  -3.75999995E-02  -4.09077953E-18
  -3.75499986E-02  -4.63230945E-18
  -3.75000015E-02  -5.17387866E-18
  -3.74500006E-02  -5.72962616E-18
  -3.73999998E-02  -6.30351373E-18
  -3.73499990E-02  -6.87684419E-18
  -3.73000018E-02  -7.40456350E-18
  -3.72500010E-02  -7.82354041E-18
  -3.72000001E-02  -8.07026936E-18
  -3.71499993E-02  -8.10033986E-18
  -3.70999984E-02  -7.90023494E-18
  -3.70500013E-02  -7.48472806E-18
  -3.70000005E-02  -6.87943533E-18
  -3.69499996E-02  -6.09509771E-18
  -3.68999988E-02  -5.10463330E-18
  -3.68500017E-02  -3.83349410E-18
  -3.68000008E-02  -2.16841055E-18
  -3.67500000E-02   1.84066540E-20
  -3.66999991E-02   2.83917441E-18
  -3.66499983E-02   6.36624876E-18
  -3.66000012E-02   1.06219330E-17
  -3.65500003E-02   1.55838793E-17
  -3.64999995E-02   2.12009055E-17
  -3.64499986E-02   2.74108646E-17
  -3.64000015E-02   3.41531294E-17
  -3.63500006E-02   4.13722721E-17
  -3.62999998E-02   4.90135549E-17
  -3.62499990E-02   5.70130068E-17
  -3.62000018E-02   6.52849585E-17
  -3.61500010E-02   7.37088799E-17
  -3.61000001E-02   8.21180443E-17
  -3.60499993E-02   9.02943607E-17
  -3.59999985E-02   9.79764400E-17
  -3.59500013E-02   1.04886819E-16
  -3.59000005E-02   1.10777100E-16
  -3.58499996E-02   1.15476915E-16
  -3.57999988E-02   1.18920726E-16
  -3.57500017E-02   1.21123925E-16
  -3.57000008E-02   1.22094902E-16
  -3.56500000E-02   1.21700503E-16
  -3.55999991E-02   1.19536413E-16
  -3.55499983E-02   1.14873073E-16
  -3.55000012E-02   1.06733801E-16
  -3.54500003E-02   9.41119514E-17
  -3.53999995E-02   7.62643783E-17
  -3.53499986E-02   5.29608475E-17
  -3.53000015E-02   2.45581123E-17
  -3.52500007E-02  -8.17708319E-18
  -3.51999998E-02  -4.44624766E-17
  -3.51499990E-02  -8.39588653E-17
  -3.51000018E-02  -1.27071022E-16
  -3.50500010E-02  -1.74900750E-16
  -3.50000001E-02  -2.28799666E-16
  -3.49499993E-02  -2.89664542E-16
  -3.48999985E-02  -3.57280641E-16
  -3.48500013E-02  -4.30055965E-16
  -3.48000005E-02  -5.05358015E-16
  -3.47499996E-02  -5.80397563E-16
  -3.46999988E-02  -6.53313283E-16
  -3.46500017E-02  -7.23944502E-16
  -3.46000008E-02  -7.93840231E-16
  -3.45500000E-02  -8.65361417E-16
  -3.44999991E-02  -9.40167608E-16
  -3.44499983E-02  -1.01774460E-15
  -3.44000012E-02  -1.09472529E-15
  -3.43500003E-02  -1.16548250E-15
  -3.42999995E-02  -1.22391549E-15
  -3.42499986E-02  -1.26573139E-15
  -3.42000015E-02  -1.29016363E-15
  -3.41500007E-02  -1.30018245E-15
  -3.40999998E-02  -1.30085922E-15
  -3.40499990E-02  -1.29642045E-15
  -3.40000018E-02  -1.28727059E-15
  -3.39500010E-02  -1.26847493E-15
  -3.39000002E-02  -1.23069387E-15
  -3.38499993E-02  -1.16348933E-15
  -3.37999985E-02  -1.05973213E-15
  -3.37500013E-02  -9.19106134E-16
  -3.37000005E-02  -7.48868287E-16
  -3.36499996E-02  -5.61114911E-16
  -3.35999988E-02  -3.67430399E-16
  -3.35500017E-02  -1.73196321E-16
  -3.35000008E-02   2.56884463E-17
  -3.34500000E-02   2.41754876E-16
  -3.33999991E-02   4.90539067E-16
  -3.33499983E-02   7.82891377E-16
  -3.33000012E-02   1.11850510E-15
  -3.32500003E-02   1.48398658E-15
  -3.31999995E-02   1.85697214E-15
  -3.31499986E-02   2.21501212E-15
  -3.31000015E-02   2.54544730E-15
  -3.30500007E-02   2.85156818E-15
  -3.29999998E-02   3.15159847E-15
  -3.29499990E-02   3.47015401E-15
  -3.29000019E-02   3.82546125E-15
  -3.28500010E-02   4.21807415E-15
  -3.28000002E-02   4.62674383E-15
  -3.27499993E-02   5.01426395E-15
  -3.26999985E-02   5.34156214E-15
  -3.26500013E-02   5.58411722E-15
  -3.26000005E-02   5.74302230E-15
  -3.25499997E-02   5.84478314E-15
  -3.24999988E-02   5.92879780E-15
  -3.24500017E-02   6.02734923E-15
  -3.24000008E-02   6.14705998E-15
  -3.23500000E-02   6.26100200E-15
  -3.22999991E-02   6.31641659E-15
  -3.22499983E-02   6.25592234E-15
  -3.22000012E-02   6.04336536E-15
  -3.21500003E-02   5.68229935E-15
  -3.20999995E-02   5.21745106E-15
  -3.20499986E-02   4.71681943E-15
  -3.20000015E-02   4.24112404E-15
  -3.19500007E-02   3.81410678E-15
  -3.18999998E-02   3.40802648E-15
  -3.18499990E-02   2.95273843E-15
  -3.18000019E-02   2.36617404E-15
  -3.17500010E-02   1.59354373E-15
  -3.17000002E-02   6.37246127E-16
  -3.16499993E-02  -4.37683020E-16
  -3.15999985E-02  -1.52735276E-15
  -3.15500014E-02  -2.53318162E-15
  -3.15000005E-02  -3.40704942E-15
  -3.14499997E-02  -4.17590165E-15
  -3.13999988E-02  -4.93228852E-15
  -3.13500017E-02  -5.79251274E-15
  -3.13000008E-02  -6.83974489E-15
  -3.12500000E-02  -8.07810155E-15
  -3.11999992E-02  -9.42060303E-15
  -3.11500002E-02  -1.07195814E-14
  -3.10999993E-02  -1.18284848E-14
  -3.10500003E-02  -1.26681316E-14
  -3.09999995E-02  -1.32661665E-14
  -3.09500005E-02  -1.37487923E-14
  -3.08999997E-02  -1.42850175E-14
  -3.08500007E-02  -1.50063220E-14
  -3.07999998E-02  -1.59381158E-14
  -3.07500008E-02  -1.69765477E-14
  -3.07000000E-02  -1.79250654E-14
  -3.06499992E-02  -1.85777687E-14
  -3.06000002E-02  -1.88133285E-14
  -3.05499993E-02  -1.86555127E-14
  -3.05000003E-02  -1.82691488E-14
  -3.04499995E-02  -1.78887531E-14
  -3.04000005E-02  -1.77089924E-14
  -3.03499997E-02  -1.77863536E-14
  -3.03000007E-02  -1.79995992E-14
  -3.02499998E-02  -1.80919698E-14
  -3.02000009E-02  -1.77809038E-14
  -3.01500000E-02  -1.68879447E-14
  -3.00999992E-02  -1.54287763E-14
  -3.00500002E-02  -1.36181604E-14
  -2.99999993E-02  -1.17818531E-14
  -2.99500003E-02  -1.02111677E-14
  -2.98999995E-02  -9.02531901E-15
  -2.98500005E-02  -8.10717426E-15
  -2.97999997E-02  -7.14744358E-15
  -2.97500007E-02  -5.78318140E-15
  -2.96999998E-02  -3.77089115E-15
  -2.96500009E-02  -1.11439381E-15
  -2.96000000E-02   1.91592246E-15
  -2.95499992E-02   4.88835716E-15
  -2.95000002E-02   7.39760375E-15
  -2.94499993E-02   9.25129893E-15
  -2.94000003E-02   1.05673095E-14
  -2.93499995E-02   1.17305906E-14
  -2.93000005E-02   1.32217650E-14
  -2.92499997E-02   1.53907970E-14
  -2.92000007E-02   1.82793945E-14
  -2.91499998E-02   2.15786183E-14
  -2.91000009E-02   2.47492964E-14
  -2.90500000E-02   2.72576033E-14
  -2.89999992E-02   2.88211329E-14
  -2.89500002E-02   2.95500623E-14
  -2.88999993E-02   2.99111830E-14
  -2.88500004E-02   3.05221140E-14
  -2.87999995E-02   3.18635533E-14
  -2.87500005E-02   3.40407024E-14
  -2.86999997E-02   3.67089375E-14
  -2.86500007E-02   3.92073933E-14
  -2.85999998E-02   4.08486247E-14
  -2.85500009E-02   4.12362236E-14
  -2.85000000E-02   4.04625470E-14
  -2.84499992E-02   3.90874805E-14
  -2.84000002E-02   3.78971553E-14
  -2.83499993E-02   3.75449183E-14
  -2.83000004E-02   3.82373712E-14
  -2.82499995E-02   3.96149754E-14
  -2.82000005E-02   4.08927652E-14
  -2.81499997E-02   4.12075566E-14
  -2.81000007E-02   4.00185764E-14
  -2.80499998E-02   3.73759929E-14
  -2.80000009E-02   3.39252823E-14
  -2.79500000E-02   3.06330855E-14
  -2.78999992E-02   2.83504977E-14
  -2.78500002E-02   2.74112584E-14
  -2.77999993E-02   2.74550670E-14
  -2.77500004E-02   2.75691420E-14
  -2.76999995E-02   2.66960069E-14
  -2.76500005E-02   2.41281943E-14
  -2.75999997E-02   1.98617774E-14
  -2.75500007E-02   1.46366650E-14
  -2.74999999E-02   9.63095350E-15
  -2.74500009E-02   5.93722535E-15
  -2.74000000E-02   4.05645645E-15
  -2.73499992E-02   3.64685970E-15
  -2.73000002E-02   3.65573194E-15
  -2.72499993E-02   2.78827851E-15
  -2.72000004E-02   1.07676529E-16
  -2.71499995E-02  -4.50930780E-15
  -2.71000005E-02  -1.02804863E-14
  -2.70499997E-02  -1.58480457E-14
  -2.70000007E-02  -1.98927890E-14
  -2.69499999E-02  -2.17568070E-14
  -2.69000009E-02  -2.17834021E-14
  -2.68500000E-02  -2.12037453E-14
  -2.67999992E-02  -2.16050915E-14
  -2.67500002E-02  -2.42121386E-14
  -2.66999993E-02  -2.93100166E-14
  -2.66500004E-02  -3.60835222E-14
  -2.65999995E-02  -4.29636185E-14
  -2.65500005E-02  -4.83384661E-14
  -2.64999997E-02  -5.13105488E-14
  -2.64500007E-02  -5.21480239E-14
  -2.63999999E-02  -5.22079294E-14
  -2.63500009E-02  -5.33473378E-14
  -2.63000000E-02  -5.70783994E-14
  -2.62499992E-02  -6.38520202E-14
  -2.62000002E-02  -7.28090209E-14
  -2.61499994E-02  -8.21319466E-14
  -2.61000004E-02  -8.98545629E-14
  -2.60499995E-02  -9.47678147E-14
  -2.60000005E-02  -9.70026061E-14
  -2.59499997E-02  -9.80056355E-14
  -2.59000007E-02  -9.98976292E-14
  -2.58499999E-02  -1.04491055E-13
  -2.58000009E-02  -1.12413036E-13
  -2.57500000E-02  -1.22745957E-13
  -2.56999992E-02  -1.33371545E-13
  -2.56500002E-02  -1.41882776E-13
  -2.55999994E-02  -1.46658862E-13
  -2.55500004E-02  -1.47608447E-13
  -2.54999995E-02  -1.46224030E-13
  -2.54500005E-02  -1.44899053E-13
  -2.53999997E-02  -1.45801123E-13
  -2.53500007E-02  -1.49811194E-13
  -2.52999999E-02  -1.56025719E-13
  -2.52500009E-02  -1.62073019E-13
  -2.52000000E-02  -1.65124953E-13
  -2.51499992E-02  -1.63156869E-13
  -2.51000002E-02  -1.55878741E-13
  -2.50499994E-02  -1.44892982E-13
  -2.50000004E-02  -1.32979849E-13
  -2.49499995E-02  -1.22812947E-13
  -2.49000005E-02  -1.15682976E-13
  -2.48499997E-02  -1.10822979E-13
  -2.48000007E-02  -1.05668959E-13
  -2.47499999E-02  -9.69664209E-14
  -2.47000009E-02  -8.22377919E-14
  -2.46500000E-02  -6.09419470E-14
  -2.45999992E-02  -3.47785155E-14
  -2.45500002E-02  -6.96807080E-15
  -2.44999994E-02   1.91906139E-14
  -2.44500004E-02   4.18399954E-14
  -2.43999995E-02   6.14565433E-14
  -2.43500005E-02   8.06814468E-14
  -2.42999997E-02   1.03131662E-13
  -2.42500007E-02   1.31708148E-13
  -2.41999999E-02   1.67168254E-13
  -2.41500009E-02   2.07632522E-13
  -2.41000000E-02   2.49285537E-13
  -2.40499992E-02   2.87986459E-13
  -2.40000002E-02   3.21074303E-13
  -2.39499994E-02   3.48540316E-13
  -2.39000004E-02   3.73004172E-13
  -2.38499995E-02   3.98466281E-13
  -2.38000005E-02   4.28373781E-13
  -2.37499997E-02   4.63871563E-13
  -2.37000007E-02   5.03054196E-13
  -2.36499999E-02   5.41599155E-13
  -2.36000009E-02   5.74534615E-13
  -2.35500000E-02   5.98366029E-13
  -2.34999992E-02   6.12591195E-13
  -2.34500002E-02   6.19885328E-13
  -2.33999994E-02   6.24826796E-13
  -2.33500004E-02   6.31703132E-13
  -2.32999995E-02   6.42378945E-13
  -2.32500006E-02   6.55212701E-13
  -2.31999997E-02   6.65558158E-13
  -2.31500007E-02   6.67675821E-13
  -2.30999999E-02   6.57224004E-13
  -2.30500009E-02   6.33203559E-13
  -2.30000000E-02   5.98445338E-13
  -2.29499992E-02   5.58366504E-13
  -2.29000002E-02   5.18510961E-13
  -2.28499994E-02   4.81962831E-13
  -2.28000004E-02   4.47819678E-13
  -2.27499995E-02   4.11463398E-13
  -2.27000006E-02   3.66567155E-13
  -2.26499997E-02   3.07976816E-13
  -2.26000007E-02   2.34173764E-13
  -2.25499999E-02   1.48173913E-13
  -2.25000009E-02   5.63951318E-14
  -2.24500000E-02  -3.40588797E-14
  -2.23999992E-02  -1.18508027E-13
  -2.23500002E-02  -1.96787167E-13
  -2.22999994E-02  -2.73324196E-13
  -2.22500004E-02  -3.55098139E-13
  -2.21999995E-02  -4.48336572E-13
  -2.21500006E-02  -5.55420347E-13
  -2.20999997E-02  -6.73419491E-13
  -2.20500007E-02  -7.94989020E-13
  -2.19999999E-02  -9.11298923E-13
  -2.19500009E-02  -1.01573112E-12
  -2.19000001E-02  -1.10668018E-12
  -2.18499992E-02  -1.18814680E-12
  -2.18000002E-02  -1.26777061E-12
  -2.17499994E-02  -1.35311499E-12
  -2.17000004E-02  -1.44783523E-12
  -2.16499995E-02  -1.54948255E-12
  -2.16000006E-02  -1.65000728E-12
  -2.15499997E-02  -1.73883477E-12
  -2.15000007E-02  -1.80720597E-12
  -2.14499999E-02  -1.85185374E-12
  -2.14000009E-02  -1.87631161E-12
  -2.13500001E-02  -1.88917892E-12
  -2.12999992E-02  -1.90001704E-12
  -2.12500002E-02  -1.91466851E-12
  -2.11999994E-02  -1.93211029E-12
  -2.11500004E-02  -1.94433835E-12
  -2.10999995E-02  -1.93944838E-12
  -2.10500006E-02  -1.90663587E-12
  -2.09999997E-02  -1.84090785E-12
  -2.09500007E-02  -1.74535614E-12
  -2.08999999E-02  -1.62986530E-12
  -2.08500009E-02  -1.50671565E-12
  -2.08000001E-02  -1.38496907E-12
  -2.07499992E-02  -1.26615049E-12
  -2.07000002E-02  -1.14324414E-12
  -2.06499994E-02  -1.00359044E-12
  -2.06000004E-02  -8.34515562E-13
  -2.05499995E-02  -6.29240258E-13
  -2.05000006E-02  -3.90391387E-13
  -2.04499997E-02  -1.29431229E-13
  -2.04000007E-02   1.37891421E-13
  -2.03499999E-02   3.98149666E-13
  -2.03000009E-02   6.45981695E-13
  -2.02500001E-02   8.86324055E-13
  -2.01999992E-02   1.13198914E-12
  -2.01500002E-02   1.39751123E-12
  -2.00999994E-02   1.69191831E-12
  -2.00500004E-02   2.01367634E-12
  -1.99999996E-02   2.35018862E-12
  -1.99500006E-02   2.68225264E-12
  -1.98999997E-02   2.99164469E-12
  -1.98500007E-02   3.26850613E-12
  -1.97999999E-02   3.51517188E-12
  -1.97500009E-02   3.74457019E-12
  -1.97000001E-02   3.97371545E-12
  -1.96499992E-02   4.21506927E-12
  -1.96000002E-02   4.46960914E-12
  -1.95499994E-02   4.72483034E-12
  -1.95000004E-02   4.95877298E-12
  -1.94499996E-02   5.14848971E-12
  -1.94000006E-02   5.27928048E-12
  -1.93499997E-02   5.35054856E-12
  -1.93000007E-02   5.37549042E-12
  -1.92499999E-02   5.37455410E-12
  -1.92000009E-02   5.36539172E-12
  -1.91500001E-02   5.35375954E-12
  -1.90999992E-02   5.32953412E-12
  -1.90500002E-02   5.26985356E-12
  -1.89999994E-02   5.14824077E-12
  -1.89500004E-02   4.94579941E-12
  -1.88999996E-02   4.65949328E-12
  -1.88500006E-02   4.30365075E-12
  -1.87999997E-02   3.90377531E-12
  -1.87500007E-02   3.48518697E-12
  -1.86999999E-02   3.06146211E-12
  -1.86500009E-02   2.62791525E-12
  -1.86000001E-02   2.16326631E-12
  -1.85499992E-02   1.63904621E-12
  -1.85000002E-02   1.03276415E-12
  -1.84499994E-02   3.39006926E-13
  -1.84000004E-02  -4.26626291E-13
  -1.83499996E-02  -1.23279577E-12
  -1.83000006E-02  -2.04483696E-12
  -1.82499997E-02  -2.83895021E-12
  -1.82000007E-02  -3.61179554E-12
  -1.81499999E-02  -4.38097952E-12
  -1.81000009E-02  -5.17589227E-12
  -1.80500001E-02  -6.02270664E-12
  -1.79999992E-02  -6.93013398E-12
  -1.79500002E-02  -7.88241868E-12
  -1.78999994E-02  -8.84300879E-12
  -1.78500004E-02  -9.76763028E-12
  -1.77999996E-02  -1.06211645E-11
  -1.77500006E-02  -1.13908544E-11
  -1.76999997E-02  -1.20897251E-11
  -1.76500008E-02  -1.27483666E-11
  -1.75999999E-02  -1.33983918E-11
  -1.75500009E-02  -1.40548085E-11
  -1.75000001E-02  -1.47052630E-11
  -1.74499992E-02  -1.53112401E-11
  -1.74000002E-02  -1.58211395E-11
  -1.73499994E-02  -1.61896798E-11
  -1.73000004E-02  -1.63951318E-11
  -1.72499996E-02  -1.64464727E-11
  -1.72000006E-02  -1.63769640E-11
  -1.71499997E-02  -1.62265947E-11
  -1.71000008E-02  -1.60210109E-11
  -1.70499999E-02  -1.57563494E-11
  -1.70000009E-02  -1.53970656E-11
  -1.69500001E-02  -1.48881758E-11
  -1.68999992E-02  -1.41768541E-11
  -1.68500002E-02  -1.32339677E-11
  -1.67999994E-02  -1.20658492E-11
  -1.67500004E-02  -1.07106650E-11
  -1.66999996E-02  -9.22062166E-12
  -1.66500006E-02  -7.63758588E-12
  -1.65999997E-02  -5.97298816E-12
  -1.65500008E-02  -4.20123268E-12
  -1.64999999E-02  -2.27001556E-12
  -1.64500009E-02  -1.23459470E-13
  -1.64000001E-02   2.27199878E-12
  -1.63499992E-02   4.91051991E-12
  -1.63000003E-02   7.74658029E-12
  -1.62499994E-02   1.07120380E-11
  -1.62000004E-02   1.37434075E-11
  -1.61499996E-02   1.68072865E-11
  -1.61000006E-02   1.99123842E-11
  -1.60499997E-02   2.31023325E-11
  -1.60000008E-02   2.64319608E-11
  -1.59499999E-02   2.99372298E-11
  -1.59000009E-02   3.36121894E-11
  -1.58500001E-02   3.74035282E-11
  -1.57999992E-02   4.12256861E-11
  -1.57500003E-02   4.49902962E-11
  -1.56999994E-02   4.86370423E-11
  -1.56500004E-02   5.21520917E-11
  -1.55999996E-02   5.55655071E-11
  -1.55499997E-02   5.89281332E-11
  -1.54999997E-02   6.22778912E-11
  -1.54499998E-02   6.56103644E-11
  -1.53999999E-02   6.88670787E-11
  -1.53500000E-02   7.19471774E-11
  -1.53000001E-02   7.47379311E-11
  -1.52500002E-02   7.71508968E-11
  -1.52000003E-02   7.91474872E-11
  -1.51500003E-02   8.07423781E-11
  -1.51000004E-02   8.19825111E-11
  -1.50499996E-02   8.29106298E-11
  -1.49999997E-02   8.35293223E-11
  -1.49499997E-02   8.37818634E-11
  -1.48999998E-02   8.35587849E-11
  -1.48499999E-02   8.27280536E-11
  -1.48000000E-02   8.11758091E-11
  -1.47500001E-02   7.88396917E-11
  -1.47000002E-02   7.57195903E-11
  -1.46500003E-02   7.18606008E-11
  -1.46000003E-02   6.73149869E-11
  -1.45500004E-02   6.21000543E-11
  -1.44999996E-02   5.61705196E-11
  -1.44499997E-02   4.94184797E-11
  -1.43999998E-02   4.17014132E-11
  -1.43499998E-02   3.28864852E-11
  -1.42999999E-02   2.28917042E-11
  -1.42500000E-02   1.17053815E-11
  -1.42000001E-02  -6.25211254E-13
  -1.41500002E-02  -1.40317506E-11
  -1.41000003E-02  -2.84726600E-11
  -1.40500003E-02  -4.39696647E-11
  -1.40000004E-02  -6.06164563E-11
  -1.39499996E-02  -7.85548709E-11
  -1.38999997E-02  -9.79285195E-11
  -1.38499998E-02  -1.18834151E-10
  -1.37999998E-02  -1.41292478E-10
  -1.37499999E-02  -1.65251965E-10
  -1.37000000E-02  -1.90624350E-10
  -1.36500001E-02  -2.17337134E-10
  -1.36000002E-02  -2.45379300E-10
  -1.35500003E-02  -2.74819945E-10
  -1.35000004E-02  -3.05790893E-10
  -1.34500004E-02  -3.38440248E-10
  -1.33999996E-02  -3.72877118E-10
  -1.33499997E-02  -4.09132006E-10
  -1.32999998E-02  -4.47151149E-10
  -1.32499998E-02  -4.86827578E-10
  -1.31999999E-02  -5.28056043E-10
  -1.31500000E-02  -5.70788139E-10
  -1.31000001E-02  -6.15061890E-10
  -1.30500002E-02  -6.60993482E-10
  -1.30000003E-02  -7.08732739E-10
  -1.29500004E-02  -7.58403063E-10
  -1.29000004E-02  -8.10050693E-10
  -1.28499996E-02  -8.63628169E-10
  -1.27999997E-02  -9.19017973E-10
  -1.27499998E-02  -9.76088543E-10
  -1.26999998E-02  -1.03475684E-09
  -1.26499999E-02  -1.09503051E-09
  -1.26000000E-02  -1.15700982E-09
  -1.25500001E-02  -1.22084876E-09
  -1.25000002E-02  -1.28669109E-09
  -1.24500003E-02  -1.35460954E-09
  -1.24000004E-02  -1.42457679E-09
  -1.23500004E-02  -1.49647916E-09
  -1.22999996E-02  -1.57017099E-09
  -1.22499997E-02  -1.64554326E-09
  -1.21999998E-02  -1.72257808E-09
  -1.21499998E-02  -1.80136350E-09
  -1.20999999E-02  -1.88206228E-09
  -1.20500000E-02  -1.96484806E-09
  -1.20000001E-02  -2.04983364E-09
  -1.19500002E-02  -2.13702989E-09
  -1.19000003E-02  -2.22634688E-09
  -1.18500004E-02  -2.31764252E-09
  -1.18000004E-02  -2.41079623E-09
  -1.17499996E-02  -2.50577470E-09
  -1.16999997E-02  -2.60266120E-09
  -1.16499998E-02  -2.70163536E-09
  -1.15999999E-02  -2.80290990E-09
  -1.15499999E-02  -2.90665403E-09
  -1.15000000E-02  -3.01293568E-09
  -1.14500001E-02  -3.12171045E-09
  -1.14000002E-02  -3.23286109E-09
  -1.13500003E-02  -3.34627126E-09
  -1.13000004E-02  -3.46190410E-09
  -1.12500004E-02  -3.57984331E-09
  -1.11999996E-02  -3.70029007E-09
  -1.11499997E-02  -3.82350285E-09
  -1.10999998E-02  -3.94971655E-09
  -1.10499999E-02  -4.07907175E-09
  -1.09999999E-02  -4.21158797E-09
  -1.09500000E-02  -4.34718883E-09
  -1.09000001E-02  -4.48577753E-09
  -1.08500002E-02  -4.62732119E-09
  -1.08000003E-02  -4.77191087E-09
  -1.07500004E-02  -4.91976948E-09
  -1.07000005E-02  -5.07120390E-09
  -1.06499996E-02  -5.22652099E-09
  -1.05999997E-02  -5.38594369E-09
  -1.05499998E-02  -5.54956792E-09
  -1.04999999E-02  -5.71737635E-09
  -1.04499999E-02  -5.88930194E-09
  -1.04000000E-02  -6.06532113E-09
  -1.03500001E-02  -6.24552676E-09
  -1.03000002E-02  -6.43015774E-09
  -1.02500003E-02  -6.61955957E-09
  -1.02000004E-02  -6.81410306E-09
  -1.01500005E-02  -7.01409419E-09
  -1.00999996E-02  -7.21970927E-09
  -1.00499997E-02  -7.43099315E-09
  -9.99999978E-03  -7.64791519E-09
  -9.94999986E-03  -7.87046339E-09
  -9.89999995E-03  -8.09872969E-09
  -9.85000003E-03  -8.33295832E-09
  -9.80000012E-03  -8.57352678E-09
  -9.75000020E-03  -8.82086137E-09
  -9.70000029E-03  -9.07534670E-09
  -9.65000037E-03  -9.33724564E-09
  -9.60000046E-03  -9.60667279E-09
  -9.54999961E-03  -9.88363880E-09
  -9.49999969E-03  -1.01681463E-08
  -9.44999978E-03  -1.04602798E-08
  -9.39999986E-03  -1.07602753E-08
  -9.34999995E-03  -1.10685168E-08
  -9.30000003E-03  -1.13854774E-08
  -9.25000012E-03  -1.17116059E-08
  -9.20000020E-03  -1.20472441E-08
  -9.15000029E-03  -1.23925759E-08
  -9.10000037E-03  -1.27476598E-08
  -9.05000046E-03  -1.31125075E-08
  -8.99999961E-03  -1.34871971E-08
  -8.94999970E-03  -1.38719507E-08
  -8.89999978E-03  -1.42671546E-08
  -8.84999987E-03  -1.46733088E-08
  -8.79999995E-03  -1.50909312E-08
  -8.75000004E-03  -1.55204454E-08
  -8.70000012E-03  -1.59621205E-08
  -8.65000021E-03  -1.64160774E-08
  -8.60000029E-03  -1.68823604E-08
  -8.55000038E-03  -1.73610513E-08
  -8.50000046E-03  -1.78523614E-08
  -8.44999962E-03  -1.83566780E-08
  -8.39999970E-03  -1.88745322E-08
  -8.34999979E-03  -1.94064995E-08
  -8.29999987E-03  -1.99530952E-08
  -8.24999996E-03  -2.05146762E-08
  -8.20000004E-03  -2.10914450E-08
  -8.15000013E-03  -2.16835012E-08
  -8.10000021E-03  -2.22909371E-08
  -8.05000030E-03  -2.29139765E-08
  -8.00000038E-03  -2.35530049E-08
  -7.95000046E-03  -2.42085800E-08
  -7.89999962E-03  -2.48813485E-08
  -7.84999970E-03  -2.55719215E-08
  -7.79999979E-03  -2.62807855E-08
  -7.74999987E-03  -2.70082516E-08
  -7.69999996E-03  -2.77545027E-08
  -7.65000004E-03  -2.85196951E-08
  -7.60000013E-03  -2.93040721E-08
  -7.55000021E-03  -3.01080476E-08
  -7.49999983E-03  -3.09322346E-08
  -7.44999992E-03  -3.17773541E-08
  -7.40000000E-03  -3.26441452E-08
  -7.35000009E-03  -3.35332402E-08
  -7.30000017E-03  -3.44450974E-08
  -7.24999979E-03  -3.53800225E-08
  -7.19999988E-03  -3.63382533E-08
  -7.14999996E-03  -3.73200990E-08
  -7.10000005E-03  -3.83260286E-08
  -7.05000013E-03  -3.93566957E-08
  -7.00000022E-03  -4.04129388E-08
  -6.94999984E-03  -4.14956283E-08
  -6.89999992E-03  -4.26055493E-08
  -6.85000001E-03  -4.37433485E-08
  -6.80000009E-03  -4.49094912E-08
  -6.75000018E-03  -4.61043470E-08
  -6.69999979E-03  -4.73283173E-08
  -6.64999988E-03  -4.85819420E-08
  -6.59999996E-03  -4.98659745E-08
  -6.55000005E-03  -5.11813525E-08
  -6.50000013E-03  -5.25290886E-08
  -6.45000022E-03  -5.39101848E-08
  -6.39999984E-03  -5.53254829E-08
  -6.34999992E-03  -5.67756437E-08
  -6.30000001E-03  -5.82612145E-08
  -6.25000009E-03  -5.97827281E-08
  -6.20000018E-03  -6.13408275E-08
  -6.14999980E-03  -6.29363512E-08
  -6.09999988E-03  -6.45703651E-08
  -6.04999997E-03  -6.62440485E-08
  -6.00000005E-03  -6.79585739E-08
  -5.95000014E-03  -6.97150213E-08
  -5.90000022E-03  -7.15142789E-08
  -5.84999984E-03  -7.33570715E-08
  -5.79999993E-03  -7.52440954E-08
  -5.75000001E-03  -7.71761179E-08
  -5.70000010E-03  -7.91540842E-08
  -5.65000018E-03  -8.11791665E-08
  -5.59999980E-03  -8.32527007E-08
  -5.54999989E-03  -8.53760653E-08
  -5.49999997E-03  -8.75505464E-08
  -5.45000006E-03  -8.97772807E-08
  -5.40000014E-03  -9.20572063E-08
  -5.35000023E-03  -9.43912113E-08
  -5.29999984E-03  -9.67801910E-08
  -5.24999993E-03  -9.92252112E-08
  -5.20000001E-03  -1.01727565E-07
  -5.15000010E-03  -1.04288716E-07
  -5.10000018E-03  -1.06910228E-07
  -5.04999980E-03  -1.09593628E-07
  -4.99999989E-03  -1.12340281E-07
  -4.94999997E-03  -1.15151373E-07
  -4.90000006E-03  -1.18027977E-07
  -4.85000014E-03  -1.20971123E-07
  -4.80000023E-03  -1.23982034E-07
  -4.74999985E-03  -1.27062066E-07
  -4.69999993E-03  -1.30212840E-07
  -4.65000002E-03  -1.33436103E-07
  -4.60000010E-03  -1.36733547E-07
  -4.55000019E-03  -1.40106820E-07
  -4.49999981E-03  -1.43557344E-07
  -4.44999989E-03  -1.47086396E-07
  -4.39999998E-03  -1.50695200E-07
  -4.35000006E-03  -1.54385063E-07
  -4.30000015E-03  -1.58157491E-07
  -4.25000023E-03  -1.62014217E-07
  -4.19999985E-03  -1.65957132E-07
  -4.14999994E-03  -1.69988212E-07
  -4.10000002E-03  -1.74109317E-07
  -4.05000011E-03  -1.78322139E-07
  -4.00000019E-03  -1.82628199E-07
  -3.94999981E-03  -1.87028917E-07
  -3.89999989E-03  -1.91525743E-07
  -3.84999998E-03  -1.96120325E-07
  -3.80000006E-03  -2.00814526E-07
  -3.74999992E-03  -2.05610448E-07
  -3.70000000E-03  -2.10510223E-07
  -3.65000009E-03  -2.15515996E-07
  -3.59999994E-03  -2.20629744E-07
  -3.55000002E-03  -2.25853213E-07
  -3.50000011E-03  -2.31188082E-07
  -3.44999996E-03  -2.36635998E-07
  -3.40000005E-03  -2.42198752E-07
  -3.34999990E-03  -2.47878376E-07
  -3.29999998E-03  -2.53677115E-07
  -3.25000007E-03  -2.59597329E-07
  -3.19999992E-03  -2.65641461E-07
  -3.15000000E-03  -2.71811729E-07
  -3.10000009E-03  -2.78110235E-07
  -3.04999994E-03  -2.84538942E-07
  -3.00000003E-03  -2.91099752E-07
  -2.95000011E-03  -2.97794656E-07
  -2.89999996E-03  -3.04625814E-07
  -2.85000005E-03  -3.11595670E-07
  -2.79999990E-03  -3.18706924E-07
  -2.74999999E-03  -3.25962162E-07
  -2.70000007E-03  -3.33364028E-07
  -2.64999992E-03  -3.40914909E-07
  -2.60000001E-03  -3.48617135E-07
  -2.55000009E-03  -3.56472839E-07
  -2.49999994E-03  -3.64484237E-07
  -2.45000003E-03  -3.72653716E-07
  -2.40000011E-03  -3.80983977E-07
  -2.34999997E-03  -3.89477833E-07
  -2.30000005E-03  -3.98138297E-07
  -2.24999990E-03  -4.06968240E-07
  -2.19999999E-03  -4.15970533E-07
  -2.15000007E-03  -4.25147732E-07
  -2.09999993E-03  -4.34502368E-07
  -2.05000001E-03  -4.44036885E-07
  -2.00000009E-03  -4.53753927E-07
  -1.94999995E-03  -4.63656335E-07
  -1.90000003E-03  -4.73747264E-07
  -1.85000000E-03  -4.84030068E-07
  -1.79999997E-03  -4.94507958E-07
  -1.75000005E-03  -5.05184119E-07
  -1.70000002E-03  -5.16061505E-07
  -1.64999999E-03  -5.27143015E-07
  -1.59999996E-03  -5.38431379E-07
  -1.55000004E-03  -5.49929382E-07
  -1.50000001E-03  -5.61640263E-07
  -1.44999998E-03  -5.73567263E-07
  -1.39999995E-03  -5.85714020E-07
  -1.35000004E-03  -5.98084171E-07
  -1.30000000E-03  -6.10681241E-07
  -1.24999997E-03  -6.23508527E-07
  -1.20000006E-03  -6.36569325E-07
  -1.15000003E-03  -6.49866706E-07
  -1.09999999E-03  -6.63403569E-07
  -1.04999996E-03  -6.77183323E-07
  -1.00000005E-03  -6.91209493E-07
  -9.50000016E-04  -7.05486002E-07
  -8.99999985E-04  -7.20016715E-07
  -8.50000011E-04  -7.34805440E-07
  -7.99999980E-04  -7.49855985E-07
  -7.50000007E-04  -7.65171706E-07
  -6.99999975E-04  -7.80756181E-07
  -6.50000002E-04  -7.96612596E-07
  -6.00000028E-04  -8.12744474E-07
  -5.49999997E-04  -8.29155510E-07
  -5.00000024E-04  -8.45849740E-07
  -4.49999992E-04  -8.62831257E-07
  -3.99999990E-04  -8.80104324E-07
  -3.49999988E-04  -8.97672976E-07
  -3.00000014E-04  -9.15540966E-07
  -2.50000012E-04  -9.33711988E-07
  -1.99999995E-04  -9.52189453E-07
  -1.50000007E-04  -9.70977112E-07
  -9.99999975E-05  -9.90078661E-07
  -4.99999987E-05  -1.00949831E-06
   0.00000000      -1.02924025E-06
   4.99999987E-05  -1.04930893E-06
   9.99999975E-05  -1.06970879E-06
   1.50000007E-04  -1.09044390E-06
   1.99999995E-04  -1.11151792E-06
   2.50000012E-04  -1.13293459E-06
   3.00000014E-04  -1.15469766E-06
   3.49999988E-04  -1.17681077E-06
   3.99999990E-04  -1.19927836E-06
   4.49999992E-04  -1.22210463E-06
   5.00000024E-04  -1.24529424E-06
   5.49999997E-04  -1.26885141E-06
   6.00000028E-04  -1.29278089E-06
   6.50000002E-04  -1.31708646E-06
   6.99999975E-04  -1.34177185E-06
   7.50000007E-04  -1.36684059E-06
   7.99999980E-04  -1.39229689E-06
   8.50000011E-04  -1.41814439E-06
   8.99999985E-04  -1.44438775E-06
   9.50000016E-04  -1.47103128E-06
   1.00000005E-03  -1.49807977E-06
   1.04999996E-03  -1.52553753E-06
   1.09999999E-03  -1.55340888E-06
   1.15000003E-03  -1.58169746E-06
   1.20000006E-03  -1.61040703E-06
   1.24999997E-03  -1.63954110E-06
   1.30000000E-03  -1.66910354E-06
   1.35000004E-03  -1.69909856E-06
   1.39999995E-03  -1.72953037E-06
   1.44999998E-03  -1.76040373E-06
   1.50000001E-03  -1.79172309E-06
   1.55000004E-03  -1.82349277E-06
   1.59999996E-03  -1.85571650E-06
   1.64999999E-03  -1.88839783E-06
   1.70000002E-03  -1.92154016E-06
   1.75000005E-03  -1.95514644E-06
   1.79999997E-03  -1.98922112E-06
   1.85000000E-03  -2.02376782E-06
   1.90000003E-03  -2.05879155E-06
   1.94999995E-03  -2.09429618E-06
   2.00000009E-03  -2.13028602E-06
   2.05000001E-03  -2.16676494E-06
   2.09999993E-03  -2.20373590E-06
   2.15000007E-03  -2.24120163E-06
   2.19999999E-03  -2.27916553E-06
   2.24999990E-03  -2.31763033E-06
   2.30000005E-03  -2.35659968E-06
   2.34999997E-03  -2.39607834E-06
   2.40000011E-03  -2.43607019E-06
   2.45000003E-03  -2.47657908E-06
   2.49999994E-03  -2.51760775E-06
   2.55000009E-03  -2.55915938E-06
   2.60000001E-03  -2.60123625E-06
   2.64999992E-03  -2.64384016E-06
   2.70000007E-03  -2.68697386E-06
   2.74999999E-03  -2.73064120E-06
   2.79999990E-03  -2.77484560E-06