  -3.99999991E-02   0.00000000    
  -3.99499983E-02   0.00000000    
  -3.99000011E-02   0.00000000    
  -3.98500003E-02   0.00000000    
  -3.97999994E-02   7.89633178E-19
  -3.97499986E-02   6.96754661E-18
  -3.97000015E-02   3.08491616E-17
  -3.96500006E-02   8.97309580E-17
  -3.95999998E-02   1.86585013E-16
  -3.95499989E-02   2.75976516E-16
  -3.95000018E-02   2.43106476E-16
  -3.94500010E-02  -5.57112164E-17
  -3.94000001E-02  -6.59615949E-16
  -3.93499993E-02  -1.31251133E-15
  -3.92999984E-02  -1.33695786E-15
  -3.92500013E-02   2.71820999E-16
  -3.92000005E-02   4.45905079E-15
  -3.91499996E-02   1.15551422E-14
  -3.90999988E-02   2.08888574E-14
  -3.90500017E-02   3.09722713E-14
  -3.90000008E-02   4.04543410E-14
  -3.89500000E-02   4.95819172E-14
  -3.88999991E-02   6.14187927E-14
  -3.88499983E-02   8.18929072E-14
  -3.88000011E-02   1.18126456E-13
  -3.87500003E-02   1.75413381E-13
  -3.86999995E-02   2.54229634E-13
  -3.86499986E-02   3.49173083E-13
  -3.86000015E-02   4.51238060E-13
  -3.85500006E-02   5.53301274E-13
  -3.84999998E-02   6.56702232E-13
  -3.84499989E-02   7.75378947E-13
  -3.84000018E-02   9.34194670E-13
  -3.83500010E-02   1.16031208E-12
  -3.83000001E-02   1.47009878E-12
  -3.82499993E-02   1.85739965E-12
  -3.81999984E-02   2.29001410E-12
  -3.81500013E-02   2.71863348E-12
  -3.81000005E-02   3.09685307E-12
  -3.80499996E-02   3.40463465E-12
  -3.79999988E-02   3.66404086E-12
  -3.79500017E-02   3.93761369E-12
  -3.79000008E-02   4.30658590E-12
  -3.78500000E-02   4.83567526E-12
  -3.77999991E-02   5.53911734E-12
  -3.77499983E-02   6.36464015E-12
  -3.77000012E-02   7.20603308E-12
  -3.76500003E-02   7.94247394E-12
  -3.75999995E-02   8.48903066E-12
  -3.75499986E-02   8.83479574E-12
  -3.75000015E-02   9.04794122E-12
  -3.74500006E-02   9.24079389E-12
  -3.73999998E-02   9.50701497E-12
  -3.73499990E-02   9.85811953E-12
  -3.73000018E-02   1.01899791E-11
  -3.72500010E-02   1.02989084E-11
  -3.72000001E-02   9.94567276E-12
  -3.71499993E-02   8.94348311E-12
  -3.70999984E-02   7.23291392E-12
  -3.70500013E-02   4.90971369E-12
  -3.70000005E-02   2.19026099E-12
  -3.69499996E-02  -6.73792998E-13
  -3.68999988E-02  -3.49754297E-12
  -3.68500017E-02  -6.23998336E-12
  -3.68000008E-02  -9.02581655E-12
  -3.67500000E-02  -1.21057019E-11
  -3.66999991E-02  -1.57737694E-11
  -3.66499983E-02  -2.02757255E-11
  -3.66000012E-02  -2.57401930E-11
  -3.65500003E-02  -3.21528464E-11
  -3.64999995E-02  -3.93757700E-11
  -3.64499986E-02  -4.72009098E-11
  -3.64000015E-02  -5.54201719E-11
  -3.63500006E-02  -6.38942718E-11
  -3.62999998E-02  -7.26035065E-11
  -3.62499990E-02  -8.16631762E-11
  -3.62000018E-02  -9.12860273E-11
  -3.61500010E-02  -1.01681059E-10
  -3.61000001E-02  -1.12898260E-10
  -3.60499993E-02  -1.24663418E-10
  -3.59999985E-02  -1.36280445E-10
  -3.59500013E-02  -1.46687246E-10
  -3.59000005E-02  -1.54712604E-10
  -3.58499996E-02  -1.59494473E-10
  -3.57999988E-02  -1.60916419E-10
  -3.57500017E-02  -1.59850494E-10
  -3.57000008E-02  -1.58016239E-10
  -3.56500000E-02  -1.57397095E-10
  -3.55999991E-02  -1.59360830E-10
  -3.55499983E-02  -1.63826508E-10
  -3.55000012E-02  -1.68896286E-10
  -3.54500003E-02  -1.71252651E-10
  -3.53999995E-02  -1.67317202E-10
  -3.53499986E-02  -1.54782645E-10
  -3.53000015E-02  -1.33847169E-10
  -3.52500007E-02  -1.07473176E-10
  -3.51999998E-02  -8.03312555E-11
  -3.51499990E-02  -5.66811251E-11
  -3.51000018E-02  -3.80337671E-11
  -3.50500010E-02  -2.17300726E-11
  -3.50000001E-02  -1.34668817E-12
  -3.49499993E-02   3.08930138E-11
  -3.48999985E-02   8.04972686E-11
  -3.48500013E-02   1.47436036E-10
  -3.48000005E-02   2.24917973E-10
  -3.47499996E-02   3.01219549E-10
  -3.46999988E-02   3.64241526E-10
  -3.46500017E-02   4.07054584E-10
  -3.46000008E-02   4.31893049E-10
  -3.45500000E-02   4.50371351E-10
  -3.44999991E-02   4.79180418E-10
  -3.44499983E-02   5.32623334E-10
  -3.44000012E-02   6.15132167E-10
  -3.43500003E-02   7.17426174E-10
  -3.42999995E-02   8.18766166E-10
  -3.42499986E-02   8.95147123E-10
  -3.42000015E-02   9.30325594E-10
  -3.41500007E-02   9.24701926E-10
  -3.40999998E-02   8.97363572E-10
  -3.40499990E-02   8.79243178E-10
  -3.40000018E-02   8.99395891E-10
  -3.39500010E-02   9.70076131E-10
  -3.39000002E-02   1.07772613E-09
  -3.38499993E-02   1.18513976E-09
  -3.37999985E-02   1.24537392E-09
  -3.37500013E-02   1.22235144E-09
  -3.37000005E-02   1.10914256E-09
  -3.36499996E-02   9.34800459E-10
  -3.35999988E-02   7.54934948E-10
  -3.35500017E-02   6.28429808E-10
  -3.35000008E-02   5.89720217E-10
  -3.34500000E-02   6.29395092E-10
  -3.33999991E-02   6.93500479E-10
  -3.33499983E-02   7.04202363E-10
  -3.33000012E-02   5.94481464E-10
  -3.32500003E-02   3.41867312E-10
  -3.31999995E-02  -1.51485022E-11
  -3.31499986E-02  -3.88011095E-10
  -3.31000015E-02  -6.74348410E-10
  -3.30500007E-02  -8.05169320E-10
  -3.29999998E-02  -7.81663512E-10
  -3.29499990E-02  -6.82755075E-10
  -3.29000019E-02  -6.36415365E-10
  -3.28500010E-02  -7.64309949E-10
  -3.28000002E-02  -1.12319087E-09
  -3.27499993E-02  -1.67060321E-09
  -3.26999985E-02  -2.27387154E-09
  -3.26500013E-02  -2.76271583E-09
  -3.26000005E-02  -3.00506287E-09
  -3.25499997E-02  -2.97238900E-09
  -3.24999988E-02  -2.76240941E-09
  -3.24500017E-02  -2.56394994E-09
  -3.24000008E-02  -2.57485810E-09
  -3.23500000E-02  -2.90730684E-09
  -3.22999991E-02  -3.52433993E-09
  -3.22499983E-02  -4.24102575E-09
  -3.22000012E-02  -4.79616746E-09
  -3.21500003E-02  -4.96752239E-09
  -3.20999995E-02  -4.68012962E-09
  -3.20499986E-02  -4.05569978E-09
  -3.20000015E-02  -3.37394157E-09
  -3.19500007E-02  -2.95568303E-09
  -3.18999998E-02  -3.01562109E-09
  -3.18499990E-02  -3.55138319E-09
  -3.18000019E-02  -4.32458513E-09
  -3.17500010E-02  -4.95117236E-09
  -3.17000002E-02  -5.06826003E-09
  -3.16499993E-02  -4.50565230E-09
  -3.15999985E-02  -3.38164807E-09
  -3.15500014E-02  -2.07143591E-09
  -3.15000005E-02  -1.05201980E-09
  -3.14499997E-02  -6.86163848E-10
  -3.13999988E-02  -1.04195175E-09
  -3.13500017E-02  -1.83596693E-09
  -3.13000008E-02  -2.53724242E-09
  -3.12500000E-02  -2.59651767E-09
  -3.11999992E-02  -1.70341052E-09
  -3.11500002E-02   4.70398477E-11
  -3.10999993E-02   2.16408114E-09
  -3.10500003E-02   3.95691968E-09
  -3.09999995E-02   4.83955187E-09
  -3.09500005E-02   4.61062832E-09
  -3.08999997E-02   3.57543639E-09
  -3.08500007E-02   2.44073628E-09
  -3.07999998E-02   2.01427985E-09
  -3.07500008E-02   2.83478530E-09
  -3.07000000E-02   4.90009766E-09
  -3.06499992E-02   7.62788588E-09
  -3.06000002E-02   1.00843316E-08
  -3.05499993E-02   1.13934906E-08
  -3.05000003E-02   1.11491127E-08
  -3.04499995E-02   9.63663283E-09
  -3.04000005E-02   7.74797382E-09
  -3.03499997E-02   6.60691546E-09
  -3.03000007E-02   7.05924652E-09
  -3.02499998E-02   9.25594446E-09
  -3.02000009E-02   1.25302071E-08
  -3.01500000E-02   1.56461155E-08
  -3.00999992E-02   1.73288814E-08
  -3.00500002E-02   1.68493663E-08
  -2.99999993E-02   1.43949519E-08
  -2.99500003E-02   1.10402940E-08
  -2.98999995E-02   8.30526403E-09
  -2.98500005E-02   7.47837525E-09
  -2.97999997E-02   9.00458019E-09
  -2.97500007E-02   1.22255761E-08
  -2.96999998E-02   1.56154911E-08
  -2.96500009E-02   1.74338073E-08
  -2.96000000E-02   1.65188236E-08
  -2.95499992E-02   1.28625439E-08
  -2.95000002E-02   7.68694086E-09
  -2.94499993E-02   2.95560598E-09
  -2.94000003E-02   5.12414500E-10
  -2.93499995E-02   1.22320509E-09
  -2.93000005E-02   4.51767379E-09
  -2.92499997E-02   8.56713278E-09
  -2.92000007E-02   1.10535163E-08
  -2.91499998E-02   1.02090212E-08
  -2.91000009E-02   5.66214675E-09
  -2.90500000E-02  -1.31128708E-09
  -2.89999992E-02  -8.28157010E-09
  -2.89500002E-02  -1.27171349E-08
  -2.88999993E-02  -1.31411246E-08
  -2.88500004E-02  -9.86508208E-09
  -2.87999995E-02  -4.93852026E-09
  -2.87500005E-02  -1.29496081E-09
  -2.86999997E-02  -1.44453904E-09
  -2.86500007E-02  -6.29115204E-09
  -2.85999998E-02  -1.46254999E-08
  -2.85500009E-02  -2.35634463E-08
  -2.85000000E-02  -2.97779330E-08
  -2.84499992E-02  -3.09995087E-08
  -2.84000002E-02  -2.71097615E-08
  -2.83499993E-02  -2.03041921E-08
  -2.83000004E-02  -1.42021825E-08
  -2.82499995E-02  -1.22591448E-08
  -2.82000005E-02  -1.61742157E-08
  -2.81499997E-02  -2.50233931E-08
  -2.81000007E-02  -3.55510856E-08
  -2.80499998E-02  -4.35428014E-08
  -2.80000009E-02  -4.57022544E-08
  -2.79500000E-02  -4.11972714E-08
  -2.78999992E-02  -3.21508864E-08
  -2.78500002E-02  -2.28032420E-08
  -2.77999993E-02  -1.76657480E-08
  -2.77500004E-02  -1.94655208E-08
  -2.76999995E-02  -2.78108647E-08
  -2.76500005E-02  -3.92213799E-08
  -2.75999997E-02  -4.85713159E-08
  -2.75500007E-02  -5.13507885E-08
  -2.74999999E-02  -4.57489371E-08
  -2.74500009E-02  -3.35999566E-08
  -2.74000000E-02  -1.97101677E-08
  -2.73499992E-02  -9.80196102E-09
  -2.73000002E-02  -7.95215715E-09
  -2.72499993E-02  -1.46704515E-08
  -2.72000004E-02  -2.65206026E-08
  -2.71499995E-02  -3.75217724E-08
  -2.71000005E-02  -4.17659329E-08
  -2.70499997E-02  -3.61098067E-08
  -2.70000007E-02  -2.17188951E-08
  -2.69499999E-02  -3.71381592E-09
  -2.69000009E-02   1.09971259E-08
  -2.68500000E-02   1.67861813E-08
  -2.67999992E-02   1.19158470E-08
  -2.67500002E-02  -5.15262222E-10
  -2.66999993E-02  -1.37865150E-08
  -2.66500004E-02  -2.04630375E-08
  -2.65999995E-02  -1.57429252E-08
  -2.65500005E-02   2.58659538E-10
  -2.64999997E-02   2.23662635E-08
  -2.64500007E-02   4.24886473E-08
  -2.63999999E-02   5.31655076E-08
  -2.63500009E-02   5.09613294E-08
  -2.63000000E-02   3.81626570E-08
  -2.62499992E-02   2.19472280E-08
  -2.62000002E-02   1.13085141E-08
  -2.61499994E-02   1.30467468E-08
  -2.61000004E-02   2.86076993E-08
  -2.60499995E-02   5.32305364E-08
  -2.60000005E-02   7.78727625E-08
  -2.59499997E-02   9.31397821E-08
  -2.59000007E-02   9.35125044E-08
  -2.58499999E-02   7.99715068E-08
  -2.58000009E-02   5.97756653E-08
  -2.57500000E-02   4.33964189E-08
  -2.56999992E-02   3.98946405E-08
  -2.56500002E-02   5.27744497E-08
  -2.55999994E-02   7.82018503E-08
  -2.55500004E-02   1.06471553E-07
  -2.54999995E-02   1.26168885E-07
  -2.54500005E-02   1.29238941E-07
  -2.53999997E-02   1.14707440E-07
  -2.53500007E-02   8.93322962E-08
  -2.52999999E-02   6.47933618E-08
  -2.52500009E-02   5.25760129E-08
  -2.52000000E-02   5.87805324E-08
  -2.51499992E-02   8.11935763E-08
  -2.51000002E-02   1.10012365E-07
  -2.50499994E-02   1.32010413E-07
  -2.50000004E-02   1.36377054E-07
  -2.49499995E-02   1.19654047E-07
  -2.49000005E-02   8.75197017E-08
  -2.48499997E-02   5.25198445E-08
  -2.48000007E-02   2.86420576E-08
  -2.47499999E-02   2.50757406E-08
  -2.47000009E-02   4.19383746E-08
  -2.46500000E-02   6.99476459E-08
  -2.45999992E-02   9.43043972E-08
  -2.45500002E-02   1.01167437E-07
  -2.44999994E-02   8.38889207E-08
  -2.44500004E-02   4.62037448E-08
  -2.43999995E-02   8.52620863E-10
  -2.43500005E-02  -3.58745567E-08
  -2.42999997E-02  -5.13434699E-08
  -2.42500007E-02  -4.23447091E-08
  -2.41999999E-02  -1.67976353E-08
  -2.41500009E-02   9.49147427E-09
  -2.41000000E-02   1.97030268E-08
  -2.40499992E-02   3.52974983E-09
  -2.40000002E-02  -3.80017298E-08
  -2.39499994E-02  -9.26502040E-08
  -2.39000004E-02  -1.42104113E-07
  -2.38499995E-02  -1.69985057E-07
  -2.38000005E-02  -1.69204228E-07
  -2.37499997E-02  -1.45360147E-07
  -2.37000007E-02  -1.14549493E-07
  -2.36499999E-02  -9.64210898E-08
  -2.36000009E-02  -1.05455420E-07
  -2.35500000E-02  -1.44326080E-07
  -2.34999992E-02  -2.02368426E-07
  -2.34500002E-02  -2.59974740E-07
  -2.33999994E-02  -2.97103043E-07
  -2.33500004E-02  -3.02199254E-07
  -2.32999995E-02  -2.77550669E-07
  -2.32500006E-02  -2.38583738E-07
  -2.31999997E-02  -2.07264790E-07
  -2.31500007E-02  -2.02404095E-07
  -2.30999999E-02  -2.31121831E-07
  -2.30500009E-02  -2.85321704E-07
  -2.30000000E-02  -3.44876128E-07
  -2.29499992E-02  -3.86268624E-07
  -2.29000002E-02  -3.92967422E-07
  -2.28499994E-02  -3.62937470E-07
  -2.28000004E-02  -3.09864220E-07
  -2.27499995E-02  -2.57387995E-07
  -2.27000006E-02  -2.28755681E-07
  -2.26499997E-02  -2.36401092E-07
  -2.26000007E-02  -2.76108125E-07
  -2.25499999E-02  -3.28473419E-07
  -2.25000009E-02  -3.67189671E-07
  -2.24500000E-02  -3.70611303E-07
  -2.23999992E-02  -3.31513235E-07
  -2.23500002E-02  -2.60641428E-07
  -2.22999994E-02  -1.82323205E-07
  -2.22500004E-02  -1.23910539E-07
  -2.21999995E-02  -1.03627578E-07
  -2.21500006E-02  -1.22212128E-07
  -2.20999997E-02  -1.62167623E-07
  -2.20500007E-02  -1.95135968E-07
  -2.19999999E-02  -1.94285818E-07
  -2.19500009E-02  -1.46301346E-07
  -2.19000001E-02  -5.76132990E-08
  -2.18499992E-02   4.80336126E-08
  -2.18000002E-02   1.39781704E-07
  -2.17499994E-02   1.93247445E-07
  -2.17000004E-02   2.01504491E-07
  -2.16499995E-02   1.78506369E-07
  -2.16000006E-02   1.53259492E-07
  -2.15499997E-02   1.57150041E-07
  -2.15000007E-02   2.09934015E-07
  -2.14499999E-02   3.10614269E-07
  -2.14000009E-02   4.37377508E-07
  -2.13500001E-02   5.56807436E-07
  -2.12999992E-02   6.38458857E-07
  -2.12500002E-02   6.68401071E-07
  -2.11999994E-02   6.55668316E-07
  -2.11500004E-02   6.28598343E-07
  -2.10999995E-02   6.22486823E-07
  -2.10500006E-02   6.63890489E-07
  -2.09999997E-02   7.58511590E-07
  -2.09500007E-02   8.88135446E-07
  -2.08999999E-02   1.01815976E-06
  -2.08500009E-02   1.11256293E-06
  -2.08000001E-02   1.14977672E-06
  -2.07499992E-02   1.13240492E-06
  -2.07000002E-02   1.08633799E-06
  -2.06499994E-02   1.04946412E-06
  -2.06000004E-02   1.05481706E-06
  -2.05499995E-02   1.11557745E-06
  -2.05000006E-02   1.21864673E-06
  -2.04499997E-02   1.32981870E-06
  -2.04000007E-02   1.40845225E-06
  -2.03499999E-02   1.42527495E-06
  -2.03000009E-02   1.37543930E-06
  -2.02500001E-02   1.28093052E-06
  -2.01999992E-02   1.18107118E-06
  -2.01500002E-02   1.11515021E-06
  -2.00999994E-02   1.10478152E-06
  -2.00500004E-02   1.14384397E-06
  -1.99999996E-02   1.20061020E-06
  -1.99500006E-02   1.23130644E-06
  -1.98999997E-02   1.19924698E-06
  -1.98500007E-02   1.09110636E-06
  -1.97999999E-02   9.23038613E-07
  -1.97500009E-02   7.33765091E-07
  -1.97000001E-02   5.67508209E-07
  -1.96499992E-02   4.54227063E-07
  -1.96000002E-02   3.95916175E-07
  -1.95499994E-02   3.65161981E-07
  -1.95000004E-02   3.16780586E-07
  -1.94499996E-02   2.07541575E-07
  -1.94000006E-02   1.53150719E-08
  -1.93499997E-02  -2.50885194E-07
  -1.93000007E-02  -5.54557460E-07
  -1.92499999E-02  -8.47629167E-07
  -1.92000009E-02  -1.09171413E-06
  -1.91500001E-02  -1.27531325E-06
  -1.90999992E-02  -1.41926466E-06
  -1.90500002E-02  -1.56787371E-06
  -1.89999994E-02  -1.76948811E-06
  -1.89500004E-02  -2.05503693E-06
  -1.88999996E-02  -2.42405667E-06
  -1.88500006E-02  -2.84450834E-06
  -1.87999997E-02  -3.26662916E-06
  -1.87500007E-02  -3.64481480E-06
  -1.86999999E-02  -3.95788857E-06
  -1.86500009E-02  -4.21872528E-06
  -1.86000001E-02  -4.46883450E-06
  -1.85499992E-02  -4.76014429E-06
  -1.85000002E-02  -5.13195073E-06
  -1.84499994E-02  -5.59322825E-06
  -1.84000004E-02  -6.11820769E-06
  -1.83499996E-02  -6.65732432E-06
  -1.83000006E-02  -7.15881606E-06
  -1.82499997E-02  -7.59148361E-06
  -1.82000007E-02  -7.95851247E-06
  -1.81499999E-02  -8.29615237E-06
  -1.81000009E-02  -8.65770471E-06
  -1.80500001E-02  -9.08982111E-06
  -1.79999992E-02  -9.61156820E-06
  -1.79500002E-02  -1.02055719E-05
  -1.78999994E-02  -1.08252734E-05
  -1.78500004E-02  -1.14151935E-05
  -1.77999996E-02  -1.19352990E-05
  -1.77500006E-02  -1.23786949E-05
  -1.76999997E-02  -1.27747417E-05
  -1.76500008E-02  -1.31761390E-05
  -1.75999999E-02  -1.36355802E-05
  -1.75500009E-02  -1.41822402E-05
  -1.75000001E-02  -1.48085610E-05
  -1.74499992E-02  -1.54732315E-05
  -1.74000002E-02  -1.61191165E-05
  -1.73499994E-02  -1.66982772E-05
  -1.73000004E-02  -1.71930278E-05
  -1.72499996E-02  -1.76237190E-05
  -1.72000006E-02  -1.80396855E-05
  -1.71499997E-02  -1.84974015E-05
  -1.71000008E-02  -1.90353858E-05
  -1.70499999E-02  -1.96569890E-05
  -1.70000009E-02  -2.03287309E-05
  -1.69500001E-02  -2.09949594E-05
  -1.68999992E-02  -2.16023764E-05
  -1.68500002E-02  -2.21236423E-05
  -1.67999994E-02  -2.25695712E-05
  -1.67500004E-02  -2.29845409E-05
  -1.66999996E-02  -2.34270719E-05
  -1.66500006E-02  -2.39441652E-05
  -1.65999997E-02  -2.45506544E-05
  -1.65500008E-02  -2.52228056E-05
  -1.64999999E-02  -2.59088938E-05
  -1.64500009E-02  -2.65521739E-05
  -1.64000001E-02  -2.71161316E-05
  -1.63499992E-02  -2.76007377E-05
  -1.63000003E-02  -2.80427030E-05
  -1.62499994E-02  -2.84995713E-05
  -1.62000004E-02  -2.90246098E-05
  -1.61499996E-02  -2.96436792E-05
  -1.61000006E-02  -3.03442375E-05
  -1.60499997E-02  -3.10813266E-05
  -1.60000008E-02  -3.17978956E-05
  -1.59499999E-02  -3.24504435E-05
  -1.59000009E-02  -3.30285875E-05
  -1.58500001E-02  -3.35601435E-05
  -1.57999992E-02  -3.40994266E-05
  -1.57500003E-02  -3.47037967E-05
  -1.56999994E-02  -3.54090880E-05
  -1.56500004E-02  -3.62145693E-05
  -1.55999996E-02  -3.70840353E-05
  -1.55499997E-02  -3.79623671E-05
  -1.54999997E-02  -3.88003900E-05
  -1.54499998E-02  -3.95770658E-05
  -1.53999999E-02  -4.03091944E-05
  -1.53500000E-02  -4.10444300E-05
  -1.53000001E-02  -4.18408272E-05
  -1.52500002E-02  -4.27419800E-05
  -1.52000003E-02  -4.37587078E-05
  -1.51500003E-02  -4.48652463E-05
  -1.51000004E-02  -4.60114024E-05
  -1.50499996E-02  -4.71455241E-05
  -1.49999997E-02  -4.82379473E-05
  -1.49499997E-02  -4.92946056E-05
  -1.48999998E-02  -5.03550109E-05
  -1.48499999E-02  -5.14754429E-05
  -1.48000000E-02  -5.27051016E-05
  -1.47500001E-02  -5.40654582E-05
  -1.47000002E-02  -5.55418119E-05
  -1.46500003E-02  -5.70908778E-05
  -1.46000003E-02  -5.86606438E-05
  -1.45500004E-02  -6.02137698E-05
  -1.44999996E-02  -6.17444312E-05
  -1.44499997E-02  -6.32812007E-05
  -1.43999998E-02  -6.48749410E-05
  -1.43499998E-02  -6.65769767E-05
  -1.42999999E-02  -6.84173283E-05
  -1.42500000E-02  -7.03926708E-05
  -1.42000001E-02  -7.24688653E-05
  -1.41500002E-02  -7.45966099E-05
  -1.41000003E-02  -7.67338934E-05
  -1.40500003E-02  -7.88648831E-05
  -1.40000004E-02  -8.10069614E-05
  -1.39499996E-02  -8.32035876E-05
  -1.38999997E-02  -8.55057515E-05
  -1.38499998E-02  -8.79505242E-05
  -1.37999998E-02  -9.05456836E-05
  -1.37499999E-02  -9.32674229E-05
  -1.37000000E-02  -9.60718826E-05
  -1.36500001E-02  -9.89147156E-05
  -1.36000002E-02  -1.01770922E-04
  -1.35500003E-02  -1.04645806E-04
  -1.35000004E-02  -1.07572698E-04
  -1.34500004E-02  -1.10598441E-04
  -1.33999996E-02  -1.13763512E-04
  -1.33499997E-02  -1.17085314E-04
  -1.32999998E-02  -1.20551522E-04
  -1.32499998E-02  -1.24126484E-04
  -1.31999999E-02  -1.27767358E-04
  -1.31500000E-02  -1.31443463E-04
  -1.31000001E-02  -1.35149734E-04
  -1.30500002E-02  -1.38908988E-04
  -1.30000003E-02  -1.42762306E-04
  -1.29500004E-02  -1.46751656E-04
  -1.29000004E-02  -1.50902633E-04
  -1.28499996E-02  -1.55214555E-04
  -1.27999997E-02  -1.59661606E-04
  -1.27499998E-02  -1.64205267E-04
  -1.26999998E-02  -1.68811574E-04
  -1.26499999E-02  -1.73465713E-04
  -1.26000000E-02  -1.78178787E-04
  -1.25500001E-02  -1.82982782E-04
  -1.25000002E-02  -1.87917525E-04
  -1.24500003E-02  -1.93014494E-04
  -1.24000004E-02  -1.98283771E-04
  -1.23500004E-02  -2.03711024E-04
  -1.22999996E-02  -2.09265083E-04
  -1.22499997E-02  -2.14911794E-04
  -1.21999998E-02  -2.20629503E-04
  -1.21499998E-02  -2.26419012E-04
  -1.20999999E-02  -2.32303428E-04
  -1.20500000E-02  -2.38318884E-04
  -1.20000001E-02  -2.44500261E-04
  -1.19500002E-02  -2.50867917E-04
  -1.19000003E-02  -2.57420994E-04
  -1.18500004E-02  -2.64139235E-04
  -1.18000004E-02  -2.70992430E-04
  -1.17499996E-02  -2.77955172E-04
  -1.16999997E-02  -2.85018818E-04
  -1.16499998E-02  -2.92195095E-04
  -1.15999999E-02  -2.99512409E-04
  -1.15499999E-02  -3.07004899E-04
  -1.15000000E-02  -3.14698875E-04
  -1.14500001E-02  -3.22604377E-04
  -1.14000002E-02  -3.30711919E-04
  -1.13500003E-02  -3.38997721E-04
  -1.13000004E-02  -3.47436173E-04
  -1.12500004E-02  -3.56011500E-04
  -1.11999996E-02  -3.64725973E-04
  -1.11499997E-02  -3.73600225E-04
  -1.10999998E-02  -3.82666796E-04
  -1.10499999E-02  -3.91959038E-04
  -1.09999999E-02  -4.01499099E-04
  -1.09500000E-02  -4.11291694E-04
  -1.09000001E-02  -4.21323901E-04
  -1.08500002E-02  -4.31572465E-04
  -1.08000003E-02  -4.42015211E-04
  -1.07500004E-02  -4.52641951E-04
  -1.07000005E-02  -4.63460310E-04
  -1.06499996E-02  -4.74493805E-04
  -1.05999997E-02  -4.85774595E-04
  -1.05499998E-02  -4.97332774E-04
  -1.04999999E-02  -5.09184203E-04
  -1.04499999E-02  -5.21326729E-04
  -1.04000000E-02  -5.33742888E-04
  -1.03500001E-02  -5.46408410E-04
  -1.03000002E-02  -5.59305714E-04
  -1.02500003E-02  -5.72433986E-04
  -1.02000004E-02  -5.85811504E-04
  -1.01500005E-02  -5.99471445E-04
  -1.00999996E-02  -6.13450888E-04
  -1.00499997E-02  -6.27778179E-04
  -9.99999978E-03  -6.42462866E-04
  -9.94999986E-03  -6.57496217E-04
  -9.89999995E-03  -6.72855647E-04
  -9.85000003E-03  -6.88517001E-04
  -9.80000012E-03  -7.04466307E-04
  -9.75000020E-03  -7.20709155E-04
  -9.70000029E-03  -7.37272203E-04
  -9.65000037E-03  -7.54192239E-04
  -9.60000046E-03  -7.71505409E-04
  -9.54999961E-03  -7.89233542E-04
  -9.49999969E-03  -8.07376171E-04
  -9.44999978E-03  -8.25912808E-04
  -9.39999986E-03  -8.44811788E-04
  -9.34999995E-03  -8.64047324E-04
  -9.30000003E-03  -8.83614062E-04
  -9.25000012E-03  -9.03532549E-04
  -9.20000020E-03  -9.23843705E-04
  -9.15000029E-03  -9.44595318E-04
  -9.10000037E-03  -9.65824467E-04
  -9.05000046E-03  -9.87544190E-04
  -8.99999961E-03  -1.00973994E-03
  -8.94999970E-03  -1.03238132E-03
  -8.89999978E-03  -1.05543667E-03
  -8.84999987E-03  -1.07888877E-03
  -8.79999995E-03  -1.10275100E-03
  -8.75000004E-03  -1.12706027E-03
  -8.70000012E-03  -1.15186581E-03
  -8.65000021E-03  -1.17721281E-03
  -8.60000029E-03  -1.20312255E-03
  -8.55000038E-03  -1.22958666E-03
  -8.50000046E-03  -1.25657255E-03
  -8.44999962E-03  -1.28403807E-03
  -8.39999970E-03  -1.31195411E-03
  -8.34999979E-03  -1.34032033E-03
  -8.29999987E-03  -1.36917003E-03
  -8.24999996E-03  -1.39855570E-03
  -8.20000004E-03  -1.42853218E-03
  -8.15000013E-03  -1.45913684E-03
  -8.10000021E-03  -1.49037363E-03
  -8.05000030E-03  -1.52221567E-03
  -8.00000038E-03  -1.55461940E-03
  -7.95000046E-03  -1.58754701E-03
  -7.89999962E-03  -1.62098894E-03
  -7.84999970E-03  -1.65497360E-03
  -7.79999979E-03  -1.68955827E-03
  -7.74999987E-03  -1.72480824E-03
  -7.69999996E-03  -1.76077383E-03
  -7.65000004E-03  -1.79747096E-03
  -7.60000013E-03  -1.83487486E-03
  -7.55000021E-03  -1.87293545E-03
  -7.49999983E-03  -1.91160035E-03
  -7.44999992E-03  -1.95084291E-03
  -7.40000000E-03  -1.99067662E-03
  -7.35000009E-03  -2.03115819E-03
  -7.30000017E-03  -2.07236782E-03
  -7.24999979E-03  -2.11436930E-03
  -7.19999988E-03  -2.15719035E-03
  -7.14999996E-03  -2.20081094E-03
  -7.10000005E-03  -2.24517402E-03
  -7.05000013E-03  -2.29021884E-03
  -7.00000022E-03  -2.33590789E-03
  -6.94999984E-03  -2.38224701E-03
  -6.89999992E-03  -2.42929254E-03
  -6.85000001E-03  -2.47713202E-03
  -6.80000009E-03  -2.52584787E-03
  -6.75000018E-03  -2.57548178E-03
  -6.69999979E-03  -2.62602395E-03
  -6.64999988E-03  -2.67742085E-03
  -6.59999996E-03  -2.72960169E-03
  -6.55000005E-03  -2.78251478E-03
  -6.50000013E-03  -2.83615547E-03
  -6.45000022E-03  -2.89057218E-03
  -6.39999984E-03  -2.94585642E-03
  -6.34999992E-03  -3.00210388E-03
  -6.30000001E-03  -3.05937114E-03
  -6.25000009E-03  -3.11765610E-03
  -6.20000018E-03  -3.17689637E-03
  -6.14999980E-03  -3.23700602E-03
  -6.09999988E-03  -3.29791661E-03
  -6.04999997E-03  -3.35961371E-03
  -6.00000005E-03  -3.42214946E-03
  -5.95000014E-03  -3.48560908E-03
  -5.90000022E-03  -3.55008920E-03
  -5.84999984E-03  -3.61566478E-03
  -5.79999993E-03  -3.68234306E-03
  -5.75000001E-03  -3.75007489E-03
  -5.70000010E-03  -3.81878274E-03
  -5.65000018E-03  -3.88838211E-03
  -5.59999980E-03  -3.95882688E-03
  -5.54999989E-03  -4.03015036E-03
  -5.49999997E-03  -4.10245685E-03
  -5.45000006E-03  -4.17586416E-03
  -5.40000014E-03  -4.25044866E-03
  -5.35000023E-03  -4.32623085E-03
  -5.29999984E-03  -4.40316042E-03
  -5.24999993E-03  -4.48114146E-03
  -5.20000001E-03  -4.56008408E-03
  -5.15000010E-03  -4.63994220E-03
  -5.10000018E-03  -4.72074142E-03
  -5.04999980E-03  -4.80255485E-03
  -4.99999989E-03  -4.88549424E-03
  -4.94999997E-03  -4.96965833E-03
  -4.90000006E-03  -5.05507924E-03
  -4.85000014E-03  -5.14171552E-03
  -4.80000023E-03  -5.22946939E-03
  -4.74999985E-03  -5.31822303E-03
  -4.69999993E-03  -5.40791359E-03
  -4.65000002E-03  -5.49856154E-03
  -4.60000010E-03  -5.59024559E-03
  -4.55000019E-03  -5.68308588E-03
  -4.49999981E-03  -5.77719044E-03
  -4.44999989E-03  -5.87261142E-03
  -4.39999998E-03  -5.96931158E-03
  -4.35000006E-03  -6.06718380E-03
  -4.30000015E-03  -6.16611028E-03
  -4.25000023E-03  -6.26599789E-03
  -4.19999985E-03  -6.36684010E-03
  -4.14999994E-03  -6.46871887E-03
  -4.10000002E-03  -6.57175807E-03
  -4.05000011E-03  -6.67609274E-03
  -4.00000019E-03  -6.78179367E-03
  -3.94999981E-03  -6.88882219E-03
  -3.89999989E-03  -6.99706236E-03
  -3.84999998E-03  -7.10635260E-03
  -3.80000006E-03  -7.21657369E-03
  -3.74999992E-03  -7.32770562E-03
  -3.70000000E-03  -7.43981777E-03
  -3.65000009E-03  -7.55305914E-03
  -3.59999994E-03  -7.66757363E-03
  -3.55000002E-03  -7.78343668E-03
  -3.50000011E-03  -7.90062733E-03
  -3.44999996E-03  -8.01904406E-03
  -3.40000005E-03  -8.13852903E-03
  -3.34999990E-03  -8.25894717E-03
  -3.29999998E-03  -8.38024262E-03
  -3.25000007E-03  -8.50244518E-03
  -3.19999992E-03  -8.62570293E-03
  -3.15000000E-03  -8.75019189E-03
  -3.10000009E-03  -8.87603685E-03
  -3.04999994E-03  -9.00323410E-03
  -3.00000003E-03  -9.13166348E-03
  -2.95000011E-03  -9.26113222E-03
  -2.89999996E-03  -9.39145591E-03
  -2.85000005E-03  -9.52255819E-03
  -2.79999990E-03  -9.65446327E-03
  -2.74999999E-03  -9.78731550E-03
  -2.70000007E-03  -9.92130116E-03
  -2.64999992E-03  -1.00565627E-02
  -2.60000001E-03  -1.01931244E-02
  -2.55000009E-03  -1.03308661E-02
  -2.49999994E-03  -1.04696099E-02
  -2.45000003E-03  -1.06091648E-02
  -2.40000011E-03  -1.07493876E-02
  -2.34999997E-03  -1.08902529E-02
  -2.30000005E-03  -1.10318875E-02
  -2.24999990E-03  -1.11745074E-02
  -2.19999999E-03  -1.13183018E-02
  -2.15000007E-03  -1.14633301E-02
  -2.09999993E-03  -1.16095245E-02
  -2.05000001E-03  -1.17566660E-02
  -2.00000009E-03  -1.19044948E-02
  -1.94999995E-03  -1.20528294E-02
  -1.90000003E-03  -1.22015895E-02
  -1.85000000E-03  -1.23508843E-02
  -1.79999997E-03  -1.25009771E-02
  -1.75000005E-03  -1.26520870E-02
  -1.70000002E-03  -1.28043042E-02
  -1.64999999E-03  -1.29575832E-02
  -1.59999996E-03  -1.31117003E-02
  -1.55000004E-03  -1.32663297E-02
  -1.50000001E-03  -1.34212151E-02
  -1.44999998E-03  -1.35762589E-02
  -1.39999995E-03  -1.37315616E-02
  -1.35000004E-03  -1.38873952E-02
  -1.30000000E-03  -1.40440315E-02
  -1.24999997E-03  -1.42016141E-02
  -1.20000006E-03  -1.43600935E-02
  -1.15000003E-03  -1.45192239E-02
  -1.09999999E-03  -1.46786235E-02
  -1.04999996E-03  -1.48379588E-02
  -1.00000005E-03  -1.49970576E-02
  -9.50000016E-04  -1.51560279E-02
  -8.99999985E-04  -1.53151993E-02
  -8.50000011E-04  -1.54748764E-02
  -7.99999980E-04  -1.56352725E-02
  -7.50000007E-04  -1.57963689E-02
  -6.99999975E-04  -1.59578994E-02
  -6.50000002E-04  -1.61194373E-02
  -6.00000028E-04  -1.62805505E-02
  -5.49999997E-04  -1.64409969E-02
  -5.00000024E-04  -1.66008789E-02
  -4.49999992E-04  -1.67605039E-02
  -3.99999990E-04  -1.69201829E-02
  -3.49999988E-04  -1.70801878E-02
  -3.00000014E-04  -1.72405746E-02
  -2.50000012E-04  -1.74010806E-02
  -1.99999995E-04  -1.75612625E-02
  -1.50000007E-04  -1.77206714E-02
  -9.99999975E-05  -1.78789701E-02
  -4.99999987E-05  -1.80360582E-02
   0.00000000      -1.81921609E-02
   4.99999987E-05  -1.83477737E-02
   9.99999975E-05  -1.85032338E-02
   1.50000007E-04  -1.86586417E-02
   1.99999995E-04  -1.88138317E-02
   2.50000012E-04  -1.89683437E-02
   3.00000014E-04  -1.91216338E-02
   3.49999988E-04  -1.92732587E-02
   3.99999990E-04  -1.94231160E-02
   4.49999992E-04  -1.95714235E-02
   5.00000024E-04  -1.97185390E-02
   5.49999997E-04  -1.98648553E-02
   6.00000028E-04  -2.00105589E-02
   6.50000002E-04  -2.01555043E-02
   6.99999975E-04  -2.02992912E-02
   7.50000007E-04  -2.04413552E-02
   7.99999980E-04  -2.05811244E-02
   8.50000011E-04  -2.07183193E-02
   8.99999985E-04  -2.08531059E-02
   9.50000016E-04  -2.09859107E-02
   1.00000005E-03  -2.11172290E-02
   1.04999996E-03  -2.12473236E-02
   1.09999999E-03  -2.13761386E-02
   1.15000003E-03  -2.15032790E-02
   1.20000006E-03  -2.16280632E-02
   1.24999997E-03  -2.17498485E-02
   1.30000000E-03  -2.18683146E-02
   1.35000004E-03  -2.19834875E-02
   1.39999995E-03  -2.20957939E-02
   1.44999998E-03  -2.22057551E-02
   1.50000001E-03  -2.23136842E-02
   1.55000004E-03  -2.24196967E-02
   1.59999996E-03  -2.25233939E-02
   1.64999999E-03  -2.26240326E-02
   1.70000002E-03  -2.27209013E-02
   1.75000005E-03  -2.28135400E-02
   1.79999997E-03  -2.29019541E-02
   1.85000000E-03  -2.29865313E-02
   1.90000003E-03  -2.30677836E-02
   1.94999995E-03  -2.31462251E-02
   2.00000009E-03  -2.32219920E-02
   2.05000001E-03  -2.32946835E-02
   2.09999993E-03  -2.33635921E-02
   2.15000007E-03  -2.34279297E-02
   2.19999999E-03  -2.34870445E-02
   2.24999990E-03  -2.35407818E-02
   2.30000005E-03  -2.35895459E-02
   2.34999997E-03  -2.36340053E-02
   2.40000011E-03  -2.36746836E-02
   2.45000003E-03  -2.37117503E-02
   2.49999994E-03  -2.37449706E-02
   2.55000009E-03  -2.37735845E-02
   2.60000001E-03  -2.37966850E-02
   2.64999992E-03  -2.38136221E-02
   2.70000007E-03  -2.38242131E-02
   2.74999999E-03  -2.38286499E-02
   2.79999990E-03  -2.38275155E-02