  -3.99999991E-02   0.00000000    
  -3.99499983E-02   0.00000000    
  -3.99000011E-02   0.00000000    
  -3.98500003E-02   1.37648466E-16
  -3.97999994E-02   7.43195814E-16
  -3.97499986E-02   1.80124013E-15
  -3.97000015E-02   2.37591873E-15
  -3.96500006E-02   1.26288504E-15
  -3.95999998E-02  -1.52326742E-15
  -3.95499989E-02  -4.75679515E-15
  -3.95000018E-02  -8.05549847E-15
  -3.94500010E-02  -1.22523460E-14
  -3.94000001E-02  -1.45430797E-14
  -3.93499993E-02  -2.28086427E-15
  -3.92999984E-02   4.47504243E-14
  -3.92500013E-02   1.40153256E-13
  -3.92000005E-02   2.76558697E-13
  -3.91499996E-02   4.28390613E-13
  -3.90999988E-02   5.73979124E-13
  -3.90500017E-02   7.17866521E-13
  -3.90000008E-02   8.92424914E-13
  -3.89500000E-02   1.14037859E-12
  -3.88999991E-02   1.49971637E-12
  -3.88499983E-02   2.00367891E-12
  -3.88000011E-02   2.68200674E-12
  -3.87500003E-02   3.54364021E-12
  -3.86999995E-02   4.55063201E-12
  -3.86499986E-02   5.62279260E-12
  -3.86000015E-02   6.69552825E-12
  -3.85500006E-02   7.79520892E-12
  -3.84999998E-02   9.06098807E-12
  -3.84499989E-02   1.06793142E-11
  -3.84000018E-02   1.27765810E-11
  -3.83500010E-02   1.53523218E-11
  -3.83000001E-02   1.82898072E-11
  -3.82499993E-02   2.14075355E-11
  -3.81999984E-02   2.45000565E-11
  -3.81500013E-02   2.73690220E-11
  -3.81000005E-02   2.98840258E-11
  -3.80499996E-02   3.20716023E-11
  -3.79999988E-02   3.41537874E-11
  -3.79500017E-02   3.64554532E-11
  -3.79000008E-02   3.92073041E-11
  -3.78500000E-02   4.23866255E-11
  -3.77999991E-02   4.57246498E-11
  -3.77499983E-02   4.88648670E-11
  -3.77000012E-02   5.15294092E-11
  -3.76500003E-02   5.35721502E-11
  -3.75999995E-02   5.49326244E-11
  -3.75499986E-02   5.55915695E-11
  -3.75000015E-02   5.55717972E-11
  -3.74500006E-02   5.49201448E-11
  -3.73999998E-02   5.36031601E-11
  -3.73499990E-02   5.13714869E-11
  -3.73000018E-02   4.77393645E-11
  -3.72500010E-02   4.21456446E-11
  -3.72000001E-02   3.41815118E-11
  -3.71499993E-02   2.36935194E-11
  -3.70999984E-02   1.07054903E-11
  -3.70500013E-02  -4.69430788E-12
  -3.70000005E-02  -2.23247879E-11
  -3.69499996E-02  -4.17562616E-11
  -3.68999988E-02  -6.22418228E-11
  -3.68500017E-02  -8.29198585E-11
  -3.68000008E-02  -1.03221487E-10
  -3.67500000E-02  -1.23216506E-10
  -3.66999991E-02  -1.43676460E-10
  -3.66499983E-02  -1.65849764E-10
  -3.66000012E-02  -1.91087035E-10
  -3.65500003E-02  -2.20420807E-10
  -3.64999995E-02  -2.54138405E-10
  -3.64499986E-02  -2.91455138E-10
  -3.64000015E-02  -3.30548811E-10
  -3.63500006E-02  -3.69175607E-10
  -3.62999998E-02  -4.05718209E-10
  -3.62499990E-02  -4.40071118E-10
  -3.62000018E-02  -4.73678985E-10
  -3.61500010E-02  -5.08506071E-10
  -3.61000001E-02  -5.45417489E-10
  -3.60499993E-02  -5.82880688E-10
  -3.59999985E-02  -6.16760532E-10
  -3.59500013E-02  -6.41448339E-10
  -3.59000005E-02  -6.51988297E-10
  -3.58499996E-02  -6.46438125E-10
  -3.57999988E-02  -6.27473462E-10
  -3.57500017E-02  -6.02254302E-10
  -3.57000008E-02  -5.80045900E-10
  -3.56500000E-02  -5.68105007E-10
  -3.55999991E-02  -5.67524527E-10
  -3.55499983E-02  -5.71279135E-10
  -3.55000012E-02  -5.65984426E-10
  -3.54500003E-02  -5.37099865E-10
  -3.53999995E-02  -4.75412654E-10
  -3.53499986E-02  -3.81733284E-10
  -3.53000015E-02  -2.67386752E-10
  -3.52500007E-02  -1.49844873E-10
  -3.51999998E-02  -4.49675366E-11
  -3.51499990E-02   4.10036033E-11
  -3.51000018E-02   1.15976020E-10
  -3.50500010E-02   2.00297973E-10
  -3.50000001E-02   3.18538584E-10
  -3.49499993E-02   4.87725638E-10
  -3.48999985E-02   7.07453540E-10
  -3.48500013E-02   9.57225077E-10
  -3.48000005E-02   1.20338894E-09
  -3.47499996E-02   1.41338108E-09
  -3.46999988E-02   1.57100477E-09
  -3.46500017E-02   1.68536374E-09
  -3.46000008E-02   1.78850834E-09
  -3.45500000E-02   1.92176475E-09
  -3.44999991E-02   2.11602602E-09
  -3.44499983E-02   2.37469200E-09
  -3.44000012E-02   2.66779132E-09
  -3.43500003E-02   2.94165803E-09
  -3.42999995E-02   3.14155657E-09
  -3.42499986E-02   3.23782556E-09
  -3.42000015E-02   3.24293881E-09
  -3.41500007E-02   3.20974869E-09
  -3.40999998E-02   3.20947668E-09
  -3.40499990E-02   3.29805272E-09
  -3.40000018E-02   3.48603191E-09
  -3.39500010E-02   3.72701869E-09
  -3.39000002E-02   3.93197341E-09
  -3.38499993E-02   4.00518863E-09
  -3.37999985E-02   3.88726251E-09
  -3.37500013E-02   3.58557184E-09
  -3.37000005E-02   3.17652593E-09
  -3.36499996E-02   2.77545786E-09
  -3.35999988E-02   2.48500953E-09
  -3.35500017E-02   2.34462849E-09
  -3.35000008E-02   2.30577024E-09
  -3.34500000E-02   2.24728081E-09
  -3.33999991E-02   2.02717443E-09
  -3.33499983E-02   1.54904967E-09
  -3.33000012E-02   8.12516221E-10
  -3.32500003E-02  -7.77191853E-11
  -3.31999995E-02  -9.51648982E-10
  -3.31499986E-02  -1.64791047E-09
  -3.31000015E-02  -2.09000617E-09
  -3.30500007E-02  -2.32906094E-09
  -3.29999998E-02  -2.52997312E-09
  -3.29499990E-02  -2.90232949E-09
  -3.29000019E-02  -3.60412677E-09
  -3.28500010E-02  -4.66196948E-09
  -3.28000002E-02  -5.94722804E-09
  -3.27499993E-02  -7.22409244E-09
  -3.26999985E-02  -8.25177793E-09
  -3.26500013E-02  -8.89587337E-09
  -3.26000005E-02  -9.19655019E-09
  -3.25499997E-02  -9.35833633E-09
  -3.24999988E-02  -9.66084546E-09
  -3.24500017E-02  -1.03269411E-08
  -3.24000008E-02  -1.14073639E-08
  -3.23500000E-02  -1.27376847E-08
  -3.22999991E-02  -1.39939518E-08
  -3.22499983E-02  -1.48288146E-08
  -3.22000012E-02  -1.50300199E-08
  -3.21500003E-02  -1.46276635E-08
  -3.20999995E-02  -1.38953231E-08
  -3.20499986E-02  -1.32370346E-08
  -3.20000015E-02  -1.30057201E-08
  -3.19500007E-02  -1.33339411E-08
  -3.18999998E-02  -1.40569005E-08
  -3.18499990E-02  -1.47689612E-08
  -3.18000019E-02  -1.49953738E-08
  -3.17500010E-02  -1.44067398E-08
  -3.17000002E-02  -1.29792825E-08
  -3.16499993E-02  -1.10227534E-08
  -3.15999985E-02  -9.05438657E-09
  -3.15500014E-02  -7.56853602E-09
  -3.15000005E-02  -6.80371937E-09
  -3.14499997E-02  -6.61645716E-09
  -3.13999988E-02  -6.52732401E-09
  -3.13500017E-02  -5.92742788E-09
  -3.13000008E-02  -4.35698944E-09
  -3.12500000E-02  -1.72946935E-09
  -3.11999992E-02   1.60540037E-09
  -3.11500002E-02   4.99726394E-09
  -3.10999993E-02   7.77662468E-09
  -3.10500003E-02   9.55941371E-09
  -3.09999995E-02   1.04348654E-08
  -3.09500005E-02   1.09431744E-08
  -3.08999997E-02   1.18416592E-08
  -3.08500007E-02   1.37573055E-08
  -3.07999998E-02   1.68825860E-08
  -3.07500008E-02   2.08590585E-08
  -3.07000000E-02   2.49121985E-08
  -3.06499992E-02   2.81862498E-08
  -3.06000002E-02   3.01320924E-08
  -3.05499993E-02   3.07706287E-08
  -3.05000003E-02   3.07043244E-08
  -3.04499995E-02   3.08599404E-08
  -3.04000005E-02   3.20687583E-08
  -3.03499997E-02   3.46700197E-08
  -3.03000007E-02   3.83214847E-08
  -3.02499998E-02   4.21149480E-08
  -3.02000009E-02   4.49579574E-08
  -3.01500000E-02   4.60577176E-08
  -3.00999992E-02   4.52880506E-08
  -3.00500002E-02   4.32651959E-08
  -2.99999993E-02   4.10863805E-08
  -2.99500003E-02   3.98391258E-08
  -2.98999995E-02   4.00982003E-08
  -2.98500005E-02   4.16401384E-08
  -2.97999997E-02   4.35132641E-08
  -2.97500007E-02   4.44435386E-08
  -2.96999998E-02   4.34036949E-08
  -2.96500009E-02   4.00915994E-08
  -2.96000000E-02   3.50955389E-08
  -2.95499992E-02   2.96587732E-08
  -2.95000002E-02   2.51365204E-08
  -2.94499993E-02   2.23838903E-08
  -2.94000003E-02   2.13527667E-08
  -2.93499995E-02   2.10883755E-08
  -2.93000005E-02   2.01393728E-08
  -2.92499997E-02   1.72052825E-08
  -2.92000007E-02   1.17328112E-08
  -2.91499998E-02   4.19017709E-09
  -2.91000009E-02  -4.11414414E-09
  -2.90500000E-02  -1.15990204E-08
  -2.89999992E-02  -1.71174950E-08
  -2.89500002E-02  -2.04856754E-08
  -2.88999993E-02  -2.25868604E-08
  -2.88500004E-02  -2.49899266E-08
  -2.87999995E-02  -2.92414555E-08
  -2.87500005E-02  -3.61457388E-08
  -2.86999997E-02  -4.53610376E-08
  -2.86500007E-02  -5.55034063E-08
  -2.85999998E-02  -6.47244676E-08
  -2.85500009E-02  -7.15147124E-08
  -2.85000000E-02  -7.53754961E-08
  -2.84499992E-02  -7.70555175E-08
  -2.84000002E-02  -7.82342937E-08
  -2.83499993E-02  -8.07800689E-08
  -2.83000004E-02  -8.59040057E-08
  -2.82499995E-02  -9.35877722E-08
  -2.82000005E-02  -1.02548206E-07
  -2.81499997E-02  -1.10767544E-07
  -2.81000007E-02  -1.16363850E-07
  -2.80499998E-02  -1.18417901E-07
  -2.80000009E-02  -1.17385319E-07
  -2.79500000E-02  -1.14902278E-07
  -2.78999992E-02  -1.13060878E-07
  -2.78500002E-02  -1.13468090E-07
  -2.77999993E-02  -1.16502612E-07
  -2.77500004E-02  -1.21103781E-07
  -2.76999995E-02  -1.25196465E-07
  -2.76500005E-02  -1.26576225E-07
  -2.75999997E-02  -1.23871374E-07
  -2.75500007E-02  -1.17155615E-07
  -2.74999999E-02  -1.07933225E-07
  -2.74500009E-02  -9.84918884E-08
  -2.74000000E-02  -9.08993556E-08
  -2.73499992E-02  -8.60831335E-08
  -2.73000002E-02  -8.34043234E-08
  -2.72499993E-02  -8.09213319E-08
  -2.72000004E-02  -7.62341799E-08
  -2.71499995E-02  -6.75466367E-08
  -2.71000005E-02  -5.44821148E-08
  -2.70499997E-02  -3.82893077E-08
  -2.70000007E-02  -2.13355626E-08
  -2.69499999E-02  -6.09640560E-09
  -2.69000009E-02   5.92297855E-09
  -2.68500000E-02   1.48616222E-08
  -2.67999992E-02   2.24607426E-08
  -2.67500002E-02   3.13091171E-08
  -2.66999993E-02   4.36975327E-08
  -2.66500004E-02   6.05787207E-08
  -2.65999995E-02   8.10909526E-08
  -2.65500005E-02   1.02863403E-07
  -2.64999997E-02   1.22986549E-07
  -2.64500007E-02   1.39237642E-07
  -2.63999999E-02   1.51032765E-07
  -2.63500009E-02   1.59685541E-07
  -2.63000000E-02   1.67842003E-07
  -2.62499992E-02   1.78316697E-07
  -2.62000002E-02   1.92822625E-07
  -2.61499994E-02   2.11151672E-07
  -2.61000004E-02   2.31176827E-07
  -2.60499995E-02   2.49694438E-07
  -2.60000005E-02   2.63756476E-07
  -2.59499997E-02   2.71922630E-07
  -2.59000007E-02   2.74885366E-07
  -2.58499999E-02   2.75184505E-07
  -2.58000009E-02   2.76112814E-07
  -2.57500000E-02   2.80266022E-07
  -2.56999992E-02   2.88358507E-07
  -2.56500002E-02   2.98829150E-07
  -2.55999994E-02   3.08433840E-07
  -2.55500004E-02   3.13594683E-07
  -2.54999995E-02   3.11934571E-07
  -2.54500005E-02   3.03326772E-07
  -2.53999997E-02   2.89983888E-07
  -2.53500007E-02   2.75522495E-07
  -2.52999999E-02   2.63389097E-07
  -2.52500009E-02   2.55321623E-07
  -2.52000000E-02   2.50524664E-07
  -2.51499992E-02   2.45940271E-07
  -2.51000002E-02   2.37532106E-07
  -2.50499994E-02   2.22054254E-07
  -2.50000004E-02   1.98539496E-07
  -2.49499995E-02   1.68836152E-07
  -2.49000005E-02   1.36916000E-07
  -2.48499997E-02   1.07214824E-07
  -2.48000007E-02   8.27120630E-08
  -2.47499999E-02   6.35949249E-08
  -2.47000009E-02   4.71186432E-08
  -2.46500000E-02   2.87627788E-08
  -2.45999992E-02   4.21610213E-09
  -2.45500002E-02  -2.86582491E-08
  -2.44999994E-02  -6.87485979E-08
  -2.44500004E-02  -1.12022114E-07
  -2.43999995E-02  -1.53163541E-07
  -2.43500005E-02  -1.87843852E-07
  -2.42999997E-02  -2.14628969E-07
  -2.42500007E-02  -2.35662057E-07
  -2.41999999E-02  -2.55766224E-07
  -2.41500009E-02  -2.80313657E-07
  -2.41000000E-02  -3.12769885E-07
  -2.40499992E-02  -3.53000502E-07
  -2.40000002E-02  -3.97129071E-07
  -2.39499994E-02  -4.39056606E-07
  -2.39000004E-02  -4.73020464E-07
  -2.38499995E-02  -4.96088205E-07
  -2.38000005E-02  -5.09474603E-07
  -2.37499997E-02  -5.18052502E-07
  -2.37000007E-02  -5.28209682E-07
  -2.36499999E-02  -5.44959676E-07
  -2.36000009E-02  -5.69584245E-07
  -2.35500000E-02  -5.98884014E-07
  -2.34999992E-02  -6.26428346E-07
  -2.34500002E-02  -6.45301441E-07
  -2.33999994E-02  -6.51149378E-07
  -2.33500004E-02  -6.44161730E-07
  -2.32999995E-02  -6.29065539E-07
  -2.32500006E-02  -6.13076793E-07
  -2.31999997E-02  -6.02670468E-07
  -2.31500007E-02  -6.00588862E-07
  -2.30999999E-02  -6.04450292E-07
  -2.30500009E-02  -6.07638412E-07
  -2.30000000E-02  -6.02143416E-07
  -2.29499992E-02  -5.82130667E-07
  -2.29000002E-02  -5.46638319E-07
  -2.28499994E-02  -5.00151259E-07
  -2.28000004E-02  -4.50730624E-07
  -2.27499995E-02  -4.06481149E-07
  -2.27000006E-02  -3.71908754E-07
  -2.26499997E-02  -3.45815948E-07
  -2.26000007E-02  -3.21726731E-07
  -2.25499999E-02  -2.90719385E-07
  -2.25000009E-02  -2.45465259E-07
  -2.24500000E-02  -1.83666970E-07
  -2.23999992E-02  -1.09321604E-07
  -2.23500002E-02  -3.11793684E-08
  -2.22999994E-02   4.09870182E-08
  -2.22500004E-02   1.00662916E-07
  -2.21999995E-02   1.47497630E-07
  -2.21500006E-02   1.87497548E-07
  -2.20999997E-02   2.30345634E-07
  -2.20500007E-02   2.84997270E-07
  -2.19999999E-02   3.55513549E-07
  -2.19500009E-02   4.39012183E-07
  -2.19000001E-02   5.26708334E-07
  -2.18499992E-02   6.07640288E-07
  -2.18000002E-02   6.73448199E-07
  -2.17499994E-02   7.22064271E-07
  -2.17000004E-02   7.58614476E-07
  -2.16499995E-02   7.93072900E-07
  -2.16000006E-02   8.35673802E-07
  -2.15499997E-02   8.92120454E-07
  -2.15000007E-02   9.60763487E-07
  -2.14499999E-02   1.03306479E-06
  -2.14000009E-02   1.09719736E-06
  -2.13500001E-02   1.14320233E-06
  -2.12999992E-02   1.16739125E-06
  -2.12500002E-02   1.17398054E-06
  -2.11999994E-02   1.17317325E-06
  -2.11500004E-02   1.17650598E-06
  -2.10999995E-02   1.19152583E-06
  -2.10500006E-02   1.21820301E-06
  -2.09999997E-02   1.24873736E-06
  -2.09500007E-02   1.27089663E-06
  -2.08999999E-02   1.27342685E-06
  -2.08500009E-02   1.25110341E-06
  -2.08000001E-02   1.20713355E-06
  -2.07499992E-02   1.15177284E-06
  -2.07000002E-02   1.09772361E-06
  -2.06499994E-02   1.05437300E-06
  -2.06000004E-02   1.02346576E-06
  -2.05499995E-02   9.98185101E-07
  -2.05000006E-02   9.66105972E-07
  -2.04499997E-02   9.14741747E-07
  -2.04000007E-02   8.37202663E-07
  -2.03499999E-02   7.35401841E-07
  -2.03000009E-02   6.19339176E-07
  -2.02500001E-02   5.02749401E-07
  -2.01999992E-02   3.97032267E-07
  -2.01500002E-02   3.06193698E-07
  -2.00999994E-02   2.25091810E-07
  -2.00500004E-02   1.41797756E-07
  -1.99999996E-02   4.30384084E-08
  -1.99500006E-02  -7.97194204E-08
  -1.98999997E-02  -2.26291874E-07
  -1.98500007E-02  -3.87704631E-07
  -1.97999999E-02  -5.50080131E-07
  -1.97500009E-02  -7.00752253E-07
  -1.97000001E-02  -8.33859474E-07
  -1.96499992E-02  -9.52876803E-07
  -1.96000002E-02  -1.06892855E-06
  -1.95499994E-02  -1.19564470E-06
  -1.95000004E-02  -1.34285438E-06
  -1.94499996E-02  -1.51196866E-06
  -1.94000006E-02  -1.69516147E-06
  -1.93499997E-02  -1.87871706E-06
  -1.93000007E-02  -2.04904927E-06
  -1.92499999E-02  -2.19867115E-06
  -1.92000009E-02  -2.32943489E-06
  -1.91500001E-02  -2.45156707E-06
  -1.90999992E-02  -2.57891475E-06
  -1.90500002E-02  -2.72253783E-06
  -1.89999994E-02  -2.88555543E-06
  -1.89500004E-02  -3.06158313E-06
  -1.88999996E-02  -3.23744803E-06
  -1.88500006E-02  -3.39898338E-06
  -1.87999997E-02  -3.53730002E-06
  -1.87500007E-02  -3.65271808E-06
  -1.86999999E-02  -3.75456261E-06
  -1.86500009E-02  -3.85691328E-06
  -1.86000001E-02  -3.97222038E-06
  -1.85499992E-02  -4.10565826E-06
  -1.85000002E-02  -4.25277221E-06
  -1.84499994E-02  -4.40143776E-06
  -1.84000004E-02  -4.53724124E-06
  -1.83499996E-02  -4.64989944E-06
  -1.83000006E-02  -4.73782165E-06
  -1.82499997E-02  -4.80876997E-06
  -1.82000007E-02  -4.87632906E-06
  -1.81499999E-02  -4.95381164E-06
  -1.81000009E-02  -5.04833088E-06
  -1.80500001E-02  -5.15765942E-06
  -1.79999992E-02  -5.27132670E-06
  -1.79500002E-02  -5.37541882E-06
  -1.78999994E-02  -5.45895045E-06
  -1.78500004E-02  -5.51886387E-06
  -1.77999996E-02  -5.56141731E-06
  -1.77500006E-02  -5.59945693E-06
  -1.76999997E-02  -5.64678612E-06
  -1.76500008E-02  -5.71215014E-06
  -1.75999999E-02  -5.79552852E-06
  -1.75500009E-02  -5.88834655E-06
  -1.75000001E-02  -5.97753797E-06
  -1.74499992E-02  -6.05164678E-06
  -1.74000002E-02  -6.10615052E-06
  -1.73499994E-02  -6.14558803E-06
  -1.73000004E-02  -6.18155582E-06
  -1.72499996E-02  -6.22757625E-06
  -1.72000006E-02  -6.29316219E-06
  -1.71499997E-02  -6.37971561E-06
  -1.71000008E-02  -6.48005198E-06
  -1.70499999E-02  -6.58176486E-06
  -1.70000009E-02  -6.67298764E-06
  -1.69500001E-02  -6.74791499E-06
  -1.68999992E-02  -6.80961466E-06
  -1.68500002E-02  -6.86882504E-06
  -1.67999994E-02  -6.93932907E-06
  -1.67500004E-02  -7.03198748E-06
  -1.66999996E-02  -7.15010992E-06
  -1.66500006E-02  -7.28824762E-06
  -1.65999997E-02  -7.43485361E-06
  -1.65500008E-02  -7.57757925E-06
  -1.64999999E-02  -7.70887982E-06
  -1.64500009E-02  -7.82943334E-06
  -1.64000001E-02  -7.94795687E-06
  -1.63499992E-02  -8.07731794E-06
  -1.63000003E-02  -8.22890343E-06
  -1.62499994E-02  -8.40759913E-06
  -1.62000004E-02  -8.60971159E-06
  -1.61499996E-02  -8.82496533E-06
  -1.61000006E-02  -9.04119679E-06
  -1.60499997E-02  -9.24976666E-06
  -1.60000008E-02  -9.44951626E-06
  -1.59499999E-02  -9.64733499E-06
  -1.59000009E-02  -9.85509814E-06
  -1.58500001E-02  -1.00844090E-05
  -1.57999992E-02  -1.03414013E-05
  -1.57500003E-02  -1.06241723E-05
  -1.56999994E-02  -1.09238135E-05
  -1.56500004E-02  -1.12286116E-05
  -1.55999996E-02  -1.15294006E-05
  -1.55499997E-02  -1.18236167E-05
  -1.54999997E-02  -1.21165276E-05
  -1.54499998E-02  -1.24189610E-05
  -1.53999999E-02  -1.27423600E-05
  -1.53500000E-02  -1.30936769E-05
  -1.53000001E-02  -1.34722759E-05
  -1.52500002E-02  -1.38704081E-05
  -1.52000003E-02  -1.42768222E-05
  -1.51500003E-02  -1.46817329E-05
  -1.51000004E-02  -1.50816059E-05
  -1.50499996E-02  -1.54808240E-05
  -1.49999997E-02  -1.58897001E-05
  -1.49499997E-02  -1.63201785E-05
  -1.48999998E-02  -1.67806284E-05
  -1.48499999E-02  -1.72721502E-05
  -1.48000000E-02  -1.77883157E-05
  -1.47500001E-02  -1.83181983E-05
  -1.47000002E-02  -1.88515569E-05
  -1.46500003E-02  -1.93836477E-05
  -1.46000003E-02  -1.99174265E-05
  -1.45500004E-02  -2.04625430E-05
  -1.44999996E-02  -2.10312410E-05
  -1.44499997E-02  -2.16331082E-05
  -1.43999998E-02  -2.22710732E-05
  -1.43499998E-02  -2.29404322E-05
  -1.42999999E-02  -2.36311444E-05
  -1.42500000E-02  -2.43325849E-05
  -1.42000001E-02  -2.50389221E-05
  -1.41500002E-02  -2.57520442E-05
  -1.41000003E-02  -2.64804021E-05
  -1.40500003E-02  -2.72355956E-05
  -1.40000004E-02  -2.80277618E-05
  -1.39499996E-02  -2.88614228E-05
  -1.38999997E-02  -2.97338102E-05
  -1.38499998E-02  -3.06359980E-05
  -1.37999998E-02  -3.15573816E-05
  -1.37499999E-02  -3.24916764E-05
  -1.37000000E-02  -3.34403230E-05
  -1.36500001E-02  -3.44115178E-05
  -1.36000002E-02  -3.54164404E-05
  -1.35500003E-02  -3.64646257E-05
  -1.35000004E-02  -3.75605377E-05
  -1.34500004E-02  -3.87018626E-05
  -1.33999996E-02  -3.98800730E-05
  -1.33499997E-02  -4.10848988E-05
  -1.32999998E-02  -4.23094971E-05
  -1.32499998E-02  -4.35537295E-05
  -1.31999999E-02  -4.48253995E-05
  -1.31500000E-02  -4.61372110E-05
  -1.31000001E-02  -4.75005945E-05
  -1.30500002E-02  -4.89204831E-05
  -1.30000003E-02  -5.03938354E-05
  -1.29500004E-02  -5.19117930E-05
  -1.29000004E-02  -5.34638748E-05
  -1.28499996E-02  -5.50421864E-05
  -1.27999997E-02  -5.66452436E-05
  -1.27499998E-02  -5.82794892E-05
  -1.26999998E-02  -5.99572450E-05
  -1.26499999E-02  -6.16909747E-05
  -1.26000000E-02  -6.34878306E-05
  -1.25500001E-02  -6.53470779E-05
  -1.25000002E-02  -6.72604510E-05
  -1.24500003E-02  -6.92160465E-05
  -1.24000004E-02  -7.12037945E-05
  -1.23500004E-02  -7.32196495E-05
  -1.22999996E-02  -7.52675551E-05
  -1.22499997E-02  -7.73573629E-05
  -1.21999998E-02  -7.94990483E-05
  -1.21499998E-02  -8.16976171E-05
  -1.20999999E-02  -8.39523782E-05
  -1.20500000E-02  -8.62584202E-05
  -1.20000001E-02  -8.86082271E-05
  -1.19500002E-02  -9.09961964E-05
  -1.19000003E-02  -9.34222335E-05
  -1.18500004E-02  -9.58941382E-05
  -1.18000004E-02  -9.84256621E-05
  -1.17499996E-02  -1.01028701E-04
  -1.16999997E-02  -1.03706938E-04
  -1.16499998E-02  -1.06454740E-04
  -1.15999999E-02  -1.09258115E-04
  -1.15499999E-02  -1.12099537E-04
  -1.15000000E-02  -1.14963957E-04
  -1.14500001E-02  -1.17842501E-04
  -1.14000002E-02  -1.20737175E-04
  -1.13500003E-02  -1.23660095E-04
  -1.13000004E-02  -1.26629078E-04
  -1.12500004E-02  -1.29660883E-04
  -1.11999996E-02  -1.32764530E-04
  -1.11499997E-02  -1.35941853E-04
  -1.10999998E-02  -1.39190874E-04
  -1.10499999E-02  -1.42509307E-04
  -1.09999999E-02  -1.45896454E-04
  -1.09500000E-02  -1.49355052E-04
  -1.09000001E-02  -1.52889523E-04
  -1.08500002E-02  -1.56501526E-04
  -1.08000003E-02  -1.60187206E-04
  -1.07500004E-02  -1.63935183E-04
  -1.07000005E-02  -1.67726699E-04
  -1.06499996E-02  -1.71541731E-04
  -1.05999997E-02  -1.75366949E-04
  -1.05499998E-02  -1.79199880E-04
  -1.04999999E-02  -1.83052573E-04
  -1.04499999E-02  -1.86949677E-04
  -1.04000000E-02  -1.90919556E-04
  -1.03500001E-02  -1.94986613E-04
  -1.03000002E-02  -1.99166141E-04
  -1.02500003E-02  -2.03462798E-04
  -1.02000004E-02  -2.07872872E-04
  -1.01500005E-02  -2.12387051E-04
  -1.00999996E-02  -2.16996894E-04
  -1.00499997E-02  -2.21698239E-04
  -9.99999978E-03  -2.26490869E-04
  -9.94999986E-03  -2.31377664E-04
  -9.89999995E-03  -2.36361331E-04
  -9.85000003E-03  -2.41438451E-04
  -9.80000012E-03  -2.46598443E-04
  -9.75000020E-03  -2.51828053E-04
  -9.70000029E-03  -2.57118169E-04
  -9.65000037E-03  -2.62471527E-04
  -9.60000046E-03  -2.67899595E-04
  -9.54999961E-03  -2.73416401E-04
  -9.49999969E-03  -2.79038271E-04
  -9.44999978E-03  -2.84778449E-04
  -9.39999986E-03  -2.90646276E-04
  -9.34999995E-03  -2.96646351E-04
  -9.30000003E-03  -3.02772038E-04
  -9.25000012E-03  -3.09014169E-04
  -9.20000020E-03  -3.15374375E-04
  -9.15000029E-03  -3.21864092E-04
  -9.10000037E-03  -3.28502327E-04
  -9.05000046E-03  -3.35308898E-04
  -8.99999961E-03  -3.42295563E-04
  -8.94999970E-03  -3.49464419E-04
  -8.89999978E-03  -3.56809149E-04
  -8.84999987E-03  -3.64319974E-04
  -8.79999995E-03  -3.71980801E-04
  -8.75000004E-03  -3.79774399E-04
  -8.70000012E-03  -3.87696258E-04
  -8.65000021E-03  -3.95750452E-04
  -8.60000029E-03  -4.03947342E-04
  -8.55000038E-03  -4.12300142E-04
  -8.50000046E-03  -4.20810771E-04
  -8.44999962E-03  -4.29476582E-04
  -8.39999970E-03  -4.38296411E-04
  -8.34999979E-03  -4.47272003E-04
  -8.29999987E-03  -4.56409063E-04
  -8.24999996E-03  -4.65717108E-04
  -8.20000004E-03  -4.75211215E-04
  -8.15000013E-03  -4.84909775E-04
  -8.10000021E-03  -4.94829786E-04
  -8.05000030E-03  -5.04981086E-04
  -8.00000038E-03  -5.15365216E-04
  -7.95000046E-03  -5.25975658E-04
  -7.89999962E-03  -5.36803447E-04
  -7.84999970E-03  -5.47846372E-04
  -7.79999979E-03  -5.59108914E-04
  -7.74999987E-03  -5.70599746E-04
  -7.69999996E-03  -5.82329871E-04
  -7.65000004E-03  -5.94303187E-04
  -7.60000013E-03  -6.06517890E-04
  -7.55000021E-03  -6.18964725E-04
  -7.49999983E-03  -6.31630188E-04
  -7.44999992E-03  -6.44501415E-04
  -7.40000000E-03  -6.57572411E-04
  -7.35000009E-03  -6.70843758E-04
  -7.30000017E-03  -6.84326107E-04
  -7.24999979E-03  -6.98039774E-04
  -7.19999988E-03  -7.12000881E-04
  -7.14999996E-03  -7.26220314E-04
  -7.10000005E-03  -7.40703428E-04
  -7.05000013E-03  -7.55450805E-04
  -7.00000022E-03  -7.70461978E-04
  -6.94999984E-03  -7.85741780E-04
  -6.89999992E-03  -8.01299233E-04
  -6.85000001E-03  -8.17149470E-04
  -6.80000009E-03  -8.33302329E-04
  -6.75000018E-03  -8.49764619E-04
  -6.69999979E-03  -8.66545597E-04
  -6.64999988E-03  -8.83638219E-04
  -6.59999996E-03  -9.01028572E-04
  -6.55000005E-03  -9.18714912E-04
  -6.50000013E-03  -9.36702883E-04
  -6.45000022E-03  -9.54994641E-04
  -6.39999984E-03  -9.73586983E-04
  -6.34999992E-03  -9.92482994E-04
  -6.30000001E-03  -1.01169245E-03
  -6.25000009E-03  -1.03121065E-03
  -6.20000018E-03  -1.05102977E-03
  -6.14999980E-03  -1.07115216E-03
  -6.09999988E-03  -1.09157106E-03
  -6.04999997E-03  -1.11228577E-03
  -6.00000005E-03  -1.13330828E-03
  -5.95000014E-03  -1.15466211E-03
  -5.90000022E-03  -1.17637345E-03
  -5.84999984E-03  -1.19845534E-03
  -5.79999993E-03  -1.22090592E-03
  -5.75000001E-03  -1.24371401E-03
  -5.70000010E-03  -1.26688054E-03
  -5.65000018E-03  -1.29041541E-03
  -5.59999980E-03  -1.31432107E-03
  -5.54999989E-03  -1.33860193E-03
  -5.49999997E-03  -1.36327161E-03
  -5.45000006E-03  -1.38834666E-03
  -5.40000014E-03  -1.41383428E-03
  -5.35000023E-03  -1.43972214E-03
  -5.29999984E-03  -1.46598660E-03
  -5.24999993E-03  -1.49261346E-03
  -5.20000001E-03  -1.51961390E-03
  -5.15000010E-03  -1.54698920E-03
  -5.10000018E-03  -1.57471746E-03
  -5.04999980E-03  -1.60279439E-03
  -4.99999989E-03  -1.63124676E-03
  -4.94999997E-03  -1.66009460E-03
  -4.90000006E-03  -1.68933917E-03
  -4.85000014E-03  -1.71896163E-03
  -4.80000023E-03  -1.74892473E-03
  -4.74999985E-03  -1.77922763E-03
  -4.69999993E-03  -1.80991774E-03
  -4.65000002E-03  -1.84106245E-03
  -4.60000010E-03  -1.87268713E-03
  -4.55000019E-03  -1.90477178E-03
  -4.49999981E-03  -1.93732232E-03
  -4.44999989E-03  -1.97034539E-03
  -4.39999998E-03  -2.00382830E-03
  -4.35000006E-03  -2.03774380E-03
  -4.30000015E-03  -2.07204814E-03
  -4.25000023E-03  -2.10672058E-03
  -4.19999985E-03  -2.14178814E-03
  -4.14999994E-03  -2.17728480E-03
  -4.10000002E-03  -2.21322523E-03
  -4.05000011E-03  -2.24958779E-03
  -4.00000019E-03  -2.28634244E-03
  -3.94999981E-03  -2.32347567E-03
  -3.89999989E-03  -2.36096885E-03
  -3.84999998E-03  -2.39881664E-03
  -3.80000006E-03  -2.43702298E-03
  -3.74999992E-03  -2.47560674E-03
  -3.70000000E-03  -2.51461659E-03
  -3.65000009E-03  -2.55411072E-03
  -3.59999994E-03  -2.59411964E-03
  -3.55000002E-03  -2.63462961E-03
  -3.50000011E-03  -2.67561199E-03
  -3.44999996E-03  -2.71701673E-03
  -3.40000005E-03  -2.75878282E-03
  -3.34999990E-03  -2.80092051E-03
  -3.29999998E-03  -2.84349173E-03
  -3.25000007E-03  -2.88654398E-03
  -3.19999992E-03  -2.93007470E-03
  -3.15000000E-03  -2.97407527E-03
  -3.10000009E-03  -3.01854173E-03
  -3.04999994E-03  -3.06344382E-03
  -3.00000003E-03  -3.10874055E-03
  -2.95000011E-03  -3.15439515E-03
  -2.89999996E-03  -3.20042577E-03
  -2.85000005E-03  -3.24684381E-03
  -2.79999990E-03  -3.29365092E-03
  -2.74999999E-03  -3.34090623E-03
  -2.70000007E-03  -3.38870683E-03
  -2.64999992E-03  -3.43707064E-03
  -2.60000001E-03  -3.48589034E-03
  -2.55000009E-03  -3.53506557E-03
  -2.49999994E-03  -3.58455977E-03
  -2.45000003E-03  -3.63442767E-03
  -2.40000011E-03  -3.68474564E-03
  -2.34999997E-03  -3.73552158E-03
  -2.30000005E-03  -3.78674618E-03
  -2.24999990E-03  -3.83846834E-03
  -2.19999999E-03  -3.89078213E-03
  -2.15000007E-03  -3.94374644E-03
  -2.09999993E-03  -3.99725838E-03
  -2.05000001E-03  -4.05113678E-03
  -2.00000009E-03  -4.10532672E-03
  -1.94999995E-03  -4.15990548E-03
  -1.90000003E-03  -4.21501417E-03
  -1.85000000E-03  -4.27072169E-03
  -1.79999997E-03  -4.32696613E-03
  -1.75000005E-03  -4.38372511E-03
  -1.70000002E-03  -4.44101496E-03
  -1.64999999E-03  -4.49877325E-03
  -1.59999996E-03  -4.55694553E-03
  -1.55000004E-03  -4.61545074E-03
  -1.50000001E-03  -4.67420090E-03
  -1.44999998E-03  -4.73328959E-03
  -1.39999995E-03  -4.79295803E-03
  -1.35000004E-03  -4.85331519E-03
  -1.30000000E-03  -4.91432240E-03
  -1.24999997E-03  -4.97590844E-03
  -1.20000006E-03  -5.03801135E-03
  -1.15000003E-03  -5.10063767E-03
  -1.09999999E-03  -5.16377250E-03
  -1.04999996E-03  -5.22728311E-03
  -1.00000005E-03  -5.29116578E-03
  -9.50000016E-04  -5.35563892E-03
  -8.99999985E-04  -5.42084593E-03
  -8.50000011E-04  -5.48678404E-03
  -7.99999980E-04  -5.55341318E-03
  -7.50000007E-04  -5.62055642E-03
  -6.99999975E-04  -5.68804005E-03
  -6.50000002E-04  -5.75585291E-03
  -6.00000028E-04  -5.82402525E-03
  -5.49999997E-04  -5.89259434E-03
  -5.00000024E-04  -5.96167659E-03
  -4.49999992E-04  -6.03141170E-03
  -3.99999990E-04  -6.10181270E-03
  -3.49999988E-04  -6.17289683E-03
  -3.00000014E-04  -6.24464639E-03
  -2.50000012E-04  -6.31692540E-03
  -1.99999995E-04  -6.38957927E-03
  -1.50000007E-04  -6.46251068E-03
  -9.99999975E-05  -6.53581321E-03
  -4.99999987E-05  -6.60970528E-03
   0.00000000      -6.68435637E-03
   4.99999987E-05  -6.75983401E-03
   9.99999975E-05  -6.83604460E-03
   1.50000007E-04  -6.91277627E-03
   1.99999995E-04  -6.98987441E-03
   2.50000012E-04  -7.06740189E-03
   3.00000014E-04  -7.14544905E-03
   3.49999988E-04  -7.22392509E-03
   3.99999990E-04  -7.30269728E-03
   4.49999992E-04  -7.38191092E-03
   5.00000024E-04  -7.46192550E-03
   5.49999997E-04  -7.54287746E-03
   6.00000028E-04  -7.62462616E-03
   6.50000002E-04  -7.70678278E-03
   6.99999975E-04  -7.78902369E-03
   7.50000007E-04  -7.87148252E-03
   7.99999980E-04  -7.95451924E-03
   8.50000011E-04  -8.03823769E-03
   8.99999985E-04  -8.12245626E-03
   9.50000016E-04  -8.20714235E-03
   1.00000005E-03  -8.29246640E-03
   1.04999996E-03  -8.37866496E-03
   1.09999999E-03  -8.46564211E-03
   1.15000003E-03  -8.55305046E-03
   1.20000006E-03  -8.64053797E-03
   1.24999997E-03  -8.72806553E-03
   1.30000000E-03  -8.81609973E-03
   1.35000004E-03  -8.90507456E-03
   1.39999995E-03  -8.99507105E-03
   1.44999998E-03  -9.08572134E-03
   1.50000001E-03  -9.17673111E-03
   1.55000004E-03  -9.26818047E-03
   1.59999996E-03  -9.36029758E-03
   1.64999999E-03  -9.45306849E-03
   1.70000002E-03  -9.54602752E-03
   1.75000005E-03  -9.63894371E-03
   1.79999997E-03  -9.73217841E-03
   1.85000000E-03  -9.82629787E-03
   1.90000003E-03  -9.92161781E-03
   1.94999995E-03  -1.00177750E-02
   2.00000009E-03  -1.01141231E-02
   2.05000001E-03  -1.02104973E-02
   2.09999993E-03  -1.03072124E-02
   2.15000007E-03  -1.04046548E-02
   2.19999999E-03  -1.05027445E-02
   2.24999990E-03  -1.06011191E-02
   2.30000005E-03  -1.06998179E-02
   2.34999997E-03  -1.07993530E-02
   2.40000011E-03  -1.09002152E-02
   2.45000003E-03  -1.10021792E-02
   2.49999994E-03  -1.11044860E-02
   2.55000009E-03  -1.12065673E-02
   2.60000001E-03  -1.13085778E-02
   2.64999992E-03  -1.14112990E-02
   2.70000007E-03  -1.15150511E-02
   2.74999999E-03  -1.16194477E-02
   2.79999990E-03  -1.17241340E-02