  -3.99999991E-02   0.00000000    
  -3.99499983E-02   0.00000000    
  -3.99000011E-02  -2.53085355E-15
  -3.98500003E-02  -1.41791664E-14
  -3.97999994E-02  -3.84283839E-14
  -3.97499986E-02  -6.13644945E-14
  -3.97000015E-02  -4.14800098E-14
  -3.96500006E-02   8.12429076E-14
  -3.95999998E-02   3.52370124E-13
  -3.95499989E-02   7.62963314E-13
  -3.95000018E-02   1.23336215E-12
  -3.94500010E-02   1.64206853E-12
  -3.94000001E-02   1.89078527E-12
  -3.93499993E-02   1.96848419E-12
  -3.92999984E-02   1.97324036E-12
  -3.92500013E-02   2.07337402E-12
  -3.92000005E-02   2.42363616E-12
  -3.91499996E-02   3.07844136E-12
  -3.90999988E-02   3.95049488E-12
  -3.90500017E-02   4.84540099E-12
  -3.90000008E-02   5.56414593E-12
  -3.89500000E-02   6.02127853E-12
  -3.88999991E-02   6.30509317E-12
  -3.88499983E-02   6.63065826E-12
  -3.88000011E-02   7.20129468E-12
  -3.87500003E-02   8.05865097E-12
  -3.86999995E-02   9.01835724E-12
  -3.86499986E-02   9.74157300E-12
  -3.86000015E-02   9.91173983E-12
  -3.85500006E-02   9.42061533E-12
  -3.84999998E-02   8.45403955E-12
  -3.84499989E-02   7.41165983E-12
  -3.84000018E-02   6.67757039E-12
  -3.83500010E-02   6.34740524E-12
  -3.83000001E-02   6.06756702E-12
  -3.82499993E-02   5.11180031E-12
  -3.81999984E-02   2.70248776E-12
  -3.81500013E-02  -1.56694406E-12
  -3.81000005E-02  -7.44095584E-12
  -3.80499996E-02  -1.40302414E-11
  -3.79999988E-02  -2.01835805E-11
  -3.79500017E-02  -2.50385372E-11
  -3.79000008E-02  -2.84813700E-11
  -3.78500000E-02  -3.12771267E-11
  -3.77999991E-02  -3.47760258E-11
  -3.77499983E-02  -4.02967000E-11
  -3.77000012E-02  -4.84518016E-11
  -3.76500003E-02  -5.87431354E-11
  -3.75999995E-02  -6.96609229E-11
  -3.75499986E-02  -7.92884994E-11
  -3.75000015E-02  -8.61471311E-11
  -3.74500006E-02  -8.98702432E-11
  -3.73999998E-02  -9.13711259E-11
  -3.73499990E-02  -9.24255672E-11
  -3.73000018E-02  -9.48732551E-11
  -3.72500010E-02  -9.97943880E-11
  -3.72000001E-02  -1.06990597E-10
  -3.71499993E-02  -1.14945782E-10
  -3.70999984E-02  -1.21256463E-10
  -3.70500013E-02  -1.23366969E-10
  -3.70000005E-02  -1.19355317E-10
  -3.69499996E-02  -1.08518375E-10
  -3.68999988E-02  -9.15991311E-11
  -3.68500017E-02  -7.06327219E-11
  -3.68000008E-02  -4.84747208E-11
  -3.67500000E-02  -2.80786869E-11
  -3.66999991E-02  -1.15786339E-11
  -3.66499983E-02   6.82058251E-13
  -3.66000012E-02   1.08373900E-11
  -3.65500003E-02   2.34142254E-11
  -3.64999995E-02   4.41122208E-11
  -3.64499986E-02   7.75569817E-11
  -3.64000015E-02   1.24773913E-10
  -3.63500006E-02   1.81568677E-10
  -3.62999998E-02   2.38916220E-10
  -3.62499990E-02   2.85768242E-10
  -3.62000018E-02   3.13587434E-10
  -3.61500010E-02   3.20844323E-10
  -3.61000001E-02   3.15214743E-10
  -3.60499993E-02   3.11740439E-10
  -3.59999985E-02   3.26826427E-10
  -3.59500013E-02   3.70117603E-10
  -3.59000005E-02   4.37954756E-10
  -3.58499996E-02   5.12172471E-10
  -3.57999988E-02   5.66033664E-10
  -3.57500017E-02   5.75743231E-10
  -3.57000008E-02   5.32780209E-10
  -3.56500000E-02   4.50945725E-10
  -3.55999991E-02   3.63544139E-10
  -3.55499983E-02   3.10227982E-10
  -3.55000012E-02   3.18149812E-10
  -3.54500003E-02   3.85824400E-10
  -3.53999995E-02   4.78344586E-10
  -3.53499986E-02   5.38491252E-10
  -3.53000015E-02   5.11065801E-10
  -3.52500007E-02   3.70588477E-10
  -3.51999998E-02   1.39088741E-10
  -3.51499990E-02  -1.16518850E-10
  -3.51000018E-02  -3.09452575E-10
  -3.50500010E-02  -3.71631004E-10
  -3.50000001E-02  -2.88927382E-10
  -3.49499993E-02  -1.15385076E-10
  -3.48999985E-02   4.36136856E-11
  -3.48500013E-02   7.55077112E-11
  -3.48000005E-02  -8.55689478E-11
  -3.47499996E-02  -4.20091989E-10
  -3.46999988E-02  -8.20616186E-10
  -3.46500017E-02  -1.13158738E-09
  -3.46000008E-02  -1.21776333E-09
  -3.45500000E-02  -1.03168796E-09
  -3.44999991E-02  -6.47331799E-10
  -3.44499983E-02  -2.39379960E-10
  -3.44000012E-02  -1.15343715E-11
  -3.43500003E-02  -1.02281697E-10
  -3.42999995E-02  -5.10824105E-10
  -3.42499986E-02  -1.08116016E-09
  -3.42000015E-02  -1.55873114E-09
  -3.41500007E-02  -1.70076941E-09
  -3.40999998E-02  -1.39344347E-09
  -3.40499990E-02  -7.20277893E-10
  -3.40000018E-02   5.64052312E-11
  -3.39500010E-02   6.01553807E-10
  -3.39000002E-02   6.59378496E-10
  -3.38499993E-02   1.83173365E-10
  -3.37999985E-02  -6.21561358E-10
  -3.37500013E-02  -1.37025002E-09
  -3.37000005E-02  -1.66550140E-09
  -3.36499996E-02  -1.28649591E-09
  -3.35999988E-02  -3.13414211E-10
  -3.35500017E-02   8.78969064E-10
  -3.35000008E-02   1.76854864E-09
  -3.34500000E-02   1.91781102E-09
  -3.33999991E-02   1.18834842E-09
  -3.33499983E-02  -1.65695097E-10
  -3.33000012E-02  -1.58113556E-09
  -3.32500003E-02  -2.42313880E-09
  -3.31999995E-02  -2.27815811E-09
  -3.31499986E-02  -1.16882104E-09
  -3.31000015E-02   4.17811619E-10
  -3.30500007E-02   1.71849868E-09
  -3.29999998E-02   2.02876338E-09
  -3.29499990E-02   1.03939646E-09
  -3.29000019E-02  -9.83857440E-10
  -3.28500010E-02  -3.27539285E-09
  -3.28000002E-02  -4.88577445E-09
  -3.27499993E-02  -5.11014431E-09
  -3.26999985E-02  -3.83684418E-09
  -3.26500013E-02  -1.64595049E-09
  -3.26000005E-02   4.08641315E-10
  -3.25499997E-02   1.25644839E-09
  -3.24999988E-02   3.11365878E-10
  -3.24500017E-02  -2.21487007E-09
  -3.24000008E-02  -5.34778399E-09
  -3.23500000E-02  -7.74383757E-09
  -3.22999991E-02  -8.28562108E-09
  -3.22499983E-02  -6.61548194E-09
  -3.22000012E-02  -3.35385031E-09
  -3.21500003E-02   1.22651916E-10
  -3.20999995E-02   2.27148944E-09
  -3.20499986E-02   2.09362572E-09
  -3.20000015E-02  -3.60639213E-10
  -3.19500007E-02  -3.93981692E-09
  -3.18999998E-02  -6.84934420E-09
  -3.18499990E-02  -7.44157580E-09
  -3.18000019E-02  -4.99257879E-09
  -3.17500010E-02  -1.03266853E-10
  -3.17000002E-02   5.48725021E-09
  -3.16499993E-02   9.62898827E-09
  -3.15999985E-02   1.07274296E-08
  -3.15500014E-02   8.51611670E-09
  -3.15000005E-02   4.26424585E-09
  -3.14499997E-02   2.86142637E-10
  -3.13999988E-02  -1.06507725E-09
  -3.13500017E-02   1.51355906E-09
  -3.13000008E-02   7.60233831E-09
  -3.12500000E-02   1.51400137E-08
  -3.11999992E-02   2.12678781E-08
  -3.11500002E-02   2.35934579E-08
  -3.10999993E-02   2.13155840E-08
  -3.10500003E-02   1.56829270E-08
  -3.09999995E-02   9.53442658E-09
  -3.09500005E-02   6.07903194E-09
  -3.08999997E-02   7.43262385E-09
  -3.08500007E-02   1.35723184E-08
  -3.07999998E-02   2.22142891E-08
  -3.07500008E-02   2.97246654E-08
  -3.07000000E-02   3.27033334E-08
  -3.06499992E-02   2.95501454E-08
  -3.06000002E-02   2.12925571E-08
  -3.05499993E-02   1.12535794E-08
  -3.05000003E-02   3.64922248E-09
  -3.04499995E-02   1.70156100E-09
  -3.04000005E-02   6.10771123E-09
  -3.03499997E-02   1.45864574E-08
  -3.03000007E-02   2.27676882E-08
  -3.02499998E-02   2.60873598E-08
  -3.02000009E-02   2.18714522E-08
  -3.01500000E-02   1.06631450E-08
  -3.00999992E-02  -3.85441767E-09
  -3.00500002E-02  -1.63767453E-08
  -2.99999993E-02  -2.23159855E-08
  -2.99500003E-02  -1.99291925E-08
  -2.98999995E-02  -1.12519434E-08
  -2.98500005E-02  -1.35017475E-09
  -2.97999997E-02   3.85141874E-09
  -2.97500007E-02   2.41995118E-10
  -2.96999998E-02  -1.24985862E-08
  -2.96500009E-02  -3.05556647E-08
  -2.96000000E-02  -4.75047841E-08
  -2.95499992E-02  -5.70997827E-08
  -2.95000002E-02  -5.61122349E-08
  -2.94499993E-02  -4.59295322E-08
  -2.94000003E-02  -3.21243512E-08
  -2.93499995E-02  -2.20968541E-08
  -2.93000005E-02  -2.17745786E-08
  -2.92499997E-02  -3.28303074E-08
  -2.92000007E-02  -5.17089305E-08
  -2.91499998E-02  -7.09892802E-08
  -2.91000009E-02  -8.25672046E-08
  -2.90500000E-02  -8.12942176E-08
  -2.89999992E-02  -6.74375542E-08
  -2.89500002E-02  -4.67913210E-08
  -2.88999993E-02  -2.82845285E-08
  -2.88500004E-02  -2.00629540E-08
  -2.87999995E-02  -2.57577959E-08
  -2.87500005E-02  -4.26432720E-08
  -2.86999997E-02  -6.26004493E-08
  -2.86500007E-02  -7.55691474E-08
  -2.85999998E-02  -7.40266017E-08
  -2.85500009E-02  -5.65042129E-08
  -2.85000000E-02  -2.85071859E-08
  -2.84499992E-02  -3.12337850E-10
  -2.84000002E-02   1.74859434E-08
  -2.83499993E-02   1.87549514E-08
  -2.83000004E-02   4.77492579E-09
  -2.82499995E-02  -1.60494942E-08
  -2.82000005E-02  -3.17186348E-08
  -2.81499997E-02  -3.19402034E-08
  -2.81000007E-02  -1.28744864E-08
  -2.80499998E-02   2.08488249E-08
  -2.80000009E-02   5.78642698E-08
  -2.79500000E-02   8.49187742E-08
  -2.78999992E-02   9.27635782E-08
  -2.78500002E-02   8.04655187E-08
  -2.77999993E-02   5.61263640E-08
  -2.77500004E-02   3.35460832E-08
  -2.76999995E-02   2.61821285E-08
  -2.76500005E-02   4.10316652E-08
  -2.75999997E-02   7.51987983E-08
  -2.75500007E-02   1.16800415E-07
  -2.74999999E-02   1.49966269E-07
  -2.74500009E-02   1.61829220E-07
  -2.74000000E-02   1.48423126E-07
  -2.73499992E-02   1.16784101E-07
  -2.73000002E-02   8.21647035E-08
  -2.72499993E-02   6.14374684E-08
  -2.72000004E-02   6.55241621E-08
  -2.71499995E-02   9.42310763E-08
  -2.71000005E-02   1.35907825E-07
  -2.70499997E-02   1.72258652E-07
  -2.70000007E-02   1.86322907E-07
  -2.69499999E-02   1.70141064E-07
  -2.69000009E-02   1.28640096E-07
  -2.68500000E-02   7.78528673E-08
  -2.67999992E-02   3.80751004E-08
  -2.67500002E-02   2.48664929E-08
  -2.66999993E-02   4.18763015E-08
  -2.66500004E-02   7.87899737E-08
  -2.65999995E-02   1.15498622E-07
  -2.65500005E-02   1.30826152E-07
  -2.64999997E-02   1.12038535E-07
  -2.64500007E-02   6.08776816E-08
  -2.63999999E-02  -6.71605305E-09
  -2.63500009E-02  -6.72811638E-08
  -2.63000000E-02  -1.00120580E-07
  -2.62499992E-02  -9.66850280E-08
  -2.62000002E-02  -6.47976606E-08
  -2.61499994E-02  -2.56460844E-08
  -2.61000004E-02  -4.65599959E-09
  -2.60499995E-02  -2.01532355E-08
  -2.60000005E-02  -7.48463691E-08
  -2.59499997E-02  -1.54055542E-07
  -2.59000007E-02  -2.31704561E-07
  -2.58499999E-02  -2.81631031E-07
  -2.58000009E-02  -2.89295258E-07
  -2.57500000E-02  -2.58631559E-07
  -2.56999992E-02  -2.10804131E-07
  -2.56500002E-02  -1.75167813E-07
  -2.55999994E-02  -1.76254545E-07
  -2.55500004E-02  -2.22514316E-07
  -2.54999995E-02  -3.01931522E-07
  -2.54500005E-02  -3.86705437E-07
  -2.53999997E-02  -4.45173555E-07
  -2.53500007E-02  -4.55840819E-07
  -2.52999999E-02  -4.17270996E-07
  -2.52500009E-02  -3.49267708E-07
  -2.52000000E-02  -2.84548321E-07
  -2.51499992E-02  -2.54365887E-07
  -2.51000002E-02  -2.74360588E-07
  -2.50499994E-02  -3.37006611E-07
  -2.50000004E-02  -4.14246017E-07
  -2.49499995E-02  -4.69427533E-07
  -2.49000005E-02  -4.73458783E-07
  -2.48499997E-02  -4.18035597E-07
  -2.48000007E-02  -3.19917461E-07
  -2.47499999E-02  -2.14068478E-07
  -2.47000009E-02  -1.38425435E-07
  -2.46500000E-02  -1.16899528E-07
  -2.45999992E-02  -1.48199575E-07
  -2.45500002E-02  -2.05666780E-07
  -2.44999994E-02  -2.48504648E-07
  -2.44500004E-02  -2.39679508E-07
  -2.43999995E-02  -1.62635118E-07
  -2.43500005E-02  -2.92786009E-08
  -2.42999997E-02   1.24590116E-07
  -2.42500007E-02   2.54696516E-07
  -2.41999999E-02   3.27926642E-07
  -2.41500009E-02   3.37472159E-07
  -2.41000000E-02   3.06559059E-07
  -2.40499992E-02   2.78780249E-07
  -2.40000002E-02   2.99015966E-07
  -2.39499994E-02   3.93267214E-07
  -2.39000004E-02   5.56432440E-07
  -2.38499995E-02   7.53726681E-07
  -2.38000005E-02   9.35466289E-07
  -2.37499997E-02   1.05892559E-06
  -2.37000007E-02   1.10763142E-06
  -2.36499999E-02   1.09936786E-06
  -2.36000009E-02   1.07900348E-06
  -2.35500000E-02   1.09897678E-06
  -2.34999992E-02   1.19589083E-06
  -2.34500002E-02   1.37362497E-06
  -2.33999994E-02   1.60070920E-06
  -2.33500004E-02   1.82349140E-06
  -2.32999995E-02   1.98957696E-06
  -2.32500006E-02   2.07127005E-06
  -2.31999997E-02   2.07849803E-06
  -2.31500007E-02   2.05516812E-06
  -2.30999999E-02   2.06019513E-06
  -2.30500009E-02   2.14135798E-06
  -2.30000000E-02   2.31354056E-06
  -2.29499992E-02   2.55122927E-06
  -2.29000002E-02   2.79896062E-06
  -2.28499994E-02   2.99544945E-06
  -2.28000004E-02   3.10088035E-06
  -2.27499995E-02   3.11519511E-06
  -2.27000006E-02   3.07896516E-06
  -2.26499997E-02   3.05607136E-06
  -2.26000007E-02   3.10556061E-06
  -2.25499999E-02   3.25505835E-06
  -2.25000009E-02   3.48769754E-06
  -2.24500000E-02   3.74871593E-06
  -2.23999992E-02   3.96919268E-06
  -2.23500002E-02   4.09663926E-06
  -2.22999994E-02   4.11887231E-06
  -2.22500004E-02   4.07032576E-06
  -2.21999995E-02   4.01759598E-06
  -2.21500006E-02   4.03028662E-06
  -2.20999997E-02   4.14990200E-06
  -2.20500007E-02   4.37071412E-06
  -2.19999999E-02   4.64142249E-06
  -2.19500009E-02   4.88727073E-06
  -2.19000001E-02   5.04312993E-06
  -2.18499992E-02   5.08293851E-06
  -2.18000002E-02   5.03221872E-06
  -2.17499994E-02   4.95774384E-06
  -2.17000004E-02   4.93852940E-06
  -2.16499995E-02   5.03078445E-06
  -2.16000006E-02   5.24242387E-06
  -2.15499997E-02   5.52871552E-06
  -2.15000007E-02   5.81143377E-06
  -2.14499999E-02   6.01337433E-06
  -2.14000009E-02   6.09303788E-06
  -2.13500001E-02   6.06396770E-06
  -2.12999992E-02   5.98980569E-06
  -2.12500002E-02   5.95683468E-06
  -2.11999994E-02   6.03589933E-06
  -2.11500004E-02   6.25058146E-06
  -2.10999995E-02   6.56596058E-06
  -2.10500006E-02   6.90334855E-06
  -2.09999997E-02   7.17488456E-06
  -2.09500007E-02   7.32281023E-06
  -2.08999999E-02   7.34594005E-06
  -2.08500009E-02   7.30128068E-06
  -2.08000001E-02   7.27962833E-06
  -2.07499992E-02   7.36567335E-06
  -2.07000002E-02   7.60018702E-06
  -2.06499994E-02   7.96123823E-06
  -2.06000004E-02   8.37316747E-06
  -2.05499995E-02   8.73968747E-06
  -2.05000006E-02   8.98675262E-06
  -2.04499997E-02   9.09612936E-06
  -2.04000007E-02   9.11451571E-06
  -2.03499999E-02   9.13375334E-06
  -2.03000009E-02   9.25055065E-06
  -2.02500001E-02   9.52344999E-06
  -2.01999992E-02   9.94617221E-06
  -2.01500002E-02   1.04495366E-05
  -2.00999994E-02   1.09315479E-05
  -2.00500004E-02   1.13025608E-05
  -1.99999996E-02   1.15255889E-05
  -1.99500006E-02   1.16336505E-05
  -1.98999997E-02   1.17160889E-05
  -1.98500007E-02   1.18795178E-05
  -1.97999999E-02   1.22005231E-05
  -1.97500009E-02   1.26911355E-05
  -1.97000001E-02   1.32926461E-05
  -1.96499992E-02   1.39009171E-05
  -1.96000002E-02   1.44123233E-05
  -1.95499994E-02   1.47700493E-05
  -1.95000004E-02   1.49901261E-05
  -1.94499996E-02   1.51552631E-05
  -1.94000006E-02   1.53787969E-05
  -1.93499997E-02   1.57545510E-05
  -1.93000007E-02   1.63147797E-05
  -1.92499999E-02   1.70150179E-05
  -1.92000009E-02   1.77530146E-05
  -1.91500001E-02   1.84136770E-05
  -1.90999992E-02   1.89202856E-05
  -1.90500002E-02   1.92691950E-05
  -1.89999994E-02   1.95323537E-05
  -1.89500004E-02   1.98261878E-05
  -1.88999996E-02   2.02602478E-05
  -1.88500006E-02   2.08883357E-05
  -1.87999997E-02   2.16840526E-05
  -1.87500007E-02   2.25517833E-05
  -1.86999999E-02   2.33686224E-05
  -1.86500009E-02   2.40389854E-05
  -1.86000001E-02   2.45376541E-05
  -1.85499992E-02   2.49218938E-05
  -1.85000002E-02   2.53068574E-05
  -1.84499994E-02   2.58149666E-05
  -1.84000004E-02   2.65216058E-05
  -1.83499996E-02   2.74211561E-05
  -1.83000006E-02   2.84288399E-05
  -1.82499997E-02   2.94178481E-05
  -1.82000007E-02   3.02756289E-05
  -1.81499999E-02   3.09543393E-05
  -1.81000009E-02   3.14929421E-05
  -1.80500001E-02   3.20009894E-05
  -1.79999992E-02   3.26107038E-05
  -1.79500002E-02   3.34184624E-05
  -1.78999994E-02   3.44418659E-05
  -1.78500004E-02   3.56114288E-05
  -1.77999996E-02   3.68009350E-05
  -1.77500006E-02   3.78834775E-05
  -1.76999997E-02   3.87882174E-05
  -1.76500008E-02   3.95326460E-05
  -1.75999999E-02   4.02159712E-05
  -1.75500009E-02   4.09759668E-05
  -1.75000001E-02   4.19282878E-05
  -1.74499992E-02   4.31151384E-05
  -1.74000002E-02   4.44861616E-05
  -1.73499994E-02   4.59204202E-05
  -1.73000004E-02   4.72799838E-05
  -1.72499996E-02   4.84714728E-05
  -1.72000006E-02   4.94883025E-05
  -1.71499997E-02   5.04146192E-05
  -1.71000008E-02   5.13888772E-05
  -1.70499999E-02   5.25430551E-05
  -1.70000009E-02   5.39442663E-05
  -1.69500001E-02   5.55648403E-05
  -1.68999992E-02   5.72943500E-05
  -1.68500002E-02   5.89884803E-05
  -1.67999994E-02   6.05334099E-05
  -1.67500004E-02   6.18970444E-05
  -1.66999996E-02   6.31442090E-05
  -1.66500006E-02   6.44088504E-05
  -1.65999997E-02   6.58353092E-05
  -1.65500008E-02   6.75146512E-05
  -1.64999999E-02   6.94442788E-05
  -1.64500009E-02   7.15288843E-05
  -1.64000001E-02   7.36224829E-05
  -1.63499992E-02   7.55935544E-05
  -1.63000003E-02   7.73840075E-05
  -1.62499994E-02   7.90356280E-05
  -1.62000004E-02   8.06726457E-05
  -1.61499996E-02   8.24474337E-05
  -1.61000006E-02   8.44732931E-05
  -1.60499997E-02   8.67741837E-05
  -1.60000008E-02   8.92741591E-05
  -1.59499999E-02   9.18309597E-05
  -1.59000009E-02   9.42990810E-05
  -1.58500001E-02   9.65949439E-05
  -1.57999992E-02   9.87348176E-05
  -1.57500003E-02   1.00828445E-04
  -1.56999994E-02   1.03031285E-04
  -1.56500004E-02   1.05476167E-04
  -1.55999996E-02   1.08214495E-04
  -1.55499997E-02   1.11193505E-04
  -1.54999997E-02   1.14279414E-04
  -1.54499998E-02   1.17316995E-04
  -1.53999999E-02   1.20198725E-04
  -1.53500000E-02   1.22913130E-04
  -1.53000001E-02   1.25550621E-04
  -1.52500002E-02   1.28264262E-04
  -1.52000003E-02   1.31202600E-04
  -1.51500003E-02   1.34443821E-04
  -1.51000004E-02   1.37961484E-04
  -1.50499996E-02   1.41636192E-04
  -1.49999997E-02   1.45308746E-04
  -1.49499997E-02   1.48850988E-04
  -1.48999998E-02   1.52223278E-04
  -1.48499999E-02   1.55492744E-04
  -1.48000000E-02   1.58804149E-04
  -1.47500001E-02   1.62316574E-04
  -1.47000002E-02   1.66133468E-04
  -1.46500003E-02   1.70256855E-04
  -1.46000003E-02   1.74586603E-04
  -1.45500004E-02   1.78965114E-04
  -1.44999996E-02   1.83247699E-04
  -1.44499997E-02   1.87366764E-04
  -1.43999998E-02   1.91362560E-04
  -1.43499998E-02   1.95366811E-04
  -1.42999999E-02   1.99544418E-04
  -1.42500000E-02   2.04020922E-04
  -1.42000001E-02   2.08827754E-04
  -1.41500002E-02   2.13888372E-04
  -1.41000003E-02   2.19052454E-04
  -1.40500003E-02   2.24162926E-04
  -1.40000004E-02   2.29126366E-04
  -1.39499996E-02   2.33955099E-04
  -1.38999997E-02   2.38762164E-04
  -1.38499998E-02   2.43712697E-04
  -1.37999998E-02   2.48951226E-04
  -1.37499999E-02   2.54538376E-04
  -1.37000000E-02   2.60424713E-04
  -1.36500001E-02   2.66472169E-04
  -1.36000002E-02   2.72516918E-04
  -1.35500003E-02   2.78441876E-04
  -1.35000004E-02   2.84229056E-04
  -1.34500004E-02   2.89968448E-04
  -1.33999996E-02   2.95819482E-04
  -1.33499997E-02   3.01940774E-04
  -1.32999998E-02   3.08420975E-04
  -1.32499998E-02   3.15240235E-04
  -1.31999999E-02   3.22279404E-04
  -1.31500000E-02   3.29373492E-04
  -1.31000001E-02   3.36385274E-04
  -1.30500002E-02   3.43267020E-04
  -1.30000003E-02   3.50081653E-04
  -1.29500004E-02   3.56976350E-04
  -1.29000004E-02   3.64118256E-04
  -1.28499996E-02   3.71620612E-04
  -1.27999997E-02   3.79494450E-04
  -1.27499998E-02   3.87644221E-04
  -1.26999998E-02   3.95910261E-04
  -1.26499999E-02   4.04140679E-04
  -1.26000000E-02   4.12258581E-04
  -1.25500001E-02   4.20297612E-04
  -1.25000002E-02   4.28387575E-04
  -1.24500003E-02   4.36697504E-04
  -1.24000004E-02   4.45361919E-04
  -1.23500004E-02   4.54421883E-04
  -1.22999996E-02   4.63808450E-04
  -1.22499997E-02   4.73372405E-04
  -1.21999998E-02   4.82950505E-04
  -1.21499998E-02   4.92439605E-04
  -1.20999999E-02   5.01842820E-04
  -1.20500000E-02   5.11267514E-04
  -1.20000001E-02   5.20880101E-04
  -1.19500002E-02   5.30833378E-04
  -1.19000003E-02   5.41200221E-04
  -1.18500004E-02   5.51942212E-04
  -1.18000004E-02   5.62925998E-04
  -1.17499996E-02   5.73983765E-04
  -1.16999997E-02   5.84988098E-04
  -1.16499998E-02   5.95908845E-04
  -1.15999999E-02   6.06826798E-04
  -1.15499999E-02   6.17897720E-04
  -1.15000000E-02   6.29283779E-04
  -1.14500001E-02   6.41082763E-04
  -1.14000002E-02   6.53286814E-04
  -1.13500003E-02   6.65786327E-04
  -1.13000004E-02   6.78417389E-04
  -1.12500004E-02   6.91034715E-04
  -1.11999996E-02   7.03578058E-04
  -1.11499997E-02   7.16099690E-04
  -1.10999998E-02   7.28741463E-04
  -1.10499999E-02   7.41673983E-04
  -1.09999999E-02   7.55022862E-04
  -1.09500000E-02   7.68813246E-04
  -1.09000001E-02   7.82958523E-04
  -1.08500002E-02   7.97298911E-04
  -1.08000003E-02   8.11673119E-04
  -1.07500004E-02   8.25987838E-04
  -1.07000005E-02   8.40259483E-04
  -1.06499996E-02   8.54608952E-04
  -1.05999997E-02   8.69205629E-04
  -1.05499998E-02   8.84195615E-04
  -1.04999999E-02   8.99638806E-04
  -1.04499999E-02   9.15480312E-04
  -1.04000000E-02   9.31577932E-04
  -1.03500001E-02   9.47764143E-04
  -1.03000002E-02   9.63921135E-04
  -1.02500003E-02   9.80032841E-04
  -1.02000004E-02   9.96190822E-04
  -1.01500005E-02   1.01255777E-03
  -1.00999996E-02   1.02929503E-03
  -1.00499997E-02   1.04649179E-03
  -9.99999978E-03   1.06412813E-03
  -9.94999986E-03   1.08208216E-03
  -9.89999995E-03   1.10018416E-03
  -9.85000003E-03   1.11829338E-03
  -9.80000012E-03   1.13635673E-03
  -9.75000020E-03   1.15443498E-03
  -9.70000029E-03   1.17267459E-03
  -9.65000037E-03   1.19124353E-03
  -9.60000046E-03   1.21026312E-03
  -9.54999961E-03   1.22974755E-03
  -9.49999969E-03   1.24959648E-03
  -9.44999978E-03   1.26964739E-03
  -9.39999986E-03   1.28974114E-03
  -9.34999995E-03   1.30979053E-03
  -9.30000003E-03   1.32982165E-03
  -9.25000012E-03   1.34996208E-03
  -9.20000020E-03   1.37038610E-03
  -9.15000029E-03   1.39123632E-03
  -9.10000037E-03   1.41256663E-03
  -9.05000046E-03   1.43431767E-03
  -8.99999961E-03   1.45633903E-03
  -8.94999970E-03   1.47845887E-03
  -8.89999978E-03   1.50055613E-03
  -8.84999987E-03   1.52261590E-03
  -8.79999995E-03   1.54473819E-03
  -8.75000004E-03   1.56708900E-03
  -8.70000012E-03   1.58982712E-03
  -8.65000021E-03   1.61303522E-03
  -8.60000029E-03   1.63668324E-03
  -8.55000038E-03   1.66063849E-03
  -8.50000046E-03   1.68472691E-03
  -8.44999962E-03   1.70880870E-03
  -8.39999970E-03   1.73283042E-03
  -8.34999979E-03   1.75685191E-03
  -8.29999987E-03   1.78102369E-03
  -8.24999996E-03   1.80551724E-03
  -8.20000004E-03   1.83045096E-03
  -8.15000013E-03   1.85583346E-03
  -8.10000021E-03   1.88156171E-03
  -8.05000030E-03   1.90747029E-03
  -8.00000038E-03   1.93339528E-03
  -7.95000046E-03   1.95924425E-03
  -7.89999962E-03   1.98503933E-03
  -7.84999970E-03   2.01090705E-03
  -7.79999979E-03   2.03702552E-03
  -7.74999987E-03   2.06354284E-03
  -7.69999996E-03   2.09050858E-03
  -7.65000004E-03   2.11785384E-03
  -7.60000013E-03   2.14541261E-03
  -7.55000021E-03   2.17299047E-03
  -7.49999983E-03   2.20045005E-03
  -7.44999992E-03   2.22777110E-03
  -7.40000000E-03   2.25505792E-03
  -7.35000009E-03   2.28248537E-03
  -7.30000017E-03   2.31022644E-03
  -7.24999979E-03   2.33837473E-03
  -7.19999988E-03   2.36689858E-03
  -7.14999996E-03   2.39565782E-03
  -7.10000005E-03   2.42445245E-03
  -7.05000013E-03   2.45310622E-03
  -7.00000022E-03   2.48154835E-03
  -6.94999984E-03   2.50984193E-03
  -6.89999992E-03   2.53815344E-03
  -6.85000001E-03   2.56667961E-03
  -6.80000009E-03   2.59555737E-03
  -6.75000018E-03   2.62479763E-03
  -6.69999979E-03   2.65428727E-03
  -6.64999988E-03   2.68382160E-03
  -6.59999996E-03   2.71318085E-03
  -6.55000005E-03   2.74224184E-03
  -6.50000013E-03   2.77102762E-03
  -6.45000022E-03   2.79968814E-03
  -6.39999984E-03   2.82842945E-03
  -6.34999992E-03   2.85742409E-03
  -6.30000001E-03   2.88673234E-03
  -6.25000009E-03   2.91626621E-03
  -6.20000018E-03   2.94582359E-03
  -6.14999980E-03   2.97516934E-03
  -6.09999988E-03   3.00413277E-03
  -6.04999997E-03   3.03268153E-03
  -6.00000005E-03   3.06093413E-03
  -5.95000014E-03   3.08909477E-03
  -5.90000022E-03   3.11736926E-03
  -5.84999984E-03   3.14587774E-03
  -5.79999993E-03   3.17458389E-03
  -5.75000001E-03   3.20330355E-03
  -5.70000010E-03   3.23178526E-03
  -5.65000018E-03   3.25981248E-03
  -5.59999980E-03   3.28728603E-03
  -5.54999989E-03   3.31427553E-03
  -5.49999997E-03   3.34098353E-03
  -5.45000006E-03   3.36764520E-03
  -5.40000014E-03   3.39442026E-03
  -5.35000023E-03   3.42132431E-03
  -5.29999984E-03   3.44821485E-03
  -5.24999993E-03   3.47482460E-03
  -5.20000001E-03   3.50087904E-03
  -5.15000010E-03   3.52621824E-03
  -5.10000018E-03   3.55085963E-03
  -5.04999980E-03   3.57498182E-03
  -4.99999989E-03   3.59883998E-03
  -4.94999997E-03   3.62265739E-03
  -4.90000006E-03   3.64651717E-03
  -4.85000014E-03   3.67030222E-03
  -4.80000023E-03   3.69374058E-03
  -4.74999985E-03   3.71653377E-03
  -4.69999993E-03   3.73846642E-03
  -4.65000002E-03   3.75949591E-03
  -4.60000010E-03   3.77976382E-03
  -4.55000019E-03   3.79952276E-03
  -4.49999981E-03   3.81904165E-03
  -4.44999989E-03   3.83846182E-03
  -4.39999998E-03   3.85771506E-03
  -4.35000006E-03   3.87654942E-03
  -4.30000015E-03   3.89464642E-03
  -4.25000023E-03   3.91172990E-03
  -4.19999985E-03   3.92766856E-03
  -4.14999994E-03   3.94256413E-03
  -4.10000002E-03   3.95666994E-03
  -4.05000011E-03   3.97027191E-03
  -4.00000019E-03   3.98358051E-03
  -3.94999981E-03   3.99661297E-03
  -3.89999989E-03   4.00916161E-03
  -3.84999998E-03   4.02087113E-03
  -3.80000006E-03   4.03139228E-03
  -3.74999992E-03   4.04052390E-03
  -3.70000000E-03   4.04827995E-03
  -3.65000009E-03   4.05489095E-03
  -3.59999994E-03   4.06071311E-03
  -3.55000002E-03   4.06603562E-03
  -3.50000011E-03   4.07094881E-03
  -3.44999996E-03   4.07527480E-03
  -3.40000005E-03   4.07864759E-03
  -3.34999990E-03   4.08067089E-03
  -3.29999998E-03   4.08104714E-03
  -3.25000007E-03   4.07972094E-03
  -3.19999992E-03   4.07688692E-03
  -3.15000000E-03   4.07290785E-03
  -3.10000009E-03   4.06814739E-03
  -3.04999994E-03   4.06278810E-03
  -3.00000003E-03   4.05671727E-03
  -2.95000011E-03   4.04956704E-03
  -2.89999996E-03   4.04089876E-03
  -2.85000005E-03   4.03032778E-03
  -2.79999990E-03   4.01770463E-03
  -2.74999999E-03   4.00317600E-03
  -2.70000007E-03   3.98709811E-03
  -2.64999992E-03   3.96988448E-03
  -2.60000001E-03   3.95182101E-03
  -2.55000009E-03   3.93290119E-03
  -2.49999994E-03   3.91281117E-03
  -2.45000003E-03   3.89105408E-03
  -2.40000011E-03   3.86713748E-03
  -2.34999997E-03   3.84080200E-03
  -2.30000005E-03   3.81213077E-03
  -2.24999990E-03   3.78149142E-03
  -2.19999999E-03   3.74935078E-03
  -2.15000007E-03   3.71608138E-03
  -2.09999993E-03   3.68176750E-03
  -2.05000001E-03   3.64614371E-03
  -2.00000009E-03   3.60870012E-03
  -1.94999995E-03   3.56888399E-03
  -1.90000003E-03   3.52632091E-03
  -1.85000000E-03   3.48097086E-03
  -1.79999997E-03   3.43316654E-03
  -1.75000005E-03   3.38342949E-03
  -1.70000002E-03   3.33222840E-03
  -1.64999999E-03   3.27977468E-03
  -1.59999996E-03   3.22588393E-03
  -1.55000004E-03   3.17002530E-03
  -1.50000001E-03   3.11156735E-03
  -1.44999998E-03   3.05001996E-03
  -1.39999995E-03   2.98522902E-03
  -1.35000004E-03   2.91745923E-03
  -1.30000000E-03   2.84728850E-03
  -1.24999997E-03   2.77529750E-03
  -1.20000006E-03   2.70179939E-03
  -1.15000003E-03   2.62671546E-03
  -1.09999999E-03   2.54955911E-03
  -1.04999996E-03   2.46962998E-03
  -1.00000005E-03   2.38631247E-03
  -9.50000016E-04   2.29932624E-03
  -8.99999985E-04   2.20884010E-03
  -8.50000011E-04   2.11542496E-03
  -7.99999980E-04   2.01977929E-03
  -7.50000007E-04   1.92237098E-03
  -6.99999975E-04   1.82321435E-03
  -6.50000002E-04   1.72186946E-03
  -6.00000028E-04   1.61756633E-03
  -5.49999997E-04   1.50955480E-03
  -5.00000024E-04   1.39743940E-03
  -4.49999992E-04   1.28131360E-03
  -3.99999990E-04   1.16172445E-03
  -3.49999988E-04   1.03943632E-03
  -3.00000014E-04   9.15064069E-04
  -2.50000012E-04   7.88788020E-04
  -1.99999995E-04   6.60232385E-04
  -1.50000007E-04   5.28600125E-04
  -9.99999975E-05   3.93056660E-04
  -4.99999987E-05   2.53047445E-04
   0.00000000       1.08513777E-04
   4.99999987E-05  -4.00532263E-05
   9.99999975E-05  -1.91830768E-04
   1.50000007E-04  -3.46080080E-04
   1.99999995E-04  -5.02450508E-04
   2.50000012E-04  -6.61168655E-04
   3.00000014E-04  -8.22974311E-04
   3.49999988E-04  -9.88820102E-04
   3.99999990E-04  -1.15949509E-03
   4.49999992E-04  -1.33521168E-03
   5.00000024E-04  -1.51554833E-03
   5.49999997E-04  -1.69966347E-03
   6.00000028E-04  -1.88664405E-03
   6.50000002E-04  -2.07593036E-03
   6.99999975E-04  -2.26760400E-03
   7.50000007E-04  -2.46238383E-03
   7.99999980E-04  -2.66130525E-03
   8.50000011E-04  -2.86529353E-03
   8.99999985E-04  -3.07473936E-03
   9.50000016E-04  -3.28934542E-03
   1.00000005E-03  -3.50829749E-03
   1.04999996E-03  -3.73056135E-03
   1.09999999E-03  -3.95537307E-03
   1.15000003E-03  -4.18264326E-03
   1.20000006E-03  -4.41297283E-03
   1.24999997E-03  -4.64741327E-03
   1.30000000E-03  -4.88705374E-03
   1.35000004E-03  -5.13248891E-03
   1.39999995E-03  -5.38355578E-03
   1.44999998E-03  -5.63949207E-03
   1.50000001E-03  -5.89921745E-03
   1.55000004E-03  -6.16178568E-03
   1.59999996E-03  -6.42689550E-03
   1.64999999E-03  -6.69499021E-03
   1.70000002E-03  -6.96711475E-03
   1.75000005E-03  -7.24447379E-03
   1.79999997E-03  -7.52785616E-03
   1.85000000E-03  -7.81733636E-03
   1.90000003E-03  -8.11221823E-03
   1.94999995E-03  -8.41135252E-03
   2.00000009E-03  -8.71364772E-03
   2.05000001E-03  -9.01853479E-03
   2.09999993E-03  -9.32624470E-03
   2.15000007E-03  -9.63774417E-03
   2.19999999E-03  -9.95429140E-03
   2.24999990E-03  -1.02768941E-02
   2.30000005E-03  -1.06059033E-02
   2.34999997E-03  -1.09407995E-02
   2.40000011E-03  -1.12804295E-02
   2.45000003E-03  -1.16235437E-02
   2.49999994E-03  -1.19693363E-02
   2.55000009E-03  -1.23178056E-02
   2.60000001E-03  -1.26697598E-02
   2.64999992E-03  -1.30265001E-02
   2.70000007E-03  -1.33892344E-02
   2.74999999E-03  -1.37585327E-02
   2.79999990E-03  -1.41340699E-02