  -3.99999991E-02   0.00000000    
  -3.99499983E-02   0.00000000    
  -3.99000011E-02   0.00000000    
  -3.98500003E-02   4.49709962E-16
  -3.97999994E-02   2.17424167E-15
  -3.97499986E-02   5.55739037E-15
  -3.97000015E-02   1.01871560E-14
  -3.96500006E-02   1.58269732E-14
  -3.95999998E-02   2.35401366E-14
  -3.95499989E-02   3.50261304E-14
  -3.95000018E-02   5.04107932E-14
  -3.94500010E-02   6.72958935E-14
  -3.94000001E-02   8.29779903E-14
  -3.93499993E-02   9.77881919E-14
  -3.92999984E-02   1.15437025E-13
  -3.92500013E-02   1.39364445E-13
  -3.92000005E-02   1.69089813E-13
  -3.91499996E-02   2.01031683E-13
  -3.90999988E-02   2.32992309E-13
  -3.90500017E-02   2.66760301E-13
  -3.90000008E-02   3.05353182E-13
  -3.89500000E-02   3.48221452E-13
  -3.88999991E-02   3.90739199E-13
  -3.88499983E-02   4.29190076E-13
  -3.88000011E-02   4.65220419E-13
  -3.87500003E-02   5.03730141E-13
  -3.86999995E-02   5.46129331E-13
  -3.86499986E-02   5.87158252E-13
  -3.86000015E-02   6.19730179E-13
  -3.85500006E-02   6.42431312E-13
  -3.84999998E-02   6.60486639E-13
  -3.84499989E-02   6.78507380E-13
  -3.84000018E-02   6.93453107E-13
  -3.83500010E-02   6.96404794E-13
  -3.83000001E-02   6.81247701E-13
  -3.82499993E-02   6.49878046E-13
  -3.81999984E-02   6.07748335E-13
  -3.81500013E-02   5.55546494E-13
  -3.81000005E-02   4.87691484E-13
  -3.80499996E-02   3.99671615E-13
  -3.79999988E-02   2.94624758E-13
  -3.79500017E-02   1.79783570E-13
  -3.79000008E-02   5.59261804E-14
  -3.78500000E-02  -8.74535158E-14
  -3.77999991E-02  -2.64302794E-13
  -3.77499983E-02  -4.79415173E-13
  -3.77000012E-02  -7.25095331E-13
  -3.76500003E-02  -9.90642789E-13
  -3.75999995E-02  -1.27348327E-12
  -3.75499986E-02  -1.57948535E-12
  -3.75000015E-02  -1.91352685E-12
  -3.74500006E-02  -2.27301272E-12
  -3.73999998E-02  -2.65244033E-12
  -3.73499990E-02  -3.05218914E-12
  -3.73000018E-02  -3.47851977E-12
  -3.72500010E-02  -3.93267927E-12
  -3.72000001E-02  -4.40190289E-12
  -3.71499993E-02  -4.86499729E-12
  -3.70999984E-02  -5.30903143E-12
  -3.70500013E-02  -5.74018307E-12
  -3.70000005E-02  -6.17729218E-12
  -3.69499996E-02  -6.63515076E-12
  -3.68999988E-02  -7.11449693E-12
  -3.68500017E-02  -7.60615442E-12
  -3.68000008E-02  -8.10007703E-12
  -3.67500000E-02  -8.58658977E-12
  -3.66999991E-02  -9.05022758E-12
  -3.66499983E-02  -9.46867845E-12
  -3.66000012E-02  -9.82420222E-12
  -3.65500003E-02  -1.01180410E-11
  -3.64999995E-02  -1.03708700E-11
  -3.64499986E-02  -1.06050438E-11
  -3.64000015E-02  -1.08238236E-11
  -3.63500006E-02  -1.10065802E-11
  -3.62999998E-02  -1.11227199E-11
  -3.62499990E-02  -1.11491259E-11
  -3.62000018E-02  -1.10758347E-11
  -3.61500010E-02  -1.09006502E-11
  -3.61000001E-02  -1.06249575E-11
  -3.60499993E-02  -1.02569958E-11
  -3.59999985E-02  -9.81448343E-12
  -3.59500013E-02  -9.31570186E-12
  -3.59000005E-02  -8.76199287E-12
  -3.58499996E-02  -8.12856987E-12
  -3.57999988E-02  -7.37627494E-12
  -3.57500017E-02  -6.47695612E-12
  -3.57000008E-02  -5.43106489E-12
  -3.56500000E-02  -4.26345504E-12
  -3.55999991E-02  -3.00401913E-12
  -3.55499983E-02  -1.67134633E-12
  -3.55000012E-02  -2.69556513E-13
  -3.54500003E-02   1.20744701E-12
  -3.53999995E-02   2.77425110E-12
  -3.53499986E-02   4.45444810E-12
  -3.53000015E-02   6.27381480E-12
  -3.52500007E-02   8.24245880E-12
  -3.51999998E-02   1.03379319E-11
  -3.51499990E-02   1.25068853E-11
  -3.51000018E-02   1.46893418E-11
  -3.50500010E-02   1.68488071E-11
  -3.50000001E-02   1.89855597E-11
  -3.49499993E-02   2.11253098E-11
  -3.48999985E-02   2.32958566E-11
  -3.48500013E-02   2.55098009E-11
  -3.48000005E-02   2.77596297E-11
  -3.47499996E-02   3.00185779E-11
  -3.46999988E-02   3.22411542E-11
  -3.46500017E-02   3.43675782E-11
  -3.46000008E-02   3.63396327E-11
  -3.45500000E-02   3.81245938E-11
  -3.44999991E-02   3.97300283E-11
  -3.44499983E-02   4.11935555E-11
  -3.44000012E-02   4.25510426E-11
  -3.43500003E-02   4.38055738E-11
  -3.42999995E-02   4.49190164E-11
  -3.42499986E-02   4.58282370E-11
  -3.42000015E-02   4.64692070E-11
  -3.41500007E-02   4.67918447E-11
  -3.40999998E-02   4.67633293E-11
  -3.40499990E-02   4.63685167E-11
  -3.40000018E-02   4.56113723E-11
  -3.39500010E-02   4.45103156E-11
  -3.39000002E-02   4.30803067E-11
  -3.38499993E-02   4.13093622E-11
  -3.37999985E-02   3.91498049E-11
  -3.37500013E-02   3.65371101E-11
  -3.37000005E-02   3.34254603E-11
  -3.36499996E-02   2.98126350E-11
  -3.35999988E-02   2.57356862E-11
  -3.35500017E-02   2.12444454E-11
  -3.35000008E-02   1.63764072E-11
  -3.34500000E-02   1.11482421E-11
  -3.33999991E-02   5.55909962E-12
  -3.33499983E-02  -4.07002015E-13
  -3.33000012E-02  -6.78072138E-12
  -3.32500003E-02  -1.35973611E-11
  -3.31999995E-02  -2.08715562E-11
  -3.31499986E-02  -2.85715271E-11
  -3.31000015E-02  -3.66180593E-11
  -3.30500007E-02  -4.49153874E-11
  -3.29999998E-02  -5.33920790E-11
  -3.29499990E-02  -6.20195006E-11
  -3.29000019E-02  -7.07965075E-11
  -3.28500010E-02  -7.97199737E-11
  -3.28000002E-02  -8.87675142E-11
  -3.27499993E-02  -9.78985920E-11
  -3.26999985E-02  -1.07058626E-10
  -3.26500013E-02  -1.16173425E-10
  -3.26000005E-02  -1.25143340E-10
  -3.25499997E-02  -1.33855788E-10
  -3.24999988E-02  -1.42217155E-10
  -3.24500017E-02  -1.50178023E-10
  -3.24000008E-02  -1.57725583E-10
  -3.23500000E-02  -1.64846733E-10
  -3.22999991E-02  -1.71495262E-10
  -3.22499983E-02  -1.77591636E-10
  -3.22000012E-02  -1.83049492E-10
  -3.21500003E-02  -1.87797874E-10
  -3.20999995E-02  -1.91778968E-10
  -3.20499986E-02  -1.94933458E-10
  -3.20000015E-02  -1.97198979E-10
  -3.19500007E-02  -1.98526251E-10
  -3.18999998E-02  -1.98889821E-10
  -3.18499990E-02  -1.98273065E-10
  -3.18000019E-02  -1.96638664E-10
  -3.17500010E-02  -1.93918243E-10
  -3.17000002E-02  -1.90037708E-10
  -3.16499993E-02  -1.84956009E-10
  -3.15999985E-02  -1.78678600E-10
  -3.15500014E-02  -1.71233222E-10
  -3.15000005E-02  -1.62635863E-10
  -3.14499997E-02  -1.52882304E-10
  -3.13999988E-02  -1.41968062E-10
  -3.13500017E-02  -1.29907349E-10
  -3.13000008E-02  -1.16727281E-10
  -3.12500000E-02  -1.02449001E-10
  -3.11999992E-02  -8.70865324E-11
  -3.11500002E-02  -7.06727593E-11
  -3.10999993E-02  -5.32843006E-11
  -3.10500003E-02  -3.50333304E-11
  -3.09999995E-02  -1.60286315E-11
  -3.09500005E-02   3.65525448E-12
  -3.08999997E-02   2.39692155E-11
  -3.08500007E-02   4.48528610E-11
  -3.07999998E-02   6.62113420E-11
  -3.07500008E-02   8.79287060E-11
  -3.07000000E-02   1.09898028E-10
  -3.06499992E-02   1.32030678E-10
  -3.06000002E-02   1.54236332E-10
  -3.05499993E-02   1.76401185E-10
  -3.05000003E-02   1.98393732E-10
  -3.04499995E-02   2.20089794E-10
  -3.04000005E-02   2.41381692E-10
  -3.03499997E-02   2.62153771E-10
  -3.03000007E-02   2.82249668E-10
  -3.02499998E-02   3.01472375E-10
  -3.02000009E-02   3.19625826E-10
  -3.01500000E-02   3.36561862E-10
  -3.00999992E-02   3.52188528E-10
  -3.00500002E-02   3.66437880E-10
  -2.99999993E-02   3.79229620E-10
  -2.99500003E-02   3.90463495E-10
  -2.98999995E-02   4.00033923E-10
  -2.98500005E-02   4.07835932E-10
  -2.97999997E-02   4.13751006E-10
  -2.97500007E-02   4.17636037E-10
  -2.96999998E-02   4.19345864E-10
  -2.96500009E-02   4.18780677E-10
  -2.96000000E-02   4.15915885E-10
  -2.95499992E-02   4.10780771E-10
  -2.95000002E-02   4.03400369E-10
  -2.94499993E-02   3.93750199E-10
  -2.94000003E-02   3.81758097E-10
  -2.93499995E-02   3.67339159E-10
  -2.93000005E-02   3.50426160E-10
  -2.92499997E-02   3.30975913E-10
  -2.92000007E-02   3.08970322E-10
  -2.91499998E-02   2.84431673E-10
  -2.91000009E-02   2.57444871E-10
  -2.90500000E-02   2.28152761E-10
  -2.89999992E-02   1.96709732E-10
  -2.89500002E-02   1.63223712E-10
  -2.88999993E-02   1.27735905E-10
  -2.88500004E-02   9.02585090E-11
  -2.87999995E-02   5.08381462E-11
  -2.87500005E-02   9.59469136E-12
  -2.86999997E-02  -3.32870467E-11
  -2.86500007E-02  -7.75899414E-11
  -2.85999998E-02  -1.23088664E-10
  -2.85500009E-02  -1.69561531E-10
  -2.85000000E-02  -2.16805865E-10
  -2.84499992E-02  -2.64664596E-10
  -2.84000002E-02  -3.13038956E-10
  -2.83499993E-02  -3.61856489E-10
  -2.83000004E-02  -4.10998791E-10
  -2.82499995E-02  -4.60238014E-10
  -2.82000005E-02  -5.09234488E-10
  -2.81499997E-02  -5.57600410E-10
  -2.81000007E-02  -6.04984673E-10
  -2.80499998E-02  -6.51124210E-10
  -2.80000009E-02  -6.95845104E-10
  -2.79500000E-02  -7.39034722E-10
  -2.78999992E-02  -7.80608800E-10
  -2.78500002E-02  -8.20473800E-10
  -2.77999993E-02  -8.58475235E-10
  -2.77500004E-02  -8.94349261E-10
  -2.76999995E-02  -9.27718069E-10
  -2.76500005E-02  -9.58159996E-10
  -2.75999997E-02  -9.85325044E-10
  -2.75500007E-02  -1.00902497E-09
  -2.74999999E-02  -1.02923980E-09
  -2.74500009E-02  -1.04604370E-09
  -2.74000000E-02  -1.05950460E-09
  -2.73499992E-02  -1.06961562E-09
  -2.73000002E-02  -1.07627440E-09
  -2.72499993E-02  -1.07929365E-09
  -2.72000004E-02  -1.07843445E-09
  -2.71499995E-02  -1.07347120E-09
  -2.71000005E-02  -1.06428233E-09
  -2.70499997E-02  -1.05092635E-09
  -2.70000007E-02  -1.03364250E-09
  -2.69499999E-02  -1.01275111E-09
  -2.69000009E-02  -9.88507165E-10
  -2.68500000E-02  -9.61002611E-10
  -2.67999992E-02  -9.30173216E-10
  -2.67500002E-02  -8.95897745E-10
  -2.66999993E-02  -8.58113802E-10
  -2.66500004E-02  -8.16900658E-10
  -2.65999995E-02  -7.72512387E-10
  -2.65500005E-02  -7.25372484E-10
  -2.64999997E-02  -6.76022072E-10
  -2.64500007E-02  -6.25011931E-10
  -2.63999999E-02  -5.72764558E-10
  -2.63500009E-02  -5.19485455E-10
  -2.63000000E-02  -4.65196548E-10
  -2.62499992E-02  -4.09893591E-10
  -2.62000002E-02  -3.53735735E-10
  -2.61499994E-02  -2.97150360E-10
  -2.61000004E-02  -2.40798270E-10
  -2.60499995E-02  -1.85444021E-10
  -2.60000005E-02  -1.31807107E-10
  -2.59499997E-02  -8.04504033E-11
  -2.59000007E-02  -3.17188741E-11
  -2.58499999E-02   1.42593220E-11
  -2.58000009E-02   5.74812906E-11
  -2.57500000E-02   9.78888012E-11
  -2.56999992E-02   1.35166697E-10
  -2.56500002E-02   1.68650038E-10
  -2.55999994E-02   1.97410477E-10
  -2.55500004E-02   2.20488613E-10
  -2.54999995E-02   2.37136172E-10
  -2.54500005E-02   2.46933696E-10
  -2.53999997E-02   2.49755272E-10
  -2.53500007E-02   2.45626630E-10
  -2.52999999E-02   2.34555458E-10
  -2.52500009E-02   2.16375140E-10
  -2.52000000E-02   1.90639116E-10
  -2.51499992E-02   1.56612320E-10
  -2.51000002E-02   1.13404855E-10
  -2.50499994E-02   6.02242006E-11
  -2.50000004E-02  -3.38350810E-12
  -2.49499995E-02  -7.74532036E-11
  -2.49000005E-02  -1.61738178E-10
  -2.48499997E-02  -2.55986010E-10
  -2.48000007E-02  -3.60183522E-10
  -2.47499999E-02  -4.74656703E-10
  -2.47000009E-02  -6.00011874E-10
  -2.46500000E-02  -7.36977424E-10
  -2.45999992E-02  -8.86204943E-10
  -2.45500002E-02  -1.04807796E-09
  -2.44999994E-02  -1.22258226E-09
  -2.44500004E-02  -1.40933487E-09
  -2.43999995E-02  -1.60779845E-09
  -2.43500005E-02  -1.81759896E-09
  -2.42999997E-02  -2.03878736E-09
  -2.42500007E-02  -2.27186514E-09
  -2.41999999E-02  -2.51756926E-09
  -2.41500009E-02  -2.77654610E-09
  -2.41000000E-02  -3.04909187E-09
  -2.40499992E-02  -3.33506645E-09
  -2.40000002E-02  -3.63396047E-09
  -2.39499994E-02  -3.94509003E-09
  -2.39000004E-02  -4.26785318E-09
  -2.38499995E-02  -4.60199434E-09
  -2.38000005E-02  -4.94774222E-09
  -2.37499997E-02  -5.30573852E-09
  -2.37000007E-02  -5.67673375E-09
  -2.36499999E-02  -6.06119999E-09
  -2.36000009E-02  -6.45908349E-09
  -2.35500000E-02  -6.86981716E-09
  -2.34999992E-02  -7.29258254E-09
  -2.34500002E-02  -7.72666020E-09
  -2.33999994E-02  -8.17171308E-09
  -2.33500004E-02  -8.62788863E-09
  -2.32999995E-02  -9.09575082E-09
  -2.32500006E-02  -9.57606794E-09
  -2.31999997E-02  -1.00694955E-08
  -2.31500007E-02  -1.05762776E-08
  -2.30999999E-02  -1.10961116E-08
  -2.30500009E-02  -1.16282592E-08
  -2.30000000E-02  -1.21719275E-08
  -2.29499992E-02  -1.27266588E-08
  -2.29000002E-02  -1.32925724E-08
  -2.28499994E-02  -1.38703129E-08
  -2.28000004E-02  -1.44607695E-08
  -2.27499995E-02  -1.50647246E-08
  -2.27000006E-02  -1.56826054E-08
  -2.26499997E-02  -1.63143632E-08
  -2.26000007E-02  -1.69595786E-08
  -2.25499999E-02  -1.76176673E-08
  -2.25000009E-02  -1.82882705E-08
  -2.24500000E-02  -1.89715355E-08
  -2.23999992E-02  -1.96682191E-08
  -2.23500002E-02  -2.03795043E-08
  -2.22999994E-02  -2.11065601E-08
  -2.22500004E-02  -2.18501341E-08
  -2.21999995E-02  -2.26103616E-08
  -2.21500006E-02  -2.33868942E-08
  -2.20999997E-02  -2.41792115E-08
  -2.20500007E-02  -2.49869831E-08
  -2.19999999E-02  -2.58103547E-08
  -2.19500009E-02  -2.66500422E-08
  -2.19000001E-02  -2.75072534E-08
  -2.18499992E-02  -2.83833970E-08
  -2.18000002E-02  -2.92796472E-08
  -2.17499994E-02  -3.01966026E-08
  -2.17000004E-02  -3.11342134E-08
  -2.16499995E-02  -3.20920428E-08
  -2.16000006E-02  -3.30696963E-08
  -2.15499997E-02  -3.40672521E-08
  -2.15000007E-02  -3.50854137E-08
  -2.14499999E-02  -3.61254209E-08
  -2.14000009E-02  -3.71887161E-08
  -2.13500001E-02  -3.82765784E-08
  -2.12999992E-02  -3.93898318E-08
  -2.12500002E-02  -4.05287039E-08
  -2.11999994E-02  -4.16929531E-08
  -2.11500004E-02  -4.28821458E-08
  -2.10999995E-02  -4.40961188E-08
  -2.10500006E-02  -4.53353124E-08
  -2.09999997E-02  -4.66008245E-08
  -2.09500007E-02  -4.78941509E-08
  -2.08999999E-02  -4.92167231E-08
  -2.08500009E-02  -5.05695006E-08
  -2.08000001E-02  -5.19528527E-08
  -2.07499992E-02  -5.33666586E-08
  -2.07000002E-02  -5.48106414E-08
  -2.06499994E-02  -5.62846516E-08
  -2.06000004E-02  -5.77890482E-08
  -2.05499995E-02  -5.93248011E-08
  -2.05000006E-02  -6.08933277E-08
  -2.04499997E-02  -6.24962340E-08
  -2.04000007E-02  -6.41347953E-08
  -2.03499999E-02  -6.58097008E-08
  -2.03000009E-02  -6.75209719E-08
  -2.02500001E-02  -6.92683457E-08
  -2.01999992E-02  -7.10517156E-08
  -2.01500002E-02  -7.28715150E-08
  -2.00999994E-02  -7.47288169E-08
  -2.00500004E-02  -7.66252484E-08
  -1.99999996E-02  -7.85626497E-08
  -1.99500006E-02  -8.05426907E-08
  -1.98999997E-02  -8.25665651E-08
  -1.98500007E-02  -8.46348840E-08
  -1.97999999E-02  -8.67477823E-08
  -1.97500009E-02  -8.89053098E-08
  -1.97000001E-02  -9.11079567E-08
  -1.96499992E-02  -9.33570234E-08
  -1.96000002E-02  -9.56545492E-08
  -1.95499994E-02  -9.80030705E-08
  -1.95000004E-02  -1.00405039E-07
  -1.94499996E-02  -1.02862515E-07
  -1.94000006E-02  -1.05377005E-07
  -1.93499997E-02  -1.07949546E-07
  -1.93000007E-02  -1.10581063E-07
  -1.92499999E-02  -1.13272641E-07
  -1.92000009E-02  -1.16025980E-07
  -1.91500001E-02  -1.18843573E-07
  -1.90999992E-02  -1.21728519E-07
  -1.90500002E-02  -1.24684206E-07
  -1.89999994E-02  -1.27713776E-07
  -1.89500004E-02  -1.30819714E-07
  -1.88999996E-02  -1.34004082E-07
  -1.88500006E-02  -1.37268657E-07
  -1.87999997E-02  -1.40615541E-07
  -1.87500007E-02  -1.44047362E-07
  -1.86999999E-02  -1.47567576E-07
  -1.86500009E-02  -1.51180288E-07
  -1.86000001E-02  -1.54889904E-07
  -1.85499992E-02  -1.58700757E-07
  -1.85000002E-02  -1.62616828E-07
  -1.84499994E-02  -1.66641556E-07
  -1.84000004E-02  -1.70777895E-07
  -1.83499996E-02  -1.75028788E-07
  -1.83000006E-02  -1.79397716E-07
  -1.82499997E-02  -1.83889156E-07
  -1.82000007E-02  -1.88508437E-07
  -1.81499999E-02  -1.93261087E-07
  -1.81000009E-02  -1.98152605E-07
  -1.80500001E-02  -2.03188179E-07
  -1.79999992E-02  -2.08372470E-07
  -1.79500002E-02  -2.13709754E-07
  -1.78999994E-02  -2.19204225E-07
  -1.78500004E-02  -2.24860287E-07
  -1.77999996E-02  -2.30683142E-07
  -1.77500006E-02  -2.36679000E-07
  -1.76999997E-02  -2.42854725E-07
  -1.76500008E-02  -2.49217408E-07
  -1.75999999E-02  -2.55773642E-07
  -1.75500009E-02  -2.62529255E-07
  -1.75000001E-02  -2.69489561E-07
  -1.74499992E-02  -2.76659677E-07
  -1.74000002E-02  -2.84045086E-07
  -1.73499994E-02  -2.91651901E-07
  -1.73000004E-02  -2.99486771E-07
  -1.72499996E-02  -3.07556974E-07
  -1.72000006E-02  -3.15870437E-07
  -1.71499997E-02  -3.24435092E-07
  -1.71000008E-02  -3.33258271E-07
  -1.70499999E-02  -3.42346397E-07
  -1.70000009E-02  -3.51705182E-07
  -1.69500001E-02  -3.61340767E-07
  -1.68999992E-02  -3.71260114E-07
  -1.68500002E-02  -3.81470812E-07
  -1.67999994E-02  -3.91980819E-07
  -1.67500004E-02  -4.02798520E-07
  -1.66999996E-02  -4.13932270E-07
  -1.66500006E-02  -4.25390084E-07
  -1.65999997E-02  -4.37179409E-07
  -1.65500008E-02  -4.49307208E-07
  -1.64999999E-02  -4.61779990E-07
  -1.64500009E-02  -4.74604803E-07
  -1.64000001E-02  -4.87789521E-07
  -1.63499992E-02  -5.01343038E-07
  -1.63000003E-02  -5.15274792E-07
  -1.62499994E-02  -5.29593819E-07
  -1.62000004E-02  -5.44308534E-07
  -1.61499996E-02  -5.59426724E-07
  -1.61000006E-02  -5.74956346E-07
  -1.60499997E-02  -5.90904790E-07
  -1.60000008E-02  -6.07279560E-07
  -1.59499999E-02  -6.24088443E-07
  -1.59000009E-02  -6.41340705E-07
  -1.58500001E-02  -6.59046293E-07
  -1.57999992E-02  -6.77215382E-07
  -1.57500003E-02  -6.95857580E-07
  -1.56999994E-02  -7.14981638E-07
  -1.56500004E-02  -7.34595744E-07
  -1.55999996E-02  -7.54707855E-07
  -1.55499997E-02  -7.75326441E-07
  -1.54999997E-02  -7.96460142E-07
  -1.54499998E-02  -8.18118565E-07
  -1.53999999E-02  -8.40312225E-07
  -1.53500000E-02  -8.63051923E-07
  -1.53000001E-02  -8.86348005E-07
  -1.52500002E-02  -9.10210701E-07
  -1.52000003E-02  -9.34649506E-07
  -1.51500003E-02  -9.59673343E-07
  -1.51000004E-02  -9.85291308E-07
  -1.50499996E-02  -1.01151295E-06
  -1.49999997E-02  -1.03834873E-06
  -1.49499997E-02  -1.06581012E-06
  -1.48999998E-02  -1.09390828E-06
  -1.48499999E-02  -1.12265604E-06
  -1.48000000E-02  -1.15206444E-06
  -1.47500001E-02  -1.18214473E-06
  -1.47000002E-02  -1.21290714E-06
  -1.46500003E-02  -1.24436235E-06
  -1.46000003E-02  -1.27652152E-06
  -1.45500004E-02  -1.30939623E-06
  -1.44999996E-02  -1.34299898E-06
  -1.44499997E-02  -1.37734310E-06
  -1.43999998E-02  -1.41244197E-06
  -1.43499998E-02  -1.44830824E-06
  -1.42999999E-02  -1.48495485E-06
  -1.42500000E-02  -1.52239409E-06
  -1.42000001E-02  -1.56063777E-06
  -1.41500002E-02  -1.59969818E-06
  -1.41000003E-02  -1.63958839E-06
  -1.40500003E-02  -1.68032307E-06
  -1.40000004E-02  -1.72191801E-06
  -1.39499996E-02  -1.76438880E-06
  -1.38999997E-02  -1.80774987E-06
  -1.38499998E-02  -1.85201577E-06
  -1.37999998E-02  -1.89720186E-06
  -1.37499999E-02  -1.94332165E-06
  -1.37000000E-02  -1.99038982E-06
  -1.36500001E-02  -2.03842137E-06
  -1.36000002E-02  -2.08743177E-06
  -1.35500003E-02  -2.13743851E-06
  -1.35000004E-02  -2.18846094E-06
  -1.34500004E-02  -2.24051610E-06
  -1.33999996E-02  -2.29362058E-06
  -1.33499997E-02  -2.34779100E-06
  -1.32999998E-02  -2.40304416E-06
  -1.32499998E-02  -2.45939782E-06
  -1.31999999E-02  -2.51686947E-06
  -1.31500000E-02  -2.57547640E-06
  -1.31000001E-02  -2.63523839E-06
  -1.30500002E-02  -2.69617658E-06
  -1.30000003E-02  -2.75831212E-06
  -1.29500004E-02  -2.82166548E-06
  -1.29000004E-02  -2.88625574E-06
  -1.28499996E-02  -2.95210134E-06
  -1.27999997E-02  -3.01922364E-06
  -1.27499998E-02  -3.08764470E-06
  -1.26999998E-02  -3.15738521E-06
  -1.26499999E-02  -3.22846699E-06
  -1.26000000E-02  -3.30091302E-06
  -1.25500001E-02  -3.37474739E-06
  -1.25000002E-02  -3.44999444E-06
  -1.24500003E-02  -3.52667712E-06
  -1.24000004E-02  -3.60481727E-06
  -1.23500004E-02  -3.68443830E-06
  -1.22999996E-02  -3.76556500E-06
  -1.22499997E-02  -3.84822397E-06
  -1.21999998E-02  -3.93244181E-06
  -1.21499998E-02  -4.01824627E-06
  -1.20999999E-02  -4.10566554E-06
  -1.20500000E-02  -4.19472872E-06
  -1.20000001E-02  -4.28546355E-06
  -1.19500002E-02  -4.37789276E-06
  -1.19000003E-02  -4.47204411E-06
  -1.18500004E-02  -4.56794623E-06
  -1.18000004E-02  -4.66562733E-06
  -1.17499996E-02  -4.76511741E-06
  -1.16999997E-02  -4.86644649E-06
  -1.16499998E-02  -4.96964594E-06
  -1.15999999E-02  -5.07474988E-06
  -1.15499999E-02  -5.18179422E-06
  -1.15000000E-02  -5.29081353E-06
  -1.14500001E-02  -5.40184010E-06
  -1.14000002E-02  -5.51490848E-06
  -1.13500003E-02  -5.63005460E-06
  -1.13000004E-02  -5.74731621E-06
  -1.12500004E-02  -5.86672832E-06
  -1.11999996E-02  -5.98832503E-06
  -1.11499997E-02  -6.11214273E-06
  -1.10999998E-02  -6.23821597E-06
  -1.10499999E-02  -6.36658251E-06
  -1.09999999E-02  -6.49727554E-06
  -1.09500000E-02  -6.63032688E-06
  -1.09000001E-02  -6.76577747E-06
  -1.08500002E-02  -6.90367278E-06
  -1.08000003E-02  -7.04405920E-06
  -1.07500004E-02  -7.18698311E-06
  -1.07000005E-02  -7.33249044E-06
  -1.06499996E-02  -7.48062575E-06
  -1.05999997E-02  -7.63144089E-06
  -1.05499998E-02  -7.78498179E-06
  -1.04999999E-02  -7.94129573E-06
  -1.04499999E-02  -8.10042548E-06
  -1.04000000E-02  -8.26241194E-06
  -1.03500001E-02  -8.42729878E-06
  -1.03000002E-02  -8.59513329E-06
  -1.02500003E-02  -8.76596368E-06
  -1.02000004E-02  -8.93983361E-06
  -1.01500005E-02  -9.11678580E-06
  -1.00999996E-02  -9.29686848E-06
  -1.00499997E-02  -9.48013439E-06
  -9.99999978E-03  -9.66663902E-06
  -9.94999986E-03  -9.85644238E-06
  -9.89999995E-03  -1.00495945E-05
  -9.85000003E-03  -1.02461581E-05
  -9.80000012E-03  -1.04461951E-05
  -9.75000020E-03  -1.06497664E-05
  -9.70000029E-03  -1.08569293E-05
  -9.65000037E-03  -1.10677374E-05
  -9.60000046E-03  -1.12822490E-05
  -9.54999961E-03  -1.15005178E-05
  -9.49999969E-03  -1.17226000E-05
  -9.44999978E-03  -1.19485585E-05
  -9.39999986E-03  -1.21784551E-05
  -9.34999995E-03  -1.24123426E-05
  -9.30000003E-03  -1.26502800E-05
  -9.25000012E-03  -1.28923311E-05
  -9.20000020E-03  -1.31385632E-05
  -9.15000029E-03  -1.33890353E-05
  -9.10000037E-03  -1.36438020E-05
  -9.05000046E-03  -1.39029216E-05
  -8.99999961E-03  -1.41664641E-05
  -8.94999970E-03  -1.44345058E-05
  -8.89999978E-03  -1.47071069E-05
  -8.84999987E-03  -1.49843299E-05
  -8.79999995E-03  -1.52662469E-05
  -8.75000004E-03  -1.55529342E-05
  -8.70000012E-03  -1.58444618E-05
  -8.65000021E-03  -1.61408971E-05
  -8.60000029E-03  -1.64423054E-05
  -8.55000038E-03  -1.67487724E-05
  -8.50000046E-03  -1.70603707E-05
  -8.44999962E-03  -1.73771678E-05
  -8.39999970E-03  -1.76992307E-05
  -8.34999979E-03  -1.80266361E-05
  -8.29999987E-03  -1.83594584E-05
  -8.24999996E-03  -1.86977704E-05
  -8.20000004E-03  -1.90416340E-05
  -8.15000013E-03  -1.93911183E-05
  -8.10000021E-03  -1.97462996E-05
  -8.05000030E-03  -2.01072598E-05
  -8.00000038E-03  -2.04740809E-05
  -7.95000046E-03  -2.08468409E-05
  -7.89999962E-03  -2.12256055E-05
  -7.84999970E-03  -2.16104490E-05
  -7.79999979E-03  -2.20014554E-05
  -7.74999987E-03  -2.23987063E-05
  -7.69999996E-03  -2.28022800E-05
  -7.65000004E-03  -2.32122493E-05
  -7.60000013E-03  -2.36286851E-05
  -7.55000021E-03  -2.40516711E-05
  -7.49999983E-03  -2.44813054E-05
  -7.44999992E-03  -2.49176846E-05
  -7.40000000E-03  -2.53608832E-05
  -7.35000009E-03  -2.58109758E-05
  -7.30000017E-03  -2.62680460E-05
  -7.24999979E-03  -2.67321921E-05
  -7.19999988E-03  -2.72034977E-05
  -7.14999996E-03  -2.76820483E-05
  -7.10000005E-03  -2.81679240E-05
  -7.05000013E-03  -2.86612012E-05
  -7.00000022E-03  -2.91619726E-05
  -6.94999984E-03  -2.96703311E-05
  -6.89999992E-03  -3.01863656E-05
  -6.85000001E-03  -3.07101509E-05
  -6.80000009E-03  -3.12417615E-05
  -6.75000018E-03  -3.17812737E-05
  -6.69999979E-03  -3.23287968E-05
  -6.64999988E-03  -3.28844289E-05
  -6.59999996E-03  -3.34482538E-05
  -6.55000005E-03  -3.40203405E-05
  -6.50000013E-03  -3.46007873E-05
  -6.45000022E-03  -3.51896997E-05
  -6.39999984E-03  -3.57871759E-05
  -6.34999992E-03  -3.63933032E-05
  -6.30000001E-03  -3.70081652E-05
  -6.25000009E-03  -3.76318567E-05
  -6.20000018E-03  -3.82644794E-05
  -6.14999980E-03  -3.89061352E-05
  -6.09999988E-03  -3.95569368E-05
  -6.04999997E-03  -4.02169680E-05
  -6.00000005E-03  -4.08863125E-05
  -5.95000014E-03  -4.15650684E-05
  -5.90000022E-03  -4.22533158E-05
  -5.84999984E-03  -4.29511529E-05
  -5.79999993E-03  -4.36586779E-05
  -5.75000001E-03  -4.43759855E-05
  -5.70000010E-03  -4.51031556E-05
  -5.65000018E-03  -4.58402828E-05
  -5.59999980E-03  -4.65874582E-05
  -5.54999989E-03  -4.73447908E-05
  -5.49999997E-03  -4.81123789E-05
  -5.45000006E-03  -4.88903206E-05
  -5.40000014E-03  -4.96787034E-05
  -5.35000023E-03  -5.04776071E-05
  -5.29999984E-03  -5.12871411E-05
  -5.24999993E-03  -5.21074144E-05
  -5.20000001E-03  -5.29385543E-05
  -5.15000010E-03  -5.37806409E-05
  -5.10000018E-03  -5.46337396E-05
  -5.04999980E-03  -5.54979670E-05
  -4.99999989E-03  -5.63734429E-05
  -4.94999997E-03  -5.72602839E-05
  -4.90000006E-03  -5.81585591E-05
  -4.85000014E-03  -5.90683339E-05
  -4.80000023E-03  -5.99897066E-05
  -4.74999985E-03  -6.09228009E-05
  -4.69999993E-03  -6.18677223E-05
  -4.65000002E-03  -6.28245543E-05
  -4.60000010E-03  -6.37933481E-05
  -4.55000019E-03  -6.47741617E-05
  -4.49999981E-03  -6.57671189E-05
  -4.44999989E-03  -6.67723434E-05
  -4.39999998E-03  -6.77899370E-05
  -4.35000006E-03  -6.88199580E-05
  -4.30000015E-03  -6.98624790E-05
  -4.25000023E-03  -7.09176238E-05
  -4.19999985E-03  -7.19855088E-05
  -4.14999994E-03  -7.30662359E-05
  -4.10000002E-03  -7.41598560E-05
  -4.05000011E-03  -7.52664564E-05
  -4.00000019E-03  -7.63861171E-05
  -3.94999981E-03  -7.75189546E-05
  -3.89999989E-03  -7.86650562E-05
  -3.84999998E-03  -7.98244801E-05
  -3.80000006E-03  -8.09972917E-05
  -3.74999992E-03  -8.21836002E-05
  -3.70000000E-03  -8.33834856E-05
  -3.65000009E-03  -8.45970571E-05
  -3.59999994E-03  -8.58243511E-05
  -3.55000002E-03  -8.70654258E-05
  -3.50000011E-03  -8.83203320E-05
  -3.44999996E-03  -8.95891717E-05
  -3.40000005E-03  -9.08720613E-05
  -3.34999990E-03  -9.21690371E-05
  -3.29999998E-03  -9.34801647E-05
  -3.25000007E-03  -9.48055022E-05
  -3.19999992E-03  -9.61450933E-05
  -3.15000000E-03  -9.74990398E-05
  -3.10000009E-03  -9.88674146E-05
  -3.04999994E-03  -1.00250254E-04
  -3.00000003E-03  -1.01647573E-04
  -2.95000011E-03  -1.03059443E-04
  -2.89999996E-03  -1.04485953E-04
  -2.85000005E-03  -1.05927211E-04
  -2.79999990E-03  -1.07383203E-04
  -2.74999999E-03  -1.08853936E-04
  -2.70000007E-03  -1.10339475E-04
  -2.64999992E-03  -1.11839901E-04
  -2.60000001E-03  -1.13355229E-04
  -2.55000009E-03  -1.14885486E-04
  -2.49999994E-03  -1.16430674E-04
  -2.45000003E-03  -1.17990829E-04
  -2.40000011E-03  -1.19565986E-04
  -2.34999997E-03  -1.21156212E-04
  -2.30000005E-03  -1.22761514E-04
  -2.24999990E-03  -1.24381884E-04
  -2.19999999E-03  -1.26017301E-04
  -2.15000007E-03  -1.27667765E-04
  -2.09999993E-03  -1.29333275E-04
  -2.05000001E-03  -1.31013861E-04
  -2.00000009E-03  -1.32709509E-04
  -1.94999995E-03  -1.34420174E-04
  -1.90000003E-03  -1.36145914E-04
  -1.85000000E-03  -1.37886673E-04
  -1.79999997E-03  -1.39642434E-04
  -1.75000005E-03  -1.41413155E-04
  -1.70000002E-03  -1.43198864E-04
  -1.64999999E-03  -1.44999532E-04
  -1.59999996E-03  -1.46815044E-04
  -1.55000004E-03  -1.48645384E-04
  -1.50000001E-03  -1.50490479E-04
  -1.44999998E-03  -1.52350316E-04
  -1.39999995E-03  -1.54224879E-04
  -1.35000004E-03  -1.56114067E-04
  -1.30000000E-03  -1.58017763E-04
  -1.24999997E-03  -1.59935822E-04
  -1.20000006E-03  -1.61868185E-04
  -1.15000003E-03  -1.63814839E-04
  -1.09999999E-03  -1.65775724E-04
  -1.04999996E-03  -1.67750579E-04
  -1.00000005E-03  -1.69739229E-04
  -9.50000016E-04  -1.71741645E-04
  -8.99999985E-04  -1.73757857E-04
  -8.50000011E-04  -1.75787703E-04
  -7.99999980E-04  -1.77830952E-04
  -7.50000007E-04  -1.79887313E-04
  -6.99999975E-04  -1.81956682E-04
  -6.50000002E-04  -1.84039047E-04
  -6.00000028E-04  -1.86134290E-04
  -5.49999997E-04  -1.88242135E-04
  -5.00000024E-04  -1.90362276E-04
  -4.49999992E-04  -1.92494495E-04
  -3.99999990E-04  -1.94638764E-04
  -3.49999988E-04  -1.96794936E-04
  -3.00000014E-04  -1.98962720E-04
  -2.50000012E-04  -2.01141738E-04
  -1.99999995E-04  -2.03331700E-04
  -1.50000007E-04  -2.05532444E-04
  -9.99999975E-05  -2.07743840E-04
  -4.99999987E-05  -2.09965627E-04
   0.00000000      -2.12197396E-04
   4.99999987E-05  -2.14438754E-04
   9.99999975E-05  -2.16689456E-04
   1.50000007E-04  -2.18949295E-04
   1.99999995E-04  -2.21217997E-04
   2.50000012E-04  -2.23495124E-04
   3.00000014E-04  -2.25780183E-04
   3.49999988E-04  -2.28072866E-04
   3.99999990E-04  -2.30372912E-04
   4.49999992E-04  -2.32680031E-04
   5.00000024E-04  -2.34993771E-04
   5.49999997E-04  -2.37313623E-04
   6.00000028E-04  -2.39639106E-04
   6.50000002E-04  -2.41969843E-04
   6.99999975E-04  -2.44305556E-04
   7.50000007E-04  -2.46645795E-04
   7.99999980E-04  -2.48989963E-04
   8.50000011E-04  -2.51337478E-04
   8.99999985E-04  -2.53687933E-04
   9.50000016E-04  -2.56040919E-04
   1.00000005E-03  -2.58395856E-04
   1.04999996E-03  -2.60752131E-04
   1.09999999E-03  -2.63109163E-04
   1.15000003E-03  -2.65466340E-04
   1.20000006E-03  -2.67823198E-04
   1.24999997E-03  -2.70179211E-04
   1.30000000E-03  -2.72533682E-04
   1.35000004E-03  -2.74885882E-04
   1.39999995E-03  -2.77235173E-04
   1.44999998E-03  -2.79581029E-04
   1.50000001E-03  -2.81922723E-04
   1.55000004E-03  -2.84259528E-04
   1.59999996E-03  -2.86590657E-04
   1.64999999E-03  -2.88915442E-04
   1.70000002E-03  -2.91233242E-04
   1.75000005E-03  -2.93543300E-04
   1.79999997E-03  -2.95844744E-04
   1.85000000E-03  -2.98136758E-04
   1.90000003E-03  -3.00418527E-04
   1.94999995E-03  -3.02689266E-04
   2.00000009E-03  -3.04948189E-04
   2.05000001E-03  -3.07194365E-04
   2.09999993E-03  -3.09426803E-04
   2.15000007E-03  -3.11644661E-04
   2.19999999E-03  -3.13847064E-04
   2.24999990E-03  -3.16033023E-04
   2.30000005E-03  -3.18201608E-04
   2.34999997E-03  -3.20351828E-04
   2.40000011E-03  -3.22482520E-04
   2.45000003E-03  -3.24592693E-04
   2.49999994E-03  -3.26681358E-04
   2.55000009E-03  -3.28747556E-04
   2.60000001E-03  -3.30790092E-04
   2.64999992E-03  -3.32807773E-04
   2.70000007E-03  -3.34799581E-04
   2.74999999E-03  -3.36764409E-04
   2.79999990E-03  -3.38701182E-04