  -3.99999991E-02   0.00000000    
  -3.99499983E-02   0.00000000    
  -3.99000011E-02   0.00000000    
  -3.98500003E-02   0.00000000    
  -3.97999994E-02   5.66885938E-21
  -3.97499986E-02   5.07582936E-20
  -3.97000015E-02   2.32406371E-19
  -3.96500006E-02   7.20743974E-19
  -3.95999998E-02   1.68230618E-18
  -3.95499989E-02   3.08806085E-18
  -3.95000018E-02   4.46553702E-18
  -3.94500010E-02   4.74456861E-18
  -3.94000001E-02   2.35010491E-18
  -3.93499993E-02  -4.43096376E-18
  -3.92999984E-02  -1.69744857E-17
  -3.92500013E-02  -3.60000054E-17
  -3.92000005E-02  -6.15454206E-17
  -3.91499996E-02  -9.30656407E-17
  -3.90999988E-02  -1.29263739E-16
  -3.90500017E-02  -1.67437542E-16
  -3.90000008E-02  -2.02735152E-16
  -3.89500000E-02  -2.28343804E-16
  -3.88999991E-02  -2.37604653E-16
  -3.88499983E-02  -2.27944957E-16
  -3.88000011E-02  -2.04741786E-16
  -3.87500003E-02  -1.81969795E-16
  -3.86999995E-02  -1.77070649E-16
  -3.86499986E-02  -2.00357266E-16
  -3.86000015E-02  -2.43355319E-16
  -3.85500006E-02  -2.73400345E-16
  -3.84999998E-02  -2.41041913E-16
  -3.84499989E-02  -1.01340802E-16
  -3.84000018E-02   1.58368400E-16
  -3.83500010E-02   4.98957940E-16
  -3.83000001E-02   8.33779105E-16
  -3.82499993E-02   1.06362690E-15
  -3.81999984E-02   1.13311165E-15
  -3.81500013E-02   1.08291267E-15
  -3.81000005E-02   1.06621215E-15
  -3.80499996E-02   1.30832497E-15
  -3.79999988E-02   2.01457723E-15
  -3.79500017E-02   3.26161260E-15
  -3.79000008E-02   4.92524460E-15
  -3.78500000E-02   6.69089833E-15
  -3.77999991E-02   8.15919564E-15
  -3.77499983E-02   9.01200450E-15
  -3.77000012E-02   9.16591547E-15
  -3.76500003E-02   8.83274946E-15
  -3.75999995E-02   8.44031486E-15
  -3.75499986E-02   8.43104324E-15
  -3.75000015E-02   9.02240691E-15
  -3.74500006E-02   1.00460911E-14
  -3.73999998E-02   1.09594671E-14
  -3.73499990E-02   1.10472214E-14
  -3.73000018E-02   9.73614991E-15
  -3.72500010E-02   6.87972950E-15
  -3.72000001E-02   2.86858655E-15
  -3.71499993E-02  -1.50541355E-15
  -3.70999984E-02  -5.39016997E-15
  -3.70500013E-02  -8.27612515E-15
  -3.70000005E-02  -1.02782019E-14
  -3.69499996E-02  -1.21603514E-14
  -3.68999988E-02  -1.50797445E-14
  -3.68500017E-02  -2.01557690E-14
  -3.68000008E-02  -2.80487303E-14
  -3.67500000E-02  -3.87242626E-14
  -3.66999991E-02  -5.14875889E-14
  -3.66499983E-02  -6.52457621E-14
  -3.66000012E-02  -7.88626841E-14
  -3.65500003E-02  -9.14556313E-14
  -3.64999995E-02  -1.02540860E-13
  -3.64499986E-02  -1.12025007E-13
  -3.64000015E-02  -1.20100368E-13
  -3.63500006E-02  -1.27105764E-13
  -3.62999998E-02  -1.33373577E-13
  -3.62499990E-02  -1.39045337E-13
  -3.62000018E-02  -1.43849491E-13
  -3.61500010E-02  -1.46905681E-13
  -3.61000001E-02  -1.46701892E-13
  -3.60499993E-02  -1.41404466E-13
  -3.59999985E-02  -1.29543484E-13
  -3.59500013E-02  -1.10878530E-13
  -3.59000005E-02  -8.70068245E-14
  -3.58499996E-02  -6.12023859E-14
  -3.57999988E-02  -3.72043128E-14
  -3.57500017E-02  -1.71871692E-14
  -3.57000008E-02   2.63865586E-16
  -3.56500000E-02   2.10255109E-14
  -3.55999991E-02   5.42385079E-14
  -3.55499983E-02   1.08958530E-13
  -3.55000012E-02   1.89731640E-13
  -3.54500003E-02   2.93086248E-13
  -3.53999995E-02   4.07030475E-13
  -3.53499986E-02   5.14636131E-13
  -3.53000015E-02   6.00924692E-13
  -3.52500007E-02   6.60338592E-13
  -3.51999998E-02   7.01100907E-13
  -3.51499990E-02   7.43508553E-13
  -3.51000018E-02   8.11676518E-13
  -3.50500010E-02   9.21539429E-13
  -3.50000001E-02   1.07045904E-12
  -3.49499993E-02   1.23408282E-12
  -3.48999985E-02   1.37352618E-12
  -3.48500013E-02   1.45126467E-12
  -3.48000005E-02   1.44934498E-12
  -3.47499996E-02   1.38111050E-12
  -3.46999988E-02   1.28928541E-12
  -3.46500017E-02   1.22888548E-12
  -3.46000008E-02   1.24086928E-12
  -3.45500000E-02   1.32822063E-12
  -3.44999991E-02   1.44697828E-12
  -3.44499983E-02   1.51933739E-12
  -3.44000012E-02   1.46599204E-12
  -3.43500003E-02   1.24468144E-12
  -3.42999995E-02   8.76616650E-13
  -3.42499986E-02   4.45566625E-13
  -3.42000015E-02   6.56969393E-14
  -3.41500007E-02  -1.70683454E-13
  -3.40999998E-02  -2.42484526E-13
  -3.40499990E-02  -2.21205012E-13
  -3.40000018E-02  -2.49351375E-13
  -3.39500010E-02  -4.80124404E-13
  -3.39000002E-02  -1.00252911E-12
  -3.38499993E-02  -1.78688032E-12
  -3.37999985E-02  -2.68064477E-12
  -3.37500013E-02  -3.46388630E-12
  -3.37000005E-02  -3.94538265E-12
  -3.36499996E-02  -4.05772898E-12
  -3.35999988E-02  -3.90453512E-12
  -3.35500017E-02  -3.73011431E-12
  -3.35000008E-02  -3.81628019E-12
  -3.34500000E-02  -4.34735537E-12
  -3.33999991E-02  -5.30545833E-12
  -3.33499983E-02  -6.45123711E-12
  -3.33000012E-02  -7.41028853E-12
  -3.32500003E-02  -7.83622386E-12
  -3.31999995E-02  -7.58015786E-12
  -3.31499986E-02  -6.78462408E-12
  -3.31000015E-02  -5.84692841E-12
  -3.30500007E-02  -5.25415562E-12
  -3.29999998E-02  -5.35498512E-12
  -3.29499990E-02  -6.17199347E-12
  -3.29000019E-02  -7.35043883E-12
  -3.28500010E-02  -8.28409390E-12
  -3.28000002E-02  -8.37718263E-12
  -3.27499993E-02  -7.33068207E-12
  -3.26999985E-02  -5.31700508E-12
  -3.26500013E-02  -2.94629143E-12
  -3.26000005E-02  -1.01810324E-12
  -3.25499997E-02  -1.55746374E-13
  -3.24999988E-02  -4.87730028E-13
  -3.24500017E-02  -1.53544538E-12
  -3.24000008E-02  -2.38301479E-12
  -3.23500000E-02  -2.07658782E-12
  -3.22999991E-02  -8.38827028E-14
  -3.22499983E-02   3.40162100E-12
  -3.22000012E-02   7.47436141E-12
  -3.21500003E-02   1.08737177E-11
  -3.20999995E-02   1.25468412E-11
  -3.20499986E-02   1.21670651E-11
  -3.20000015E-02   1.03545332E-11
  -3.19500007E-02   8.46442621E-12
  -3.18999998E-02   8.00309645E-12
  -3.18499990E-02   9.91688502E-12
  -3.18000019E-02   1.40824860E-11
  -3.17500010E-02   1.92616288E-11
  -3.17000002E-02   2.35843740E-11
  -3.16499993E-02   2.53779116E-11
  -3.15999985E-02   2.39756826E-11
  -3.15500014E-02   2.01185145E-11
  -3.15000005E-02   1.57201613E-11
  -3.14499997E-02   1.30537057E-11
  -3.13999988E-02   1.36968882E-11
  -3.13500017E-02   1.77187830E-11
  -3.13000008E-02   2.35162254E-11
  -3.12500000E-02   2.84328776E-11
  -3.11999992E-02   2.99316717E-11
  -3.11500002E-02   2.68083854E-11
  -3.10999993E-02   1.98722844E-11
  -3.10500003E-02   1.17264861E-11
  -3.09999995E-02   5.67960219E-12
  -3.09500005E-02   4.23600174E-12
  -3.08999997E-02   7.84811886E-12
  -3.08500007E-02   1.45435504E-11
  -3.07999998E-02   2.06720370E-11
  -3.07500008E-02   2.25046318E-11
  -3.07000000E-02   1.79921876E-11
  -3.06499992E-02   7.86208078E-12
  -3.06000002E-02  -4.51627754E-12
  -3.05499993E-02  -1.45254399E-11
  -3.05000003E-02  -1.83869499E-11
  -3.04499995E-02  -1.50048498E-11
  -3.04000005E-02  -6.67580704E-12
  -3.03499997E-02   1.75225817E-12
  -3.03000007E-02   4.98736902E-12
  -3.02499998E-02  -2.38038186E-13
  -3.02000009E-02  -1.34765263E-11
  -3.01500000E-02  -3.05048105E-11
  -3.00999992E-02  -4.50344657E-11
  -3.00500002E-02  -5.15099526E-11
  -2.99999993E-02  -4.77504876E-11
  -2.99500003E-02  -3.61819567E-11
  -2.98999995E-02  -2.29854729E-11
  -2.98500005E-02  -1.54258325E-11
  -2.97999997E-02  -1.84972853E-11
  -2.97500007E-02  -3.24196052E-11
  -2.96999998E-02  -5.22163875E-11
  -2.96500009E-02  -6.97072053E-11
  -2.96000000E-02  -7.71315165E-11
  -2.95499992E-02  -7.08059791E-11
  -2.95000002E-02  -5.31012838E-11
  -2.94499993E-02  -3.17069530E-11
  -2.94000003E-02  -1.63622831E-11
  -2.93499995E-02  -1.44306303E-11
  -2.93000005E-02  -2.73199588E-11
  -2.92499997E-02  -4.94757360E-11
  -2.92000007E-02  -7.05693004E-11
  -2.91499998E-02  -8.00449360E-11
  -2.91000009E-02  -7.20359397E-11
  -2.90500000E-02  -4.83724970E-11
  -2.89999992E-02  -1.81664631E-11
  -2.89500002E-02   6.02657074E-12
  -2.88999993E-02   1.38673769E-11
  -2.88500004E-02   2.17390906E-12
  -2.87999995E-02  -2.32034652E-11
  -2.87500005E-02  -4.96156900E-11
  -2.86999997E-02  -6.31395561E-11
  -2.86500007E-02  -5.49954075E-11
  -2.85999998E-02  -2.59149178E-11
  -2.85500009E-02   1.36845838E-11
  -2.85000000E-02   4.80213369E-11
  -2.84499992E-02   6.29893360E-11
  -2.84000002E-02   5.27828510E-11
  -2.83499993E-02   2.30035123E-11
  -2.83000004E-02  -1.13726129E-11
  -2.82499995E-02  -3.24816216E-11
  -2.82000005E-02  -2.77206799E-11
  -2.81499997E-02   4.14227376E-12
  -2.81000007E-02   5.18333917E-11
  -2.80499998E-02   9.61795157E-11
  -2.80000009E-02   1.18595148E-10
  -2.79500000E-02   1.09698993E-10
  -2.78999992E-02   7.40716308E-11
  -2.78500002E-02   2.87698823E-11
  -2.77999993E-02  -4.00375176E-12
  -2.77500004E-02  -6.94989986E-12
  -2.76999995E-02   2.40885732E-11
  -2.76500005E-02   7.75922243E-11
  -2.75999997E-02   1.30964212E-10
  -2.75500007E-02   1.60454081E-10
  -2.74999999E-02   1.52054827E-10
  -2.74500009E-02   1.08381977E-10
  -2.74000000E-02   4.81847513E-11
  -2.73499992E-02  -1.59972328E-12
  -2.73000002E-02  -1.78983963E-11
  -2.72499993E-02   7.72723292E-12
  -2.72000004E-02   6.46121837E-11
  -2.71499995E-02   1.27140437E-10
  -2.71000005E-02   1.65956540E-10
  -2.70499997E-02   1.61355568E-10
  -2.70000007E-02   1.12770633E-10
  -2.69499999E-02   3.98314333E-11
  -2.69000009E-02  -2.58283308E-11
  -2.68500000E-02  -5.46097785E-11
  -2.67999992E-02  -3.26057827E-11
  -2.67500002E-02   3.14172958E-11
  -2.66999993E-02   1.09177396E-10
  -2.66500004E-02   1.65108510E-10
  -2.65999995E-02   1.72391490E-10
  -2.65500005E-02   1.25567154E-10
  -2.64999997E-02   4.38181817E-11
  -2.64500007E-02  -3.69267707E-11
  -2.63999999E-02  -7.98513061E-11
  -2.63500009E-02  -6.40891090E-11
  -2.63000000E-02   5.13942881E-12
  -2.62499992E-02   9.79712492E-11
  -2.62000002E-02   1.72670378E-10
  -2.61499994E-02   1.94270919E-10
  -2.61000004E-02   1.50764262E-10
  -2.60499995E-02   5.93416080E-11
  -2.60000005E-02  -4.05006202E-11
  -2.59499997E-02  -1.04282936E-10
  -2.59000007E-02  -1.02724947E-10
  -2.58499999E-02  -3.56619040E-11
  -2.58000009E-02   6.68661515E-11
  -2.57500000E-02   1.57270016E-10
  -2.56999992E-02   1.91483163E-10
  -2.56500002E-02   1.49109572E-10
  -2.55999994E-02   4.34326949E-11
  -2.55500004E-02  -8.35957692E-11
  -2.54999995E-02  -1.79573176E-10
  -2.54500005E-02  -2.05180414E-10
  -2.53999997E-02  -1.52479557E-10
  -2.53500007E-02  -4.94832716E-11
  -2.52999999E-02   5.15010638E-11
  -2.52500009E-02   9.69399214E-11
  -2.52000000E-02   5.64038226E-11
  -2.51499992E-02  -6.28680302E-11
  -2.51000002E-02  -2.18081747E-10
  -2.50499994E-02  -3.49215462E-10
  -2.50000004E-02  -4.05711797E-10
  -2.49499995E-02  -3.69658609E-10
  -2.49000005E-02  -2.64832878E-10
  -2.48499997E-02  -1.47093018E-10
  -2.48000007E-02  -7.99409497E-11
  -2.47499999E-02  -1.05910419E-10
  -2.47000009E-02  -2.26633240E-10
  -2.46500000E-02  -4.00861039E-10
  -2.45999992E-02  -5.61841296E-10
  -2.45500002E-02  -6.46716569E-10
  -2.44999994E-02  -6.24966967E-10
  -2.44500004E-02  -5.12991705E-10
  -2.43999995E-02  -3.67848724E-10
  -2.43500005E-02  -2.62413230E-10
  -2.42999997E-02  -2.52688259E-10
  -2.42500007E-02  -3.51839918E-10
  -2.41999999E-02  -5.22886290E-10
  -2.41500009E-02  -6.93855196E-10
  -2.41000000E-02  -7.89171339E-10
  -2.40499992E-02  -7.63534846E-10
  -2.40000002E-02  -6.23055940E-10
  -2.39499994E-02  -4.23761498E-10
  -2.39000004E-02  -2.47544318E-10
  -2.38499995E-02  -1.65811587E-10
  -2.38000005E-02  -2.06910850E-10
  -2.37499997E-02  -3.42134515E-10
  -2.37000007E-02  -4.97110519E-10
  -2.36499999E-02  -5.84113591E-10
  -2.36000009E-02  -5.41278133E-10
  -2.35500000E-02  -3.61210672E-10
  -2.34999992E-02  -9.58182284E-11
  -2.34500002E-02   1.65452221E-10
  -2.33999994E-02   3.34858030E-10
  -2.33500004E-02   3.65861313E-10
  -2.32999995E-02   2.75088147E-10
  -2.32500006E-02   1.36382614E-10
  -2.31999997E-02   4.88911932E-11
  -2.31500007E-02   9.28660274E-11
  -2.30999999E-02   2.92770252E-10
  -2.30500009E-02   6.04500172E-10
  -2.30000000E-02   9.33125910E-10
  -2.29499992E-02   1.17397814E-09
  -2.29000002E-02   1.25920530E-09
  -2.28499994E-02   1.18898558E-09
  -2.28000004E-02   1.03293152E-09
  -2.27499995E-02   9.00258257E-10
  -2.27000006E-02   8.91313856E-10
  -2.26499997E-02   1.05179920E-09
  -2.26000007E-02   1.35036837E-09
  -2.25499999E-02   1.69033110E-09
  -2.25000009E-02   1.95111327E-09
  -2.24500000E-02   2.04161466E-09
  -2.23999992E-02   1.94175542E-09
  -2.23500002E-02   1.71317627E-09
  -2.22999994E-02   1.47342805E-09
  -2.22500004E-02   1.34426914E-09
  -2.21999995E-02   1.39664913E-09
  -2.21500006E-02   1.61706715E-09
  -2.20999997E-02   1.91105354E-09
  -2.20500007E-02   2.14323448E-09
  -2.19999999E-02   2.19694307E-09
  -2.19500009E-02   2.02706452E-09
  -2.19000001E-02   1.68211256E-09
  -2.18499992E-02   1.28473343E-09
  -2.18000002E-02   9.78268577E-10
  -2.17499994E-02   8.62526439E-10
  -2.17000004E-02   9.47428358E-10
  -2.16499995E-02   1.14594445E-09
  -2.16000006E-02   1.31062283E-09
  -2.15499997E-02   1.29846889E-09
  -2.15000007E-02   1.03570852E-09
  -2.14499999E-02   5.53202872E-10
  -2.14000009E-02  -2.43125711E-11
  -2.13500001E-02  -5.31622080E-10
  -2.12999992E-02  -8.36176461E-10
  -2.12500002E-02  -8.98525865E-10
  -2.11999994E-02  -7.92376442E-10
  -2.11500004E-02  -6.74054812E-10
  -2.10999995E-02  -7.13713477E-10
  -2.10500006E-02  -1.01826136E-09
  -2.09999997E-02  -1.58062052E-09
  -2.09500007E-02  -2.27900609E-09
  -2.08999999E-02  -2.92800117E-09
  -2.08500009E-02  -3.35982819E-09
  -2.08000001E-02  -3.49992835E-09
  -2.07499992E-02  -3.40248985E-09
  -2.07000002E-02  -3.22868599E-09
  -2.06499994E-02  -3.17581006E-09
  -2.06000004E-02  -3.38796702E-09
  -2.05499995E-02  -3.88823063E-09
  -2.05000006E-02  -4.56362370E-09
  -2.04499997E-02  -5.21127896E-09
  -2.04000007E-02  -5.62665248E-09
  -2.03499999E-02  -5.69506353E-09
  -2.03000009E-02  -5.44517587E-09
  -2.02500001E-02  -5.03908426E-09
  -2.01999992E-02  -4.70166794E-09
  -2.01500002E-02  -4.61948435E-09
  -2.00999994E-02  -4.85418417E-09
  -2.00500004E-02  -5.31015454E-09
  -1.99999996E-02  -5.77263659E-09
  -1.99500006E-02  -6.00106365E-09
  -1.98999997E-02  -5.83686566E-09
  -1.98500007E-02  -5.27720223E-09
  -1.97999999E-02  -4.48017712E-09
  -1.97500009E-02  -3.69718456E-09
  -1.97000001E-02  -3.16102566E-09
  -1.96499992E-02  -2.97934366E-09
  -1.96000002E-02  -3.08196779E-09
  -1.95499994E-02  -3.24765193E-09
  -1.95000004E-02  -3.20034887E-09
  -1.94499996E-02  -2.73327139E-09
  -1.94000006E-02  -1.80515314E-09
  -1.93499997E-02  -5.64158997E-10
  -1.93000007E-02   7.13472559E-10
  -1.92499999E-02   1.74456760E-09
  -1.92000009E-02   2.36653053E-09
  -1.91500001E-02   2.61340372E-09
  -1.90999992E-02   2.70443157E-09
  -1.90500002E-02   2.94785196E-09
  -1.89999994E-02   3.60133234E-09
  -1.89500004E-02   4.75134598E-09
  -1.88999996E-02   6.26692787E-09
  -1.88500006E-02   7.85095633E-09
  -1.87999997E-02   9.16834342E-09
  -1.87500007E-02   9.99493821E-09
  -1.86999999E-02   1.03199325E-08
  -1.86500009E-02   1.03538689E-08
  -1.86000001E-02   1.04360245E-08
  -1.85499992E-02   1.08805711E-08
  -1.85000002E-02   1.18299122E-08
  -1.84499994E-02   1.31821887E-08
  -1.84000004E-02   1.46279877E-08
  -1.83499996E-02   1.57825326E-08
  -1.83000006E-02   1.63557345E-08
  -1.82499997E-02   1.62836837E-08
  -1.82000007E-02   1.57606852E-08
  -1.81499999E-02   1.51545834E-08
  -1.81000009E-02   1.48408681E-08
  -1.80500001E-02   1.50290020E-08
  -1.79999992E-02   1.56599143E-08
  -1.79500002E-02   1.64232556E-08
  -1.78999994E-02   1.68897571E-08
  -1.78500004E-02   1.67014349E-08
  -1.77999996E-02   1.57345337E-08
  -1.77500006E-02   1.41602747E-08
  -1.76999997E-02   1.23730874E-08
  -1.76500008E-02   1.08155902E-08
  -1.75999999E-02   9.77739933E-09
  -1.75500009E-02   9.25874755E-09
  -1.75000001E-02   8.96269636E-09
  -1.74499992E-02   8.42278602E-09
  -1.74000002E-02   7.21142879E-09
  -1.73499994E-02   5.13621012E-09
  -1.73000004E-02   2.33432829E-09
  -1.72499996E-02  -7.80325859E-10
  -1.72000006E-02  -3.69706710E-09
  -1.71499997E-02  -6.03653616E-09
  -1.71000008E-02  -7.72429942E-09
  -1.70499999E-02  -9.02955755E-09
  -1.70000009E-02  -1.04479208E-08
  -1.69500001E-02  -1.24778081E-08
  -1.68999992E-02  -1.53896469E-08
  -1.68500002E-02  -1.90927025E-08
  -1.67999994E-02  -2.31625989E-08
  -1.67500004E-02  -2.70208567E-08
  -1.66999996E-02  -3.01883887E-08
  -1.66500006E-02  -3.24994502E-08
  -1.65999997E-02  -3.41777273E-08
  -1.65500008E-02  -3.57366865E-08
  -1.64999999E-02  -3.77453446E-08
  -1.64500009E-02  -4.05629343E-08
  -1.64000001E-02  -4.41623520E-08
  -1.63499992E-02  -4.81248783E-08
  -1.63000003E-02  -5.18125027E-08
  -1.62499994E-02  -5.46437100E-08
  -1.62000004E-02  -5.63497835E-08
  -1.61499996E-02  -5.70945424E-08
  -1.61000006E-02  -5.74001113E-08
  -1.60499997E-02  -5.79079646E-08
  -1.60000008E-02  -5.90801221E-08
  -1.59499999E-02  -6.09749478E-08
  -1.59000009E-02  -6.32011066E-08
  -1.58500001E-02  -6.50745804E-08
  -1.57999992E-02  -6.59121966E-08
  -1.57500003E-02  -6.53313208E-08
  -1.56999994E-02  -6.34197477E-08
  -1.56500004E-02  -6.06960029E-08
  -1.55999996E-02  -5.78733967E-08
  -1.55499997E-02  -5.55306272E-08
  -1.54999997E-02  -5.38365370E-08
  -1.54499998E-02  -5.24550678E-08
  -1.53999999E-02  -5.06775315E-08
  -1.53500000E-02  -4.77270845E-08
  -1.53000001E-02  -4.31011067E-08
  -1.52500002E-02  -3.67969868E-08
  -1.52000003E-02  -2.93164391E-08
  -1.51500003E-02  -2.14418456E-08
  -1.51000004E-02  -1.38809959E-08
  -1.50499996E-02  -6.93864521E-09
  -1.49999997E-02  -3.64231756E-10
  -1.49499997E-02   6.55159660E-09
  -1.48999998E-02   1.46700598E-08
  -1.48499999E-02   2.46215759E-08
  -1.48000000E-02   3.65191362E-08
  -1.47500001E-02   4.98994339E-08
  -1.47000002E-02   6.39229043E-08
  -1.46500003E-02   7.77474867E-08
  -1.46000003E-02   9.09102980E-08
  -1.45500004E-02   1.03544771E-07
  -1.44999996E-02   1.16331805E-07
  -1.44499997E-02   1.30201386E-07
  -1.43999998E-02   1.45914996E-07
  -1.43499998E-02   1.63715129E-07
  -1.42999999E-02   1.83201593E-07
  -1.42500000E-02   2.03495318E-07
  -1.42000001E-02   2.23620987E-07
  -1.41500002E-02   2.42940303E-07
  -1.41000003E-02   2.61440675E-07
  -1.40500003E-02   2.79746587E-07
  -1.40000004E-02   2.98843105E-07
  -1.39499996E-02   3.19630686E-07
  -1.38999997E-02   3.42509367E-07
  -1.38499998E-02   3.67180377E-07
  -1.37999998E-02   3.92759404E-07
  -1.37499999E-02   4.18155565E-07
  -1.37000000E-02   4.42550942E-07
  -1.36500001E-02   4.65765424E-07
  -1.36000002E-02   4.88340959E-07
  -1.35500003E-02   5.11301550E-07
  -1.35000004E-02   5.35691413E-07
  -1.34500004E-02   5.62095579E-07
  -1.33999996E-02   5.90358752E-07
  -1.33499997E-02   6.19632772E-07
  -1.32999998E-02   6.48737057E-07
  -1.32499998E-02   6.76675882E-07
  -1.31999999E-02   7.03082549E-07
  -1.31500000E-02   7.28387931E-07
  -1.31000001E-02   7.53634708E-07
  -1.30500002E-02   7.80012613E-07
  -1.30000003E-02   8.08320237E-07
  -1.29500004E-02   8.38593735E-07
  -1.29000004E-02   8.70073336E-07
  -1.28499996E-02   9.01526960E-07
  -1.27999997E-02   9.31793750E-07
  -1.27499998E-02   9.60305442E-07
  -1.26999998E-02   9.87351541E-07
  -1.26499999E-02   1.01396358E-06
  -1.26000000E-02   1.04146534E-06
  -1.25500001E-02   1.07088545E-06
  -1.25000002E-02   1.10249186E-06
  -1.24500003E-02   1.13566261E-06
  -1.24000004E-02   1.16915567E-06
  -1.23500004E-02   1.20166021E-06
  -1.22999996E-02   1.23239249E-06
  -1.22499997E-02   1.26146483E-06
  -1.21999998E-02   1.28985937E-06
  -1.21499998E-02   1.31901129E-06
  -1.20999999E-02   1.35018581E-06
  -1.20500000E-02   1.38391874E-06
  -1.20000001E-02   1.41977898E-06
  -1.19500002E-02   1.45656259E-06
  -1.19000003E-02   1.49283619E-06
  -1.18500004E-02   1.52759605E-06
  -1.18000004E-02   1.56074373E-06
  -1.17499996E-02   1.59316482E-06
  -1.16999997E-02   1.62637252E-06
  -1.16499998E-02   1.66186078E-06
  -1.15999999E-02   1.70046042E-06
  -1.15499999E-02   1.74198033E-06
  -1.15000000E-02   1.78530377E-06
  -1.14500001E-02   1.82890096E-06
  -1.14000002E-02   1.87153682E-06
  -1.13500003E-02   1.91285540E-06
  -1.13000004E-02   1.95358075E-06
  -1.12500004E-02   1.99524038E-06
  -1.11999996E-02   2.03952095E-06
  -1.11499997E-02   2.08754818E-06
  -1.10999998E-02   2.13940689E-06
  -1.10499999E-02   2.19411913E-06
  -1.09999999E-02   2.25010012E-06
  -1.09500000E-02   2.30589308E-06
  -1.09000001E-02   2.36085975E-06
  -1.08500002E-02   2.41551334E-06
  -1.08000003E-02   2.47133926E-06
  -1.07500004E-02   2.53018334E-06
  -1.07000005E-02   2.59346848E-06
  -1.06499996E-02   2.66158668E-06
  -1.05999997E-02   2.73374508E-06
  -1.05499998E-02   2.80833819E-06
  -1.04999999E-02   2.88368642E-06
  -1.04499999E-02   2.95881887E-06
  -1.04000000E-02   3.03394836E-06
  -1.03500001E-02   3.11042913E-06
  -1.03000002E-02   3.19019705E-06
  -1.02500003E-02   3.27494195E-06
  -1.02000004E-02   3.36538233E-06
  -1.01500005E-02   3.46096590E-06
  -1.00999996E-02   3.56013311E-06
  -1.00499997E-02   3.66103177E-06
  -9.99999978E-03   3.76237222E-06
  -9.94999986E-03   3.86404645E-06
  -9.89999995E-03   3.96722453E-06
  -9.85000003E-03   4.07388097E-06
  -9.80000012E-03   4.18595346E-06
  -9.75000020E-03   4.30451473E-06
  -9.70000029E-03   4.42931332E-06
  -9.65000037E-03   4.55889631E-06
  -9.60000046E-03   4.69127281E-06
  -9.54999961E-03   4.82482346E-06
  -9.49999969E-03   4.95904351E-06
  -9.44999978E-03   5.09481788E-06
  -9.39999986E-03   5.23406698E-06
  -9.34999995E-03   5.37892038E-06
  -9.30000003E-03   5.53079690E-06
  -9.25000012E-03   5.68978885E-06
  -9.20000020E-03   5.85463158E-06
  -9.15000029E-03   6.02327191E-06
  -9.10000037E-03   6.19380671E-06
  -9.05000046E-03   6.36535788E-06
  -8.99999961E-03   6.53850975E-06
  -8.94999970E-03   6.71508406E-06
  -8.89999978E-03   6.89737681E-06
  -8.84999987E-03   7.08718790E-06
  -8.79999995E-03   7.28503755E-06
  -8.75000004E-03   7.48995308E-06
  -8.70000012E-03   7.69993130E-06
  -8.65000021E-03   7.91286311E-06
  -8.60000029E-03   8.12750204E-06
  -8.55000038E-03   8.34404455E-06
  -8.50000046E-03   8.56410952E-06
  -8.44999962E-03   8.79008167E-06
  -8.39999970E-03   9.02407919E-06
  -8.34999979E-03   9.26705616E-06
  -8.29999987E-03   9.51840957E-06
  -8.24999996E-03   9.77626951E-06
  -8.20000004E-03   1.00383822E-05
  -8.15000013E-03   1.03031316E-05
  -8.10000021E-03   1.05703193E-05
  -8.05000030E-03   1.08413133E-05
  -8.00000038E-03   1.11185100E-05
  -7.95000046E-03   1.14043505E-05
  -7.89999962E-03   1.17002819E-05
  -7.84999970E-03   1.20061832E-05
  -7.79999979E-03   1.23204736E-05
  -7.74999987E-03   1.26408595E-05
  -7.69999996E-03   1.29654309E-05
  -7.65000004E-03   1.32935647E-05
  -7.60000013E-03   1.36262997E-05
  -7.55000021E-03   1.39659915E-05
  -7.49999983E-03   1.43153402E-05
  -7.44999992E-03   1.46762695E-05
  -7.40000000E-03   1.50491605E-05
  -7.35000009E-03   1.54327608E-05
  -7.30000017E-03   1.58248222E-05
  -7.24999979E-03   1.62231827E-05
  -7.19999988E-03   1.66267819E-05
  -7.14999996E-03   1.70362746E-05
  -7.10000005E-03   1.74538382E-05
  -7.05000013E-03   1.78823138E-05
  -7.00000022E-03   1.83240481E-05
  -6.94999984E-03   1.87799524E-05
  -6.89999992E-03   1.92492407E-05
  -6.85000001E-03   1.97298432E-05
  -6.80000009E-03   2.02194042E-05
  -6.75000018E-03   2.07164885E-05
  -6.69999979E-03   2.12213272E-05
  -6.64999988E-03   2.17358411E-05
  -6.59999996E-03   2.22629169E-05
  -6.55000005E-03   2.28052759E-05
  -6.50000013E-03   2.33644041E-05
  -6.45000022E-03   2.39399942E-05
  -6.39999984E-03   2.45302381E-05
  -6.34999992E-03   2.51327274E-05
  -6.30000001E-03   2.57456650E-05
  -6.25000009E-03   2.63687816E-05
  -6.20000018E-03   2.70035962E-05
  -6.14999980E-03   2.76528936E-05
  -6.09999988E-03   2.83196550E-05
  -6.04999997E-03   2.90058688E-05
  -6.00000005E-03   2.97117804E-05
  -5.95000014E-03   3.04359110E-05
  -5.90000022E-03   3.11758595E-05
  -5.84999984E-03   3.19294886E-05
  -5.79999993E-03   3.26960253E-05
  -5.75000001E-03   3.34765573E-05
  -5.70000010E-03   3.42736676E-05
  -5.65000018E-03   3.50904229E-05
  -5.59999980E-03   3.59292353E-05
  -5.54999989E-03   3.67909197E-05
  -5.49999997E-03   3.76745083E-05
  -5.45000006E-03   3.85778294E-05
  -5.40000014E-03   3.94985182E-05
  -5.35000023E-03   4.04352577E-05
  -5.29999984E-03   4.13885355E-05
  -5.24999993E-03   4.23605888E-05
  -5.20000001E-03   4.33545320E-05
  -5.15000010E-03   4.43731478E-05
  -5.10000018E-03   4.54178262E-05
  -5.04999980E-03   4.64881305E-05
  -4.99999989E-03   4.75820998E-05
  -4.94999997E-03   4.86972967E-05
  -4.90000006E-03   4.98320078E-05
  -4.85000014E-03   5.09860693E-05
  -4.80000023E-03   5.21611692E-05
  -4.74999985E-03   5.33602870E-05
  -4.69999993E-03   5.45864896E-05
  -4.65000002E-03   5.58417560E-05
  -4.60000010E-03   5.71263154E-05
  -4.55000019E-03   5.84385998E-05
  -4.49999981E-03   5.97760809E-05
  -4.44999989E-03   6.11366559E-05
  -4.39999998E-03   6.25196699E-05
  -4.35000006E-03   6.39262944E-05
  -4.30000015E-03   6.53593088E-05
  -4.25000023E-03   6.68220309E-05
  -4.19999985E-03   6.83169565E-05
  -4.14999994E-03   6.98449221E-05
  -4.10000002E-03   7.14048292E-05
  -4.05000011E-03   7.29944586E-05
  -4.00000019E-03   7.46113510E-05
  -3.94999981E-03   7.62542331E-05
  -3.89999989E-03   7.79238835E-05
  -3.84999998E-03   7.96226814E-05
  -3.80000006E-03   8.13538936E-05
  -3.74999992E-03   8.31203724E-05
  -3.70000000E-03   8.49236312E-05
  -3.65000009E-03   8.67632189E-05
  -3.59999994E-03   8.86371563E-05
  -3.55000002E-03   9.05429843E-05
  -3.50000011E-03   9.24790293E-05
  -3.44999996E-03   9.44454077E-05
  -3.40000005E-03   9.64441861E-05
  -3.34999990E-03   9.84783983E-05
  -3.29999998E-03   1.00551180E-04
  -3.25000007E-03   1.02664730E-04
  -3.19999992E-03   1.04819199E-04
  -3.15000000E-03   1.07013191E-04
  -3.10000009E-03   1.09244509E-04
  -3.04999994E-03   1.11511225E-04
  -3.00000003E-03   1.13812668E-04
  -2.95000011E-03   1.16150128E-04
  -2.89999996E-03   1.18526557E-04
  -2.85000005E-03   1.20945311E-04
  -2.79999990E-03   1.23408972E-04
  -2.74999999E-03   1.25918566E-04
  -2.70000007E-03   1.28473286E-04
  -2.64999992E-03   1.31071196E-04
  -2.60000001E-03   1.33710142E-04
  -2.55000009E-03   1.36388757E-04
  -2.49999994E-03   1.39107739E-04
  -2.45000003E-03   1.41869663E-04
  -2.40000011E-03   1.44677950E-04
  -2.34999997E-03   1.47535611E-04
  -2.30000005E-03   1.50444263E-04
  -2.24999990E-03   1.53403802E-04
  -2.19999999E-03   1.56412687E-04
  -2.15000007E-03   1.59468691E-04
  -2.09999993E-03   1.62569922E-04
  -2.05000001E-03   1.65716381E-04
  -2.00000009E-03   1.68910090E-04
  -1.94999995E-03   1.72154512E-04
  -1.90000003E-03   1.75453213E-04
  -1.85000000E-03   1.78808303E-04
  -1.79999997E-03   1.82220087E-04
  -1.75000005E-03   1.85687211E-04
  -1.70000002E-03   1.89207654E-04
  -1.64999999E-03   1.92779393E-04
  -1.59999996E-03   1.96401859E-04
  -1.55000004E-03   2.00076334E-04
  -1.50000001E-03   2.03805452E-04
  -1.44999998E-03   2.07592995E-04
  -1.39999995E-03   2.11441744E-04
  -1.35000004E-03   2.15352731E-04
  -1.30000000E-03   2.19325288E-04
  -1.24999997E-03   2.23357332E-04
  -1.20000006E-03   2.27446872E-04
  -1.15000003E-03   2.31592392E-04
  -1.09999999E-03   2.35794476E-04
  -1.04999996E-03   2.40055655E-04
  -1.00000005E-03   2.44378927E-04
  -9.50000016E-04   2.48767145E-04
  -8.99999985E-04   2.53221951E-04
  -8.50000011E-04   2.57743639E-04
  -7.99999980E-04   2.62330897E-04
  -7.50000007E-04   2.66981806E-04
  -6.99999975E-04   2.71694560E-04
  -6.50000002E-04   2.76468549E-04
  -6.00000028E-04   2.81304965E-04
  -5.49999997E-04   2.86206632E-04
  -5.00000024E-04   2.91176781E-04
  -4.49999992E-04   2.96217739E-04
  -3.99999990E-04   3.01330030E-04
  -3.49999988E-04   3.06512578E-04
  -3.00000014E-04   3.11763521E-04
  -2.50000012E-04   3.17080703E-04
  -1.99999995E-04   3.22462816E-04
  -1.50000007E-04   3.27910675E-04
  -9.99999975E-05   3.33426986E-04
  -4.99999987E-05   3.39014368E-04
   0.00000000       3.44674976E-04
   4.99999987E-05   3.50410352E-04
   9.99999975E-05   3.56219680E-04
   1.50000007E-04   3.62100924E-04
   1.99999995E-04   3.68052133E-04
   2.50000012E-04   3.74071911E-04
   3.00000014E-04   3.80160200E-04
   3.49999988E-04   3.86318367E-04
   3.99999990E-04   3.92548711E-04
   4.49999992E-04   3.98853561E-04
   5.00000024E-04   4.05234721E-04
   5.49999997E-04   4.11693152E-04
   6.00000028E-04   4.18227457E-04
   6.50000002E-04   4.24834900E-04
   6.99999975E-04   4.31513356E-04
   7.50000007E-04   4.38260933E-04
   7.99999980E-04   4.45077691E-04
   8.50000011E-04   4.51966102E-04
   8.99999985E-04   4.58929251E-04
   9.50000016E-04   4.65969642E-04
   1.00000005E-03   4.73088206E-04
   1.04999996E-03   4.80284245E-04
   1.09999999E-03   4.87555284E-04
   1.15000003E-03   4.94897889E-04
   1.20000006E-03   5.02309180E-04
   1.24999997E-03   5.09787933E-04
   1.30000000E-03   5.17335779E-04
   1.35000004E-03   5.24955802E-04
   1.39999995E-03   5.32651611E-04
   1.44999998E-03   5.40425186E-04
   1.50000001E-03   5.48276294E-04
   1.55000004E-03   5.56201965E-04
   1.59999996E-03   5.64198417E-04
   1.64999999E-03   5.72262332E-04
   1.70000002E-03   5.80390799E-04
   1.75000005E-03   5.88584051E-04
   1.79999997E-03   5.96845639E-04
   1.85000000E-03   6.05179404E-04
   1.90000003E-03   6.13587210E-04
   1.94999995E-03   6.22068939E-04
   2.00000009E-03   6.30622206E-04
   2.05000001E-03   6.39242586E-04
   2.09999993E-03   6.47925481E-04
   2.15000007E-03   6.56667456E-04
   2.19999999E-03   6.65467174E-04
   2.24999990E-03   6.74327253E-04
   2.30000005E-03   6.83253922E-04
   2.34999997E-03   6.92249450E-04
   2.40000011E-03   7.01312267E-04
   2.45000003E-03   7.10439577E-04
   2.49999994E-03   7.19626958E-04
   2.55000009E-03   7.28869520E-04
   2.60000001E-03   7.38162780E-04
   2.64999992E-03   7.47505110E-04
   2.70000007E-03   7.56900059E-04
   2.74999999E-03   7.66350655E-04
   2.79999990E-03   7.75857072E-04