  -3.99999991E-02   0.00000000    
  -3.99499983E-02   0.00000000    
  -3.99000011E-02   0.00000000    
  -3.98500003E-02   0.00000000    
  -3.97999994E-02   1.28278197E-18
  -3.97499986E-02   1.56538339E-17
  -3.97000015E-02   9.84607972E-17
  -3.96500006E-02   4.23803671E-16
  -3.95999998E-02   1.39856225E-15
  -3.95499989E-02   3.75875275E-15
  -3.95000018E-02   8.53309123E-15
  -3.94500010E-02   1.67545082E-14
  -3.94000001E-02   2.89094717E-14
  -3.93499993E-02   4.43336401E-14
  -3.92999984E-02   6.09800635E-14
  -3.92500013E-02   7.60123843E-14
  -3.92000005E-02   8.73562222E-14
  -3.91499996E-02   9.57173251E-14
  -3.90999988E-02   1.05954382E-13
  -3.90500017E-02   1.26550029E-13
  -3.90000008E-02   1.66587718E-13
  -3.89500000E-02   2.31003801E-13
  -3.88999991E-02   3.16293866E-13
  -3.88499983E-02   4.09401300E-13
  -3.88000011E-02   4.91566098E-13
  -3.87500003E-02   5.46576402E-13
  -3.86999995E-02   5.70113997E-13
  -3.86499986E-02   5.75202050E-13
  -3.86000015E-02   5.89421361E-13
  -3.85500006E-02   6.42886135E-13
  -3.84999998E-02   7.50867196E-13
  -3.84499989E-02   8.99108533E-13
  -3.84000018E-02   1.04067959E-12
  -3.83500010E-02   1.10923228E-12
  -3.83000001E-02   1.04578314E-12
  -3.82499993E-02   8.28131563E-13
  -3.81999984E-02   4.88223665E-13
  -3.81500013E-02   1.06140892E-13
  -3.81000005E-02  -2.20652544E-13
  -3.80499996E-02  -4.21874829E-13
  -3.79999988E-02  -4.93278758E-13
  -3.79500017E-02  -5.10216977E-13
  -3.79000008E-02  -6.05952246E-13
  -3.78500000E-02  -9.20523857E-13
  -3.77999991E-02  -1.54100539E-12
  -3.77499983E-02  -2.46063998E-12
  -3.77000012E-02  -3.57815015E-12
  -3.76500003E-02  -4.74093638E-12
  -3.75999995E-02  -5.81464868E-12
  -3.75499986E-02  -6.74738043E-12
  -3.75000015E-02  -7.59746432E-12
  -3.74500006E-02  -8.50992974E-12
  -3.73999998E-02  -9.65043063E-12
  -3.73499990E-02  -1.11252127E-11
  -3.73000018E-02  -1.29218667E-11
  -3.72500010E-02  -1.48959890E-11
  -3.72000001E-02  -1.68086135E-11
  -3.71499993E-02  -1.83982014E-11
  -3.70999984E-02  -1.94586500E-11
  -3.70500013E-02  -1.98960484E-11
  -3.70000005E-02  -1.97494261E-11
  -3.69499996E-02  -1.91765805E-11
  -3.68999988E-02  -1.84157949E-11
  -3.68500017E-02  -1.77335351E-11
  -3.68000008E-02  -1.73612028E-11
  -3.67500000E-02  -1.74213075E-11
  -3.66999991E-02  -1.78522197E-11
  -3.66499983E-02  -1.83586254E-11
  -3.66000012E-02  -1.84274054E-11
  -3.65500003E-02  -1.74391491E-11
  -3.64999995E-02  -1.48672359E-11
  -3.64499986E-02  -1.05020888E-11
  -3.64000015E-02  -4.59642047E-12
  -3.63500006E-02   2.17035244E-12
  -3.62999998E-02   8.94830217E-12
  -3.62499990E-02   1.51266517E-11
  -3.62000018E-02   2.07232079E-11
  -3.61500010E-02   2.65349930E-11
  -3.61000001E-02   3.38951263E-11
  -3.60499993E-02   4.40515367E-11
  -3.59999985E-02   5.73968546E-11
  -3.59500013E-02   7.29277541E-11
  -3.59000005E-02   8.82933449E-11
  -3.58499996E-02   1.00571607E-10
  -3.57999988E-02   1.07560134E-10
  -3.57500017E-02   1.09040568E-10
  -3.57000008E-02   1.07356339E-10
  -3.56500000E-02   1.06841924E-10
  -3.55999991E-02   1.12124969E-10
  -3.55499983E-02   1.25904218E-10
  -3.55000012E-02   1.47204526E-10
  -3.54500003E-02   1.71081260E-10
  -3.53999995E-02   1.90213442E-10
  -3.53499986E-02   1.97957609E-10
  -3.53000015E-02   1.91613281E-10
  -3.52500007E-02   1.74307666E-10
  -3.51999998E-02   1.54308580E-10
  -3.51499990E-02   1.41653203E-10
  -3.51000018E-02   1.43307727E-10
  -3.50500010E-02   1.59021366E-10
  -3.50000001E-02   1.80064630E-10
  -3.49499993E-02   1.91974964E-10
  -3.48999985E-02   1.80627943E-10
  -3.48500013E-02   1.39186190E-10
  -3.48000005E-02   7.26414554E-11
  -3.47499996E-02  -2.67532220E-12
  -3.46999988E-02  -6.51692519E-11
  -3.46500017E-02  -9.75264175E-11
  -3.46000008E-02  -9.55826390E-11
  -3.45500000E-02  -7.20836515E-11
  -3.44999991E-02  -5.27675507E-11
  -3.44499983E-02  -6.55975343E-11
  -3.44000012E-02  -1.27444957E-10
  -3.43500003E-02  -2.34368608E-10
  -3.42999995E-02  -3.60720398E-10
  -3.42499986E-02  -4.68701300E-10
  -3.42000015E-02  -5.25099797E-10
  -3.41500007E-02  -5.17993759E-10
  -3.40999998E-02  -4.65252226E-10
  -3.40499990E-02  -4.09600687E-10
  -3.40000018E-02  -4.00889960E-10
  -3.39500010E-02  -4.72534734E-10
  -3.39000002E-02  -6.22824348E-10
  -3.38499993E-02  -8.10800926E-10
  -3.37999985E-02  -9.70540870E-10
  -3.37500013E-02  -1.03922992E-09
  -3.37000005E-02  -9.87185667E-10
  -3.36499996E-02  -8.35608416E-10
  -3.35999988E-02  -6.52071896E-10
  -3.35500017E-02  -5.23323385E-10
  -3.35000008E-02  -5.15846033E-10
  -3.34500000E-02  -6.41734055E-10
  -3.33999991E-02  -8.46866355E-10
  -3.33499983E-02  -1.02954778E-09
  -3.33000012E-02  -1.08403442E-09
  -3.32500003E-02  -9.50782231E-10
  -3.31999995E-02  -6.50042353E-10
  -3.31499986E-02  -2.80894197E-10
  -3.31000015E-02   1.75337384E-11
  -3.30500007E-02   1.28127425E-10
  -3.29999998E-02   1.39361031E-11
  -3.29499990E-02  -2.55759303E-10
  -3.29000019E-02  -5.27200061E-10
  -3.28500010E-02  -6.26245611E-10
  -3.28000002E-02  -4.38582254E-10
  -3.27499993E-02   3.04816242E-11
  -3.26999985E-02   6.47032150E-10
  -3.26500013E-02   1.19953758E-09
  -3.26000005E-02   1.49130108E-09
  -3.25499997E-02   1.43437839E-09
  -3.24999988E-02   1.10049925E-09
  -3.24500017E-02   7.00823788E-10
  -3.24000008E-02   4.97597130E-10
  -3.23500000E-02   6.83417378E-10
  -3.22999991E-02   1.28248678E-09
  -3.22499983E-02   2.12273399E-09
  -3.22000012E-02   2.89847324E-09
  -3.21500003E-02   3.30207905E-09
  -3.20999995E-02   3.16851145E-09
  -3.20499986E-02   2.56545651E-09
  -3.20000015E-02   1.78168591E-09
  -3.19500007E-02   1.21026300E-09
  -3.18999998E-02   1.17264387E-09
  -3.18499990E-02   1.76155324E-09
  -3.18000019E-02   2.77822321E-09
  -3.17500010E-02   3.80137299E-09
  -3.17000002E-02   4.36628689E-09
  -3.16499993E-02   4.17870361E-09
  -3.15999985E-02   3.26573124E-09
  -3.15500014E-02   1.98780703E-09
  -3.15000005E-02   8.95070185E-10
  -3.14499997E-02   4.83411311E-10
  -3.13999988E-02   9.57005697E-10
  -3.13500017E-02   2.10940820E-09
  -3.13000008E-02   3.38822415E-09
  -3.12500000E-02   4.12711776E-09
  -3.11999992E-02   3.84910193E-09
  -3.11500002E-02   2.50434096E-09
  -3.10999993E-02   5.26157951E-10
  -3.10500003E-02  -1.33448241E-09
  -3.09999995E-02  -2.33490427E-09
  -3.09500005E-02  -2.08641548E-09
  -3.08999997E-02  -7.59713459E-10
  -3.08500007E-02   9.55896917E-10
  -3.07999998E-02   2.13777018E-09
  -3.07500008E-02   2.04359463E-09
  -3.07000000E-02   4.69331296E-10
  -3.06499992E-02  -2.11937534E-09
  -3.06000002E-02  -4.75901585E-09
  -3.05499993E-02  -6.40358255E-09
  -3.05000003E-02  -6.40611786E-09
  -3.04499995E-02  -4.84630869E-09
  -3.04000005E-02  -2.54115284E-09
  -3.03499997E-02  -7.12723380E-10
  -3.03000007E-02  -4.45160131E-10
  -3.02499998E-02  -2.16984031E-09
  -3.02000009E-02  -5.42005951E-09
  -3.01500000E-02  -8.98668251E-09
  -3.00999992E-02  -1.14281127E-08
  -3.00500002E-02  -1.17202754E-08
  -2.99999993E-02  -9.75381820E-09
  -2.99500003E-02  -6.43847242E-09
  -2.98999995E-02  -3.34213812E-09
  -2.98500005E-02  -2.00373584E-09
  -2.97999997E-02  -3.21858762E-09
  -2.97500007E-02  -6.62575550E-09
  -2.96999998E-02  -1.08063585E-08
  -2.96500009E-02  -1.38774547E-08
  -2.96000000E-02  -1.43355541E-08
  -2.95499992E-02  -1.17739107E-08
  -2.95000002E-02  -7.13443704E-09
  -2.94499993E-02  -2.35095610E-09
  -2.94000003E-02   4.86075569E-10
  -2.93499995E-02   8.46594392E-11
  -2.93000005E-02  -3.40813933E-09
  -2.92499997E-02  -8.39321501E-09
  -2.92000007E-02  -1.24746897E-08
  -2.91499998E-02  -1.35178571E-08
  -2.91000009E-02  -1.06440323E-08
  -2.90500000E-02  -4.70063988E-09
  -2.89999992E-02   2.03778394E-09
  -2.89500002E-02   6.84040602E-09
  -2.88999993E-02   7.75084619E-09
  -2.88500004E-02   4.52484805E-09
  -2.87999995E-02  -1.17171450E-09
  -2.87500005E-02  -6.43340847E-09
  -2.86999997E-02  -8.39005754E-09
  -2.86500007E-02  -5.53002089E-09
  -2.85999998E-02   1.53403545E-09
  -2.85500009E-02   1.02367670E-08
  -2.85000000E-02   1.71369532E-08
  -2.84499992E-02   1.94497058E-08
  -2.84000002E-02   1.63531837E-08
  -2.83499993E-02   9.45931777E-09
  -2.83000004E-02   2.19235208E-09
  -2.82499995E-02  -1.69225556E-09
  -2.82000005E-02   1.89221305E-10
  -2.81499997E-02   7.69342368E-09
  -2.81000007E-02   1.80965625E-08
  -2.80499998E-02   2.72183236E-08
  -2.80000009E-02   3.12626440E-08
  -2.79500000E-02   2.85658022E-08
  -2.78999992E-02   2.04481605E-08
  -2.78500002E-02   1.07400142E-08
  -2.77999993E-02   4.13926893E-09
  -2.77500004E-02   4.09993239E-09
  -2.76999995E-02   1.11955476E-08
  -2.76500005E-02   2.27259171E-08
  -2.75999997E-02   3.38008732E-08
  -2.75500007E-02   3.94704074E-08
  -2.74999999E-02   3.69744591E-08
  -2.74500009E-02   2.70916463E-08
  -2.74000000E-02   1.39341587E-08
  -2.73499992E-02   3.21719784E-09
  -2.73000002E-02  -2.72141698E-10
  -2.72499993E-02   5.11285814E-09
  -2.72000004E-02   1.70048686E-08
  -2.71499995E-02   2.99389527E-08
  -2.71000005E-02   3.77137290E-08
  -2.70499997E-02   3.61806904E-08
  -2.70000007E-02   2.52100403E-08
  -2.69499999E-02   8.90687879E-09
  -2.69000009E-02  -6.08881967E-09
  -2.68500000E-02  -1.35202036E-08
  -2.67999992E-02  -1.03706705E-08
  -2.67500002E-02   1.64022695E-09
  -2.66999993E-02   1.66536438E-08
  -2.66500004E-02   2.71697775E-08
  -2.65999995E-02   2.73859175E-08
  -2.65500005E-02   1.58914819E-08
  -2.64999997E-02  -3.52611673E-09
  -2.64500007E-02  -2.34000925E-08
  -2.63999999E-02  -3.58246588E-08
  -2.63500009E-02  -3.60119756E-08
  -2.63000000E-02  -2.45662282E-08
  -2.62499992E-02  -7.39909112E-09
  -2.62000002E-02   6.75938505E-09
  -2.61499994E-02   1.02131610E-08
  -2.61000004E-02  -1.79251183E-10
  -2.60499995E-02  -2.14203730E-08
  -2.60000005E-02  -4.55095943E-08
  -2.59499997E-02  -6.28799626E-08
  -2.59000007E-02  -6.66615918E-08
  -2.58499999E-02  -5.58730981E-08
  -2.58000009E-02  -3.60622963E-08
  -2.57500000E-02  -1.70201773E-08
  -2.56999992E-02  -8.50146531E-09
  -2.56500002E-02  -1.58166635E-08
  -2.55999994E-02  -3.72805538E-08
  -2.55500004E-02  -6.47295835E-08
  -2.54999995E-02  -8.69757244E-08
  -2.54500005E-02  -9.47352987E-08
  -2.53999997E-02  -8.48586268E-08
  -2.53500007E-02  -6.19318783E-08
  -2.52999999E-02  -3.64455914E-08
  -2.52500009E-02  -2.02463468E-08
  -2.52000000E-02  -2.12351967E-08
  -2.51499992E-02  -3.96775306E-08
  -2.51000002E-02  -6.78370569E-08
  -2.50499994E-02  -9.32021820E-08
  -2.50000004E-02  -1.03963991E-07
  -2.49499995E-02  -9.43492466E-08
  -2.49000005E-02  -6.74036968E-08
  -2.48499997E-02  -3.38951409E-08
  -2.48000007E-02  -7.71095277E-09
  -2.47499999E-02   2.86460994E-10
  -2.47000009E-02  -1.27699034E-08
  -2.46500000E-02  -4.02248332E-08
  -2.45999992E-02  -6.86065675E-08
  -2.45500002E-02  -8.34743688E-08
  -2.44999994E-02  -7.58731318E-08
  -2.44500004E-02  -4.65136161E-08
  -2.43999995E-02  -5.73414694E-09
  -2.43500005E-02   3.08610240E-08
  -2.42999997E-02   4.92525629E-08
  -2.42500007E-02   4.33412879E-08
  -2.41999999E-02   1.79083184E-08
  -2.41500009E-02  -1.32254963E-08
  -2.41000000E-02  -3.31516219E-08
  -2.40499992E-02  -2.93828482E-08
  -2.40000002E-02   4.05936201E-10
  -2.39499994E-02   4.70304755E-08
  -2.39000004E-02   9.35709465E-08
  -2.38499995E-02   1.22717324E-07
  -2.38000005E-02   1.24492246E-07
  -2.37499997E-02   1.00900074E-07
  -2.37000007E-02   6.53351151E-08
  -2.36499999E-02   3.68714232E-08
  -2.36000009E-02   3.18554143E-08
  -2.35500000E-02   5.64955833E-08
  -2.34999992E-02   1.03795990E-07
  -2.34500002E-02   1.56322542E-07
  -2.33999994E-02   1.93716815E-07
  -2.33500004E-02   2.01716347E-07
  -2.32999995E-02   1.78680125E-07
  -2.32500006E-02   1.36631016E-07
  -2.31999997E-02   9.62056106E-08
  -2.31500007E-02   7.76152689E-08
  -2.30999999E-02   9.15627183E-08
  -2.30500009E-02   1.34181107E-07
  -2.30000000E-02   1.88364510E-07
  -2.29499992E-02   2.31057911E-07
  -2.29000002E-02   2.43395050E-07
  -2.28499994E-02   2.19219174E-07
  -2.28000004E-02   1.68133440E-07
  -2.27499995E-02   1.11580029E-07
  -2.27000006E-02   7.35297903E-08
  -2.26499997E-02   6.98158971E-08
  -2.26000007E-02   1.00850471E-07
  -2.25499999E-02   1.51065677E-07
  -2.25000009E-02   1.95492660E-07
  -2.24500000E-02   2.10707086E-07
  -2.23999992E-02   1.85348838E-07
  -2.23500002E-02   1.25499554E-07
  -2.22999994E-02   5.23886712E-08
  -2.22500004E-02  -6.72930378E-09
  -2.21999995E-02  -3.06072963E-08
  -2.21500006E-02  -1.36353933E-08
  -2.20999997E-02   3.12945154E-08
  -2.20500007E-02   7.81281742E-08
  -2.19999999E-02   9.89953364E-08
  -2.19500009E-02   7.66287584E-08
  -2.19000001E-02   1.23294841E-08
  -2.18499992E-02  -7.41823172E-08
  -2.18000002E-02  -1.53146132E-07
  -2.17499994E-02  -1.97807282E-07
  -2.17000004E-02  -1.96402141E-07
  -2.16499995E-02  -1.57701734E-07
  -2.16000006E-02  -1.07495403E-07
  -2.15499997E-02  -7.73890534E-08
  -2.15000007E-02  -9.07592579E-08
  -2.14499999E-02  -1.52080588E-07
  -2.14000009E-02  -2.44469192E-07
  -2.13500001E-02  -3.36715686E-07
  -2.12999992E-02  -3.96865403E-07
  -2.12500002E-02  -4.06415353E-07
  -2.11999994E-02  -3.68797032E-07
  -2.11500004E-02  -3.08236963E-07
  -2.10999995E-02  -2.59306972E-07
  -2.10500006E-02  -2.51643570E-07
  -2.09999997E-02  -2.96565361E-07
  -2.09500007E-02  -3.81604252E-07
  -2.08999999E-02  -4.75550110E-07
  -2.08500009E-02  -5.41961697E-07
  -2.08000001E-02  -5.55272152E-07
  -2.07499992E-02  -5.12345082E-07
  -2.07000002E-02  -4.34230884E-07
  -2.06499994E-02  -3.57153482E-07
  -2.06000004E-02  -3.16549944E-07
  -2.05499995E-02  -3.31164102E-07
  -2.05000006E-02  -3.94302617E-07
  -2.04499997E-02  -4.76293025E-07
  -2.04000007E-02  -5.37254436E-07
  -2.03499999E-02  -5.44666591E-07
  -2.03000009E-02  -4.87979889E-07
  -2.02500001E-02  -3.83689780E-07
  -2.01999992E-02  -2.68441283E-07
  -2.01500002E-02  -1.83031389E-07
  -2.00999994E-02  -1.54292351E-07
  -2.00500004E-02  -1.82905040E-07
  -1.99999996E-02  -2.42681665E-07
  -1.99500006E-02  -2.91827916E-07
  -1.98999997E-02  -2.91355491E-07
  -1.98500007E-02  -2.22542653E-07
  -1.97999999E-02  -9.56347463E-08
  -1.97500009E-02   5.42379546E-08
  -1.97000001E-02   1.82306067E-07
  -1.96499992E-02   2.53940300E-07
  -1.96000002E-02   2.60206008E-07
  -1.95499994E-02   2.22185733E-07
  -1.95000004E-02   1.81968389E-07
  -1.94499996E-02   1.84123763E-07
  -1.94000006E-02   2.55784130E-07
  -1.93499997E-02   3.94196320E-07
  -1.93000007E-02   5.67404641E-07
  -1.92499999E-02   7.27948532E-07
  -1.92000009E-02   8.33650233E-07
  -1.91500001E-02   8.66319510E-07
  -1.90999992E-02   8.40009648E-07
  -1.90500002E-02   7.95007111E-07
  -1.89999994E-02   7.80043479E-07
  -1.89500004E-02   8.30512420E-07
  -1.88999996E-02   9.52353275E-07
  -1.88500006E-02   1.11886004E-06
  -1.87999997E-02   1.28200168E-06
  -1.87500007E-02   1.39338511E-06
  -1.86999999E-02   1.42563499E-06
  -1.86500009E-02   1.38466396E-06
  -1.86000001E-02   1.30725391E-06
  -1.85499992E-02   1.24485257E-06
  -1.85000002E-02   1.24064343E-06
  -1.84499994E-02   1.31003310E-06
  -1.84000004E-02   1.43328305E-06
  -1.83499996E-02   1.56370334E-06
  -1.83000006E-02   1.64792630E-06
  -1.82499997E-02   1.64936387E-06
  -1.82000007E-02   1.56443377E-06
  -1.81499999E-02   1.42425915E-06
  -1.81000009E-02   1.28094825E-06
  -1.80500001E-02   1.18441403E-06
  -1.79999992E-02   1.15996158E-06
  -1.79500002E-02   1.19663628E-06
  -1.78999994E-02   1.25161444E-06
  -1.78500004E-02   1.26882571E-06
  -1.77999996E-02   1.20364621E-06
  -1.77500006E-02   1.04272522E-06
  -1.76999997E-02   8.10074937E-07
  -1.76500008E-02   5.56604959E-07
  -1.75999999E-02   3.37623618E-07
  -1.75500009E-02   1.88206158E-07
  -1.75000001E-02   1.07383201E-07
  -1.74499992E-02   5.82330344E-08
  -1.74000002E-02  -1.60454334E-08
  -1.73499994E-02  -1.67116482E-07
  -1.73000004E-02  -4.18610398E-07
  -1.72499996E-02  -7.55525946E-07
  -1.72000006E-02  -1.13072917E-06
  -1.71499997E-02  -1.48574964E-06
  -1.71000008E-02  -1.77671438E-06
  -1.70499999E-02  -1.99392161E-06
  -1.70000009E-02  -2.16631770E-06
  -1.69500001E-02  -2.34880599E-06
  -1.68999992E-02  -2.59793342E-06
  -1.68500002E-02  -2.94670440E-06
  -1.67999994E-02  -3.38970881E-06
  -1.67500004E-02  -3.88521403E-06
  -1.66999996E-02  -4.37337667E-06
  -1.66500006E-02  -4.80255949E-06
  -1.65999997E-02  -5.15211377E-06
  -1.65500008E-02  -5.44149043E-06
  -1.64999999E-02  -5.72160207E-06
  -1.64500009E-02  -6.05219566E-06
  -1.64000001E-02  -6.47521847E-06
  -1.63499992E-02  -6.99604334E-06
  -1.63000003E-02  -7.58083343E-06
  -1.62499994E-02  -8.17126329E-06
  -1.62000004E-02  -8.71015436E-06
  -1.61499996E-02  -9.16664067E-06
  -1.61000006E-02  -9.54968982E-06
  -1.60499997E-02  -9.90397530E-06
  -1.60000008E-02  -1.02899021E-05
  -1.59499999E-02  -1.07566257E-05
  -1.59000009E-02  -1.13200349E-05
  -1.58500001E-02  -1.19554124E-05
  -1.57999992E-02  -1.26080877E-05
  -1.57500003E-02  -1.32173973E-05
  -1.56999994E-02  -1.37432835E-05
  -1.56500004E-02  -1.41838209E-05
  -1.55999996E-02  -1.45758540E-05
  -1.55499997E-02  -1.49785237E-05
  -1.54999997E-02  -1.54469653E-05
  -1.54499998E-02  -1.60078034E-05
  -1.53999999E-02  -1.66473183E-05
  -1.53500000E-02  -1.73174940E-05
  -1.53000001E-02  -1.79572835E-05
  -1.52500002E-02  -1.85195804E-05
  -1.52000003E-02  -1.89919701E-05
  -1.51500003E-02  -1.94020922E-05
  -1.51000004E-02  -1.98053094E-05
  -1.50499996E-02  -2.02601295E-05
  -1.49999997E-02  -2.08022611E-05
  -1.49499997E-02  -2.14288502E-05
  -1.48999998E-02  -2.20998609E-05
  -1.48499999E-02  -2.27559503E-05
  -1.48000000E-02  -2.33447317E-05
  -1.47500001E-02  -2.38439388E-05
  -1.47000002E-02  -2.42713122E-05
  -1.46500003E-02  -2.46767286E-05
  -1.46000003E-02  -2.51202091E-05
  -1.45500004E-02  -2.56455969E-05
  -1.44999996E-02  -2.62615449E-05
  -1.44499997E-02  -2.69381817E-05
  -1.43999998E-02  -2.76208048E-05
  -1.43499998E-02  -2.82545225E-05
  -1.42999999E-02  -2.88088886E-05
  -1.42500000E-02  -2.92915392E-05
  -1.42000001E-02  -2.97449769E-05
  -1.41500002E-02  -3.02280259E-05
  -1.41000003E-02  -3.07901209E-05
  -1.40500003E-02  -3.14500066E-05
  -1.40000004E-02  -3.21881635E-05
  -1.39499996E-02  -3.29560098E-05
  -1.38999997E-02  -3.36980047E-05
  -1.38499998E-02  -3.43766806E-05
  -1.37999998E-02  -3.49895454E-05
  -1.37499999E-02  -3.55703887E-05
  -1.37000000E-02  -3.61746133E-05
  -1.36500001E-02  -3.68552646E-05
  -1.36000002E-02  -3.76402895E-05
  -1.35500003E-02  -3.85210806E-05
  -1.35000004E-02  -3.94573217E-05
  -1.34500004E-02  -4.03958184E-05
  -1.33999996E-02  -4.12947556E-05
  -1.33499997E-02  -4.21426266E-05
  -1.32999998E-02  -4.29637039E-05
  -1.32499998E-02  -4.38076931E-05
  -1.31999999E-02  -4.47281745E-05
  -1.31500000E-02  -4.57596398E-05
  -1.31000001E-02  -4.69031220E-05
  -1.30500002E-02  -4.81267671E-05
  -1.30000003E-02  -4.93808984E-05
  -1.29500004E-02  -5.06207871E-05
  -1.29000004E-02  -5.18269117E-05
  -1.28499996E-02  -5.30137877E-05
  -1.27999997E-02  -5.42239213E-05
  -1.27499998E-02  -5.55094412E-05
  -1.26999998E-02  -5.69096592E-05
  -1.26499999E-02  -5.84346417E-05
  -1.26000000E-02  -6.00619642E-05
  -1.25500001E-02  -6.17480400E-05
  -1.25000002E-02  -6.34480675E-05
  -1.24500003E-02  -6.51364680E-05
  -1.24000004E-02  -6.68189314E-05
  -1.23500004E-02  -6.85298874E-05
  -1.22999996E-02  -7.03176993E-05
  -1.22499997E-02  -7.22238983E-05
  -1.21999998E-02  -7.42657794E-05
  -1.21499998E-02  -7.64299111E-05
  -1.20999999E-02  -7.86789824E-05
  -1.20500000E-02  -8.09692647E-05
  -1.20000001E-02  -8.32706210E-05
  -1.19500002E-02  -8.55798935E-05
  -1.19000003E-02  -8.79219951E-05
  -1.18500004E-02  -9.03392720E-05
  -1.18000004E-02  -9.28731242E-05
  -1.17499996E-02  -9.55461437E-05
  -1.16999997E-02  -9.83532154E-05
  -1.16499998E-02  -1.01264995E-04
  -1.15999999E-02  -1.04242034E-04
  -1.15499999E-02  -1.07253050E-04
  -1.15000000E-02  -1.10289213E-04
  -1.14500001E-02  -1.13368311E-04
  -1.14000002E-02  -1.16526986E-04
  -1.13500003E-02  -1.19805103E-04
  -1.13000004E-02  -1.23228805E-04
  -1.12500004E-02  -1.26799816E-04
  -1.11999996E-02  -1.30495930E-04
  -1.11499997E-02  -1.34281639E-04
  -1.10999998E-02  -1.38124407E-04
  -1.10499999E-02  -1.42009259E-04
  -1.09999999E-02  -1.45945436E-04
  -1.09500000E-02  -1.49961852E-04
  -1.09000001E-02  -1.54094552E-04
  -1.08500002E-02  -1.58371768E-04
  -1.08000003E-02  -1.62802156E-04
  -1.07500004E-02  -1.67372666E-04
  -1.07000005E-02  -1.72055690E-04
  -1.06499996E-02  -1.76822650E-04
  -1.05999997E-02  -1.81657975E-04
  -1.05499998E-02  -1.86566002E-04
  -1.04999999E-02  -1.91569634E-04
  -1.04499999E-02  -1.96701178E-04
  -1.04000000E-02  -2.01989053E-04
  -1.03500001E-02  -2.07445861E-04
  -1.03000002E-02  -2.13064370E-04
  -1.02500003E-02  -2.18822577E-04
  -1.02000004E-02  -2.24694129E-04
  -1.01500005E-02  -2.30661142E-04
  -1.00999996E-02  -2.36722262E-04
  -1.00499997E-02  -2.42893366E-04
  -9.99999978E-03  -2.49201752E-04
  -9.94999986E-03  -2.55674066E-04
  -9.89999995E-03  -2.62326270E-04
  -9.85000003E-03  -2.69158219E-04
  -9.80000012E-03  -2.76155333E-04
  -9.75000020E-03  -2.83297035E-04
  -9.70000029E-03  -2.90567550E-04
  -9.65000037E-03  -2.97964230E-04
  -9.60000046E-03  -3.05499707E-04
  -9.54999961E-03  -3.13197350E-04
  -9.49999969E-03  -3.21082247E-04
  -9.44999978E-03  -3.29173083E-04
  -9.39999986E-03  -3.37475591E-04
  -9.34999995E-03  -3.45982553E-04
  -9.30000003E-03  -3.54678981E-04
  -9.25000012E-03  -3.63550527E-04
  -9.20000020E-03  -3.72591778E-04
  -9.15000029E-03  -3.81808757E-04
  -9.10000037E-03  -3.91217734E-04
  -9.05000046E-03  -4.00839432E-04
  -8.99999961E-03  -4.10691224E-04
  -8.94999970E-03  -4.20780911E-04
  -8.89999978E-03  -4.31105291E-04
  -8.84999987E-03  -4.41654469E-04
  -8.79999995E-03  -4.52418084E-04
  -8.75000004E-03  -4.63391305E-04
  -8.70000012E-03  -4.74579283E-04
  -8.65000021E-03  -4.85996541E-04
  -8.60000029E-03  -4.97662870E-04
  -8.55000038E-03  -5.09596139E-04
  -8.50000046E-03  -5.21807815E-04
  -8.44999962E-03  -5.34300576E-04
  -8.39999970E-03  -5.47070638E-04
  -8.34999979E-03  -5.60112763E-04
  -8.29999987E-03  -5.73422411E-04
  -8.24999996E-03  -5.87001559E-04
  -8.20000004E-03  -6.00860454E-04
  -8.15000013E-03  -6.15014753E-04
  -8.10000021E-03  -6.29480171E-04
  -8.05000030E-03  -6.44267420E-04
  -8.00000038E-03  -6.59382087E-04
  -7.95000046E-03  -6.74822892E-04
  -7.89999962E-03  -6.90585119E-04
  -7.84999970E-03  -7.06665916E-04
  -7.79999979E-03  -7.23065517E-04
  -7.74999987E-03  -7.39789393E-04
  -7.69999996E-03  -7.56849186E-04
  -7.65000004E-03  -7.74260086E-04
  -7.60000013E-03  -7.92036299E-04
  -7.55000021E-03  -8.10186670E-04
  -7.49999983E-03  -8.28716671E-04
  -7.44999992E-03  -8.47627700E-04
  -7.40000000E-03  -8.66921328E-04
  -7.35000009E-03  -8.86598660E-04
  -7.30000017E-03  -9.06660862E-04
  -7.24999979E-03  -9.27115325E-04
  -7.19999988E-03  -9.47974797E-04
  -7.14999996E-03  -9.69253771E-04
  -7.10000005E-03  -9.90964822E-04
  -7.05000013E-03  -1.01311703E-03
  -7.00000022E-03  -1.03571592E-03
  -6.94999984E-03  -1.05876359E-03
  -6.89999992E-03  -1.08225713E-03
  -6.85000001E-03  -1.10619573E-03
  -6.80000009E-03  -1.13058183E-03
  -6.75000018E-03  -1.15542486E-03
  -6.69999979E-03  -1.18074159E-03
  -6.64999988E-03  -1.20654912E-03
  -6.59999996E-03  -1.23286049E-03
  -6.55000005E-03  -1.25968154E-03
  -6.50000013E-03  -1.28701201E-03
  -6.45000022E-03  -1.31484866E-03
  -6.39999984E-03  -1.34319102E-03
  -6.34999992E-03  -1.37203920E-03
  -6.30000001E-03  -1.40140345E-03
  -6.25000009E-03  -1.43130298E-03
  -6.20000018E-03  -1.46175711E-03
  -6.14999980E-03  -1.49278867E-03
  -6.09999988E-03  -1.52441277E-03
  -6.04999997E-03  -1.55662734E-03
  -6.00000005E-03  -1.58942095E-03
  -5.95000014E-03  -1.62278954E-03
  -5.90000022E-03  -1.65673846E-03
  -5.84999984E-03  -1.69128121E-03
  -5.79999993E-03  -1.72643585E-03
  -5.75000001E-03  -1.76222413E-03
  -5.70000010E-03  -1.79866655E-03
  -5.65000018E-03  -1.83577684E-03
  -5.59999980E-03  -1.87355909E-03
  -5.54999989E-03  -1.91200525E-03
  -5.49999997E-03  -1.95110566E-03
  -5.45000006E-03  -1.99085218E-03
  -5.40000014E-03  -2.03125249E-03
  -5.35000023E-03  -2.07233266E-03
  -5.29999984E-03  -2.11412250E-03
  -5.24999993E-03  -2.15665204E-03
  -5.20000001E-03  -2.19994271E-03
  -5.15000010E-03  -2.24399799E-03
  -5.10000018E-03  -2.28880369E-03
  -5.04999980E-03  -2.33434536E-03
  -4.99999989E-03  -2.38061463E-03
  -4.94999997E-03  -2.42761616E-03
  -4.90000006E-03  -2.47537531E-03
  -4.85000014E-03  -2.52393121E-03
  -4.80000023E-03  -2.57332367E-03
  -4.74999985E-03  -2.62358109E-03
  -4.69999993E-03  -2.67470954E-03
  -4.65000002E-03  -2.72669178E-03
  -4.60000010E-03  -2.77949986E-03
  -4.55000019E-03  -2.83311820E-03
  -4.49999981E-03  -2.88754771E-03
  -4.44999989E-03  -2.94280495E-03
  -4.39999998E-03  -2.99892807E-03
  -4.35000006E-03  -3.05596413E-03
  -4.30000015E-03  -3.11395153E-03
  -4.25000023E-03  -3.17291007E-03
  -4.19999985E-03  -3.23282881E-03
  -4.14999994E-03  -3.29367351E-03
  -4.10000002E-03  -3.35540948E-03
  -4.05000011E-03  -3.41801508E-03
  -4.00000019E-03  -3.48150195E-03
  -3.94999981E-03  -3.54591734E-03
  -3.89999989E-03  -3.61133064E-03
  -3.84999998E-03  -3.67779937E-03
  -3.80000006E-03  -3.74535052E-03
  -3.74999992E-03  -3.81397852E-03
  -3.70000000E-03  -3.88363702E-03
  -3.65000009E-03  -3.95426573E-03
  -3.59999994E-03  -4.02582996E-03
  -3.55000002E-03  -4.09834180E-03
  -3.50000011E-03  -4.17185528E-03
  -3.44999996E-03  -4.24643746E-03
  -3.40000005E-03  -4.32215212E-03
  -3.34999990E-03  -4.39902488E-03
  -3.29999998E-03  -4.47704690E-03
  -3.25000007E-03  -4.55618370E-03
  -3.19999992E-03  -4.63636266E-03
  -3.15000000E-03  -4.71754326E-03
  -3.10000009E-03  -4.79972456E-03
  -3.04999994E-03  -4.88293171E-03
  -3.00000003E-03  -4.96723782E-03
  -2.95000011E-03  -5.05272532E-03
  -2.89999996E-03  -5.13943844E-03
  -2.85000005E-03  -5.22739720E-03
  -2.79999990E-03  -5.31657180E-03
  -2.74999999E-03  -5.40687097E-03
  -2.70000007E-03  -5.49822627E-03
  -2.64999992E-03  -5.59060043E-03
  -2.60000001E-03  -5.68400742E-03
  -2.55000009E-03  -5.77852456E-03
  -2.49999994E-03  -5.87425334E-03
  -2.45000003E-03  -5.97128738E-03
  -2.40000011E-03  -6.06965553E-03
  -2.34999997E-03  -6.16931077E-03
  -2.30000005E-03  -6.27014786E-03
  -2.24999990E-03  -6.37204014E-03
  -2.19999999E-03  -6.47492800E-03
  -2.15000007E-03  -6.57883752E-03
  -2.09999993E-03  -6.68383809E-03
  -2.05000001E-03  -6.79004844E-03
  -2.00000009E-03  -6.89758081E-03
  -1.94999995E-03  -7.00648921E-03
  -1.90000003E-03  -7.11674988E-03
  -1.85000000E-03  -7.22824037E-03
  -1.79999997E-03  -7.34081864E-03
  -1.75000005E-03  -7.45439855E-03
  -1.70000002E-03  -7.56895076E-03
  -1.64999999E-03  -7.68453162E-03
  -1.59999996E-03  -7.80128222E-03
  -1.55000004E-03  -7.91933015E-03
  -1.50000001E-03  -8.03875923E-03
  -1.44999998E-03  -8.15958530E-03
  -1.39999995E-03  -8.28169566E-03
  -1.35000004E-03  -8.40491708E-03
  -1.30000000E-03  -8.52909870E-03
  -1.24999997E-03  -8.65415763E-03
  -1.20000006E-03  -8.78014043E-03
  -1.15000003E-03  -8.90718959E-03
  -1.09999999E-03  -9.03548300E-03
  -1.04999996E-03  -9.16519202E-03
  -1.00000005E-03  -9.29634832E-03
  -9.50000016E-04  -9.42881685E-03
  -8.99999985E-04  -9.56239458E-03
  -8.50000011E-04  -9.69685521E-03
  -7.99999980E-04  -9.83203482E-03
  -7.50000007E-04  -9.96795483E-03
  -6.99999975E-04  -1.01047996E-02
  -6.50000002E-04  -1.02428086E-02
  -6.00000028E-04  -1.03821773E-02
  -5.49999997E-04  -1.05229821E-02
  -5.00000024E-04  -1.06651001E-02
  -4.49999992E-04  -1.08082639E-02
  -3.99999990E-04  -1.09522194E-02
  -3.49999988E-04  -1.10967858E-02
  -3.00000014E-04  -1.12419212E-02
  -2.50000012E-04  -1.13878110E-02
  -1.99999995E-04  -1.15347588E-02
  -1.50000007E-04  -1.16829807E-02
  -9.99999975E-05  -1.18325325E-02
  -4.99999987E-05  -1.19833183E-02
   0.00000000      -1.21350670E-02
   4.99999987E-05  -1.22874267E-02
   9.99999975E-05  -1.24402214E-02
   1.50000007E-04  -1.25934202E-02
   1.99999995E-04  -1.27471602E-02
   2.50000012E-04  -1.29017225E-02
   3.00000014E-04  -1.30573558E-02
   3.49999988E-04  -1.32141812E-02
   3.99999990E-04  -1.33720906E-02
   4.49999992E-04  -1.35308132E-02
   5.00000024E-04  -1.36900246E-02
   5.49999997E-04  -1.38494857E-02
   6.00000028E-04  -1.40091088E-02
   6.50000002E-04  -1.41689880E-02
   6.99999975E-04  -1.43293720E-02
   7.50000007E-04  -1.44905355E-02
   7.99999980E-04  -1.46526955E-02
   8.50000011E-04  -1.48158502E-02
   8.99999985E-04  -1.49797089E-02
   9.50000016E-04  -1.51438350E-02
   1.00000005E-03  -1.53078921E-02
   1.04999996E-03  -1.54717397E-02
   1.09999999E-03  -1.56354010E-02
   1.15000003E-03  -1.57991536E-02
   1.20000006E-03  -1.59633812E-02
   1.24999997E-03  -1.61283612E-02
   1.30000000E-03  -1.62941236E-02
   1.35000004E-03  -1.64603703E-02
   1.39999995E-03  -1.66266076E-02
   1.44999998E-03  -1.67924222E-02
   1.50000001E-03  -1.69576071E-02
   1.55000004E-03  -1.71222016E-02
   1.59999996E-03  -1.72864646E-02
   1.64999999E-03  -1.74507443E-02
   1.70000002E-03  -1.76153798E-02
   1.75000005E-03  -1.77804250E-02
   1.79999997E-03  -1.79455746E-02
   1.85000000E-03  -1.81103703E-02
   1.90000003E-03  -1.82744376E-02
   1.94999995E-03  -1.84374675E-02
   2.00000009E-03  -1.85993519E-02
   2.05000001E-03  -1.87603254E-02
   2.09999993E-03  -1.89207643E-02
   2.15000007E-03  -1.90810505E-02
   2.19999999E-03  -1.92413181E-02
   2.24999990E-03  -1.94013827E-02
   2.30000005E-03  -1.95608493E-02
   2.34999997E-03  -1.97191183E-02
   2.40000011E-03  -1.98757313E-02
   2.45000003E-03  -2.00305432E-02
   2.49999994E-03  -2.01837085E-02
   2.55000009E-03  -2.03356668E-02
   2.60000001E-03  -2.04868428E-02
   2.64999992E-03  -2.06375029E-02
   2.70000007E-03  -2.07875483E-02
   2.74999999E-03  -2.09365916E-02
   2.79999990E-03  -2.10840423E-02