  -3.99999991E-02   0.00000000    
  -3.99499983E-02   0.00000000    
  -3.99000011E-02   0.00000000    
  -3.98500003E-02   0.00000000    
  -3.97999994E-02   0.00000000    
  -3.97499986E-02  -1.15291971E-22
  -3.97000015E-02  -1.02023096E-21
  -3.96500006E-02  -4.68937454E-21
  -3.95999998E-02  -1.46896921E-20
  -3.95499989E-02  -3.45411140E-20
  -3.95000018E-02  -6.28558909E-20
  -3.94500010E-02  -8.58463808E-20
  -3.94000001E-02  -7.09806398E-20
  -3.93499993E-02   3.18637921E-20
  -3.92999984E-02   2.76200828E-19
  -3.92500013E-02   6.92037343E-19
  -3.92000005E-02   1.25620487E-18
  -3.91499996E-02   1.87792684E-18
  -3.90999988E-02   2.41723206E-18
  -3.90500017E-02   2.74080340E-18
  -3.90000008E-02   2.79748947E-18
  -3.89500000E-02   2.67552975E-18
  -3.88999991E-02   2.60019200E-18
  -3.88499983E-02   2.85218637E-18
  -3.88000011E-02   3.62812708E-18
  -3.87500003E-02   4.90464171E-18
  -3.86999995E-02   6.38299379E-18
  -3.86499986E-02   7.56598614E-18
  -3.86000015E-02   7.95794237E-18
  -3.85500006E-02   7.30741941E-18
  -3.84999998E-02   5.76820958E-18
  -3.84499989E-02   3.86843835E-18
  -3.84000018E-02   2.25700407E-18
  -3.83500010E-02   1.31269210E-18
  -3.83000001E-02   7.97301039E-19
  -3.82499993E-02  -2.49446990E-19
  -3.81999984E-02  -3.26510522E-18
  -3.81500013E-02  -9.62827314E-18
  -3.81000005E-02  -2.00540989E-17
  -3.80499996E-02  -3.42175039E-17
  -3.79999988E-02  -5.08286174E-17
  -3.79500017E-02  -6.81871846E-17
  -3.79000008E-02  -8.50044811E-17
  -3.78500000E-02  -1.01118634E-16
  -3.77999991E-02  -1.17734006E-16
  -3.77499983E-02  -1.37008029E-16
  -3.77000012E-02  -1.61114957E-16
  -3.76500003E-02  -1.91194474E-16
  -3.75999995E-02  -2.26693466E-16
  -3.75499986E-02  -2.65459490E-16
  -3.75000015E-02  -3.04596912E-16
  -3.74500006E-02  -3.41717390E-16
  -3.73999998E-02  -3.76001446E-16
  -3.73499990E-02  -4.08553531E-16
  -3.73000018E-02  -4.41858469E-16
  -3.72500010E-02  -4.78570598E-16
  -3.72000001E-02  -5.20184162E-16
  -3.71499993E-02  -5.66184351E-16
  -3.70999984E-02  -6.14041130E-16
  -3.70500013E-02  -6.59999549E-16
  -3.70000005E-02  -7.00249814E-16
  -3.69499996E-02  -7.31926675E-16
  -3.68999988E-02  -7.53552644E-16
  -3.68500017E-02  -7.64901297E-16
  -3.68000008E-02  -7.66581440E-16
  -3.67500000E-02  -7.59718409E-16
  -3.66999991E-02  -7.45892237E-16
  -3.66499983E-02  -7.27141045E-16
  -3.66000012E-02  -7.05634879E-16
  -3.65500003E-02  -6.82766154E-16
  -3.64999995E-02  -6.57867567E-16
  -3.64499986E-02  -6.27285919E-16
  -3.64000015E-02  -5.84725372E-16
  -3.63500006E-02  -5.23377264E-16
  -3.62999998E-02  -4.39412423E-16
  -3.62499990E-02  -3.35361017E-16
  -3.62000018E-02  -2.21371015E-16
  -3.61500010E-02  -1.12851020E-16
  -3.61000001E-02  -2.45984158E-17
  -3.60499993E-02   3.64206929E-17
  -3.59999985E-02   7.60385249E-17
  -3.59500013E-02   1.12223858E-16
  -3.59000005E-02   1.67629408E-16
  -3.58499996E-02   2.57643970E-16
  -3.57999988E-02   3.79300533E-16
  -3.57500017E-02   5.07263574E-16
  -3.57000008E-02   6.00795228E-16
  -3.56500000E-02   6.20639675E-16
  -3.55999991E-02   5.49201658E-16
  -3.55499983E-02   4.04125216E-16
  -3.55000012E-02   2.36623260E-16
  -3.54500003E-02   1.12022754E-16
  -3.53999995E-02   7.87783456E-17
  -3.53499986E-02   1.39575664E-16
  -3.53000015E-02   2.39905750E-16
  -3.52500007E-02   2.83606801E-16
  -3.51999998E-02   1.72897517E-16
  -3.51499990E-02  -1.42549888E-16
  -3.51000018E-02  -6.30464728E-16
  -3.50500010E-02  -1.17489844E-15
  -3.50000001E-02  -1.61585394E-15
  -3.49499993E-02  -1.81702988E-15
  -3.48999985E-02  -1.73289028E-15
  -3.48500013E-02  -1.44178984E-15
  -3.48000005E-02  -1.12331540E-15
  -3.47499996E-02  -9.82228088E-16
  -3.46999988E-02  -1.14828636E-15
  -3.46500017E-02  -1.59774004E-15
  -3.46000008E-02  -2.13851700E-15
  -3.45500000E-02  -2.47590081E-15
  -3.44999991E-02  -2.33823149E-15
  -3.44499983E-02  -1.60958971E-15
  -3.44000012E-02  -4.05421468E-16
  -3.43500003E-02   9.53927552E-16
  -3.42999995E-02   2.07295834E-15
  -3.42499986E-02   2.66477476E-15
  -3.42000015E-02   2.70643057E-15
  -3.41500007E-02   2.48629200E-15
  -3.40999998E-02   2.50607234E-15
  -3.40499990E-02   3.26629775E-15
  -3.40000018E-02   5.02452406E-15
  -3.39500010E-02   7.64028208E-15
  -3.39000002E-02   1.05927933E-14
  -3.38499993E-02   1.31841093E-14
  -3.37999985E-02   1.48517639E-14
  -3.37500013E-02   1.54526101E-14
  -3.37000005E-02   1.53768549E-14
  -3.36499996E-02   1.54167637E-14
  -3.35999988E-02   1.64243890E-14
  -3.35500017E-02   1.88987687E-14
  -3.35000008E-02   2.26935373E-14
  -3.34500000E-02   2.69997851E-14
  -3.33999991E-02   3.06440867E-14
  -3.33499983E-02   3.25943191E-14
  -3.33000012E-02   3.24540674E-14
  -3.32500003E-02   3.07077870E-14
  -3.31999995E-02   2.85725389E-14
  -3.31499986E-02   2.74851705E-14
  -3.31000015E-02   2.84311928E-14
  -3.30500007E-02   3.14187898E-14
  -3.29999998E-02   3.53634900E-14
  -3.29499990E-02   3.84801037E-14
  -3.29000019E-02   3.90465824E-14
  -3.28500010E-02   3.62137180E-14
  -3.28000002E-02   3.04805890E-14
  -3.27499993E-02   2.35777110E-14
  -3.26999985E-02   1.77564618E-14
  -3.26500013E-02   1.47655783E-14
  -3.26000005E-02   1.49706297E-14
  -3.25499997E-02   1.70472682E-14
  -3.24999988E-02   1.84469241E-14
  -3.24500017E-02   1.64856769E-14
  -3.24000008E-02   9.59838085E-15
  -3.23500000E-02  -1.81946044E-15
  -3.22999991E-02  -1.54161419E-14
  -3.22499983E-02  -2.78070024E-14
  -3.22000012E-02  -3.60613096E-14
  -3.21500003E-02  -3.91007891E-14
  -3.20999995E-02  -3.83434908E-14
  -3.20499986E-02  -3.72261087E-14
  -3.20000015E-02  -3.97355624E-14
  -3.19500007E-02  -4.85587184E-14
  -3.18999998E-02  -6.36893628E-14
  -3.18499990E-02  -8.21854385E-14
  -3.18000019E-02  -9.92850076E-14
  -3.17500010E-02  -1.10467367E-13
  -3.17000002E-02  -1.13568172E-13
  -3.16499993E-02  -1.09961024E-13
  -3.15999985E-02  -1.04177273E-13
  -3.15500014E-02  -1.02018674E-13
  -3.15000005E-02  -1.07927773E-13
  -3.14499997E-02  -1.22787197E-13
  -3.13999988E-02  -1.43208159E-13
  -3.13500017E-02  -1.62752488E-13
  -3.13000008E-02  -1.74662653E-13
  -3.12500000E-02  -1.74939246E-13
  -3.11999992E-02  -1.64358219E-13
  -3.11500002E-02  -1.48412397E-13
  -3.10999993E-02  -1.35056517E-13
  -3.10500003E-02  -1.31149147E-13
  -3.09999995E-02  -1.39154503E-13
  -3.09500005E-02  -1.55655680E-13
  -3.08999997E-02  -1.72496010E-13
  -3.08500007E-02  -1.80199280E-13
  -3.07999998E-02  -1.72237794E-13
  -3.07500008E-02  -1.48225602E-13
  -3.07000000E-02  -1.14484756E-13
  -3.06499992E-02  -8.15476430E-14
  -3.06000002E-02  -5.95498924E-14
  -3.05499993E-02  -5.35084062E-14
  -3.05000003E-02  -6.06614978E-14
  -3.04499995E-02  -7.12331534E-14
  -3.04000005E-02  -7.24862539E-14
  -3.03499997E-02  -5.44000337E-14
  -3.03000007E-02  -1.44522845E-14
  -3.02499998E-02   4.07557323E-14
  -3.02000009E-02   9.79747763E-14
  -3.01500000E-02   1.42991006E-13
  -3.00999992E-02   1.67090097E-13
  -3.00500002E-02   1.71368318E-13
  -2.99999993E-02   1.66774119E-13
  -2.99500003E-02   1.69605391E-13
  -2.98999995E-02   1.94265678E-13
  -2.98500005E-02   2.46449887E-13
  -2.97999997E-02   3.19918137E-13
  -2.97500007E-02   3.98548653E-13
  -2.96999998E-02   4.63031143E-13
  -2.96500009E-02   4.99394905E-13
  -2.96000000E-02   5.05564069E-13
  -2.95499992E-02   4.92826049E-13
  -2.95000002E-02   4.81256961E-13
  -2.94499993E-02   4.90867872E-13
  -2.94000003E-02   5.32290683E-13
  -2.93499995E-02   6.01241550E-13
  -2.93000005E-02   6.79497257E-13
  -2.92499997E-02   7.42286603E-13
  -2.92000007E-02   7.69059566E-13
  -2.91499998E-02   7.52891781E-13
  -2.91000009E-02   7.04161555E-13
  -2.90500000E-02   6.46523742E-13
  -2.89999992E-02   6.06623692E-13
  -2.89500002E-02   6.01923351E-13
  -2.88999993E-02   6.32096155E-13
  -2.88500004E-02   6.78094137E-13
  -2.87999995E-02   7.09699281E-13
  -2.87500005E-02   6.98546256E-13
  -2.86999997E-02   6.30963435E-13
  -2.86500007E-02   5.14785914E-13
  -2.85999998E-02   3.76752476E-13
  -2.85500009E-02   2.51220892E-13
  -2.85000000E-02   1.64916082E-13
  -2.84499992E-02   1.24455581E-13
  -2.84000002E-02   1.12450969E-13
  -2.83499993E-02   9.43612186E-14
  -2.83000004E-02   3.34908628E-14
  -2.82499995E-02  -9.22928116E-14
  -2.82000005E-02  -2.79628290E-13
  -2.81499997E-02  -4.99739356E-13
  -2.81000007E-02  -7.09997111E-13
  -2.80499998E-02  -8.72251002E-13
  -2.80000009E-02  -9.69933986E-13
  -2.79500000E-02  -1.01614214E-12
  -2.78999992E-02  -1.04862354E-12
  -2.78500002E-02  -1.11335995E-12
  -2.77999993E-02  -1.24365741E-12
  -2.77500004E-02  -1.44400095E-12
  -2.76999995E-02  -1.68618028E-12
  -2.76500005E-02  -1.91997633E-12
  -2.75999997E-02  -2.09421759E-12
  -2.75500007E-02  -2.17915551E-12
  -2.74999999E-02  -2.18012088E-12
  -2.74500009E-02  -2.13593553E-12
  -2.74000000E-02  -2.10215612E-12
  -2.73499992E-02  -2.12607276E-12
  -2.73000002E-02  -2.22439536E-12
  -2.72499993E-02  -2.37380796E-12
  -2.72000004E-02  -2.51918993E-12
  -2.71499995E-02  -2.59654537E-12
  -2.71000005E-02  -2.56092912E-12
  -2.70499997E-02  -2.40700992E-12
  -2.70000007E-02  -2.17272272E-12
  -2.69499999E-02  -1.92368387E-12
  -2.69000009E-02  -1.72460191E-12
  -2.68500000E-02  -1.61002451E-12
  -2.67999992E-02  -1.56754427E-12
  -2.67500002E-02  -1.54151193E-12
  -2.66999993E-02  -1.45640379E-12
  -2.66500004E-02  -1.25011492E-12
  -2.65999995E-02  -9.02615981E-13
  -2.65500005E-02  -4.46915047E-13
  -2.64999997E-02   4.32823977E-14
  -2.64500007E-02   4.84577710E-13
  -2.63999999E-02   8.20347262E-13
  -2.63500009E-02   1.04650533E-12
  -2.63000000E-02   1.21458356E-12
  -2.62499992E-02   1.40987124E-12
  -2.62000002E-02   1.71347105E-12
  -2.61499994E-02   2.16468401E-12
  -2.61000004E-02   2.74061394E-12
  -2.60499995E-02   3.36280157E-12
  -2.60000005E-02   3.92894094E-12
  -2.59499997E-02   4.35641714E-12
  -2.59000007E-02   4.61860021E-12
  -2.58499999E-02   4.75737418E-12
  -2.58000009E-02   4.86541276E-12
  -2.57500000E-02   5.04503904E-12
  -2.56999992E-02   5.36124530E-12
  -2.56500002E-02   5.80971859E-12
  -2.55999994E-02   6.31474604E-12
  -2.55500004E-02   6.75904775E-12
  -2.54999995E-02   7.03333789E-12
  -2.54500005E-02   7.08415835E-12
  -2.53999997E-02   6.93850923E-12
  -2.53500007E-02   6.69343487E-12
  -2.52999999E-02   6.47397891E-12
  -2.52500009E-02   6.37720345E-12
  -2.52000000E-02   6.42684257E-12
  -2.51499992E-02   6.55925314E-12
  -2.51000002E-02   6.64806404E-12
  -2.50499994E-02   6.55785105E-12
  -2.50000004E-02   6.20386425E-12
  -2.49499995E-02   5.59130520E-12
  -2.49000005E-02   4.81591243E-12
  -2.48499997E-02   4.02427007E-12
  -2.48000007E-02   3.35023415E-12
  -2.47499999E-02   2.85510049E-12
  -2.47000009E-02   2.49839949E-12
  -2.46500000E-02   2.15341547E-12
  -2.45999992E-02   1.66198728E-12
  -2.45500002E-02   9.05405742E-13
  -2.44999994E-02  -1.39758837E-13
  -2.44500004E-02  -1.38636628E-12
  -2.43999995E-02  -2.67012757E-12
  -2.43500005E-02  -3.81841347E-12
  -2.42999997E-02  -4.72486199E-12
  -2.42500007E-02  -5.39664450E-12
  -2.41999999E-02  -5.95237921E-12
  -2.41500009E-02  -6.57006047E-12
  -2.41000000E-02  -7.40665255E-12
  -2.40499992E-02  -8.52439820E-12
  -2.40000002E-02  -9.85697201E-12
  -2.39499994E-02  -1.12318783E-11
  -2.39000004E-02  -1.24408643E-11
  -2.38499995E-02  -1.33284182E-11
  -2.38000005E-02  -1.38593919E-11
  -2.37499997E-02  -1.41349319E-11
  -2.37000007E-02  -1.43480132E-11
  -2.36499999E-02  -1.46966189E-11
  -2.36000009E-02  -1.52920628E-11
  -2.35500000E-02  -1.61032437E-11
  -2.34999992E-02  -1.69628703E-11
  -2.34500002E-02  -1.76347131E-11
  -2.33999994E-02  -1.79137608E-11
  -2.33500004E-02  -1.77155582E-11
  -2.32999995E-02  -1.71145962E-11
  -2.32500006E-02  -1.63131487E-11
  -2.31999997E-02  -1.55525263E-11
  -2.31500007E-02  -1.50046468E-11
  -2.30999999E-02  -1.46918207E-11
  -2.30500009E-02  -1.44712905E-11
  -2.30000000E-02  -1.40932977E-11
  -2.29499992E-02  -1.33088271E-11
  -2.29000002E-02  -1.19803768E-11
  -2.28499994E-02  -1.01464644E-11
  -2.28000004E-02  -8.00984626E-12
  -2.27499995E-02  -5.85267772E-12
  -2.27000006E-02  -3.91446424E-12
  -2.26499997E-02  -2.28626796E-12
  -2.26000007E-02  -8.68756239E-13
  -2.25499999E-02   5.85484027E-13
  -2.25000009E-02   2.36201033E-12
  -2.24500000E-02   4.65419673E-12
  -2.23999992E-02   7.47003761E-12
  -2.23500002E-02   1.06185833E-11
  -2.22999994E-02   1.37840616E-11
  -2.22500004E-02   1.66569050E-11
  -2.21999995E-02   1.90647602E-11
  -2.21500006E-02   2.10451760E-11
  -2.20999997E-02   2.28261628E-11
  -2.20500007E-02   2.47210620E-11
  -2.19999999E-02   2.69825134E-11
  -2.19500009E-02   2.96795435E-11
  -2.19000001E-02   3.26531129E-11
  -2.18499992E-02   3.55718129E-11
  -2.18000002E-02   3.80653321E-11
  -2.17499994E-02   3.98781806E-11
  -2.17000004E-02   4.09758373E-11
  -2.16499995E-02   4.15550233E-11
  -2.16000006E-02   4.19514562E-11
  -2.15499997E-02   4.24837769E-11
  -2.15000007E-02   4.33017198E-11
  -2.14499999E-02   4.43061213E-11
  -2.14000009E-02   4.51779725E-11
  -2.13500001E-02   4.55060330E-11
  -2.12999992E-02   4.49585438E-11
  -2.12500002E-02   4.34237403E-11
  -2.11999994E-02   4.10562209E-11
  -2.11500004E-02   3.82066913E-11
  -2.10999995E-02   3.52639445E-11
  -2.10500006E-02   3.24775415E-11
  -2.09999997E-02   2.98395891E-11
  -2.09500007E-02   2.70793180E-11
  -2.08999999E-02   2.37752752E-11
  -2.08500009E-02   1.95376632E-11
  -2.08000001E-02   1.41814321E-11
  -2.07499992E-02   7.81324224E-12
  -2.07000002E-02   7.92097887E-13
  -2.06499994E-02  -6.42122163E-12
  -2.06000004E-02  -1.34612061E-11
  -2.05499995E-02  -2.02146095E-11
  -2.05000006E-02  -2.68671075E-11
  -2.04499997E-02  -3.38167758E-11
  -2.04000007E-02  -4.14903667E-11
  -2.03499999E-02  -5.01419462E-11
  -2.03000009E-02  -5.97227268E-11
  -2.02500001E-02  -6.98810176E-11
  -2.01999992E-02  -8.00945144E-11
  -2.01500002E-02  -8.98786254E-11
  -2.00999994E-02  -9.89799492E-11
  -2.00500004E-02  -1.07468964E-10
  -1.99999996E-02  -1.15689236E-10
  -1.99500006E-02  -1.24083188E-10
  -1.98999997E-02  -1.32969455E-10
  -1.98500007E-02  -1.42369463E-10
  -1.97999999E-02  -1.51960902E-10
  -1.97500009E-02  -1.61180375E-10
  -1.97000001E-02  -1.69432718E-10
  -1.96499992E-02  -1.76315892E-10
  -1.96000002E-02  -1.81762674E-10
  -1.95499994E-02  -1.86035132E-10
  -1.95000004E-02  -1.89572372E-10
  -1.94499996E-02  -1.92756450E-10
  -1.94000006E-02  -1.95698791E-10
  -1.93499997E-02  -1.98141559E-10
  -1.93000007E-02  -1.99519498E-10
  -1.92499999E-02  -1.99157135E-10
  -1.92000009E-02  -1.96516498E-10
  -1.91500001E-02  -1.91386865E-10
  -1.90999992E-02  -1.83932064E-10
  -1.90500002E-02  -1.74572773E-10
  -1.89999994E-02  -1.63753261E-10
  -1.89500004E-02  -1.51694116E-10
  -1.88999996E-02  -1.38239642E-10
  -1.88500006E-02  -1.22868618E-10
  -1.87999997E-02  -1.04866005E-10
  -1.87500007E-02  -8.35820441E-11
  -1.86999999E-02  -5.86660373E-11
  -1.86500009E-02  -3.01715944E-11
  -1.86000001E-02   1.51446564E-12
  -1.85499992E-02   3.58903358E-11
  -1.85000002E-02   7.26102858E-11
  -1.84499994E-02   1.11689824E-10
  -1.84000004E-02   1.53553795E-10
  -1.83499996E-02   1.98904143E-10
  -1.83000006E-02   2.48463361E-10
  -1.82499997E-02   3.02704750E-10
  -1.82000007E-02   3.61688013E-10
  -1.81499999E-02   4.25073615E-10
  -1.81000009E-02   4.92311414E-10
  -1.80500001E-02   5.62923153E-10
  -1.79999992E-02   6.36755038E-10
  -1.79500002E-02   7.14089787E-10
  -1.78999994E-02   7.95566613E-10
  -1.78500004E-02   8.81942297E-10
  -1.77999996E-02   9.73796821E-10
  -1.77500006E-02   1.07131159E-09
  -1.76999997E-02   1.17421839E-09
  -1.76500008E-02   1.28194422E-09
  -1.75999999E-02   1.39388945E-09
  -1.75500009E-02   1.50971924E-09
  -1.75000001E-02   1.62953973E-09
  -1.74499992E-02   1.75388259E-09
  -1.74000002E-02   1.88350002E-09
  -1.73499994E-02   2.01905981E-09
  -1.73000004E-02   2.16087392E-09
  -1.72499996E-02   2.30877739E-09
  -1.72000006E-02   2.46221554E-09
  -1.71499997E-02   2.62050071E-09
  -1.71000008E-02   2.78312973E-09
  -1.70499999E-02   2.95002223E-09
  -1.70000009E-02   3.12157589E-09
  -1.69500001E-02   3.29851146E-09
  -1.68999992E-02   3.48157547E-09
  -1.68500002E-02   3.67122777E-09
  -1.67999994E-02   3.86745169E-09
  -1.67500004E-02   4.06977296E-09
  -1.66999996E-02   4.27747526E-09
  -1.66500006E-02   4.48992887E-09
  -1.65999997E-02   4.70688288E-09
  -1.65500008E-02   4.92859220E-09
  -1.64999999E-02   5.15572918E-09
  -1.64500009E-02   5.38911094E-09
  -1.64000001E-02   5.62936142E-09
  -1.63499992E-02   5.87665694E-09
  -1.63000003E-02   6.13066797E-09
  -1.62499994E-02   6.39072351E-09
  -1.62000004E-02   6.65612587E-09
  -1.61499996E-02   6.92648605E-09
  -1.61000006E-02   7.20192750E-09
  -1.60499997E-02   7.48306928E-09
  -1.60000008E-02   7.77079556E-09
  -1.59499999E-02   8.06591061E-09
  -1.59000009E-02   8.36883096E-09
  -1.58500001E-02   8.67944383E-09
  -1.57999992E-02   8.99720476E-09
  -1.57500003E-02   9.32142363E-09
  -1.56999994E-02   9.65162261E-09
  -1.56500004E-02   9.98781058E-09
  -1.55999996E-02   1.03305444E-08
  -1.55499997E-02   1.06807629E-08
  -1.54999997E-02   1.10394529E-08
  -1.54499998E-02   1.14072956E-08
  -1.53999999E-02   1.17844516E-08
  -1.53500000E-02   1.21705765E-08
  -1.53000001E-02   1.25650583E-08
  -1.52500002E-02   1.29673881E-08
  -1.52000003E-02   1.33774787E-08
  -1.51500003E-02   1.37958232E-08
  -1.51000004E-02   1.42233940E-08
  -1.50499996E-02   1.46613459E-08
  -1.49999997E-02   1.51106363E-08
  -1.49499997E-02   1.55717448E-08
  -1.48999998E-02   1.60445897E-08
  -1.48499999E-02   1.65287179E-08
  -1.48000000E-02   1.70236429E-08
  -1.47500001E-02   1.75292136E-08
  -1.47000002E-02   1.80458564E-08
  -1.46500003E-02   1.85745446E-08
  -1.46000003E-02   1.91165697E-08
  -1.45500004E-02   1.96731449E-08
  -1.44999996E-02   2.02450767E-08
  -1.44499997E-02   2.08325908E-08
  -1.43999998E-02   2.14354419E-08
  -1.43499998E-02   2.20532215E-08
  -1.42999999E-02   2.26857466E-08
  -1.42500000E-02   2.33333637E-08
  -1.42000001E-02   2.39970230E-08
  -1.41500002E-02   2.46781031E-08
  -1.41000003E-02   2.53780481E-08
  -1.40500003E-02   2.60979842E-08
  -1.40000004E-02   2.68384781E-08
  -1.39499996E-02   2.75995440E-08
  -1.38999997E-02   2.83809030E-08
  -1.38499998E-02   2.91823774E-08
  -1.37999998E-02   3.00042373E-08
  -1.37499999E-02   3.08473744E-08
  -1.37000000E-02   3.17132063E-08
  -1.36500001E-02   3.26033600E-08
  -1.36000002E-02   3.35192567E-08
  -1.35500003E-02   3.44617987E-08
  -1.35000004E-02   3.54313023E-08
  -1.34500004E-02   3.64276609E-08
  -1.33999996E-02   3.74507252E-08
  -1.33499997E-02   3.85007013E-08
  -1.32999998E-02   3.95784063E-08
  -1.32499998E-02   4.06852436E-08
  -1.31999999E-02   4.18229682E-08
  -1.31500000E-02   4.29932534E-08
  -1.31000001E-02   4.41973569E-08
  -1.30500002E-02   4.54359110E-08
  -1.30000003E-02   4.67090580E-08
  -1.29500004E-02   4.80167408E-08
  -1.29000004E-02   4.93591372E-08
  -1.28499996E-02   5.07369791E-08
  -1.27999997E-02   5.21516341E-08
  -1.27499998E-02   5.36049285E-08
  -1.26999998E-02   5.50987700E-08
  -1.26499999E-02   5.66347396E-08
  -1.26000000E-02   5.82138320E-08
  -1.25500001E-02   5.98364736E-08
  -1.25000002E-02   6.15027744E-08
  -1.24500003E-02   6.32129442E-08
  -1.24000004E-02   6.49676508E-08
  -1.23500004E-02   6.67682443E-08
  -1.22999996E-02   6.86165933E-08
  -1.22499997E-02   7.05148153E-08
  -1.21999998E-02   7.24648075E-08
  -1.21499998E-02   7.44679696E-08
  -1.20999999E-02   7.65250761E-08
  -1.20500000E-02   7.86364822E-08
  -1.20000001E-02   8.08024936E-08
  -1.19500002E-02   8.30237852E-08
  -1.19000003E-02   8.53016857E-08
  -1.18500004E-02   8.76381421E-08
  -1.18000004E-02   9.00354635E-08
  -1.17499996E-02   9.24959096E-08
  -1.16999997E-02   9.50213064E-08
  -1.16499998E-02   9.76128902E-08
  -1.15999999E-02   1.00271372E-07
  -1.15499999E-02   1.02997262E-07
  -1.15000000E-02   1.05791351E-07
  -1.14500001E-02   1.08654973E-07
  -1.14000002E-02   1.11590147E-07
  -1.13500003E-02   1.14599352E-07
  -1.13000004E-02   1.17685182E-07
  -1.12500004E-02   1.20849904E-07
  -1.11999996E-02   1.24095209E-07
  -1.11499997E-02   1.27422240E-07
  -1.10999998E-02   1.30831879E-07
  -1.10499999E-02   1.34325063E-07
  -1.09999999E-02   1.37903285E-07
  -1.09500000E-02   1.41568734E-07
  -1.09000001E-02   1.45324137E-07
  -1.08500002E-02   1.49172493E-07
  -1.08000003E-02   1.53116588E-07
  -1.07500004E-02   1.57158709E-07
  -1.07000005E-02   1.61300534E-07
  -1.06499996E-02   1.65543312E-07
  -1.05999997E-02   1.69888324E-07
  -1.05499998E-02   1.74337217E-07
  -1.04999999E-02   1.78892279E-07
  -1.04499999E-02   1.83556480E-07
  -1.04000000E-02   1.88333104E-07
  -1.03500001E-02   1.93225418E-07
  -1.03000002E-02   1.98236251E-07
  -1.02500003E-02   2.03367861E-07
  -1.02000004E-02   2.08622055E-07
  -1.01500005E-02   2.14000508E-07
  -1.00999996E-02   2.19505210E-07
  -1.00499997E-02   2.25138734E-07
  -9.99999978E-03   2.30904348E-07
  -9.94999986E-03   2.36805789E-07
  -9.89999995E-03   2.42846880E-07
  -9.85000003E-03   2.49031103E-07
  -9.80000012E-03   2.55361414E-07
  -9.75000020E-03   2.61840256E-07
  -9.70000029E-03   2.68469790E-07
  -9.65000037E-03   2.75252376E-07
  -9.60000046E-03   2.82190939E-07
  -9.54999961E-03   2.89289034E-07
  -9.49999969E-03   2.96550780E-07
  -9.44999978E-03   3.03980443E-07
  -9.39999986E-03   3.11582113E-07
  -9.34999995E-03   3.19359287E-07
  -9.30000003E-03   3.27315007E-07
  -9.25000012E-03   3.35452000E-07
  -9.20000020E-03   3.43773053E-07
  -9.15000029E-03   3.52281376E-07
  -9.10000037E-03   3.60980920E-07
  -9.05000046E-03   3.69876261E-07
  -8.99999961E-03   3.78972203E-07
  -8.94999970E-03   3.88273548E-07
  -8.89999978E-03   3.97784646E-07
  -8.84999987E-03   4.07509333E-07
  -8.79999995E-03   4.17451020E-07
  -8.75000004E-03   4.27613173E-07
  -8.70000012E-03   4.37999546E-07
  -8.65000021E-03   4.48614514E-07
  -8.60000029E-03   4.59463138E-07
  -8.55000038E-03   4.70550759E-07
  -8.50000046E-03   4.81882864E-07
  -8.44999962E-03   4.93464427E-07
  -8.39999970E-03   5.05299965E-07
  -8.34999979E-03   5.17393573E-07
  -8.29999987E-03   5.29749173E-07
  -8.24999996E-03   5.42370969E-07
  -8.20000004E-03   5.55263739E-07
  -8.15000013E-03   5.68432938E-07
  -8.10000021E-03   5.81884422E-07
  -8.05000030E-03   5.95624329E-07
  -8.00000038E-03   6.09658230E-07
  -7.95000046E-03   6.23991582E-07
  -7.89999962E-03   6.38629103E-07
  -7.84999970E-03   6.53575569E-07
  -7.79999979E-03   6.68835810E-07
  -7.74999987E-03   6.84415340E-07
  -7.69999996E-03   7.00320300E-07
  -7.65000004E-03   7.16557395E-07
  -7.60000013E-03   7.33133504E-07
  -7.55000021E-03   7.50055051E-07
  -7.49999983E-03   7.67328345E-07
  -7.44999992E-03   7.84958900E-07
  -7.40000000E-03   8.02952229E-07
  -7.35000009E-03   8.21313847E-07
  -7.30000017E-03   8.40049893E-07
  -7.24999979E-03   8.59167017E-07
  -7.19999988E-03   8.78672552E-07
  -7.14999996E-03   8.98573830E-07
  -7.10000005E-03   9.18878129E-07
  -7.05000013E-03   9.39592326E-07
  -7.00000022E-03   9.60722673E-07
  -6.94999984E-03   9.82275424E-07
  -6.89999992E-03   1.00425689E-06
  -6.85000001E-03   1.02667389E-06
  -6.80000009E-03   1.04953381E-06
  -6.75000018E-03   1.07284461E-06
  -6.69999979E-03   1.09661460E-06
  -6.64999988E-03   1.12085206E-06
  -6.59999996E-03   1.14556451E-06
  -6.55000005E-03   1.17075933E-06
  -6.50000013E-03   1.19644346E-06
  -6.45000022E-03   1.22262406E-06
  -6.39999984E-03   1.24930898E-06
  -6.34999992E-03   1.27650628E-06
  -6.30000001E-03   1.30422484E-06
  -6.25000009E-03   1.33247386E-06
  -6.20000018E-03   1.36126209E-06
  -6.14999980E-03   1.39059807E-06
  -6.09999988E-03   1.42048964E-06
  -6.04999997E-03   1.45094452E-06
  -6.00000005E-03   1.48197046E-06
  -5.95000014E-03   1.51357585E-06
  -5.90000022E-03   1.54576946E-06
  -5.84999984E-03   1.57856107E-06
  -5.79999993E-03   1.61196033E-06
  -5.75000001E-03   1.64597691E-06
  -5.70000010E-03   1.68062013E-06
  -5.65000018E-03   1.71589841E-06
  -5.59999980E-03   1.75182026E-06
  -5.54999989E-03   1.78839400E-06
  -5.49999997E-03   1.82562871E-06
  -5.45000006E-03   1.86353441E-06
  -5.40000014E-03   1.90212131E-06
  -5.35000023E-03   1.94140011E-06
  -5.29999984E-03   1.98138150E-06
  -5.24999993E-03   2.02207502E-06
  -5.20000001E-03   2.06349046E-06
  -5.15000010E-03   2.10563644E-06
  -5.10000018E-03   2.14852207E-06
  -5.04999980E-03   2.19215667E-06
  -4.99999989E-03   2.23655093E-06
  -4.94999997E-03   2.28171530E-06
  -4.90000006E-03   2.32766138E-06
  -4.85000014E-03   2.37439986E-06
  -4.80000023E-03   2.42194164E-06
  -4.74999985E-03   2.47029652E-06
  -4.69999993E-03   2.51947358E-06
  -4.65000002E-03   2.56948192E-06
  -4.60000010E-03   2.62033132E-06
  -4.55000019E-03   2.67203245E-06
  -4.49999981E-03   2.72459715E-06
  -4.44999989E-03   2.77803701E-06
  -4.39999998E-03   2.83236409E-06
  -4.35000006E-03   2.88758929E-06
  -4.30000015E-03   2.94372285E-06
  -4.25000023E-03   3.00077431E-06
  -4.19999985E-03   3.05875301E-06
  -4.14999994E-03   3.11766894E-06
  -4.10000002E-03   3.17753324E-06
  -4.05000011E-03   3.23835752E-06
  -4.00000019E-03   3.30015382E-06
  -3.94999981E-03   3.36293465E-06
  -3.89999989E-03   3.42671137E-06
  -3.84999998E-03   3.49149423E-06
  -3.80000006E-03   3.55729276E-06
  -3.74999992E-03   3.62411606E-06
  -3.70000000E-03   3.69197392E-06
  -3.65000009E-03   3.76087723E-06
  -3.59999994E-03   3.83083761E-06
  -3.55000002E-03   3.90186733E-06
  -3.50000011E-03   3.97397844E-06
  -3.44999996E-03   4.04718276E-06
  -3.40000005E-03   4.12149029E-06
  -3.34999990E-03   4.19691060E-06
  -3.29999998E-03   4.27345185E-06
  -3.25000007E-03   4.35112406E-06
  -3.19999992E-03   4.42993723E-06
  -3.15000000E-03   4.50990274E-06
  -3.10000009E-03   4.59103285E-06
  -3.04999994E-03   4.67333984E-06
  -3.00000003E-03   4.75683601E-06
  -2.95000011E-03   4.84153134E-06
  -2.89999996E-03   4.92743357E-06
  -2.85000005E-03   5.01455224E-06
  -2.79999990E-03   5.10289465E-06
  -2.74999999E-03   5.19246942E-06
  -2.70000007E-03   5.28328837E-06
  -2.64999992E-03   5.37536289E-06
  -2.60000001E-03   5.46870479E-06
  -2.55000009E-03   5.56332498E-06
  -2.49999994E-03   5.65923347E-06
  -2.45000003E-03   5.75643753E-06
  -2.40000011E-03   5.85494490E-06
  -2.34999997E-03   5.95476195E-06
  -2.30000005E-03   6.05589685E-06
  -2.24999990E-03   6.15835825E-06
  -2.19999999E-03   6.26215660E-06
  -2.15000007E-03   6.36730329E-06
  -2.09999993E-03   6.47380784E-06
  -2.05000001E-03   6.58167937E-06
  -2.00000009E-03   6.69092515E-06
  -1.94999995E-03   6.80155199E-06
  -1.90000003E-03   6.91356490E-06
  -1.85000000E-03   7.02696889E-06
  -1.79999997E-03   7.14177168E-06
  -1.75000005E-03   7.25798145E-06
  -1.70000002E-03   7.37560686E-06
  -1.64999999E-03   7.49465744E-06
  -1.59999996E-03   7.61514229E-06
  -1.55000004E-03   7.73706688E-06
  -1.50000001E-03   7.86043438E-06
  -1.44999998E-03   7.98524889E-06
  -1.39999995E-03   8.11151222E-06
  -1.35000004E-03   8.23922892E-06
  -1.30000000E-03   8.36840536E-06
  -1.24999997E-03   8.49904791E-06
  -1.20000006E-03   8.63116384E-06
  -1.15000003E-03   8.76475951E-06
  -1.09999999E-03   8.89983858E-06
  -1.04999996E-03   9.03640375E-06
  -1.00000005E-03   9.17445414E-06
  -9.50000016E-04   9.31399154E-06
  -8.99999985E-04   9.45501415E-06
  -8.50000011E-04   9.59752742E-06
  -7.99999980E-04   9.74153318E-06
  -7.50000007E-04   9.88703687E-06
  -6.99999975E-04   1.00340412E-05
  -6.50000002E-04   1.01825499E-05
  -6.00000028E-04   1.03325610E-05
  -5.49999997E-04   1.04840738E-05
  -5.00000024E-04   1.06370826E-05
  -4.49999992E-04   1.07915848E-05
  -3.99999990E-04   1.09475795E-05
  -3.49999988E-04   1.11050658E-05
  -3.00000014E-04   1.12640437E-05
  -2.50000012E-04   1.14245140E-05
  -1.99999995E-04   1.15864741E-05
  -1.50000007E-04   1.17499212E-05
  -9.99999975E-05   1.19148499E-05
  -4.99999987E-05   1.20812510E-05
   0.00000000       1.22491183E-05
   4.99999987E-05   1.24184426E-05
   9.99999975E-05   1.25892211E-05
   1.50000007E-04   1.27614485E-05
   1.99999995E-04   1.29351210E-05
   2.50000012E-04   1.31102333E-05
   3.00000014E-04   1.32867781E-05
   3.49999988E-04   1.34647453E-05
   3.99999990E-04   1.36441231E-05
   4.49999992E-04   1.38248988E-05
   5.00000024E-04   1.40070579E-05
   5.49999997E-04   1.41905894E-05
   6.00000028E-04   1.43754842E-05
   6.50000002E-04   1.45617341E-05
   6.99999975E-04   1.47493283E-05
   7.50000007E-04   1.49382540E-05
   7.99999980E-04   1.51284967E-05
   8.50000011E-04   1.53200363E-05
   8.99999985E-04   1.55128564E-05
   9.50000016E-04   1.57069371E-05
   1.00000005E-03   1.59022602E-05
   1.04999996E-03   1.60988075E-05
   1.09999999E-03   1.62965662E-05
   1.15000003E-03   1.64955181E-05
   1.20000006E-03   1.66956488E-05
   1.24999997E-03   1.68969345E-05
   1.30000000E-03   1.70993517E-05
   1.35000004E-03   1.73028711E-05
   1.39999995E-03   1.75074692E-05
   1.44999998E-03   1.77131205E-05
   1.50000001E-03   1.79197996E-05
   1.55000004E-03   1.81274845E-05
   1.59999996E-03   1.83361535E-05
   1.64999999E-03   1.85457848E-05
   1.70000002E-03   1.87563492E-05
   1.75000005E-03   1.89678121E-05
   1.79999997E-03   1.91801428E-05
   1.85000000E-03   1.93933047E-05
   1.90000003E-03   1.96072669E-05
   1.94999995E-03   1.98219914E-05
   2.00000009E-03   2.00374507E-05
   2.05000001E-03   2.02536175E-05
   2.09999993E-03   2.04704575E-05
   2.15000007E-03   2.06879376E-05
   2.19999999E-03   2.09060163E-05
   2.24999990E-03   2.11246497E-05
   2.30000005E-03   2.13437925E-05
   2.34999997E-03   2.15634027E-05
   2.40000011E-03   2.17834386E-05
   2.45000003E-03   2.20038619E-05
   2.49999994E-03   2.22246344E-05
   2.55000009E-03   2.24457181E-05
   2.60000001E-03   2.26670654E-05
   2.64999992E-03   2.28886311E-05
   2.70000007E-03   2.31103622E-05
   2.74999999E-03   2.33322044E-05
   2.79999990E-03   2.35541011E-05