  -3.99999991E-02   0.00000000    
  -3.99499983E-02   0.00000000    
  -3.99000011E-02   0.00000000    
  -3.98500003E-02   0.00000000    
  -3.97999994E-02   0.00000000    
  -3.97499986E-02   8.25616674E-22
  -3.97000015E-02   9.29886072E-21
  -3.96500006E-02   5.55317171E-20
  -3.95999998E-02   2.32186031E-19
  -3.95499989E-02   7.58949586E-19
  -3.95000018E-02   2.05631600E-18
  -3.94500010E-02   4.78673290E-18
  -3.94000001E-02   9.80643627E-18
  -3.93499993E-02   1.79914099E-17
  -3.92999984E-02   2.99679198E-17
  -3.92500013E-02   4.58729585E-17
  -3.92000005E-02   6.53369386E-17
  -3.91499996E-02   8.78495457E-17
  -3.90999988E-02   1.13504453E-16
  -3.90500017E-02   1.43865780E-16
  -3.90000008E-02   1.82494916E-16
  -3.89500000E-02   2.34680087E-16
  -3.88999991E-02   3.06205957E-16
  -3.88499983E-02   4.01504417E-16
  -3.88000011E-02   5.22002000E-16
  -3.87500003E-02   6.65631365E-16
  -3.86999995E-02   8.28123572E-16
  -3.86499986E-02   1.00589006E-15
  -3.86000015E-02   1.19936477E-15
  -3.85500006E-02   1.41508596E-15
  -3.84999998E-02   1.66498143E-15
  -3.84499989E-02   1.96240339E-15
  -3.84000018E-02   2.31608581E-15
  -3.83500010E-02   2.72459688E-15
  -3.83000001E-02   3.17420875E-15
  -3.82499993E-02   3.64195538E-15
  -3.81999984E-02   4.10336599E-15
  -3.81500013E-02   4.54191518E-15
  -3.81000005E-02   4.95592709E-15
  -3.80499996E-02   5.35929604E-15
  -3.79999988E-02   5.77485083E-15
  -3.79500017E-02   6.22251537E-15
  -3.79000008E-02   6.70704150E-15
  -3.78500000E-02   7.21074235E-15
  -3.77999991E-02   7.69476239E-15
  -3.77499983E-02   8.10872518E-15
  -3.77000012E-02   8.40467934E-15
  -3.76500003E-02   8.54910100E-15
  -3.75999995E-02   8.52744829E-15
  -3.75499986E-02   8.33916388E-15
  -3.75000015E-02   7.98545563E-15
  -3.74500006E-02   7.45536970E-15
  -3.73999998E-02   6.71625045E-15
  -3.73499990E-02   5.71249650E-15
  -3.73000018E-02   4.37299013E-15
  -3.72500010E-02   2.62447166E-15
  -3.72000001E-02   4.06618060E-16
  -3.71499993E-02  -2.31514243E-15
  -3.70999984E-02  -5.54176430E-15
  -3.70500013E-02  -9.23926259E-15
  -3.70000005E-02  -1.33450380E-14
  -3.69499996E-02  -1.77827859E-14
  -3.68999988E-02  -2.24858042E-14
  -3.68500017E-02  -2.74253717E-14
  -3.68000008E-02  -3.26358915E-14
  -3.67500000E-02  -3.82244793E-14
  -3.66999991E-02  -4.43531964E-14
  -3.66499983E-02  -5.11902600E-14
  -3.66000012E-02  -5.88405870E-14
  -3.65500003E-02  -6.72810128E-14
  -3.64999995E-02  -7.63317090E-14
  -3.64499986E-02  -8.56870727E-14
  -3.64000015E-02  -9.50060343E-14
  -3.63500006E-02  -1.04031394E-13
  -3.62999998E-02  -1.12685198E-13
  -3.62499990E-02  -1.21086477E-13
  -3.62000018E-02  -1.29464365E-13
  -3.61500010E-02  -1.37988443E-13
  -3.61000001E-02  -1.46586289E-13
  -3.60499993E-02  -1.54843084E-13
  -3.59999985E-02  -1.62056363E-13
  -3.59500013E-02  -1.67455717E-13
  -3.59000005E-02  -1.70512056E-13
  -3.58499996E-02  -1.71197542E-13
  -3.57999988E-02  -1.70052191E-13
  -3.57500017E-02  -1.67980308E-13
  -3.57000008E-02  -1.65822475E-13
  -3.56500000E-02  -1.63870247E-13
  -3.55999991E-02  -1.61553591E-13
  -3.55499983E-02  -1.57488240E-13
  -3.55000012E-02  -1.49926377E-13
  -3.54500003E-02  -1.37461399E-13
  -3.53999995E-02  -1.19684820E-13
  -3.53499986E-02  -9.74656282E-14
  -3.53000015E-02  -7.26544408E-14
  -3.52500007E-02  -4.72682467E-14
  -3.51999998E-02  -2.24784723E-14
  -3.51499990E-02   2.12622295E-15
  -3.51000018E-02   2.85929253E-14
  -3.50500010E-02   5.98394557E-14
  -3.50000001E-02   9.83202303E-14
  -3.49499993E-02   1.44690602E-13
  -3.48999985E-02   1.97122795E-13
  -3.48500013E-02   2.51704473E-13
  -3.48000005E-02   3.03884684E-13
  -3.47499996E-02   3.50415850E-13
  -3.46999988E-02   3.90923540E-13
  -3.46500017E-02   4.28296342E-13
  -3.46000008E-02   4.67555899E-13
  -3.45500000E-02   5.13557675E-13
  -3.44999991E-02   5.68485471E-13
  -3.44499983E-02   6.30321533E-13
  -3.44000012E-02   6.93146170E-13
  -3.43500003E-02   7.49339772E-13
  -3.42999995E-02   7.92846528E-13
  -3.42499986E-02   8.22048538E-13
  -3.42000015E-02   8.40812663E-13
  -3.41500007E-02   8.56992157E-13
  -3.40999998E-02   8.78811184E-13
  -3.40499990E-02   9.10636150E-13
  -3.40000018E-02   9.50108373E-13
  -3.39500010E-02   9.88180024E-13
  -3.39000002E-02   1.01236933E-12
  -3.38499993E-02   1.01203930E-12
  -3.37999985E-02   9.83394572E-13
  -3.37500013E-02   9.31781887E-13
  -3.37000005E-02   8.69911944E-13
  -3.36499996E-02   8.12425973E-13
  -3.35999988E-02   7.69024547E-13
  -3.35500017E-02   7.39287483E-13
  -3.35000008E-02   7.11823558E-13
  -3.34500000E-02   6.68585359E-13
  -3.33999991E-02   5.92797675E-13
  -3.33499983E-02   4.77071182E-13
  -3.33000012E-02   3.27850296E-13
  -3.32500003E-02   1.63719326E-13
  -3.31999995E-02   7.78501798E-15
  -3.31499986E-02  -1.22805195E-13
  -3.31000015E-02  -2.25496976E-13
  -3.30500007E-02  -3.14842824E-13
  -3.29999998E-02  -4.17131580E-13
  -3.29499990E-02  -5.58951540E-13
  -3.29000019E-02  -7.54533372E-13
  -3.28500010E-02  -9.97735098E-13
  -3.28000002E-02  -1.26284150E-12
  -3.27499993E-02  -1.51455270E-12
  -3.26999985E-02  -1.72322508E-12
  -3.26500013E-02  -1.87862096E-12
  -3.26000005E-02  -1.99557211E-12
  -3.25499997E-02  -2.10824348E-12
  -3.24999988E-02  -2.25480203E-12
  -3.24500017E-02  -2.45896619E-12
  -3.24000008E-02  -2.71690851E-12
  -3.23500000E-02  -2.99612288E-12
  -3.22999991E-02  -3.24774474E-12
  -3.22499983E-02  -3.42758742E-12
  -3.22000012E-02  -3.51666699E-12
  -3.21500003E-02  -3.53151536E-12
  -3.20999995E-02  -3.51863590E-12
  -3.20499986E-02  -3.53448737E-12
  -3.20000015E-02  -3.61928044E-12
  -3.19500007E-02  -3.77640974E-12
  -3.18999998E-02  -3.96756716E-12
  -3.18499990E-02  -4.12696526E-12
  -3.18000019E-02  -4.18938235E-12
  -3.17500010E-02  -4.11990754E-12
  -3.17000002E-02  -3.93158943E-12
  -3.16499993E-02  -3.68192109E-12
  -3.15999985E-02  -3.44835293E-12
  -3.15500014E-02  -3.29286598E-12
  -3.15000005E-02  -3.23144289E-12
  -3.14499997E-02  -3.22305312E-12
  -3.13999988E-02  -3.18462661E-12
  -3.13500017E-02  -3.02677740E-12
  -3.13000008E-02  -2.69497987E-12
  -3.12500000E-02  -2.19735233E-12
  -3.11999992E-02  -1.60520935E-12
  -3.11500002E-02  -1.02435465E-12
  -3.10999993E-02  -5.48587434E-13
  -3.10500003E-02  -2.15906408E-13
  -3.09999995E-02   1.20668466E-14
  -3.09500005E-02   2.36462461E-13
  -3.08999997E-02   5.77567670E-13
  -3.08500007E-02   1.11969592E-12
  -3.07999998E-02   1.86939830E-12
  -3.07500008E-02   2.74719223E-12
  -3.07000000E-02   3.61857788E-12
  -3.06499992E-02   4.35221000E-12
  -3.06000002E-02   4.87977107E-12
  -3.05499993E-02   5.22984607E-12
  -3.05000003E-02   5.51859643E-12
  -3.04499995E-02   5.89910933E-12
  -3.04000005E-02   6.49059582E-12
  -3.03499997E-02   7.31915049E-12
  -3.03000007E-02   8.29819633E-12
  -3.02499998E-02   9.25991315E-12
  -3.02000009E-02   1.00259393E-11
  -3.01500000E-02   1.04868284E-11
  -3.00999992E-02   1.06540193E-11
  -3.00500002E-02   1.06588904E-11
  -2.99999993E-02   1.06965235E-11
  -2.99500003E-02   1.09373136E-11
  -2.98999995E-02   1.14455416E-11
  -2.98500005E-02   1.21428735E-11
  -2.97999997E-02   1.28358903E-11
  -2.97500007E-02   1.32981751E-11
  -2.96999998E-02   1.33718011E-11
  -2.96500009E-02   1.30423476E-11
  -2.96000000E-02   1.24515502E-11
  -2.95499992E-02   1.18386247E-11
  -2.95000002E-02   1.14338339E-11
  -2.94499993E-02   1.13509783E-11
  -2.94000003E-02   1.15282723E-11
  -2.93499995E-02   1.17471623E-11
  -2.93000005E-02   1.17241616E-11
  -2.92499997E-02   1.12369549E-11
  -2.92000007E-02   1.02284578E-11
  -2.91499998E-02   8.84006583E-12
  -2.91000009E-02   7.35563607E-12
  -2.90500000E-02   6.07795108E-12
  -2.89999992E-02   5.19135256E-12
  -2.89500002E-02   4.67299897E-12
  -2.88999993E-02   4.29557865E-12
  -2.88500004E-02   3.72417939E-12
  -2.87999995E-02   2.66691140E-12
  -2.87500005E-02   1.01243981E-12
  -2.86999997E-02  -1.10926578E-12
  -2.86500007E-02  -3.37412281E-12
  -2.85999998E-02  -5.40204470E-12
  -2.85500009E-02  -6.92648239E-12
  -2.85000000E-02  -7.91903869E-12
  -2.84499992E-02  -8.61017681E-12
  -2.84000002E-02  -9.39223959E-12
  -2.83499993E-02  -1.06443118E-11
  -2.83000004E-02  -1.25558643E-11
  -2.82499995E-02  -1.50297604E-11
  -2.82000005E-02  -1.77121113E-11
  -2.81499997E-02  -2.01403460E-11
  -2.81000007E-02  -2.19464186E-11
  -2.80499998E-02  -2.30244643E-11
  -2.80000009E-02  -2.35849205E-11
  -2.79500000E-02  -2.40661033E-11
  -2.78999992E-02  -2.49382563E-11
  -2.78500002E-02  -2.64855811E-11
  -2.77999993E-02  -2.86650322E-11
  -2.77500004E-02  -3.11093373E-11
  -2.76999995E-02  -3.32782517E-11
  -2.76500005E-02  -3.46946465E-11
  -2.75999997E-02  -3.51607944E-11
  -2.75500007E-02  -3.48555351E-11
  -2.74999999E-02  -3.42636405E-11
  -2.74500009E-02  -3.39634570E-11
  -2.74000000E-02  -3.43644418E-11
  -2.73499992E-02  -3.55123743E-11
  -2.73000002E-02  -3.70531557E-11
  -2.72499993E-02  -3.83772493E-11
  -2.72000004E-02  -3.88851416E-11
  -2.71499995E-02  -3.82571440E-11
  -2.71000005E-02  -3.66049170E-11
  -2.70499997E-02  -3.44318012E-11
  -2.70000007E-02  -3.24136724E-11
  -2.69499999E-02  -3.10942071E-11
  -2.69000009E-02  -3.06304045E-11
  -2.68500000E-02  -3.07059621E-11
  -2.67999992E-02  -3.06574904E-11
  -2.67500002E-02  -2.97632023E-11
  -2.66999993E-02  -2.75681006E-11
  -2.66500004E-02  -2.40990630E-11
  -2.65999995E-02  -1.98683934E-11
  -2.65500005E-02  -1.56575655E-11
  -2.64999997E-02  -1.21723404E-11
  -2.64500007E-02  -9.72192292E-12
  -2.63999999E-02  -8.06861782E-12
  -2.63500009E-02  -6.52155109E-12
  -2.63000000E-02  -4.23942131E-12
  -2.62499992E-02  -6.11201953E-13
  -2.62000002E-02   4.45572572E-12
  -2.61499994E-02   1.04735994E-11
  -2.61000004E-02   1.65734856E-11
  -2.60499995E-02   2.18829902E-11
  -2.60000005E-02   2.59163576E-11
  -2.59499997E-02   2.88001289E-11
  -2.59000007E-02   3.12270591E-11
  -2.58499999E-02   3.41511056E-11
  -2.58000009E-02   3.83542330E-11
  -2.57500000E-02   4.40778698E-11
  -2.56999992E-02   5.08879952E-11
  -2.56500002E-02   5.78419222E-11
  -2.55999994E-02   6.38898101E-11
  -2.55500004E-02   6.83356635E-11
  -2.54999995E-02   7.11506409E-11
  -2.54500005E-02   7.29925773E-11
  -2.53999997E-02   7.49148937E-11
  -2.53500007E-02   7.78882792E-11
  -2.52999999E-02   8.23470181E-11
  -2.52500009E-02   8.79662315E-11
  -2.52000000E-02   9.37774372E-11
  -2.51499992E-02   9.85791171E-11
  -2.51000002E-02   1.01464122E-10
  -2.50499994E-02   1.02227969E-10
  -2.50000004E-02   1.01469694E-10
  -2.49499995E-02   1.00331320E-10
  -2.49000005E-02   9.99844096E-11
  -2.48499997E-02   1.01089720E-10
  -2.48000007E-02   1.03474035E-10
  -2.47499999E-02   1.06176415E-10
  -2.47000009E-02   1.07852401E-10
  -2.46500000E-02   1.07362397E-10
  -2.45999992E-02   1.04282423E-10
  -2.45500002E-02   9.91040167E-11
  -2.44999994E-02   9.30250668E-11
  -2.44500004E-02   8.74162548E-11
  -2.43999995E-02   8.31970742E-11
  -2.43500005E-02   8.04020392E-11
  -2.42999997E-02   7.81385998E-11
  -2.42500007E-02   7.49655546E-11
  -2.41999999E-02   6.95309296E-11
  -2.41500009E-02   6.11864517E-11
  -2.41000000E-02   5.02996429E-11
  -2.40499992E-02   3.81145220E-11
  -2.40000002E-02   2.62131757E-11
  -2.39499994E-02   1.58123167E-11
  -2.39000004E-02   7.20976187E-12
  -2.38499995E-02  -3.65016475E-13
  -2.38000005E-02  -8.41886543E-12
  -2.37499997E-02  -1.85207353E-11
  -2.37000007E-02  -3.15825664E-11
  -2.36499999E-02  -4.74200054E-11
  -2.36000009E-02  -6.47981530E-11
  -2.35500000E-02  -8.19525212E-11
  -2.34999992E-02  -9.73596481E-11
  -2.34500002E-02  -1.10413553E-10
  -2.33999994E-02  -1.21699276E-10
  -2.33500004E-02  -1.32730479E-10
  -2.32999995E-02  -1.45258167E-10
  -2.32500006E-02  -1.60454677E-10
  -2.31999997E-02  -1.78340273E-10
  -2.31500007E-02  -1.97717717E-10
  -2.30999999E-02  -2.16655666E-10
  -2.30500009E-02  -2.33313924E-10
  -2.30000000E-02  -2.46743653E-10
  -2.29499992E-02  -2.57299348E-10
  -2.29000002E-02  -2.66467792E-10
  -2.28499994E-02  -2.76179163E-10
  -2.28000004E-02  -2.87902341E-10
  -2.27499995E-02  -3.01929842E-10
  -2.27000006E-02  -3.17181087E-10
  -2.26499997E-02  -3.31623506E-10
  -2.26000007E-02  -3.43133411E-10
  -2.25499999E-02  -3.50414059E-10
  -2.25000009E-02  -3.53556712E-10
  -2.24500000E-02  -3.53981372E-10
  -2.23999992E-02  -3.53773344E-10
  -2.23500002E-02  -3.54703628E-10
  -2.22999994E-02  -3.57372604E-10
  -2.22500004E-02  -3.60868363E-10
  -2.21999995E-02  -3.63104796E-10
  -2.21500006E-02  -3.61700697E-10
  -2.20999997E-02  -3.55010771E-10
  -2.20500007E-02  -3.42844392E-10
  -2.19999999E-02  -3.26540239E-10
  -2.19500009E-02  -3.08351206E-10
  -2.19000001E-02  -2.90406282E-10
  -2.18499992E-02  -2.73713163E-10
  -2.18000002E-02  -2.57656091E-10
  -2.17499994E-02  -2.40225784E-10
  -2.17000004E-02  -2.18891072E-10
  -2.16499995E-02  -1.91727689E-10
  -2.16000006E-02  -1.58296348E-10
  -2.15499997E-02  -1.19866714E-10
  -2.15000007E-02  -7.88735396E-11
  -2.14499999E-02  -3.78391901E-11
  -2.14000009E-02   1.75751395E-12
  -2.13500001E-02   4.01523502E-11
  -2.12999992E-02   7.91932284E-11
  -2.12500002E-02   1.21497284E-10
  -2.11999994E-02   1.69237180E-10
  -2.11500004E-02   2.23102078E-10
  -2.10999995E-02   2.81907941E-10
  -2.10500006E-02   3.43045231E-10
  -2.09999997E-02   4.03573647E-10
  -2.09500007E-02   4.61476773E-10
  -2.08999999E-02   5.16507948E-10
  -2.08500009E-02   5.70235970E-10
  -2.08000001E-02   6.25256513E-10
  -2.07499992E-02   6.83914925E-10
  -2.07000002E-02   7.47114093E-10
  -2.06499994E-02   8.13751400E-10
  -2.06000004E-02   8.81052564E-10
  -2.05499995E-02   9.45663881E-10
  -2.05000006E-02   1.00501918E-09
  -2.04499997E-02   1.05836251E-09
  -2.04000007E-02   1.10695586E-09
  -2.03499999E-02   1.15336440E-09
  -2.03000009E-02   1.20013011E-09
  -2.02500001E-02   1.24842714E-09
  -2.01999992E-02   1.29731270E-09
  -2.01500002E-02   1.34392186E-09
  -2.00999994E-02   1.38453282E-09
  -2.00500004E-02   1.41603029E-09
  -1.99999996E-02   1.43710577E-09
  -1.99500006E-02   1.44864454E-09
  -1.98999997E-02   1.45311230E-09
  -1.98500007E-02   1.45320422E-09
  -1.97999999E-02   1.45036505E-09
  -1.97500009E-02   1.44385248E-09
  -1.97000001E-02   1.43077994E-09
  -1.96499992E-02   1.40713530E-09
  -1.96000002E-02   1.36932521E-09
  -1.95499994E-02   1.31554956E-09
  -1.95000004E-02   1.24637756E-09
  -1.94499996E-02   1.16425036E-09
  -1.94000006E-02   1.07212395E-09
  -1.93499997E-02   9.71856706E-10
  -1.93000007E-02   8.63076832E-10
  -1.92499999E-02   7.43050732E-10
  -1.92000009E-02   6.07628003E-10
  -1.91500001E-02   4.52846677E-10
  -1.90999992E-02   2.76475315E-10
  -1.90500002E-02   7.87872337E-11
  -1.89999994E-02  -1.37796163E-10
  -1.89500004E-02  -3.70046049E-10
  -1.88999996E-02  -6.15650364E-10
  -1.88500006E-02  -8.74539274E-10
  -1.87999997E-02  -1.14919896E-09
  -1.87500007E-02  -1.44381540E-09
  -1.86999999E-02  -1.76262271E-09
  -1.86500009E-02  -2.10819850E-09
  -1.86000001E-02  -2.48048360E-09
  -1.85499992E-02  -2.87698310E-09
  -1.85000002E-02  -3.29407568E-09
  -1.84499994E-02  -3.72884346E-09
  -1.84000004E-02  -4.18059942E-09
  -1.83499996E-02  -4.65140504E-09
  -1.83000006E-02  -5.14532905E-09
  -1.82499997E-02  -5.66677327E-09
  -1.82000007E-02  -6.21861407E-09
  -1.81499999E-02  -6.80100509E-09
  -1.81000009E-02  -7.41140926E-09
  -1.80500001E-02  -8.04584133E-09
  -1.79999992E-02  -8.70079297E-09
  -1.79500002E-02  -9.37495148E-09
  -1.78999994E-02  -1.00699316E-08
  -1.78500004E-02  -1.07896643E-08
  -1.77999996E-02  -1.15387158E-08
  -1.77500006E-02  -1.23202799E-08
  -1.76999997E-02  -1.31347599E-08
  -1.76500008E-02  -1.39795997E-08
  -1.75999999E-02  -1.48504604E-08
  -1.75500009E-02  -1.57432183E-08
  -1.75000001E-02  -1.66558820E-08
  -1.74499992E-02  -1.75895565E-08
  -1.74000002E-02  -1.85480058E-08
  -1.73499994E-02  -1.95359746E-08
  -1.73000004E-02  -2.05570529E-08
  -1.72499996E-02  -2.16120313E-08
  -1.72000006E-02  -2.26985275E-08
  -1.71499997E-02  -2.38120510E-08
  -1.71000008E-02  -2.49480721E-08
  -1.70499999E-02  -2.61041215E-08
  -1.70000009E-02  -2.72810059E-08
  -1.69500001E-02  -2.84825212E-08
  -1.68999992E-02  -2.97138296E-08
  -1.68500002E-02  -3.09791730E-08
  -1.67999994E-02  -3.22799991E-08
  -1.67500004E-02  -3.36143380E-08
  -1.66999996E-02  -3.49777558E-08
  -1.66500006E-02  -3.63654564E-08
  -1.65999997E-02  -3.77745835E-08
  -1.65500008E-02  -3.92056876E-08
  -1.64999999E-02  -4.06626732E-08
  -1.64500009E-02  -4.21512105E-08
  -1.64000001E-02  -4.36763621E-08
  -1.63499992E-02  -4.52404514E-08
  -1.63000003E-02  -4.68421852E-08
  -1.62499994E-02  -4.84774638E-08
  -1.62000004E-02  -5.01414945E-08
  -1.61499996E-02  -5.18312859E-08
  -1.61000006E-02  -5.35473816E-08
  -1.60499997E-02  -5.52940378E-08
  -1.60000008E-02  -5.70777097E-08
  -1.59499999E-02  -5.89045683E-08
  -1.59000009E-02  -6.07781203E-08
  -1.58500001E-02  -6.26980423E-08
  -1.57999992E-02  -6.46608029E-08
  -1.57500003E-02  -6.66617481E-08
  -1.56999994E-02  -6.86978439E-08
  -1.56500004E-02  -7.07696231E-08
  -1.55999996E-02  -7.28816758E-08
  -1.55499997E-02  -7.50412923E-08
  -1.54999997E-02  -7.72558266E-08
  -1.54499998E-02  -7.95301034E-08
  -1.53999999E-02  -8.18649823E-08
  -1.53500000E-02  -8.42577066E-08
  -1.53000001E-02  -8.67040058E-08
  -1.52500002E-02  -8.92009453E-08
  -1.52000003E-02  -9.17492358E-08
  -1.51500003E-02  -9.43539789E-08
  -1.51000004E-02  -9.70234382E-08
  -1.50499996E-02  -9.97663463E-08
  -1.49999997E-02  -1.02589098E-07
  -1.49499997E-02  -1.05493868E-07
  -1.48999998E-02  -1.08478829E-07
  -1.48499999E-02  -1.11540096E-07
  -1.48000000E-02  -1.14674755E-07
  -1.47500001E-02  -1.17883516E-07
  -1.47000002E-02  -1.21171766E-07
  -1.46500003E-02  -1.24548521E-07
  -1.46000003E-02  -1.28023800E-07
  -1.45500004E-02  -1.31605432E-07
  -1.44999996E-02  -1.35297000E-07
  -1.44499997E-02  -1.39097594E-07
  -1.43999998E-02  -1.43003746E-07
  -1.43499998E-02  -1.47012599E-07
  -1.42999999E-02  -1.51124809E-07
  -1.42500000E-02  -1.55345973E-07
  -1.42000001E-02  -1.59685882E-07
  -1.41500002E-02  -1.64155793E-07
  -1.41000003E-02  -1.68765112E-07
  -1.40500003E-02  -1.73518842E-07
  -1.40000004E-02  -1.78417082E-07
  -1.39499996E-02  -1.83456805E-07
  -1.38999997E-02  -1.88634999E-07
  -1.38499998E-02  -1.93952076E-07
  -1.37999998E-02  -1.99413577E-07
  -1.37499999E-02  -2.05029693E-07
  -1.37000000E-02  -2.10812729E-07
  -1.36500001E-02  -2.16773429E-07
  -1.36000002E-02  -2.22918175E-07
  -1.35500003E-02  -2.29248045E-07
  -1.35000004E-02  -2.35760410E-07
  -1.34500004E-02  -2.42452188E-07
  -1.33999996E-02  -2.49323421E-07
  -1.33499997E-02  -2.56379536E-07
  -1.32999998E-02  -2.63631108E-07
  -1.32499998E-02  -2.71091466E-07
  -1.31999999E-02  -2.78772859E-07
  -1.31500000E-02  -2.86683189E-07
  -1.31000001E-02  -2.94824758E-07
  -1.30500002E-02  -3.03195520E-07
  -1.30000003E-02  -3.11792292E-07
  -1.29500004E-02  -3.20614760E-07
  -1.29000004E-02  -3.29668012E-07
  -1.28499996E-02  -3.38962963E-07
  -1.27999997E-02  -3.48513765E-07
  -1.27499998E-02  -3.58334120E-07
  -1.26999998E-02  -3.68433547E-07
  -1.26499999E-02  -3.78815741E-07
  -1.26000000E-02  -3.89479339E-07
  -1.25500001E-02  -4.00421442E-07
  -1.25000002E-02  -4.11641508E-07
  -1.24500003E-02  -4.23144513E-07
  -1.24000004E-02  -4.34941796E-07
  -1.23500004E-02  -4.47048620E-07
  -1.22999996E-02  -4.59480589E-07
  -1.22499997E-02  -4.72249326E-07
  -1.21999998E-02  -4.85360374E-07
  -1.21499998E-02  -4.98813733E-07
  -1.20999999E-02  -5.12607130E-07
  -1.20500000E-02  -5.26740280E-07
  -1.20000001E-02  -5.41218355E-07
  -1.19500002E-02  -5.56053124E-07
  -1.19000003E-02  -5.71261353E-07
  -1.18500004E-02  -5.86860438E-07
  -1.18000004E-02  -6.02864361E-07
  -1.17499996E-02  -6.19280797E-07
  -1.16999997E-02  -6.36111452E-07
  -1.16499998E-02  -6.53355016E-07
  -1.15999999E-02  -6.71011662E-07
  -1.15499999E-02  -6.89086960E-07
  -1.15000000E-02  -7.07593642E-07
  -1.14500001E-02  -7.26549843E-07
  -1.14000002E-02  -7.45975399E-07
  -1.13500003E-02  -7.65887251E-07
  -1.13000004E-02  -7.86296027E-07
  -1.12500004E-02  -8.07205936E-07
  -1.11999996E-02  -8.28617601E-07
  -1.11499997E-02  -8.50532217E-07
  -1.10999998E-02  -8.72956491E-07
  -1.10499999E-02  -8.95904066E-07
  -1.09999999E-02  -9.19394893E-07
  -1.09500000E-02  -9.43451312E-07
  -1.09000001E-02  -9.68093218E-07
  -1.08500002E-02  -9.93334424E-07
  -1.08000003E-02  -1.01918181E-06
  -1.07500004E-02  -1.04563799E-06
  -1.07000005E-02  -1.07270557E-06
  -1.06499996E-02  -1.10039218E-06
  -1.05999997E-02  -1.12871282E-06
  -1.05499998E-02  -1.15768955E-06
  -1.04999999E-02  -1.18734761E-06
  -1.04499999E-02  -1.21771052E-06
  -1.04000000E-02  -1.24879614E-06
  -1.03500001E-02  -1.28061481E-06
  -1.03000002E-02  -1.31317222E-06
  -1.02500003E-02  -1.34647314E-06
  -1.02000004E-02  -1.38052678E-06
  -1.01500005E-02  -1.41535031E-06
  -1.00999996E-02  -1.45096772E-06
  -1.00499997E-02  -1.48740742E-06
  -9.99999978E-03  -1.52469659E-06
  -9.94999986E-03  -1.56285660E-06
  -9.89999995E-03  -1.60190166E-06
  -9.85000003E-03  -1.64183996E-06
  -9.80000012E-03  -1.68267889E-06
  -9.75000020E-03  -1.72442913E-06
  -9.70000029E-03  -1.76710921E-06
  -9.65000037E-03  -1.81074540E-06
  -9.60000046E-03  -1.85536874E-06
  -9.54999961E-03  -1.90101025E-06
  -9.49999969E-03  -1.94769541E-06
  -9.44999978E-03  -1.99544252E-06
  -9.39999986E-03  -2.04426328E-06
  -9.34999995E-03  -2.09416817E-06
  -9.30000003E-03  -2.14516990E-06
  -9.25000012E-03  -2.19728918E-06
  -9.20000020E-03  -2.25055487E-06
  -9.15000029E-03  -2.30500200E-06
  -9.10000037E-03  -2.36066489E-06
  -9.05000046E-03  -2.41757380E-06
  -8.99999961E-03  -2.47575144E-06
  -8.94999970E-03  -2.53521330E-06
  -8.89999978E-03  -2.59597186E-06
  -8.84999987E-03  -2.65804283E-06
  -8.79999995E-03  -2.72144848E-06
  -8.75000004E-03  -2.78622019E-06
  -8.70000012E-03  -2.85239548E-06
  -8.65000021E-03  -2.92001278E-06
  -8.60000029E-03  -2.98910595E-06
  -8.55000038E-03  -3.05970161E-06
  -8.50000046E-03  -3.13181931E-06
  -8.44999962E-03  -3.20547474E-06
  -8.39999970E-03  -3.28068654E-06
  -8.34999979E-03  -3.35747927E-06
  -8.29999987E-03  -3.43588704E-06
  -8.24999996E-03  -3.51595054E-06
  -8.20000004E-03  -3.59771207E-06
  -8.15000013E-03  -3.68120982E-06
  -8.10000021E-03  -3.76647563E-06
  -8.05000030E-03  -3.85353314E-06
  -8.00000038E-03  -3.94240169E-06
  -7.95000046E-03  -4.03310378E-06
  -7.89999962E-03  -4.12566669E-06
  -7.84999970E-03  -4.22012681E-06
  -7.79999979E-03  -4.31652870E-06
  -7.74999987E-03  -4.41491875E-06
  -7.69999996E-03  -4.51534015E-06
  -7.65000004E-03  -4.61782929E-06
  -7.60000013E-03  -4.72241436E-06
  -7.55000021E-03  -4.82911946E-06
  -7.49999983E-03  -4.93796824E-06
  -7.44999992E-03  -5.04899253E-06
  -7.40000000E-03  -5.16223054E-06
  -7.35000009E-03  -5.27773045E-06
  -7.30000017E-03  -5.39554185E-06
  -7.24999979E-03  -5.51571338E-06
  -7.19999988E-03  -5.63828553E-06
  -7.14999996E-03  -5.76329148E-06
  -7.10000005E-03  -5.89075944E-06
  -7.05000013E-03  -6.02071668E-06
  -7.00000022E-03  -6.15319777E-06
  -6.94999984E-03  -6.28824500E-06
  -6.89999992E-03  -6.42590931E-06
  -6.85000001E-03  -6.56624434E-06
  -6.80000009E-03  -6.70930376E-06
  -6.75000018E-03  -6.85513442E-06
  -6.69999979E-03  -7.00377313E-06
  -6.64999988E-03  -7.15525402E-06
  -6.59999996E-03  -7.30960846E-06
  -6.55000005E-03  -7.46687374E-06
  -6.50000013E-03  -7.62709578E-06
  -6.45000022E-03  -7.79032871E-06
  -6.39999984E-03  -7.95663072E-06
  -6.34999992E-03  -8.12605867E-06
  -6.30000001E-03  -8.29866440E-06
  -6.25000009E-03  -8.47448882E-06
  -6.20000018E-03  -8.65357015E-06
  -6.14999980E-03  -8.83594203E-06
  -6.09999988E-03  -9.02164356E-06
  -6.04999997E-03  -9.21072478E-06
  -6.00000005E-03  -9.40324117E-06
  -5.95000014E-03  -9.59925637E-06
  -5.90000022E-03  -9.79883134E-06
  -5.84999984E-03  -1.00020206E-05
  -5.79999993E-03  -1.02088698E-05
  -5.75000001E-03  -1.04194205E-05
  -5.70000010E-03  -1.06337102E-05
  -5.65000018E-03  -1.08517834E-05
  -5.59999980E-03  -1.10736919E-05
  -5.54999989E-03  -1.12994949E-05
  -5.49999997E-03  -1.15292596E-05
  -5.45000006E-03  -1.17630489E-05
  -5.40000014E-03  -1.20009245E-05
  -5.35000023E-03  -1.22429328E-05
  -5.29999984E-03  -1.24891194E-05
  -5.24999993E-03  -1.27395242E-05
  -5.20000001E-03  -1.29941900E-05
  -5.15000010E-03  -1.32531713E-05
  -5.10000018E-03  -1.35165319E-05
  -5.04999980E-03  -1.37843381E-05
  -4.99999989E-03  -1.40566563E-05
  -4.94999997E-03  -1.43335474E-05
  -4.90000006E-03  -1.46150642E-05
  -4.85000014E-03  -1.49012503E-05
  -4.80000023E-03  -1.51921467E-05
  -4.74999985E-03  -1.54877998E-05
  -4.69999993E-03  -1.57882660E-05
  -4.65000002E-03  -1.60936088E-05
  -4.60000010E-03  -1.64038975E-05
  -4.55000019E-03  -1.67192047E-05
  -4.49999981E-03  -1.70395924E-05
  -4.44999989E-03  -1.73651097E-05
  -4.39999998E-03  -1.76958056E-05
  -4.35000006E-03  -1.80317202E-05
  -4.30000015E-03  -1.83729007E-05
  -4.25000023E-03  -1.87194000E-05
  -4.19999985E-03  -1.90712872E-05
  -4.14999994E-03  -1.94286276E-05
  -4.10000002E-03  -1.97914942E-05
  -4.05000011E-03  -2.01599487E-05
  -4.00000019E-03  -2.05340439E-05
  -3.94999981E-03  -2.09138234E-05
  -3.89999989E-03  -2.12993291E-05
  -3.84999998E-03  -2.16906028E-05
  -3.80000006E-03  -2.20876991E-05
  -3.74999992E-03  -2.24906798E-05
  -3.70000000E-03  -2.28996159E-05
  -3.65000009E-03  -2.33145784E-05
  -3.59999994E-03  -2.37356271E-05
  -3.55000002E-03  -2.41628150E-05
  -3.50000011E-03  -2.45961874E-05
  -3.44999996E-03  -2.50357771E-05
  -3.40000005E-03  -2.54816277E-05
  -3.34999990E-03  -2.59337885E-05
  -3.29999998E-03  -2.63923230E-05
  -3.25000007E-03  -2.68572985E-05
  -3.19999992E-03  -2.73287824E-05
  -3.15000000E-03  -2.78068383E-05
  -3.10000009E-03  -2.82915116E-05
  -3.04999994E-03  -2.87828443E-05
  -3.00000003E-03  -2.92808691E-05
  -2.95000011E-03  -2.97856241E-05
  -2.89999996E-03  -3.02971512E-05
  -2.85000005E-03  -3.08155068E-05
  -2.79999990E-03  -3.13407545E-05
  -2.74999999E-03  -3.18729581E-05
  -2.70000007E-03  -3.24121793E-05
  -2.64999992E-03  -3.29584582E-05
  -2.60000001E-03  -3.35118348E-05
  -2.55000009E-03  -3.40723236E-05
  -2.49999994E-03  -3.46399611E-05
  -2.45000003E-03  -3.52147836E-05
  -2.40000011E-03  -3.57968420E-05
  -2.34999997E-03  -3.63861982E-05
  -2.30000005E-03  -3.69829067E-05
  -2.24999990E-03  -3.75870186E-05
  -2.19999999E-03  -3.81985737E-05
  -2.15000007E-03  -3.88176013E-05
  -2.09999993E-03  -3.94441086E-05
  -2.05000001E-03  -4.00781282E-05
  -2.00000009E-03  -4.07196785E-05
  -1.94999995E-03  -4.13688103E-05
  -1.90000003E-03  -4.20255637E-05
  -1.85000000E-03  -4.26899969E-05
  -1.79999997E-03  -4.33621499E-05
  -1.75000005E-03  -4.40420481E-05
  -1.70000002E-03  -4.47297098E-05
  -1.64999999E-03  -4.54251349E-05
  -1.59999996E-03  -4.61283271E-05
  -1.55000004E-03  -4.68393082E-05
  -1.50000001E-03  -4.75580964E-05
  -1.44999998E-03  -4.82847390E-05
  -1.39999995E-03  -4.90192724E-05
  -1.35000004E-03  -4.97617257E-05
  -1.30000000E-03  -5.05121207E-05
  -1.24999997E-03  -5.12704573E-05
  -1.20000006E-03  -5.20367212E-05
  -1.15000003E-03  -5.28108976E-05
  -1.09999999E-03  -5.35929830E-05
  -1.04999996E-03  -5.43829883E-05
  -1.00000005E-03  -5.51809426E-05
  -9.50000016E-04  -5.59868568E-05
  -8.99999985E-04  -5.68007672E-05
  -8.50000011E-04  -5.76226739E-05
  -7.99999980E-04  -5.84525515E-05
  -7.50000007E-04  -5.92903743E-05
  -6.99999975E-04  -6.01360953E-05
  -6.50000002E-04  -6.09896924E-05
  -6.00000028E-04  -6.18511549E-05
  -5.49999997E-04  -6.27204790E-05
  -5.00000024E-04  -6.35976758E-05
  -4.49999992E-04  -6.44827451E-05
  -3.99999990E-04  -6.53756724E-05
  -3.49999988E-04  -6.62764141E-05
  -3.00000014E-04  -6.71849120E-05
  -2.50000012E-04  -6.81011006E-05
  -1.99999995E-04  -6.90249217E-05
  -1.50000007E-04  -6.99563316E-05
  -9.99999975E-05  -7.08953157E-05
  -4.99999987E-05  -7.18418669E-05
   0.00000000      -7.27959414E-05
   4.99999987E-05  -7.37575174E-05
   9.99999975E-05  -7.47265149E-05
   1.50000007E-04  -7.57028611E-05
   1.99999995E-04  -7.66864396E-05
   2.50000012E-04  -7.76771631E-05
   3.00000014E-04  -7.86749661E-05
   3.49999988E-04  -7.96797904E-05
   3.99999990E-04  -8.06916069E-05
   4.49999992E-04  -8.17103573E-05
   5.00000024E-04  -8.27359909E-05
   5.49999997E-04  -8.37683911E-05
   6.00000028E-04  -8.48074342E-05
   6.50000002E-04  -8.58529893E-05
   6.99999975E-04  -8.69049109E-05
   7.50000007E-04  -8.79630970E-05
   7.99999980E-04  -8.90274532E-05
   8.50000011E-04  -9.00979139E-05
   8.99999985E-04  -9.11743991E-05
   9.50000016E-04  -9.22568142E-05
   1.00000005E-03  -9.33450137E-05
   1.04999996E-03  -9.44388376E-05
   1.09999999E-03  -9.55381038E-05
   1.15000003E-03  -9.66426451E-05
   1.20000006E-03  -9.77522868E-05
   1.24999997E-03  -9.88669126E-05
   1.30000000E-03  -9.99864205E-05
   1.35000004E-03  -1.01110694E-04
   1.39999995E-03  -1.02239581E-04
   1.44999998E-03  -1.03372935E-04
   1.50000001E-03  -1.04510531E-04
   1.55000004E-03  -1.05652136E-04
   1.59999996E-03  -1.06797539E-04
   1.64999999E-03  -1.07946529E-04
   1.70000002E-03  -1.09098932E-04
   1.75000005E-03  -1.10254587E-04
   1.79999997E-03  -1.11413341E-04
   1.85000000E-03  -1.12575013E-04
   1.90000003E-03  -1.13739399E-04
   1.94999995E-03  -1.14906245E-04
   2.00000009E-03  -1.16075265E-04
   2.05000001E-03  -1.17246193E-04
   2.09999993E-03  -1.18418764E-04
   2.15000007E-03  -1.19592754E-04
   2.19999999E-03  -1.20767952E-04
   2.24999990E-03  -1.21944155E-04
   2.30000005E-03  -1.23121150E-04
   2.34999997E-03  -1.24298647E-04
   2.40000011E-03  -1.25476392E-04
   2.45000003E-03  -1.26654020E-04
   2.49999994E-03  -1.27831197E-04
   2.55000009E-03  -1.29007647E-04
   2.60000001E-03  -1.30183049E-04
   2.64999992E-03  -1.31357141E-04
   2.70000007E-03  -1.32529676E-04
   2.74999999E-03  -1.33700407E-04
   2.79999990E-03  -1.34868998E-04