  -3.99999991E-02   0.00000000    
  -3.99499983E-02   0.00000000    
  -3.99000011E-02   0.00000000    
  -3.98500003E-02   0.00000000    
  -3.97999994E-02  -3.24785312E-18
  -3.97499986E-02  -2.63964699E-17
  -3.97000015E-02  -1.14831727E-16
  -3.96500006E-02  -3.51632758E-16
  -3.95999998E-02  -8.43505849E-16
  -3.95499989E-02  -1.67689664E-15
  -3.95000018E-02  -2.86109518E-15
  -3.94500010E-02  -4.29563145E-15
  -3.94000001E-02  -5.79687834E-15
  -3.93499993E-02  -7.18927684E-15
  -3.92999984E-02  -8.42616517E-15
  -3.92500013E-02  -9.67808072E-15
  -3.92000005E-02  -1.13289742E-14
  -3.91499996E-02  -1.38554871E-14
  -3.90999988E-02  -1.76211415E-14
  -3.90500017E-02  -2.26736591E-14
  -3.90000008E-02  -2.86567272E-14
  -3.89500000E-02  -3.49102393E-14
  -3.88999991E-02  -4.07397775E-14
  -3.88499983E-02  -4.57345275E-14
  -3.88000011E-02  -4.99678627E-14
  -3.87500003E-02  -5.39620093E-14
  -3.86999995E-02  -5.84134317E-14
  -3.86499986E-02  -6.37954316E-14
  -3.86000015E-02  -7.00192806E-14
  -3.85500006E-02  -7.63195388E-14
  -3.84999998E-02  -8.14397581E-14
  -3.84499989E-02  -8.40602951E-14
  -3.84000018E-02  -8.32815330E-14
  -3.83500010E-02  -7.89218883E-14
  -3.83000001E-02  -7.14633092E-14
  -3.82499993E-02  -6.16595262E-14
  -3.81999984E-02  -5.00111732E-14
  -3.81500013E-02  -3.63850084E-14
  -3.81000005E-02  -1.99609802E-14
  -3.80499996E-02   5.01596288E-16
  -3.79999988E-02   2.62531340E-14
  -3.79500017E-02   5.82230255E-14
  -3.79000008E-02   9.69256549E-14
  -3.78500000E-02   1.42626972E-13
  -3.77999991E-02   1.95654812E-13
  -3.77499983E-02   2.56644505E-13
  -3.77000012E-02   3.26522175E-13
  -3.76500003E-02   4.06174795E-13
  -3.75999995E-02   4.95981999E-13
  -3.75499986E-02   5.95539297E-13
  -3.75000015E-02   7.03831795E-13
  -3.74500006E-02   8.19825002E-13
  -3.73999998E-02   9.43111041E-13
  -3.73499990E-02   1.07413113E-12
  -3.73000018E-02   1.21370958E-12
  -3.72500010E-02   1.36205110E-12
  -3.72000001E-02   1.51773093E-12
  -3.71499993E-02   1.67733329E-12
  -3.70999984E-02   1.83617249E-12
  -3.70500013E-02   1.99003813E-12
  -3.70000005E-02   2.13730249E-12
  -3.69499996E-02   2.28028967E-12
  -3.68999988E-02   2.42485784E-12
  -3.68500017E-02   2.57783421E-12
  -3.68000008E-02   2.74307898E-12
  -3.67500000E-02   2.91794583E-12
  -3.66999991E-02   3.09211836E-12
  -3.66499983E-02   3.24992225E-12
  -3.66000012E-02   3.37559993E-12
  -3.65500003E-02   3.45943022E-12
  -3.64999995E-02   3.50183988E-12
  -3.64499986E-02   3.51320622E-12
  -3.64000015E-02   3.50879070E-12
  -3.63500006E-02   3.50053537E-12
  -3.62999998E-02   3.48930867E-12
  -3.62499990E-02   3.46159906E-12
  -3.62000018E-02   3.39307684E-12
  -3.61500010E-02   3.25834520E-12
  -3.61000001E-02   3.04287780E-12
  -3.60499993E-02   2.75142452E-12
  -3.59999985E-02   2.40813597E-12
  -3.59500013E-02   2.04720117E-12
  -3.59000005E-02   1.69733509E-12
  -3.58499996E-02   1.36688176E-12
  -3.57999988E-02   1.03684606E-12
  -3.57500017E-02   6.66268310E-13
  -3.57000008E-02   2.08978193E-13
  -3.56500000E-02  -3.64883715E-13
  -3.55999991E-02  -1.05239623E-12
  -3.55499983E-02  -1.81508573E-12
  -3.55000012E-02  -2.59286191E-12
  -3.54500003E-02  -3.32977396E-12
  -3.53999995E-02  -4.00031614E-12
  -3.53499986E-02  -4.62346741E-12
  -3.53000015E-02  -5.25629236E-12
  -3.52500007E-02  -5.96800907E-12
  -3.51999998E-02  -6.80493335E-12
  -3.51499990E-02  -7.76224311E-12
  -3.51000018E-02  -8.77691409E-12
  -3.50500010E-02  -9.74765494E-12
  -3.50000001E-02  -1.05753800E-11
  -3.49499993E-02  -1.12071350E-11
  -3.48999985E-02  -1.16628521E-11
  -3.48500013E-02  -1.20303654E-11
  -3.48000005E-02  -1.24278374E-11
  -3.47499996E-02  -1.29483724E-11
  -3.46999988E-02  -1.36114149E-11
  -3.46500017E-02  -1.43445880E-11
  -3.46000008E-02  -1.50071726E-11
  -3.45500000E-02  -1.54477629E-11
  -3.44999991E-02  -1.55718320E-11
  -3.44499983E-02  -1.53881820E-11
  -3.44000012E-02  -1.50105067E-11
  -3.43500003E-02  -1.46094265E-11
  -3.42999995E-02  -1.43334311E-11
  -3.42499986E-02  -1.42335813E-11
  -3.42000015E-02  -1.42280207E-11
  -3.41500007E-02  -1.41264847E-11
  -3.40999998E-02  -1.37081665E-11
  -3.40499990E-02  -1.28204990E-11
  -3.40000018E-02  -1.14540634E-11
  -3.39500010E-02  -9.75667030E-12
  -3.39000002E-02  -7.97550481E-12
  -3.38499993E-02  -6.34909052E-12
  -3.37999985E-02  -4.99598323E-12
  -3.37500013E-02  -3.85207101E-12
  -3.37000005E-02  -2.68941011E-12
  -3.36499996E-02  -1.21359487E-12
  -3.35999988E-02   8.00564205E-13
  -3.35500017E-02   3.39621018E-12
  -3.35000008E-02   6.39925656E-12
  -3.34500000E-02   9.48281818E-12
  -3.33999991E-02   1.23078787E-11
  -3.33499983E-02   1.46793706E-11
  -3.33000012E-02   1.66455062E-11
  -3.32500003E-02   1.84898954E-11
  -3.31999995E-02   2.06127320E-11
  -3.31499986E-02   2.33487899E-11
  -3.31000015E-02   2.68027059E-11
  -3.30500007E-02   3.07792854E-11
  -3.29999998E-02   3.48473715E-11
  -3.29499990E-02   3.85161035E-11
  -3.29000019E-02   4.14487021E-11
  -3.28500010E-02   4.36168324E-11
  -3.28000002E-02   4.53205910E-11
  -3.27499993E-02   4.70571811E-11
  -3.26999985E-02   4.92908214E-11
  -3.26500013E-02   5.22252797E-11
  -3.26000005E-02   5.56847866E-11
  -3.25499997E-02   5.91648674E-11
  -3.24999988E-02   6.20389018E-11
  -3.24500017E-02   6.38333275E-11
  -3.24000008E-02   6.44476139E-11
  -3.23500000E-02   6.42135997E-11
  -3.22999991E-02   6.37579711E-11
  -3.22499983E-02   6.37204386E-11
  -3.22000012E-02   6.44505213E-11
  -3.21500003E-02   6.58217855E-11
  -3.20999995E-02   6.72555484E-11
  -3.20499986E-02   6.79537954E-11
  -3.20000015E-02   6.72443351E-11
  -3.19500007E-02   6.48846879E-11
  -3.18999998E-02   6.11829129E-11
  -3.18499990E-02   5.68711120E-11
  -3.18000019E-02   5.27786773E-11
  -3.17500010E-02   4.94469500E-11
  -3.17000002E-02   4.68607514E-11
  -3.16499993E-02   4.44265527E-11
  -3.15999985E-02   4.12190317E-11
  -3.15500014E-02   3.63947553E-11
  -3.15000005E-02   2.95897890E-11
  -3.14499997E-02   2.11167646E-11
  -3.13999988E-02   1.18612698E-11
  -3.13500017E-02   2.91132678E-12
  -3.13000008E-02  -4.92171408E-12
  -3.12500000E-02  -1.14754673E-11
  -3.11999992E-02  -1.73264441E-11
  -3.11500002E-02  -2.35441545E-11
  -3.10999993E-02  -3.12079217E-11
  -3.10500003E-02  -4.08980211E-11
  -3.09999995E-02  -5.23932599E-11
  -3.09500005E-02  -6.47219639E-11
  -3.08999997E-02  -7.65569899E-11
  -3.08500007E-02  -8.67870845E-11
  -3.07999998E-02  -9.50094864E-11
  -3.07500008E-02  -1.01714644E-10
  -3.07000000E-02  -1.08066806E-10
  -3.06499992E-02  -1.15365689E-10
  -3.06000002E-02  -1.24424374E-10
  -3.05499993E-02  -1.35145561E-10
  -3.05000003E-02  -1.46498119E-10
  -3.04499995E-02  -1.56919908E-10
  -3.04000005E-02  -1.64978725E-10
  -3.03499997E-02  -1.69998751E-10
  -3.03000007E-02  -1.72365469E-10
  -3.02499998E-02  -1.73358355E-10
  -3.02000009E-02  -1.74571760E-10
  -3.01500000E-02  -1.77174525E-10
  -3.00999992E-02  -1.81341650E-10
  -3.00500002E-02  -1.86123353E-10
  -2.99999993E-02  -1.89825794E-10
  -2.99500003E-02  -1.90745988E-10
  -2.98999995E-02  -1.87936500E-10
  -2.98500005E-02  -1.81651041E-10
  -2.97999997E-02  -1.73257061E-10
  -2.97500007E-02  -1.64637859E-10
  -2.96999998E-02  -1.57340863E-10
  -2.96500009E-02  -1.51853058E-10
  -2.96000000E-02  -1.47338822E-10
  -2.95499992E-02  -1.41975168E-10
  -2.95000002E-02  -1.33750719E-10
  -2.94499993E-02  -1.21379115E-10
  -2.94000003E-02  -1.04914230E-10
  -2.93499995E-02  -8.57784191E-11
  -2.93000005E-02  -6.61738581E-11
  -2.92499997E-02  -4.81268775E-11
  -2.92000007E-02  -3.25899273E-11
  -2.91499998E-02  -1.90109421E-11
  -2.91000009E-02  -5.57887200E-12
  -2.90500000E-02   9.94808663E-12
  -2.89999992E-02   2.91928391E-11
  -2.89500002E-02   5.23609975E-11
  -2.88999993E-02   7.80645687E-11
  -2.88500004E-02   1.03865916E-10
  -2.87999995E-02   1.27314034E-10
  -2.87500005E-02   1.47014872E-10
  -2.86999997E-02   1.63249844E-10
  -2.86500007E-02   1.77848458E-10
  -2.85999998E-02   1.93354416E-10
  -2.85500009E-02   2.11844556E-10
  -2.85000000E-02   2.33929154E-10
  -2.84499992E-02   2.58391003E-10
  -2.84000002E-02   2.82643436E-10
  -2.83499993E-02   3.03819581E-10
  -2.83000004E-02   3.20012850E-10
  -2.82499995E-02   3.31109584E-10
  -2.82000005E-02   3.38826217E-10
  -2.81499997E-02   3.45915935E-10
  -2.81000007E-02   3.54887619E-10
  -2.80499998E-02   3.66809694E-10
  -2.80000009E-02   3.80745241E-10
  -2.79500000E-02   3.94091398E-10
  -2.78999992E-02   4.03689859E-10
  -2.78500002E-02   4.07221479E-10
  -2.77999993E-02   4.04258155E-10
  -2.77500004E-02   3.96485123E-10
  -2.76999995E-02   3.86973370E-10
  -2.76500005E-02   3.78810400E-10
  -2.75999997E-02   3.73696213E-10
  -2.75500007E-02   3.71141257E-10
  -2.74999999E-02   3.68643838E-10
  -2.74500009E-02   3.62786773E-10
  -2.74000000E-02   3.50775881E-10
  -2.73499992E-02   3.31730754E-10
  -2.73000002E-02   3.07137538E-10
  -2.72499993E-02   2.80241857E-10
  -2.72000004E-02   2.54636867E-10
  -2.71499995E-02   2.32671812E-10
  -2.71000005E-02   2.14401191E-10
  -2.70499997E-02   1.97563382E-10
  -2.70000007E-02   1.78619008E-10
  -2.69499999E-02   1.54399230E-10
  -2.69000009E-02   1.23626095E-10
  -2.68500000E-02   8.76117026E-11
  -2.67999992E-02   4.98014442E-11
  -2.67500002E-02   1.43463592E-11
  -2.66999993E-02  -1.56665479E-11
  -2.66500004E-02  -3.95292583E-11
  -2.65999995E-02  -5.91686908E-11
  -2.65500005E-02  -7.82087659E-11
  -2.64999997E-02  -1.00244514E-10
  -2.64500007E-02  -1.27098818E-10
  -2.63999999E-02  -1.57854965E-10
  -2.63500009E-02  -1.89119359E-10
  -2.63000000E-02  -2.16417329E-10
  -2.62499992E-02  -2.36107467E-10
  -2.62000002E-02  -2.46952625E-10
  -2.61499994E-02  -2.50626908E-10
  -2.61000004E-02  -2.50909321E-10
  -2.60499995E-02  -2.51908827E-10
  -2.60000005E-02  -2.56112437E-10
  -2.59499997E-02  -2.63142758E-10
  -2.59000007E-02  -2.69803790E-10
  -2.58499999E-02  -2.71417500E-10
  -2.58000009E-02  -2.63866817E-10
  -2.57500000E-02  -2.45427817E-10
  -2.56999992E-02  -2.17555876E-10
  -2.56500002E-02  -1.84251600E-10
  -2.55999994E-02  -1.50273266E-10
  -2.55500004E-02  -1.18993121E-10
  -2.54999995E-02  -9.08690831E-11
  -2.54500005E-02  -6.32399480E-11
  -2.53999997E-02  -3.15588528E-11
  -2.53500007E-02   8.47387958E-12
  -2.52999999E-02   5.88365121E-11
  -2.52500009E-02   1.18117488E-10
  -2.52000000E-02   1.81956214E-10
  -2.51499992E-02   2.44816944E-10
  -2.51000002E-02   3.02308123E-10
  -2.50499994E-02   3.52998936E-10
  -2.50000004E-02   3.98897110E-10
  -2.49499995E-02   4.44349529E-10
  -2.49000005E-02   4.93843244E-10
  -2.48499997E-02   5.49694179E-10
  -2.48000007E-02   6.10675066E-10
  -2.47499999E-02   6.72223111E-10
  -2.47000009E-02   7.28153537E-10
  -2.46500000E-02   7.73117348E-10
  -2.45999992E-02   8.04690259E-10
  -2.45500002E-02   8.24132429E-10
  -2.44999994E-02   8.35452874E-10
  -2.44500004E-02   8.43184134E-10
  -2.43999995E-02   8.49867288E-10
  -2.43500005E-02   8.54397053E-10
  -2.42999997E-02   8.52000526E-10
  -2.42500007E-02   8.35884861E-10
  -2.41999999E-02   7.99828537E-10
  -2.41500009E-02   7.40543571E-10
  -2.41000000E-02   6.58726240E-10
  -2.40499992E-02   5.58297297E-10
  -2.40000002E-02   4.44153075E-10
  -2.39499994E-02   3.19438725E-10
  -2.39000004E-02   1.83583940E-10
  -2.38499995E-02   3.20143495E-11
  -2.38000005E-02  -1.42307083E-10
  -2.37499997E-02  -3.46188911E-10
  -2.37000007E-02  -5.83586512E-10
  -2.36499999E-02  -8.54250282E-10
  -2.36000009E-02  -1.15428134E-09
  -2.35500000E-02  -1.47836865E-09
  -2.34999992E-02  -1.82269921E-09
  -2.34500002E-02  -2.18721552E-09
  -2.33999994E-02  -2.57616928E-09
  -2.33500004E-02  -2.99669223E-09
  -2.32999995E-02  -3.45600770E-09
  -2.32500006E-02  -3.95854505E-09
  -2.31999997E-02  -4.50427695E-09
  -2.31500007E-02  -5.08905984E-09
  -2.30999999E-02  -5.70684833E-09
  -2.30500009E-02  -6.35279562E-09
  -2.30000000E-02  -7.02582081E-09
  -2.29499992E-02  -7.72946063E-09
  -2.29000002E-02  -8.47059312E-09
  -2.28499994E-02  -9.25657595E-09
  -2.28000004E-02  -1.00921218E-08
  -2.27499995E-02  -1.09773159E-08
  -2.27000006E-02  -1.19077272E-08
  -2.26499997E-02  -1.28765807E-08
  -2.26000007E-02  -1.38780285E-08
  -2.25499999E-02  -1.49100181E-08
  -2.25000009E-02  -1.59754361E-08
  -2.24500000E-02  -1.70809802E-08
  -2.23999992E-02  -1.82342283E-08
  -2.23500002E-02  -1.94402485E-08
  -2.22999994E-02  -2.06992858E-08
  -2.22500004E-02  -2.20066223E-08
  -2.21999995E-02  -2.33546942E-08
  -2.21500006E-02  -2.47365541E-08
  -2.20999997E-02  -2.61490563E-08
  -2.20500007E-02  -2.75943393E-08
  -2.19999999E-02  -2.90788602E-08
  -2.19500009E-02  -3.06104404E-08
  -2.19000001E-02  -3.21945883E-08
  -2.18499992E-02  -3.38318600E-08
  -2.18000002E-02  -3.55174414E-08
  -2.17499994E-02  -3.72432041E-08
  -2.17000004E-02  -3.90013497E-08
  -2.16499995E-02  -4.07879206E-08
  -2.16000006E-02  -4.26046576E-08
  -2.15499997E-02  -4.44582575E-08
  -2.15000007E-02  -4.63573215E-08
  -2.14499999E-02  -4.83084435E-08
  -2.14000009E-02  -5.03131403E-08
  -2.13500001E-02  -5.23671169E-08
  -2.12999992E-02  -5.44622054E-08
  -2.12500002E-02  -5.65901708E-08
  -2.11999994E-02  -5.87465863E-08
  -2.11500004E-02  -6.09330542E-08
  -2.10999995E-02  -6.31567048E-08
  -2.10500006E-02  -6.54271730E-08
  -2.09999997E-02  -6.77523673E-08
  -2.09500007E-02  -7.01350586E-08
  -2.08999999E-02  -7.25717726E-08
  -2.08500009E-02  -7.50546292E-08
  -2.08000001E-02  -7.75752866E-08
  -2.07499992E-02  -8.01292046E-08
  -2.07000002E-02  -8.27183086E-08
  -2.06499994E-02  -8.53507416E-08
  -2.06000004E-02  -8.80378508E-08
  -2.05499995E-02  -9.07896123E-08
  -2.05000006E-02  -9.36107938E-08
  -2.04499997E-02  -9.64993916E-08
  -2.04000007E-02  -9.94482789E-08
  -2.03499999E-02  -1.02449292E-07
  -2.03000009E-02  -1.05497826E-07
  -2.02500001E-02  -1.08596041E-07
  -2.01999992E-02  -1.11752954E-07
  -2.01500002E-02  -1.14981432E-07
  -2.00999994E-02  -1.18293457E-07
  -2.00500004E-02  -1.21695663E-07
  -1.99999996E-02  -1.25187469E-07
  -1.99500006E-02  -1.28762395E-07
  -1.98999997E-02  -1.32412296E-07
  -1.98500007E-02  -1.36132456E-07
  -1.97999999E-02  -1.39925191E-07
  -1.97500009E-02  -1.43800477E-07
  -1.97000001E-02  -1.47772951E-07
  -1.96499992E-02  -1.51856923E-07
  -1.96000002E-02  -1.56061404E-07
  -1.95499994E-02  -1.60387586E-07
  -1.95000004E-02  -1.64829899E-07
  -1.94499996E-02  -1.69380215E-07
  -1.94000006E-02  -1.74033389E-07
  -1.93499997E-02  -1.78791481E-07
  -1.93000007E-02  -1.83664810E-07
  -1.92499999E-02  -1.88669205E-07
  -1.92000009E-02  -1.93820767E-07
  -1.91500001E-02  -1.99130469E-07
  -1.90999992E-02  -2.04600951E-07
  -1.90500002E-02  -2.10227213E-07
  -1.89999994E-02  -2.16000856E-07
  -1.89500004E-02  -2.21916025E-07
  -1.88999996E-02  -2.27974212E-07
  -1.88500006E-02  -2.34185919E-07
  -1.87999997E-02  -2.40568227E-07
  -1.87500007E-02  -2.47139297E-07
  -1.86999999E-02  -2.53912276E-07
  -1.86500009E-02  -2.60891710E-07
  -1.86000001E-02  -2.68073421E-07
  -1.85499992E-02  -2.75448912E-07
  -1.85000002E-02  -2.83011417E-07
  -1.84499994E-02  -2.90761534E-07
  -1.84000004E-02  -2.98709580E-07
  -1.83499996E-02  -3.06873460E-07
  -1.83000006E-02  -3.15273098E-07
  -1.82499997E-02  -3.23923842E-07
  -1.82000007E-02  -3.32832030E-07
  -1.81499999E-02  -3.41994451E-07
  -1.81000009E-02  -3.51402349E-07
  -1.80500001E-02  -3.61047995E-07
  -1.79999992E-02  -3.70930962E-07
  -1.79500002E-02  -3.81061227E-07
  -1.78999994E-02  -3.91457547E-07
  -1.78500004E-02  -4.02141893E-07
  -1.77999996E-02  -4.13132312E-07
  -1.77500006E-02  -4.24437701E-07
  -1.76999997E-02  -4.36056581E-07
  -1.76500008E-02  -4.47980682E-07
  -1.75999999E-02  -4.60201903E-07
  -1.75500009E-02  -4.72719165E-07
  -1.75000001E-02  -4.85542216E-07
  -1.74499992E-02  -4.98690838E-07
  -1.74000002E-02  -5.12188933E-07
  -1.73499994E-02  -5.26057647E-07
  -1.73000004E-02  -5.40308633E-07
  -1.72499996E-02  -5.54942517E-07
  -1.72000006E-02  -5.69951908E-07
  -1.71499997E-02  -5.85328394E-07
  -1.71000008E-02  -6.01070383E-07
  -1.70499999E-02  -6.17187482E-07
  -1.70000009E-02  -6.33700552E-07
  -1.69500001E-02  -6.50636309E-07
  -1.68999992E-02  -6.68019595E-07
  -1.68500002E-02  -6.85865984E-07
  -1.67999994E-02  -7.04179683E-07
  -1.67500004E-02  -7.22955406E-07
  -1.66999996E-02  -7.42185989E-07
  -1.66500006E-02  -7.61870183E-07
  -1.65999997E-02  -7.82018276E-07
  -1.65500008E-02  -8.02652949E-07
  -1.64999999E-02  -8.23803930E-07
  -1.64500009E-02  -8.45500153E-07
  -1.64000001E-02  -8.67761798E-07
  -1.63499992E-02  -8.90596766E-07
  -1.63000003E-02  -9.14002499E-07
  -1.62499994E-02  -9.37972857E-07
  -1.62000004E-02  -9.62507102E-07
  -1.61499996E-02  -9.87616090E-07
  -1.61000006E-02  -1.01332387E-06
  -1.60499997E-02  -1.03966363E-06
  -1.60000008E-02  -1.06666891E-06
  -1.59499999E-02  -1.09436519E-06
  -1.59000009E-02  -1.12276552E-06
  -1.58500001E-02  -1.15187106E-06
  -1.57999992E-02  -1.18167827E-06
  -1.57500003E-02  -1.21218739E-06
  -1.56999994E-02  -1.24341022E-06
  -1.56500004E-02  -1.27537294E-06
  -1.55999996E-02  -1.30811134E-06
  -1.55499997E-02  -1.34166339E-06
  -1.54999997E-02  -1.37605969E-06
  -1.54499998E-02  -1.41131750E-06
  -1.53999999E-02  -1.44744206E-06
  -1.53500000E-02  -1.48443098E-06
  -1.53000001E-02  -1.52228586E-06
  -1.52500002E-02  -1.56101885E-06
  -1.52000003E-02  -1.60065679E-06
  -1.51500003E-02  -1.64123844E-06
  -1.51000004E-02  -1.68280542E-06
  -1.50499996E-02  -1.72539353E-06
  -1.49999997E-02  -1.76902540E-06
  -1.49499997E-02  -1.81371013E-06
  -1.48999998E-02  -1.85944828E-06
  -1.48499999E-02  -1.90624235E-06
  -1.48000000E-02  -1.95410507E-06
  -1.47500001E-02  -2.00306408E-06
  -1.47000002E-02  -2.05316019E-06
  -1.46500003E-02  -2.10443841E-06
  -1.46000003E-02  -2.15693922E-06
  -1.45500004E-02  -2.21068967E-06
  -1.44999996E-02  -2.26570251E-06
  -1.44499997E-02  -2.32198090E-06
  -1.43999998E-02  -2.37952804E-06
  -1.43499998E-02  -2.43835666E-06
  -1.42999999E-02  -2.49849450E-06
  -1.42500000E-02  -2.55998407E-06
  -1.42000001E-02  -2.62287290E-06
  -1.41500002E-02  -2.68720578E-06
  -1.41000003E-02  -2.75301500E-06
  -1.40500003E-02  -2.82031760E-06
  -1.40000004E-02  -2.88911951E-06
  -1.39499996E-02  -2.95942573E-06
  -1.38999997E-02  -3.03124943E-06
  -1.38499998E-02  -3.10461905E-06
  -1.37999998E-02  -3.17957802E-06
  -1.37499999E-02  -3.25617771E-06
  -1.37000000E-02  -3.33446656E-06
  -1.36500001E-02  -3.41448140E-06
  -1.36000002E-02  -3.49624383E-06
  -1.35500003E-02  -3.57976342E-06
  -1.35000004E-02  -3.66504582E-06
  -1.34500004E-02  -3.75210561E-06
  -1.33999996E-02  -3.84097120E-06
  -1.33499997E-02  -3.93168784E-06
  -1.32999998E-02  -4.02430896E-06
  -1.32499998E-02  -4.11888732E-06
  -1.31999999E-02  -4.21546520E-06
  -1.31500000E-02  -4.31406852E-06
  -1.31000001E-02  -4.41471002E-06
  -1.30500002E-02  -4.51739970E-06
  -1.30000003E-02  -4.62215212E-06
  -1.29500004E-02  -4.72899910E-06
  -1.29000004E-02  -4.83798658E-06
  -1.28499996E-02  -4.94917276E-06
  -1.27999997E-02  -5.06261449E-06
  -1.27499998E-02  -5.17835906E-06
  -1.26999998E-02  -5.29643876E-06
  -1.26499999E-02  -5.41687041E-06
  -1.26000000E-02  -5.53966674E-06
  -1.25500001E-02  -5.66484596E-06
  -1.25000002E-02  -5.79243897E-06
  -1.24500003E-02  -5.92249444E-06
  -1.24000004E-02  -6.05507284E-06
  -1.23500004E-02  -6.19023513E-06
  -1.22999996E-02  -6.32803494E-06
  -1.22499997E-02  -6.46850867E-06
  -1.21999998E-02  -6.61168042E-06
  -1.21499998E-02  -6.75756701E-06
  -1.20999999E-02  -6.90619072E-06
  -1.20500000E-02  -7.05758657E-06
  -1.20000001E-02  -7.21180595E-06
  -1.19500002E-02  -7.36891343E-06
  -1.19000003E-02  -7.52897540E-06
  -1.18500004E-02  -7.69205053E-06
  -1.18000004E-02  -7.85818338E-06
  -1.17499996E-02  -8.02740124E-06
  -1.16999997E-02  -8.19972684E-06
  -1.16499998E-02  -8.37518564E-06
  -1.15999999E-02  -8.55381313E-06
  -1.15499999E-02  -8.73566387E-06
  -1.15000000E-02  -8.92080425E-06
  -1.14500001E-02  -9.10930703E-06
  -1.14000002E-02  -9.30123588E-06
  -1.13500003E-02  -9.49664263E-06
  -1.13000004E-02  -9.69556186E-06
  -1.12500004E-02  -9.89802083E-06
  -1.11999996E-02  -1.01040496E-05
  -1.11499997E-02  -1.03136881E-05
  -1.10999998E-02  -1.05269955E-05
  -1.10499999E-02  -1.07440410E-05
  -1.09999999E-02  -1.09648990E-05
  -1.09500000E-02  -1.11896406E-05
  -1.09000001E-02  -1.14183204E-05
  -1.08500002E-02  -1.16509755E-05
  -1.08000003E-02  -1.18876387E-05
  -1.07500004E-02  -1.21283401E-05
  -1.07000005E-02  -1.23731206E-05
  -1.06499996E-02  -1.26220402E-05
  -1.05999997E-02  -1.28751726E-05
  -1.05499998E-02  -1.31325960E-05
  -1.04999999E-02  -1.33943850E-05
  -1.04499999E-02  -1.36606004E-05
  -1.04000000E-02  -1.39312860E-05
  -1.03500001E-02  -1.42064755E-05
  -1.03000002E-02  -1.44862061E-05
  -1.02500003E-02  -1.47705186E-05
  -1.02000004E-02  -1.50594751E-05
  -1.01500005E-02  -1.53531491E-05
  -1.00999996E-02  -1.56516217E-05
  -1.00499997E-02  -1.59549709E-05
  -9.99999978E-03  -1.62632568E-05
  -9.94999986E-03  -1.65765268E-05
  -9.89999995E-03  -1.68948136E-05
  -9.85000003E-03  -1.72181499E-05
  -9.80000012E-03  -1.75465811E-05
  -9.75000020E-03  -1.78801638E-05
  -9.70000029E-03  -1.82189742E-05
  -9.65000037E-03  -1.85630961E-05
  -9.60000046E-03  -1.89126022E-05
  -9.54999961E-03  -1.92675579E-05
  -9.49999969E-03  -1.96280125E-05
  -9.44999978E-03  -1.99940005E-05
  -9.39999986E-03  -2.03655527E-05
  -9.34999995E-03  -2.07427165E-05
  -9.30000003E-03  -2.11255483E-05
  -9.25000012E-03  -2.15141245E-05
  -9.20000020E-03  -2.19085250E-05
  -9.15000029E-03  -2.23088300E-05
  -9.10000037E-03  -2.27150995E-05
  -9.05000046E-03  -2.31273862E-05
  -8.99999961E-03  -2.35457173E-05
  -8.94999970E-03  -2.39701258E-05
  -8.89999978E-03  -2.44006460E-05
  -8.84999987E-03  -2.48373362E-05
  -8.79999995E-03  -2.52802602E-05
  -8.75000004E-03  -2.57294942E-05
  -8.70000012E-03  -2.61851146E-05
  -8.65000021E-03  -2.66471816E-05
  -8.60000029E-03  -2.71157387E-05
  -8.55000038E-03  -2.75908151E-05
  -8.50000046E-03  -2.80724307E-05
  -8.44999962E-03  -2.85606238E-05
  -8.39999970E-03  -2.90554326E-05
  -8.34999979E-03  -2.95569280E-05
  -8.29999987E-03  -3.00651791E-05
  -8.24999996E-03  -3.05802569E-05
  -8.20000004E-03  -3.11022268E-05
  -8.15000013E-03  -3.16311161E-05
  -8.10000021E-03  -3.21669504E-05
  -8.05000030E-03  -3.27097514E-05
  -8.00000038E-03  -3.32595337E-05
  -7.95000046E-03  -3.38163409E-05
  -7.89999962E-03  -3.43802203E-05
  -7.84999970E-03  -3.49512411E-05
  -7.79999979E-03  -3.55294615E-05
  -7.74999987E-03  -3.61149323E-05
  -7.69999996E-03  -3.67076791E-05
  -7.65000004E-03  -3.73077091E-05
  -7.60000013E-03  -3.79150260E-05
  -7.55000021E-03  -3.85296371E-05
  -7.49999983E-03  -3.91515568E-05
  -7.44999992E-03  -3.97808217E-05
  -7.40000000E-03  -4.04174934E-05
  -7.35000009E-03  -4.10616267E-05
  -7.30000017E-03  -4.17132505E-05
  -7.24999979E-03  -4.23723832E-05
  -7.19999988E-03  -4.30390210E-05
  -7.14999996E-03  -4.37131457E-05
  -7.10000005E-03  -4.43947465E-05
  -7.05000013E-03  -4.50838270E-05
  -7.00000022E-03  -4.57804053E-05
  -6.94999984E-03  -4.64845216E-05
  -6.89999992E-03  -4.71962085E-05
  -6.85000001E-03  -4.79154915E-05
  -6.80000009E-03  -4.86423705E-05
  -6.75000018E-03  -4.93768130E-05
  -6.69999979E-03  -5.01187787E-05
  -6.64999988E-03  -5.08682315E-05
  -6.59999996E-03  -5.16251457E-05
  -6.55000005E-03  -5.23895287E-05
  -6.50000013E-03  -5.31613841E-05
  -6.45000022E-03  -5.39407411E-05
  -6.39999984E-03  -5.47275813E-05
  -6.34999992E-03  -5.55218903E-05
  -6.30000001E-03  -5.63236026E-05
  -6.25000009E-03  -5.71326564E-05
  -6.20000018E-03  -5.79489752E-05
  -6.14999980E-03  -5.87725190E-05
  -6.09999988E-03  -5.96032514E-05
  -6.04999997E-03  -6.04411507E-05
  -6.00000005E-03  -6.12862132E-05
  -5.95000014E-03  -6.21384097E-05
  -5.90000022E-03  -6.29976712E-05
  -5.84999984E-03  -6.38639322E-05
  -5.79999993E-03  -6.47370834E-05
  -5.75000001E-03  -6.56170159E-05
  -5.70000010E-03  -6.65036496E-05
  -5.65000018E-03  -6.73969189E-05
  -5.59999980E-03  -6.82967657E-05
  -5.54999989E-03  -6.92031463E-05
  -5.49999997E-03  -7.01159952E-05
  -5.45000006E-03  -7.10352178E-05
  -5.40000014E-03  -7.19606905E-05
  -5.35000023E-03  -7.28922823E-05
  -5.29999984E-03  -7.38298477E-05
  -5.24999993E-03  -7.47732483E-05
  -5.20000001E-03  -7.57223606E-05
  -5.15000010E-03  -7.66771045E-05
  -5.10000018E-03  -7.76373854E-05
  -5.04999980E-03  -7.86031087E-05
  -4.99999989E-03  -7.95741362E-05
  -4.94999997E-03  -8.05502932E-05
  -4.90000006E-03  -8.15313906E-05
  -4.85000014E-03  -8.25172392E-05
  -4.80000023E-03  -8.35076644E-05
  -4.74999985E-03  -8.45025206E-05
  -4.69999993E-03  -8.55016406E-05
  -4.65000002E-03  -8.65049224E-05
  -4.60000010E-03  -8.75121987E-05
  -4.55000019E-03  -8.85232948E-05
  -4.49999981E-03  -8.95379926E-05
  -4.44999989E-03  -9.05560519E-05
  -4.39999998E-03  -9.15772252E-05
  -4.35000006E-03  -9.26012726E-05
  -4.30000015E-03  -9.36279612E-05
  -4.25000023E-03  -9.46571236E-05
  -4.19999985E-03  -9.56885488E-05
  -4.14999994E-03  -9.67220549E-05
  -4.10000002E-03  -9.77574091E-05
  -4.05000011E-03  -9.87943349E-05
  -4.00000019E-03  -9.98325340E-05
  -3.94999981E-03  -1.00871679E-04
  -3.89999989E-03  -1.01911464E-04
  -3.84999998E-03  -1.02951613E-04
  -3.80000006E-03  -1.03991864E-04
  -3.74999992E-03  -1.05031999E-04
  -3.70000000E-03  -1.06071748E-04
  -3.65000009E-03  -1.07110827E-04
  -3.59999994E-03  -1.08148910E-04
  -3.55000002E-03  -1.09185632E-04
  -3.50000011E-03  -1.10220593E-04
  -3.44999996E-03  -1.11253437E-04
  -3.40000005E-03  -1.12283786E-04
  -3.34999990E-03  -1.13311326E-04
  -3.29999998E-03  -1.14335737E-04
  -3.25000007E-03  -1.15356728E-04
  -3.19999992E-03  -1.16373936E-04
  -3.15000000E-03  -1.17386975E-04
  -3.10000009E-03  -1.18395401E-04
  -3.04999994E-03  -1.19398741E-04
  -3.00000003E-03  -1.20396529E-04
  -2.95000011E-03  -1.21388330E-04
  -2.89999996E-03  -1.22373749E-04
  -2.85000005E-03  -1.23352380E-04
  -2.79999990E-03  -1.24323866E-04
  -2.74999999E-03  -1.25287799E-04
  -2.70000007E-03  -1.26243685E-04
  -2.64999992E-03  -1.27191030E-04
  -2.60000001E-03  -1.28129293E-04
  -2.55000009E-03  -1.29057909E-04
  -2.49999994E-03  -1.29976368E-04
  -2.45000003E-03  -1.30884146E-04
  -2.40000011E-03  -1.31780806E-04
  -2.34999997E-03  -1.32665882E-04
  -2.30000005E-03  -1.33538910E-04
  -2.24999990E-03  -1.34399364E-04
  -2.19999999E-03  -1.35246635E-04
  -2.15000007E-03  -1.36080082E-04
  -2.09999993E-03  -1.36899063E-04
  -2.05000001E-03  -1.37702969E-04
  -2.00000009E-03  -1.38491188E-04
  -1.94999995E-03  -1.39263168E-04
  -1.90000003E-03  -1.40018383E-04
  -1.85000000E-03  -1.40756281E-04
  -1.79999997E-03  -1.41476237E-04
  -1.75000005E-03  -1.42177581E-04
  -1.70000002E-03  -1.42859601E-04
  -1.64999999E-03  -1.43521553E-04
  -1.59999996E-03  -1.44162681E-04
  -1.55000004E-03  -1.44782331E-04
  -1.50000001E-03  -1.45379832E-04
  -1.44999998E-03  -1.45954560E-04
  -1.39999995E-03  -1.46505889E-04
  -1.35000004E-03  -1.47033148E-04
  -1.30000000E-03  -1.47535553E-04
  -1.24999997E-03  -1.48012332E-04
  -1.20000006E-03  -1.48462612E-04
  -1.15000003E-03  -1.48885563E-04
  -1.09999999E-03  -1.49280415E-04
  -1.04999996E-03  -1.49646396E-04
  -1.00000005E-03  -1.49982807E-04
  -9.50000016E-04  -1.50288935E-04
  -8.99999985E-04  -1.50563996E-04
  -8.50000011E-04  -1.50807187E-04
  -7.99999980E-04  -1.51017564E-04
  -7.50000007E-04  -1.51194239E-04
  -6.99999975E-04  -1.51336266E-04
  -6.50000002E-04  -1.51442713E-04
  -6.00000028E-04  -1.51512751E-04
  -5.49999997E-04  -1.51545551E-04
  -5.00000024E-04  -1.51540327E-04
  -4.49999992E-04  -1.51496250E-04
  -3.99999990E-04  -1.51412387E-04
  -3.49999988E-04  -1.51287735E-04
  -3.00000014E-04  -1.51121290E-04
  -2.50000012E-04  -1.50912019E-04
  -1.99999995E-04  -1.50658932E-04
  -1.50000007E-04  -1.50361084E-04
  -9.99999975E-05  -1.50017571E-04
  -4.99999987E-05  -1.49627507E-04
   0.00000000      -1.49190004E-04
   4.99999987E-05  -1.48704028E-04
   9.99999975E-05  -1.48168518E-04
   1.50000007E-04  -1.47582381E-04
   1.99999995E-04  -1.46944483E-04
   2.50000012E-04  -1.46253762E-04
   3.00000014E-04  -1.45509170E-04
   3.49999988E-04  -1.44709717E-04
   3.99999990E-04  -1.43854442E-04
   4.49999992E-04  -1.42942328E-04
   5.00000024E-04  -1.41972298E-04
   5.49999997E-04  -1.40943215E-04
   6.00000028E-04  -1.39853903E-04
   6.50000002E-04  -1.38703195E-04
   6.99999975E-04  -1.37489871E-04
   7.50000007E-04  -1.36212839E-04
   7.99999980E-04  -1.34871036E-04
   8.50000011E-04  -1.33463385E-04
   8.99999985E-04  -1.31988854E-04
   9.50000016E-04  -1.30446308E-04
   1.00000005E-03  -1.28834552E-04
   1.04999996E-03  -1.27152351E-04
   1.09999999E-03  -1.25398437E-04
   1.15000003E-03  -1.23571546E-04
   1.20000006E-03  -1.21670513E-04
   1.24999997E-03  -1.19694188E-04
   1.30000000E-03  -1.17641481E-04
   1.35000004E-03  -1.15511270E-04
   1.39999995E-03  -1.13302376E-04
   1.44999998E-03  -1.11013564E-04
   1.50000001E-03  -1.08643515E-04
   1.55000004E-03  -1.06190921E-04
   1.59999996E-03  -1.03654478E-04
   1.64999999E-03  -1.01032958E-04
   1.70000002E-03  -9.83251593E-05
   1.75000005E-03  -9.55299256E-05
   1.79999997E-03  -9.26461071E-05
   1.85000000E-03  -8.96724887E-05
   1.90000003E-03  -8.66077899E-05
   1.94999995E-03  -8.34506645E-05
   2.00000009E-03  -8.01997667E-05
   2.05000001E-03  -7.68537648E-05
   2.09999993E-03  -7.34113855E-05
   2.15000007E-03  -6.98714139E-05
   2.19999999E-03  -6.62326929E-05
   2.24999990E-03  -6.24940221E-05
   2.30000005E-03  -5.86542010E-05
   2.34999997E-03  -5.47119198E-05
   2.40000011E-03  -5.06658507E-05
   2.45000003E-03  -4.65146150E-05
   2.49999994E-03  -4.22568737E-05
   2.55000009E-03  -3.78913282E-05
   2.60000001E-03  -3.34167416E-05
   2.64999992E-03  -2.88319443E-05
   2.70000007E-03  -2.41357648E-05
   2.74999999E-03  -1.93269989E-05
   2.79999990E-03  -1.44043788E-05