  -3.99999991E-02   0.00000000    
  -3.99499983E-02   0.00000000    
  -3.99000011E-02   0.00000000    
  -3.98500003E-02   0.00000000    
  -3.97999994E-02   0.00000000    
  -3.97499986E-02  -1.16941143E-23
  -3.97000015E-02  -1.03303418E-22
  -3.96500006E-02  -4.73666267E-22
  -3.95999998E-02  -1.47858686E-21
  -3.95499989E-02  -3.45840943E-21
  -3.95000018E-02  -6.23902027E-21
  -3.94500010E-02  -8.37628695E-21
  -3.94000001E-02  -6.54567285E-21
  -3.93499993E-02   4.25819735E-21
  -3.92999984E-02   2.91416441E-20
  -3.92500013E-02   7.04133942E-20
  -3.92000005E-02   1.24450409E-19
  -3.91499996E-02   1.80268569E-19
  -3.90999988E-02   2.21683965E-19
  -3.90500017E-02   2.33529294E-19
  -3.90000008E-02   2.09943648E-19
  -3.89500000E-02   1.60535142E-19
  -3.88999991E-02   1.09834386E-19
  -3.88499983E-02   8.78582973E-20
  -3.88000011E-02   1.14190371E-19
  -3.87500003E-02   1.82572345E-19
  -3.86999995E-02   2.54812703E-19
  -3.86499986E-02   2.70025511E-19
  -3.86000015E-02   1.68216651E-19
  -3.85500006E-02  -8.10952557E-20
  -3.84999998E-02  -4.59869717E-19
  -3.84499989E-02  -9.05335015E-19
  -3.84000018E-02  -1.34050832E-18
  -3.83500010E-02  -1.72146501E-18
  -3.83000001E-02  -2.07951097E-18
  -3.82499993E-02  -2.53386184E-18
  -3.81999984E-02  -3.26084834E-18
  -3.81500013E-02  -4.42602053E-18
  -3.81000005E-02  -6.10653059E-18
  -3.80499996E-02  -8.24148996E-18
  -3.79999988E-02  -1.06402980E-17
  -3.79500017E-02  -1.30544271E-17
  -3.79000008E-02  -1.52868801E-17
  -3.78500000E-02  -1.72905001E-17
  -3.77999991E-02  -1.92044753E-17
  -3.77499983E-02  -2.13019323E-17
  -3.77000012E-02  -2.38622714E-17
  -3.76500003E-02  -2.70215570E-17
  -3.75999995E-02  -3.06720689E-17
  -3.75499986E-02  -3.44657839E-17
  -3.75000015E-02  -3.79307475E-17
  -3.74500006E-02  -4.06541536E-17
  -3.73999998E-02  -4.24493738E-17
  -3.73499990E-02  -4.34257612E-17
  -3.73000018E-02  -4.39212854E-17
  -3.72500010E-02  -4.43211015E-17
  -3.72000001E-02  -4.48397504E-17
  -3.71499993E-02  -4.53646130E-17
  -3.70999984E-02  -4.54325676E-17
  -3.70500013E-02  -4.43515749E-17
  -3.70000005E-02  -4.14131547E-17
  -3.69499996E-02  -3.61027644E-17
  -3.68999988E-02  -2.82224364E-17
  -3.68500017E-02  -1.78882522E-17
  -3.68000008E-02  -5.42616213E-18
  -3.67500000E-02   8.77032141E-18
  -3.66999991E-02   2.43584259E-17
  -3.66499983E-02   4.11133414E-17
  -3.66000012E-02   5.89581849E-17
  -3.65500003E-02   7.79860720E-17
  -3.64999995E-02   9.84825885E-17
  -3.64499986E-02   1.20915515E-16
  -3.64000015E-02   1.45833027E-16
  -3.63500006E-02   1.73634859E-16
  -3.62999998E-02   2.04258237E-16
  -3.62499990E-02   2.36915671E-16
  -3.62000018E-02   2.70071294E-16
  -3.61500010E-02   3.01787675E-16
  -3.61000001E-02   3.30406006E-16
  -3.60499993E-02   3.55304116E-16
  -3.59999985E-02   3.77330176E-16
  -3.59500013E-02   3.98553883E-16
  -3.59000005E-02   4.21250158E-16
  -3.58499996E-02   4.46440573E-16
  -3.57999988E-02   4.72670431E-16
  -3.57500017E-02   4.95768013E-16
  -3.57000008E-02   5.10006055E-16
  -3.56500000E-02   5.10430101E-16
  -3.55999991E-02   4.95419036E-16
  -3.55499983E-02   4.68165963E-16
  -3.55000012E-02   4.36007324E-16
  -3.54500003E-02   4.07404689E-16
  -3.53999995E-02   3.87587930E-16
  -3.53499986E-02   3.74819835E-16
  -3.53000015E-02   3.59381812E-16
  -3.52500007E-02   3.26442342E-16
  -3.51999998E-02   2.62214322E-16
  -3.51499990E-02   1.60984356E-16
  -3.51000018E-02   2.96378416E-17
  -3.50500010E-02  -1.13110742E-16
  -3.50000001E-02  -2.43445501E-16
  -3.49499993E-02  -3.42915889E-16
  -3.48999985E-02  -4.08120723E-16
  -3.48500013E-02  -4.54647052E-16
  -3.48000005E-02  -5.12289338E-16
  -3.47499996E-02  -6.12419803E-16
  -3.46999988E-02  -7.72463925E-16
  -3.46500017E-02  -9.84724294E-16
  -3.46000008E-02  -1.21583310E-15
  -3.45500000E-02  -1.41883249E-15
  -3.44999991E-02  -1.55390979E-15
  -3.44499983E-02  -1.60885925E-15
  -3.44000012E-02  -1.60907514E-15
  -3.43500003E-02  -1.61049678E-15
  -3.42999995E-02  -1.67637572E-15
  -3.42499986E-02  -1.84689414E-15
  -3.42000015E-02  -2.11556241E-15
  -3.41500007E-02  -2.42504114E-15
  -3.40999998E-02  -2.68729271E-15
  -3.40499990E-02  -2.82167109E-15
  -3.40000018E-02  -2.79479432E-15
  -3.39500010E-02  -2.64288827E-15
  -3.39000002E-02  -2.46320972E-15
  -3.38499993E-02  -2.37450864E-15
  -3.37999985E-02  -2.46168675E-15
  -3.37500013E-02  -2.72960602E-15
  -3.37000005E-02  -3.08985147E-15
  -3.36499996E-02  -3.39128000E-15
  -3.35999988E-02  -3.48519456E-15
  -3.35500017E-02  -3.29786815E-15
  -3.35000008E-02  -2.87604256E-15
  -3.34500000E-02  -2.37980704E-15
  -3.33999991E-02  -2.01962915E-15
  -3.33499983E-02  -1.96107355E-15
  -3.33000012E-02  -2.23932705E-15
  -3.32500003E-02  -2.72604679E-15
  -3.31999995E-02  -3.17083311E-15
  -3.31499986E-02  -3.30619025E-15
  -3.31000015E-02  -2.97285568E-15
  -3.30500007E-02  -2.20754404E-15
  -3.29999998E-02  -1.24662561E-15
  -3.29499990E-02  -4.34503100E-16
  -3.29000019E-02  -7.00873905E-17
  -3.28500010E-02  -2.58257884E-16
  -3.28000002E-02  -8.38165042E-16
  -3.27499993E-02  -1.43107953E-15
  -3.26999985E-02  -1.59765555E-15
  -3.26500013E-02  -1.04082794E-15
  -3.26000005E-02   2.38098156E-16
  -3.25499997E-02   1.90985516E-15
  -3.24999988E-02   3.44143430E-15
  -3.24500017E-02   4.33054022E-15
  -3.24000008E-02   4.34942779E-15
  -3.23500000E-02   3.68253800E-15
  -3.22999991E-02   2.88147818E-15
  -3.22499983E-02   2.64055766E-15
  -3.22000012E-02   3.48210205E-15
  -3.21500003E-02   5.49257329E-15
  -3.20999995E-02   8.23999919E-15
  -3.20499986E-02   1.09293457E-14
  -3.20000015E-02   1.27444874E-14
  -3.19500007E-02   1.32316999E-14
  -3.18999998E-02   1.25462122E-14
  -3.18499990E-02   1.14318523E-14
  -3.18000019E-02   1.09187502E-14
  -3.17500010E-02   1.18566876E-14
  -3.17000002E-02   1.44905213E-14
  -3.16499993E-02   1.82828572E-14
  -3.15999985E-02   2.20903719E-14
  -3.15500014E-02   2.46420519E-14
  -3.15000005E-02   2.51200580E-14
  -3.14499997E-02   2.35778617E-14
  -3.13999988E-02   2.09841621E-14
  -3.13500017E-02   1.88397356E-14
  -3.13000008E-02   1.85115408E-14
  -3.12500000E-02   2.05740627E-14
  -3.11999992E-02   2.44686829E-14
  -3.11500002E-02   2.86677047E-14
  -3.10999993E-02   3.13071577E-14
  -3.10500003E-02   3.10286939E-14
  -3.09999995E-02   2.76515159E-14
  -3.09500005E-02   2.23447952E-14
  -3.08999997E-02   1.71799491E-14
  -3.08500007E-02   1.42242175E-14
  -3.07999998E-02   1.45654430E-14
  -3.07500008E-02   1.77206204E-14
  -3.07000000E-02   2.17356040E-14
  -3.06499992E-02   2.39824504E-14
  -3.06000002E-02   2.23339905E-14
  -3.05499993E-02   1.61939638E-14
  -3.05000003E-02   6.88952417E-15
  -3.04499995E-02  -2.80505803E-15
  -3.04000005E-02  -9.85493442E-15
  -3.03499997E-02  -1.23587426E-14
  -3.03000007E-02  -1.05137016E-14
  -3.02499998E-02  -6.66983685E-15
  -3.02000009E-02  -4.38266070E-15
  -3.01500000E-02  -6.83524883E-15
  -3.00999992E-02  -1.53215419E-14
  -3.00500002E-02  -2.85028382E-14
  -2.99999993E-02  -4.28383356E-14
  -2.99500003E-02  -5.40706362E-14
  -2.98999995E-02  -5.91469080E-14
  -2.98500005E-02  -5.77107874E-14
  -2.97999997E-02  -5.24412294E-14
  -2.97500007E-02  -4.80024244E-14
  -2.96999998E-02  -4.89996702E-14
  -2.96500009E-02  -5.78247641E-14
  -2.96000000E-02  -7.33845493E-14
  -2.95499992E-02  -9.13609737E-14
  -2.95000002E-02  -1.05982118E-13
  -2.94499993E-02  -1.12580613E-13
  -2.94000003E-02  -1.09804140E-13
  -2.93499995E-02  -1.00431551E-13
  -2.93000005E-02  -9.03288539E-14
  -2.92499997E-02  -8.59118481E-14
  -2.92000007E-02  -9.11974625E-14
  -2.91499998E-02  -1.05782916E-13
  -2.91000009E-02  -1.24744914E-13
  -2.90500000E-02  -1.40622540E-13
  -2.89999992E-02  -1.46693448E-13
  -2.89500002E-02  -1.40107205E-13
  -2.88999993E-02  -1.23418935E-13
  -2.88500004E-02  -1.03719693E-13
  -2.87999995E-02  -8.96221099E-14
  -2.87500005E-02  -8.73658784E-14
  -2.86999997E-02  -9.77881106E-14
  -2.86500007E-02  -1.15605577E-13
  -2.85999998E-02  -1.31473337E-13
  -2.85500009E-02  -1.36030632E-13
  -2.85000000E-02  -1.24183826E-13
  -2.84499992E-02  -9.76683266E-14
  -2.84000002E-02  -6.46134960E-14
  -2.83499993E-02  -3.61437666E-14
  -2.83000004E-02  -2.14150021E-14
  -2.82499995E-02  -2.32828520E-14
  -2.82000005E-02  -3.66297636E-14
  -2.81499997E-02  -5.02658048E-14
  -2.81000007E-02  -5.17253070E-14
  -2.80499998E-02  -3.29139012E-14
  -2.80000009E-02   5.94034879E-15
  -2.79500000E-02   5.59357079E-14
  -2.78999992E-02   1.03098601E-13
  -2.78500002E-02   1.34496865E-13
  -2.77999993E-02   1.44194959E-13
  -2.77500004E-02   1.36314788E-13
  -2.76999995E-02   1.23649680E-13
  -2.76500005E-02   1.22235853E-13
  -2.75999997E-02   1.44157757E-13
  -2.75500007E-02   1.91787653E-13
  -2.74999999E-02   2.56166534E-13
  -2.74500009E-02   3.20474468E-13
  -2.74000000E-02   3.67259066E-13
  -2.73499992E-02   3.86305652E-13
  -2.73000002E-02   3.79585279E-13
  -2.72499993E-02   3.60875582E-13
  -2.72000004E-02   3.49966014E-13
  -2.71499995E-02   3.63827349E-13
  -2.71000005E-02   4.08627640E-13
  -2.70499997E-02   4.76278793E-13
  -2.70000007E-02   5.47308618E-13
  -2.69499999E-02   5.99053467E-13
  -2.69000009E-02   6.15693152E-13
  -2.68500000E-02   5.95644790E-13
  -2.67999992E-02   5.52823249E-13
  -2.67500002E-02   5.10907451E-13
  -2.66999993E-02   4.92895872E-13
  -2.66500004E-02   5.10487269E-13
  -2.65999995E-02   5.58111771E-13
  -2.65500005E-02   6.14544331E-13
  -2.64999997E-02   6.51716040E-13
  -2.64500007E-02   6.47047140E-13
  -2.63999999E-02   5.93855965E-13
  -2.63500009E-02   5.05024733E-13
  -2.63000000E-02   4.07951423E-13
  -2.62499992E-02   3.32688548E-13
  -2.62000002E-02   2.98350971E-13
  -2.61499994E-02   3.03889401E-13
  -2.61000004E-02   3.27615783E-13
  -2.60499995E-02   3.36088308E-13
  -2.60000005E-02   2.98741094E-13
  -2.59499997E-02   2.01877970E-13
  -2.59000007E-02   5.56574677E-14
  -2.58499999E-02  -1.09404043E-13
  -2.58000009E-02  -2.55281365E-13
  -2.57500000E-02  -3.53223446E-13
  -2.56999992E-02  -3.97034917E-13
  -2.56500002E-02  -4.06687460E-13
  -2.55999994E-02  -4.20211066E-13
  -2.55500004E-02  -4.77036975E-13
  -2.54999995E-02  -5.99972275E-13
  -2.54500005E-02  -7.83911239E-13
  -2.53999997E-02  -9.96679735E-13
  -2.53500007E-02  -1.19214436E-12
  -2.52999999E-02  -1.33017067E-12
  -2.52500009E-02  -1.39468808E-12
  -2.52000000E-02  -1.40161092E-12
  -2.51499992E-02  -1.39261107E-12
  -2.51000002E-02  -1.41697504E-12
  -2.50499994E-02  -1.50925583E-12
  -2.50000004E-02  -1.67265518E-12
  -2.49499995E-02  -1.87588551E-12
  -2.49000005E-02  -2.06548342E-12
  -2.48499997E-02  -2.18864380E-12
  -2.48000007E-02  -2.21668474E-12
  -2.47499999E-02  -2.15856608E-12
  -2.47000009E-02  -2.05795927E-12
  -2.46500000E-02  -1.97452558E-12
  -2.45999992E-02  -1.95723732E-12
  -2.45500002E-02  -2.02147023E-12
  -2.44999994E-02  -2.14037794E-12
  -2.44500004E-02  -2.25501302E-12
  -2.43999995E-02  -2.29937618E-12
  -2.43500005E-02  -2.22968020E-12
  -2.42999997E-02  -2.04478383E-12
  -2.42500007E-02  -1.78822484E-12
  -2.41999999E-02  -1.53021118E-12
  -2.41500009E-02  -1.33691463E-12
  -2.41000000E-02  -1.24042747E-12
  -2.40499992E-02  -1.22296975E-12
  -2.40000002E-02  -1.22302613E-12
  -2.39499994E-02  -1.16149560E-12
  -2.39000004E-02  -9.76830270E-13
  -2.38499995E-02  -6.53656599E-13
  -2.38000005E-02  -2.31721868E-13
  -2.37499997E-02   2.09624215E-13
  -2.37000007E-02   5.85341888E-13
  -2.36499999E-02   8.42410343E-13
  -2.36000009E-02   9.84467933E-13
  -2.35500000E-02   1.07177602E-12
  -2.34999992E-02   1.19559386E-12
  -2.34500002E-02   1.43755710E-12
  -2.33999994E-02   1.83182159E-12
  -2.33500004E-02   2.34714266E-12
  -2.32999995E-02   2.89771982E-12
  -2.32500006E-02   3.37898177E-12
  -2.31999997E-02   3.71310925E-12
  -2.31500007E-02   3.88413217E-12
  -2.30999999E-02   3.94640527E-12
  -2.30500009E-02   4.00167399E-12
  -2.30000000E-02   4.15393631E-12
  -2.29499992E-02   4.46164503E-12
  -2.29000002E-02   4.90871319E-12
  -2.28499994E-02   5.40807676E-12
  -2.28000004E-02   5.83738136E-12
  -2.27499995E-02   6.09186313E-12
  -2.27000006E-02   6.13120926E-12
  -2.26499997E-02   5.99905932E-12
  -2.26000007E-02   5.80539653E-12
  -2.25499999E-02   5.67845944E-12
  -2.25000009E-02   5.70677620E-12
  -2.24500000E-02   5.89711439E-12
  -2.23999992E-02   6.16785832E-12
  -2.23500002E-02   6.38204073E-12
  -2.22999994E-02   6.40653025E-12
  -2.22500004E-02   6.17161443E-12
  -2.21999995E-02   5.70415069E-12
  -2.21500006E-02   5.11845037E-12
  -2.20999997E-02   4.56757158E-12
  -2.20500007E-02   4.17562382E-12
  -2.19999999E-02   3.98095836E-12
  -2.19500009E-02   3.91620677E-12
  -2.19000001E-02   3.83540855E-12
  -2.18499992E-02   3.57757595E-12
  -2.18000002E-02   3.03927716E-12
  -2.17499994E-02   2.22383245E-12
  -2.17000004E-02   1.24419008E-12
  -2.16499995E-02   2.76658199E-13
  -2.16000006E-02  -5.15267841E-13
  -2.15499997E-02  -1.05365022E-12
  -2.15000007E-02  -1.38254794E-12
  -2.14499999E-02  -1.65056900E-12
  -2.14000009E-02  -2.04567092E-12
  -2.13500001E-02  -2.71005592E-12
  -2.12999992E-02  -3.67286366E-12
  -2.12500002E-02  -4.83154662E-12
  -2.11999994E-02  -5.99185155E-12
  -2.11500004E-02  -6.95024463E-12
  -2.10999995E-02  -7.58298719E-12
  -2.10500006E-02  -7.90195947E-12
  -2.09999997E-02  -8.05108410E-12
  -2.09500007E-02  -8.24313881E-12
  -2.08999999E-02  -8.66361583E-12
  -2.08500009E-02  -9.38393460E-12
  -2.08000001E-02  -1.03233897E-11
  -2.07499992E-02  -1.12784686E-11
  -2.07000002E-02  -1.20083605E-11
  -2.06499994E-02  -1.23398765E-11
  -2.06000004E-02  -1.22451259E-11
  -2.05499995E-02  -1.18561914E-11
  -2.05000006E-02  -1.14083803E-11
  -2.04499997E-02  -1.11355100E-11
  -2.04000007E-02  -1.11630150E-11
  -2.03499999E-02  -1.14469233E-11
  -2.03000009E-02  -1.17875180E-11
  -2.02500001E-02  -1.19136862E-11
  -2.01999992E-02  -1.16020075E-11
  -2.01500002E-02  -1.07779827E-11
  -2.00999994E-02  -9.55336938E-12
  -2.00500004E-02  -8.18103137E-12
  -1.99999996E-02  -6.94534664E-12
  -1.99500006E-02  -6.03571880E-12
  -1.98999997E-02  -5.45964099E-12
  -1.98500007E-02  -5.03552755E-12
  -1.97999999E-02  -4.47070679E-12
  -1.97500009E-02  -3.49179583E-12
  -1.97000001E-02  -1.97023170E-12
  -1.96499992E-02   1.36432723E-14
  -1.96000002E-02   2.19839012E-12
  -1.95499994E-02   4.25108603E-12
  -1.95000004E-02   5.91160324E-12
  -1.94499996E-02   7.10757495E-12
  -1.94000006E-02   7.98760624E-12
  -1.93499997E-02   8.85571130E-12
  -1.93000007E-02   1.00339546E-11
  -1.92499999E-02   1.17132528E-11
  -1.92000009E-02   1.38591361E-11
  -1.91500001E-02   1.62162454E-11
  -1.90999992E-02   1.84120323E-11
  -1.90500002E-02   2.01155169E-11
  -1.89999994E-02   2.11811402E-11
  -1.89500004E-02   2.17127011E-11
  -1.88999996E-02   2.20167357E-11
  -1.88500006E-02   2.24636351E-11
  -1.87999997E-02   2.33167513E-11
  -1.87500007E-02   2.46055121E-11
  -1.86999999E-02   2.61006945E-11
  -1.86500009E-02   2.74053488E-11
  -1.86000001E-02   2.81233457E-11
  -1.85499992E-02   2.80316170E-11
  -1.85000002E-02   2.71788841E-11
  -1.84499994E-02   2.58648901E-11
  -1.84000004E-02   2.45067456E-11
  -1.83499996E-02   2.34499555E-11
  -1.83000006E-02   2.28077678E-11
  -1.82499997E-02   2.24016777E-11
  -1.82000007E-02   2.18320917E-11
  -1.81499999E-02   2.06503790E-11
  -1.81000009E-02   1.85572998E-11
  -1.80500001E-02   1.55393632E-11
  -1.79999992E-02   1.18806154E-11
  -1.79500002E-02   8.04187793E-12
  -1.78999994E-02   4.45891934E-12
  -1.78500004E-02   1.34833692E-12
  -1.77999996E-02  -1.39140175E-12
  -1.77500006E-02  -4.13747465E-12
  -1.76999997E-02  -7.37477700E-12
  -1.76500008E-02  -1.14753129E-11
  -1.75999999E-02  -1.65228057E-11
  -1.75500009E-02  -2.22620238E-11
  -1.75000001E-02  -2.81982007E-11
  -1.74499992E-02  -3.38047611E-11
  -1.74000002E-02  -3.87484489E-11
  -1.73499994E-02  -4.30311585E-11
  -1.73000004E-02  -4.69832541E-11
  -1.72499996E-02  -5.11084369E-11
  -1.72000006E-02  -5.58468376E-11
  -1.71499997E-02  -6.13610759E-11
  -1.71000008E-02  -6.74415801E-11
  -1.70499999E-02  -7.35759578E-11
  -1.70000009E-02  -7.91544053E-11
  -1.69500001E-02  -8.37217101E-11
  -1.68999992E-02  -8.71636235E-11
  -1.68500002E-02  -8.97431365E-11
  -1.67999994E-02  -9.19674822E-11
  -1.67500004E-02  -9.43424644E-11
  -1.66999996E-02  -9.71223171E-11
  -1.66500006E-02  -1.00167125E-10
  -1.65999997E-02  -1.02973553E-10
  -1.65500008E-02  -1.04868440E-10
  -1.64999999E-02  -1.05281221E-10
  -1.64500009E-02  -1.03974725E-10
  -1.64000001E-02  -1.01130104E-10
  -1.63499992E-02  -9.72457184E-11
  -1.63000003E-02  -9.28915070E-11
  -1.62499994E-02  -8.84274390E-11
  -1.62000004E-02  -8.38105974E-11
  -1.61499996E-02  -7.85795734E-11
  -1.61000006E-02  -7.20259963E-11
  -1.60499997E-02  -6.34793607E-11
  -1.60000008E-02  -5.25796906E-11
  -1.59499999E-02  -3.94158525E-11
  -1.59000009E-02  -2.44653863E-11
  -1.58500001E-02  -8.35988830E-12
  -1.57999992E-02   8.42196278E-12
  -1.57500003E-02   2.57970607E-11
  -1.56999994E-02   4.41470020E-11
  -1.56500004E-02   6.41790579E-11
  -1.55999996E-02   8.66393138E-11
  -1.55499997E-02   1.12002727E-10
  -1.54999997E-02   1.40279580E-10
  -1.54499998E-02   1.71025569E-10
  -1.53999999E-02   2.03555270E-10
  -1.53500000E-02   2.37265180E-10
  -1.53000001E-02   2.71924094E-10
  -1.52500002E-02   3.07800646E-10
  -1.52000003E-02   3.45566881E-10
  -1.51500003E-02   3.86020382E-10
  -1.51000004E-02   4.29744573E-10
  -1.50499996E-02   4.76858886E-10
  -1.49999997E-02   5.26972244E-10
  -1.49499997E-02   5.79363557E-10
  -1.48999998E-02   6.33310737E-10
  -1.48499999E-02   6.88424207E-10
  -1.48000000E-02   7.44834527E-10
  -1.47500001E-02   8.03149991E-10
  -1.47000002E-02   8.64197547E-10
  -1.46500003E-02   9.28663590E-10
  -1.46000003E-02   9.96789984E-10
  -1.45500004E-02   1.06826614E-09
  -1.44999996E-02   1.14236476E-09
  -1.44499997E-02   1.21826582E-09
  -1.43999998E-02   1.29542588E-09
  -1.43499998E-02   1.37382705E-09
  -1.42999999E-02   1.45399448E-09
  -1.42500000E-02   1.53677038E-09
  -1.42000001E-02   1.62294400E-09
  -1.41500002E-02   1.71290016E-09
  -1.41000003E-02   1.80644411E-09
  -1.40500003E-02   1.90288518E-09
  -1.40000004E-02   2.00134109E-09
  -1.39499996E-02   2.10113438E-09
  -1.38999997E-02   2.20209917E-09
  -1.38499998E-02   2.30466668E-09
  -1.37999998E-02   2.40968245E-09
  -1.37499999E-02   2.51803778E-09
  -1.37000000E-02   2.63028022E-09
  -1.36500001E-02   2.74636891E-09
  -1.36000002E-02   2.86569635E-09
  -1.35500003E-02   2.98736369E-09
  -1.35000004E-02   3.11058956E-09
  -1.34500004E-02   3.23507354E-09
  -1.33999996E-02   3.36114825E-09
  -1.33499997E-02   3.48965457E-09
  -1.32999998E-02   3.62158614E-09
  -1.32499998E-02   3.75766795E-09
  -1.31999999E-02   3.89804944E-09
  -1.31500000E-02   4.04225675E-09
  -1.31000001E-02   4.18942259E-09
  -1.30500002E-02   4.33870051E-09
  -1.30000003E-02   4.48967219E-09
  -1.29500004E-02   4.64257122E-09
  -1.29000004E-02   4.79822182E-09
  -1.28499996E-02   4.95771202E-09
  -1.27999997E-02   5.12194953E-09
  -1.27499998E-02   5.29129851E-09
  -1.26999998E-02   5.46545742E-09
  -1.26499999E-02   5.64363711E-09
  -1.26000000E-02   5.82495785E-09
  -1.25500001E-02   6.00890138E-09
  -1.25000002E-02   6.19560003E-09
  -1.24500003E-02   6.38584341E-09
  -1.24000004E-02   6.58079546E-09
  -1.23500004E-02   6.78154377E-09
  -1.22999996E-02   6.98868163E-09
  -1.22499997E-02   7.20211002E-09
  -1.21999998E-02   7.42115436E-09
  -1.21499998E-02   7.64493979E-09
  -1.20999999E-02   7.87285881E-09
  -1.20500000E-02   8.10493361E-09
  -1.20000001E-02   8.34189606E-09
  -1.19500002E-02   8.58495319E-09
  -1.19000003E-02   8.83534668E-09
  -1.18500004E-02   9.09388920E-09
  -1.18000004E-02   9.36069888E-09
  -1.17499996E-02   9.63524371E-09
  -1.16999997E-02   9.91667370E-09
  -1.16499998E-02   1.02043112E-08
  -1.15999999E-02   1.04980655E-08
  -1.15499999E-02   1.07985816E-08
  -1.15000000E-02   1.11070806E-08
  -1.14500001E-02   1.14249312E-08
  -1.14000002E-02   1.17531540E-08
  -1.13500003E-02   1.20920900E-08
  -1.13000004E-02   1.24413626E-08
  -1.12500004E-02   1.28001734E-08
  -1.11999996E-02   1.31677815E-08
  -1.11499997E-02   1.35439695E-08
  -1.10999998E-02   1.39292702E-08
  -1.10499999E-02   1.43248737E-08
  -1.09999999E-02   1.47322332E-08
  -1.09500000E-02   1.51525565E-08
  -1.09000001E-02   1.55864015E-08
  -1.08500002E-02   1.60335745E-08
  -1.08000003E-02   1.64933560E-08
  -1.07500004E-02   1.69649752E-08
  -1.07000005E-02   1.74480963E-08
  -1.06499996E-02   1.79431350E-08
  -1.05999997E-02   1.84512299E-08
  -1.05499998E-02   1.89738891E-08
  -1.04999999E-02   1.95124876E-08
  -1.04499999E-02   2.00677999E-08
  -1.04000000E-02   2.06398294E-08
  -1.03500001E-02   2.12279652E-08
  -1.03000002E-02   2.18314238E-08
  -1.02500003E-02   2.24497736E-08
  -1.02000004E-02   2.30833077E-08
  -1.01500005E-02   2.37330866E-08
  -1.00999996E-02   2.44006575E-08
  -1.00499997E-02   2.50875409E-08
  -9.99999978E-03   2.57947370E-08
  -9.94999986E-03   2.65224678E-08
  -9.89999995E-03   2.72702749E-08
  -9.85000003E-03   2.80374124E-08
  -9.80000012E-03   2.88233952E-08
  -9.75000020E-03   2.96284117E-08
  -9.70000029E-03   3.04534638E-08
  -9.65000037E-03   3.13001287E-08
  -9.60000046E-03   3.21700817E-08
  -9.54999961E-03   3.30645626E-08
  -9.49999969E-03   3.39840618E-08
  -9.44999978E-03   3.49283233E-08
  -9.39999986E-03   3.58967078E-08
  -9.34999995E-03   3.68887250E-08
  -9.30000003E-03   3.79044955E-08
  -9.25000012E-03   3.89449717E-08
  -9.20000020E-03   4.00117592E-08
  -9.15000029E-03   4.11066772E-08
  -9.10000037E-03   4.22312070E-08
  -9.05000046E-03   4.33861196E-08
  -8.99999961E-03   4.45714115E-08
  -8.94999970E-03   4.57865958E-08
  -8.89999978E-03   4.70312251E-08
  -8.84999987E-03   4.83053952E-08
  -8.79999995E-03   4.96100299E-08
  -8.75000004E-03   5.09467739E-08
  -8.70000012E-03   5.23176062E-08
  -8.65000021E-03   5.37242855E-08
  -8.60000029E-03   5.51679058E-08
  -8.55000038E-03   5.66487692E-08
  -8.50000046E-03   5.81666058E-08
  -8.44999962E-03   5.97210814E-08
  -8.39999970E-03   6.13123277E-08
  -8.34999979E-03   6.29412682E-08
  -8.29999987E-03   6.46096225E-08
  -8.24999996E-03   6.63195436E-08
  -8.20000004E-03   6.80730494E-08
  -8.15000013E-03   6.98715965E-08
  -8.10000021E-03   7.17158031E-08
  -8.05000030E-03   7.36056762E-08
  -8.00000038E-03   7.55410312E-08
  -7.95000046E-03   7.75220599E-08
  -7.89999962E-03   7.95497215E-08
  -7.84999970E-03   8.16257852E-08
  -7.79999979E-03   8.37525320E-08
  -7.74999987E-03   8.59322782E-08
  -7.69999996E-03   8.81668072E-08
  -7.65000004E-03   9.04571067E-08
  -7.60000013E-03   9.28034964E-08
  -7.55000021E-03   9.52059978E-08
  -7.49999983E-03   9.76649090E-08
  -7.44999992E-03   1.00181225E-07
  -7.40000000E-03   1.02756808E-07
  -7.35000009E-03   1.05394086E-07
  -7.30000017E-03   1.08095648E-07
  -7.24999979E-03   1.10863610E-07
  -7.19999988E-03   1.13699343E-07
  -7.14999996E-03   1.16603516E-07
  -7.10000005E-03   1.19576370E-07
  -7.05000013E-03   1.22618374E-07
  -7.00000022E-03   1.25730594E-07
  -6.94999984E-03   1.28914934E-07
  -6.89999992E-03   1.32174009E-07
  -6.85000001E-03   1.35510589E-07
  -6.80000009E-03   1.38927177E-07
  -6.75000018E-03   1.42425549E-07
  -6.69999979E-03   1.46006670E-07
  -6.64999988E-03   1.49671081E-07
  -6.59999996E-03   1.53419393E-07
  -6.55000005E-03   1.57252771E-07
  -6.50000013E-03   1.61173219E-07
  -6.45000022E-03   1.65183437E-07
  -6.39999984E-03   1.69286423E-07
  -6.34999992E-03   1.73485049E-07
  -6.30000001E-03   1.77781402E-07
  -6.25000009E-03   1.82176919E-07
  -6.20000018E-03   1.86672381E-07
  -6.14999980E-03   1.91268654E-07
  -6.09999988E-03   1.95966976E-07
  -6.04999997E-03   2.00769449E-07
  -6.00000005E-03   2.05678930E-07
  -5.95000014E-03   2.10698673E-07
  -5.90000022E-03   2.15831847E-07
  -5.84999984E-03   2.21080981E-07
  -5.79999993E-03   2.26447852E-07
  -5.75000001E-03   2.31933626E-07
  -5.70000010E-03   2.37539410E-07
  -5.65000018E-03   2.43266612E-07
  -5.59999980E-03   2.49117477E-07
  -5.54999989E-03   2.55094960E-07
  -5.49999997E-03   2.61202587E-07
  -5.45000006E-03   2.67443795E-07
  -5.40000014E-03   2.73821541E-07
  -5.35000023E-03   2.80338071E-07
  -5.29999984E-03   2.86994947E-07
  -5.24999993E-03   2.93793505E-07
  -5.20000001E-03   3.00735451E-07
  -5.15000010E-03   3.07823029E-07
  -5.10000018E-03   3.15059481E-07
  -5.04999980E-03   3.22448471E-07
  -4.99999989E-03   3.29993981E-07
  -4.94999997E-03   3.37699277E-07
  -4.90000006E-03   3.45567173E-07
  -4.85000014E-03   3.53599575E-07
  -4.80000023E-03   3.61798214E-07
  -4.74999985E-03   3.70165054E-07
  -4.69999993E-03   3.78702595E-07
  -4.65000002E-03   3.87414303E-07
  -4.60000010E-03   3.96304159E-07
  -4.55000019E-03   4.05376284E-07
  -4.49999981E-03   4.14634599E-07
  -4.44999989E-03   4.24082316E-07
  -4.39999998E-03   4.33721937E-07
  -4.35000006E-03   4.43555678E-07
  -4.30000015E-03   4.53585670E-07
  -4.25000023E-03   4.63814757E-07
  -4.19999985E-03   4.74246491E-07
  -4.14999994E-03   4.84885106E-07
  -4.10000002E-03   4.95735094E-07
  -4.05000011E-03   5.06800973E-07
  -4.00000019E-03   5.18086438E-07
  -3.94999981E-03   5.29594558E-07
  -3.89999989E-03   5.41327950E-07
  -3.84999998E-03   5.53289169E-07
  -3.80000006E-03   5.65481344E-07
  -3.74999992E-03   5.77908281E-07
  -3.70000000E-03   5.90574416E-07
  -3.65000009E-03   6.03484750E-07
  -3.59999994E-03   6.16644002E-07
  -3.55000002E-03   6.30056718E-07
  -3.50000011E-03   6.43726480E-07
  -3.44999996E-03   6.57656472E-07
  -3.40000005E-03   6.71849591E-07
  -3.34999990E-03   6.86309249E-07
  -3.29999998E-03   7.01039482E-07
  -3.25000007E-03   7.16045008E-07
  -3.19999992E-03   7.31331170E-07
  -3.15000000E-03   7.46903140E-07
  -3.10000009E-03   7.62765865E-07
  -3.04999994E-03   7.78923607E-07
  -3.00000003E-03   7.95379947E-07
  -2.95000011E-03   8.12138296E-07
  -2.89999996E-03   8.29202463E-07
  -2.85000005E-03   8.46576484E-07
  -2.79999990E-03   8.64265530E-07
  -2.74999999E-03   8.82275060E-07
  -2.70000007E-03   9.00610814E-07
  -2.64999992E-03   9.19278079E-07
  -2.60000001E-03   9.38281744E-07
  -2.55000009E-03   9.57625844E-07
  -2.49999994E-03   9.77314357E-07
  -2.45000003E-03   9.97351322E-07
  -2.40000011E-03   1.01774117E-06
  -2.34999997E-03   1.03848890E-06
  -2.30000005E-03   1.05960044E-06
  -2.24999990E-03   1.08108156E-06
  -2.19999999E-03   1.10293831E-06
  -2.15000007E-03   1.12517603E-06
  -2.09999993E-03   1.14779914E-06
  -2.05000001E-03   1.17081231E-06
  -2.00000009E-03   1.19421975E-06
  -1.94999995E-03   1.21802589E-06
  -1.90000003E-03   1.24223584E-06
  -1.85000000E-03   1.26685575E-06
  -1.79999997E-03   1.29189129E-06
  -1.75000005E-03   1.31734885E-06
  -1.70000002E-03   1.34323432E-06
  -1.64999999E-03   1.36955271E-06
  -1.59999996E-03   1.39630879E-06
  -1.55000004E-03   1.42350711E-06
  -1.50000001E-03   1.45115280E-06
  -1.44999998E-03   1.47925050E-06
  -1.39999995E-03   1.50780625E-06
  -1.35000004E-03   1.53682595E-06
  -1.30000000E-03   1.56631609E-06
  -1.24999997E-03   1.59628269E-06
  -1.20000006E-03   1.62673143E-06
  -1.15000003E-03   1.65766744E-06
  -1.09999999E-03   1.68909582E-06
  -1.04999996E-03   1.72102125E-06
  -1.00000005E-03   1.75344871E-06
  -9.50000016E-04   1.78638368E-06
  -8.99999985E-04   1.81983228E-06
  -8.50000011E-04   1.85380077E-06
  -7.99999980E-04   1.88829563E-06
  -7.50000007E-04   1.92332232E-06
  -6.99999975E-04   1.95888651E-06
  -6.50000002E-04   1.99499345E-06
  -6.00000028E-04   2.03164768E-06
  -5.49999997E-04   2.06885420E-06
  -5.00000024E-04   2.10661824E-06
  -4.49999992E-04   2.14494526E-06
  -3.99999990E-04   2.18384162E-06
  -3.49999988E-04   2.22331346E-06
  -3.00000014E-04   2.26336670E-06
  -2.50000012E-04   2.30400701E-06
  -1.99999995E-04   2.34523986E-06
  -1.50000007E-04   2.38706980E-06
  -9.99999975E-05   2.42950182E-06
  -4.99999987E-05   2.47254002E-06
   0.00000000       2.51618985E-06
   4.99999987E-05   2.56045678E-06
   9.99999975E-05   2.60534671E-06
   1.50000007E-04   2.65086601E-06
   1.99999995E-04   2.69702036E-06
   2.50000012E-04   2.74381478E-06
   3.00000014E-04   2.79125447E-06
   3.49999988E-04   2.83934310E-06
   3.99999990E-04   2.88808496E-06
   4.49999992E-04   2.93748326E-06
   5.00000024E-04   2.98754367E-06
   5.49999997E-04   3.03827142E-06
   6.00000028E-04   3.08967151E-06
   6.50000002E-04   3.14175077E-06
   6.99999975E-04   3.19451374E-06
   7.50000007E-04   3.24796520E-06
   7.99999980E-04   3.30210878E-06
   8.50000011E-04   3.35694676E-06
   8.99999985E-04   3.41248301E-06
   9.50000016E-04   3.46872048E-06
   1.00000005E-03   3.52566417E-06
   1.04999996E-03   3.58331863E-06
   1.09999999E-03   3.64168932E-06
   1.15000003E-03   3.70078124E-06
   1.20000006E-03   3.76059847E-06
   1.24999997E-03   3.82114422E-06
   1.30000000E-03   3.88241961E-06
   1.35000004E-03   3.94442804E-06
   1.39999995E-03   4.00717045E-06
   1.44999998E-03   4.07065090E-06
   1.50000001E-03   4.13487260E-06
   1.55000004E-03   4.19983917E-06
   1.59999996E-03   4.26555562E-06
   1.64999999E-03   4.33202513E-06
   1.70000002E-03   4.39924997E-06
   1.75000005E-03   4.46723152E-06
   1.79999997E-03   4.53596977E-06
   1.85000000E-03   4.60546516E-06
   1.90000003E-03   4.67571817E-06
   1.94999995E-03   4.74673152E-06
   2.00000009E-03   4.81850839E-06
   2.05000001E-03   4.89105241E-06
   2.09999993E-03   4.96436633E-06
   2.15000007E-03   5.03845058E-06
   2.19999999E-03   5.11330563E-06
   2.24999990E-03   5.18892966E-06
   2.30000005E-03   5.26532131E-06
   2.34999997E-03   5.34247920E-06
   2.40000011E-03   5.42040334E-06
   2.45000003E-03   5.49909510E-06
   2.49999994E-03   5.57855674E-06
   2.55000009E-03   5.65878918E-06
   2.60000001E-03   5.73979241E-06
   2.64999992E-03   5.82156645E-06
   2.70000007E-03   5.90410673E-06
   2.74999999E-03   5.98740962E-06
   2.79999990E-03   6.07147058E-06