  -3.99999991E-02   0.00000000    
  -3.99499983E-02   0.00000000    
  -3.99000011E-02   0.00000000    
  -3.98500003E-02   0.00000000    
  -3.97999994E-02  -2.60946847E-21
  -3.97499986E-02  -6.16835614E-19
  -3.97000015E-02  -6.73131210E-18
  -3.96500006E-02  -3.84633161E-17
  -3.95999998E-02  -1.51157966E-16
  -3.95499989E-02  -4.56298237E-16
  -3.95000018E-02  -1.12111735E-15
  -3.94500010E-02  -2.31906631E-15
  -3.94000001E-02  -4.12135612E-15
  -3.93499993E-02  -6.36479784E-15
  -3.92999984E-02  -8.58204041E-15
  -3.92500013E-02  -1.00955265E-14
  -3.92000005E-02  -1.03188527E-14
  -3.91499996E-02  -9.18047258E-15
  -3.90999988E-02  -7.44454886E-15
  -3.90500017E-02  -6.65232318E-15
  -3.90000008E-02  -8.52629294E-15
  -3.89500000E-02  -1.39627266E-14
  -3.88999991E-02  -2.20603683E-14
  -3.88499983E-02  -2.97936080E-14
  -3.88000011E-02  -3.27725280E-14
  -3.87500003E-02  -2.70316318E-14
  -3.86999995E-02  -1.11521510E-14
  -3.86499986E-02   1.24119143E-14
  -3.86000015E-02   3.78457675E-14
  -3.85500006E-02   5.86430047E-14
  -3.84999998E-02   7.16107946E-14
  -3.84499989E-02   8.03576362E-14
  -3.84000018E-02   9.61189543E-14
  -3.83500010E-02   1.34624693E-13
  -3.83000001E-02   2.09550557E-13
  -3.82499993E-02   3.25136700E-13
  -3.81999984E-02   4.71684866E-13
  -3.81500013E-02   6.27005067E-13
  -3.81000005E-02   7.64442437E-13
  -3.80499996E-02   8.64840643E-13
  -3.79999988E-02   9.27264559E-13
  -3.79500017E-02   9.72949694E-13
  -3.79000008E-02   1.03931306E-12
  -3.78500000E-02   1.16521116E-12
  -3.77999991E-02   1.37313815E-12
  -3.77499983E-02   1.65647606E-12
  -3.77000012E-02   1.97865812E-12
  -3.76500003E-02   2.28619445E-12
  -3.75999995E-02   2.53090843E-12
  -3.75499986E-02   2.69160258E-12
  -3.75000015E-02   2.78455275E-12
  -3.74500006E-02   2.85661664E-12
  -3.73999998E-02   2.96259024E-12
  -3.73499990E-02   3.13608514E-12
  -3.73000018E-02   3.36696122E-12
  -3.72500010E-02   3.59623659E-12
  -3.72000001E-02   3.73214090E-12
  -3.71499993E-02   3.68171899E-12
  -3.70999984E-02   3.38525865E-12
  -3.70500013E-02   2.83918267E-12
  -3.70000005E-02   2.09783254E-12
  -3.69499996E-02   1.25357201E-12
  -3.68999988E-02   4.03575800E-13
  -3.68500017E-02  -3.83750486E-13
  -3.68000008E-02  -1.09122238E-12
  -3.67500000E-02  -1.75860270E-12
  -3.66999991E-02  -2.47259873E-12
  -3.66499983E-02  -3.34604263E-12
  -3.66000012E-02  -4.49163580E-12
  -3.65500003E-02  -5.99446664E-12
  -3.64999995E-02  -7.88727157E-12
  -3.64499986E-02  -1.01342199E-11
  -3.64000015E-02  -1.26312910E-11
  -3.63500006E-02  -1.52306830E-11
  -3.62999998E-02  -1.77899813E-11
  -3.62499990E-02  -2.02339950E-11
  -3.62000018E-02  -2.26033758E-11
  -3.61500010E-02  -2.50581153E-11
  -3.61000001E-02  -2.78144435E-11
  -3.60499993E-02  -3.10223652E-11
  -3.59999985E-02  -3.46284494E-11
  -3.59500013E-02  -3.82953252E-11
  -3.59000005E-02  -4.14448406E-11
  -3.58499996E-02  -4.34471244E-11
  -3.57999988E-02  -4.39050012E-11
  -3.57500017E-02  -4.29144949E-11
  -3.57000008E-02  -4.11570708E-11
  -3.56500000E-02  -3.97242864E-11
  -3.55999991E-02  -3.96867920E-11
  -3.55499983E-02  -4.15555923E-11
  -3.55000012E-02  -4.48789200E-11
  -3.54500003E-02  -4.82115493E-11
  -3.53999995E-02  -4.95623403E-11
  -3.53499986E-02  -4.72073838E-11
  -3.53000015E-02  -4.05443248E-11
  -3.52500007E-02  -3.05700014E-11
  -3.51999998E-02  -1.96642841E-11
  -3.51499990E-02  -1.06469989E-11
  -3.51000018E-02  -5.43541124E-12
  -3.50500010E-02  -3.89691881E-12
  -3.50000001E-02  -3.51014985E-12
  -3.49499993E-02  -1.60457165E-13
  -3.48999985E-02   1.01113614E-11
  -3.48500013E-02   2.91007340E-11
  -3.48000005E-02   5.51233850E-11
  -3.47499996E-02   8.31719207E-11
  -3.46999988E-02   1.06730728E-10
  -3.46500017E-02   1.20641080E-10
  -3.46000008E-02   1.23781360E-10
  -3.45500000E-02   1.20209495E-10
  -3.44999991E-02   1.17952467E-10
  -3.44499983E-02   1.25659635E-10
  -3.44000012E-02   1.48427853E-10
  -3.43500003E-02   1.84721849E-10
  -3.42999995E-02   2.26073035E-10
  -3.42499986E-02   2.60128113E-10
  -3.42000015E-02   2.76054235E-10
  -3.41500007E-02   2.69995332E-10
  -3.40999998E-02   2.47903614E-10
  -3.40499990E-02   2.23965943E-10
  -3.40000018E-02   2.14750495E-10
  -3.39500010E-02   2.31322586E-10
  -3.39000002E-02   2.72899342E-10
  -3.38499993E-02   3.25368288E-10
  -3.37999985E-02   3.66082054E-10
  -3.37500013E-02   3.73471865E-10
  -3.37000005E-02   3.37471856E-10
  -3.36499996E-02   2.65808597E-10
  -3.35999988E-02   1.82559162E-10
  -3.35500017E-02   1.18662372E-10
  -3.35000008E-02   9.79308232E-11
  -3.34500000E-02   1.24748795E-10
  -3.33999991E-02   1.79607856E-10
  -3.33499983E-02   2.25608893E-10
  -3.33000012E-02   2.24139027E-10
  -3.32500003E-02   1.53274685E-10
  -3.31999995E-02   2.03625432E-11
  -3.31499986E-02  -1.37983125E-10
  -3.31000015E-02  -2.69955946E-10
  -3.30500007E-02  -3.31582761E-10
  -3.29999998E-02  -3.08664622E-10
  -3.29499990E-02  -2.26962671E-10
  -3.29000019E-02  -1.44393358E-10
  -3.28500010E-02  -1.26944136E-10
  -3.28000002E-02  -2.18030066E-10
  -3.27499993E-02  -4.15238732E-10
  -3.26999985E-02  -6.66394551E-10
  -3.26500013E-02  -8.88903506E-10
  -3.26000005E-02  -1.00560693E-09
  -3.25499997E-02  -9.81746462E-10
  -3.24999988E-02  -8.45496007E-10
  -3.24500017E-02  -6.80554835E-10
  -3.24000008E-02  -5.91476590E-10
  -3.23500000E-02  -6.55520138E-10
  -3.22999991E-02  -8.82651230E-10
  -3.22499983E-02  -1.20361454E-09
  -3.22000012E-02  -1.49458557E-09
  -3.21500003E-02  -1.63029934E-09
  -3.20999995E-02  -1.54316271E-09
  -3.20499986E-02  -1.26080357E-09
  -3.20000015E-02  -9.02096509E-10
  -3.19500007E-02  -6.29548969E-10
  -3.18999998E-02  -5.76485359E-10
  -3.18499990E-02  -7.81186171E-10
  -3.18000019E-02  -1.15984877E-09
  -3.17500010E-02  -1.53476531E-09
  -3.17000002E-02  -1.70943315E-09
  -3.16499993E-02  -1.55931124E-09
  -3.15999985E-02  -1.09671427E-09
  -3.15500014E-02  -4.76876538E-10
  -3.15000005E-02   6.28430710E-11
  -3.14499997E-02   3.07723957E-10
  -3.13999988E-02   1.68739273E-10
  -3.13500017E-02  -2.64899380E-10
  -3.13000008E-02  -7.52811147E-10
  -3.12500000E-02  -1.00409137E-09
  -3.11999992E-02  -8.10250811E-10
  -3.11500002E-02  -1.50485305E-10
  -3.10999993E-02   7.82610754E-10
  -3.10500003E-02   1.65551628E-09
  -3.09999995E-02   2.13833884E-09
  -3.09500005E-02   2.05929784E-09
  -3.08999997E-02   1.49732360E-09
  -3.08500007E-02   7.64386276E-10
  -3.07999998E-02   2.77208756E-10
  -3.07500008E-02   3.69974745E-10
  -3.07000000E-02   1.13135967E-09
  -3.06499992E-02   2.34417374E-09
  -3.06000002E-02   3.56367869E-09
  -3.05499993E-02   4.30828084E-09
  -3.05000003E-02   4.28160440E-09
  -3.04499995E-02   3.52420981E-09
  -3.04000005E-02   2.41870635E-09
  -3.03499997E-02   1.53511193E-09
  -3.03000007E-02   1.37720924E-09
  -3.02499998E-02   2.14139106E-09
  -3.02000009E-02   3.60165719E-09
  -3.01500000E-02   5.18352428E-09
  -3.00999992E-02   6.20572571E-09
  -3.00500002E-02   6.18869977E-09
  -2.99999993E-02   5.09063103E-09
  -2.99500003E-02   3.35604255E-09
  -2.98999995E-02   1.74150139E-09
  -2.98500005E-02   9.84566872E-10
  -2.97999997E-02   1.45961787E-09
  -2.97500007E-02   2.97987746E-09
  -2.96999998E-02   4.84738649E-09
  -2.96500009E-02   6.14389917E-09
  -2.96000000E-02   6.14307760E-09
  -2.95499992E-02   4.66019445E-09
  -2.95000002E-02   2.17282059E-09
  -2.94499993E-02  -3.58121449E-10
  -2.94000003E-02  -1.90279681E-09
  -2.93499995E-02  -1.83481474E-09
  -2.93000005E-02  -2.45990950E-10
  -2.92499997E-02   2.05215933E-09
  -2.92000007E-02   3.86007626E-09
  -2.91499998E-02   4.12151957E-09
  -2.91000009E-02   2.42060594E-09
  -2.90500000E-02  -7.87598542E-10
  -2.89999992E-02  -4.33538982E-09
  -2.89500002E-02  -6.83923718E-09
  -2.88999993E-02  -7.32505079E-09
  -2.88500004E-02  -5.70025316E-09
  -2.87999995E-02  -2.84569079E-09
  -2.87500005E-02  -2.63232991E-10
  -2.86999997E-02   5.83329884E-10
  -2.86500007E-02  -1.05299747E-09
  -2.85999998E-02  -4.81630247E-09
  -2.85500009E-02  -9.34870226E-09
  -2.85000000E-02  -1.28586910E-08
  -2.84499992E-02  -1.39205030E-08
  -2.84000002E-02  -1.21486954E-08
  -2.83499993E-02  -8.43042613E-09
  -2.83000004E-02  -4.58473348E-09
  -2.82499995E-02  -2.57504174E-09
  -2.82000005E-02  -3.61354791E-09
  -2.81499997E-02  -7.56363150E-09
  -2.81000007E-02  -1.29304869E-08
  -2.80499998E-02  -1.74746457E-08
  -2.80000009E-02  -1.91985503E-08
  -2.79500000E-02  -1.72721446E-08
  -2.78999992E-02  -1.24696715E-08
  -2.78500002E-02  -6.89277879E-09
  -2.77999993E-02  -3.07155612E-09
  -2.77500004E-02  -2.82500090E-09
  -2.76999995E-02  -6.39151621E-09
  -2.76500005E-02  -1.22410633E-08
  -2.75999997E-02  -1.76880430E-08
  -2.75500007E-02  -2.00628048E-08
  -2.74999999E-02  -1.79322921E-08
  -2.74500009E-02  -1.18136914E-08
  -2.74000000E-02  -4.03079969E-09
  -2.73499992E-02   2.26132291E-09
  -2.73000002E-02   4.47630244E-09
  -2.72499993E-02   1.80110493E-09
  -2.72000004E-02  -4.35363656E-09
  -2.71499995E-02  -1.08973426E-08
  -2.71000005E-02  -1.43938896E-08
  -2.70499997E-02  -1.26132695E-08
  -2.70000007E-02  -5.60244873E-09
  -2.69499999E-02   4.23405933E-09
  -2.69000009E-02   1.31240778E-08
  -2.68500000E-02   1.75837638E-08
  -2.67999992E-02   1.60142193E-08
  -2.67500002E-02   9.50897761E-09
  -2.66999993E-02   1.47085910E-09
  -2.66500004E-02  -3.83837628E-09
  -2.65999995E-02  -3.20109650E-09
  -2.65500005E-02   4.04672873E-09
  -2.64999997E-02   1.56023603E-08
  -2.64500007E-02   2.71129643E-08
  -2.63999999E-02   3.40609354E-08
  -2.63500009E-02   3.38016726E-08
  -2.63000000E-02   2.68351492E-08
  -2.62499992E-02   1.67031260E-08
  -2.62000002E-02   8.50304716E-09
  -2.61499994E-02   6.63696031E-09
  -2.61000004E-02   1.27853639E-08
  -2.60499995E-02   2.50331649E-08
  -2.60000005E-02   3.85892847E-08
  -2.59499997E-02   4.78366502E-08
  -2.59000007E-02   4.88364371E-08
  -2.58499999E-02   4.11706473E-08
  -2.58000009E-02   2.82637380E-08
  -2.57500000E-02   1.59791202E-08
  -2.56999992E-02   1.00592175E-08
  -2.56500002E-02   1.35222287E-08
  -2.55999994E-02   2.51905234E-08
  -2.55500004E-02   4.00583104E-08
  -2.54999995E-02   5.14016136E-08
  -2.54500005E-02   5.37430331E-08
  -2.53999997E-02   4.53647857E-08
  -2.53500007E-02   2.92193416E-08
  -2.52999999E-02   1.17679582E-08
  -2.52500009E-02   1.95162941E-10
  -2.52000000E-02  -8.03683509E-10
  -2.51499992E-02   8.77116246E-09
  -2.51000002E-02   2.40544349E-08
  -2.50499994E-02   3.73334785E-08
  -2.50000004E-02   4.14222825E-08
  -2.49499995E-02   3.29206280E-08
  -2.49000005E-02   1.38864138E-08
  -2.48499997E-02  -8.88867557E-09
  -2.48000007E-02  -2.67591975E-08
  -2.47499999E-02  -3.30420882E-08
  -2.47000009E-02  -2.60850079E-08
  -2.46500000E-02  -1.01804360E-08
  -2.45999992E-02   6.16100060E-09
  -2.45500002E-02   1.38939802E-08
  -2.44999994E-02   7.49089768E-09
  -2.44500004E-02  -1.24451720E-08
  -2.43999995E-02  -3.92308230E-08
  -2.43500005E-02  -6.28851353E-08
  -2.42999997E-02  -7.44889874E-08
  -2.42500007E-02  -7.02168634E-08
  -2.41999999E-02  -5.32195941E-08
  -2.41500009E-02  -3.24392460E-08
  -2.41000000E-02  -1.87835880E-08
  -2.40499992E-02  -2.02875121E-08
  -2.40000002E-02  -3.83982481E-08
  -2.39499994E-02  -6.70893527E-08
  -2.39000004E-02  -9.52965067E-08
  -2.38499995E-02  -1.11694604E-07
  -2.38000005E-02  -1.09752584E-07
  -2.37499997E-02  -9.08089461E-08
  -2.37000007E-02  -6.37231139E-08
  -2.36499999E-02  -4.11450465E-08
  -2.36000009E-02  -3.39627917E-08
  -2.35500000E-02  -4.63563339E-08
  -2.34999992E-02  -7.36943448E-08
  -2.34500002E-02  -1.04310153E-07
  -2.33999994E-02  -1.24488963E-07
  -2.33500004E-02  -1.24537195E-07
  -2.32999995E-02  -1.03250336E-07
  -2.32500006E-02  -6.87250505E-08
  -2.31999997E-02  -3.50321443E-08
  -2.31500007E-02  -1.61057834E-08
  -2.30999999E-02  -1.94955252E-08
  -2.30500009E-02  -4.27752802E-08
  -2.30000000E-02  -7.43044097E-08
  -2.29499992E-02  -9.81415766E-08
  -2.29000002E-02  -1.01045615E-07
  -2.28499994E-02  -7.84957948E-08
  -2.28000004E-02  -3.70042130E-08
  -2.27499995E-02   8.43469650E-09
  -2.27000006E-02   4.07723206E-08
  -2.26499997E-02   4.84580482E-08
  -2.26000007E-02   3.07697583E-08
  -2.25499999E-02  -1.53459190E-09
  -2.25000009E-02  -3.06853387E-08
  -2.24500000E-02  -3.96519795E-08
  -2.23999992E-02  -1.98104750E-08
  -2.23500002E-02   2.49088004E-08
  -2.22999994E-02   7.93614063E-08
  -2.22500004E-02   1.23591249E-07
  -2.21999995E-02   1.41588686E-07
  -2.21500006E-02   1.28557602E-07
  -2.20999997E-02   9.33911650E-08
  -2.20500007E-02   5.50973382E-08
  -2.19999999E-02   3.45854581E-08
  -2.19500009E-02   4.53457787E-08
  -2.19000001E-02   8.71602452E-08
  -2.18499992E-02   1.45754171E-07
  -2.18000002E-02   1.98728145E-07
  -2.17499994E-02   2.25308085E-07
  -2.17000004E-02   2.15665622E-07
  -2.16499995E-02   1.75622347E-07
  -2.16000006E-02   1.24491223E-07
  -2.15499997E-02   8.68126335E-08
  -2.15000007E-02   8.15006800E-08
  -2.14499999E-02   1.13182104E-07
  -2.14000009E-02   1.69672958E-07
  -2.13500001E-02   2.26908540E-07
  -2.12999992E-02   2.59342755E-07
  -2.12500002E-02   2.51323513E-07
  -2.11999994E-02   2.04378537E-07
  -2.11500004E-02   1.37026518E-07
  -2.10999995E-02   7.69771944E-08
  -2.10500006E-02   4.89887846E-08
  -2.09999997E-02   6.36935553E-08
  -2.09500007E-02   1.12425433E-07
  -2.08999999E-02   1.70541981E-07
  -2.08500009E-02   2.07999648E-07
  -2.08000001E-02   2.02655045E-07
  -2.07499992E-02   1.50412404E-07
  -2.07000002E-02   6.75810767E-08
  -2.06499994E-02  -1.58369122E-08
  -2.06000004E-02  -6.91793005E-08
  -2.05499995E-02  -7.48168745E-08
  -2.05000006E-02  -3.63909045E-08
  -2.04499997E-02   2.22509584E-08
  -2.04000007E-02   6.72043114E-08
  -2.03499999E-02   6.94499036E-08
  -2.03000009E-02   1.80266291E-08
  -2.02500001E-02  -7.45161159E-08
  -2.01999992E-02  -1.77042622E-07
  -2.01500002E-02  -2.53210402E-07
  -2.00999994E-02  -2.77542256E-07
  -2.00500004E-02  -2.47063269E-07
  -1.99999996E-02  -1.83170286E-07
  -1.99500006E-02  -1.22635441E-07
  -1.98999997E-02  -1.01484986E-07
  -1.98500007E-02  -1.38788067E-07
  -1.97999999E-02  -2.27616667E-07
  -1.97500009E-02  -3.37415230E-07
  -1.97000001E-02  -4.27015976E-07
  -1.96499992E-02  -4.62743856E-07
  -1.96000002E-02  -4.33630134E-07
  -1.95499994E-02  -3.56843486E-07
  -1.95000004E-02  -2.70655136E-07
  -1.94499996E-02  -2.17773461E-07
  -1.94000006E-02  -2.26272832E-07
  -1.93499997E-02  -2.96600660E-07
  -1.93000007E-02  -4.00636395E-07
  -1.92499999E-02  -4.93523260E-07
  -1.92000009E-02  -5.33287221E-07
  -1.91500001E-02  -4.99645239E-07
  -1.90999992E-02  -4.03557550E-07
  -1.90500002E-02  -2.83021535E-07
  -1.89999994E-02  -1.86664209E-07
  -1.89500004E-02  -1.52190992E-07
  -1.88999996E-02  -1.89224480E-07
  -1.88500006E-02  -2.74325402E-07
  -1.87999997E-02  -3.60710573E-07
  -1.87500007E-02  -3.98657079E-07
  -1.86999999E-02  -3.57700230E-07
  -1.86500009E-02  -2.40723267E-07
  -1.86000001E-02  -8.34426714E-08
  -1.85499992E-02   6.08108479E-08
  -1.85000002E-02   1.44531171E-07
  -1.84499994E-02   1.47384370E-07
  -1.84000004E-02   8.58573799E-08
  -1.83499996E-02   6.63047528E-09
  -1.83000006E-02  -3.37144996E-08
  -1.82499997E-02   6.13604056E-09
  -1.82000007E-02   1.33342652E-07
  -1.81499999E-02   3.16901094E-07
  -1.81000009E-02   5.00613169E-07
  -1.80500001E-02   6.27592101E-07
  -1.79999992E-02   6.65574532E-07
  -1.79500002E-02   6.21726429E-07
  -1.78999994E-02   5.40101269E-07
  -1.78500004E-02   4.82535086E-07
  -1.77999996E-02   5.01193199E-07
  -1.77500006E-02   6.14886460E-07
  -1.76999997E-02   7.99830843E-07
  -1.76500008E-02   9.99272288E-07
  -1.75999999E-02   1.14804141E-06
  -1.75500009E-02   1.20134587E-06
  -1.75000001E-02   1.15500268E-06
  -1.74499992E-02   1.04789888E-06
  -1.74000002E-02   9.45240231E-07
  -1.73499994E-02   9.09718949E-07
  -1.73000004E-02   9.73268811E-07
  -1.72499996E-02   1.12204953E-06
  -1.72000006E-02   1.30161652E-06
  -1.71499997E-02   1.44033140E-06
  -1.71000008E-02   1.48087781E-06
  -1.70499999E-02   1.40593818E-06
  -1.70000009E-02   1.24644555E-06
  -1.69500001E-02   1.06841651E-06
  -1.68999992E-02   9.43876671E-07
  -1.68500002E-02   9.18597891E-07
  -1.67999994E-02   9.91015099E-07
  -1.67500004E-02   1.11193128E-06
  -1.66999996E-02   1.20550555E-06
  -1.66500006E-02   1.20250468E-06
  -1.65999997E-02   1.07116341E-06
  -1.65500008E-02   8.31833063E-07
  -1.64999999E-02   5.48607773E-07
  -1.64500009E-02   3.01295216E-07
  -1.64000001E-02   1.49934820E-07
  -1.63499992E-02   1.07588548E-07
  -1.63000003E-02   1.33685489E-07
  -1.62499994E-02   1.51212134E-07
  -1.62000004E-02   8.04463696E-08
  -1.61499996E-02  -1.25576108E-07
  -1.61000006E-02  -4.59668883E-07
  -1.60499997E-02  -8.62936076E-07
  -1.60000008E-02  -1.25031625E-06
  -1.59499999E-02  -1.54816860E-06
  -1.59000009E-02  -1.72729926E-06
  -1.58500001E-02  -1.81662631E-06
  -1.57999992E-02  -1.89110335E-06
  -1.57500003E-02  -2.03891932E-06
  -1.56999994E-02  -2.32231559E-06
  -1.56500004E-02  -2.74941067E-06
  -1.55999996E-02  -3.26975669E-06
  -1.55499997E-02  -3.79593484E-06
  -1.54999997E-02  -4.24191558E-06
  -1.54499998E-02  -4.56130465E-06
  -1.53999999E-02  -4.76840887E-06
  -1.53500000E-02  -4.93251491E-06
  -1.53000001E-02  -5.14757221E-06
  -1.52500002E-02  -5.49048809E-06
  -1.52000003E-02  -5.98647966E-06
  -1.51500003E-02  -6.59702891E-06
  -1.51000004E-02  -7.23609037E-06
  -1.50499996E-02  -7.80768642E-06
  -1.49999997E-02  -8.24839663E-06
  -1.49499997E-02  -8.55585131E-06
  -1.48999998E-02  -8.79036634E-06
  -1.48499999E-02  -9.04866192E-06
  -1.48000000E-02  -9.42105453E-06
  -1.47500001E-02  -9.95097980E-06
  -1.47000002E-02  -1.06149309E-05
  -1.46500003E-02  -1.13319711E-05
  -1.46000003E-02  -1.19989581E-05
  -1.45500004E-02  -1.25360320E-05
  -1.44999996E-02  -1.29222562E-05
  -1.44499997E-02  -1.32054265E-05
  -1.43999998E-02  -1.34813663E-05
  -1.43499998E-02  -1.38516325E-05
  -1.42999999E-02  -1.43782217E-05
  -1.42500000E-02  -1.50554351E-05
  -1.42000001E-02  -1.58115927E-05
  -1.41500002E-02  -1.65401816E-05
  -1.41000003E-02  -1.71468291E-05
  -1.40500003E-02  -1.75913683E-05
  -1.40000004E-02  -1.79062226E-05
  -1.39499996E-02  -1.81826726E-05
  -1.38999997E-02  -1.85308090E-05
  -1.38499998E-02  -1.90307255E-05
  -1.37999998E-02  -1.96966357E-05
  -1.37499999E-02  -2.04699772E-05
  -1.37000000E-02  -2.12448358E-05
  -1.36500001E-02  -2.19147387E-05
  -1.36000002E-02  -2.24200994E-05
  -1.35500003E-02  -2.27752444E-05
  -1.35000004E-02  -2.30628029E-05
  -1.34500004E-02  -2.33976953E-05
  -1.33999996E-02  -2.38764533E-05
  -1.33499997E-02  -2.45342890E-05
  -1.32999998E-02  -2.53291528E-05
  -1.32499998E-02  -2.61600544E-05
  -1.31999999E-02  -2.69117772E-05
  -1.31500000E-02  -2.75063521E-05
  -1.31000001E-02  -2.79383494E-05
  -1.30500002E-02  -2.82782185E-05
  -1.30000003E-02  -2.86419126E-05
  -1.29500004E-02  -2.91400047E-05
  -1.29000004E-02  -2.98288978E-05
  -1.28499996E-02  -3.06857219E-05
  -1.27999997E-02  -3.16183068E-05
  -1.27499998E-02  -3.25061555E-05
  -1.26999998E-02  -3.32542731E-05
  -1.26499999E-02  -3.38360296E-05
  -1.26000000E-02  -3.43059110E-05
  -1.25500001E-02  -3.47763380E-05
  -1.25000002E-02  -3.53684663E-05
  -1.24500003E-02  -3.61589409E-05
  -1.24000004E-02  -3.71460701E-05
  -1.23500004E-02  -3.82505859E-05
  -1.22999996E-02  -3.93509727E-05
  -1.22499997E-02  -4.03378290E-05
  -1.21999998E-02  -4.11632500E-05
  -1.21499998E-02  -4.18628915E-05
  -1.20999999E-02  -4.25412109E-05
  -1.20500000E-02  -4.33260138E-05
  -1.20000001E-02  -4.43123099E-05
  -1.19500002E-02  -4.55204899E-05
  -1.19000003E-02  -4.68874750E-05
  -1.18500004E-02  -4.82951400E-05
  -1.18000004E-02  -4.96230678E-05
  -1.17499996E-02  -5.08028388E-05
  -1.16999997E-02  -5.18494489E-05
  -1.16499998E-02  -5.28555065E-05
  -1.15999999E-02  -5.39510220E-05
  -1.15499999E-02  -5.52464007E-05
  -1.15000000E-02  -5.67839052E-05
  -1.14500001E-02  -5.85190646E-05
  -1.14000002E-02  -6.03406079E-05
  -1.13500003E-02  -6.21203726E-05
  -1.13000004E-02  -6.37707853E-05
  -1.12500004E-02  -6.52842864E-05
  -1.11999996E-02  -6.67375643E-05
  -1.11499997E-02  -6.82585523E-05
  -1.10999998E-02  -6.99701122E-05
  -1.10499999E-02  -7.19358723E-05
  -1.09999999E-02  -7.41326076E-05
  -1.09500000E-02  -7.64611759E-05
  -1.09000001E-02  -7.87909594E-05
  -1.08500002E-02  -8.10185666E-05
  -1.08000003E-02  -8.31146244E-05
  -1.07500004E-02  -8.51376099E-05
  -1.07000005E-02  -8.72085438E-05
  -1.06499996E-02  -8.94578188E-05
  -1.05999997E-02  -9.19678132E-05
  -1.05499998E-02  -9.47366134E-05
  -1.04999999E-02  -9.76793308E-05
  -1.04499999E-02  -1.00666184E-04
  -1.04000000E-02  -1.03580685E-04
  -1.03500001E-02  -1.06372092E-04
  -1.03000002E-02  -1.09078610E-04
  -1.02500003E-02  -1.11810936E-04
  -1.02000004E-02  -1.14703827E-04
  -1.01500005E-02  -1.17856842E-04
  -1.00999996E-02  -1.21290614E-04
  -1.00499997E-02  -1.24938393E-04
  -9.99999978E-03  -1.28676562E-04
  -9.94999986E-03  -1.32380344E-04
  -9.89999995E-03  -1.35980474E-04
  -9.85000003E-03  -1.39494281E-04
  -9.80000012E-03  -1.43019104E-04
  -9.75000020E-03  -1.46689912E-04
  -9.70000029E-03  -1.50619569E-04
  -9.65000037E-03  -1.54850190E-04
  -9.60000046E-03  -1.59334944E-04
  -9.54999961E-03  -1.63959878E-04
  -9.49999969E-03  -1.68596045E-04
  -9.44999978E-03  -1.73157154E-04
  -9.39999986E-03  -1.77638969E-04
  -9.34999995E-03  -1.82122298E-04
  -9.30000003E-03  -1.86737423E-04
  -9.25000012E-03  -1.91606625E-04
  -9.20000020E-03  -1.96791007E-04
  -9.15000029E-03  -2.02264142E-04
  -9.10000037E-03  -2.07925128E-04
  -9.05000046E-03  -2.13645020E-04
  -8.99999961E-03  -2.19325637E-04
  -8.94999970E-03  -2.24944015E-04
  -8.89999978E-03  -2.30563557E-04
  -8.84999987E-03  -2.36307169E-04
  -8.79999995E-03  -2.42303751E-04
  -8.75000004E-03  -2.48631928E-04
  -8.70000012E-03  -2.55286839E-04
  -8.65000021E-03  -2.62184127E-04
  -8.60000029E-03  -2.69199023E-04
  -8.55000038E-03  -2.76224426E-04
  -8.50000046E-03  -2.83219240E-04
  -8.44999962E-03  -2.90228694E-04
  -8.39999970E-03  -2.97365303E-04
  -8.34999979E-03  -3.04759044E-04
  -8.29999987E-03  -3.12501739E-04
  -8.24999996E-03  -3.20607942E-04
  -8.20000004E-03  -3.29010421E-04
  -8.15000013E-03  -3.37592035E-04
  -8.10000021E-03  -3.46239947E-04
  -8.05000030E-03  -3.54897609E-04
  -8.00000038E-03  -3.63590603E-04
  -7.95000046E-03  -3.72416253E-04
  -7.89999962E-03  -3.81503138E-04
  -7.84999970E-03  -3.90953966E-04
  -7.79999979E-03  -4.00800986E-04
  -7.74999987E-03  -4.10995213E-04
  -7.69999996E-03  -4.21430916E-04
  -7.65000004E-03  -4.31994849E-04
  -7.60000013E-03  -4.42618737E-04
  -7.55000021E-03  -4.53311775E-04
  -7.49999983E-03  -4.64158307E-04
  -7.44999992E-03  -4.75281035E-04
  -7.40000000E-03  -4.86788864E-04
  -7.35000009E-03  -4.98730165E-04
  -7.30000017E-03  -5.11073740E-04
  -7.24999979E-03  -5.23725932E-04
  -7.19999988E-03  -5.36574866E-04
  -7.14999996E-03  -5.49544406E-04
  -7.10000005E-03  -5.62628265E-04
  -7.05000013E-03  -5.75895363E-04
  -7.00000022E-03  -5.89459436E-04
  -6.94999984E-03  -6.03429857E-04
  -6.89999992E-03  -6.17866463E-04
  -6.85000001E-03  -6.32753887E-04
  -6.80000009E-03  -6.48012850E-04
  -6.75000018E-03  -6.63538172E-04
  -6.69999979E-03  -6.79246499E-04
  -6.64999988E-03  -6.95117866E-04
  -6.59999996E-03  -7.11206289E-04
  -6.55000005E-03  -7.27614854E-04
  -6.50000013E-03  -7.44452584E-04
  -6.45000022E-03  -7.61788862E-04
  -6.39999984E-03  -7.79625960E-04
  -6.34999992E-03  -7.97900953E-04
  -6.30000001E-03  -8.16517801E-04
  -6.25000009E-03  -8.35392915E-04
  -6.20000018E-03  -8.54493759E-04
  -6.14999980E-03  -8.73856421E-04
  -6.09999988E-03  -8.93573975E-04
  -6.04999997E-03  -9.13754513E-04
  -6.00000005E-03  -9.34472540E-04
  -5.95000014E-03  -9.55741969E-04
  -5.90000022E-03  -9.77514545E-04
  -5.84999984E-03  -9.99705167E-04
  -5.79999993E-03  -1.02222920E-03
  -5.75000001E-03  -1.04504474E-03
  -5.70000010E-03  -1.06817530E-03
  -5.65000018E-03  -1.09169993E-03
  -5.59999980E-03  -1.11571990E-03
  -5.54999989E-03  -1.14031299E-03
  -5.49999997E-03  -1.16550492E-03
  -5.45000006E-03  -1.19126344E-03
  -5.40000014E-03  -1.21751393E-03
  -5.35000023E-03  -1.24417630E-03
  -5.29999984E-03  -1.27120665E-03
  -5.24999993E-03  -1.29862025E-03
  -5.20000001E-03  -1.32648228E-03
  -5.15000010E-03  -1.35488412E-03
  -5.10000018E-03  -1.38390856E-03
  -5.04999980E-03  -1.41359237E-03
  -4.99999989E-03  -1.44391367E-03
  -4.94999997E-03  -1.47480820E-03
  -4.90000006E-03  -1.50620425E-03
  -4.85000014E-03  -1.53805385E-03
  -4.80000023E-03  -1.57036039E-03
  -4.74999985E-03  -1.60318078E-03
  -4.69999993E-03  -1.63659768E-03
  -4.65000002E-03  -1.67068653E-03
  -4.60000010E-03  -1.70548900E-03
  -4.55000019E-03  -1.74099975E-03
  -4.49999981E-03  -1.77716697E-03
  -4.44999989E-03  -1.81392580E-03
  -4.39999998E-03  -1.85123330E-03
  -4.35000006E-03  -1.88908062E-03
  -4.30000015E-03  -1.92750967E-03
  -4.25000023E-03  -1.96659775E-03
  -4.19999985E-03  -2.00641761E-03
  -4.14999994E-03  -2.04701605E-03
  -4.10000002E-03  -2.08840007E-03
  -4.05000011E-03  -2.13053706E-03
  -4.00000019E-03  -2.17336998E-03
  -3.94999981E-03  -2.21684738E-03
  -3.89999989E-03  -2.26095575E-03
  -3.84999998E-03  -2.30572978E-03
  -3.80000006E-03  -2.35123443E-03
  -3.74999992E-03  -2.39754003E-03
  -3.70000000E-03  -2.44469801E-03
  -3.65000009E-03  -2.49272422E-03
  -3.59999994E-03  -2.54158978E-03
  -3.55000002E-03  -2.59124930E-03
  -3.50000011E-03  -2.64166342E-03
  -3.44999996E-03  -2.69281142E-03
  -3.40000005E-03  -2.74471240E-03
  -3.34999990E-03  -2.79741804E-03
  -3.29999998E-03  -2.85099726E-03
  -3.25000007E-03  -2.90550222E-03
  -3.19999992E-03  -2.96095014E-03
  -3.15000000E-03  -3.01733078E-03
  -3.10000009E-03  -3.07461177E-03
  -3.04999994E-03  -3.13275144E-03
  -3.00000003E-03  -3.19172139E-03
  -2.95000011E-03  -3.25152953E-03
  -2.89999996E-03  -3.31222126E-03
  -2.85000005E-03  -3.37385782E-03
  -2.79999990E-03  -3.43648903E-03
  -2.74999999E-03  -3.50014376E-03
  -2.70000007E-03  -3.56482225E-03
  -2.64999992E-03  -3.63049214E-03
  -2.60000001E-03  -3.69712268E-03
  -2.55000009E-03  -3.76469665E-03
  -2.49999994E-03  -3.83321871E-03
  -2.45000003E-03  -3.90271423E-03
  -2.40000011E-03  -3.97322420E-03
  -2.34999997E-03  -4.04479681E-03
  -2.30000005E-03  -4.11745952E-03
  -2.24999990E-03  -4.19121701E-03
  -2.19999999E-03  -4.26605018E-03
  -2.15000007E-03  -4.34193807E-03
  -2.09999993E-03  -4.41886391E-03
  -2.05000001E-03  -4.49682493E-03
  -2.00000009E-03  -4.57583880E-03
  -1.94999995E-03  -4.65592975E-03
  -1.90000003E-03  -4.73713316E-03
  -1.85000000E-03  -4.81947791E-03
  -1.79999997E-03  -4.90296120E-03
  -1.75000005E-03  -4.98758582E-03
  -1.70000002E-03  -5.07335924E-03
  -1.64999999E-03  -5.16027352E-03
  -1.59999996E-03  -5.24832401E-03
  -1.55000004E-03  -5.33749862E-03
  -1.50000001E-03  -5.42779965E-03
  -1.44999998E-03  -5.51924482E-03
  -1.39999995E-03  -5.61185274E-03
  -1.35000004E-03  -5.70564624E-03
  -1.30000000E-03  -5.80064487E-03
  -1.24999997E-03  -5.89685887E-03
  -1.20000006E-03  -5.99428732E-03
  -1.15000003E-03  -6.09291065E-03
  -1.09999999E-03  -6.19270233E-03
  -1.04999996E-03  -6.29366701E-03
  -1.00000005E-03  -6.39581028E-03
  -9.50000016E-04  -6.49912702E-03
  -8.99999985E-04  -6.60363073E-03
  -8.50000011E-04  -6.70933723E-03
  -7.99999980E-04  -6.81627449E-03
  -7.50000007E-04  -6.92447787E-03
  -6.99999975E-04  -7.03395857E-03
  -6.50000002E-04  -7.14469049E-03
  -6.00000028E-04  -7.25660985E-03
  -5.49999997E-04  -7.36968080E-03
  -5.00000024E-04  -7.48389494E-03
  -4.49999992E-04  -7.59925321E-03
  -3.99999990E-04  -7.71580497E-03
  -3.49999988E-04  -7.83363730E-03
  -3.00000014E-04  -7.95278233E-03
  -2.50000012E-04  -8.07322655E-03
  -1.99999995E-04  -8.19492247E-03
  -1.50000007E-04  -8.31780676E-03
  -9.99999975E-05  -8.44182353E-03
  -4.99999987E-05  -8.56691133E-03
   0.00000000      -8.69307853E-03
   4.99999987E-05  -8.82039405E-03
   9.99999975E-05  -8.94895755E-03
   1.50000007E-04  -9.07883607E-03
   1.99999995E-04  -9.21001565E-03
   2.50000012E-04  -9.34244692E-03
   3.00000014E-04  -9.47603118E-03
   3.49999988E-04  -9.61065758E-03
   3.99999990E-04  -9.74626560E-03
   4.49999992E-04  -9.88285709E-03
   5.00000024E-04  -1.00204963E-02
   5.49999997E-04  -1.01592978E-02
   6.00000028E-04  -1.02993594E-02
   6.50000002E-04  -1.04407016E-02
   6.99999975E-04  -1.05832424E-02
   7.50000007E-04  -1.07268309E-02
   7.99999980E-04  -1.08713610E-02
   8.50000011E-04  -1.10167544E-02
   8.99999985E-04  -1.11630065E-02
   9.50000016E-04  -1.13101928E-02
   1.00000005E-03  -1.14584239E-02
   1.04999996E-03  -1.16077941E-02
   1.09999999E-03  -1.17583200E-02
   1.15000003E-03  -1.19099533E-02
   1.20000006E-03  -1.20625813E-02
   1.24999997E-03  -1.22160595E-02
   1.30000000E-03  -1.23702632E-02
   1.35000004E-03  -1.25251301E-02
   1.39999995E-03  -1.26806740E-02
   1.44999998E-03  -1.28370132E-02
   1.50000001E-03  -1.29942698E-02
   1.55000004E-03  -1.31525397E-02
   1.59999996E-03  -1.33118322E-02
   1.64999999E-03  -1.34720076E-02
   1.70000002E-03  -1.36328358E-02
   1.75000005E-03  -1.37941223E-02
   1.79999997E-03  -1.39557999E-02
   1.85000000E-03  -1.41178882E-02
   1.90000003E-03  -1.42805045E-02
   1.94999995E-03  -1.44438185E-02
   2.00000009E-03  -1.46079492E-02
   2.05000001E-03  -1.47729153E-02
   2.09999993E-03  -1.49385864E-02
   2.15000007E-03  -1.51047036E-02
   2.19999999E-03  -1.52710015E-02
   2.24999990E-03  -1.54373283E-02
   2.30000005E-03  -1.56036960E-02
   2.34999997E-03  -1.57702547E-02
   2.40000011E-03  -1.59372073E-02
   2.45000003E-03  -1.61047317E-02
   2.49999994E-03  -1.62728280E-02
   2.55000009E-03  -1.64413508E-02
   2.60000001E-03  -1.66100319E-02
   2.64999992E-03  -1.67785753E-02
   2.70000007E-03  -1.69467479E-02
   2.74999999E-03  -1.71144567E-02
   2.79999990E-03  -1.72818713E-02