  -3.99999991E-02   0.00000000    
  -3.99499983E-02   0.00000000    
  -3.99000011E-02   0.00000000    
  -3.98500003E-02   8.22566909E-15
  -3.97999994E-02   6.65310024E-14
  -3.97499986E-02   2.79472327E-13
  -3.97000015E-02   8.07836816E-13
  -3.96500006E-02   1.78965295E-12
  -3.95999998E-02   3.20392931E-12
  -3.95499989E-02   4.76654567E-12
  -3.95000018E-02   5.97276915E-12
  -3.94500010E-02   6.32915161E-12
  -3.94000001E-02   5.68319957E-12
  -3.93499993E-02   4.45816214E-12
  -3.92999984E-02   3.61041405E-12
  -3.92500013E-02   4.25080153E-12
  -3.92000005E-02   7.04927176E-12
  -3.91499996E-02   1.16949055E-11
  -3.90999988E-02   1.67338556E-11
  -3.90500017E-02   1.99919022E-11
  -3.90000008E-02   1.95044519E-11
  -3.89500000E-02   1.45443284E-11
  -3.88999991E-02   6.17327673E-12
  -3.88499983E-02  -3.08902686E-12
  -3.88000011E-02  -1.04321508E-11
  -3.87500003E-02  -1.42353395E-11
  -3.86999995E-02  -1.51252517E-11
  -3.86499986E-02  -1.60387675E-11
  -3.86000015E-02  -2.11569998E-11
  -3.85500006E-02  -3.40894431E-11
  -3.84999998E-02  -5.60827773E-11
  -3.84499989E-02  -8.51405058E-11
  -3.84000018E-02  -1.16635424E-10
  -3.83500010E-02  -1.45301132E-10
  -3.83000001E-02  -1.67706501E-10
  -3.82499993E-02  -1.83939891E-10
  -3.81999984E-02  -1.97585254E-10
  -3.81500013E-02  -2.13999873E-10
  -3.81000005E-02  -2.37820180E-10
  -3.80499996E-02  -2.70960865E-10
  -3.79999988E-02  -3.12006615E-10
  -3.79500017E-02  -3.57137792E-10
  -3.79000008E-02  -4.02018030E-10
  -3.78500000E-02  -4.43666270E-10
  -3.77999991E-02  -4.81349571E-10
  -3.77499983E-02  -5.16005405E-10
  -3.77000012E-02  -5.48537493E-10
  -3.76500003E-02  -5.78120829E-10
  -3.75999995E-02  -6.01794559E-10
  -3.75499986E-02  -6.15792417E-10
  -3.75000015E-02  -6.17716156E-10
  -3.74500006E-02  -6.07822015E-10
  -3.73999998E-02  -5.88131821E-10
  -3.73499990E-02  -5.59629287E-10
  -3.73000018E-02  -5.19372101E-10
  -3.72500010E-02  -4.59818739E-10
  -3.72000001E-02  -3.71675690E-10
  -3.71499993E-02  -2.49610915E-10
  -3.70999984E-02  -9.82056450E-11
  -3.70500013E-02   6.55244817E-11
  -3.70000005E-02   2.16042739E-10
  -3.69499996E-02   3.29990646E-10
  -3.68999988E-02   4.00070532E-10
  -3.68500017E-02   4.45205983E-10
  -3.68000008E-02   5.09865039E-10
  -3.67500000E-02   6.49541643E-10
  -3.66999991E-02   9.06483000E-10
  -3.66499983E-02   1.28616873E-09
  -3.66000012E-02   1.74690451E-09
  -3.65500003E-02   2.21044028E-09
  -3.64999995E-02   2.59222754E-09
  -3.64499986E-02   2.83983437E-09
  -3.64000015E-02   2.96188629E-09
  -3.63500006E-02   3.03132341E-09
  -3.62999998E-02   3.15656545E-09
  -3.62499990E-02   3.42929973E-09
  -3.62000018E-02   3.87142984E-09
  -3.61500010E-02   4.40854153E-09
  -3.61000001E-02   4.88848428E-09
  -3.60499993E-02   5.14344922E-09
  -3.59999985E-02   5.07111197E-09
  -3.59500013E-02   4.69674255E-09
  -3.59000005E-02   4.18193835E-09
  -3.58499996E-02   3.76716169E-09
  -3.57999988E-02   3.66613073E-09
  -3.57500017E-02   3.95654087E-09
  -3.57000008E-02   4.52020288E-09
  -3.56500000E-02   5.06956255E-09
  -3.55999991E-02   5.26062260E-09
  -3.55499983E-02   4.84946350E-09
  -3.55000012E-02   3.82151466E-09
  -3.54500003E-02   2.42606668E-09
  -3.53999995E-02   1.08627696E-09
  -3.53499986E-02   2.12665843E-10
  -3.53000015E-02  -6.68967757E-13
  -3.52500007E-02   3.00542868E-10
  -3.51999998E-02   6.58202270E-10
  -3.51499990E-02   4.86003460E-10
  -3.51000018E-02  -6.59209409E-10
  -3.50500010E-02  -2.83941093E-09
  -3.50000001E-02  -5.65033131E-09
  -3.49499993E-02  -8.34997849E-09
  -3.48999985E-02  -1.01652660E-08
  -3.48500013E-02  -1.06504379E-08
  -3.48000005E-02  -9.93084637E-09
  -3.47499996E-02  -8.70185701E-09
  -3.46999988E-02  -7.95645683E-09
  -3.46500017E-02  -8.54283400E-09
  -3.46000008E-02  -1.07454685E-08
  -3.45500000E-02  -1.40919942E-08
  -3.44999991E-02  -1.75009003E-08
  -3.44499983E-02  -1.97340935E-08
  -3.44000012E-02  -1.99690859E-08
  -3.43500003E-02  -1.82294819E-08
  -3.42999995E-02  -1.54535353E-08
  -3.42499986E-02  -1.31316478E-08
  -3.42000015E-02  -1.26434454E-08
  -3.41500007E-02  -1.45820058E-08
  -3.40999998E-02  -1.83869044E-08
  -3.40499990E-02  -2.24908074E-08
  -3.40000018E-02  -2.49583394E-08
  -3.39500010E-02  -2.43596983E-08
  -3.39000002E-02  -2.04863486E-08
  -3.38499993E-02  -1.45558383E-08
  -3.37999985E-02  -8.76325590E-09
  -3.37500013E-02  -5.33368549E-09
  -3.37000005E-02  -5.48009460E-09
  -3.36499996E-02  -8.75134898E-09
  -3.35999988E-02  -1.31123254E-08
  -3.35500017E-02  -1.57802500E-08
  -3.35000008E-02  -1.44847867E-08
  -3.34500000E-02  -8.59064642E-09
  -3.33999991E-02   4.59926874E-10
  -3.33499983E-02   9.65009406E-09
  -3.33000012E-02   1.56767843E-08
  -3.32500003E-02   1.64809393E-08
  -3.31999995E-02   1.23185337E-08
  -3.31499986E-02   5.83186033E-09
  -3.31000015E-02   1.00804010E-09
  -3.30500007E-02   1.42578471E-09
  -3.29999998E-02   8.55665938E-09
  -3.29499990E-02   2.09199591E-08
  -3.29000019E-02   3.45499025E-08
  -3.28500010E-02   4.46524169E-08
  -3.28000002E-02   4.77623345E-08
  -3.27499993E-02   4.34284111E-08
  -3.26999985E-02   3.46062130E-08
  -3.26500013E-02   2.64870508E-08
  -3.26000005E-02   2.42041462E-08
  -3.25499997E-02   3.04125756E-08
  -3.24999988E-02   4.38660059E-08
  -3.24500017E-02   5.97229928E-08
  -3.24000008E-02   7.15562720E-08
  -3.23500000E-02   7.42407025E-08
  -3.22999991E-02   6.64302391E-08
  -3.22499983E-02   5.14410665E-08
  -3.22000012E-02   3.60240158E-08
  -3.21500003E-02   2.74609260E-08
  -3.20999995E-02   3.02279517E-08
  -3.20499986E-02   4.37492567E-08
  -3.20000015E-02   6.23514751E-08
  -3.19500007E-02   7.75745974E-08
  -3.18999998E-02   8.19086026E-08
  -3.18499990E-02   7.23071452E-08
  -3.18000019E-02   5.18358512E-08
  -3.17500010E-02   2.85822388E-08
  -3.17000002E-02   1.21745547E-08
  -3.16499993E-02   9.38726163E-09
  -3.15999985E-02   2.08202575E-08
  -3.15500014E-02   4.02544131E-08
  -3.15000005E-02   5.71354981E-08
  -3.14499997E-02   6.12134698E-08
  -3.13999988E-02   4.73099817E-08
  -3.13500017E-02   1.80143171E-08
  -3.13000008E-02  -1.70539973E-08
  -3.12500000E-02  -4.52638673E-08
  -3.11999992E-02  -5.65957876E-08
  -3.11500002E-02  -4.83625406E-08
  -3.10999993E-02  -2.68047309E-08
  -3.10500003E-02  -4.66477568E-09
  -3.09999995E-02   4.34892700E-09
  -3.09500005E-02  -8.18353385E-09
  -3.08999997E-02  -4.12630072E-08
  -3.08500007E-02  -8.44697965E-08
  -3.07999998E-02  -1.22292548E-07
  -3.07500008E-02  -1.41003540E-07
  -3.07000000E-02  -1.35037368E-07
  -3.06499992E-02  -1.09913110E-07
  -3.06000002E-02  -8.01916755E-08
  -3.05499993E-02  -6.31742267E-08
  -3.05000003E-02  -7.10394943E-08
  -3.04499995E-02  -1.04961387E-07
  -3.04000005E-02  -1.54000773E-07
  -3.03499997E-02  -1.99500079E-07
  -3.03000007E-02  -2.23215707E-07
  -3.02499998E-02  -2.15628361E-07
  -3.02000009E-02  -1.80630749E-07
  -3.01500000E-02  -1.34287092E-07
  -3.00999992E-02  -9.79770718E-08
  -3.00500002E-02  -8.88252956E-08
  -2.99999993E-02  -1.11684699E-07
  -2.99500003E-02  -1.56409769E-07
  -2.98999995E-02  -2.01886522E-07
  -2.98500005E-02  -2.25252521E-07
  -2.97999997E-02  -2.12299653E-07
  -2.97500007E-02  -1.64346616E-07
  -2.96999998E-02  -9.82930004E-08
  -2.96500009E-02  -3.95523507E-08
  -2.96000000E-02  -1.08059082E-08
  -2.95499992E-02  -2.15474021E-08
  -2.95000002E-02  -6.32253716E-08
  -2.94499993E-02  -1.12420011E-07
  -2.94000003E-02  -1.40919283E-07
  -2.93499995E-02  -1.28365741E-07
  -2.93000005E-02  -7.18097581E-08
  -2.92499997E-02   1.22942270E-08
  -2.92000007E-02   9.48323020E-08
  -2.91499998E-02   1.46761906E-07
  -2.91000009E-02   1.52249370E-07
  -2.90500000E-02   1.16250632E-07
  -2.89999992E-02   6.28919778E-08
  -2.89500002E-02   2.50676688E-08
  -2.88999993E-02   2.96852107E-08
  -2.88500004E-02   8.51240287E-08
  -2.87999995E-02   1.76691671E-07
  -2.87500005E-02   2.72419328E-07
  -2.86999997E-02   3.36914155E-07
  -2.86500007E-02   3.47244367E-07
  -2.85999998E-02   3.03709470E-07
  -2.85500009E-02   2.30437280E-07
  -2.85000000E-02   1.65203460E-07
  -2.84499992E-02   1.42743630E-07
  -2.84000002E-02   1.78915954E-07
  -2.83499993E-02   2.62919883E-07
  -2.83000004E-02   3.61347503E-07
  -2.82499995E-02   4.32594561E-07
  -2.82000005E-02   4.45413690E-07
  -2.81499997E-02   3.93325308E-07
  -2.81000007E-02   2.98231214E-07
  -2.80499998E-02   2.01273039E-07
  -2.80000009E-02   1.44704345E-07
  -2.79500000E-02   1.52729001E-07
  -2.78999992E-02   2.19959915E-07
  -2.78500002E-02   3.12952068E-07
  -2.77999993E-02   3.84499003E-07
  -2.77500004E-02   3.94595304E-07
  -2.76999995E-02   3.28773552E-07
  -2.76500005E-02   2.05445559E-07
  -2.75999997E-02   6.86169130E-08
  -2.75500007E-02  -3.11457242E-08
  -2.74999999E-02  -5.92253251E-08
  -2.74500009E-02  -1.28741364E-08
  -2.74000000E-02   7.68169812E-08
  -2.73499992E-02   1.58152304E-07
  -2.73000002E-02   1.81690410E-07
  -2.72499993E-02   1.22659429E-07
  -2.72000004E-02  -7.19796844E-09
  -2.71499995E-02  -1.63958859E-07
  -2.71000005E-02  -2.90483740E-07
  -2.70499997E-02  -3.41817326E-07
  -2.70000007E-02  -3.05722466E-07
  -2.69499999E-02  -2.08962575E-07
  -2.69000009E-02  -1.06145208E-07
  -2.68500000E-02  -5.57308475E-08
  -2.67999992E-02  -9.37118259E-08
  -2.67500002E-02  -2.16768811E-07
  -2.66999993E-02  -3.82720685E-07
  -2.66500004E-02  -5.28470821E-07
  -2.65999995E-02  -5.97773123E-07
  -2.65500005E-02  -5.66541928E-07
  -2.64999997E-02  -4.54257815E-07
  -2.64500007E-02  -3.16026558E-07
  -2.63999999E-02  -2.18442253E-07
  -2.63500009E-02  -2.09768316E-07
  -2.63000000E-02  -2.97740826E-07
  -2.62499992E-02  -4.45153859E-07
  -2.62000002E-02  -5.85597661E-07
  -2.61499994E-02  -6.52695235E-07
  -2.61000004E-02  -6.09960750E-07
  -2.60499995E-02  -4.67850725E-07
  -2.60000005E-02  -2.80061897E-07
  -2.59499997E-02  -1.20304932E-07
  -2.59000007E-02  -4.95957835E-08
  -2.58499999E-02  -8.85777993E-08
  -2.58000009E-02  -2.07420058E-07
  -2.57500000E-02  -3.38186425E-07
  -2.56999992E-02  -4.04562542E-07
  -2.56500002E-02  -3.55925806E-07
  -2.55999994E-02  -1.90537818E-07
  -2.55500004E-02   4.27634319E-08
  -2.54999995E-02   2.65531071E-07
  -2.54500005E-02   4.04332326E-07
  -2.53999997E-02   4.23719911E-07
  -2.53500007E-02   3.42705846E-07
  -2.52999999E-02   2.27037489E-07
  -2.52500009E-02   1.60313334E-07
  -2.52000000E-02   2.06540761E-07
  -2.51499992E-02   3.80803385E-07
  -2.51000002E-02   6.41355598E-07
  -2.50499994E-02   9.07068738E-07
  -2.50000004E-02   1.09283417E-06
  -2.49499995E-02   1.14734041E-06
  -2.49000005E-02   1.07631195E-06
  -2.48499997E-02   9.40549796E-07
  -2.48000007E-02   8.29251405E-07
  -2.47499999E-02   8.20195055E-07
  -2.47000009E-02   9.44452438E-07
  -2.46500000E-02   1.17152956E-06
  -2.45999992E-02   1.42190686E-06
  -2.45500002E-02   1.60174852E-06
  -2.44999994E-02   1.64451899E-06
  -2.44500004E-02   1.54092311E-06
  -2.43999995E-02   1.34355230E-06
  -2.43500005E-02   1.14378895E-06
  -2.42999997E-02   1.03094612E-06
  -2.42500007E-02   1.05173876E-06
  -2.41999999E-02   1.18829405E-06
  -2.41500009E-02   1.36484232E-06
  -2.41000000E-02   1.48049162E-06
  -2.40499992E-02   1.45373735E-06
  -2.40000002E-02   1.25889892E-06
  -2.39499994E-02   9.38039307E-07
  -2.39000004E-02   5.82712175E-07
  -2.38499995E-02   2.93343078E-07
  -2.38000005E-02   1.34193655E-07
  -2.37499997E-02   1.04048176E-07
  -2.37000007E-02   1.35942784E-07
  -2.36499999E-02   1.26395364E-07
  -2.36000009E-02  -1.86499012E-08
  -2.35500000E-02  -3.41594216E-07
  -2.34999992E-02  -8.13665622E-07
  -2.34500002E-02  -1.34711297E-06
  -2.33999994E-02  -1.83397412E-06
  -2.33500004E-02  -2.19430581E-06
  -2.32999995E-02  -2.41232465E-06
  -2.32500006E-02  -2.54412680E-06
  -2.31999997E-02  -2.69323732E-06
  -2.31500007E-02  -2.96464691E-06
  -2.30999999E-02  -3.41773966E-06
  -2.30500009E-02  -4.03920603E-06
  -2.30000000E-02  -4.74826265E-06
  -2.29499992E-02  -5.43210263E-06
  -2.29000002E-02  -5.99592340E-06
  -2.28499994E-02  -6.40521193E-06
  -2.28000004E-02  -6.70126974E-06
  -2.27499995E-02  -6.98281156E-06
  -2.27000006E-02  -7.36167567E-06
  -2.26499997E-02  -7.91234925E-06
  -2.26000007E-02  -8.63793139E-06
  -2.25499999E-02  -9.46792716E-06
  -2.25000009E-02  -1.02890717E-05
  -2.24500000E-02  -1.09955745E-05
  -2.23999992E-02  -1.15363346E-05
  -2.23500002E-02  -1.19379138E-05
  -2.22999994E-02  -1.22928150E-05
  -2.22500004E-02  -1.27181447E-05
  -2.21999995E-02  -1.33030280E-05
  -2.21500006E-02  -1.40683251E-05
  -2.20999997E-02  -1.49567932E-05
  -2.20500007E-02  -1.58582316E-05
  -2.19999999E-02  -1.66584850E-05
  -2.19500009E-02  -1.72903347E-05
  -2.19000001E-02  -1.77634902E-05
  -2.18499992E-02  -1.81601226E-05
  -2.18000002E-02  -1.85978315E-05
  -2.17499994E-02  -1.91766503E-05
  -2.17000004E-02  -1.99337665E-05
  -2.16499995E-02  -2.08263555E-05
  -2.16000006E-02  -2.17503857E-05
  -2.15499997E-02  -2.25869735E-05
  -2.15000007E-02  -2.32555012E-05
  -2.14499999E-02  -2.37496806E-05
  -2.14000009E-02  -2.41404396E-05
  -2.13500001E-02  -2.45441570E-05
  -2.12999992E-02  -2.50705634E-05
  -2.12500002E-02  -2.57737720E-05
  -2.11999994E-02  -2.66282968E-05
  -2.11500004E-02  -2.75407911E-05
  -2.10999995E-02  -2.83923364E-05
  -2.10500006E-02  -2.90920943E-05
  -2.09999997E-02  -2.96181952E-05
  -2.09500007E-02  -3.00275242E-05
  -2.08999999E-02  -3.04300684E-05
  -2.08500009E-02  -3.09394090E-05
  -2.08000001E-02  -3.16217593E-05
  -2.07499992E-02  -3.24665452E-05
  -2.07000002E-02  -3.33916760E-05
  -2.06499994E-02  -3.42810199E-05
  -2.06000004E-02  -3.50371665E-05
  -2.05499995E-02  -3.56257151E-05
  -2.05000006E-02  -3.60910781E-05
  -2.04499997E-02  -3.65368032E-05
  -2.04000007E-02  -3.70795096E-05
  -2.03499999E-02  -3.77972137E-05
  -2.03000009E-02  -3.86953616E-05
  -2.02500001E-02  -3.97057956E-05
  -2.01999992E-02  -4.07188490E-05
  -2.01500002E-02  -4.16339244E-05
  -2.00999994E-02  -4.24056598E-05
  -2.00500004E-02  -4.30646942E-05
  -1.99999996E-02  -4.37040217E-05
  -1.99500006E-02  -4.44371981E-05
  -1.98999997E-02  -4.53475986E-05
  -1.98500007E-02  -4.64517616E-05
  -1.97999999E-02  -4.76930945E-05
  -1.97500009E-02  -4.89686681E-05
  -1.97000001E-02  -5.01769318E-05
  -1.96499992E-02  -5.12642691E-05
  -1.96000002E-02  -5.22496157E-05
  -1.95499994E-02  -5.32161102E-05
  -1.95000004E-02  -5.42738162E-05
  -1.94499996E-02  -5.55107217E-05
  -1.94000006E-02  -5.69542790E-05
  -1.93499997E-02  -5.85608468E-05
  -1.93000007E-02  -6.02373984E-05
  -1.92499999E-02  -6.18852428E-05
  -1.92000009E-02  -6.34457174E-05
  -1.91500001E-02  -6.49269714E-05
  -1.90999992E-02  -6.63999090E-05
  -1.90500002E-02  -6.79657533E-05
  -1.89999994E-02  -6.97100913E-05
  -1.89500004E-02  -7.16645227E-05
  -1.88999996E-02  -7.37934752E-05
  -1.88500006E-02  -7.60116673E-05
  -1.87999997E-02  -7.82241041E-05
  -1.87500007E-02  -8.03701623E-05
  -1.86999999E-02  -8.24509916E-05
  -1.86500009E-02  -8.45284812E-05
  -1.86000001E-02  -8.66966511E-05
  -1.85499992E-02  -8.90384836E-05
  -1.85000002E-02  -9.15887867E-05
  -1.84499994E-02  -9.43198320E-05
  -1.84000004E-02  -9.71554982E-05
  -1.83499996E-02  -1.00007652E-04
  -1.83000006E-02  -1.02817532E-04
  -1.82499997E-02  -1.05582956E-04
  -1.82000007E-02  -1.08358843E-04
  -1.81499999E-02  -1.11231158E-04
  -1.81000009E-02  -1.14277253E-04
  -1.80500001E-02  -1.17530399E-04
  -1.79999992E-02  -1.20965393E-04
  -1.79500002E-02  -1.24511440E-04
  -1.78999994E-02  -1.28085725E-04
  -1.78500004E-02  -1.31632361E-04
  -1.77999996E-02  -1.35148104E-04
  -1.77500006E-02  -1.38683521E-04
  -1.76999997E-02  -1.42319172E-04
  -1.76500008E-02  -1.46128194E-04
  -1.75999999E-02  -1.50142951E-04
  -1.75500009E-02  -1.54341586E-04
  -1.75000001E-02  -1.58660187E-04
  -1.74499992E-02  -1.63024495E-04
  -1.74000002E-02  -1.67386170E-04
  -1.73499994E-02  -1.71746695E-04
  -1.73000004E-02  -1.76157177E-04
  -1.72499996E-02  -1.80694289E-04
  -1.72000006E-02  -1.85425568E-04
  -1.71499997E-02  -1.90377599E-04
  -1.71000008E-02  -1.95524364E-04
  -1.70499999E-02  -2.00801514E-04
  -1.70000009E-02  -2.06137600E-04
  -1.69500001E-02  -2.11488717E-04
  -1.68999992E-02  -2.16860848E-04
  -1.68500002E-02  -2.22307979E-04
  -1.67999994E-02  -2.27906319E-04
  -1.67500004E-02  -2.33719431E-04
  -1.66999996E-02  -2.39769928E-04
  -1.66500006E-02  -2.46029667E-04
  -1.65999997E-02  -2.52434780E-04
  -1.65500008E-02  -2.58918328E-04
  -1.64999999E-02  -2.65445095E-04
  -1.64500009E-02  -2.72030593E-04
  -1.64000001E-02  -2.78736989E-04
  -1.63499992E-02  -2.85644899E-04
  -1.63000003E-02  -2.92817422E-04
  -1.62499994E-02  -3.00271611E-04
  -1.62000004E-02  -3.07970215E-04
  -1.61499996E-02  -3.15841637E-04
  -1.61000006E-02  -3.23816144E-04
  -1.60499997E-02  -3.31859483E-04
  -1.60000008E-02  -3.39992257E-04
  -1.59499999E-02  -3.48283618E-04
  -1.59000009E-02  -3.56820063E-04
  -1.58500001E-02  -3.65666463E-04
  -1.57999992E-02  -3.74837313E-04
  -1.57500003E-02  -3.84291168E-04
  -1.56999994E-02  -3.93951981E-04
  -1.56500004E-02  -4.03748592E-04
  -1.55999996E-02  -4.13651636E-04
  -1.55499997E-02  -4.23691556E-04
  -1.54999997E-02  -4.33949230E-04
  -1.54499998E-02  -4.44521691E-04
  -1.53999999E-02  -4.55477770E-04
  -1.53500000E-02  -4.66827885E-04
  -1.53000001E-02  -4.78521193E-04
  -1.52500002E-02  -4.90469101E-04
  -1.52000003E-02  -5.02588693E-04
  -1.51500003E-02  -5.14845422E-04
  -1.51000004E-02  -5.27274096E-04
  -1.50499996E-02  -5.39964996E-04
  -1.49999997E-02  -5.53026213E-04
  -1.49499997E-02  -5.66534174E-04
  -1.48999998E-02  -5.80499182E-04
  -1.48499999E-02  -5.94862504E-04
  -1.48000000E-02  -6.09523559E-04
  -1.47500001E-02  -6.24390435E-04
  -1.47000002E-02  -6.39426697E-04
  -1.46500003E-02  -6.54672564E-04
  -1.46000003E-02  -6.70230831E-04
  -1.45500004E-02  -6.86224550E-04
  -1.44999996E-02  -7.02741730E-04
  -1.44499997E-02  -7.19795411E-04
  -1.43999998E-02  -7.37319409E-04
  -1.43499998E-02  -7.55199522E-04
  -1.42999999E-02  -7.73327309E-04
  -1.42500000E-02  -7.91653059E-04
  -1.42000001E-02  -8.10213038E-04
  -1.41500002E-02  -8.29118304E-04
  -1.41000003E-02  -8.48505355E-04
  -1.40500003E-02  -8.68475938E-04
  -1.40000004E-02  -8.89049668E-04
  -1.39499996E-02  -9.10155999E-04
  -1.38999997E-02  -9.31666524E-04
  -1.38499998E-02  -9.53458715E-04
  -1.37999998E-02  -9.75473493E-04
  -1.37499999E-02  -9.97746713E-04
  -1.37000000E-02  -1.02040137E-03
  -1.36500001E-02  -1.04359142E-03
  -1.36000002E-02  -1.06743420E-03
  -1.35500003E-02  -1.09195837E-03
  -1.35000004E-02  -1.11709267E-03
  -1.34500004E-02  -1.14269892E-03
  -1.33999996E-02  -1.16863754E-03
  -1.33499997E-02  -1.19483564E-03
  -1.32999998E-02  -1.22132467E-03
  -1.32499998E-02  -1.24823069E-03
  -1.31999999E-02  -1.27572054E-03
  -1.31500000E-02  -1.30392518E-03
  -1.31000001E-02  -1.33288407E-03
  -1.30500002E-02  -1.36252749E-03
  -1.30000003E-02  -1.39270735E-03
  -1.29500004E-02  -1.42326765E-03
  -1.29000004E-02  -1.45412178E-03
  -1.28499996E-02  -1.48529443E-03
  -1.27999997E-02  -1.51691714E-03
  -1.27499998E-02  -1.54917676E-03
  -1.26999998E-02  -1.58223254E-03
  -1.26499999E-02  -1.61614327E-03
  -1.26000000E-02  -1.65084680E-03
  -1.25500001E-02  -1.68618921E-03
  -1.25000002E-02  -1.72199507E-03
  -1.24500003E-02  -1.75815832E-03
  -1.24000004E-02  -1.79469190E-03
  -1.23500004E-02  -1.83172221E-03
  -1.22999996E-02  -1.86943996E-03
  -1.22499997E-02  -1.90801837E-03
  -1.21999998E-02  -1.94753229E-03
  -1.21499998E-02  -1.98792340E-03
  -1.20999999E-02  -2.02902872E-03
  -1.20500000E-02  -2.07066303E-03
  -1.20000001E-02  -2.11270200E-03
  -1.19500002E-02  -2.15514656E-03
  -1.19000003E-02  -2.19813432E-03
  -1.18500004E-02  -2.24188296E-03
  -1.18000004E-02  -2.28659506E-03
  -1.17499996E-02  -2.33236188E-03
  -1.16999997E-02  -2.37913383E-03
  -1.16499998E-02  -2.42674444E-03
  -1.15999999E-02  -2.47497857E-03
  -1.15499999E-02  -2.52368138E-03
  -1.15000000E-02  -2.57283612E-03
  -1.14500001E-02  -2.62257014E-03
  -1.14000002E-02  -2.67309998E-03
  -1.13500003E-02  -2.72464473E-03
  -1.13000004E-02  -2.77732126E-03
  -1.12500004E-02  -2.83108978E-03
  -1.11999996E-02  -2.88578239E-03
  -1.11499997E-02  -2.94118514E-03
  -1.10999998E-02  -2.99713458E-03
  -1.10499999E-02  -3.05361510E-03
  -1.09999999E-02  -3.11076990E-03
  -1.09500000E-02  -3.16882343E-03
  -1.09000001E-02  -3.22799408E-03
  -1.08500002E-02  -3.28840688E-03
  -1.08000003E-02  -3.35002807E-03
  -1.07500004E-02  -3.41267907E-03
  -1.07000005E-02  -3.47612356E-03
  -1.06499996E-02  -3.54017480E-03
  -1.05999997E-02  -3.60478647E-03
  -1.05499998E-02  -3.67007707E-03
  -1.04999999E-02  -3.73628503E-03
  -1.04499999E-02  -3.80366016E-03
  -1.04000000E-02  -3.87235289E-03
  -1.03500001E-02  -3.94234993E-03
  -1.03000002E-02  -4.01347736E-03
  -1.02500003E-02  -4.08549327E-03
  -1.02000004E-02  -4.15819651E-03
  -1.01500005E-02  -4.23152559E-03
  -1.00999996E-02  -4.30560112E-03
  -1.00499997E-02  -4.38066944E-03
  -9.99999978E-03  -4.45698760E-03
  -9.94999986E-03  -4.53472044E-03
  -9.89999995E-03  -4.61386144E-03
  -9.85000003E-03  -4.69422759E-03
  -9.80000012E-03  -4.77556000E-03
  -9.75000020E-03  -4.85763699E-03
  -9.70000029E-03  -4.94037336E-03
  -9.65000037E-03  -5.02386130E-03
  -9.60000046E-03  -5.10834483E-03
  -9.54999961E-03  -5.19410428E-03
  -9.49999969E-03  -5.28130960E-03
  -9.44999978E-03  -5.36995707E-03
  -9.39999986E-03  -5.45986230E-03
  -9.34999995E-03  -5.55075565E-03
  -9.30000003E-03  -5.64239081E-03
  -9.25000012E-03  -5.73466439E-03
  -9.20000020E-03  -5.82769979E-03
  -9.15000029E-03  -5.92177501E-03
  -9.10000037E-03  -6.01719320E-03
  -9.05000046E-03  -6.11415505E-03
  -8.99999961E-03  -6.21266849E-03
  -8.94999970E-03  -6.31254027E-03
  -8.89999978E-03  -6.41346350E-03
  -8.84999987E-03  -6.51516812E-03
  -8.79999995E-03  -6.61754562E-03
  -8.75000004E-03  -6.72069797E-03
  -8.70000012E-03  -6.82488875E-03
  -8.65000021E-03  -6.93043554E-03
  -8.60000029E-03  -7.03754462E-03
  -8.55000038E-03  -7.14621972E-03
  -8.50000046E-03  -7.25625735E-03
  -8.44999962E-03  -7.36732269E-03
  -8.39999970E-03  -7.47910049E-03
  -8.34999979E-03  -7.59144919E-03
  -8.29999987E-03  -7.70445913E-03
  -8.24999996E-03  -7.81840831E-03
  -8.20000004E-03  -7.93366227E-03
  -8.15000013E-03  -8.05049017E-03
  -8.10000021E-03  -8.16893484E-03
  -8.05000030E-03  -8.28879606E-03
  -8.00000038E-03  -8.40972457E-03
  -7.95000046E-03  -8.53135530E-03
  -7.89999962E-03  -8.65350291E-03
  -7.84999970E-03  -8.77627265E-03
  -7.79999979E-03  -8.89998116E-03
  -7.74999987E-03  -9.02501680E-03
  -7.69999996E-03  -9.15165991E-03
  -7.65000004E-03  -9.27994214E-03
  -7.60000013E-03  -9.40961298E-03
  -7.55000021E-03  -9.54025239E-03
  -7.49999983E-03  -9.67146643E-03
  -7.44999992E-03  -9.80303157E-03
  -7.40000000E-03  -9.93501116E-03
  -7.35000009E-03  -1.00677181E-02
  -7.30000017E-03  -1.02015650E-02
  -7.24999979E-03  -1.03368694E-02
  -7.19999988E-03  -1.04737002E-02
  -7.14999996E-03  -1.06118536E-02
  -7.10000005E-03  -1.07509047E-02
  -7.05000013E-03  -1.08903851E-02
  -7.00000022E-03  -1.10300155E-02
  -6.94999984E-03  -1.11698406E-02
  -6.89999992E-03  -1.13101760E-02
  -6.85000001E-03  -1.14514893E-02
  -6.80000009E-03  -1.15941605E-02
  -6.75000018E-03  -1.17382845E-02
  -6.69999979E-03  -1.18836565E-02
  -6.64999988E-03  -1.20298080E-02
  -6.59999996E-03  -1.21762138E-02
  -6.55000005E-03  -1.23225255E-02
  -6.50000013E-03  -1.24687236E-02
  -6.45000022E-03  -1.26151005E-02
  -6.39999984E-03  -1.27621191E-02
  -6.34999992E-03  -1.29102040E-02
  -6.30000001E-03  -1.30595528E-02
  -6.25000009E-03  -1.32099772E-02
  -6.20000018E-03  -1.33609623E-02
  -6.14999980E-03  -1.35119110E-02
  -6.09999988E-03  -1.36623569E-02
  -6.04999997E-03  -1.38122104E-02
  -6.00000005E-03  -1.39617715E-02
  -5.95000014E-03  -1.41115813E-02
  -5.90000022E-03  -1.42621454E-02
  -5.84999984E-03  -1.44136613E-02
  -5.79999993E-03  -1.45659922E-02
  -5.75000001E-03  -1.47186629E-02
  -5.70000010E-03  -1.48710022E-02
  -5.65000018E-03  -1.50224725E-02
  -5.59999980E-03  -1.51728643E-02
  -5.54999989E-03  -1.53223863E-02
  -5.49999997E-03  -1.54716037E-02
  -5.45000006E-03  -1.56211164E-02
  -5.40000014E-03  -1.57712642E-02
  -5.35000023E-03  -1.59219354E-02
  -5.29999984E-03  -1.60725955E-02
  -5.24999993E-03  -1.62225068E-02
  -5.20000001E-03  -1.63710043E-02
  -5.15000010E-03  -1.65178217E-02
  -5.10000018E-03  -1.66631136E-02
  -5.04999980E-03  -1.68073494E-02
  -4.99999989E-03  -1.69511884E-02
  -4.94999997E-03  -1.70950741E-02
  -4.90000006E-03  -1.72389895E-02
  -4.85000014E-03  -1.73824746E-02
  -4.80000023E-03  -1.75247490E-02
  -4.74999985E-03  -1.76649969E-02
  -4.69999993E-03  -1.78028047E-02
  -4.65000002E-03  -1.79382991E-02
  -4.60000010E-03  -1.80719737E-02
  -4.55000019E-03  -1.82045400E-02
  -4.49999981E-03  -1.83365345E-02
  -4.44999989E-03  -1.84679963E-02
  -4.39999998E-03  -1.85984503E-02
  -4.35000006E-03  -1.87270995E-02
  -4.30000015E-03  -1.88531280E-02
  -4.25000023E-03  -1.89759936E-02
  -4.19999985E-03  -1.90956667E-02
  -4.14999994E-03  -1.92125961E-02
  -4.10000002E-03  -1.93274934E-02
  -4.05000011E-03  -1.94409620E-02
  -4.00000019E-03  -1.95532124E-02
  -3.94999981E-03  -1.96639299E-02
  -3.89999989E-03  -1.97722614E-02
  -3.84999998E-03  -1.98771860E-02
  -3.80000006E-03  -1.99779216E-02
  -3.74999992E-03  -2.00742539E-02
  -3.70000000E-03  -2.01666281E-02
  -3.65000009E-03  -2.02558544E-02
  -3.59999994E-03  -2.03426797E-02
  -3.55000002E-03  -2.04275660E-02
  -3.50000011E-03  -2.05102898E-02
  -3.44999996E-03  -2.05898583E-02
  -3.40000005E-03  -2.06651147E-02
  -3.34999990E-03  -2.07352266E-02
  -3.29999998E-03  -2.07998510E-02
  -3.25000007E-03  -2.08593067E-02
  -3.19999992E-03  -2.09144764E-02
  -3.15000000E-03  -2.09662411E-02
  -3.10000009E-03  -2.10150592E-02
  -3.04999994E-03  -2.10607555E-02
  -3.00000003E-03  -2.11025011E-02
  -2.95000011E-03  -2.11391225E-02
  -2.89999996E-03  -2.11695265E-02
  -2.85000005E-03  -2.11931895E-02
  -2.79999990E-03  -2.12102924E-02
  -2.74999999E-03  -2.12215707E-02
  -2.70000007E-03  -2.12280862E-02
  -2.64999992E-03  -2.12305225E-02
  -2.60000001E-03  -2.12287493E-02
  -2.55000009E-03  -2.12220158E-02
  -2.49999994E-03  -2.12090611E-02
  -2.45000003E-03  -2.11887099E-02
  -2.40000011E-03  -2.11603660E-02
  -2.34999997E-03  -2.11240295E-02
  -2.30000005E-03  -2.10803915E-02
  -2.24999990E-03  -2.10304130E-02
  -2.19999999E-03  -2.09748894E-02
  -2.15000007E-03  -2.09141392E-02
  -2.09999993E-03  -2.08475757E-02
  -2.05000001E-03  -2.07738709E-02
  -2.00000009E-03  -2.06916314E-02
  -1.94999995E-03  -2.05999259E-02
  -1.90000003E-03  -2.04985607E-02
  -1.85000000E-03  -2.03881264E-02
  -1.79999997E-03  -2.02697720E-02
  -1.75000005E-03  -2.01445613E-02
  -1.70000002E-03  -2.00128611E-02
  -1.64999999E-03  -1.98741220E-02
  -1.59999996E-03  -1.97270103E-02
  -1.55000004E-03  -1.95699800E-02
  -1.50000001E-03  -1.94018297E-02
  -1.44999998E-03  -1.92222279E-02
  -1.39999995E-03  -1.90318115E-02
  -1.35000004E-03  -1.88316572E-02
  -1.30000000E-03  -1.86229609E-02
  -1.24999997E-03  -1.84063781E-02
  -1.20000006E-03  -1.81815717E-02
  -1.15000003E-03  -1.79473218E-02
  -1.09999999E-03  -1.77018922E-02
  -1.04999996E-03  -1.74438301E-02
  -1.00000005E-03  -1.71725731E-02
  -9.50000016E-04  -1.68886166E-02
  -8.99999985E-04  -1.65932253E-02
  -8.50000011E-04  -1.62877180E-02
  -7.99999980E-04  -1.59729421E-02
  -7.50000007E-04  -1.56487077E-02
  -6.99999975E-04  -1.53136821E-02
  -6.50000002E-04  -1.49659356E-02
  -6.00000028E-04  -1.46039343E-02
  -5.49999997E-04  -1.42270150E-02
  -5.00000024E-04  -1.38353808E-02
  -4.49999992E-04  -1.34302387E-02
  -3.99999990E-04  -1.30130714E-02
  -3.49999988E-04  -1.25848772E-02
  -3.00000014E-04  -1.21456431E-02
  -2.50000012E-04  -1.16942599E-02
  -1.99999995E-04  -1.12290159E-02
  -1.50000007E-04  -1.07481722E-02
  -9.99999975E-05  -1.02506950E-02
  -4.99999987E-05  -9.73661989E-03
   0.00000000      -9.20698140E-03
   4.99999987E-05  -8.66338052E-03
   9.99999975E-05  -8.10713135E-03
   1.50000007E-04  -7.53854215E-03
   1.99999995E-04  -6.95664063E-03
   2.50000012E-04  -6.35964703E-03
   3.00000014E-04  -5.74568054E-03
   3.49999988E-04  -5.11335349E-03
   3.99999990E-04  -4.46241023E-03
   4.49999992E-04  -3.79375531E-03
   5.00000024E-04  -3.10899899E-03
   5.49999997E-04  -2.40977528E-03
   6.00000028E-04  -1.69673224E-03
   6.50000002E-04  -9.69148648E-04
   6.99999975E-04  -2.25320327E-04
   7.50000007E-04   5.36752632E-04
   7.99999980E-04   1.31869607E-03
   8.50000011E-04   2.12104130E-03
   8.99999985E-04   2.94305361E-03
   9.50000016E-04   3.78316082E-03
   1.00000005E-03   4.63974429E-03
   1.04999996E-03   5.51186129E-03
   1.09999999E-03   6.39974512E-03
   1.15000003E-03   7.30483560E-03
   1.20000006E-03   8.22912902E-03
   1.24999997E-03   9.17443074E-03
   1.30000000E-03   1.01416754E-02
   1.35000004E-03   1.11305090E-02
   1.39999995E-03   1.21394573E-02
   1.44999998E-03   1.31666884E-02
   1.50000001E-03   1.42108863E-02
   1.55000004E-03   1.52718276E-02
   1.59999996E-03   1.63506418E-02
   1.64999999E-03   1.74494628E-02
   1.70000002E-03   1.85704548E-02
   1.75000005E-03   1.97149310E-02
   1.79999997E-03   2.08828934E-02
   1.85000000E-03   2.20729988E-02
   1.90000003E-03   2.32832562E-02
   1.94999995E-03   2.45119371E-02
   2.00000009E-03   2.57583670E-02
   2.05000001E-03   2.70234458E-02
   2.09999993E-03   2.83091683E-02
   2.15000007E-03   2.96177473E-02
   2.19999999E-03   3.09508163E-02
   2.24999990E-03   3.23086642E-02
   2.30000005E-03   3.36902216E-02
   2.34999997E-03   3.50935236E-02
   2.40000011E-03   3.65165658E-02
   2.45000003E-03   3.79582942E-02
   2.49999994E-03   3.94191258E-02
   2.55000009E-03   4.09008414E-02
   2.60000001E-03   4.24058139E-02
   2.64999992E-03   4.39359657E-02
   2.70000007E-03   4.54919897E-02
   2.74999999E-03   4.70730886E-02
   2.79999990E-03   4.86773439E-02