  -3.99999991E-02   0.00000000    
  -3.99499983E-02   0.00000000    
  -3.99000011E-02   8.04196543E-15
  -3.98500003E-02   4.48809182E-14
  -3.97999994E-02   1.20563078E-13
  -3.97499986E-02   1.87973525E-13
  -3.97000015E-02   1.10493835E-13
  -3.96500006E-02  -3.05271704E-13
  -3.95999998E-02  -1.19503225E-12
  -3.95499989E-02  -2.49571414E-12
  -3.95000018E-02  -3.88351374E-12
  -3.94500010E-02  -4.87036323E-12
  -3.94000001E-02  -5.04019309E-12
  -3.93499993E-02  -4.30603860E-12
  -3.92999984E-02  -3.03769531E-12
  -3.92500013E-02  -1.96518474E-12
  -3.92000005E-02  -1.87044130E-12
  -3.91499996E-02  -3.18868586E-12
  -3.90999988E-02  -5.71007868E-12
  -3.90500017E-02  -8.56325687E-12
  -3.90000008E-02  -1.05496679E-11
  -3.89500000E-02  -1.07083353E-11
  -3.88999991E-02  -8.82707969E-12
  -3.88499983E-02  -5.60145159E-12
  -3.88000011E-02  -2.31647319E-12
  -3.87500003E-02  -1.92516684E-13
  -3.86999995E-02   2.71769884E-13
  -3.86499986E-02  -3.79724111E-13
  -3.86000015E-02  -7.49286863E-13
  -3.85500006E-02   7.83960895E-13
  -3.84999998E-02   5.27117803E-12
  -3.84499989E-02   1.26231820E-11
  -3.84000018E-02   2.15841459E-11
  -3.83500010E-02   3.03244131E-11
  -3.83000001E-02   3.73825589E-11
  -3.82499993E-02   4.24440656E-11
  -3.81999984E-02   4.64931080E-11
  -3.81500013E-02   5.12256036E-11
  -3.81000005E-02   5.80504637E-11
  -3.80499996E-02   6.72453135E-11
  -3.79999988E-02   7.77335973E-11
  -3.79500017E-02   8.76030914E-11
  -3.79000008E-02   9.51027659E-11
  -3.78500000E-02   9.96109861E-11
  -3.77999991E-02   1.02046260E-10
  -3.77499983E-02   1.04416573E-10
  -3.77000012E-02   1.08634240E-10
  -3.76500003E-02   1.15191121E-10
  -3.75999995E-02   1.22500177E-10
  -3.75499986E-02   1.27433231E-10
  -3.75000015E-02   1.26895702E-10
  -3.74500006E-02   1.19592544E-10
  -3.73999998E-02   1.06929146E-10
  -3.73499990E-02   9.24281485E-11
  -3.73000018E-02   7.98600561E-11
  -3.72500010E-02   7.10059234E-11
  -3.72000001E-02   6.42313147E-11
  -3.71499993E-02   5.47504958E-11
  -3.70999984E-02   3.67155160E-11
  -3.70500013E-02   6.33121550E-12
  -3.70000005E-02  -3.55333402E-11
  -3.69499996E-02  -8.28298263E-11
  -3.68999988E-02  -1.26642447E-10
  -3.68500017E-02  -1.59543143E-10
  -3.68000008E-02  -1.79861376E-10
  -3.67500000E-02  -1.93450381E-10
  -3.66999991E-02  -2.11615364E-10
  -3.66499983E-02  -2.45806431E-10
  -3.66000012E-02  -3.01439318E-10
  -3.65500003E-02  -3.73889170E-10
  -3.64999995E-02  -4.48960452E-10
  -3.64499986E-02  -5.08240616E-10
  -3.64000015E-02  -5.37410283E-10
  -3.63500006E-02  -5.33798450E-10
  -3.62999998E-02  -5.09217501E-10
  -3.62499990E-02  -4.85887330E-10
  -3.62000018E-02  -4.86524043E-10
  -3.61500010E-02  -5.22891674E-10
  -3.61000001E-02  -5.88461613E-10
  -3.60499993E-02  -6.59326982E-10
  -3.59999985E-02  -7.03749226E-10
  -3.59500013E-02  -6.96490421E-10
  -3.59000005E-02  -6.31456443E-10
  -3.58499996E-02  -5.26424349E-10
  -3.57999988E-02  -4.16791879E-10
  -3.57500017E-02  -3.40183048E-10
  -3.57000008E-02  -3.18357535E-10
  -3.56500000E-02  -3.44969608E-10
  -3.55999991E-02  -3.85865617E-10
  -3.55499983E-02  -3.93126282E-10
  -3.55000012E-02  -3.27299687E-10
  -3.54500003E-02  -1.77640389E-10
  -3.53999995E-02   2.97187865E-11
  -3.53499986E-02   2.40616832E-10
  -3.53000015E-02   3.95848715E-10
  -3.52500007E-02   4.58459992E-10
  -3.51999998E-02   4.32763769E-10
  -3.51499990E-02   3.65371067E-10
  -3.51000018E-02   3.26150829E-10
  -3.50500010E-02   3.76374459E-10
  -3.50000001E-02   5.38146694E-10
  -3.49499993E-02   7.79971643E-10
  -3.48999985E-02   1.02684683E-09
  -3.48500013E-02   1.19206445E-09
  -3.48000005E-02   1.21713772E-09
  -3.47499996E-02   1.10136678E-09
  -3.46999988E-02   9.06265174E-10
  -3.46500017E-02   7.31021299E-10
  -3.46000008E-02   6.68501088E-10
  -3.45500000E-02   7.61001040E-10
  -3.44999991E-02   9.76416281E-10
  -3.44499983E-02   1.21750521E-09
  -3.44000012E-02   1.36242118E-09
  -3.43500003E-02   1.31982103E-09
  -3.42999995E-02   1.07366838E-09
  -3.42499986E-02   6.95898505E-10
  -3.42000015E-02   3.18855858E-10
  -3.41500007E-02   7.79493206E-11
  -3.40999998E-02   4.96087997E-11
  -3.40499990E-02   2.13190257E-10
  -3.40000018E-02   4.55823185E-10
  -3.39500010E-02   6.20309970E-10
  -3.39000002E-02   5.76325043E-10
  -3.38499993E-02   2.83299079E-10
  -3.37999985E-02  -1.84648491E-10
  -3.37500013E-02  -6.65570876E-10
  -3.37000005E-02  -9.78914172E-10
  -3.36499996E-02  -1.00728681E-09
  -3.35999988E-02  -7.53348828E-10
  -3.35500017E-02  -3.43989504E-10
  -3.35000008E-02   2.28181900E-11
  -3.34500000E-02   1.66606215E-10
  -3.33999991E-02   9.11360917E-12
  -3.33499983E-02  -3.84199728E-10
  -3.33000012E-02  -8.26998137E-10
  -3.32500003E-02  -1.09184395E-09
  -3.31999995E-02  -1.01294373E-09
  -3.31499986E-02  -5.65641922E-10
  -3.31000015E-02   1.15184619E-10
  -3.30500007E-02   7.89363686E-10
  -3.29999998E-02   1.21674870E-09
  -3.29499990E-02   1.26733068E-09
  -3.29000019E-02   9.85469706E-10
  -3.28500010E-02   5.76585502E-10
  -3.28000002E-02   3.19103577E-10
  -3.27499993E-02   4.38968500E-10
  -3.26999985E-02   1.00268205E-09
  -3.26500013E-02   1.87856686E-09
  -3.26000005E-02   2.78677526E-09
  -3.25499997E-02   3.41888651E-09
  -3.24999988E-02   3.57533847E-09
  -3.24500017E-02   3.25863336E-09
  -3.24000008E-02   2.67792855E-09
  -3.23500000E-02   2.15944551E-09
  -3.22999991E-02   2.00011430E-09
  -3.22499983E-02   2.32930364E-09
  -3.22000012E-02   3.04211878E-09
  -3.21500003E-02   3.83721011E-09
  -3.20999995E-02   4.34542358E-09
  -3.20499986E-02   4.29379332E-09
  -3.20000015E-02   3.63149955E-09
  -3.19500007E-02   2.55934873E-09
  -3.18999998E-02   1.44624801E-09
  -3.18499990E-02   6.66982858E-10
  -3.18000019E-02   4.32486547E-10
  -3.17500010E-02   6.89511559E-10
  -3.17000002E-02   1.13747256E-09
  -3.16499993E-02   1.35834510E-09
  -3.15999985E-02   1.00386888E-09
  -3.15500014E-02  -4.34301796E-11
  -3.15000005E-02  -1.60932079E-09
  -3.14499997E-02  -3.29746230E-09
  -3.13999988E-02  -4.66141437E-09
  -3.13500017E-02  -5.40371659E-09
  -3.13000008E-02  -5.51240209E-09
  -3.12500000E-02  -5.27135535E-09
  -3.11999992E-02  -5.13643617E-09
  -3.11500002E-02  -5.52994495E-09
  -3.10999993E-02  -6.64444944E-09
  -3.10500003E-02  -8.34518854E-09
  -3.09999995E-02  -1.02179492E-08
  -3.09500005E-02  -1.17445378E-08
  -3.08999997E-02  -1.25296413E-08
  -3.08500007E-02  -1.24776784E-08
  -3.07999998E-02  -1.18384662E-08
  -3.07500008E-02  -1.10981482E-08
  -3.07000000E-02  -1.07612950E-08
  -3.06499992E-02  -1.11202576E-08
  -3.06000002E-02  -1.21156045E-08
  -3.05499993E-02  -1.33524800E-08
  -3.05000003E-02  -1.42687480E-08
  -3.04499995E-02  -1.43822287E-08
  -3.04000005E-02  -1.35071510E-08
  -3.03499997E-02  -1.18415473E-08
  -3.03000007E-02  -9.88358284E-09
  -3.02499998E-02  -8.21125123E-09
  -3.02000009E-02  -7.22240667E-09
  -3.01500000E-02  -6.95178892E-09
  -3.00999992E-02  -7.04896896E-09
  -3.00500002E-02  -6.92977675E-09
  -2.99999993E-02  -6.03570038E-09
  -2.99500003E-02  -4.08611411E-09
  -2.98999995E-02  -1.20979471E-09
  -2.98500005E-02   2.10515605E-09
  -2.97999997E-02   5.22307619E-09
  -2.97500007E-02   7.64115970E-09
  -2.96999998E-02   9.21312537E-09
  -2.96500009E-02   1.02143956E-08
  -2.96000000E-02   1.12171126E-08
  -2.95499992E-02   1.28290125E-08
  -2.95000002E-02   1.54125921E-08
  -2.94499993E-02   1.89114235E-08
  -2.94000003E-02   2.28634178E-08
  -2.93499995E-02   2.65971138E-08
  -2.93000005E-02   2.95244256E-08
  -2.92499997E-02   3.13988480E-08
  -2.92000007E-02   3.24222960E-08
  -2.91499998E-02   3.31506946E-08
  -2.91000009E-02   3.42385782E-08
  -2.90500000E-02   3.61361678E-08
  -2.89999992E-02   3.88755197E-08
  -2.89500002E-02   4.20435491E-08
  -2.88999993E-02   4.49561632E-08
  -2.88500004E-02   4.69565471E-08
  -2.87999995E-02   4.77035087E-08
  -2.87500005E-02   4.73193111E-08
  -2.86999997E-02   4.63291840E-08
  -2.86500007E-02   4.54185631E-08
  -2.85999998E-02   4.51165647E-08
  -2.85500009E-02   4.55483544E-08
  -2.85000000E-02   4.63688501E-08
  -2.84499992E-02   4.69092889E-08
  -2.84000002E-02   4.64719072E-08
  -2.83499993E-02   4.46401707E-08
  -2.83000004E-02   4.14638457E-08
  -2.82499995E-02   3.74340594E-08
  -2.82000005E-02   3.32588819E-08
  -2.81499997E-02   2.95409865E-08
  -2.81000007E-02   2.65039208E-08
  -2.80499998E-02   2.38915590E-08
  -2.80000009E-02   2.10867075E-08
  -2.79500000E-02   1.73952248E-08
  -2.78999992E-02   1.23664110E-08
  -2.78500002E-02   6.00362782E-09
  -2.77999993E-02  -1.23154420E-09
  -2.77500004E-02  -8.62425154E-09
  -2.76999995E-02  -1.55270961E-08
  -2.76500005E-02  -2.16495177E-08
  -2.75999997E-02  -2.71822547E-08
  -2.75500007E-02  -3.26988499E-08
  -2.74999999E-02  -3.88792429E-08
  -2.74500009E-02  -4.61825209E-08
  -2.74000000E-02  -5.46199743E-08
  -2.73499992E-02  -6.37333955E-08
  -2.73000002E-02  -7.27888576E-08
  -2.72499993E-02  -8.10972338E-08
  -2.72000004E-02  -8.83133922E-08
  -2.71499995E-02  -9.45752703E-08
  -2.71000005E-02  -1.00417267E-07
  -2.70499997E-02  -1.06497119E-07
  -2.70000007E-02  -1.13262843E-07
  -2.69499999E-02  -1.20715512E-07
  -2.69000009E-02  -1.28379867E-07
  -2.68500000E-02  -1.35498070E-07
  -2.67999992E-02  -1.41357290E-07
  -2.67500002E-02  -1.45598278E-07
  -2.66999993E-02  -1.48359860E-07
  -2.66500004E-02  -1.50190360E-07
  -2.65999995E-02  -1.51765803E-07
  -2.65500005E-02  -1.53545471E-07
  -2.64999997E-02  -1.55526436E-07
  -2.64500007E-02  -1.57214842E-07
  -2.63999999E-02  -1.57829689E-07
  -2.63500009E-02  -1.56645697E-07
  -2.63000000E-02  -1.53314502E-07
  -2.62499992E-02  -1.48010201E-07
  -2.62000002E-02  -1.41328044E-07
  -2.61499994E-02  -1.33980635E-07
  -2.61000004E-02  -1.26433960E-07
  -2.60499995E-02  -1.18656317E-07
  -2.60000005E-02  -1.10103009E-07
  -2.59499997E-02  -9.99497942E-08
  -2.59000007E-02  -8.74684787E-08
  -2.58499999E-02  -7.23675413E-08
  -2.58000009E-02  -5.49335404E-08
  -2.57500000E-02  -3.59004915E-08
  -2.56999992E-02  -1.61012501E-08
  -2.56500002E-02   3.93798372E-09
  -2.55999994E-02   2.42667291E-08
  -2.55500004E-02   4.55081235E-08
  -2.54999995E-02   6.85776556E-08
  -2.54500005E-02   9.42490175E-08
  -2.53999997E-02   1.22771368E-07
  -2.53500007E-02   1.53723292E-07
  -2.52999999E-02   1.86181737E-07
  -2.52500009E-02   2.19138670E-07
  -2.52000000E-02   2.51974171E-07
  -2.51499992E-02   2.84761626E-07
  -2.51000002E-02   3.18252603E-07
  -2.50499994E-02   3.53534233E-07
  -2.50000004E-02   3.91509587E-07
  -2.49499995E-02   4.32440913E-07
  -2.49000005E-02   4.75776659E-07
  -2.48499997E-02   5.20357503E-07
  -2.48000007E-02   5.64919105E-07
  -2.47499999E-02   6.08665800E-07
  -2.47000009E-02   6.51646815E-07
  -2.46500000E-02   6.94747030E-07
  -2.45999992E-02   7.39279756E-07
  -2.45500002E-02   7.86360715E-07
  -2.44999994E-02   8.36346430E-07
  -2.44500004E-02   8.88606905E-07
  -2.43999995E-02   9.41754081E-07
  -2.43500005E-02   9.94239031E-07
  -2.42999997E-02   1.04505284E-06
  -2.42500007E-02   1.09420557E-06
  -2.41999999E-02   1.14274894E-06
  -2.41500009E-02   1.19231095E-06
  -2.41000000E-02   1.24433882E-06
  -2.40499992E-02   1.29939383E-06
  -2.40000002E-02   1.35683342E-06
  -2.39499994E-02   1.41503961E-06
  -2.39000004E-02   1.47211529E-06
  -2.38499995E-02   1.52674511E-06
  -2.38000005E-02   1.57881948E-06
  -2.37499997E-02   1.62952836E-06
  -2.37000007E-02   1.68085614E-06
  -2.36499999E-02   1.73468254E-06
  -2.36000009E-02   1.79189760E-06
  -2.35500000E-02   1.85193801E-06
  -2.34999992E-02   1.91297886E-06
  -2.34500002E-02   1.97272038E-06
  -2.33999994E-02   2.02943079E-06
  -2.33500004E-02   2.08276947E-06
  -2.32999995E-02   2.13400790E-06
  -2.32500006E-02   2.18551850E-06
  -2.31999997E-02   2.23973530E-06
  -2.31500007E-02   2.29804891E-06
  -2.30999999E-02   2.36014080E-06
  -2.30500009E-02   2.42407623E-06
  -2.30000000E-02   2.48714696E-06
  -2.29499992E-02   2.54709994E-06
  -2.29000002E-02   2.60320212E-06
  -2.28499994E-02   2.65665676E-06
  -2.28000004E-02   2.71014687E-06
  -2.27499995E-02   2.76667947E-06
  -2.27000006E-02   2.82824840E-06
  -2.26499997E-02   2.89491481E-06
  -2.26000007E-02   2.96473263E-06
  -2.25499999E-02   3.03459956E-06
  -2.25000009E-02   3.10166047E-06
  -2.24500000E-02   3.16464843E-06
  -2.23999992E-02   3.22455344E-06
  -2.23500002E-02   3.28428382E-06
  -2.22999994E-02   3.34745050E-06
  -2.22500004E-02   3.41678947E-06
  -2.21999995E-02   3.49293532E-06
  -2.21500006E-02   3.57410886E-06
  -2.20999997E-02   3.65689516E-06
  -2.20500007E-02   3.73779585E-06
  -2.19999999E-02   3.81486052E-06
  -2.19500009E-02   3.88866874E-06
  -2.19000001E-02   3.96219184E-06
  -2.18499992E-02   4.03957574E-06
  -2.18000002E-02   4.12434838E-06
  -2.17499994E-02   4.21784989E-06
  -2.17000004E-02   4.31861645E-06
  -2.16499995E-02   4.42300734E-06
  -2.16000006E-02   4.52683344E-06
  -2.15499997E-02   4.62728440E-06
  -2.15000007E-02   4.72430474E-06
  -2.14499999E-02   4.82074984E-06
  -2.14000009E-02   4.92124036E-06
  -2.13500001E-02   5.03019101E-06
  -2.12999992E-02   5.14987460E-06
  -2.12500002E-02   5.27941165E-06
  -2.11999994E-02   5.41514237E-06
  -2.11500004E-02   5.55225324E-06
  -2.10999995E-02   5.68696896E-06
  -2.10500006E-02   5.81836184E-06
  -2.09999997E-02   5.94888616E-06
  -2.09500007E-02   6.08341225E-06
  -2.08999999E-02   6.22718608E-06
  -2.08500009E-02   6.38353231E-06
  -2.08000001E-02   6.55237818E-06
  -2.07499992E-02   6.73026443E-06
  -2.07000002E-02   6.91187279E-06
  -2.06499994E-02   7.09244296E-06
  -2.06000004E-02   7.26997951E-06
  -2.05499995E-02   7.44627459E-06
  -2.05000006E-02   7.62625768E-06
  -2.04499997E-02   7.81593735E-06
  -2.04000007E-02   8.01980423E-06
  -2.03499999E-02   8.23885057E-06
  -2.03000009E-02   8.47012143E-06
  -2.02500001E-02   8.70802796E-06
  -2.01999992E-02   8.94687673E-06
  -2.01500002E-02   9.18347541E-06
  -2.00999994E-02   9.41868529E-06
  -2.00500004E-02   9.65721756E-06
  -1.99999996E-02   9.90568242E-06
  -1.99500006E-02   1.01697478E-05
  -1.98999997E-02   1.04516585E-05
  -1.98500007E-02   1.07492433E-05
  -1.97999999E-02   1.10568872E-05
  -1.97500009E-02   1.13680298E-05
  -1.97000001E-02   1.16781448E-05
  -1.96499992E-02   1.19868946E-05
  -1.96000002E-02   1.22984502E-05
  -1.95499994E-02   1.26197929E-05
  -1.95000004E-02   1.29577620E-05
  -1.94499996E-02   1.33160747E-05
  -1.94000006E-02   1.36936915E-05
  -1.93499997E-02   1.40853044E-05
  -1.93000007E-02   1.44837013E-05
  -1.92499999E-02   1.48830259E-05
  -1.92000009E-02   1.52815046E-05
  -1.91500001E-02   1.56824117E-05
  -1.90999992E-02   1.60927939E-05
  -1.90500002E-02   1.65205092E-05
  -1.89999994E-02   1.69708364E-05
  -1.89500004E-02   1.74441848E-05
  -1.88999996E-02   1.79359340E-05
  -1.88500006E-02   1.84384953E-05
  -1.87999997E-02   1.89447273E-05
  -1.87500007E-02   1.94511977E-05
  -1.86999999E-02   1.99598853E-05
  -1.86500009E-02   2.04775151E-05
  -1.86000001E-02   2.10127255E-05
  -1.85499992E-02   2.15723248E-05
  -1.85000002E-02   2.21583905E-05
  -1.84499994E-02   2.27674063E-05
  -1.84000004E-02   2.33918017E-05
  -1.83499996E-02   2.40233639E-05
  -1.83000006E-02   2.46570435E-05
  -1.82499997E-02   2.52933150E-05
  -1.82000007E-02   2.59381741E-05
  -1.81499999E-02   2.66007210E-05
  -1.81000009E-02   2.72892903E-05
  -1.80500001E-02   2.80078057E-05
  -1.79999992E-02   2.87541407E-05
  -1.79500002E-02   2.95211230E-05
  -1.78999994E-02   3.02997505E-05
  -1.78500004E-02   3.10832693E-05
  -1.77999996E-02   3.18703460E-05
  -1.77500006E-02   3.26658374E-05
  -1.76999997E-02   3.34789038E-05
  -1.76500008E-02   3.43191641E-05
  -1.75999999E-02   3.51924937E-05
  -1.75500009E-02   3.60985723E-05
  -1.75000001E-02   3.70311282E-05
  -1.74499992E-02   3.79807389E-05
  -1.74000002E-02   3.89391862E-05
  -1.73499994E-02   3.99031960E-05
  -1.73000004E-02   4.08761625E-05
  -1.72499996E-02   4.18669042E-05
  -1.72000006E-02   4.28859967E-05
  -1.71499997E-02   4.39413561E-05
  -1.71000008E-02   4.50348525E-05
  -1.70499999E-02   4.61615455E-05
  -1.70000009E-02   4.73119835E-05
  -1.69500001E-02   4.84765333E-05
  -1.68999992E-02   4.96498433E-05
  -1.68500002E-02   5.08334269E-05
  -1.67999994E-02   5.20352587E-05
  -1.67500004E-02   5.32664926E-05
  -1.66999996E-02   5.45368166E-05
  -1.66500006E-02   5.58503525E-05
  -1.65999997E-02   5.72039608E-05
  -1.65500008E-02   5.85887756E-05
  -1.64999999E-02   5.99942832E-05
  -1.64500009E-02   6.14131714E-05
  -1.64000001E-02   6.28448470E-05
  -1.63499992E-02   6.42960003E-05
  -1.63000003E-02   6.57779456E-05
  -1.62499994E-02   6.73018003E-05
  -1.62000004E-02   6.88739092E-05
  -1.61499996E-02   7.04932609E-05
  -1.61000006E-02   7.21520555E-05
  -1.60499997E-02   7.38392409E-05
  -1.60000008E-02   7.55456349E-05
  -1.59499999E-02   7.72683561E-05
  -1.59000009E-02   7.90124250E-05
  -1.58500001E-02   8.07887045E-05
  -1.57999992E-02   8.26093528E-05
  -1.57500003E-02   8.44829920E-05
  -1.56999994E-02   8.64110698E-05
  -1.56500004E-02   8.83871835E-05
  -1.55999996E-02   9.04001718E-05
  -1.55499997E-02   9.24393244E-05
  -1.54999997E-02   9.44993226E-05
  -1.54499998E-02   9.65830404E-05
  -1.53999999E-02   9.87004823E-05
  -1.53500000E-02   1.00864730E-04
  -1.53000001E-02   1.03086502E-04
  -1.52500002E-02   1.05369654E-04
  -1.52000003E-02   1.07709580E-04
  -1.51500003E-02   1.10095585E-04
  -1.51000004E-02   1.12515852E-04
  -1.50499996E-02   1.14962793E-04
  -1.49999997E-02   1.17436859E-04
  -1.49499997E-02   1.19946490E-04
  -1.48999998E-02   1.22504862E-04
  -1.48499999E-02   1.25124439E-04
  -1.48000000E-02   1.27811727E-04
  -1.47500001E-02   1.30564775E-04
  -1.47000002E-02   1.33373833E-04
  -1.46500003E-02   1.36225863E-04
  -1.46000003E-02   1.39111173E-04
  -1.45500004E-02   1.42027639E-04
  -1.44999996E-02   1.44981605E-04
  -1.44499997E-02   1.47985978E-04
  -1.43999998E-02   1.51054744E-04
  -1.43499998E-02   1.54196940E-04
  -1.42999999E-02   1.57412826E-04
  -1.42500000E-02   1.60694370E-04
  -1.42000001E-02   1.64028897E-04
  -1.41500002E-02   1.67404767E-04
  -1.41000003E-02   1.70817089E-04
  -1.40500003E-02   1.74269895E-04
  -1.40000004E-02   1.77774971E-04
  -1.39499996E-02   1.81347015E-04
  -1.38999997E-02   1.84997334E-04
  -1.38499998E-02   1.88729115E-04
  -1.37999998E-02   1.92536347E-04
  -1.37499999E-02   1.96406530E-04
  -1.37000000E-02   2.00326642E-04
  -1.36500001E-02   2.04289070E-04
  -1.36000002E-02   2.08295227E-04
  -1.35500003E-02   2.12355677E-04
  -1.35000004E-02   2.16485743E-04
  -1.34500004E-02   2.20698712E-04
  -1.33999996E-02   2.25000244E-04
  -1.33499997E-02   2.29386482E-04
  -1.32999998E-02   2.33845931E-04
  -1.32499998E-02   2.38364912E-04
  -1.31999999E-02   2.42933762E-04
  -1.31500000E-02   2.47551536E-04
  -1.31000001E-02   2.52226455E-04
  -1.30500002E-02   2.56973231E-04
  -1.30000003E-02   2.61806563E-04
  -1.29500004E-02   2.66734598E-04
  -1.29000004E-02   2.71756202E-04
  -1.28499996E-02   2.76861829E-04
  -1.27999997E-02   2.82037130E-04
  -1.27499998E-02   2.87270319E-04
  -1.26999998E-02   2.92557990E-04
  -1.26499999E-02   2.97906430E-04
  -1.26000000E-02   3.03329289E-04
  -1.25500001E-02   3.08842136E-04
  -1.25000002E-02   3.14455625E-04
  -1.24500003E-02   3.20171093E-04
  -1.24000004E-02   3.25979898E-04
  -1.23500004E-02   3.31868388E-04
  -1.22999996E-02   3.37823818E-04
  -1.22499997E-02   3.43839725E-04
  -1.21999998E-02   3.49920098E-04
  -1.21499998E-02   3.56078002E-04
  -1.20999999E-02   3.62329389E-04
  -1.20500000E-02   3.68686276E-04
  -1.20000001E-02   3.75152333E-04
  -1.19500002E-02   3.81721125E-04
  -1.19000003E-02   3.88379412E-04
  -1.18500004E-02   3.95113486E-04
  -1.18000004E-02   4.01914702E-04
  -1.17499996E-02   4.08783730E-04
  -1.16999997E-02   4.15730843E-04
  -1.16499998E-02   4.22771816E-04
  -1.15999999E-02   4.29920823E-04
  -1.15499999E-02   4.37184674E-04
  -1.15000000E-02   4.44559642E-04
  -1.14500001E-02   4.52033797E-04
  -1.14000002E-02   4.59592498E-04
  -1.13500003E-02   4.67224716E-04
  -1.13000004E-02   4.74928529E-04
  -1.12500004E-02   4.82711446E-04
  -1.11999996E-02   4.90587845E-04
  -1.11499997E-02   4.98572539E-04
  -1.10999998E-02   5.06673590E-04
  -1.10499999E-02   5.14889893E-04
  -1.09999999E-02   5.23211551E-04
  -1.09500000E-02   5.31623198E-04
  -1.09000001E-02   5.40110632E-04
  -1.08500002E-02   5.48668846E-04
  -1.08000003E-02   5.57304767E-04
  -1.07500004E-02   5.66033123E-04
  -1.07000005E-02   5.74869511E-04
  -1.06499996E-02   5.83824469E-04
  -1.05999997E-02   5.92897937E-04
  -1.05499998E-02   6.02079963E-04
  -1.04999999E-02   6.11354131E-04
  -1.04499999E-02   6.20705832E-04
  -1.04000000E-02   6.30128314E-04
  -1.03500001E-02   6.39624428E-04
  -1.03000002E-02   6.49206573E-04
  -1.02500003E-02   6.58889534E-04
  -1.02000004E-02   6.68685185E-04
  -1.01500005E-02   6.78596087E-04
  -1.00999996E-02   6.88613916E-04
  -1.00499997E-02   6.98722666E-04
  -9.99999978E-03   7.08906387E-04
  -9.94999986E-03   7.19155069E-04
  -9.89999995E-03   7.29469175E-04
  -9.85000003E-03   7.39858544E-04
  -9.80000012E-03   7.50338426E-04
  -9.75000020E-03   7.60922208E-04
  -9.70000029E-03   7.71614839E-04
  -9.65000037E-03   7.82410207E-04
  -9.60000046E-03   7.93292071E-04
  -9.54999961E-03   8.04244191E-04
  -9.49999969E-03   8.15254694E-04
  -9.44999978E-03   8.26320262E-04
  -9.39999986E-03   8.37448053E-04
  -9.34999995E-03   8.48650932E-04
  -9.30000003E-03   8.59941472E-04
  -9.25000012E-03   8.71326658E-04
  -9.20000020E-03   8.82803113E-04
  -9.15000029E-03   8.94356228E-04
  -9.10000037E-03   9.05967434E-04
  -9.05000046E-03   9.17620433E-04
  -8.99999961E-03   9.29308240E-04
  -8.94999970E-03   9.41034989E-04
  -8.89999978E-03   9.52812145E-04
  -8.84999987E-03   9.64653504E-04
  -8.79999995E-03   9.76567855E-04
  -8.75000004E-03   9.88555606E-04
  -8.70000012E-03   1.00060494E-03
  -8.65000021E-03   1.01269584E-03
  -8.60000029E-03   1.02481071E-03
  -8.55000038E-03   1.03694107E-03
  -8.50000046E-03   1.04908750E-03
  -8.44999962E-03   1.06125930E-03
  -8.39999970E-03   1.07346976E-03
  -8.34999979E-03   1.08572876E-03
  -8.29999987E-03   1.09803583E-03
  -8.24999996E-03   1.11037737E-03
  -8.20000004E-03   1.12273393E-03
  -8.15000013E-03   1.13508885E-03
  -8.10000021E-03   1.14742864E-03
  -8.05000030E-03   1.15975004E-03
  -8.00000038E-03   1.17206306E-03
  -7.95000046E-03   1.18437712E-03
  -7.89999962E-03   1.19670015E-03
  -7.84999970E-03   1.20903295E-03
  -7.79999979E-03   1.22136564E-03
  -7.74999987E-03   1.23368157E-03
  -7.69999996E-03   1.24595861E-03
  -7.65000004E-03   1.25818211E-03
  -7.60000013E-03   1.27034658E-03
  -7.55000021E-03   1.28245633E-03
  -7.49999983E-03   1.29452348E-03
  -7.44999992E-03   1.30655931E-03
  -7.40000000E-03   1.31856580E-03
  -7.35000009E-03   1.33053272E-03
  -7.30000017E-03   1.34244212E-03
  -7.24999979E-03   1.35427155E-03
  -7.19999988E-03   1.36600272E-03
  -7.14999996E-03   1.37762679E-03
  -7.10000005E-03   1.38914457E-03
  -7.05000013E-03   1.40056468E-03
  -7.00000022E-03   1.41189341E-03
  -6.94999984E-03   1.42313458E-03
  -6.89999992E-03   1.43428566E-03
  -6.85000001E-03   1.44532521E-03
  -6.80000009E-03   1.45622925E-03
  -6.75000018E-03   1.46697892E-03
  -6.69999979E-03   1.47756143E-03
  -6.64999988E-03   1.48797280E-03
  -6.59999996E-03   1.49821921E-03
  -6.55000005E-03   1.50830823E-03
  -6.50000013E-03   1.51823997E-03
  -6.45000022E-03   1.52800954E-03
  -6.39999984E-03   1.53760484E-03
  -6.34999992E-03   1.54700759E-03
  -6.30000001E-03   1.55619509E-03
  -6.25000009E-03   1.56514591E-03
  -6.20000018E-03   1.57384854E-03
  -6.14999980E-03   1.58230681E-03
  -6.09999988E-03   1.59052829E-03
  -6.04999997E-03   1.59851869E-03
  -6.00000005E-03   1.60627614E-03
  -5.95000014E-03   1.61378528E-03
  -5.90000022E-03   1.62102329E-03
  -5.84999984E-03   1.62796397E-03
  -5.79999993E-03   1.63458451E-03
  -5.75000001E-03   1.64087291E-03
  -5.70000010E-03   1.64682709E-03
  -5.65000018E-03   1.65244914E-03
  -5.59999980E-03   1.65774534E-03
  -5.54999989E-03   1.66271336E-03
  -5.49999997E-03   1.66733970E-03
  -5.45000006E-03   1.67160260E-03
  -5.40000014E-03   1.67547574E-03
  -5.35000023E-03   1.67893770E-03
  -5.29999984E-03   1.68197067E-03
  -5.24999993E-03   1.68456754E-03
  -5.20000001E-03   1.68673031E-03
  -5.15000010E-03   1.68846664E-03
  -5.10000018E-03   1.68977922E-03
  -5.04999980E-03   1.69065327E-03
  -4.99999989E-03   1.69106619E-03
  -4.94999997E-03   1.69098901E-03
  -4.90000006E-03   1.69038994E-03
  -4.85000014E-03   1.68924872E-03
  -4.80000023E-03   1.68755720E-03
  -4.74999985E-03   1.68531889E-03
  -4.69999993E-03   1.68253854E-03
  -4.65000002E-03   1.67920976E-03
  -4.60000010E-03   1.67531706E-03
  -4.55000019E-03   1.67083845E-03
  -4.49999981E-03   1.66574703E-03
  -4.44999989E-03   1.66001893E-03
  -4.39999998E-03   1.65363553E-03
  -4.35000006E-03   1.64658343E-03
  -4.30000015E-03   1.63885555E-03
  -4.25000023E-03   1.63044711E-03
  -4.19999985E-03   1.62135635E-03
  -4.14999994E-03   1.61157839E-03
  -4.10000002E-03   1.60109613E-03
  -4.05000011E-03   1.58988324E-03
  -4.00000019E-03   1.57790678E-03
  -3.94999981E-03   1.56513392E-03
  -3.89999989E-03   1.55155011E-03
  -3.84999998E-03   1.53714686E-03
  -3.80000006E-03   1.52192346E-03
  -3.74999992E-03   1.50588504E-03
  -3.70000000E-03   1.48902484E-03
  -3.65000009E-03   1.47132354E-03
  -3.59999994E-03   1.45274738E-03
  -3.55000002E-03   1.43326097E-03
  -3.50000011E-03   1.41283777E-03
  -3.44999996E-03   1.39145844E-03
  -3.40000005E-03   1.36911019E-03
  -3.34999990E-03   1.34578941E-03
  -3.29999998E-03   1.32149656E-03
  -3.25000007E-03   1.29622174E-03
  -3.19999992E-03   1.26994960E-03
  -3.15000000E-03   1.24265824E-03
  -3.10000009E-03   1.21431577E-03
  -3.04999994E-03   1.18488946E-03
  -3.00000003E-03   1.15434849E-03
  -2.95000011E-03   1.12267502E-03
  -2.89999996E-03   1.08986651E-03
  -2.85000005E-03   1.05592469E-03
  -2.79999990E-03   1.02084677E-03
  -2.74999999E-03   9.84620187E-04
  -2.70000007E-03   9.47225199E-04
  -2.64999992E-03   9.08630434E-04
  -2.60000001E-03   8.68790899E-04
  -2.55000009E-03   8.27669166E-04
  -2.49999994E-03   7.85242592E-04
  -2.45000003E-03   7.41507043E-04
  -2.40000011E-03   6.96465140E-04
  -2.34999997E-03   6.50122063E-04
  -2.30000005E-03   6.02476357E-04
  -2.24999990E-03   5.53504156E-04
  -2.19999999E-03   5.03167103E-04
  -2.15000007E-03   4.51419910E-04
  -2.09999993E-03   3.98224103E-04
  -2.05000001E-03   3.43551394E-04
  -2.00000009E-03   2.87390692E-04
  -1.94999995E-03   2.29749552E-04
  -1.90000003E-03   1.70639192E-04
  -1.85000000E-03   1.10057859E-04
  -1.79999997E-03   4.79861519E-05
  -1.75000005E-03  -1.56055412E-05
  -1.70000002E-03  -8.07683828E-05
  -1.64999999E-03  -1.47548388E-04
  -1.59999996E-03  -2.15968888E-04
  -1.55000004E-03  -2.86047056E-04
  -1.50000001E-03  -3.57782003E-04
  -1.44999998E-03  -4.31161025E-04
  -1.39999995E-03  -5.06170909E-04
  -1.35000004E-03  -5.82827255E-04
  -1.30000000E-03  -6.61166094E-04
  -1.24999997E-03  -7.41230382E-04
  -1.20000006E-03  -8.23068025E-04
  -1.15000003E-03  -9.06713656E-04
  -1.09999999E-03  -9.92183341E-04
  -1.04999996E-03  -1.07947597E-03
  -1.00000005E-03  -1.16858026E-03
  -9.50000016E-04  -1.25948654E-03
  -8.99999985E-04  -1.35219900E-03
  -8.50000011E-04  -1.44674117E-03
  -7.99999980E-04  -1.54315983E-03
  -7.50000007E-04  -1.64151203E-03
  -6.99999975E-04  -1.74183596E-03
  -6.50000002E-04  -1.84414221E-03
  -6.00000028E-04  -1.94842694E-03
  -5.49999997E-04  -2.05467199E-03
  -5.00000024E-04  -2.16285628E-03
  -4.49999992E-04  -2.27297703E-03
  -3.99999990E-04  -2.38505984E-03
  -3.49999988E-04  -2.49915407E-03
  -3.00000014E-04  -2.61530816E-03
  -2.50000012E-04  -2.73357169E-03
  -1.99999995E-04  -2.85397610E-03
  -1.50000007E-04  -2.97650625E-03
  -9.99999975E-05  -3.10112839E-03
  -4.99999987E-05  -3.22781294E-03
   0.00000000      -3.35655222E-03
   4.99999987E-05  -3.48736532E-03
   9.99999975E-05  -3.62030766E-03
   1.50000007E-04  -3.75543768E-03
   1.99999995E-04  -3.89279332E-03
   2.50000012E-04  -4.03240789E-03
   3.00000014E-04  -4.17427626E-03
   3.49999988E-04  -4.31836490E-03
   3.99999990E-04  -4.46463097E-03
   4.49999992E-04  -4.61304514E-03
   5.00000024E-04  -4.76360787E-03
   5.49999997E-04  -4.91636200E-03
   6.00000028E-04  -5.07137878E-03
   6.50000002E-04  -5.22871735E-03
   6.99999975E-04  -5.38841030E-03
   7.50000007E-04  -5.55044273E-03
   7.99999980E-04  -5.71476715E-03
   8.50000011E-04  -5.88133465E-03
   8.99999985E-04  -6.05010893E-03
   9.50000016E-04  -6.22108951E-03
   1.00000005E-03  -6.39431784E-03
   1.04999996E-03  -6.56986702E-03
   1.09999999E-03  -6.74779713E-03
   1.15000003E-03  -6.92813192E-03
   1.20000006E-03  -7.11085042E-03
   1.24999997E-03  -7.29591353E-03
   1.30000000E-03  -7.48326769E-03
   1.35000004E-03  -7.67286541E-03
   1.39999995E-03  -7.86470156E-03
   1.44999998E-03  -8.05879477E-03
   1.50000001E-03  -8.25518835E-03
   1.55000004E-03  -8.45394749E-03
   1.59999996E-03  -8.65511782E-03
   1.64999999E-03  -8.85869749E-03
   1.70000002E-03  -9.06463992E-03
   1.75000005E-03  -9.27287061E-03
   1.79999997E-03  -9.48332343E-03
   1.85000000E-03  -9.69597325E-03
   1.90000003E-03  -9.91083402E-03
   1.94999995E-03  -1.01279486E-02
   2.00000009E-03  -1.03473719E-02
   2.05000001E-03  -1.05691468E-02
   2.09999993E-03  -1.07932845E-02
   2.15000007E-03  -1.10197412E-02
   2.19999999E-03  -1.12484312E-02
   2.24999990E-03  -1.14792818E-02
   2.30000005E-03  -1.17122494E-02
   2.34999997E-03  -1.19473347E-02
   2.40000011E-03  -1.21845864E-02
   2.45000003E-03  -1.24240499E-02
   2.49999994E-03  -1.26657523E-02
   2.55000009E-03  -1.29096927E-02
   2.60000001E-03  -1.31558338E-02
   2.64999992E-03  -1.34040955E-02
   2.70000007E-03  -1.36544025E-02
   2.74999999E-03  -1.39067089E-02
   2.79999990E-03  -1.41609767E-02