  -3.99999991E-02   0.00000000    
  -3.99499983E-02   0.00000000    
  -3.99000011E-02   0.00000000    
  -3.98500003E-02   5.60335818E-19
  -3.97999994E-02   5.62620211E-18
  -3.97499986E-02   2.83875548E-17
  -3.97000015E-02   9.47341501E-17
  -3.96500006E-02   2.30140943E-16
  -3.95999998E-02   4.15112610E-16
  -3.95499989E-02   5.11583019E-16
  -3.95000018E-02   1.95907974E-16
  -3.94500010E-02  -1.03553642E-15
  -3.94000001E-02  -3.72399729E-15
  -3.93499993E-02  -8.16198407E-15
  -3.92999984E-02  -1.40613890E-14
  -3.92500013E-02  -2.03782930E-14
  -3.92000005E-02  -2.55137725E-14
  -3.91499996E-02  -2.79726481E-14
  -3.90999988E-02  -2.72876018E-14
  -3.90500017E-02  -2.47420255E-14
  -3.90000008E-02  -2.33531100E-14
  -3.89500000E-02  -2.68398347E-14
  -3.88999991E-02  -3.78373006E-14
  -3.88499983E-02  -5.61585555E-14
  -3.88000011E-02  -7.81074830E-14
  -3.87500003E-02  -9.75066179E-14
  -3.86999995E-02  -1.08302080E-13
  -3.86499986E-02  -1.07699135E-13
  -3.86000015E-02  -9.82440922E-14
  -3.85500006E-02  -8.74754777E-14
  -3.84999998E-02  -8.47766884E-14
  -3.84499989E-02  -9.65096330E-14
  -3.84000018E-02  -1.21689293E-13
  -3.83500010E-02  -1.50641300E-13
  -3.83000001E-02  -1.67939027E-13
  -3.82499993E-02  -1.58830048E-13
  -3.81999984E-02  -1.16356577E-13
  -3.81500013E-02  -4.55970643E-14
  -3.81000005E-02   3.75047656E-14
  -3.80499996E-02   1.12765523E-13
  -3.79999988E-02   1.65115588E-13
  -3.79500017E-02   1.92317530E-13
  -3.79000008E-02   2.07099325E-13
  -3.78500000E-02   2.32170999E-13
  -3.77999991E-02   2.90002858E-13
  -3.77499983E-02   3.92023843E-13
  -3.77000012E-02   5.32537610E-13
  -3.76500003E-02   6.90616238E-13
  -3.75999995E-02   8.39338364E-13
  -3.75499986E-02   9.57964394E-13
  -3.75000015E-02   1.04108562E-12
  -3.74500006E-02   1.10035212E-12
  -3.73999998E-02   1.15823854E-12
  -3.73499990E-02   1.23731255E-12
  -3.73000018E-02   1.35040514E-12
  -3.72500010E-02   1.49606250E-12
  -3.72000001E-02   1.66043069E-12
  -3.71499993E-02   1.82321107E-12
  -3.70999984E-02   1.96357427E-12
  -3.70500013E-02   2.06293251E-12
  -3.70000005E-02   2.10456674E-12
  -3.69499996E-02   2.07327384E-12
  -3.68999988E-02   1.95891892E-12
  -3.68500017E-02   1.76488815E-12
  -3.68000008E-02   1.51720270E-12
  -3.67500000E-02   1.26608305E-12
  -3.66999991E-02   1.07277381E-12
  -3.66499983E-02   9.81696061E-13
  -3.66000012E-02   9.88428415E-13
  -3.65500003E-02   1.02147858E-12
  -3.64999995E-02   9.54389779E-13
  -3.64499986E-02   6.52532444E-13
  -3.64000015E-02   4.02658457E-14
  -3.63500006E-02  -8.41933023E-13
  -3.62999998E-02  -1.82438439E-12
  -3.62499990E-02  -2.65878357E-12
  -3.62000018E-02  -3.12279543E-12
  -3.61500010E-02  -3.13716522E-12
  -3.61000001E-02  -2.83649948E-12
  -3.60499993E-02  -2.54533525E-12
  -3.59999985E-02  -2.65043998E-12
  -3.59500013E-02  -3.41353334E-12
  -3.59000005E-02  -4.80969084E-12
  -3.58499996E-02  -6.48090652E-12
  -3.57999988E-02  -7.85204280E-12
  -3.57500017E-02  -8.38114213E-12
  -3.57000008E-02  -7.84101777E-12
  -3.56500000E-02  -6.49321829E-12
  -3.55999991E-02  -5.04466954E-12
  -3.55499983E-02  -4.36848821E-12
  -3.55000012E-02  -5.08805281E-12
  -3.54500003E-02  -7.21171300E-12
  -3.53999995E-02  -1.00133703E-11
  -3.53499986E-02  -1.22632824E-11
  -3.53000015E-02  -1.27533643E-11
  -3.52500007E-02  -1.09026408E-11
  -3.51999998E-02  -7.15262615E-12
  -3.51499990E-02  -2.92113079E-12
  -3.51000018E-02  -6.71431836E-14
  -3.50500010E-02  -5.57325894E-14
  -3.50000001E-02  -3.18958488E-12
  -3.49499993E-02  -8.29573129E-12
  -3.48999985E-02  -1.30884878E-11
  -3.48500013E-02  -1.51280169E-11
  -3.48000005E-02  -1.29885217E-11
  -3.47499996E-02  -7.09232759E-12
  -3.46999988E-02   2.44873837E-13
  -3.46500017E-02   5.68646649E-12
  -3.46000008E-02   6.36046164E-12
  -3.45500000E-02   1.31318068E-12
  -3.44999991E-02  -7.78150201E-12
  -3.44499983E-02  -1.70969419E-11
  -3.44000012E-02  -2.22300737E-11
  -3.43500003E-02  -2.02506154E-11
  -3.42999995E-02  -1.12877754E-11
  -3.42499986E-02   1.16948400E-12
  -3.42000015E-02   1.15573271E-11
  -3.41500007E-02   1.46722599E-11
  -3.40999998E-02   8.21369708E-12
  -3.40499990E-02  -5.78171322E-12
  -3.40000018E-02  -2.14314174E-11
  -3.39500010E-02  -3.14018603E-11
  -3.39000002E-02  -3.02622233E-11
  -3.38499993E-02  -1.72859019E-11
  -3.37999985E-02   2.70843287E-12
  -3.37500013E-02   2.10908669E-11
  -3.37000005E-02   2.91703432E-11
  -3.36499996E-02   2.23727026E-11
  -3.35999988E-02   2.88616852E-12
  -3.35500017E-02  -2.06545562E-11
  -3.35000008E-02  -3.66016904E-11
  -3.34500000E-02  -3.55224045E-11
  -3.33999991E-02  -1.49047320E-11
  -3.33499983E-02   1.89580435E-11
  -3.33000012E-02   5.30830969E-11
  -3.32500003E-02   7.32971739E-11
  -3.31999995E-02   7.08288775E-11
  -3.31499986E-02   4.69645850E-11
  -3.31000015E-02   1.33739148E-11
  -3.30500007E-02  -1.24540621E-11
  -3.29999998E-02  -1.49518193E-11
  -3.29499990E-02   1.19859209E-11
  -3.29000019E-02   6.12510043E-11
  -3.28500010E-02   1.14675769E-10
  -3.28000002E-02   1.50597174E-10
  -3.27499993E-02   1.53730709E-10
  -3.26999985E-02   1.22888796E-10
  -3.26500013E-02   7.27125790E-11
  -3.26000005E-02   2.80896313E-11
  -3.25499997E-02   1.32729973E-11
  -3.24999988E-02   4.03870964E-11
  -3.24500017E-02   1.02683584E-10
  -3.24000008E-02   1.76110973E-10
  -3.23500000E-02   2.29135058E-10
  -3.22999991E-02   2.36858311E-10
  -3.22499983E-02   1.93146638E-10
  -3.22000012E-02   1.14910984E-10
  -3.21500003E-02   3.59193127E-11
  -3.20999995E-02  -7.76740131E-12
  -3.20499986E-02   5.45596337E-12
  -3.20000015E-02   7.14966142E-11
  -3.19500007E-02   1.60519514E-10
  -3.18999998E-02   2.28966068E-10
  -3.18499990E-02   2.38907588E-10
  -3.18000019E-02   1.76216167E-10
  -3.17500010E-02   5.89609681E-11
  -3.17000002E-02  -6.86139826E-11
  -3.16499993E-02  -1.54768490E-10
  -3.15999985E-02  -1.63793423E-10
  -3.15500014E-02  -9.37529152E-11
  -3.15000005E-02   2.02454060E-11
  -3.14499997E-02   1.19797741E-10
  -3.13999988E-02   1.48751692E-10
  -3.13500017E-02   7.94743507E-11
  -3.13000008E-02  -7.23336183E-11
  -3.12500000E-02  -2.51945881E-10
  -3.11999992E-02  -3.88321431E-10
  -3.11500002E-02  -4.25890601E-10
  -3.10999993E-02  -3.51252999E-10
  -3.10500003E-02  -2.02057399E-10
  -3.09999995E-02  -5.27841347E-11
  -3.09500005E-02   1.74659696E-11
  -3.08999997E-02  -3.86061044E-11
  -3.08500007E-02  -2.12478798E-10
  -3.07999998E-02  -4.40108505E-10
  -3.07500008E-02  -6.27933261E-10
  -3.07000000E-02  -6.94145685E-10
  -3.06499992E-02  -6.07084827E-10
  -3.06000002E-02  -4.02818612E-10
  -3.05499993E-02  -1.72534043E-10
  -3.05000003E-02  -2.37486246E-11
  -3.04499995E-02  -3.16969645E-11
  -3.04000005E-02  -2.02756242E-10
  -3.03499997E-02  -4.67494099E-10
  -3.03000007E-02  -7.08270498E-10
  -3.02499998E-02  -8.10662426E-10
  -3.02000009E-02  -7.16366633E-10
  -3.01500000E-02  -4.53274945E-10
  -3.00999992E-02  -1.27566582E-10
  -3.00500002E-02   1.20690277E-10
  -2.99999993E-02   1.80029561E-10
  -2.99500003E-02   2.04128069E-11
  -2.98999995E-02  -2.88452623E-10
  -2.98500005E-02  -6.03629480E-10
  -2.97999997E-02  -7.70567332E-10
  -2.97500007E-02  -6.93419322E-10
  -2.96999998E-02  -3.82233106E-10
  -2.96500009E-02   4.58901389E-11
  -2.96000000E-02   4.14650980E-10
  -2.95499992E-02   5.66064917E-10
  -2.95000002E-02   4.33651948E-10
  -2.94499993E-02   7.75303294E-11
  -2.94000003E-02  -3.36632472E-10
  -2.93499995E-02  -6.08053607E-10
  -2.93000005E-02  -5.90922422E-10
  -2.92499997E-02  -2.63900402E-10
  -2.92000007E-02   2.53803645E-10
  -2.91499998E-02   7.49808993E-10
  -2.91000009E-02   1.01088460E-09
  -2.90500000E-02   9.20240328E-10
  -2.89999992E-02   5.15580301E-10
  -2.89500002E-02  -2.05104388E-11
  -2.88999993E-02  -4.36740755E-10
  -2.88500004E-02  -5.24289168E-10
  -2.87999995E-02  -2.13931414E-10
  -2.87500005E-02   3.85844690E-10
  -2.86999997E-02   1.02990017E-09
  -2.86500007E-02   1.44166434E-09
  -2.85999998E-02   1.43754542E-09
  -2.85500009E-02   1.01473763E-09
  -2.85000000E-02   3.60737995E-10
  -2.84499992E-02  -2.23333005E-10
  -2.84000002E-02  -4.54612237E-10
  -2.83499993E-02  -1.98043859E-10
  -2.83000004E-02   4.65471356E-10
  -2.82499995E-02   1.26608835E-09
  -2.82000005E-02   1.85916027E-09
  -2.81499997E-02   1.97848182E-09
  -2.81000007E-02   1.56069135E-09
  -2.80499998E-02   7.83016485E-10
  -2.80000009E-02  -6.59086587E-12
  -2.79500000E-02  -4.39889569E-10
  -2.78999992E-02  -2.94546942E-10
  -2.78500002E-02   3.98657857E-10
  -2.77999993E-02   1.35880429E-09
  -2.77500004E-02   2.17132001E-09
  -2.76999995E-02   2.46997112E-09
  -2.76500005E-02   2.10459650E-09
  -2.75999997E-02   1.21795585E-09
  -2.75500007E-02   1.93067007E-10
  -2.74999999E-02  -5.10485210E-10
  -2.74500009E-02  -5.61690416E-10
  -2.74000000E-02   8.65122349E-11
  -2.73499992E-02   1.16403354E-09
  -2.73000002E-02   2.19262497E-09
  -2.72499993E-02   2.69350475E-09
  -2.72000004E-02   2.40365550E-09
  -2.71499995E-02   1.40327439E-09
  -2.71000005E-02   9.31844116E-11
  -2.70499997E-02  -9.73550796E-10
  -2.70000007E-02  -1.33546452E-09
  -2.69499999E-02  -8.34732172E-10
  -2.69000009E-02   2.99638064E-10
  -2.68500000E-02   1.54007873E-09
  -2.67999992E-02   2.28696884E-09
  -2.67500002E-02   2.13638640E-09
  -2.66999993E-02   1.06977127E-09
  -2.66500004E-02  -5.23153298E-10
  -2.65999995E-02  -2.00486916E-09
  -2.65500005E-02  -2.76844569E-09
  -2.64999997E-02  -2.51260035E-09
  -2.64500007E-02  -1.38913525E-09
  -2.63999999E-02   4.85835608E-11
  -2.63500009E-02   1.08029852E-09
  -2.63000000E-02   1.13762966E-09
  -2.62499992E-02   6.62584015E-11
  -2.62000002E-02  -1.78884141E-09
  -2.61499994E-02  -3.72008380E-09
  -2.61000004E-02  -4.96238206E-09
  -2.60499995E-02  -5.03528241E-09
  -2.60000005E-02  -3.96924227E-09
  -2.59499997E-02  -2.30987762E-09
  -2.59000007E-02  -8.90258145E-10
  -2.58499999E-02  -4.65529892E-10
  -2.58000009E-02  -1.36957812E-09
  -2.57500000E-02  -3.34917494E-09
  -2.56999992E-02  -5.65662228E-09
  -2.56500002E-02  -7.36828776E-09
  -2.55999994E-02  -7.79352582E-09
  -2.55500004E-02  -6.79301904E-09
  -2.54999995E-02  -4.86001062E-09
  -2.54500005E-02  -2.91961966E-09
  -2.53999997E-02  -1.92680871E-09
  -2.53500007E-02  -2.43701015E-09
  -2.52999999E-02  -4.34171632E-09
  -2.52500009E-02  -6.89363056E-09
  -2.52000000E-02  -9.01991815E-09
  -2.51499992E-02  -9.79236781E-09
  -2.51000002E-02  -8.84824658E-09
  -2.50499994E-02  -6.57091537E-09
  -2.50000004E-02  -3.94097910E-09
  -2.49499995E-02  -2.11400497E-09
  -2.49000005E-02  -1.90571248E-09
  -2.48499997E-02  -3.41311979E-09
  -2.48000007E-02  -5.94649618E-09
  -2.47499999E-02  -8.31283664E-09
  -2.47000009E-02  -9.33481470E-09
  -2.46500000E-02  -8.37945269E-09
  -2.45999992E-02  -5.65916647E-09
  -2.45500002E-02  -2.16252527E-09
  -2.44999994E-02   7.65962405E-10
  -2.44500004E-02   2.01929895E-09
  -2.43999995E-02   1.23340860E-09
  -2.43500005E-02  -1.02546549E-09
  -2.42999997E-02  -3.48552698E-09
  -2.42500007E-02  -4.71827377E-09
  -2.41999999E-02  -3.77485243E-09
  -2.41500009E-02  -6.26712515E-10
  -2.41000000E-02   3.79345400E-09
  -2.40499992E-02   7.98106914E-09
  -2.40000002E-02   1.05174989E-08
  -2.39499994E-02   1.07089368E-08
  -2.39000004E-02   8.91873597E-09
  -2.38499995E-02   6.43472253E-09
  -2.38000005E-02   4.91713292E-09
  -2.37499997E-02   5.66269343E-09
  -2.37000007E-02   9.00991992E-09
  -2.36499999E-02   1.41568135E-08
  -2.36000009E-02   1.94849932E-08
  -2.35500000E-02   2.32594104E-08
  -2.34999992E-02   2.44004603E-08
  -2.34500002E-02   2.29839436E-08
  -2.33999994E-02   2.02366248E-08
  -2.33500004E-02   1.80150685E-08
  -2.32999995E-02   1.79870412E-08
  -2.32500006E-02   2.08745288E-08
  -2.31999997E-02   2.60997073E-08
  -2.31500007E-02   3.20040776E-08
  -2.30999999E-02   3.65581236E-08
  -2.30500009E-02   3.82563954E-08
  -2.30000000E-02   3.68016586E-08
  -2.29499992E-02   3.32653229E-08
  -2.29000002E-02   2.96380520E-08
  -2.28499994E-02   2.79558883E-08
  -2.28000004E-02   2.93827451E-08
  -2.27499995E-02   3.36596351E-08
  -2.27000006E-02   3.91774009E-08
  -2.26499997E-02   4.36567547E-08
  -2.26000007E-02   4.51463755E-08
  -2.25499999E-02   4.28997282E-08
  -2.25000009E-02   3.77341749E-08
  -2.24500000E-02   3.16981819E-08
  -2.23999992E-02   2.71784373E-08
  -2.23500002E-02   2.58330388E-08
  -2.22999994E-02   2.78247168E-08
  -2.22500004E-02   3.17054401E-08
  -2.21999995E-02   3.50201645E-08
  -2.21500006E-02   3.53767149E-08
  -2.20999997E-02   3.15135793E-08
  -2.20500007E-02   2.38870950E-08
  -2.19999999E-02   1.45029970E-08
  -2.19500009E-02   6.05008399E-09
  -2.19000001E-02   7.07704451E-10
  -2.18499992E-02  -8.46502701E-10
  -2.18000002E-02   2.20950480E-10
  -2.17499994E-02   1.37508938E-09
  -2.17000004E-02  -1.87731233E-10
  -2.16499995E-02  -6.29426244E-09
  -2.16000006E-02  -1.69575802E-08
  -2.15499997E-02  -3.03328562E-08
  -2.15000007E-02  -4.35033591E-08
  -2.14499999E-02  -5.37634044E-08
  -2.14000009E-02  -5.98340577E-08
  -2.13500001E-02  -6.24664338E-08
  -2.12999992E-02  -6.41491695E-08
  -2.12500002E-02  -6.80317385E-08
  -2.11999994E-02  -7.65289059E-08
  -2.11500004E-02  -9.02242618E-08
  -2.10999995E-02  -1.07569768E-07
  -2.10500006E-02  -1.25532054E-07
  -2.09999997E-02  -1.40916100E-07
  -2.09500007E-02  -1.51788313E-07
  -2.08999999E-02  -1.58363463E-07
  -2.08500009E-02  -1.62948211E-07
  -2.08000001E-02  -1.68948148E-07
  -2.07499992E-02  -1.79363042E-07
  -2.07000002E-02  -1.95434538E-07
  -2.06499994E-02  -2.16053152E-07
  -2.06000004E-02  -2.38204194E-07
  -2.05499995E-02  -2.58272820E-07
  -2.05000006E-02  -2.73642655E-07
  -2.04499997E-02  -2.83877625E-07
  -2.04000007E-02  -2.90950396E-07
  -2.03499999E-02  -2.98398646E-07
  -2.03000009E-02  -3.09766250E-07
  -2.02500001E-02  -3.27014362E-07
  -2.01999992E-02  -3.49610048E-07
  -2.01500002E-02  -3.74713267E-07
  -2.00999994E-02  -3.98397617E-07
  -2.00500004E-02  -4.17377578E-07
  -1.99999996E-02  -4.30478877E-07
  -1.99500006E-02  -4.39192689E-07
  -1.98999997E-02  -4.47049672E-07
  -1.98500007E-02  -4.58072691E-07
  -1.97999999E-02  -4.74983608E-07
  -1.97500009E-02  -4.97964152E-07
  -1.97000001E-02  -5.24529298E-07
  -1.96499992E-02  -5.50585810E-07
  -1.96000002E-02  -5.72228942E-07
  -1.95499994E-02  -5.87482646E-07
  -1.95000004E-02  -5.97205542E-07
  -1.94499996E-02  -6.04748720E-07
  -1.94000006E-02  -6.14496741E-07
  -1.93499997E-02  -6.29928024E-07
  -1.93000007E-02  -6.52048413E-07
  -1.92499999E-02  -6.78903746E-07
  -1.92000009E-02  -7.06410162E-07
  -1.91500001E-02  -7.30144222E-07
  -1.90999992E-02  -7.47308093E-07
  -1.90500002E-02  -7.58003580E-07
  -1.89999994E-02  -7.65230027E-07
  -1.89500004E-02  -7.73591239E-07
  -1.88999996E-02  -7.87272654E-07
  -1.88500006E-02  -8.08179777E-07
  -1.87999997E-02  -8.35066999E-07
  -1.87500007E-02  -8.64055721E-07
  -1.86999999E-02  -8.90337844E-07
  -1.86500009E-02  -9.10313190E-07
  -1.86000001E-02  -9.23217385E-07
  -1.85499992E-02  -9.31508396E-07
  -1.85000002E-02  -9.39823053E-07
  -1.84499994E-02  -9.52951893E-07
  -1.84000004E-02  -9.73723218E-07
  -1.83499996E-02  -1.00173509E-06
  -1.83000006E-02  -1.03351169E-06
  -1.82499997E-02  -1.06402888E-06
  -1.82000007E-02  -1.08894506E-06
  -1.81499999E-02  -1.10655697E-06
  -1.81000009E-02  -1.11860572E-06
  -1.80500001E-02  -1.12955877E-06
  -1.79999992E-02  -1.14466934E-06
  -1.79500002E-02  -1.16767421E-06
  -1.78999994E-02  -1.19913807E-06
  -1.78500004E-02  -1.23618941E-06
  -1.77999996E-02  -1.27377996E-06
  -1.77500006E-02  -1.30692661E-06
  -1.76999997E-02  -1.33295134E-06
  -1.76500008E-02  -1.35271262E-06
  -1.75999999E-02  -1.37027780E-06
  -1.75500009E-02  -1.39117412E-06
  -1.75000001E-02  -1.41996622E-06
  -1.74499992E-02  -1.45824629E-06
  -1.74000002E-02  -1.50392373E-06
  -1.73499994E-02  -1.55214252E-06
  -1.73000004E-02  -1.59743661E-06
  -1.72499996E-02  -1.63617085E-06
  -1.72000006E-02  -1.66819814E-06
  -1.71499997E-02  -1.69697012E-06
  -1.71000008E-02  -1.72806199E-06
  -1.70499999E-02  -1.76673780E-06
  -1.70000009E-02  -1.81563485E-06
  -1.69500001E-02  -1.87360445E-06
  -1.68999992E-02  -1.93621099E-06
  -1.68500002E-02  -1.99769897E-06
  -1.67999994E-02  -2.05355241E-06
  -1.67500004E-02  -2.10253120E-06
  -1.66999996E-02  -2.14727061E-06
  -1.66500006E-02  -2.19314597E-06
  -1.65999997E-02  -2.24593441E-06
  -1.65500008E-02  -2.30928458E-06
  -1.64999999E-02  -2.38310326E-06
  -1.64500009E-02  -2.46359218E-06
  -1.64000001E-02  -2.54491897E-06
  -1.63499992E-02  -2.62181379E-06
  -1.63000003E-02  -2.69193197E-06
  -1.62499994E-02  -2.75691332E-06
  -1.62000004E-02  -2.82169685E-06
  -1.61499996E-02  -2.89237892E-06
  -1.61000006E-02  -2.97353517E-06
  -1.60499997E-02  -3.06620404E-06
  -1.60000008E-02  -3.16742467E-06
  -1.59499999E-02  -3.27154453E-06
  -1.59000009E-02  -3.37273286E-06
  -1.58500001E-02  -3.46756951E-06
  -1.57999992E-02  -3.55658312E-06
  -1.57500003E-02  -3.64403718E-06
  -1.56999994E-02  -3.73609259E-06
  -1.56500004E-02  -3.83810948E-06
  -1.55999996E-02  -3.95227835E-06
  -1.55499997E-02  -4.07666357E-06
  -1.54999997E-02  -4.20604511E-06
  -1.54499998E-02  -4.33424566E-06
  -1.53999999E-02  -4.45686283E-06
  -1.53500000E-02  -4.57323995E-06
  -1.53000001E-02  -4.68677081E-06
  -1.52500002E-02  -4.80342032E-06
  -1.52000003E-02  -4.92913250E-06
  -1.51500003E-02  -5.06722972E-06
  -1.51000004E-02  -5.21695347E-06
  -1.50499996E-02  -5.37379083E-06
  -1.49999997E-02  -5.53149266E-06
  -1.49499997E-02  -5.68485166E-06
  -1.48999998E-02  -5.83201609E-06
  -1.48499999E-02  -5.97532335E-06
  -1.48000000E-02  -6.12032045E-06
  -1.47500001E-02  -6.27331929E-06
  -1.47000002E-02  -6.43865087E-06
  -1.46500003E-02  -6.61678587E-06
  -1.46000003E-02  -6.80412904E-06
  -1.45500004E-02  -6.99461907E-06
  -1.44999996E-02  -7.18243882E-06
  -1.44499997E-02  -7.36461880E-06
  -1.43999998E-02  -7.54236453E-06
  -1.43499998E-02  -7.72057865E-06
  -1.42999999E-02  -7.90570266E-06
  -1.42500000E-02  -8.10291385E-06
  -1.42000001E-02  -8.31391480E-06
  -1.41500002E-02  -8.53621623E-06
  -1.41000003E-02  -8.76424383E-06
  -1.40500003E-02  -8.99186671E-06
  -1.40000004E-02  -9.21512492E-06
  -1.39499996E-02  -9.43401028E-06
  -1.38999997E-02  -9.65254731E-06
  -1.38499998E-02  -9.87703334E-06
  -1.37999998E-02  -1.01132764E-05
  -1.37499999E-02  -1.03641314E-05
  -1.37000000E-02  -1.06283369E-05
  -1.36500001E-02  -1.09010743E-05
  -1.36000002E-02  -1.11761919E-05
  -1.35500003E-02  -1.14489749E-05
  -1.35000004E-02  -1.17181653E-05
  -1.34500004E-02  -1.19866390E-05
  -1.33999996E-02  -1.22602296E-05
  -1.33499997E-02  -1.25451670E-05
  -1.32999998E-02  -1.28454531E-05
  -1.32499998E-02  -1.31611514E-05
  -1.31999999E-02  -1.34883630E-05
  -1.31500000E-02  -1.38211453E-05
  -1.31000001E-02  -1.41541650E-05
  -1.30500002E-02  -1.44850364E-05
  -1.30000003E-02  -1.48154968E-05
  -1.29500004E-02  -1.51507056E-05
  -1.29000004E-02  -1.54969912E-05
  -1.28499996E-02  -1.58591283E-05
  -1.27999997E-02  -1.62383985E-05
  -1.27499998E-02  -1.66321224E-05
  -1.26999998E-02  -1.70348940E-05
  -1.26499999E-02  -1.74410270E-05
  -1.26000000E-02  -1.78471691E-05
  -1.25500001E-02  -1.82538188E-05
  -1.25000002E-02  -1.86651832E-05
  -1.24500003E-02  -1.90873925E-05
  -1.24000004E-02  -1.95259108E-05
  -1.23500004E-02  -1.99832630E-05
  -1.22999996E-02  -2.04579610E-05
  -1.22499997E-02  -2.09453392E-05
  -1.21999998E-02  -2.14396641E-05
  -1.21499998E-02  -2.19366812E-05
  -1.20999999E-02  -2.24356609E-05
  -1.20500000E-02  -2.29396774E-05
  -1.20000001E-02  -2.34543641E-05
  -1.19500002E-02  -2.39855817E-05
  -1.19000003E-02  -2.45368792E-05
  -1.18500004E-02  -2.51081801E-05
  -1.18000004E-02  -2.56958374E-05
  -1.17499996E-02  -2.62942613E-05
  -1.16999997E-02  -2.68986605E-05
  -1.16499998E-02  -2.75071598E-05
  -1.15999999E-02  -2.81216307E-05
  -1.15499999E-02  -2.87468538E-05
  -1.15000000E-02  -2.93886569E-05
  -1.14500001E-02  -3.00515494E-05
  -1.14000002E-02  -3.07367409E-05
  -1.13500003E-02  -3.14417885E-05
  -1.13000004E-02  -3.21616353E-05
  -1.12500004E-02  -3.28909773E-05
  -1.11999996E-02  -3.36267003E-05
  -1.11499997E-02  -3.43693318E-05
  -1.10999998E-02  -3.51227573E-05
  -1.10499999E-02  -3.58927791E-05
  -1.09999999E-02  -3.66846798E-05
  -1.09500000E-02  -3.75009076E-05
  -1.09000001E-02  -3.83400875E-05
  -1.08500002E-02  -3.91978792E-05
  -1.08000003E-02  -4.00691606E-05
  -1.07500004E-02  -4.09501190E-05
  -1.07000005E-02  -4.18399104E-05
  -1.06499996E-02  -4.27412451E-05
  -1.05999997E-02  -4.36594564E-05
  -1.05499998E-02  -4.46000231E-05
  -1.04999999E-02  -4.55662812E-05
  -1.04499999E-02  -4.65581688E-05
  -1.04000000E-02  -4.75723718E-05
  -1.03500001E-02  -4.86039607E-05
  -1.03000002E-02  -4.96483517E-05
  -1.02500003E-02  -5.07033365E-05
  -1.02000004E-02  -5.17705303E-05
  -1.01500005E-02  -5.28545352E-05
  -1.00999996E-02  -5.39608736E-05
  -1.00499997E-02  -5.50940495E-05
  -9.99999978E-03  -5.62554487E-05
  -9.94999986E-03  -5.74428705E-05
  -9.89999995E-03  -5.86516835E-05
  -9.85000003E-03  -5.98769147E-05
  -9.80000012E-03  -6.11154828E-05
  -9.75000020E-03  -6.23676460E-05
  -9.70000029E-03  -6.36370969E-05
  -9.65000037E-03  -6.49294016E-05
  -9.60000046E-03  -6.62496022E-05
  -9.54999961E-03  -6.76000782E-05
  -9.49999969E-03  -6.89798981E-05
  -9.44999978E-03  -7.03851474E-05
  -9.39999986E-03  -7.18108422E-05
  -9.34999995E-03  -7.32531771E-05
  -9.30000003E-03  -7.47108861E-05
  -9.25000012E-03  -7.61862029E-05
  -9.20000020E-03  -7.76837333E-05
  -9.15000029E-03  -7.92087303E-05
  -9.10000037E-03  -8.07650213E-05
  -9.05000046E-03  -8.23532973E-05
  -8.99999961E-03  -8.39713393E-05
  -8.94999970E-03  -8.56144616E-05
  -8.89999978E-03  -8.72772289E-05
  -8.84999987E-03  -8.89570074E-05
  -8.79999995E-03  -9.06549831E-05
  -8.75000004E-03  -9.23749903E-05
  -8.70000012E-03  -9.41228500E-05
  -8.65000021E-03  -9.59033059E-05
  -8.60000029E-03  -9.77184682E-05
  -8.55000038E-03  -9.95672890E-05
  -8.50000046E-03  -1.01445235E-04
  -8.44999962E-03  -1.03346909E-04
  -8.39999970E-03  -1.05268256E-04
  -8.34999979E-03  -1.07208798E-04
  -8.29999987E-03  -1.09171655E-04
  -8.24999996E-03  -1.11162270E-04
  -8.20000004E-03  -1.13186114E-04
  -8.15000013E-03  -1.15246323E-04
  -8.10000021E-03  -1.17342577E-04
  -8.05000030E-03  -1.19471217E-04
  -8.00000038E-03  -1.21626836E-04
  -7.95000046E-03  -1.23804668E-04
  -7.89999962E-03  -1.26002618E-04
  -7.84999970E-03  -1.28222367E-04
  -7.79999979E-03  -1.30469329E-04
  -7.74999987E-03  -1.32749410E-04
  -7.69999996E-03  -1.35066526E-04
  -7.65000004E-03  -1.37421535E-04
  -7.60000013E-03  -1.39811978E-04
  -7.55000021E-03  -1.42232951E-04
  -7.49999983E-03  -1.44679681E-04
  -7.44999992E-03  -1.47149098E-04
  -7.40000000E-03  -1.49640633E-04
  -7.35000009E-03  -1.52157692E-04
  -7.30000017E-03  -1.54706431E-04
  -7.24999979E-03  -1.57292525E-04
  -7.19999988E-03  -1.59918884E-04
  -7.14999996E-03  -1.62584722E-04
  -7.10000005E-03  -1.65285703E-04
  -7.05000013E-03  -1.68015671E-04
  -7.00000022E-03  -1.70768704E-04
  -6.94999984E-03  -1.73542474E-04
  -6.89999992E-03  -1.76339992E-04
  -6.85000001E-03  -1.79167255E-04
  -6.80000009E-03  -1.82030533E-04
  -6.75000018E-03  -1.84934121E-04
  -6.69999979E-03  -1.87879283E-04
  -6.64999988E-03  -1.90862353E-04
  -6.59999996E-03  -1.93876214E-04
  -6.55000005E-03  -1.96915105E-04
  -6.50000013E-03  -1.99975693E-04
  -6.45000022E-03  -2.03058371E-04
  -6.39999984E-03  -2.06168435E-04
  -6.34999992E-03  -2.09312828E-04
  -6.30000001E-03  -2.12496961E-04
  -6.25000009E-03  -2.15723194E-04
  -6.20000018E-03  -2.18989357E-04
  -6.14999980E-03  -2.22289731E-04
  -6.09999988E-03  -2.25617216E-04
  -6.04999997E-03  -2.28967241E-04
  -6.00000005E-03  -2.32339007E-04
  -5.95000014E-03  -2.35735235E-04
  -5.90000022E-03  -2.39162036E-04
  -5.84999984E-03  -2.42626556E-04
  -5.79999993E-03  -2.46132317E-04
  -5.75000001E-03  -2.49677920E-04
  -5.70000010E-03  -2.53259554E-04
  -5.65000018E-03  -2.56869185E-04
  -5.59999980E-03  -2.60500063E-04
  -5.54999989E-03  -2.64149858E-04
  -5.49999997E-03  -2.67819822E-04
  -5.45000006E-03  -2.71516386E-04
  -5.40000014E-03  -2.75246886E-04
  -5.35000023E-03  -2.79017753E-04
  -5.29999984E-03  -2.82830995E-04
  -5.24999993E-03  -2.86681781E-04
  -5.20000001E-03  -2.90561147E-04
  -5.15000010E-03  -2.94459955E-04
  -5.10000018E-03  -2.98373605E-04
  -5.04999980E-03  -3.02302709E-04
  -4.99999989E-03  -3.06254311E-04
  -4.94999997E-03  -3.10237636E-04
  -4.90000006E-03  -3.14259611E-04
  -4.85000014E-03  -3.18321661E-04
  -4.80000023E-03  -3.22419684E-04
  -4.74999985E-03  -3.26545385E-04
  -4.69999993E-03  -3.30688490E-04
  -4.65000002E-03  -3.34841723E-04
  -4.60000010E-03  -3.39003687E-04
  -4.55000019E-03  -3.43180931E-04
  -4.49999981E-03  -3.47382767E-04
  -4.44999989E-03  -3.51617491E-04
  -4.39999998E-03  -3.55889497E-04
  -4.35000006E-03  -3.60195932E-04
  -4.30000015E-03  -3.64527397E-04
  -4.25000023E-03  -3.68872075E-04
  -4.19999985E-03  -3.73220828E-04
  -4.14999994E-03  -3.77571356E-04
  -4.10000002E-03  -3.81928374E-04
  -4.05000011E-03  -3.86302476E-04
  -4.00000019E-03  -3.90702218E-04
  -3.94999981E-03  -3.95133509E-04
  -3.89999989E-03  -3.99598561E-04
  -3.84999998E-03  -4.04088089E-04
  -3.80000006E-03  -4.08586842E-04
  -3.74999992E-03  -4.13080561E-04
  -3.70000000E-03  -4.17562027E-04
  -3.65000009E-03  -4.22037381E-04
  -3.59999994E-03  -4.26518876E-04
  -3.55000002E-03  -4.31019464E-04
  -3.50000011E-03  -4.35547030E-04
  -3.44999996E-03  -4.40100790E-04
  -3.40000005E-03  -4.44671488E-04
  -3.34999990E-03  -4.49241052E-04
  -3.29999998E-03  -4.53793560E-04
  -3.25000007E-03  -4.58321156E-04
  -3.19999992E-03  -4.62826632E-04
  -3.15000000E-03  -4.67322621E-04
  -3.10000009E-03  -4.71826963E-04
  -3.04999994E-03  -4.76352259E-04
  -3.00000003E-03  -4.80898219E-04
  -2.95000011E-03  -4.85452008E-04
  -2.89999996E-03  -4.89993312E-04
  -2.85000005E-03  -4.94502368E-04
  -2.79999990E-03  -4.98970563E-04
  -2.74999999E-03  -5.03399933E-04
  -2.70000007E-03  -5.07801655E-04
  -2.64999992E-03  -5.12195751E-04
  -2.60000001E-03  -5.16596192E-04
  -2.55000009E-03  -5.21006528E-04
  -2.49999994E-03  -5.25418029E-04
  -2.45000003E-03  -5.29809040E-04
  -2.40000011E-03  -5.34157560E-04
  -2.34999997E-03  -5.38446300E-04
  -2.30000005E-03  -5.42670605E-04
  -2.24999990E-03  -5.46842348E-04
  -2.19999999E-03  -5.50983124E-04
  -2.15000007E-03  -5.55113947E-04
  -2.09999993E-03  -5.59241686E-04
  -2.05000001E-03  -5.63355396E-04
  -2.00000009E-03  -5.67432202E-04
  -1.94999995E-03  -5.71447017E-04
  -1.90000003E-03  -5.75380516E-04
  -1.85000000E-03  -5.79231069E-04
  -1.79999997E-03  -5.83009329E-04
  -1.75000005E-03  -5.86736423E-04
  -1.70000002E-03  -5.90432319E-04
  -1.64999999E-03  -5.94103185E-04
  -1.59999996E-03  -5.97740582E-04
  -1.55000004E-03  -6.01324544E-04
  -1.50000001E-03  -6.04829693E-04
  -1.44999998E-03  -6.08230999E-04
  -1.39999995E-03  -6.11520896E-04
  -1.35000004E-03  -6.14709803E-04
  -1.30000000E-03  -6.17816229E-04
  -1.24999997E-03  -6.20862644E-04
  -1.20000006E-03  -6.23864064E-04
  -1.15000003E-03  -6.26817404E-04
  -1.09999999E-03  -6.29702117E-04
  -1.04999996E-03  -6.32489566E-04
  -1.00000005E-03  -6.35149830E-04
  -9.50000016E-04  -6.37664169E-04
  -8.99999985E-04  -6.40034734E-04
  -8.50000011E-04  -6.42286614E-04
  -7.99999980E-04  -6.44454325E-04
  -7.50000007E-04  -6.46554457E-04
  -6.99999975E-04  -6.48587244E-04
  -6.50000002E-04  -6.50536036E-04
  -6.00000028E-04  -6.52367075E-04
  -5.49999997E-04  -6.54047995E-04
  -5.00000024E-04  -6.55553828E-04
  -4.49999992E-04  -6.56878867E-04
  -3.99999990E-04  -6.58039819E-04
  -3.49999988E-04  -6.59067882E-04
  -3.00000014E-04  -6.59998215E-04
  -2.50000012E-04  -6.60845428E-04
  -1.99999995E-04  -6.61593163E-04
  -1.50000007E-04  -6.62202714E-04
  -9.99999975E-05  -6.62631821E-04
  -4.99999987E-05  -6.62850915E-04
   0.00000000      -6.62853825E-04
   4.99999987E-05  -6.62661565E-04
   9.99999975E-05  -6.62304985E-04
   1.50000007E-04  -6.61811267E-04
   1.99999995E-04  -6.61196071E-04
   2.50000012E-04  -6.60447928E-04
   3.00000014E-04  -6.59536454E-04
   3.49999988E-04  -6.58424338E-04
   3.99999990E-04  -6.57076191E-04
   4.49999992E-04  -6.55477692E-04
   5.00000024E-04  -6.53639960E-04
   5.49999997E-04  -6.51592680E-04
   6.00000028E-04  -6.49369496E-04
   6.50000002E-04  -6.46991772E-04
   6.99999975E-04  -6.44457992E-04
   7.50000007E-04  -6.41736144E-04
   7.99999980E-04  -6.38782687E-04
   8.50000011E-04  -6.35559903E-04
   8.99999985E-04  -6.32048293E-04
   9.50000016E-04  -6.28256705E-04
   1.00000005E-03  -6.24212902E-04
   1.04999996E-03  -6.19950879E-04
   1.09999999E-03  -6.15497236E-04
   1.15000003E-03  -6.10855874E-04
   1.20000006E-03  -6.06007001E-04
   1.24999997E-03  -6.00900268E-04
   1.30000000E-03  -5.95488178E-04
   1.35000004E-03  -5.89746691E-04
   1.39999995E-03  -5.83683141E-04
   1.44999998E-03  -5.77327388E-04
   1.50000001E-03  -5.70716686E-04
   1.55000004E-03  -5.63878042E-04
   1.59999996E-03  -5.56812738E-04
   1.64999999E-03  -5.49504242E-04
   1.70000002E-03  -5.41907502E-04
   1.75000005E-03  -5.33984916E-04
   1.79999997E-03  -5.25708601E-04
   1.85000000E-03  -5.17064938E-04
   1.90000003E-03  -5.08077734E-04
   1.94999995E-03  -4.98781388E-04
   2.00000009E-03  -4.89214784E-04
   2.05000001E-03  -4.79401206E-04
   2.09999993E-03  -4.69317951E-04
   2.15000007E-03  -4.58921131E-04
   2.19999999E-03  -4.48169041E-04
   2.24999990E-03  -4.37027978E-04
   2.30000005E-03  -4.25482984E-04
   2.34999997E-03  -4.13556205E-04
   2.40000011E-03  -4.01289755E-04
   2.45000003E-03  -3.88715882E-04
   2.49999994E-03  -3.75851901E-04
   2.55000009E-03  -3.62689170E-04
   2.60000001E-03  -3.49192182E-04
   2.64999992E-03  -3.35303863E-04
   2.70000007E-03  -3.20985331E-04
   2.74999999E-03  -3.06229194E-04
   2.79999990E-03  -2.91048549E-04