  -3.99999991E-02   0.00000000    
  -3.99499983E-02   0.00000000    
  -3.99000011E-02   0.00000000    
  -3.98500003E-02  -1.45988486E-19
  -3.97999994E-02  -8.17081564E-19
  -3.97499986E-02  -2.35547310E-18
  -3.97000015E-02  -4.32452051E-18
  -3.96500006E-02  -4.65133543E-18
  -3.95999998E-02   5.73053358E-19
  -3.95499989E-02   1.60057794E-17
  -3.95000018E-02   4.48806561E-17
  -3.94500010E-02   8.69405933E-17
  -3.94000001E-02   1.37955740E-16
  -3.93499993E-02   1.91540288E-16
  -3.92999984E-02   2.42601777E-16
  -3.92500013E-02   2.90671055E-16
  -3.92000005E-02   3.41224285E-16
  -3.91499996E-02   4.03989929E-16
  -3.90999988E-02   4.88724829E-16
  -3.90500017E-02   6.00403952E-16
  -3.90000008E-02   7.36441943E-16
  -3.89500000E-02   8.87836271E-16
  -3.88999991E-02   1.04403566E-15
  -3.88499983E-02   1.19895354E-15
  -3.88000011E-02   1.35447313E-15
  -3.87500003E-02   1.51900430E-15
  -3.86999995E-02   1.70157029E-15
  -3.86499986E-02   1.90468614E-15
  -3.86000015E-02   2.12018382E-15
  -3.85500006E-02   2.33065266E-15
  -3.84999998E-02   2.51614462E-15
  -3.84499989E-02   2.66279948E-15
  -3.84000018E-02   2.76849902E-15
  -3.83500010E-02   2.84155456E-15
  -3.83000001E-02   2.89185582E-15
  -3.82499993E-02   2.91848167E-15
  -3.81999984E-02   2.90089303E-15
  -3.81500013E-02   2.80001881E-15
  -3.81000005E-02   2.57049914E-15
  -3.80499996E-02   2.17875805E-15
  -3.79999988E-02   1.61749803E-15
  -3.79500017E-02   9.08266653E-16
  -3.79000008E-02   8.94757166E-17
  -3.78500000E-02  -8.05433995E-16
  -3.77999991E-02  -1.76962102E-15
  -3.77499983E-02  -2.83324156E-15
  -3.77000012E-02  -4.05579535E-15
  -3.76500003E-02  -5.50174030E-15
  -3.75999995E-02  -7.20958192E-15
  -3.75499986E-02  -9.16950265E-15
  -3.75000015E-02  -1.13218862E-14
  -3.74500006E-02  -1.35792045E-14
  -3.73999998E-02  -1.58616999E-14
  -3.73499990E-02  -1.81299474E-14
  -3.73000018E-02  -2.03987794E-14
  -3.72500010E-02  -2.27258652E-14
  -3.72000001E-02  -2.51794740E-14
  -3.71499993E-02  -2.77985456E-14
  -3.70999984E-02  -3.05610673E-14
  -3.70500013E-02  -3.33735623E-14
  -3.70000005E-02  -3.60863174E-14
  -3.69499996E-02  -3.85287742E-14
  -3.68999988E-02  -4.05514957E-14
  -3.68500017E-02  -4.20593973E-14
  -3.68000008E-02  -4.30258958E-14
  -3.67500000E-02  -4.34857330E-14
  -3.66999991E-02  -4.35103071E-14
  -3.66499983E-02  -4.31715346E-14
  -3.66000012E-02  -4.25009081E-14
  -3.65500003E-02  -4.14528912E-14
  -3.64999995E-02  -3.98860361E-14
  -3.64499986E-02  -3.75761739E-14
  -3.64000015E-02  -3.42689134E-14
  -3.63500006E-02  -2.97628946E-14
  -3.62999998E-02  -2.39971888E-14
  -3.62499990E-02  -1.71049799E-14
  -3.62000018E-02  -9.39897066E-15
  -3.61500010E-02  -1.27519984E-15
  -3.61000001E-02   6.94302277E-15
  -3.60499993E-02   1.51625386E-14
  -3.59999985E-02   2.36010450E-14
  -3.59500013E-02   3.27286653E-14
  -3.59000005E-02   4.30629043E-14
  -3.58499996E-02   5.48851668E-14
  -3.57999988E-02   6.80058833E-14
  -3.57500017E-02   8.17101310E-14
  -3.57000008E-02   9.49515802E-14
  -3.56500000E-02   1.06749618E-13
  -3.55999991E-02   1.16631761E-13
  -3.55499983E-02   1.24908208E-13
  -3.55000012E-02   1.32606220E-13
  -3.54500003E-02   1.41027950E-13
  -3.53999995E-02   1.51078179E-13
  -3.53499986E-02   1.62654598E-13
  -3.53000015E-02   1.74421052E-13
  -3.52500007E-02   1.84152146E-13
  -3.51999998E-02   1.89584771E-13
  -3.51499990E-02   1.89445234E-13
  -3.51000018E-02   1.84176310E-13
  -3.50500010E-02   1.75958220E-13
  -3.50000001E-02   1.67901852E-13
  -3.49499993E-02   1.62678871E-13
  -3.48999985E-02   1.61169824E-13
  -3.48500013E-02   1.61789744E-13
  -3.48000005E-02   1.60919468E-13
  -3.47499996E-02   1.54394252E-13
  -3.46999988E-02   1.39477107E-13
  -3.46500017E-02   1.16424530E-13
  -3.46000008E-02   8.88254585E-14
  -3.45500000E-02   6.23815778E-14
  -3.44999991E-02   4.25137525E-14
  -3.44499983E-02   3.18004561E-14
  -3.44000012E-02   2.84639289E-14
  -3.43500003E-02   2.67635323E-14
  -3.42999995E-02   1.93403151E-14
  -3.42499986E-02   6.21767129E-16
  -3.42000015E-02  -3.02221830E-14
  -3.41500007E-02  -6.82448347E-14
  -3.40999998E-02  -1.04332335E-13
  -3.40499990E-02  -1.28990351E-13
  -3.40000018E-02  -1.36738697E-13
  -3.39500010E-02  -1.29074052E-13
  -3.39000002E-02  -1.14424190E-13
  -3.38499993E-02  -1.04793405E-13
  -3.37999985E-02  -1.10357056E-13
  -3.37500013E-02  -1.34380801E-13
  -3.37000005E-02  -1.70932794E-13
  -3.36499996E-02  -2.06776518E-13
  -3.35999988E-02  -2.26975922E-13
  -3.35500017E-02  -2.21922307E-13
  -3.35000008E-02  -1.92578524E-13
  -3.34500000E-02  -1.51259376E-13
  -3.33999991E-02  -1.17125398E-13
  -3.33499983E-02  -1.08003301E-13
  -3.33000012E-02  -1.32053670E-13
  -3.32500003E-02  -1.83218824E-13
  -3.31999995E-02  -2.42960464E-13
  -3.31499986E-02  -2.88047608E-13
  -3.31000015E-02  -3.01267718E-13
  -3.30500007E-02  -2.80267237E-13
  -3.29999998E-02  -2.40181247E-13
  -3.29499990E-02  -2.08258459E-13
  -3.29000019E-02  -2.12304458E-13
  -3.28500010E-02  -2.67839895E-13
  -3.28000002E-02  -3.69899695E-13
  -3.27499993E-02  -4.93719377E-13
  -3.26999985E-02  -6.04729808E-13
  -3.26500013E-02  -6.73935788E-13
  -3.26000005E-02  -6.91897115E-13
  -3.25499997E-02  -6.74638839E-13
  -3.24999988E-02  -6.58070170E-13
  -3.24500017E-02  -6.82611953E-13
  -3.24000008E-02  -7.74454231E-13
  -3.23500000E-02  -9.31941698E-13
  -3.22999991E-02  -1.12383551E-12
  -3.22499983E-02  -1.30116068E-12
  -3.22000012E-02  -1.41812289E-12
  -3.21500003E-02  -1.45300579E-12
  -3.20999995E-02  -1.41929480E-12
  -3.20499986E-02  -1.36113299E-12
  -3.20000015E-02  -1.33410438E-12
  -3.19500007E-02  -1.37927170E-12
  -3.18999998E-02  -1.50210823E-12
  -3.18499990E-02  -1.66650613E-12
  -3.18000019E-02  -1.80772628E-12
  -3.17500010E-02  -1.85959928E-12
  -3.17000002E-02  -1.78432507E-12
  -3.16499993E-02  -1.59120883E-12
  -3.15999985E-02  -1.33488327E-12
  -3.15500014E-02  -1.09246368E-12
  -3.15000005E-02  -9.28825268E-13
  -3.14499997E-02  -8.65323384E-13
  -3.13999988E-02  -8.66683298E-13
  -3.13500017E-02  -8.53323922E-13
  -3.13000008E-02  -7.35057577E-13
  -3.12500000E-02  -4.51949676E-13
  -3.11999992E-02  -3.90631055E-15
  -3.11500002E-02   5.45377274E-13
  -3.10999993E-02   1.09351026E-12
  -3.10500003E-02   1.54373172E-12
  -3.09999995E-02   1.84917424E-12
  -3.09500005E-02   2.03663865E-12
  -3.08999997E-02   2.19767715E-12
  -3.08500007E-02   2.44914592E-12
  -3.07999998E-02   2.87958893E-12
  -3.07500008E-02   3.50531041E-12
  -3.07000000E-02   4.25691557E-12
  -3.06499992E-02   5.00427174E-12
  -3.06000002E-02   5.61061224E-12
  -3.05499993E-02   5.99258186E-12
  -3.05000003E-02   6.15900690E-12
  -3.04499995E-02   6.20943748E-12
  -3.04000005E-02   6.29097425E-12
  -3.03499997E-02   6.53095590E-12
  -3.03000007E-02   6.97512490E-12
  -3.02499998E-02   7.55994919E-12
  -3.02000009E-02   8.13363526E-12
  -3.01500000E-02   8.51879071E-12
  -3.00999992E-02   8.59020754E-12
  -3.00500002E-02   8.33294631E-12
  -2.99999993E-02   7.85308190E-12
  -2.99500003E-02   7.33377768E-12
  -2.98999995E-02   6.95399554E-12
  -2.98500005E-02   6.80516711E-12
  -2.97999997E-02   6.84384060E-12
  -2.97500007E-02   6.90379915E-12
  -2.96999998E-02   6.76510193E-12
  -2.96500009E-02   6.25135534E-12
  -2.96000000E-02   5.31222332E-12
  -2.95499992E-02   4.05281234E-12
  -2.95000002E-02   2.69396463E-12
  -2.94499993E-02   1.47825599E-12
  -2.94000003E-02   5.61967085E-13
  -2.93499995E-02  -5.83843615E-14
  -2.93000005E-02  -5.49838820E-13
  -2.92499997E-02  -1.17211991E-12
  -2.92000007E-02  -2.16089278E-12
  -2.91499998E-02  -3.61619025E-12
  -2.91000009E-02  -5.44704256E-12
  -2.90500000E-02  -7.40009269E-12
  -2.89999992E-02  -9.16304012E-12
  -2.89500002E-02  -1.04993002E-11
  -2.88999993E-02  -1.13541546E-11
  -2.88500004E-02  -1.18829399E-11
  -2.87999995E-02  -1.23850843E-11
  -2.87500005E-02  -1.31698437E-11
  -2.86999997E-02  -1.44117504E-11
  -2.86500007E-02  -1.60609321E-11
  -2.85999998E-02  -1.78513662E-11
  -2.85500009E-02  -1.94075034E-11
  -2.85000000E-02  -2.04050769E-11
  -2.84499992E-02  -2.07154779E-11
  -2.84000002E-02  -2.04675929E-11
  -2.83499993E-02  -1.99956683E-11
  -2.83000004E-02  -1.96921594E-11
  -2.82499995E-02  -1.98283837E-11
  -2.82000005E-02  -2.04229463E-11
  -2.81499997E-02  -2.12195626E-11
  -2.81000007E-02  -2.17888433E-11
  -2.80499998E-02  -2.17130185E-11
  -2.80000009E-02  -2.07733726E-11
  -2.79500000E-02  -1.90557362E-11
  -2.78999992E-02  -1.69230012E-11
  -2.78500002E-02  -1.48618982E-11
  -2.77999993E-02  -1.32683335E-11
  -2.77500004E-02  -1.22659773E-11
  -2.76999995E-02  -1.16413840E-11
  -2.76500005E-02  -1.09295220E-11
  -2.75999997E-02  -9.61685159E-12
  -2.75500007E-02  -7.37474144E-12
  -2.74999999E-02  -4.21889216E-12
  -2.74500009E-02  -5.19935874E-13
  -2.74000000E-02   3.14528416E-12
  -2.73499992E-02   6.24062867E-12
  -2.73000002E-02   8.50802241E-12
  -2.72499993E-02   1.00877562E-11
  -2.72000004E-02   1.14630874E-11
  -2.71499995E-02   1.32475784E-11
  -2.71000005E-02   1.59053239E-11
  -2.70499997E-02   1.95277249E-11
  -2.70000007E-02   2.37695610E-11
  -2.69499999E-02   2.79789646E-11
  -2.69000009E-02   3.14697504E-11
  -2.68500000E-02   3.38185625E-11
  -2.67999992E-02   3.50538487E-11
  -2.67500002E-02   3.56478146E-11
  -2.66999993E-02   3.63081024E-11
  -2.66500004E-02   3.76561386E-11
  -2.65999995E-02   3.99332026E-11
  -2.65500005E-02   4.28677094E-11
  -2.64999997E-02   4.57691038E-11
  -2.64500007E-02   4.78139577E-11
  -2.63999999E-02   4.84021191E-11
  -2.63500009E-02   4.74248731E-11
  -2.63000000E-02   4.53215208E-11
  -2.62499992E-02   4.28917041E-11
  -2.62000002E-02   4.09398314E-11
  -2.61499994E-02   3.99060715E-11
  -2.61000004E-02   3.96497557E-11
  -2.60499995E-02   3.94877776E-11
  -2.60000005E-02   3.84792857E-11
  -2.59499997E-02   3.58367606E-11
  -2.59000007E-02   3.12826848E-11
  -2.58499999E-02   2.51895831E-11
  -2.58000009E-02   1.84334388E-11
  -2.57500000E-02   1.20172717E-11
  -2.56999992E-02   6.62683753E-12
  -2.56500002E-02   2.31629191E-12
  -2.55999994E-02  -1.53047226E-12
  -2.55500004E-02  -5.93660147E-12
  -2.54999995E-02  -1.18758007E-11
  -2.54500005E-02  -1.98217900E-11
  -2.53999997E-02  -2.95064979E-11
  -2.53500007E-02  -4.00022619E-11
  -2.52999999E-02  -5.01012322E-11
  -2.52500009E-02  -5.88306556E-11
  -2.52000000E-02  -6.58766930E-11
  -2.51499992E-02  -7.17234674E-11
  -2.51000002E-02  -7.74363559E-11
  -2.50499994E-02  -8.41761452E-11
  -2.50000004E-02  -9.26543148E-11
  -2.49499995E-02  -1.02772693E-10
  -2.49000005E-02  -1.13614750E-10
  -2.48499997E-02  -1.23803065E-10
  -2.48000007E-02  -1.32073033E-10
  -2.47499999E-02  -1.37811595E-10
  -2.47000009E-02  -1.41317597E-10
  -2.46500000E-02  -1.43659265E-10
  -2.45999992E-02  -1.46180915E-10
  -2.45500002E-02  -1.49870880E-10
  -2.44999994E-02  -1.54870672E-10
  -2.44500004E-02  -1.60350067E-10
  -2.43999995E-02  -1.64814773E-10
  -2.43500005E-02  -1.66720582E-10
  -2.42999997E-02  -1.65127093E-10
  -2.42500007E-02  -1.60098421E-10
  -2.41999999E-02  -1.52664048E-10
  -2.41500009E-02  -1.44345841E-10
  -2.41000000E-02  -1.36451725E-10
  -2.40499992E-02  -1.29447272E-10
  -2.40000002E-02  -1.22689817E-10
  -2.39499994E-02  -1.14654397E-10
  -2.39000004E-02  -1.03563054E-10
  -2.38499995E-02  -8.81459905E-11
  -2.38000005E-02  -6.81959905E-11
  -2.37499997E-02  -4.46617431E-11
  -2.37000007E-02  -1.92262074E-11
  -2.36499999E-02   6.45408380E-12
  -2.36000009E-02   3.15161265E-11
  -2.35500000E-02   5.63193832E-11
  -2.34999992E-02   8.23354718E-11
  -2.34500002E-02   1.11534365E-10
  -2.33999994E-02   1.45529852E-10
  -2.33500004E-02   1.84861362E-10
  -2.32999995E-02   2.28738403E-10
  -2.32500006E-02   2.75373002E-10
  -2.31999997E-02   3.22765870E-10
  -2.31500007E-02   3.69604097E-10
  -2.30999999E-02   4.15870782E-10
  -2.30500009E-02   4.62885869E-10
  -2.30000000E-02   5.12746734E-10
  -2.29499992E-02   5.67405400E-10
  -2.29000002E-02   6.27787600E-10
  -2.28499994E-02   6.93350821E-10
  -2.28000004E-02   7.62288899E-10
  -2.27499995E-02   8.32307112E-10
  -2.27000006E-02   9.01632990E-10
  -2.26499997E-02   9.69815117E-10
  -2.26000007E-02   1.03794617E-09
  -2.25499999E-02   1.10819964E-09
  -2.25000009E-02   1.18287069E-09
  -2.24500000E-02   1.26334132E-09
  -2.23999992E-02   1.34943312E-09
  -2.23500002E-02   1.43944545E-09
  -2.22999994E-02   1.53087665E-09
  -2.22500004E-02   1.62152003E-09
  -2.21999995E-02   1.71045178E-09
  -2.21500006E-02   1.79846382E-09
  -2.20999997E-02   1.88773863E-09
  -2.20500007E-02   1.98089389E-09
  -2.19999999E-02   2.07981499E-09
  -2.19500009E-02   2.18479057E-09
  -2.19000001E-02   2.29435049E-09
  -2.18499992E-02   2.40588793E-09
  -2.18000002E-02   2.51680587E-09
  -2.17499994E-02   2.62568456E-09
  -2.17000004E-02   2.73294543E-09
  -2.16499995E-02   2.84070700E-09
  -2.16000006E-02   2.95188052E-09
  -2.15499997E-02   3.06889514E-09
  -2.15000007E-02   3.19261706E-09
  -2.14499999E-02   3.32195182E-09
  -2.14000009E-02   3.45431905E-09
  -2.13500001E-02   3.58680308E-09
  -2.12999992E-02   3.71747899E-09
  -2.12500002E-02   3.84632148E-09
  -2.11999994E-02   3.97528277E-09
  -2.11500004E-02   4.10749035E-09
  -2.10999995E-02   4.24590807E-09
  -2.10500006E-02   4.39204850E-09
  -2.09999997E-02   4.54531790E-09
  -2.09500007E-02   4.70329242E-09
  -2.08999999E-02   4.86282170E-09
  -2.08500009E-02   5.02148056E-09
  -2.08000001E-02   5.17872234E-09
  -2.07499992E-02   5.33621414E-09
  -2.07000002E-02   5.49719381E-09
  -2.06499994E-02   5.66511371E-09
  -2.06000004E-02   5.84217119E-09
  -2.05499995E-02   6.02838268E-09
  -2.05000006E-02   6.22161567E-09
  -2.04499997E-02   6.41859010E-09
  -2.04000007E-02   6.61640742E-09
  -2.03499999E-02   6.81393697E-09
  -2.03000009E-02   7.01243419E-09
  -2.02500001E-02   7.21510407E-09
  -2.01999992E-02   7.42579065E-09
  -2.01500002E-02   7.64735830E-09
  -2.00999994E-02   7.88049093E-09
  -2.00500004E-02   8.12344947E-09
  -1.99999996E-02   8.37291125E-09
  -1.99500006E-02   8.62552607E-09
  -1.98999997E-02   8.87951401E-09
  -1.98500007E-02   9.13557940E-09
  -1.97999999E-02   9.39673850E-09
  -1.97500009E-02   9.66710445E-09
  -1.97000001E-02   9.95017313E-09
  -1.96499992E-02   1.02473576E-08
  -1.96000002E-02   1.05574376E-08
  -1.95499994E-02   1.08771756E-08
  -1.95000004E-02   1.12028449E-08
  -1.94499996E-02   1.15319905E-08
  -1.94000006E-02   1.18646568E-08
  -1.93499997E-02   1.22035066E-08
  -1.93000007E-02   1.25527784E-08
  -1.92499999E-02   1.29165256E-08
  -1.92000009E-02   1.32969191E-08
  -1.91500001E-02   1.36933673E-08
  -1.90999992E-02   1.41028575E-08
  -1.90500002E-02   1.45213868E-08
  -1.89999994E-02   1.49458419E-08
  -1.89500004E-02   1.53755213E-08
  -1.88999996E-02   1.58125868E-08
  -1.88500006E-02   1.62612537E-08
  -1.87999997E-02   1.67260499E-08
  -1.87500007E-02   1.72099330E-08
  -1.86999999E-02   1.77130683E-08
  -1.86500009E-02   1.82328623E-08
  -1.86000001E-02   1.87652027E-08
  -1.85499992E-02   1.93064231E-08
  -1.85000002E-02   1.98550669E-08
  -1.84499994E-02   2.04126973E-08
  -1.84000004E-02   2.09833733E-08
  -1.83499996E-02   2.15720117E-08
  -1.83000006E-02   2.21823466E-08
  -1.82499997E-02   2.28154029E-08
  -1.82000007E-02   2.34691697E-08
  -1.81499999E-02   2.41396201E-08
  -1.81000009E-02   2.48226417E-08
  -1.80500001E-02   2.55160391E-08
  -1.79999992E-02   2.62206985E-08
  -1.79500002E-02   2.69404055E-08
  -1.78999994E-02   2.76803558E-08
  -1.78500004E-02   2.84450561E-08
  -1.77999996E-02   2.92364959E-08
  -1.77500006E-02   3.00534424E-08
  -1.76999997E-02   3.08921635E-08
  -1.76500008E-02   3.17482751E-08
  -1.75999999E-02   3.26189173E-08
  -1.75500009E-02   3.35042536E-08
  -1.75000001E-02   3.44076660E-08
  -1.74499992E-02   3.53345158E-08
  -1.74000002E-02   3.62900394E-08
  -1.73499994E-02   3.72772284E-08
  -1.73000004E-02   3.82957950E-08
  -1.72499996E-02   3.93425061E-08
  -1.72000006E-02   4.04128819E-08
  -1.71499997E-02   4.15034656E-08
  -1.71000008E-02   4.26136673E-08
  -1.70499999E-02   4.37463257E-08
  -1.70000009E-02   4.49068018E-08
  -1.69500001E-02   4.61009115E-08
  -1.68999992E-02   4.73326764E-08
  -1.68500002E-02   4.86028533E-08
  -1.67999994E-02   4.99089055E-08
  -1.67500004E-02   5.12464702E-08
  -1.66999996E-02   5.26116395E-08
  -1.66500006E-02   5.40030562E-08
  -1.65999997E-02   5.54229302E-08
  -1.65500008E-02   5.68764378E-08
  -1.64999999E-02   5.83698494E-08
  -1.64500009E-02   5.99081460E-08
  -1.64000001E-02   6.14932105E-08
  -1.63499992E-02   6.31233590E-08
  -1.63000003E-02   6.47945342E-08
  -1.62499994E-02   6.65024942E-08
  -1.62000004E-02   6.82451500E-08
  -1.61499996E-02   7.00239653E-08
  -1.61000006E-02   7.18437576E-08
  -1.60499997E-02   7.37110781E-08
  -1.60000008E-02   7.56317604E-08
  -1.59499999E-02   7.76088314E-08
  -1.59000009E-02   7.96416018E-08
  -1.58500001E-02   8.17264976E-08
  -1.57999992E-02   8.38591205E-08
  -1.57500003E-02   8.60366995E-08
  -1.56999994E-02   8.82598812E-08
  -1.56500004E-02   9.05329998E-08
  -1.55999996E-02   9.28626918E-08
  -1.55499997E-02   9.52555368E-08
  -1.54999997E-02   9.77156844E-08
  -1.54499998E-02   1.00243568E-07
  -1.53999999E-02   1.02836275E-07
  -1.53500000E-02   1.05489420E-07
  -1.53000001E-02   1.08199650E-07
  -1.52500002E-02   1.10966759E-07
  -1.52000003E-02   1.13794407E-07
  -1.51500003E-02   1.16689115E-07
  -1.51000004E-02   1.19658011E-07
  -1.50499996E-02   1.22706325E-07
  -1.49999997E-02   1.25835669E-07
  -1.49499997E-02   1.29044011E-07
  -1.48999998E-02   1.32327173E-07
  -1.48499999E-02   1.35681404E-07
  -1.48000000E-02   1.39105694E-07
  -1.47500001E-02   1.42602914E-07
  -1.47000002E-02   1.46179289E-07
  -1.46500003E-02   1.49842350E-07
  -1.46000003E-02   1.53598293E-07
  -1.45500004E-02   1.57449975E-07
  -1.44999996E-02   1.61396400E-07
  -1.44499997E-02   1.65433875E-07
  -1.43999998E-02   1.69558390E-07
  -1.43499998E-02   1.73768214E-07
  -1.42999999E-02   1.78065406E-07
  -1.42500000E-02   1.82455750E-07
  -1.42000001E-02   1.86946977E-07
  -1.41500002E-02   1.91546178E-07
  -1.41000003E-02   1.96257474E-07
  -1.40500003E-02   2.01081065E-07
  -1.40000004E-02   2.06013922E-07
  -1.39499996E-02   2.11052082E-07
  -1.38999997E-02   2.16193200E-07
  -1.38499998E-02   2.21438540E-07
  -1.37999998E-02   2.26793347E-07
  -1.37499999E-02   2.32265378E-07
  -1.37000000E-02   2.37862537E-07
  -1.36500001E-02   2.43590222E-07
  -1.36000002E-02   2.49449926E-07
  -1.35500003E-02   2.55439602E-07
  -1.35000004E-02   2.61555499E-07
  -1.34500004E-02   2.67794860E-07
  -1.33999996E-02   2.74158140E-07
  -1.33499997E-02   2.80649886E-07
  -1.32999998E-02   2.87277800E-07
  -1.32499998E-02   2.94050324E-07
  -1.31999999E-02   3.00974079E-07
  -1.31500000E-02   3.08052023E-07
  -1.31000001E-02   3.15283245E-07
  -1.30500002E-02   3.22664420E-07
  -1.30000003E-02   3.30192620E-07
  -1.29500004E-02   3.37867618E-07
  -1.29000004E-02   3.45693167E-07
  -1.28499996E-02   3.53676683E-07
  -1.27999997E-02   3.61826977E-07
  -1.27499998E-02   3.70151838E-07
  -1.26999998E-02   3.78655528E-07
  -1.26499999E-02   3.87338503E-07
  -1.26000000E-02   3.96198175E-07
  -1.25500001E-02   4.05231560E-07
  -1.25000002E-02   4.14437864E-07
  -1.24500003E-02   4.23820126E-07
  -1.24000004E-02   4.33385225E-07
  -1.23500004E-02   4.43142198E-07
  -1.22999996E-02   4.53099659E-07
  -1.22499997E-02   4.63263348E-07
  -1.21999998E-02   4.73634969E-07
  -1.21499998E-02   4.84212876E-07
  -1.20999999E-02   4.94994140E-07
  -1.20500000E-02   5.05977425E-07
  -1.20000001E-02   5.17165006E-07
  -1.19500002E-02   5.28563078E-07
  -1.19000003E-02   5.40180622E-07
  -1.18500004E-02   5.52027245E-07
  -1.18000004E-02   5.64109826E-07
  -1.17499996E-02   5.76431717E-07
  -1.16999997E-02   5.88992350E-07
  -1.16499998E-02   6.01789225E-07
  -1.15999999E-02   6.14820635E-07
  -1.15499999E-02   6.28087946E-07
  -1.15000000E-02   6.41596614E-07
  -1.14500001E-02   6.55355393E-07
  -1.14000002E-02   6.69373890E-07
  -1.13500003E-02   6.83660289E-07
  -1.13000004E-02   6.98219253E-07
  -1.12500004E-02   7.13051350E-07
  -1.11999996E-02   7.28154589E-07
  -1.11499997E-02   7.43527210E-07
  -1.10999998E-02   7.59169723E-07
  -1.10499999E-02   7.75086903E-07
  -1.09999999E-02   7.91287050E-07
  -1.09500000E-02   8.07780339E-07
  -1.09000001E-02   8.24576091E-07
  -1.08500002E-02   8.41680276E-07
  -1.08000003E-02   8.59094939E-07
  -1.07500004E-02   8.76818945E-07
  -1.07000005E-02   8.94850132E-07
  -1.06499996E-02   9.13188330E-07
  -1.05999997E-02   9.31837121E-07
  -1.05499998E-02   9.50803894E-07
  -1.04999999E-02   9.70098768E-07
  -1.04499999E-02   9.89731689E-07
  -1.04000000E-02   1.00970999E-06
  -1.03500001E-02   1.03003697E-06
  -1.03000002E-02   1.05071251E-06
  -1.02500003E-02   1.07173480E-06
  -1.02000004E-02   1.09310326E-06
  -1.01500005E-02   1.11482041E-06
  -1.00999996E-02   1.13689293E-06
  -1.00499997E-02   1.15933051E-06
  -9.99999978E-03   1.18214382E-06
  -9.94999986E-03   1.20534139E-06
  -9.89999995E-03   1.22892800E-06
  -9.85000003E-03   1.25290467E-06
  -9.80000012E-03   1.27727014E-06
  -9.75000020E-03   1.30202307E-06
  -9.70000029E-03   1.32716502E-06
  -9.65000037E-03   1.35270159E-06
  -9.60000046E-03   1.37864185E-06
  -9.54999961E-03   1.40499662E-06
  -9.49999969E-03   1.43177533E-06
  -9.44999978E-03   1.45898400E-06
  -9.39999986E-03   1.48662468E-06
  -9.34999995E-03   1.51469646E-06
  -9.30000003E-03   1.54319764E-06
  -9.25000012E-03   1.57212867E-06
  -9.20000020E-03   1.60149398E-06
  -9.15000029E-03   1.63130176E-06
  -9.10000037E-03   1.66156269E-06
  -9.05000046E-03   1.69228701E-06
  -8.99999961E-03   1.72348257E-06
  -8.94999970E-03   1.75515254E-06
  -8.89999978E-03   1.78729692E-06
  -8.84999987E-03   1.81991413E-06
  -8.79999995E-03   1.85300360E-06
  -8.75000004E-03   1.88656827E-06
  -8.70000012E-03   1.92061566E-06
  -8.65000021E-03   1.95515531E-06
  -8.60000029E-03   1.99019792E-06
  -8.55000038E-03   2.02575188E-06
  -8.50000046E-03   2.06182153E-06
  -8.44999962E-03   2.09840687E-06
  -8.39999970E-03   2.13550675E-06
  -8.34999979E-03   2.17311958E-06
  -8.29999987E-03   2.21124651E-06
  -8.24999996E-03   2.24989276E-06
  -8.20000004E-03   2.28906720E-06
  -8.15000013E-03   2.32878028E-06
  -8.10000021E-03   2.36904111E-06
  -8.05000030E-03   2.40985469E-06
  -8.00000038E-03   2.45122260E-06
  -7.95000046E-03   2.49314303E-06
  -7.89999962E-03   2.53561393E-06
  -7.84999970E-03   2.57863439E-06
  -7.79999979E-03   2.62220829E-06
  -7.74999987E-03   2.66634333E-06
  -7.69999996E-03   2.71104909E-06
  -7.65000004E-03   2.75633488E-06
  -7.60000013E-03   2.80220706E-06
  -7.55000021E-03   2.84866769E-06
  -7.49999983E-03   2.89571426E-06
  -7.44999992E-03   2.94334291E-06
  -7.40000000E-03   2.99155090E-06
  -7.35000009E-03   3.04033961E-06
  -7.30000017E-03   3.08971380E-06
  -7.24999979E-03   3.13968235E-06
  -7.19999988E-03   3.19025389E-06
  -7.14999996E-03   3.24143525E-06
  -7.10000005E-03   3.29322870E-06
  -7.05000013E-03   3.34563197E-06
  -7.00000022E-03   3.39864005E-06
  -6.94999984E-03   3.45224794E-06
  -6.89999992E-03   3.50645405E-06
  -6.85000001E-03   3.56126134E-06
  -6.80000009E-03   3.61667617E-06
  -6.75000018E-03   3.67270695E-06
  -6.69999979E-03   3.72936029E-06
  -6.64999988E-03   3.78663890E-06
  -6.59999996E-03   3.84454052E-06
  -6.55000005E-03   3.90305831E-06
  -6.50000013E-03   3.96218547E-06
  -6.45000022E-03   4.02191654E-06
  -6.39999984E-03   4.08225196E-06
  -6.34999992E-03   4.14319493E-06
  -6.30000001E-03   4.20475317E-06
  -6.25000009E-03   4.26693168E-06
  -6.20000018E-03   4.32973275E-06
  -6.14999980E-03   4.39315409E-06
  -6.09999988E-03   4.45718706E-06
  -6.04999997E-03   4.52182258E-06
  -6.00000005E-03   4.58705199E-06
  -5.95000014E-03   4.65287121E-06
  -5.90000022E-03   4.71928070E-06
  -5.84999984E-03   4.78628408E-06
  -5.79999993E-03   4.85388728E-06
  -5.75000001E-03   4.92209210E-06
  -5.70000010E-03   4.99089492E-06
  -5.65000018E-03   5.06028709E-06
  -5.59999980E-03   5.13025634E-06
  -5.54999989E-03   5.20079038E-06
  -5.49999997E-03   5.27188104E-06
  -5.45000006E-03   5.34352466E-06
  -5.40000014E-03   5.41572217E-06
  -5.35000023E-03   5.48847720E-06
  -5.29999984E-03   5.56179020E-06
  -5.24999993E-03   5.63565754E-06
  -5.20000001E-03   5.71006922E-06
  -5.15000010E-03   5.78500931E-06
  -5.10000018E-03   5.86046190E-06
  -5.04999980E-03   5.93641334E-06
  -4.99999989E-03   6.01285501E-06
  -4.94999997E-03   6.08978371E-06
  -4.90000006E-03   6.16720081E-06
  -4.85000014E-03   6.24510494E-06
  -4.80000023E-03   6.32349156E-06
  -4.74999985E-03   6.40234794E-06
  -4.69999993E-03   6.48165769E-06
  -4.65000002E-03   6.56139991E-06
  -4.60000010E-03   6.64155505E-06
  -4.55000019E-03   6.72211081E-06
  -4.49999981E-03   6.80305766E-06
  -4.44999989E-03   6.88439331E-06
  -4.39999998E-03   6.96611460E-06
  -4.35000006E-03   7.04821468E-06
  -4.30000015E-03   7.13067993E-06
  -4.25000023E-03   7.21349033E-06
  -4.19999985E-03   7.29662133E-06
  -4.14999994E-03   7.38004792E-06
  -4.10000002E-03   7.46375008E-06
  -4.05000011E-03   7.54771372E-06
  -4.00000019E-03   7.63193020E-06
  -3.94999981E-03   7.71639407E-06
  -3.89999989E-03   7.80109622E-06
  -3.84999998E-03   7.88602119E-06
  -3.80000006E-03   7.97114626E-06
  -3.74999992E-03   8.05644231E-06
  -3.70000000E-03   8.14187842E-06
  -3.65000009E-03   8.22742641E-06
  -3.59999994E-03   8.31306534E-06
  -3.55000002E-03   8.39877976E-06
  -3.50000011E-03   8.48456148E-06
  -3.44999996E-03   8.57039959E-06
  -3.40000005E-03   8.65627680E-06
  -3.34999990E-03   8.74216767E-06
  -3.29999998E-03   8.82803670E-06
  -3.25000007E-03   8.91384752E-06
  -3.19999992E-03   8.99956376E-06
  -3.15000000E-03   9.08515631E-06
  -3.10000009E-03   9.17060424E-06
  -3.04999994E-03   9.25589211E-06
  -3.00000003E-03   9.34100808E-06
  -2.95000011E-03   9.42593033E-06
  -2.89999996E-03   9.51063066E-06
  -2.85000005E-03   9.59507179E-06
  -2.79999990E-03   9.67920641E-06
  -2.74999999E-03   9.76299270E-06
  -2.70000007E-03   9.84639246E-06
  -2.64999992E-03   9.92937476E-06
  -2.60000001E-03   1.00119196E-05
  -2.55000009E-03   1.00940088E-05
  -2.49999994E-03   1.01756186E-05
  -2.45000003E-03   1.02567201E-05
  -2.40000011E-03   1.03372686E-05
  -2.34999997E-03   1.04172141E-05
  -2.30000005E-03   1.04965029E-05
  -2.24999990E-03   1.05750878E-05
  -2.19999999E-03   1.06529305E-05
  -2.15000007E-03   1.07300020E-05
  -2.09999993E-03   1.08062804E-05
  -2.05000001E-03   1.08817394E-05
  -2.00000009E-03   1.09563443E-05
  -1.94999995E-03   1.10300507E-05
  -1.90000003E-03   1.11027985E-05
  -1.85000000E-03   1.11745294E-05
  -1.79999997E-03   1.12451826E-05
  -1.75000005E-03   1.13147107E-05
  -1.70000002E-03   1.13830765E-05
  -1.64999999E-03   1.14502518E-05
  -1.59999996E-03   1.15162075E-05
  -1.55000004E-03   1.15809062E-05
  -1.50000001E-03   1.16442989E-05
  -1.44999998E-03   1.17063219E-05
  -1.39999995E-03   1.17669042E-05
  -1.35000004E-03   1.18259768E-05
  -1.30000000E-03   1.18834805E-05
  -1.24999997E-03   1.19393690E-05
  -1.20000006E-03   1.19936076E-05
  -1.15000003E-03   1.20461618E-05
  -1.09999999E-03   1.20969935E-05
  -1.04999996E-03   1.21460507E-05
  -1.00000005E-03   1.21932644E-05
  -9.50000016E-04   1.22385582E-05
  -8.99999985E-04   1.22818492E-05
  -8.50000011E-04   1.23230684E-05
  -7.99999980E-04   1.23621567E-05
  -7.50000007E-04   1.23990721E-05
  -6.99999975E-04   1.24337794E-05
  -6.50000002E-04   1.24662347E-05
  -6.00000028E-04   1.24963854E-05
  -5.49999997E-04   1.25241568E-05
  -5.00000024E-04   1.25494626E-05
  -4.49999992E-04   1.25722127E-05
  -3.99999990E-04   1.25923225E-05
  -3.49999988E-04   1.26097239E-05
  -3.00000014E-04   1.26243658E-05
  -2.50000012E-04   1.26362056E-05
  -1.99999995E-04   1.26452014E-05
  -1.50000007E-04   1.26512959E-05
  -9.99999975E-05   1.26544137E-05
  -4.99999987E-05   1.26544610E-05
   0.00000000       1.26513378E-05
   4.99999987E-05   1.26449495E-05
   9.99999975E-05   1.26352143E-05
   1.50000007E-04   1.26220702E-05
   1.99999995E-04   1.26054711E-05
   2.50000012E-04   1.25853685E-05
   3.00000014E-04   1.25617071E-05
   3.49999988E-04   1.25344104E-05
   3.99999990E-04   1.25033803E-05
   4.49999992E-04   1.24685066E-05
   5.00000024E-04   1.24296803E-05
   5.49999997E-04   1.23868076E-05
   6.00000028E-04   1.23398167E-05
   6.50000002E-04   1.22886531E-05
   6.99999975E-04   1.22332685E-05
   7.50000007E-04   1.21736084E-05
   7.99999980E-04   1.21095945E-05
   8.50000011E-04   1.20411260E-05
   8.99999985E-04   1.19680844E-05
   9.50000016E-04   1.18903536E-05
   1.00000005E-03   1.18078242E-05
   1.04999996E-03   1.17204117E-05
   1.09999999E-03   1.16280562E-05
   1.15000003E-03   1.15307066E-05
   1.20000006E-03   1.14283066E-05
   1.24999997E-03   1.13207825E-05
   1.30000000E-03   1.12080334E-05
   1.35000004E-03   1.10899355E-05
   1.39999995E-03   1.09663606E-05
   1.44999998E-03   1.08371896E-05
   1.50000001E-03   1.07023270E-05
   1.55000004E-03   1.05617019E-05
   1.59999996E-03   1.04152614E-05
   1.64999999E-03   1.02629510E-05
   1.70000002E-03   1.01047008E-05
   1.75000005E-03   9.94040784E-06
   1.79999997E-03   9.76994943E-06
   1.85000000E-03   9.59318731E-06
   1.90000003E-03   9.40998962E-06
   1.94999995E-03   9.22025083E-06
   2.00000009E-03   9.02389274E-06
   2.05000001E-03   8.82085533E-06
   2.09999993E-03   8.61108947E-06
   2.15000007E-03   8.39452878E-06
   2.19999999E-03   8.17107957E-06
   2.24999990E-03   7.94061998E-06
   2.30000005E-03   7.70300630E-06
   2.34999997E-03   7.45810030E-06
   2.40000011E-03   7.20578055E-06
   2.45000003E-03   6.94596065E-06
   2.49999994E-03   6.67857739E-06
   2.55000009E-03   6.40358257E-06
   2.60000001E-03   6.12091617E-06
   2.64999992E-03   5.83049496E-06
   2.70000007E-03   5.53219934E-06
   2.74999999E-03   5.22588789E-06
   2.79999990E-03   4.91141418E-06