  -3.99999991E-02   0.00000000    
  -3.99499983E-02   0.00000000    
  -3.99000011E-02   0.00000000    
  -3.98500003E-02   0.00000000    
  -3.97999994E-02  -1.08987953E-17
  -3.97499986E-02  -8.38779405E-17
  -3.97000015E-02  -3.25231297E-16
  -3.96500006E-02  -8.58658210E-16
  -3.95999998E-02  -1.77737942E-15
  -3.95499989E-02  -3.17684450E-15
  -3.95000018E-02  -5.23462846E-15
  -3.94500010E-02  -8.13266656E-15
  -3.94000001E-02  -1.17203475E-14
  -3.93499993E-02  -1.52229964E-14
  -3.92999984E-02  -1.75093145E-14
  -3.92500013E-02  -1.79745914E-14
  -3.92000005E-02  -1.73059131E-14
  -3.91499996E-02  -1.72397734E-14
  -3.90999988E-02  -1.93234727E-14
  -3.90500017E-02  -2.37628453E-14
  -3.90000008E-02  -2.93745842E-14
  -3.89500000E-02  -3.44219011E-14
  -3.88999991E-02  -3.71976890E-14
  -3.88499983E-02  -3.58599564E-14
  -3.88000011E-02  -2.84237491E-14
  -3.87500003E-02  -1.39318336E-14
  -3.86999995E-02   5.91042523E-15
  -3.86499986E-02   2.68680071E-14
  -3.86000015E-02   4.52025909E-14
  -3.85500006E-02   6.15732915E-14
  -3.84999998E-02   8.21196816E-14
  -3.84499989E-02   1.15246666E-13
  -3.84000018E-02   1.66742434E-13
  -3.83500010E-02   2.37346086E-13
  -3.83000001E-02   3.23997800E-13
  -3.82499993E-02   4.22169380E-13
  -3.81999984E-02   5.26492532E-13
  -3.81500013E-02   6.30400734E-13
  -3.81000005E-02   7.27819768E-13
  -3.80499996E-02   8.17473639E-13
  -3.79999988E-02   9.05803644E-13
  -3.79500017E-02   1.00403594E-12
  -3.79000008E-02   1.12043090E-12
  -3.78500000E-02   1.25442549E-12
  -3.77999991E-02   1.39823775E-12
  -3.77499983E-02   1.54395572E-12
  -3.77000012E-02   1.68849548E-12
  -3.76500003E-02   1.83169799E-12
  -3.75999995E-02   1.97099455E-12
  -3.75499986E-02   2.09988038E-12
  -3.75000015E-02   2.21224037E-12
  -3.74500006E-02   2.30683007E-12
  -3.73999998E-02   2.38556223E-12
  -3.73499990E-02   2.44679689E-12
  -3.73000018E-02   2.48118626E-12
  -3.72500010E-02   2.47450953E-12
  -3.72000001E-02   2.41306172E-12
  -3.71499993E-02   2.28393389E-12
  -3.70999984E-02   2.07009605E-12
  -3.70500013E-02   1.74968286E-12
  -3.70000005E-02   1.30733282E-12
  -3.69499996E-02   7.52201036E-13
  -3.68999988E-02   1.26154417E-13
  -3.68500017E-02  -5.09671027E-13
  -3.68000008E-02  -1.10428366E-12
  -3.67500000E-02  -1.64361363E-12
  -3.66999991E-02  -2.15950066E-12
  -3.66499983E-02  -2.71975519E-12
  -3.66000012E-02  -3.40731046E-12
  -3.65500003E-02  -4.29449401E-12
  -3.64999995E-02  -5.41485043E-12
  -3.64499986E-02  -6.74003431E-12
  -3.64000015E-02  -8.17861837E-12
  -3.63500006E-02  -9.61060571E-12
  -3.62999998E-02  -1.09486161E-11
  -3.62499990E-02  -1.21905801E-11
  -3.62000018E-02  -1.34254595E-11
  -3.61500010E-02  -1.47809907E-11
  -3.61000001E-02  -1.63408505E-11
  -3.60499993E-02  -1.80778743E-11
  -3.59999985E-02  -1.98384590E-11
  -3.59500013E-02  -2.13858375E-11
  -3.59000005E-02  -2.24867468E-11
  -3.58499996E-02  -2.30129301E-11
  -3.57999988E-02  -2.30197823E-11
  -3.57500017E-02  -2.27585225E-11
  -3.57000008E-02  -2.25924487E-11
  -3.56500000E-02  -2.28312577E-11
  -3.55999991E-02  -2.35542003E-11
  -3.55499983E-02  -2.45206997E-11
  -3.55000012E-02  -2.52337040E-11
  -3.54500003E-02  -2.51413543E-11
  -3.53999995E-02  -2.38852080E-11
  -3.53499986E-02  -2.14759131E-11
  -3.53000015E-02  -1.83121903E-11
  -3.52500007E-02  -1.50263864E-11
  -3.51999998E-02  -1.22092735E-11
  -3.51499990E-02  -1.01191095E-11
  -3.51000018E-02  -8.50347744E-12
  -3.50500010E-02  -6.63910637E-12
  -3.50000001E-02  -3.61178231E-12
  -3.49499993E-02   1.26330316E-12
  -3.48999985E-02   8.07748920E-12
  -3.48500013E-02   1.62178899E-11
  -3.48000005E-02   2.45927549E-11
  -3.47499996E-02   3.21056202E-11
  -3.46999988E-02   3.81606483E-11
  -3.46500017E-02   4.29598822E-11
  -3.46000008E-02   4.74440140E-11
  -3.45500000E-02   5.28825594E-11
  -3.44999991E-02   6.02712880E-11
  -3.44499983E-02   6.97953501E-11
  -3.44000012E-02   8.06207809E-11
  -3.43500003E-02   9.11599754E-11
  -3.42999995E-02   9.97455452E-11
  -3.42499986E-02   1.05425460E-10
  -3.42000015E-02   1.08487393E-10
  -3.41500007E-02   1.10415725E-10
  -3.40999998E-02   1.13249771E-10
  -3.40499990E-02   1.18613092E-10
  -3.40000018E-02   1.26861646E-10
  -3.39500010E-02   1.36762102E-10
  -3.39000002E-02   1.45882986E-10
  -3.38499993E-02   1.51567744E-10
  -3.37999985E-02   1.52094504E-10
  -3.37500013E-02   1.47507020E-10
  -3.37000005E-02   1.39696227E-10
  -3.36499996E-02   1.31614469E-10
  -3.35999988E-02   1.25910754E-10
  -3.35500017E-02   1.23601240E-10
  -3.35000008E-02   1.23431029E-10
  -3.34500000E-02   1.22291358E-10
  -3.33999991E-02   1.16556501E-10
  -3.33499983E-02   1.03749911E-10
  -3.33000012E-02   8.37696856E-11
  -3.32500003E-02   5.90843138E-11
  -3.31999995E-02   3.37614589E-11
  -3.31499986E-02   1.17078231E-11
  -3.31000015E-02  -5.12688459E-12
  -3.30500007E-02  -1.77570979E-11
  -3.29999998E-02  -2.98526238E-11
  -3.29499990E-02  -4.61577096E-11
  -3.29000019E-02  -7.03040334E-11
  -3.28500010E-02  -1.03031216E-10
  -3.28000002E-02  -1.41693671E-10
  -3.27499993E-02  -1.81352433E-10
  -3.26999985E-02  -2.16982904E-10
  -3.26500013E-02  -2.45778786E-10
  -3.26000005E-02  -2.68474354E-10
  -3.25499997E-02  -2.89040125E-10
  -3.24999988E-02  -3.12834786E-10
  -3.24500017E-02  -3.44000717E-10
  -3.24000008E-02  -3.83271470E-10
  -3.23500000E-02  -4.27246016E-10
  -3.22999991E-02  -4.69569217E-10
  -3.22499983E-02  -5.03589781E-10
  -3.22000012E-02  -5.25318122E-10
  -3.21500003E-02  -5.35277489E-10
  -3.20999995E-02  -5.38312561E-10
  -3.20499986E-02  -5.41375722E-10
  -3.20000015E-02  -5.50284429E-10
  -3.19500007E-02  -5.66928504E-10
  -3.18999998E-02  -5.88213922E-10
  -3.18499990E-02  -6.07255524E-10
  -3.18000019E-02  -6.16317886E-10
  -3.17500010E-02  -6.10225204E-10
  -3.17000002E-02  -5.88704419E-10
  -3.16499993E-02  -5.56547641E-10
  -3.15999985E-02  -5.21432286E-10
  -3.15500014E-02  -4.90345820E-10
  -3.15000005E-02  -4.66265360E-10
  -3.14499997E-02  -4.46666482E-10
  -3.13999988E-02  -4.24582536E-10
  -3.13500017E-02  -3.91732119E-10
  -3.13000008E-02  -3.42251616E-10
  -3.12500000E-02  -2.75309969E-10
  -3.11999992E-02  -1.95450836E-10
  -3.11500002E-02  -1.10537142E-10
  -3.10999993E-02  -2.82507941E-11
  -3.10500003E-02   4.72658405E-11
  -3.09999995E-02   1.17107088E-10
  -3.09500005E-02   1.86853782E-10
  -3.08999997E-02   2.63709637E-10
  -3.08500007E-02   3.52879198E-10
  -3.07999998E-02   4.54939281E-10
  -3.07500008E-02   5.65450908E-10
  -3.07000000E-02   6.76946221E-10
  -3.06499992E-02   7.82269527E-10
  -3.06000002E-02   8.77638906E-10
  -3.05499993E-02   9.64026414E-10
  -3.05000003E-02   1.04630304E-09
  -3.04499995E-02   1.13064746E-09
  -3.04000005E-02   1.22146171E-09
  -3.03499997E-02   1.31920064E-09
  -3.03000007E-02   1.42007395E-09
  -3.02499998E-02   1.51769386E-09
  -3.02000009E-02   1.60581370E-09
  -3.01500000E-02   1.68080150E-09
  -3.00999992E-02   1.74265091E-09
  -3.00500002E-02   1.79414195E-09
  -2.99999993E-02   1.83875859E-09
  -2.99500003E-02   1.87858107E-09
  -2.98999995E-02   1.91322846E-09
  -2.98500005E-02   1.94022243E-09
  -2.97999997E-02   1.95634997E-09
  -2.97500007E-02   1.95914041E-09
  -2.96999998E-02   1.94764449E-09
  -2.96500009E-02   1.92217176E-09
  -2.96000000E-02   1.88327820E-09
  -2.95499992E-02   1.83072046E-09
  -2.95000002E-02   1.76314274E-09
  -2.94499993E-02   1.67887759E-09
  -2.94000003E-02   1.57747260E-09
  -2.93499995E-02   1.46090262E-09
  -2.93000005E-02   1.33343636E-09
  -2.92499997E-02   1.19977961E-09
  -2.92000007E-02   1.06222442E-09
  -2.91499998E-02   9.18416232E-10
  -2.91000009E-02   7.61277652E-10
  -2.90500000E-02   5.81609927E-10
  -2.89999992E-02   3.72458592E-10
  -2.89500002E-02   1.33223071E-10
  -2.88999993E-02  -1.28648994E-10
  -2.88500004E-02  -3.99638433E-10
  -2.87999995E-02  -6.65429489E-10
  -2.87500005E-02  -9.17379617E-10
  -2.86999997E-02  -1.15711329E-09
  -2.86500007E-02  -1.39655887E-09
  -2.85999998E-02  -1.65269143E-09
  -2.85500009E-02  -1.93893523E-09
  -2.85000000E-02  -2.25719532E-09
  -2.84499992E-02  -2.59469890E-09
  -2.84000002E-02  -2.92780644E-09
  -2.83499993E-02  -3.23165694E-09
  -2.83000004E-02  -3.49148577E-09
  -2.82499995E-02  -3.71026476E-09
  -2.82000005E-02  -3.90851040E-09
  -2.81499997E-02  -4.11557988E-09
  -2.81000007E-02  -4.35573178E-09
  -2.80499998E-02  -4.63508210E-09
  -2.80000009E-02  -4.93596319E-09
  -2.79500000E-02  -5.22213961E-09
  -2.78999992E-02  -5.45353096E-09
  -2.78500002E-02  -5.60424374E-09
  -2.77999993E-02  -5.67534153E-09
  -2.77500004E-02  -5.69570169E-09
  -2.76999995E-02  -5.70950576E-09
  -2.76500005E-02  -5.75537573E-09
  -2.75999997E-02  -5.84647930E-09
  -2.75500007E-02  -5.96103789E-09
  -2.74999999E-02  -6.04862116E-09
  -2.74500009E-02  -6.05056405E-09
  -2.74000000E-02  -5.92606630E-09
  -2.73499992E-02  -5.67211611E-09
  -2.73000002E-02  -5.32732081E-09
  -2.72499993E-02  -4.95655827E-09
  -2.72000004E-02  -4.62224214E-09
  -2.71499995E-02  -4.35490177E-09
  -2.71000005E-02  -4.13688950E-09
  -2.70499997E-02  -3.90771371E-09
  -2.70000007E-02  -3.58977537E-09
  -2.69499999E-02  -3.12366732E-09
  -2.69000009E-02  -2.49719423E-09
  -2.68500000E-02  -1.75420900E-09
  -2.67999992E-02  -9.78061188E-10
  -2.67500002E-02  -2.55895249E-10
  -2.66999993E-02   3.60777991E-10
  -2.66500004E-02   8.81078155E-10
  -2.65999995E-02   1.37279055E-09
  -2.65500005E-02   1.93281036E-09
  -2.64999997E-02   2.64237188E-09
  -2.64500007E-02   3.52721452E-09
  -2.63999999E-02   4.54138016E-09
  -2.63500009E-02   5.58329827E-09
  -2.63000000E-02   6.53831211E-09
  -2.62499992E-02   7.32903915E-09
  -2.62000002E-02   7.95061705E-09
  -2.61499994E-02   8.47400639E-09
  -2.61000004E-02   9.01440256E-09
  -2.60499995E-02   9.67776259E-09
  -2.60000005E-02   1.05090594E-08
  -2.59499997E-02   1.14663754E-08
  -2.59000007E-02   1.24339783E-08
  -2.58499999E-02   1.32700153E-08
  -2.58000009E-02   1.38683509E-08
  -2.57500000E-02   1.42066749E-08
  -2.56999992E-02   1.43581875E-08
  -2.56500002E-02   1.44599381E-08
  -2.55999994E-02   1.46509302E-08
  -2.55500004E-02   1.50070072E-08
  -2.54999995E-02   1.55020476E-08
  -2.54500005E-02   1.60143028E-08
  -2.53999997E-02   1.63763030E-08
  -2.53500007E-02   1.64470801E-08
  -2.52999999E-02   1.61748819E-08
  -2.52500009E-02   1.56216782E-08
  -2.52000000E-02   1.49373687E-08
  -2.51499992E-02   1.42935175E-08
  -2.51000002E-02   1.38054368E-08
  -2.50499994E-02   1.34779876E-08
  -2.50000004E-02   1.32000917E-08
  -2.49499995E-02   1.27918565E-08
  -2.49000005E-02   1.20839969E-08
  -2.48499997E-02   1.09944933E-08
  -2.48000007E-02   9.56814983E-09
  -2.47499999E-02   7.96049804E-09
  -2.47000009E-02   6.37211617E-09
  -2.46500000E-02   4.96155250E-09
  -2.45999992E-02   3.77529430E-09
  -2.45500002E-02   2.72664535E-09
  -2.44999994E-02   1.63397218E-09
  -2.44500004E-02   3.02458225E-10
  -2.43999995E-02  -1.38644773E-09
  -2.43500005E-02  -3.41786954E-09
  -2.42999997E-02  -5.64472069E-09
  -2.42500007E-02  -7.84759191E-09
  -2.41999999E-02  -9.82746062E-09
  -2.41500009E-02  -1.14906547E-08
  -2.41000000E-02  -1.28882132E-08
  -2.40499992E-02  -1.41917909E-08
  -2.40000002E-02  -1.56158855E-08
  -2.39499994E-02  -1.73195627E-08
  -2.39000004E-02  -1.93306136E-08
  -2.38499995E-02  -2.15261391E-08
  -2.38000005E-02  -2.36791688E-08
  -2.37499997E-02  -2.55517989E-08
  -2.37000007E-02  -2.69946874E-08
  -2.36499999E-02  -2.80091079E-08
  -2.36000009E-02  -2.87441821E-08
  -2.35500000E-02  -2.94302929E-08
  -2.34999992E-02  -3.02764214E-08
  -2.34500002E-02  -3.13756807E-08
  -2.33999994E-02  -3.26597416E-08
  -2.33500004E-02  -3.39223405E-08
  -2.32999995E-02  -3.49025662E-08
  -2.32500006E-02  -3.53931568E-08
  -2.31999997E-02  -3.53277869E-08
  -2.31500007E-02  -3.48089948E-08
  -2.30999999E-02  -3.40639055E-08
  -2.30500009E-02  -3.33463319E-08
  -2.30000000E-02  -3.28265912E-08
  -2.29499992E-02  -3.25157998E-08
  -2.29000002E-02  -3.22573470E-08
  -2.28499994E-02  -3.17896109E-08
  -2.28000004E-02  -3.08545083E-08
  -2.27499995E-02  -2.93069196E-08
  -2.27000006E-02  -2.71784355E-08
  -2.26499997E-02  -2.46681235E-08
  -2.26000007E-02  -2.20623342E-08
  -2.25499999E-02  -1.96159800E-08
  -2.25000009E-02  -1.74456698E-08
  -2.24500000E-02  -1.54799977E-08
  -2.23999992E-02  -1.34892328E-08
  -2.23500002E-02  -1.11840253E-08
  -2.22999994E-02  -8.34243608E-09
  -2.22500004E-02  -4.91228747E-09
  -2.21999995E-02  -1.04487530E-09
  -2.21500006E-02   2.95656899E-09
  -2.20999997E-02   6.75454581E-09
  -2.20500007E-02   1.01137525E-08
  -2.19999999E-02   1.29991289E-08
  -2.19500009E-02   1.55918656E-08
  -2.19000001E-02   1.82128943E-08
  -2.18499992E-02   2.11830926E-08
  -2.18000002E-02   2.46773517E-08
  -2.17499994E-02   2.86352488E-08
  -2.17000004E-02   3.27689840E-08
  -2.16499995E-02   3.66690642E-08
  -2.16000006E-02   3.99670554E-08
  -2.15499997E-02   4.24880469E-08
  -2.15000007E-02   4.43269030E-08
  -2.14499999E-02   4.58111309E-08
  -2.14000009E-02   4.73611799E-08
  -2.13500001E-02   4.93033596E-08
  -2.12999992E-02   5.17141565E-08
  -2.12500002E-02   5.43665344E-08
  -2.11999994E-02   5.68068224E-08
  -2.11500004E-02   5.85351820E-08
  -2.10999995E-02   5.92161271E-08
  -2.10500006E-02   5.88282028E-08
  -2.09999997E-02   5.76843853E-08
  -2.09500007E-02   5.63073392E-08
  -2.08999999E-02   5.52068613E-08
  -2.08500009E-02   5.46527588E-08
  -2.08000001E-02   5.45425927E-08
  -2.07499992E-02   5.44279111E-08
  -2.07000002E-02   5.36963469E-08
  -2.06499994E-02   5.18358725E-08
  -2.06000004E-02   4.86684115E-08
  -2.05499995E-02   4.44469919E-08
  -2.05000006E-02   3.97658191E-08
  -2.04499997E-02   3.53148195E-08
  -2.04000007E-02   3.15808180E-08
  -2.03499999E-02   2.86257613E-08
  -2.03000009E-02   2.60454858E-08
  -2.02500001E-02   2.31361454E-08
  -2.01999992E-02   1.92036875E-08
  -2.01500002E-02   1.38853391E-08
  -2.00999994E-02   7.33900629E-09
  -2.00500004E-02   2.08589618E-10
  -1.99999996E-02  -6.63025324E-09
  -1.99500006E-02  -1.24396893E-08
  -1.98999997E-02  -1.69433996E-08
  -1.98500007E-02  -2.04559800E-08
  -1.97999999E-02  -2.37517526E-08
  -1.97500009E-02  -2.77205494E-08
  -1.97000001E-02  -3.29556791E-08
  -1.96499992E-02  -3.94570492E-08
  -1.96000002E-02  -4.65880099E-08
  -1.95499994E-02  -5.33179545E-08
  -1.95000004E-02  -5.86531854E-08
  -1.94499996E-02  -6.20696667E-08
  -1.94000006E-02  -6.37532764E-08
  -1.93499997E-02  -6.45299281E-08
  -1.93000007E-02  -6.55043024E-08
  -1.92499999E-02  -6.75591636E-08
  -1.92000009E-02  -7.09363164E-08
  -1.91500001E-02  -7.50904405E-08
  -1.90999992E-02  -7.88923344E-08
  -1.90500002E-02  -8.11037637E-08
  -1.89999994E-02  -8.09200031E-08
  -1.89500004E-02  -7.83377487E-08
  -1.88999996E-02  -7.41758228E-08
  -1.88500006E-02  -6.97270792E-08
  -1.87999997E-02  -6.61859900E-08
  -1.87500007E-02  -6.41026361E-08
  -1.86999999E-02  -6.31113082E-08
  -1.86500009E-02  -6.20652187E-08
  -1.86000001E-02  -5.95303717E-08
  -1.85499992E-02  -5.44270904E-08
  -1.85000002E-02  -4.65339340E-08
  -1.84499994E-02  -3.66215716E-08
  -1.84000004E-02  -2.61446989E-08
  -1.83499996E-02  -1.66183849E-08
  -1.83000006E-02  -8.94894914E-09
  -1.82499997E-02  -3.02102210E-09
  -1.82000007E-02   2.26486674E-09
  -1.81499999E-02   8.50706705E-09
  -1.81000009E-02   1.70763190E-08
  -1.80500001E-02   2.84697244E-08
  -1.79999992E-02   4.20402237E-08
  -1.79500002E-02   5.62320857E-08
  -1.78999994E-02   6.92287969E-08
  -1.78500004E-02   7.97361821E-08
  -1.77999996E-02   8.75493384E-08
  -1.77500006E-02   9.36397413E-08
  -1.76999997E-02   9.97105332E-08
  -1.76500008E-02   1.07410379E-07
  -1.75999999E-02   1.17550115E-07
  -1.75500009E-02   1.29673950E-07
  -1.75000001E-02   1.42189108E-07
  -1.74499992E-02   1.53009708E-07
  -1.74000002E-02   1.60437935E-07
  -1.73499994E-02   1.63891329E-07
  -1.73000004E-02   1.64144382E-07
  -1.72499996E-02   1.62965833E-07
  -1.72000006E-02   1.62303095E-07
  -1.71499997E-02   1.63368881E-07
  -1.71000008E-02   1.66039086E-07
  -1.70499999E-02   1.68838270E-07
  -1.70000009E-02   1.69531134E-07
  -1.69500001E-02   1.66065846E-07
  -1.68999992E-02   1.57454281E-07
  -1.68500002E-02   1.44196093E-07
  -1.67999994E-02   1.28041705E-07
  -1.67500004E-02   1.11187994E-07
  -1.66999996E-02   9.52604537E-08
  -1.66500006E-02   8.05403957E-08
  -1.65999997E-02   6.57833681E-08
  -1.65500008E-02   4.87174461E-08
  -1.64999999E-02   2.70091807E-08
  -1.64500009E-02  -7.21988469E-10
  -1.64000001E-02  -3.42939899E-08
  -1.63499992E-02  -7.20396756E-08
  -1.63000003E-02  -1.11548559E-07
  -1.62499994E-02  -1.50753550E-07
  -1.62000004E-02  -1.88872704E-07
  -1.61499996E-02  -2.26790149E-07
  -1.61000006E-02  -2.66692155E-07
  -1.60499997E-02  -3.11108494E-07
  -1.60000008E-02  -3.61789802E-07
  -1.59499999E-02  -4.18921445E-07
  -1.59000009E-02  -4.81015377E-07
  -1.58500001E-02  -5.45532600E-07
  -1.57999992E-02  -6.09991730E-07
  -1.57500003E-02  -6.73072861E-07
  -1.56999994E-02  -7.35215906E-07
  -1.56500004E-02  -7.98430960E-07
  -1.55999996E-02  -8.65396146E-07
  -1.55499997E-02  -9.38246444E-07
  -1.54999997E-02  -1.01760747E-06
  -1.54499998E-02  -1.10228484E-06
  -1.53999999E-02  -1.18972582E-06
  -1.53500000E-02  -1.27710155E-06
  -1.53000001E-02  -1.36252822E-06
  -1.52500002E-02  -1.44587773E-06
  -1.52000003E-02  -1.52882467E-06
  -1.51500003E-02  -1.61407570E-06
  -1.51000004E-02  -1.70412500E-06
  -1.50499996E-02  -1.80010613E-06
  -1.49999997E-02  -1.90123762E-06
  -1.49499997E-02  -2.00510681E-06
  -1.48999998E-02  -2.10868825E-06
  -1.48499999E-02  -2.20963170E-06
  -1.48000000E-02  -2.30725846E-06
  -1.47500001E-02  -2.40283953E-06
  -1.47000002E-02  -2.49901723E-06
  -1.46500003E-02  -2.59861622E-06
  -1.46000003E-02  -2.70337432E-06
  -1.45500004E-02  -2.81311623E-06
  -1.44999996E-02  -2.92577465E-06
  -1.44499997E-02  -3.03827164E-06
  -1.43999998E-02  -3.14785325E-06
  -1.43499998E-02  -3.25329188E-06
  -1.42999999E-02  -3.35541108E-06
  -1.42500000E-02  -3.45671083E-06
  -1.42000001E-02  -3.56024634E-06
  -1.41500002E-02  -3.66828522E-06
  -1.41000003E-02  -3.78129380E-06
  -1.40500003E-02  -3.89769366E-06
  -1.40000004E-02  -4.01453599E-06
  -1.39499996E-02  -4.12878899E-06
  -1.38999997E-02  -4.23870097E-06
  -1.38499998E-02  -4.34459298E-06
  -1.37999998E-02  -4.44875377E-06
  -1.37499999E-02  -4.55445206E-06
  -1.37000000E-02  -4.66454867E-06
  -1.36500001E-02  -4.78027141E-06
  -1.36000002E-02  -4.90067487E-06
  -1.35500003E-02  -5.02304647E-06
  -1.35000004E-02  -5.14416433E-06
  -1.34500004E-02  -5.26182475E-06
  -1.33999996E-02  -5.37574897E-06
  -1.33499997E-02  -5.48780008E-06
  -1.32999998E-02  -5.60128774E-06
  -1.32499998E-02  -5.71956571E-06
  -1.31999999E-02  -5.84464624E-06
  -1.31500000E-02  -5.97632834E-06
  -1.31000001E-02  -6.11233281E-06
  -1.30500002E-02  -6.24940139E-06
  -1.30000003E-02  -6.38480105E-06
  -1.29500004E-02  -6.51761593E-06
  -1.29000004E-02  -6.64929348E-06
  -1.28499996E-02  -6.78306787E-06
  -1.27999997E-02  -6.92262256E-06
  -1.27499998E-02  -7.07060826E-06
  -1.26999998E-02  -7.22767390E-06
  -1.26499999E-02  -7.39222332E-06
  -1.26000000E-02  -7.56112058E-06
  -1.25500001E-02  -7.73121792E-06
  -1.25000002E-02  -7.90090144E-06
  -1.24500003E-02  -8.07095967E-06
  -1.24000004E-02  -8.24426934E-06
  -1.23500004E-02  -8.42462487E-06
  -1.22999996E-02  -8.61524404E-06
  -1.22499997E-02  -8.81740471E-06
  -1.21999998E-02  -9.02993816E-06
  -1.21499998E-02  -9.24990218E-06
  -1.20999999E-02  -9.47397439E-06
  -1.20500000E-02  -9.70004839E-06
  -1.20000001E-02  -9.92829155E-06
  -1.19500002E-02  -1.01612277E-05
  -1.19000003E-02  -1.04028341E-05
  -1.18500004E-02  -1.06569123E-05
  -1.18000004E-02  -1.09255188E-05
  -1.17499996E-02  -1.12081743E-05
  -1.16999997E-02  -1.15021021E-05
  -1.16499998E-02  -1.18035287E-05
  -1.15999999E-02  -1.21092780E-05
  -1.15499999E-02  -1.24183125E-05
  -1.15000000E-02  -1.27323929E-05
  -1.14500001E-02  -1.30552571E-05
  -1.14000002E-02  -1.33910735E-05
  -1.13500003E-02  -1.37426432E-05
  -1.13000004E-02  -1.41104374E-05
  -1.12500004E-02  -1.44926425E-05
  -1.11999996E-02  -1.48860108E-05
  -1.11499997E-02  -1.52874436E-05
  -1.10999998E-02  -1.56955266E-05
  -1.10499999E-02  -1.61113730E-05
  -1.09999999E-02  -1.65382335E-05
  -1.09500000E-02  -1.69802061E-05
  -1.09000001E-02  -1.74403140E-05
  -1.08500002E-02  -1.79190665E-05
  -1.08000003E-02  -1.84143428E-05
  -1.07500004E-02  -1.89222937E-05
  -1.07000005E-02  -1.94389504E-05
  -1.06499996E-02  -1.99619390E-05
  -1.05999997E-02  -2.04917869E-05
  -1.05499998E-02  -2.10318121E-05
  -1.04999999E-02  -2.15867240E-05
  -1.04499999E-02  -2.21609989E-05
  -1.04000000E-02  -2.27571654E-05
  -1.03500001E-02  -2.33748833E-05
  -1.03000002E-02  -2.40113641E-05
  -1.02500003E-02  -2.46626460E-05
  -1.02000004E-02  -2.53255021E-05
  -1.01500005E-02  -2.59993685E-05
  -1.00999996E-02  -2.66865900E-05
  -1.00499997E-02  -2.73910009E-05
  -9.99999978E-03  -2.81164139E-05
  -9.94999986E-03  -2.88650372E-05
  -9.89999995E-03  -2.96363178E-05
  -9.85000003E-03  -3.04274399E-05
  -9.80000012E-03  -3.12348566E-05
  -9.75000020E-03  -3.20554573E-05
  -9.70000029E-03  -3.28883943E-05
  -9.65000037E-03  -3.37360179E-05
  -9.60000046E-03  -3.46027628E-05
  -9.54999961E-03  -3.54935728E-05
  -9.49999969E-03  -3.64122498E-05
  -9.44999978E-03  -3.73599432E-05
  -9.39999986E-03  -3.83347906E-05
  -9.34999995E-03  -3.93333139E-05
  -9.30000003E-03  -4.03519225E-05
  -9.25000012E-03  -4.13889684E-05
  -9.20000020E-03  -4.24460959E-05
  -9.15000029E-03  -4.35274087E-05
  -9.10000037E-03  -4.46381928E-05
  -9.05000046E-03  -4.57823371E-05
  -8.99999961E-03  -4.69608422E-05
  -8.94999970E-03  -4.81724092E-05
  -8.89999978E-03  -4.94142441E-05
  -8.84999987E-03  -5.06827273E-05
  -8.79999995E-03  -5.19751447E-05
  -8.75000004E-03  -5.32916201E-05
  -8.70000012E-03  -5.46353731E-05
  -8.65000021E-03  -5.60116605E-05
  -8.60000029E-03  -5.74256592E-05
  -8.55000038E-03  -5.88803159E-05
  -8.50000046E-03  -6.03751214E-05
  -8.44999962E-03  -6.19071361E-05
  -8.39999970E-03  -6.34733151E-05
  -8.34999979E-03  -6.50724105E-05
  -8.29999987E-03  -6.67053682E-05
  -8.24999996E-03  -6.83751277E-05
  -8.20000004E-03  -7.00863238E-05
  -8.15000013E-03  -7.18440933E-05
  -8.10000021E-03  -7.36519214E-05
  -8.05000030E-03  -7.55107903E-05
  -8.00000038E-03  -7.74185610E-05
  -7.95000046E-03  -7.93707877E-05
  -7.89999962E-03  -8.13648294E-05
  -7.84999970E-03  -8.34011589E-05
  -7.79999979E-03  -8.54820973E-05
  -7.74999987E-03  -8.76112317E-05
  -7.69999996E-03  -8.97930222E-05
  -7.65000004E-03  -9.20309540E-05
  -7.60000013E-03  -9.43268751E-05
  -7.55000021E-03  -9.66791995E-05
  -7.49999983E-03  -9.90841800E-05
  -7.44999992E-03  -1.01538877E-04
  -7.40000000E-03  -1.04042483E-04
  -7.35000009E-03  -1.06597552E-04
  -7.30000017E-03  -1.09209264E-04
  -7.24999979E-03  -1.11882844E-04
  -7.19999988E-03  -1.14621842E-04
  -7.14999996E-03  -1.17428179E-04
  -7.10000005E-03  -1.20301644E-04
  -7.05000013E-03  -1.23240679E-04
  -7.00000022E-03  -1.26243467E-04
  -6.94999984E-03  -1.29308173E-04
  -6.89999992E-03  -1.32434114E-04
  -6.85000001E-03  -1.35624839E-04
  -6.80000009E-03  -1.38886578E-04
  -6.75000018E-03  -1.42224832E-04
  -6.69999979E-03  -1.45640923E-04
  -6.64999988E-03  -1.49131665E-04
  -6.59999996E-03  -1.52694003E-04
  -6.55000005E-03  -1.56327646E-04
  -6.50000013E-03  -1.60032752E-04
  -6.45000022E-03  -1.63807796E-04
  -6.39999984E-03  -1.67653503E-04
  -6.34999992E-03  -1.71574517E-04
  -6.30000001E-03  -1.75577195E-04
  -6.25000009E-03  -1.79665294E-04
  -6.20000018E-03  -1.83838478E-04
  -6.14999980E-03  -1.88094171E-04
  -6.09999988E-03  -1.92429376E-04
  -6.04999997E-03  -1.96844339E-04
  -6.00000005E-03  -2.01341347E-04
  -5.95000014E-03  -2.05921693E-04
  -5.90000022E-03  -2.10587954E-04
  -5.84999984E-03  -2.15344931E-04
  -5.79999993E-03  -2.20198228E-04
  -5.75000001E-03  -2.25149677E-04
  -5.70000010E-03  -2.30195918E-04
  -5.65000018E-03  -2.35332991E-04
  -5.59999980E-03  -2.40559631E-04
  -5.54999989E-03  -2.45878502E-04
  -5.49999997E-03  -2.51291960E-04
  -5.45000006E-03  -2.56800296E-04
  -5.40000014E-03  -2.62405578E-04
  -5.35000023E-03  -2.68113421E-04
  -5.29999984E-03  -2.73928192E-04
  -5.24999993E-03  -2.79847562E-04
  -5.20000001E-03  -2.85867136E-04
  -5.15000010E-03  -2.91985489E-04
  -5.10000018E-03  -2.98204541E-04
  -5.04999980E-03  -3.04527464E-04
  -4.99999989E-03  -3.10956413E-04
  -4.94999997E-03  -3.17495142E-04
  -4.90000006E-03  -3.24148015E-04
  -4.85000014E-03  -3.30918818E-04
  -4.80000023E-03  -3.37808393E-04
  -4.74999985E-03  -3.44815810E-04
  -4.69999993E-03  -3.51941126E-04
  -4.65000002E-03  -3.59183032E-04
  -4.60000010E-03  -3.66544147E-04
  -4.55000019E-03  -3.74027295E-04
  -4.49999981E-03  -3.81635502E-04
  -4.44999989E-03  -3.89373396E-04
  -4.39999998E-03  -3.97242489E-04
  -4.35000006E-03  -4.05242725E-04
  -4.30000015E-03  -4.13371163E-04
  -4.25000023E-03  -4.21628531E-04
  -4.19999985E-03  -4.30016371E-04
  -4.14999994E-03  -4.38534655E-04
  -4.10000002E-03  -4.47185274E-04
  -4.05000011E-03  -4.55970323E-04
  -4.00000019E-03  -4.64894052E-04
  -3.94999981E-03  -4.73960477E-04
  -3.89999989E-03  -4.83174255E-04
  -3.84999998E-03  -4.92539315E-04
  -3.80000006E-03  -5.02053881E-04
  -3.74999992E-03  -5.11714839E-04
  -3.70000000E-03  -5.21523238E-04
  -3.65000009E-03  -5.31486410E-04
  -3.59999994E-03  -5.41611225E-04
  -3.55000002E-03  -5.51900710E-04
  -3.50000011E-03  -5.62353758E-04
  -3.44999996E-03  -5.72968624E-04
  -3.40000005E-03  -5.83749730E-04
  -3.34999990E-03  -5.94699988E-04
  -3.29999998E-03  -6.05821260E-04
  -3.25000007E-03  -6.17113954E-04
  -3.19999992E-03  -6.28573354E-04
  -3.15000000E-03  -6.40198996E-04
  -3.10000009E-03  -6.51996350E-04
  -3.04999994E-03  -6.63976534E-04
  -3.00000003E-03  -6.76151016E-04
  -2.95000011E-03  -6.88515021E-04
  -2.89999996E-03  -7.01051904E-04
  -2.85000005E-03  -7.13768823E-04
  -2.79999990E-03  -7.26682309E-04
  -2.74999999E-03  -7.39792828E-04
  -2.70000007E-03  -7.53098400E-04
  -2.64999992E-03  -7.66599318E-04
  -2.60000001E-03  -7.80298666E-04
  -2.55000009E-03  -7.94201565E-04
  -2.49999994E-03  -8.08312849E-04
  -2.45000003E-03  -8.22638976E-04
  -2.40000011E-03  -8.37181753E-04
  -2.34999997E-03  -8.51937162E-04
  -2.30000005E-03  -8.66900198E-04
  -2.24999990E-03  -8.82076507E-04
  -2.19999999E-03  -8.97475693E-04
  -2.15000007E-03  -9.13100142E-04
  -2.09999993E-03  -9.28956608E-04
  -2.05000001E-03  -9.45042644E-04
  -2.00000009E-03  -9.61350102E-04
  -1.94999995E-03  -9.77883930E-04
  -1.90000003E-03  -9.94655304E-04
  -1.85000000E-03  -1.01166451E-03
  -1.79999997E-03  -1.02890667E-03
  -1.75000005E-03  -1.04638794E-03
  -1.70000002E-03  -1.06410729E-03
  -1.64999999E-03  -1.08206447E-03
  -1.59999996E-03  -1.10026868E-03
  -1.55000004E-03  -1.11872214E-03
  -1.50000001E-03  -1.13743043E-03
  -1.44999998E-03  -1.15639798E-03
  -1.39999995E-03  -1.17561943E-03
  -1.35000004E-03  -1.19508908E-03
  -1.30000000E-03  -1.21482613E-03
  -1.24999997E-03  -1.23484689E-03
  -1.20000006E-03  -1.25513168E-03
  -1.15000003E-03  -1.27566233E-03
  -1.09999999E-03  -1.29645597E-03
  -1.04999996E-03  -1.31754053E-03
  -1.00000005E-03  -1.33891869E-03
  -9.50000016E-04  -1.36057555E-03
  -8.99999985E-04  -1.38249039E-03
  -8.50000011E-04  -1.40465843E-03
  -7.99999980E-04  -1.42710423E-03
  -7.50000007E-04  -1.44984189E-03
  -6.99999975E-04  -1.47286605E-03
  -6.50000002E-04  -1.49616913E-03
  -6.00000028E-04  -1.51974370E-03
  -5.49999997E-04  -1.54360151E-03
  -5.00000024E-04  -1.56776491E-03
  -4.49999992E-04  -1.59222831E-03
  -3.99999990E-04  -1.61696854E-03
  -3.49999988E-04  -1.64197967E-03
  -3.00000014E-04  -1.66727055E-03
  -2.50000012E-04  -1.69286365E-03
  -1.99999995E-04  -1.71878363E-03
  -1.50000007E-04  -1.74501946E-03
  -9.99999975E-05  -1.77154015E-03
  -4.99999987E-05  -1.79833022E-03
   0.00000000      -1.82541599E-03
   4.99999987E-05  -1.85283727E-03
   9.99999975E-05  -1.88057777E-03
   1.50000007E-04  -1.90859102E-03
   1.99999995E-04  -1.93684665E-03
   2.50000012E-04  -1.96538144E-03
   3.00000014E-04  -1.99426548E-03
   3.49999988E-04  -2.02349573E-03
   3.99999990E-04  -2.05301004E-03
   4.49999992E-04  -2.08277209E-03
   5.00000024E-04  -2.11280235E-03
   5.49999997E-04  -2.14314135E-03
   6.00000028E-04  -2.17380514E-03
   6.50000002E-04  -2.20478070E-03
   6.99999975E-04  -2.23603100E-03
   7.50000007E-04  -2.26753741E-03
   7.99999980E-04  -2.29934393E-03
   8.50000011E-04  -2.33148737E-03
   8.99999985E-04  -2.36394024E-03
   9.50000016E-04  -2.39664828E-03
   1.00000005E-03  -2.42959219E-03
   1.04999996E-03  -2.46281247E-03
   1.09999999E-03  -2.49635032E-03
   1.15000003E-03  -2.53019831E-03
   1.20000006E-03  -2.56431988E-03
   1.24999997E-03  -2.59870687E-03
   1.30000000E-03  -2.63336813E-03
   1.35000004E-03  -2.66830018E-03
   1.39999995E-03  -2.70351232E-03
   1.44999998E-03  -2.73900223E-03
   1.50000001E-03  -2.77473149E-03
   1.55000004E-03  -2.81066820E-03
   1.59999996E-03  -2.84683774E-03
   1.64999999E-03  -2.88329460E-03
   1.70000002E-03  -2.92005506E-03
   1.75000005E-03  -2.95708259E-03
   1.79999997E-03  -2.99432687E-03
   1.85000000E-03  -3.03176465E-03
   1.90000003E-03  -3.06943036E-03
   1.94999995E-03  -3.10734683E-03
   2.00000009E-03  -3.14550009E-03
   2.05000001E-03  -3.18385940E-03
   2.09999993E-03  -3.22242174E-03
   2.15000007E-03  -3.26121110E-03
   2.19999999E-03  -3.30024632E-03
   2.24999990E-03  -3.33952368E-03
   2.30000005E-03  -3.37898126E-03
   2.34999997E-03  -3.41860624E-03
   2.40000011E-03  -3.45841399E-03
   2.45000003E-03  -3.49839777E-03
   2.49999994E-03  -3.53856524E-03
   2.55000009E-03  -3.57891642E-03
   2.60000001E-03  -3.61947739E-03
   2.64999992E-03  -3.66025534E-03
   2.70000007E-03  -3.70116183E-03
   2.74999999E-03  -3.74214468E-03
   2.79999990E-03  -3.78327188E-03