  -3.99999991E-02   0.00000000    
  -3.99499983E-02   0.00000000    
  -3.99000011E-02   0.00000000    
  -3.98500003E-02   0.00000000    
  -3.97999994E-02   0.00000000    
  -3.97499986E-02   1.96160892E-22
  -3.97000015E-02   1.54367796E-21
  -3.96500006E-02   6.40715927E-21
  -3.95999998E-02   1.89366167E-20
  -3.95499989E-02   4.56743931E-20
  -3.95000018E-02   9.75412994E-20
  -3.94500010E-02   1.93116365E-19
  -3.94000001E-02   3.60923510E-19
  -3.93499993E-02   6.38515294E-19
  -3.92999984E-02   1.06943214E-18
  -3.92500013E-02   1.70153782E-18
  -3.92000005E-02   2.58758453E-18
  -3.91499996E-02   3.78393978E-18
  -3.90999988E-02   5.34437630E-18
  -3.90500017E-02   7.31482020E-18
  -3.90000008E-02   9.74174330E-18
  -3.89500000E-02   1.26992052E-17
  -3.88999991E-02   1.63203595E-17
  -3.88499983E-02   2.08079053E-17
  -3.88000011E-02   2.64089570E-17
  -3.87500003E-02   3.33643664E-17
  -3.86999995E-02   4.18571257E-17
  -3.86499986E-02   5.19796260E-17
  -3.86000015E-02   6.37298193E-17
  -3.85500006E-02   7.70471426E-17
  -3.84999998E-02   9.18991242E-17
  -3.84499989E-02   1.08402205E-16
  -3.84000018E-02   1.26908816E-16
  -3.83500010E-02   1.47966081E-16
  -3.83000001E-02   1.72101557E-16
  -3.82499993E-02   1.99503589E-16
  -3.81999984E-02   2.29754775E-16
  -3.81500013E-02   2.61767353E-16
  -3.81000005E-02   2.93966411E-16
  -3.80499996E-02   3.24652323E-16
  -3.79999988E-02   3.52413405E-16
  -3.79500017E-02   3.76448626E-16
  -3.79000008E-02   3.96666112E-16
  -3.78500000E-02   4.13452505E-16
  -3.77999991E-02   4.27119037E-16
  -3.77499983E-02   4.37223478E-16
  -3.77000012E-02   4.42109588E-16
  -3.76500003E-02   4.38952776E-16
  -3.75999995E-02   4.24316946E-16
  -3.75499986E-02   3.94916539E-16
  -3.75000015E-02   3.48167255E-16
  -3.74500006E-02   2.82261368E-16
  -3.73999998E-02   1.95774103E-16
  -3.73499990E-02   8.69894697E-17
  -3.73000018E-02  -4.68087943E-17
  -3.72500010E-02  -2.09819762E-16
  -3.72000001E-02  -4.07710151E-16
  -3.71499993E-02  -6.46921837E-16
  -3.70999984E-02  -9.33409979E-16
  -3.70500013E-02  -1.27127501E-15
  -3.70000005E-02  -1.66187938E-15
  -3.69499996E-02  -2.10378738E-15
  -3.68999988E-02  -2.59340736E-15
  -3.68500017E-02  -3.12594883E-15
  -3.68000008E-02  -3.69640435E-15
  -3.67500000E-02  -4.30051418E-15
  -3.66999991E-02  -4.93570164E-15
  -3.66499983E-02  -5.60173889E-15
  -3.66000012E-02  -6.30066517E-15
  -3.65500003E-02  -7.03569368E-15
  -3.64999995E-02  -7.80931512E-15
  -3.64499986E-02  -8.62126651E-15
  -3.64000015E-02  -9.46708312E-15
  -3.63500006E-02  -1.03377415E-14
  -3.62999998E-02  -1.12205489E-14
  -3.62499990E-02  -1.21011091E-14
  -3.62000018E-02  -1.29656638E-14
  -3.61500010E-02  -1.38024747E-14
  -3.61000001E-02  -1.46007355E-14
  -3.60499993E-02  -1.53464328E-14
  -3.59999985E-02  -1.60165748E-14
  -3.59500013E-02  -1.65750219E-14
  -3.59000005E-02  -1.69736018E-14
  -3.58499996E-02  -1.71601099E-14
  -3.57999988E-02  -1.70914054E-14
  -3.57500017E-02  -1.67466444E-14
  -3.57000008E-02  -1.61343954E-14
  -3.56500000E-02  -1.52887448E-14
  -3.55999991E-02  -1.42533233E-14
  -3.55499983E-02  -1.30574288E-14
  -3.55000012E-02  -1.16933263E-14
  -3.54500003E-02  -1.01056358E-14
  -3.53999995E-02  -8.20059098E-15
  -3.53499986E-02  -5.87459828E-15
  -3.53000015E-02  -3.05174409E-15
  -3.52500007E-02   2.86681504E-16
  -3.51999998E-02   4.09608108E-15
  -3.51499990E-02   8.29178763E-15
  -3.51000018E-02   1.27936695E-14
  -3.50500010E-02   1.75725218E-14
  -3.50000001E-02   2.26750212E-14
  -3.49499993E-02   2.82109744E-14
  -3.48999985E-02   3.43026490E-14
  -3.48500013E-02   4.10147990E-14
  -3.48000005E-02   4.82973884E-14
  -3.47499996E-02   5.59726792E-14
  -3.46999988E-02   6.37813370E-14
  -3.46500017E-02   7.14746797E-14
  -3.46000008E-02   7.89141701E-14
  -3.45500000E-02   8.61293187E-14
  -3.44999991E-02   9.32988699E-14
  -3.44499983E-02   1.00653616E-13
  -3.44000012E-02   1.08337391E-13
  -3.43500003E-02   1.16288625E-13
  -3.42999995E-02   1.24203287E-13
  -3.42499986E-02   1.31609038E-13
  -3.42000015E-02   1.38030212E-13
  -3.41500007E-02   1.43176039E-13
  -3.40999998E-02   1.47062077E-13
  -3.40499990E-02   1.49995210E-13
  -3.40000018E-02   1.52409674E-13
  -3.39500010E-02   1.54614494E-13
  -3.39000002E-02   1.56564676E-13
  -3.38499993E-02   1.57772273E-13
  -3.37999985E-02   1.57419108E-13
  -3.37500013E-02   1.54642236E-13
  -3.37000005E-02   1.48877641E-13
  -3.36499996E-02   1.40105158E-13
  -3.35999988E-02   1.28867498E-13
  -3.35500017E-02   1.16029392E-13
  -3.35000008E-02   1.02363661E-13
  -3.34500000E-02   8.81447354E-14
  -3.33999991E-02   7.29472702E-14
  -3.33499983E-02   5.57706787E-14
  -3.33000012E-02   3.54639312E-14
  -3.32500003E-02   1.12757881E-14
  -3.31999995E-02  -1.67247350E-14
  -3.31499986E-02  -4.75763024E-14
  -3.31000015E-02  -7.97731699E-14
  -3.30500007E-02  -1.11908563E-13
  -3.29999998E-02  -1.43333316E-13
  -3.29499990E-02  -1.74513331E-13
  -3.29000019E-02  -2.06881468E-13
  -3.28500010E-02  -2.42200303E-13
  -3.28000002E-02  -2.81690497E-13
  -3.27499993E-02  -3.25317925E-13
  -3.26999985E-02  -3.71598152E-13
  -3.26500013E-02  -4.18061663E-13
  -3.26000005E-02  -4.62219618E-13
  -3.25499997E-02  -5.02612383E-13
  -3.24999988E-02  -5.39443544E-13
  -3.24500017E-02  -5.74456606E-13
  -3.24000008E-02  -6.10046085E-13
  -3.23500000E-02  -6.47958358E-13
  -3.22999991E-02  -6.88170495E-13
  -3.22499983E-02  -7.28501786E-13
  -3.22000012E-02  -7.65215528E-13
  -3.21500003E-02  -7.94418513E-13
  -3.20999995E-02  -8.13668523E-13
  -3.20499986E-02  -8.23043998E-13
  -3.20000015E-02  -8.25120246E-13
  -3.19500007E-02  -8.23769709E-13
  -3.18999998E-02  -8.22255675E-13
  -3.18499990E-02  -8.21465400E-13
  -3.18000019E-02  -8.19131167E-13
  -3.17500010E-02  -8.10484275E-13
  -3.17000002E-02  -7.90146323E-13
  -3.16499993E-02  -7.54457911E-13
  -3.15999985E-02  -7.03182467E-13
  -3.15500014E-02  -6.39734630E-13
  -3.15000005E-02  -5.69718589E-13
  -3.14499997E-02  -4.98345777E-13
  -3.13999988E-02  -4.27877135E-13
  -3.13500017E-02  -3.56310955E-13
  -3.13000008E-02  -2.78034079E-13
  -3.12500000E-02  -1.86276206E-13
  -3.11999992E-02  -7.63338977E-14
  -3.11500002E-02   5.19097840E-14
  -3.10999993E-02   1.93417263E-13
  -3.10500003E-02   3.39792105E-13
  -3.09999995E-02   4.82762268E-13
  -3.09500005E-02   6.17831090E-13
  -3.08999997E-02   7.46390200E-13
  -3.08500007E-02   8.75194936E-13
  -3.07999998E-02   1.01326759E-12
  -3.07500008E-02   1.16750826E-12
  -3.07000000E-02   1.33899077E-12
  -3.06499992E-02   1.52173055E-12
  -3.06000002E-02   1.70466581E-12
  -3.05499993E-02   1.87612252E-12
  -3.05000003E-02   2.02882329E-12
  -3.04499995E-02   2.16311149E-12
  -3.04000005E-02   2.28676518E-12
  -3.03499997E-02   2.41126932E-12
  -3.03000007E-02   2.54607576E-12
  -3.02499998E-02   2.69340995E-12
  -3.02000009E-02   2.84609012E-12
  -3.01500000E-02   2.98956845E-12
  -3.00999992E-02   3.10750384E-12
  -3.00500002E-02   3.18848637E-12
  -2.99999993E-02   3.23085287E-12
  -2.99500003E-02   3.24325614E-12
  -2.98999995E-02   3.24049468E-12
  -2.98500005E-02   3.23630554E-12
  -2.97999997E-02   3.23631963E-12
  -2.97500007E-02   3.23448907E-12
  -2.96999998E-02   3.21483140E-12
  -2.96500009E-02   3.15796000E-12
  -2.96000000E-02   3.04960657E-12
  -2.95499992E-02   2.88727310E-12
  -2.95000002E-02   2.68181766E-12
  -2.94499993E-02   2.45296817E-12
  -2.94000003E-02   2.22053734E-12
  -2.93499995E-02   1.99520392E-12
  -2.93000005E-02   1.77312386E-12
  -2.92499997E-02   1.53707114E-12
  -2.92000007E-02   1.26390857E-12
  -2.91499998E-02   9.35219025E-13
  -2.91000009E-02   5.46324542E-13
  -2.90500000E-02   1.09441373E-13
  -2.89999992E-02  -3.50758864E-13
  -2.89500002E-02  -8.07472090E-13
  -2.88999993E-02  -1.24345976E-12
  -2.88500004E-02  -1.65877381E-12
  -2.87999995E-02  -2.07075221E-12
  -2.87500005E-02  -2.50593448E-12
  -2.86999997E-02  -2.98726842E-12
  -2.86500007E-02  -3.52230441E-12
  -2.85999998E-02  -4.09788653E-12
  -2.85500009E-02  -4.68407041E-12
  -2.85000000E-02  -5.24586190E-12
  -2.84499992E-02  -5.75771115E-12
  -2.84000002E-02  -6.21420884E-12
  -2.83499993E-02  -6.63193328E-12
  -2.83000004E-02  -7.04125126E-12
  -2.82499995E-02  -7.47143233E-12
  -2.82000005E-02  -7.93566081E-12
  -2.81499997E-02  -8.42277029E-12
  -2.81000007E-02  -8.89976114E-12
  -2.80499998E-02  -9.32434078E-12
  -2.80000009E-02  -9.66210792E-12
  -2.79500000E-02  -9.90070265E-12
  -2.78999992E-02  -1.00543280E-11
  -2.78500002E-02  -1.01562847E-11
  -2.77999993E-02  -1.02425325E-11
  -2.77500004E-02  -1.03335483E-11
  -2.76999995E-02  -1.04227304E-11
  -2.76500005E-02  -1.04768780E-11
  -2.75999997E-02  -1.04489785E-11
  -2.75500007E-02  -1.02978867E-11
  -2.74999999E-02  -1.00061678E-11
  -2.74500009E-02  -9.58794502E-12
  -2.74000000E-02  -9.08282737E-12
  -2.73499992E-02  -8.53826038E-12
  -2.73000002E-02  -7.98795925E-12
  -2.72499993E-02  -7.43610902E-12
  -2.72000004E-02  -6.85467004E-12
  -2.71499995E-02  -6.19542568E-12
  -2.71000005E-02  -5.41171708E-12
  -2.70499997E-02  -4.48030241E-12
  -2.70000007E-02  -3.41343165E-12
  -2.69499999E-02  -2.25541244E-12
  -2.69000009E-02  -1.06476069E-12
  -2.68500000E-02   1.10391873E-13
  -2.67999992E-02   1.25271831E-12
  -2.67500002E-02   2.38260128E-12
  -2.66999993E-02   3.54801995E-12
  -2.66500004E-02   4.80149687E-12
  -2.65999995E-02   6.17413672E-12
  -2.65500005E-02   7.65835919E-12
  -2.64999997E-02   9.20732674E-12
  -2.64500007E-02   1.07517441E-11
  -2.63999999E-02   1.22269564E-11
  -2.63500009E-02   1.35984531E-11
  -2.63000000E-02   1.48743760E-11
  -2.62499992E-02   1.60991446E-11
  -2.62000002E-02   1.73306196E-11
  -2.61499994E-02   1.86106790E-11
  -2.61000004E-02   1.99422284E-11
  -2.60499995E-02   2.12830378E-11
  -2.60000005E-02   2.25596469E-11
  -2.59499997E-02   2.36955195E-11
  -2.59000007E-02   2.46412838E-11
  -2.58499999E-02   2.53935796E-11
  -2.58000009E-02   2.59938755E-11
  -2.57500000E-02   2.65073085E-11
  -2.56999992E-02   2.69906094E-11
  -2.56500002E-02   2.74630874E-11
  -2.55999994E-02   2.78936856E-11
  -2.55500004E-02   2.82102623E-11
  -2.54999995E-02   2.83274654E-11
  -2.54500005E-02   2.81813687E-11
  -2.53999997E-02   2.77556814E-11
  -2.53500007E-02   2.70877366E-11
  -2.52999999E-02   2.62511315E-11
  -2.52500009E-02   2.53222478E-11
  -2.52000000E-02   2.43451093E-11
  -2.51499992E-02   2.33102305E-11
  -2.51000002E-02   2.21571147E-11
  -2.50499994E-02   2.07998879E-11
  -2.50000004E-02   1.91653724E-11
  -2.49499995E-02   1.72270930E-11
  -2.49000005E-02   1.50201449E-11
  -2.48499997E-02   1.26297540E-11
  -2.48000007E-02   1.01579535E-11
  -2.47499999E-02   7.68234087E-12
  -2.47000009E-02   5.22488259E-12
  -2.46500000E-02   2.74473218E-12
  -2.45999992E-02   1.58853833E-13
  -2.45500002E-02  -2.61794731E-12
  -2.44999994E-02  -5.63073850E-12
  -2.44500004E-02  -8.85846084E-12
  -2.43999995E-02  -1.22160771E-11
  -2.43500005E-02  -1.55846655E-11
  -2.42999997E-02  -1.88569872E-11
  -2.42500007E-02  -2.19789239E-11
  -2.41999999E-02  -2.49684440E-11
  -2.41500009E-02  -2.79030531E-11
  -2.41000000E-02  -3.08803365E-11
  -2.40499992E-02  -3.39682206E-11
  -2.40000002E-02  -3.71666482E-11
  -2.39499994E-02  -4.03979593E-11
  -2.39000004E-02  -4.35312134E-11
  -2.38499995E-02  -4.64306683E-11
  -2.38000005E-02  -4.90079609E-11
  -2.37499997E-02  -5.12549829E-11
  -2.37000007E-02  -5.32424521E-11
  -2.36499999E-02  -5.50836841E-11
  -2.36000009E-02  -5.68785678E-11
  -2.35500000E-02  -5.86617352E-11
  -2.34999992E-02  -6.03783551E-11
  -2.34500002E-02  -6.18990623E-11
  -2.33999994E-02  -6.30688696E-11
  -2.33500004E-02  -6.37695660E-11
  -2.32999995E-02  -6.39683306E-11
  -2.32500006E-02  -6.37305556E-11
  -2.31999997E-02  -6.31898284E-11
  -2.31500007E-02  -6.24870017E-11
  -2.30999999E-02  -6.17044332E-11
  -2.30500009E-02  -6.08244080E-11
  -2.30000000E-02  -5.97314281E-11
  -2.29499992E-02  -5.82587451E-11
  -2.29000002E-02  -5.62602534E-11
  -2.28499994E-02  -5.36767297E-11
  -2.28000004E-02  -5.05666134E-11
  -2.27499995E-02  -4.70862932E-11
  -2.27000006E-02  -4.34268697E-11
  -2.26499997E-02  -3.97340043E-11
  -2.26000007E-02  -3.60461834E-11
  -2.25499999E-02  -3.22795471E-11
  -2.25000009E-02  -2.82676590E-11
  -2.24500000E-02  -2.38404400E-11
  -2.23999992E-02  -1.89081303E-11
  -2.23500002E-02  -1.35128861E-11
  -2.22999994E-02  -7.82364711E-12
  -2.22500004E-02  -2.07447991E-12
  -2.21999995E-02   3.52802141E-12
  -2.21500006E-02   8.88782537E-12
  -2.20999997E-02   1.40553983E-11
  -2.20500007E-02   1.91987103E-11
  -2.19999999E-02   2.45201238E-11
  -2.19500009E-02   3.01547780E-11
  -2.19000001E-02   3.60956577E-11
  -2.18499992E-02   4.21800407E-11
  -2.18000002E-02   4.81455327E-11
  -2.17499994E-02   5.37328099E-11
  -2.17000004E-02   5.87903615E-11
  -2.16499995E-02   6.33340394E-11
  -2.16000006E-02   6.75332151E-11
  -2.15499997E-02   7.16272319E-11
  -2.15000007E-02   7.58077282E-11
  -2.14499999E-02   8.01191752E-11
  -2.14000009E-02   8.44231976E-11
  -2.13500001E-02   8.84451609E-11
  -2.12999992E-02   9.18847914E-11
  -2.12500002E-02   9.45427972E-11
  -2.11999994E-02   9.64069172E-11
  -2.11500004E-02   9.76570907E-11
  -2.10999995E-02   9.85849805E-11
  -2.10500006E-02   9.94614599E-11
  -2.09999997E-02   1.00410583E-10
  -2.09500007E-02   1.01347146E-10
  -2.08999999E-02   1.02007826E-10
  -2.08500009E-02   1.02064968E-10
  -2.08000001E-02   1.01273802E-10
  -2.07499992E-02   9.95873731E-11
  -2.07000002E-02   9.71862035E-11
  -2.06499994E-02   9.44070308E-11
  -2.06000004E-02   9.15998735E-11
  -2.05499995E-02   8.89767079E-11
  -2.05000006E-02   8.65198399E-11
  -2.04499997E-02   8.39932984E-11
  -2.04000007E-02   8.10547671E-11
  -2.03499999E-02   7.74200773E-11
  -2.03000009E-02   7.30070032E-11
  -2.02500001E-02   6.79924728E-11
  -2.01999992E-02   6.27551969E-11
  -2.01500002E-02   5.77264000E-11
  -2.00999994E-02   5.32140131E-11
  -2.00500004E-02   4.92793306E-11
  -1.99999996E-02   4.57229081E-11
  -1.99500006E-02   4.21886727E-11
  -1.98999997E-02   3.83412399E-11
  -1.98500007E-02   3.40375367E-11
  -1.97999999E-02   2.94144431E-11
  -1.97500009E-02   2.48507048E-11
  -1.97000001E-02   2.08174849E-11
  -1.96499992E-02   1.76828812E-11
  -1.96000002E-02   1.55581208E-11
  -1.95499994E-02   1.42560920E-11
  -1.95000004E-02   1.33835209E-11
  -1.94499996E-02   1.25278208E-11
  -1.94000006E-02   1.14556567E-11
  -1.93499997E-02   1.02332413E-11
  -1.93000007E-02   9.21201223E-12
  -1.92499999E-02   8.88341657E-12
  -1.92000009E-02   9.66590696E-12
  -1.91500001E-02   1.17193286E-11
  -1.90999992E-02   1.48711633E-11
  -1.90500002E-02   1.86898465E-11
  -1.89999994E-02   2.26744370E-11
  -1.89500004E-02   2.64765952E-11
  -1.88999996E-02   3.00547712E-11
  -1.88500006E-02   3.36893811E-11
  -1.87999997E-02   3.78495256E-11
  -1.87500007E-02   4.29691976E-11
  -1.86999999E-02   4.92328678E-11
  -1.86500009E-02   5.64676882E-11
  -1.86000001E-02   6.41928316E-11
  -1.85499992E-02   7.18058668E-11
  -1.85000002E-02   7.88237045E-11
  -1.84499994E-02   8.50699441E-11
  -1.84000004E-02   9.07230957E-11
  -1.83499996E-02   9.62019214E-11
  -1.83000006E-02   1.01937896E-10
  -1.82499997E-02   1.08136028E-10
  -1.82000007E-02   1.14632276E-10
  -1.81499999E-02   1.20913488E-10
  -1.81000009E-02   1.26292449E-10
  -1.80500001E-02   1.30161035E-10
  -1.79999992E-02   1.32207245E-10
  -1.79500002E-02   1.32497832E-10
  -1.78999994E-02   1.31387193E-10
  -1.78500004E-02   1.29292646E-10
  -1.77999996E-02   1.26436195E-10
  -1.77500006E-02   1.22669763E-10
  -1.76999997E-02   1.17463900E-10
  -1.76500008E-02   1.10067344E-10
  -1.75999999E-02   9.97671390E-11
  -1.75500009E-02   8.61333782E-11
  -1.75000001E-02   6.91379176E-11
  -1.74499992E-02   4.90923066E-11
  -1.74000002E-02   2.64316572E-11
  -1.73499994E-02   1.44073826E-12
  -1.73000004E-02  -2.59535778E-11
  -1.72499996E-02  -5.62295176E-11
  -1.72000006E-02  -9.01349134E-11
  -1.71499997E-02  -1.28428115E-10
  -1.71000008E-02  -1.71611877E-10
  -1.70499999E-02  -2.19779750E-10
  -1.70000009E-02  -2.72644740E-10
  -1.69500001E-02  -3.29738958E-10
  -1.68999992E-02  -3.90694727E-10
  -1.68500002E-02  -4.55481514E-10
  -1.67999994E-02  -5.24489951E-10
  -1.67500004E-02  -5.98425032E-10
  -1.66999996E-02  -6.78054779E-10
  -1.66500006E-02  -7.63927088E-10
  -1.65999997E-02  -8.56181126E-10
  -1.65500008E-02  -9.54539336E-10
  -1.64999999E-02  -1.05848386E-09
  -1.64500009E-02  -1.16753740E-09
  -1.64000001E-02  -1.28152433E-09
  -1.63499992E-02  -1.40069334E-09
  -1.63000003E-02  -1.52564572E-09
  -1.62499994E-02  -1.65710246E-09
  -1.62000004E-02  -1.79561299E-09
  -1.61499996E-02  -1.94133931E-09
  -1.61000006E-02  -2.09400985E-09
  -1.60499997E-02  -2.25306929E-09
  -1.60000008E-02  -2.41795028E-09
  -1.59499999E-02  -2.58835220E-09
  -1.59000009E-02  -2.76439738E-09
  -1.58500001E-02  -2.94659319E-09
  -1.57999992E-02  -3.13562198E-09
  -1.57500003E-02  -3.33204486E-09
  -1.56999994E-02  -3.53605656E-09
  -1.56500004E-02  -3.74740550E-09
  -1.55999996E-02  -3.96551059E-09
  -1.55499997E-02  -4.18972634E-09
  -1.54999997E-02  -4.41962955E-09
  -1.54499998E-02  -4.65521177E-09
  -1.53999999E-02  -4.89688379E-09
  -1.53500000E-02  -5.14529308E-09
  -1.53000001E-02  -5.40103251E-09
  -1.52500002E-02  -5.66437475E-09
  -1.52000003E-02  -5.93515326E-09
  -1.51500003E-02  -6.21284402E-09
  -1.51000004E-02  -6.49681065E-09
  -1.50499996E-02  -6.78659839E-09
  -1.49999997E-02  -7.08215486E-09
  -1.49499997E-02  -7.38387262E-09
  -1.48999998E-02  -7.69243513E-09
  -1.48499999E-02  -8.00853783E-09
  -1.48000000E-02  -8.33260394E-09
  -1.47500001E-02  -8.66463346E-09
  -1.47000002E-02  -9.00423291E-09
  -1.46500003E-02  -9.35084365E-09
  -1.46000003E-02  -9.70403136E-09
  -1.45500004E-02  -1.00637374E-08
  -1.44999996E-02  -1.04303561E-08
  -1.44499997E-02  -1.08046159E-08
  -1.43999998E-02  -1.11873204E-08
  -1.43499998E-02  -1.15790524E-08
  -1.42999999E-02  -1.19799957E-08
  -1.42500000E-02  -1.23899326E-08
  -1.42000001E-02  -1.28084379E-08
  -1.41500002E-02  -1.32351632E-08
  -1.41000003E-02  -1.36701113E-08
  -1.40500003E-02  -1.41137377E-08
  -1.40000004E-02  -1.45668757E-08
  -1.39499996E-02  -1.50304853E-08
  -1.38999997E-02  -1.55053659E-08
  -1.38499998E-02  -1.59919455E-08
  -1.37999998E-02  -1.64902225E-08
  -1.37499999E-02  -1.69999481E-08
  -1.37000000E-02  -1.75208861E-08
  -1.36500001E-02  -1.80531039E-08
  -1.36000002E-02  -1.85971416E-08
  -1.35500003E-02  -1.91539282E-08
  -1.35000004E-02  -1.97245722E-08
  -1.34500004E-02  -2.03100523E-08
  -1.33999996E-02  -2.09110116E-08
  -1.33499997E-02  -2.15276685E-08
  -1.32999998E-02  -2.21599308E-08
  -1.32499998E-02  -2.28076811E-08
  -1.31999999E-02  -2.34710562E-08
  -1.31500000E-02  -2.41506548E-08
  -1.31000001E-02  -2.48475125E-08
  -1.30500002E-02  -2.55628834E-08
  -1.30000003E-02  -2.62979647E-08
  -1.29500004E-02  -2.70536198E-08
  -1.29000004E-02  -2.78302750E-08
  -1.28499996E-02  -2.86280137E-08
  -1.27999997E-02  -2.94468361E-08
  -1.27499998E-02  -3.02869303E-08
  -1.26999998E-02  -3.11488719E-08
  -1.26499999E-02  -3.20337001E-08
  -1.26000000E-02  -3.29427223E-08
  -1.25500001E-02  -3.38772459E-08
  -1.25000002E-02  -3.48382869E-08
  -1.24500003E-02  -3.58264245E-08
  -1.24000004E-02  -3.68418753E-08
  -1.23500004E-02  -3.78847567E-08
  -1.22999996E-02  -3.89553421E-08
  -1.22499997E-02  -4.00543207E-08
  -1.21999998E-02  -4.11828047E-08
  -1.21499998E-02  -4.23421689E-08
  -1.20999999E-02  -4.35338094E-08
  -1.20500000E-02  -4.47588739E-08
  -1.20000001E-02  -4.60180374E-08
  -1.19500002E-02  -4.73115520E-08
  -1.19000003E-02  -4.86394782E-08
  -1.18500004E-02  -5.00020576E-08
  -1.18000004E-02  -5.13999865E-08
  -1.17499996E-02  -5.28344621E-08
  -1.16999997E-02  -5.43070726E-08
  -1.16499998E-02  -5.58194948E-08
  -1.15999999E-02  -5.73732315E-08
  -1.15499999E-02  -5.89693663E-08
  -1.15000000E-02  -6.06085919E-08
  -1.14500001E-02  -6.22913134E-08
  -1.14000002E-02  -6.40179607E-08
  -1.13500003E-02  -6.57892372E-08
  -1.13000004E-02  -6.76062939E-08
  -1.12500004E-02  -6.94706443E-08
  -1.11999996E-02  -7.13838517E-08
  -1.11499997E-02  -7.33472447E-08
  -1.10999998E-02  -7.53617613E-08
  -1.10499999E-02  -7.74280053E-08
  -1.09999999E-02  -7.95465169E-08
  -1.09500000E-02  -8.17179853E-08
  -1.09000001E-02  -8.39435756E-08
  -1.08500002E-02  -8.62250644E-08
  -1.08000003E-02  -8.85647466E-08
  -1.07500004E-02  -9.09651945E-08
  -1.07000005E-02  -9.34288309E-08
  -1.06499996E-02  -9.59575672E-08
  -1.05999997E-02  -9.85526896E-08
  -1.05499998E-02  -1.01215129E-07
  -1.04999999E-02  -1.03945816E-07
  -1.04499999E-02  -1.06745894E-07
  -1.04000000E-02  -1.09616934E-07
  -1.03500001E-02  -1.12560841E-07
  -1.03000002E-02  -1.15579702E-07
  -1.02500003E-02  -1.18675622E-07
  -1.02000004E-02  -1.21850476E-07
  -1.01500005E-02  -1.25105686E-07
  -1.00999996E-02  -1.28442522E-07
  -1.00499997E-02  -1.31862421E-07
  -9.99999978E-03  -1.35367301E-07
  -9.94999986E-03  -1.38959891E-07
  -9.89999995E-03  -1.42643430E-07
  -9.85000003E-03  -1.46421371E-07
  -9.80000012E-03  -1.50297097E-07
  -9.75000020E-03  -1.54273636E-07
  -9.70000029E-03  -1.58353600E-07
  -9.65000037E-03  -1.62539095E-07
  -9.60000046E-03  -1.66832237E-07
  -9.54999961E-03  -1.71235342E-07
  -9.49999969E-03  -1.75751325E-07
  -9.44999978E-03  -1.80383608E-07
  -9.39999986E-03  -1.85135860E-07
  -9.34999995E-03  -1.90011491E-07
  -9.30000003E-03  -1.95013442E-07
  -9.25000012E-03  -2.00144143E-07
  -9.20000020E-03  -2.05405712E-07
  -9.15000029E-03  -2.10800138E-07
  -9.10000037E-03  -2.16329838E-07
  -9.05000046E-03  -2.21997837E-07
  -8.99999961E-03  -2.27807760E-07
  -8.94999970E-03  -2.33763771E-07
  -8.89999978E-03  -2.39870133E-07
  -8.84999987E-03  -2.46130895E-07
  -8.79999995E-03  -2.52549597E-07
  -8.75000004E-03  -2.59129592E-07
  -8.70000012E-03  -2.65874178E-07
  -8.65000021E-03  -2.72786963E-07
  -8.60000029E-03  -2.79872296E-07
  -8.55000038E-03  -2.87135038E-07
  -8.50000046E-03  -2.94580502E-07
  -8.44999962E-03  -3.02213607E-07
  -8.39999970E-03  -3.10038786E-07
  -8.34999979E-03  -3.18060103E-07
  -8.29999987E-03  -3.26280912E-07
  -8.24999996E-03  -3.34704481E-07
  -8.20000004E-03  -3.43334079E-07
  -8.15000013E-03  -3.52173458E-07
  -8.10000021E-03  -3.61227080E-07
  -8.05000030E-03  -3.70499919E-07
  -8.00000038E-03  -3.79996919E-07
  -7.95000046E-03  -3.89722516E-07
  -7.89999962E-03  -3.99680545E-07
  -7.84999970E-03  -4.09874417E-07
  -7.79999979E-03  -4.20307941E-07
  -7.74999987E-03  -4.30984954E-07
  -7.69999996E-03  -4.41910032E-07
  -7.65000004E-03  -4.53088347E-07
  -7.60000013E-03  -4.64525982E-07
  -7.55000021E-03  -4.76229104E-07
  -7.49999983E-03  -4.88203739E-07
  -7.44999992E-03  -5.00455087E-07
  -7.40000000E-03  -5.12987583E-07
  -7.35000009E-03  -5.25805831E-07
  -7.30000017E-03  -5.38914605E-07
  -7.24999979E-03  -5.52319250E-07
  -7.19999988E-03  -5.66025506E-07
  -7.14999996E-03  -5.80039512E-07
  -7.10000005E-03  -5.94367293E-07
  -7.05000013E-03  -6.09014762E-07
  -7.00000022E-03  -6.23987148E-07
  -6.94999984E-03  -6.39288942E-07
  -6.89999992E-03  -6.54924406E-07
  -6.85000001E-03  -6.70897862E-07
  -6.80000009E-03  -6.87214424E-07
  -6.75000018E-03  -7.03880232E-07
  -6.69999979E-03  -7.20901880E-07
  -6.64999988E-03  -7.38286133E-07
  -6.59999996E-03  -7.56039469E-07
  -6.55000005E-03  -7.74167859E-07
  -6.50000013E-03  -7.92676758E-07
  -6.45000022E-03  -8.11571738E-07
  -6.39999984E-03  -8.30858596E-07
  -6.34999992E-03  -8.50544097E-07
  -6.30000001E-03  -8.70635517E-07
  -6.25000009E-03  -8.91140758E-07
  -6.20000018E-03  -9.12067947E-07
  -6.14999980E-03  -9.33425497E-07
  -6.09999988E-03  -9.55220685E-07
  -6.04999997E-03  -9.77459763E-07
  -6.00000005E-03  -1.00014927E-06
  -5.95000014E-03  -1.02329557E-06
  -5.90000022E-03  -1.04690594E-06
  -5.84999984E-03  -1.07098811E-06
  -5.79999993E-03  -1.09555060E-06
  -5.75000001E-03  -1.12060161E-06
  -5.70000010E-03  -1.14614954E-06
  -5.65000018E-03  -1.17220191E-06
  -5.59999980E-03  -1.19876631E-06
  -5.54999989E-03  -1.22584936E-06
  -5.49999997E-03  -1.25345821E-06
  -5.45000006E-03  -1.28160082E-06
  -5.40000014E-03  -1.31028628E-06
  -5.35000023E-03  -1.33952437E-06
  -5.29999984E-03  -1.36932545E-06
  -5.24999993E-03  -1.39969950E-06
  -5.20000001E-03  -1.43065654E-06
  -5.15000010E-03  -1.46220589E-06
  -5.10000018E-03  -1.49435709E-06
  -5.04999980E-03  -1.52711948E-06
  -4.99999989E-03  -1.56050316E-06
  -4.94999997E-03  -1.59451884E-06
  -4.90000006E-03  -1.62917831E-06
  -4.85000014E-03  -1.66449377E-06
  -4.80000023E-03  -1.70047599E-06
  -4.74999985E-03  -1.73713488E-06
  -4.69999993E-03  -1.77448010E-06
  -4.65000002E-03  -1.81252210E-06
  -4.60000010E-03  -1.85127010E-06
  -4.55000019E-03  -1.89073432E-06
  -4.49999981E-03  -1.93092546E-06
  -4.44999989E-03  -1.97185614E-06
  -4.39999998E-03  -2.01353828E-06
  -4.35000006E-03  -2.05598531E-06
  -4.30000015E-03  -2.09920927E-06
  -4.25000023E-03  -2.14322176E-06
  -4.19999985E-03  -2.18803439E-06
  -4.14999994E-03  -2.23365896E-06
  -4.10000002E-03  -2.28010890E-06
  -4.05000011E-03  -2.32739853E-06
  -4.00000019E-03  -2.37554218E-06
  -3.94999981E-03  -2.42455508E-06
  -3.89999989E-03  -2.47445109E-06
  -3.84999998E-03  -2.52524478E-06
  -3.80000006E-03  -2.57694956E-06
  -3.74999992E-03  -2.62957815E-06
  -3.70000000E-03  -2.68314398E-06
  -3.65000009E-03  -2.73766068E-06
  -3.59999994E-03  -2.79314281E-06
  -3.55000002E-03  -2.84960515E-06
  -3.50000011E-03  -2.90706407E-06
  -3.44999996E-03  -2.96553458E-06
  -3.40000005E-03  -3.02503190E-06
  -3.34999990E-03  -3.08556878E-06
  -3.29999998E-03  -3.14715976E-06
  -3.25000007E-03  -3.20981871E-06
  -3.19999992E-03  -3.27356133E-06
  -3.15000000E-03  -3.33840353E-06
  -3.10000009E-03  -3.40436191E-06
  -3.04999994E-03  -3.47145465E-06
  -3.00000003E-03  -3.53969790E-06
  -2.95000011E-03  -3.60910963E-06
  -2.89999996E-03  -3.67970506E-06
  -2.85000005E-03  -3.75149875E-06
  -2.79999990E-03  -3.82450844E-06
  -2.74999999E-03  -3.89875049E-06
  -2.70000007E-03  -3.97424401E-06
  -2.64999992E-03  -4.05100718E-06
  -2.60000001E-03  -4.12906002E-06
  -2.55000009E-03  -4.20842071E-06
  -2.49999994E-03  -4.28910698E-06
  -2.45000003E-03  -4.37113749E-06
  -2.40000011E-03  -4.45452770E-06
  -2.34999997E-03  -4.53929306E-06
  -2.30000005E-03  -4.62545131E-06
  -2.24999990E-03  -4.71302019E-06
  -2.19999999E-03  -4.80201925E-06
  -2.15000007E-03  -4.89246804E-06
  -2.09999993E-03  -4.98438521E-06
  -2.05000001E-03  -5.07778850E-06
  -2.00000009E-03  -5.17269382E-06
  -1.94999995E-03  -5.26911845E-06
  -1.90000003E-03  -5.36708058E-06
  -1.85000000E-03  -5.46659930E-06
  -1.79999997E-03  -5.56769419E-06
  -1.75000005E-03  -5.67038660E-06
  -1.70000002E-03  -5.77469791E-06
  -1.64999999E-03  -5.88064904E-06
  -1.59999996E-03  -5.98826273E-06
  -1.55000004E-03  -6.09755580E-06
  -1.50000001E-03  -6.20854507E-06
  -1.44999998E-03  -6.32124738E-06
  -1.39999995E-03  -6.43568274E-06
  -1.35000004E-03  -6.55187387E-06
  -1.30000000E-03  -6.66984033E-06
  -1.24999997E-03  -6.78960168E-06
  -1.20000006E-03  -6.91117702E-06
  -1.15000003E-03  -7.03458591E-06
  -1.09999999E-03  -7.15984515E-06
  -1.04999996E-03  -7.28697205E-06
  -1.00000005E-03  -7.41598433E-06
  -9.50000016E-04  -7.54689700E-06
  -8.99999985E-04  -7.67973143E-06
  -8.50000011E-04  -7.81450672E-06
  -7.99999980E-04  -7.95124561E-06
  -7.50000007E-04  -8.08997265E-06
  -6.99999975E-04  -8.23070513E-06
  -6.50000002E-04  -8.37345942E-06
  -6.00000028E-04  -8.51825098E-06
  -5.49999997E-04  -8.66509981E-06
  -5.00000024E-04  -8.81402229E-06
  -4.49999992E-04  -8.96503843E-06
  -3.99999990E-04  -9.11816733E-06
  -3.49999988E-04  -9.27342808E-06
  -3.00000014E-04  -9.43084615E-06
  -2.50000012E-04  -9.59044064E-06
  -1.99999995E-04  -9.75222247E-06
  -1.50000007E-04  -9.91620982E-06
  -9.99999975E-05  -1.00824172E-05
  -4.99999987E-05  -1.02508575E-05
   0.00000000      -1.04215451E-05
   4.99999987E-05  -1.05945010E-05
   9.99999975E-05  -1.07697497E-05
   1.50000007E-04  -1.09473112E-05
   1.99999995E-04  -1.11271966E-05
   2.50000012E-04  -1.13094165E-05
   3.00000014E-04  -1.14939849E-05
   3.49999988E-04  -1.16809206E-05
   3.99999990E-04  -1.18702346E-05
   4.49999992E-04  -1.20619397E-05
   5.00000024E-04  -1.22560505E-05
   5.49999997E-04  -1.24525859E-05
   6.00000028E-04  -1.26515697E-05
   6.50000002E-04  -1.28530182E-05
   6.99999975E-04  -1.30569397E-05
   7.50000007E-04  -1.32633431E-05
   7.99999980E-04  -1.34722422E-05
   8.50000011E-04  -1.36836525E-05
   8.99999985E-04  -1.38975875E-05
   9.50000016E-04  -1.41140563E-05
   1.00000005E-03  -1.43330735E-05
   1.04999996E-03  -1.45546592E-05
   1.09999999E-03  -1.47788332E-05
   1.15000003E-03  -1.50056039E-05
   1.20000006E-03  -1.52349694E-05
   1.24999997E-03  -1.54669324E-05
   1.30000000E-03  -1.57015093E-05
   1.35000004E-03  -1.59387146E-05
   1.39999995E-03  -1.61785592E-05
   1.44999998E-03  -1.64210505E-05
   1.50000001E-03  -1.66661976E-05
   1.55000004E-03  -1.69140185E-05
   1.59999996E-03  -1.71645243E-05
   1.64999999E-03  -1.74177239E-05
   1.70000002E-03  -1.76736085E-05
   1.75000005E-03  -1.79321905E-05
   1.79999997E-03  -1.81934774E-05
   1.85000000E-03  -1.84574874E-05
   1.90000003E-03  -1.87242349E-05
   1.94999995E-03  -1.89937236E-05
   2.00000009E-03  -1.92659645E-05
   2.05000001E-03  -1.95409648E-05
   2.09999993E-03  -1.98187317E-05
   2.15000007E-03  -2.00992636E-05
   2.19999999E-03  -2.03825584E-05
   2.24999990E-03  -2.06686236E-05
   2.30000005E-03  -2.09574628E-05
   2.34999997E-03  -2.12490850E-05
   2.40000011E-03  -2.15435048E-05
   2.45000003E-03  -2.18407349E-05
   2.49999994E-03  -2.21407718E-05
   2.55000009E-03  -2.24436080E-05
   2.60000001E-03  -2.27492474E-05
   2.64999992E-03  -2.30576970E-05
   2.70000007E-03  -2.33689625E-05
   2.74999999E-03  -2.36830347E-05
   2.79999990E-03  -2.39999245E-05