  -3.99999991E-02   0.00000000    
  -3.99499983E-02   0.00000000    
  -3.99000011E-02   0.00000000    
  -3.98500003E-02   0.00000000    
  -3.97999994E-02   0.00000000    
  -3.97499986E-02  -1.77246145E-20
  -3.97000015E-02  -1.36551570E-19
  -3.96500006E-02  -5.47967658E-19
  -3.95999998E-02  -1.53933194E-18
  -3.95499989E-02  -3.45980699E-18
  -3.95000018E-02  -6.76312257E-18
  -3.94500010E-02  -1.21072565E-17
  -3.94000001E-02  -2.02769050E-17
  -3.93499993E-02  -3.17391616E-17
  -3.92999984E-02  -4.60854943E-17
  -3.92500013E-02  -6.20033742E-17
  -3.92000005E-02  -7.81341638E-17
  -3.91499996E-02  -9.42852292E-17
  -3.90999988E-02  -1.11913355E-16
  -3.90500017E-02  -1.33354101E-16
  -3.90000008E-02  -1.60456323E-16
  -3.89500000E-02  -1.93746941E-16
  -3.88999991E-02  -2.32430870E-16
  -3.88499983E-02  -2.74499820E-16
  -3.88000011E-02  -3.16425780E-16
  -3.87500003E-02  -3.53172770E-16
  -3.86999995E-02  -3.79704303E-16
  -3.86499986E-02  -3.93636036E-16
  -3.86000015E-02  -3.96626804E-16
  -3.85500006E-02  -3.92275781E-16
  -3.84999998E-02  -3.81285793E-16
  -3.84499989E-02  -3.57580279E-16
  -3.84000018E-02  -3.08558777E-16
  -3.83500010E-02  -2.18982250E-16
  -3.83000001E-02  -7.50380069E-17
  -3.82499993E-02   1.33925134E-16
  -3.81999984E-02   4.15192072E-16
  -3.81500013E-02   7.71907742E-16
  -3.81000005E-02   1.20202213E-15
  -3.80499996E-02   1.69986458E-15
  -3.79999988E-02   2.26179672E-15
  -3.79500017E-02   2.89257220E-15
  -3.79000008E-02   3.60659387E-15
  -3.78500000E-02   4.42211423E-15
  -3.77999991E-02   5.35321350E-15
  -3.77499983E-02   6.40661713E-15
  -3.77000012E-02   7.58512160E-15
  -3.76500003E-02   8.89242632E-15
  -3.75999995E-02   1.03333937E-14
  -3.75499986E-02   1.19099778E-14
  -3.75000015E-02   1.36186669E-14
  -3.74500006E-02   1.54532352E-14
  -3.73999998E-02   1.74095391E-14
  -3.73499990E-02   1.94857168E-14
  -3.73000018E-02   2.16762270E-14
  -3.72500010E-02   2.39653166E-14
  -3.72000001E-02   2.63257704E-14
  -3.71499993E-02   2.87215117E-14
  -3.70999984E-02   3.11072037E-14
  -3.70500013E-02   3.34226563E-14
  -3.70000005E-02   3.55900578E-14
  -3.69499996E-02   3.75249927E-14
  -3.68999988E-02   3.91615485E-14
  -3.68500017E-02   4.04765705E-14
  -3.68000008E-02   4.14945246E-14
  -3.67500000E-02   4.22667408E-14
  -3.66999991E-02   4.28356996E-14
  -3.66499983E-02   4.32017364E-14
  -3.66000012E-02   4.33035057E-14
  -3.65500003E-02   4.30159143E-14
  -3.64999995E-02   4.21673093E-14
  -3.64499986E-02   4.05774149E-14
  -3.64000015E-02   3.81085951E-14
  -3.63500006E-02   3.47067888E-14
  -3.62999998E-02   3.04027331E-14
  -3.62499990E-02   2.52619276E-14
  -3.62000018E-02   1.93067201E-14
  -3.61500010E-02   1.24583351E-14
  -3.61000001E-02   4.53904839E-15
  -3.60499993E-02  -4.66033335E-15
  -3.59999985E-02  -1.52792275E-14
  -3.59500013E-02  -2.72994619E-14
  -3.59000005E-02  -4.05115801E-14
  -3.58499996E-02  -5.45573820E-14
  -3.57999988E-02  -6.90468326E-14
  -3.57500017E-02  -8.37171654E-14
  -3.57000008E-02  -9.85686481E-14
  -3.56500000E-02  -1.13899233E-13
  -3.55999991E-02  -1.30191241E-13
  -3.55499983E-02  -1.47877600E-13
  -3.55000012E-02  -1.67090707E-13
  -3.54500003E-02  -1.87521968E-13
  -3.53999995E-02  -2.08473904E-13
  -3.53499986E-02  -2.29093979E-13
  -3.53000015E-02  -2.48691394E-13
  -3.52500007E-02  -2.67000452E-13
  -3.51999998E-02  -2.84267022E-13
  -3.51499990E-02  -3.01100562E-13
  -3.51000018E-02  -3.18123864E-13
  -3.50500010E-02  -3.35554555E-13
  -3.50000001E-02  -3.52910762E-13
  -3.49499993E-02  -3.69012546E-13
  -3.48999985E-02  -3.82325546E-13
  -3.48500013E-02  -3.91519716E-13
  -3.48000005E-02  -3.95985978E-13
  -3.47499996E-02  -3.96052467E-13
  -3.46999988E-02  -3.92772539E-13
  -3.46500017E-02  -3.87358846E-13
  -3.46000008E-02  -3.80505577E-13
  -3.45500000E-02  -3.71904439E-13
  -3.44999991E-02  -3.60195841E-13
  -3.44499983E-02  -3.43422881E-13
  -3.44000012E-02  -3.19833949E-13
  -3.43500003E-02  -2.88689916E-13
  -3.42999995E-02  -2.50678357E-13
  -3.42499986E-02  -2.07676067E-13
  -3.42000015E-02  -1.61900116E-13
  -3.41500007E-02  -1.14805843E-13
  -3.40999998E-02  -6.62579732E-14
  -3.40499990E-02  -1.44092163E-14
  -3.40000018E-02   4.35942142E-14
  -3.39500010E-02   1.10344432E-13
  -3.39000002E-02   1.86886246E-13
  -3.38499993E-02   2.72002961E-13
  -3.37999985E-02   3.62452825E-13
  -3.37500013E-02   4.54139656E-13
  -3.37000005E-02   5.43764740E-13
  -3.36499996E-02   6.30230351E-13
  -3.35999988E-02   7.15096873E-13
  -3.35500017E-02   8.01781439E-13
  -3.35000008E-02   8.93774963E-13
  -3.34500000E-02   9.92661574E-13
  -3.33999991E-02   1.09687866E-12
  -3.33499983E-02   1.20186218E-12
  -3.33000012E-02   1.30159934E-12
  -3.32500003E-02   1.39096091E-12
  -3.31999995E-02   1.46778325E-12
  -3.31499986E-02   1.53373180E-12
  -3.31000015E-02   1.59344966E-12
  -3.30500007E-02   1.65225201E-12
  -3.29999998E-02   1.71331753E-12
  -3.29499990E-02   1.77565341E-12
  -3.29000019E-02   1.83386075E-12
  -3.28500010E-02   1.87993848E-12
  -3.28000002E-02   1.90640646E-12
  -3.27499993E-02   1.90934464E-12
  -3.26999985E-02   1.88991140E-12
  -3.26500013E-02   1.85355724E-12
  -3.26000005E-02   1.80720272E-12
  -3.25499997E-02   1.75559849E-12
  -3.24999988E-02   1.69852858E-12
  -3.24500017E-02   1.63022037E-12
  -3.24000008E-02   1.54139570E-12
  -3.23500000E-02   1.42320693E-12
  -3.22999991E-02   1.27134902E-12
  -3.22499983E-02   1.08841690E-12
  -3.22000012E-02   8.83256630E-13
  -3.21500003E-02   6.67403958E-13
  -3.20999995E-02   4.50105719E-13
  -3.20499986E-02   2.34172843E-13
  -3.20000015E-02   1.46335428E-14
  -3.19500007E-02  -2.19060257E-13
  -3.18999998E-02  -4.78121991E-13
  -3.18499990E-02  -7.68926969E-13
  -3.18000019E-02  -1.08938910E-12
  -3.17500010E-02  -1.42896502E-12
  -3.17000002E-02  -1.77248505E-12
  -3.16499993E-02  -2.10626308E-12
  -3.15999985E-02  -2.42378188E-12
  -3.15500014E-02  -2.72826900E-12
  -3.15000005E-02  -3.03081974E-12
  -3.14499997E-02  -3.34471101E-12
  -3.13999988E-02  -3.67839743E-12
  -3.13500017E-02  -4.03036372E-12
  -3.13000008E-02  -4.38829615E-12
  -3.12500000E-02  -4.73309456E-12
  -3.11999992E-02  -5.04608681E-12
  -3.11500002E-02  -5.31632334E-12
  -3.10999993E-02  -5.54464460E-12
  -3.10500003E-02  -5.74256745E-12
  -3.09999995E-02  -5.92627596E-12
  -3.09500005E-02  -6.10826190E-12
  -3.08999997E-02  -6.29036406E-12
  -3.08500007E-02  -6.46151101E-12
  -3.07999998E-02  -6.60138437E-12
  -3.07500008E-02  -6.68851172E-12
  -3.07000000E-02  -6.70919440E-12
  -3.06499992E-02  -6.66318736E-12
  -3.06000002E-02  -6.56345030E-12
  -3.05499993E-02  -6.42990609E-12
  -3.05000003E-02  -6.27984383E-12
  -3.04499995E-02  -6.11919760E-12
  -3.04000005E-02  -5.93868184E-12
  -3.03499997E-02  -5.71676257E-12
  -3.03000007E-02  -5.42841293E-12
  -3.02499998E-02  -5.05592139E-12
  -3.02000009E-02  -4.59691139E-12
  -3.01500000E-02  -4.06581799E-12
  -3.00999992E-02  -3.48796274E-12
  -3.00500002E-02  -2.88871813E-12
  -2.99999993E-02  -2.28255674E-12
  -2.99500003E-02  -1.66688495E-12
  -2.98999995E-02  -1.02352783E-12
  -2.98500005E-02  -3.27362838E-13
  -2.97999997E-02   4.41557760E-13
  -2.97500007E-02   1.28768784E-12
  -2.96999998E-02   2.19614474E-12
  -2.96500009E-02   3.13727907E-12
  -2.96000000E-02   4.07788603E-12
  -2.95499992E-02   4.99423810E-12
  -2.95000002E-02   5.88112285E-12
  -2.94499993E-02   6.75275330E-12
  -2.94000003E-02   7.63500027E-12
  -2.93499995E-02   8.55227868E-12
  -2.93000005E-02   9.51479173E-12
  -2.92499997E-02   1.05117746E-11
  -2.92000007E-02   1.15137127E-11
  -2.91499998E-02   1.24826980E-11
  -2.91000009E-02   1.33865367E-11
  -2.90500000E-02   1.42104453E-11
  -2.89999992E-02   1.49611157E-11
  -2.89500002E-02   1.56612050E-11
  -2.88999993E-02   1.63364912E-11
  -2.88500004E-02   1.70013482E-11
  -2.87999995E-02   1.76490489E-11
  -2.87500005E-02   1.82513327E-11
  -2.86999997E-02   1.87675986E-11
  -2.86500007E-02   1.91598282E-11
  -2.85999998E-02   1.94068268E-11
  -2.85500009E-02   1.95115590E-11
  -2.85000000E-02   1.94982572E-11
  -2.84499992E-02   1.94003338E-11
  -2.84000002E-02   1.92440629E-11
  -2.83499993E-02   1.90350808E-11
  -2.83000004E-02   1.87536427E-11
  -2.82499995E-02   1.83609811E-11
  -2.82000005E-02   1.78142015E-11
  -2.81499997E-02   1.70834354E-11
  -2.81000007E-02   1.61637700E-11
  -2.80499998E-02   1.50767680E-11
  -2.80000009E-02   1.38607537E-11
  -2.79500000E-02   1.25539388E-11
  -2.78999992E-02   1.11775120E-11
  -2.78500002E-02   9.72602034E-12
  -2.77999993E-02   8.16936276E-12
  -2.77500004E-02   6.46591765E-12
  -2.76999995E-02   4.58149621E-12
  -2.76500005E-02   2.50614286E-12
  -2.75999997E-02   2.61410847E-13
  -2.75500007E-02  -2.10525586E-12
  -2.74999999E-02  -4.53696325E-12
  -2.74500009E-02  -6.98780617E-12
  -2.74000000E-02  -9.43861916E-12
  -2.73499992E-02  -1.19011788E-11
  -2.73000002E-02  -1.44088873E-11
  -2.72499993E-02  -1.69976758E-11
  -2.72000004E-02  -1.96851962E-11
  -2.71499995E-02  -2.24570067E-11
  -2.71000005E-02  -2.52661034E-11
  -2.70499997E-02  -2.80463725E-11
  -2.70000007E-02  -3.07346336E-11
  -2.69499999E-02  -3.32919352E-11
  -2.69000009E-02  -3.57147402E-11
  -2.68500000E-02  -3.80307626E-11
  -2.67999992E-02  -4.02806573E-11
  -2.67500002E-02  -4.24934393E-11
  -2.66999993E-02  -4.46660382E-11
  -2.66500004E-02  -4.67561510E-11
  -2.65999995E-02  -4.86918665E-11
  -2.65500005E-02  -5.03946572E-11
  -2.64999997E-02  -5.18062711E-11
  -2.64500007E-02  -5.29079593E-11
  -2.63999999E-02  -5.37234007E-11
  -2.63500009E-02  -5.43032286E-11
  -2.63000000E-02  -5.46973612E-11
  -2.62499992E-02  -5.49267888E-11
  -2.62000002E-02  -5.49674611E-11
  -2.61499994E-02  -5.47540312E-11
  -2.61000004E-02  -5.42024932E-11
  -2.60499995E-02  -5.32424903E-11
  -2.60000005E-02  -5.18455105E-11
  -2.59499997E-02  -5.00364888E-11
  -2.59000007E-02  -4.78831072E-11
  -2.58499999E-02  -4.54665472E-11
  -2.58000009E-02  -4.28456610E-11
  -2.57500000E-02  -4.00301285E-11
  -2.56999992E-02  -3.69748399E-11
  -2.56500002E-02  -3.35989674E-11
  -2.55999994E-02  -2.98222384E-11
  -2.55500004E-02  -2.56029590E-11
  -2.54999995E-02  -2.09610489E-11
  -2.54500005E-02  -1.59753235E-11
  -2.53999997E-02  -1.07557062E-11
  -2.53500007E-02  -5.40178666E-12
  -2.52999999E-02   3.42705295E-14
  -2.52500009E-02   5.56402624E-12
  -2.52000000E-02   1.12503461E-11
  -2.51499992E-02   1.71708793E-11
  -2.51000002E-02   2.33727673E-11
  -2.50499994E-02   2.98386350E-11
  -2.50000004E-02   3.64796769E-11
  -2.49499995E-02   4.31599964E-11
  -2.49000005E-02   4.97424671E-11
  -2.48499997E-02   5.61360403E-11
  -2.48000007E-02   6.23234797E-11
  -2.47499999E-02   6.83566537E-11
  -2.47000009E-02   7.43207926E-11
  -2.46500000E-02   8.02826833E-11
  -2.45999992E-02   8.62454691E-11
  -2.45500002E-02   9.21302062E-11
  -2.44999994E-02   9.77936968E-11
  -2.44500004E-02   1.03075583E-10
  -2.43999995E-02   1.07854795E-10
  -2.43500005E-02   1.12090087E-10
  -2.42999997E-02   1.15825995E-10
  -2.42500007E-02   1.19160640E-10
  -2.41999999E-02   1.22188801E-10
  -2.41500009E-02   1.24945457E-10
  -2.41000000E-02   1.27375041E-10
  -2.40499992E-02   1.29340857E-10
  -2.40000002E-02   1.30671737E-10
  -2.39499994E-02   1.31226058E-10
  -2.39000004E-02   1.30945435E-10
  -2.38499995E-02   1.29874250E-10
  -2.38000005E-02   1.28135128E-10
  -2.37499997E-02   1.25870231E-10
  -2.37000007E-02   1.23173735E-10
  -2.36499999E-02   1.20045557E-10
  -2.36000009E-02   1.16387351E-10
  -2.35500000E-02   1.12043125E-10
  -2.34999992E-02   1.06867480E-10
  -2.34500002E-02   1.00791153E-10
  -2.33999994E-02   9.38551875E-11
  -2.33500004E-02   8.61982569E-11
  -2.32999995E-02   7.80020631E-11
  -2.32500006E-02   6.94183044E-11
  -2.31999997E-02   6.05095557E-11
  -2.31500007E-02   5.12303706E-11
  -2.30999999E-02   4.14579968E-11
  -2.30500009E-02   3.10595508E-11
  -2.30000000E-02   1.99665857E-11
  -2.29499992E-02   8.22353990E-12
  -2.29000002E-02  -4.01164735E-12
  -2.28499994E-02  -1.65154748E-11
  -2.28000004E-02  -2.90746819E-11
  -2.27499995E-02  -4.15564458E-11
  -2.27000006E-02  -5.39424269E-11
  -2.26499997E-02  -6.63109775E-11
  -2.26000007E-02  -7.87752780E-11
  -2.25499999E-02  -9.14039955E-11
  -2.25000009E-02  -1.04159605E-10
  -2.24500000E-02  -1.16882670E-10
  -2.23999992E-02  -1.29329492E-10
  -2.23500002E-02  -1.41247541E-10
  -2.22999994E-02  -1.52455631E-10
  -2.22500004E-02  -1.62893657E-10
  -2.21999995E-02  -1.72619988E-10
  -2.21500006E-02  -1.81757651E-10
  -2.20999997E-02  -1.90411908E-10
  -2.20500007E-02  -1.98595557E-10
  -2.19999999E-02  -2.06194270E-10
  -2.19500009E-02  -2.12987600E-10
  -2.19000001E-02  -2.18717155E-10
  -2.18499992E-02  -2.23172911E-10
  -2.18000002E-02  -2.26259747E-10
  -2.17499994E-02  -2.28015953E-10
  -2.17000004E-02  -2.28574742E-10
  -2.16499995E-02  -2.28086605E-10
  -2.16000006E-02  -2.26635571E-10
  -2.15499997E-02  -2.24186378E-10
  -2.15000007E-02  -2.20585467E-10
  -2.14499999E-02  -2.15615539E-10
  -2.14000009E-02  -2.09080961E-10
  -2.13500001E-02  -2.00886988E-10
  -2.12999992E-02  -1.91078930E-10
  -2.12500002E-02  -1.79824447E-10
  -2.11999994E-02  -1.67346303E-10
  -2.11500004E-02  -1.53834473E-10
  -2.10999995E-02  -1.39375372E-10
  -2.10500006E-02  -1.23929006E-10
  -2.09999997E-02  -1.07363549E-10
  -2.09500007E-02  -8.95326660E-11
  -2.08999999E-02  -7.03621120E-11
  -2.08500009E-02  -4.99083275E-11
  -2.08000001E-02  -2.83644445E-11
  -2.07499992E-02  -6.00996249E-12
  -2.07000002E-02   1.68734401E-11
  -2.06499994E-02   4.00844913E-11
  -2.06000004E-02   6.35473965E-11
  -2.05499995E-02   8.72998202E-11
  -2.05000006E-02   1.11427735E-10
  -2.04499997E-02   1.35974940E-10
  -2.04000007E-02   1.60866431E-10
  -2.03499999E-02   1.85878452E-10
  -2.03000009E-02   2.10669177E-10
  -2.02500001E-02   2.34857411E-10
  -2.01999992E-02   2.58117333E-10
  -2.01500002E-02   2.80249046E-10
  -2.00999994E-02   3.01194264E-10
  -2.00500004E-02   3.20990734E-10
  -1.99999996E-02   3.39682921E-10
  -1.99500006E-02   3.57227498E-10
  -1.98999997E-02   3.73433090E-10
  -1.98500007E-02   3.87961607E-10
  -1.97999999E-02   4.00391886E-10
  -1.97500009E-02   4.10319501E-10
  -1.97000001E-02   4.17450602E-10
  -1.96499992E-02   4.21649909E-10
  -1.96000002E-02   4.22921587E-10
  -1.95499994E-02   4.21330110E-10
  -1.95000004E-02   4.16894075E-10
  -1.94499996E-02   4.09497408E-10
  -1.94000006E-02   3.98857142E-10
  -1.93499997E-02   3.84562437E-10
  -1.93000007E-02   3.66170538E-10
  -1.92499999E-02   3.43319345E-10
  -1.92000009E-02   3.15809212E-10
  -1.91500001E-02   2.83617102E-10
  -1.90999992E-02   2.46836274E-10
  -1.90500002E-02   2.05566508E-10
  -1.89999994E-02   1.59801380E-10
  -1.89500004E-02   1.09362061E-10
  -1.88999996E-02   5.39066708E-11
  -1.88500006E-02  -6.98609920E-12
  -1.87999997E-02  -7.36935860E-11
  -1.87500007E-02  -1.46439430E-10
  -1.86999999E-02  -2.25245642E-10
  -1.86500009E-02  -3.09969550E-10
  -1.86000001E-02  -4.00411232E-10
  -1.85499992E-02  -4.96446717E-10
  -1.85000002E-02  -5.98127881E-10
  -1.84499994E-02  -7.05706438E-10
  -1.84000004E-02  -8.19565138E-10
  -1.83499996E-02  -9.40087452E-10
  -1.83000006E-02  -1.06751896E-09
  -1.82499997E-02  -1.20188315E-09
  -1.82000007E-02  -1.34298894E-09
  -1.81499999E-02  -1.49052837E-09
  -1.81000009E-02  -1.64422775E-09
  -1.80500001E-02  -1.80398263E-09
  -1.79999992E-02  -1.96991956E-09
  -1.79500002E-02  -2.14235318E-09
  -1.78999994E-02  -2.32165598E-09
  -1.78500004E-02  -2.50809729E-09
  -1.77999996E-02  -2.70172040E-09
  -1.77500006E-02  -2.90231306E-09
  -1.76999997E-02  -3.10949133E-09
  -1.76500008E-02  -3.32285799E-09
  -1.75999999E-02  -3.54217256E-09
  -1.75500009E-02  -3.76745701E-09
  -1.75000001E-02  -3.99898603E-09
  -1.74499992E-02  -4.23716573E-09
  -1.74000002E-02  -4.48235493E-09
  -1.73499994E-02  -4.73470330E-09
  -1.73000004E-02  -4.99407804E-09
  -1.72499996E-02  -5.26011368E-09
  -1.72000006E-02  -5.53236790E-09
  -1.71499997E-02  -5.81051207E-09
  -1.71000008E-02  -6.09447781E-09
  -1.70499999E-02  -6.38448761E-09
  -1.70000009E-02  -6.68095756E-09
  -1.69500001E-02  -6.98431357E-09
  -1.68999992E-02  -7.29480254E-09
  -1.68500002E-02  -7.61238184E-09
  -1.67999994E-02  -7.93674104E-09
  -1.67500004E-02  -8.26744895E-09
  -1.66999996E-02  -8.60415383E-09
  -1.66500006E-02  -8.94676599E-09
  -1.65999997E-02  -9.29552524E-09
  -1.65500008E-02  -9.65093072E-09
  -1.64999999E-02  -1.00135571E-08
  -1.64500009E-02  -1.03838342E-08
  -1.64000001E-02  -1.07618954E-08
  -1.63499992E-02  -1.11475602E-08
  -1.63000003E-02  -1.15404619E-08
  -1.62499994E-02  -1.19402701E-08
  -1.62000004E-02  -1.23468933E-08
  -1.61499996E-02  -1.27605873E-08
  -1.61000006E-02  -1.31819231E-08
  -1.60499997E-02  -1.36116114E-08
  -1.60000008E-02  -1.40502650E-08
  -1.59499999E-02  -1.44982106E-08
  -1.59000009E-02  -1.49554271E-08
  -1.58500001E-02  -1.54216480E-08
  -1.57999992E-02  -1.58965889E-08
  -1.57500003E-02  -1.63801754E-08
  -1.56999994E-02  -1.68727059E-08
  -1.56500004E-02  -1.73748447E-08
  -1.55999996E-02  -1.78874711E-08
  -1.55499997E-02  -1.84114377E-08
  -1.54999997E-02  -1.89473415E-08
  -1.54499998E-02  -1.94954080E-08
  -1.53999999E-02  -2.00555590E-08
  -1.53500000E-02  -2.06276116E-08
  -1.53000001E-02  -2.12115445E-08
  -1.52500002E-02  -2.18076774E-08
  -1.52000003E-02  -2.24167334E-08
  -1.51500003E-02  -2.30397088E-08
  -1.51000004E-02  -2.36776234E-08
  -1.50499996E-02  -2.43312961E-08
  -1.49999997E-02  -2.50011798E-08
  -1.49499997E-02  -2.56873847E-08
  -1.48999998E-02  -2.63898592E-08
  -1.48499999E-02  -2.71086531E-08
  -1.48000000E-02  -2.78441412E-08
  -1.47500001E-02  -2.85971176E-08
  -1.47000002E-02  -2.93687119E-08
  -1.46500003E-02  -3.01601517E-08
  -1.46000003E-02  -3.09725188E-08
  -1.45500004E-02  -3.18065290E-08
  -1.44999996E-02  -3.26625411E-08
  -1.44499997E-02  -3.35406973E-08
  -1.43999998E-02  -3.44411966E-08
  -1.43499998E-02  -3.53645255E-08
  -1.42999999E-02  -3.63116115E-08
  -1.42500000E-02  -3.72837441E-08
  -1.42000001E-02  -3.82823728E-08
  -1.41500002E-02  -3.93088548E-08
  -1.41000003E-02  -4.03642275E-08
  -1.40500003E-02  -4.14491055E-08
  -1.40000004E-02  -4.25638262E-08
  -1.39499996E-02  -4.37086847E-08
  -1.38999997E-02  -4.48842705E-08
  -1.38499998E-02  -4.60916176E-08
  -1.37999998E-02  -4.73321826E-08
  -1.37499999E-02  -4.86076353E-08
  -1.37000000E-02  -4.99196311E-08
  -1.36500001E-02  -5.12695557E-08
  -1.36000002E-02  -5.26584039E-08
  -1.35500003E-02  -5.40868186E-08
  -1.35000004E-02  -5.55553292E-08
  -1.34500004E-02  -5.70646357E-08
  -1.33999996E-02  -5.86158890E-08
  -1.33499997E-02  -6.02106809E-08
  -1.32999998E-02  -6.18509333E-08
  -1.32499998E-02  -6.35385859E-08
  -1.31999999E-02  -6.52753513E-08
  -1.31500000E-02  -6.70625440E-08
  -1.31000001E-02  -6.89011443E-08
  -1.30500002E-02  -7.07919625E-08
  -1.30000003E-02  -7.27359151E-08
  -1.29500004E-02  -7.47342739E-08
  -1.29000004E-02  -7.67888011E-08
  -1.28499996E-02  -7.89016283E-08
  -1.27999997E-02  -8.10750009E-08
  -1.27499998E-02  -8.33110292E-08
  -1.26999998E-02  -8.56114468E-08
  -1.26499999E-02  -8.79776181E-08
  -1.26000000E-02  -9.04106869E-08
  -1.25500001E-02  -9.29119324E-08
  -1.25000002E-02  -9.54829531E-08
  -1.24500003E-02  -9.81258168E-08
  -1.24000004E-02  -1.00842954E-07
  -1.23500004E-02  -1.03636950E-07
  -1.22999996E-02  -1.06510207E-07
  -1.22499997E-02  -1.09464771E-07
  -1.21999998E-02  -1.12502249E-07
  -1.21499998E-02  -1.15623948E-07
  -1.20999999E-02  -1.18831110E-07
  -1.20500000E-02  -1.22125414E-07
  -1.20000001E-02  -1.25509075E-07
  -1.19500002E-02  -1.28984894E-07
  -1.19000003E-02  -1.32555968E-07
  -1.18500004E-02  -1.36225381E-07
  -1.18000004E-02  -1.39995947E-07
  -1.17499996E-02  -1.43870139E-07
  -1.16999997E-02  -1.47849946E-07
  -1.16499998E-02  -1.51937172E-07
  -1.15999999E-02  -1.56133737E-07
  -1.15499999E-02  -1.60441886E-07
  -1.15000000E-02  -1.64864204E-07
  -1.14500001E-02  -1.69403577E-07
  -1.14000002E-02  -1.74062748E-07
  -1.13500003E-02  -1.78844203E-07
  -1.13000004E-02  -1.83750146E-07
  -1.12500004E-02  -1.88782650E-07
  -1.11999996E-02  -1.93943848E-07
  -1.11499997E-02  -1.99236325E-07
  -1.10999998E-02  -2.04663252E-07
  -1.10499999E-02  -2.10228507E-07
  -1.09999999E-02  -2.15936439E-07
  -1.09500000E-02  -2.21791396E-07
  -1.09000001E-02  -2.27797358E-07
  -1.08500002E-02  -2.33957522E-07
  -1.08000003E-02  -2.40274346E-07
  -1.07500004E-02  -2.46749863E-07
  -1.07000005E-02  -2.53385906E-07
  -1.06499996E-02  -2.60184549E-07
  -1.05999997E-02  -2.67148323E-07
  -1.05499998E-02  -2.74280239E-07
  -1.04999999E-02  -2.81583510E-07
  -1.04499999E-02  -2.89061489E-07
  -1.04000000E-02  -2.96717644E-07
  -1.03500001E-02  -3.04555272E-07
  -1.03000002E-02  -3.12577725E-07
  -1.02500003E-02  -3.20788615E-07
  -1.02000004E-02  -3.29192346E-07
  -1.01500005E-02  -3.37793892E-07
  -1.00999996E-02  -3.46598540E-07
  -1.00499997E-02  -3.55611576E-07
  -9.99999978E-03  -3.64837717E-07
  -9.94999986E-03  -3.74280972E-07
  -9.89999995E-03  -3.83944752E-07
  -9.85000003E-03  -3.93831982E-07
  -9.80000012E-03  -4.03945478E-07
  -9.75000020E-03  -4.14288138E-07
  -9.70000029E-03  -4.24863487E-07
  -9.65000037E-03  -4.35675730E-07
  -9.60000046E-03  -4.46729643E-07
  -9.54999961E-03  -4.58029859E-07
  -9.49999969E-03  -4.69580613E-07
  -9.44999978E-03  -4.81385769E-07
  -9.39999986E-03  -4.93449079E-07
  -9.34999995E-03  -5.05774551E-07
  -9.30000003E-03  -5.18366846E-07
  -9.25000012E-03  -5.31231080E-07
  -9.20000020E-03  -5.44373165E-07
  -9.15000029E-03  -5.57799581E-07
  -9.10000037E-03  -5.71516921E-07
  -9.05000046E-03  -5.85531495E-07
  -8.99999961E-03  -5.99849386E-07
  -8.94999970E-03  -6.14475937E-07
  -8.89999978E-03  -6.29416434E-07
  -8.84999987E-03  -6.44676334E-07
  -8.79999995E-03  -6.60261833E-07
  -8.75000004E-03  -6.76179354E-07
  -8.70000012E-03  -6.92435265E-07
  -8.65000021E-03  -7.09035817E-07
  -8.60000029E-03  -7.25986524E-07
  -8.55000038E-03  -7.43292617E-07
  -8.50000046E-03  -7.60959097E-07
  -8.44999962E-03  -7.78990568E-07
  -8.39999970E-03  -7.97392318E-07
  -8.34999979E-03  -8.16170257E-07
  -8.29999987E-03  -8.35331662E-07
  -8.24999996E-03  -8.54884490E-07
  -8.20000004E-03  -8.74836985E-07
  -8.15000013E-03  -8.95196933E-07
  -8.10000021E-03  -9.15971896E-07
  -8.05000030E-03  -9.37169489E-07
  -8.00000038E-03  -9.58797273E-07
  -7.95000046E-03  -9.80863206E-07
  -7.89999962E-03  -1.00337581E-06
  -7.84999970E-03  -1.02634431E-06
  -7.79999979E-03  -1.04977880E-06
  -7.74999987E-03  -1.07368930E-06
  -7.69999996E-03  -1.09808559E-06
  -7.65000004E-03  -1.12297653E-06
  -7.60000013E-03  -1.14837007E-06
  -7.55000021E-03  -1.17427430E-06
  -7.49999983E-03  -1.20069740E-06
  -7.44999992E-03  -1.22764811E-06
  -7.40000000E-03  -1.25513554E-06
  -7.35000009E-03  -1.28316947E-06
  -7.30000017E-03  -1.31176000E-06
  -7.24999979E-03  -1.34091681E-06
  -7.19999988E-03  -1.37065001E-06
  -7.14999996E-03  -1.40096881E-06
  -7.10000005E-03  -1.43188254E-06
  -7.05000013E-03  -1.46340085E-06
  -7.00000022E-03  -1.49553489E-06
  -6.94999984E-03  -1.52829671E-06
  -6.89999992E-03  -1.56169915E-06
  -6.85000001E-03  -1.59575552E-06
  -6.80000009E-03  -1.63047878E-06
  -6.75000018E-03  -1.66588097E-06
  -6.69999979E-03  -1.70197472E-06
  -6.64999988E-03  -1.73877231E-06
  -6.59999996E-03  -1.77628556E-06
  -6.55000005E-03  -1.81452685E-06
  -6.50000013E-03  -1.85350950E-06
  -6.45000022E-03  -1.89324817E-06
  -6.39999984E-03  -1.93375763E-06
  -6.34999992E-03  -1.97505187E-06
  -6.30000001E-03  -2.01714397E-06
  -6.25000009E-03  -2.06004643E-06
  -6.20000018E-03  -2.10377107E-06
  -6.14999980E-03  -2.14833108E-06
  -6.09999988E-03  -2.19373965E-06
  -6.04999997E-03  -2.24001133E-06
  -6.00000005E-03  -2.28716021E-06
  -5.95000014E-03  -2.33520154E-06
  -5.90000022E-03  -2.38415168E-06
  -5.84999984E-03  -2.43402678E-06
  -5.79999993E-03  -2.48484275E-06
  -5.75000001E-03  -2.53661301E-06
  -5.70000010E-03  -2.58935302E-06
  -5.65000018E-03  -2.64307869E-06
  -5.59999980E-03  -2.69780799E-06
  -5.54999989E-03  -2.75355933E-06
  -5.49999997E-03  -2.81035068E-06
  -5.45000006E-03  -2.86820045E-06
  -5.40000014E-03  -2.92712707E-06
  -5.35000023E-03  -2.98714758E-06
  -5.29999984E-03  -3.04827836E-06
  -5.24999993E-03  -3.11053600E-06
  -5.20000001E-03  -3.17393665E-06
  -5.15000010E-03  -3.23849781E-06
  -5.10000018E-03  -3.30423768E-06
  -5.04999980E-03  -3.37117422E-06
  -4.99999989E-03  -3.43932629E-06
  -4.94999997E-03  -3.50871164E-06
  -4.90000006E-03  -3.57934709E-06
  -4.85000014E-03  -3.65124947E-06
  -4.80000023E-03  -3.72443560E-06
  -4.74999985E-03  -3.79892276E-06
  -4.69999993E-03  -3.87472892E-06
  -4.65000002E-03  -3.95187453E-06
  -4.60000010E-03  -4.03038212E-06
  -4.55000019E-03  -4.11027440E-06
  -4.49999981E-03  -4.19157186E-06
  -4.44999989E-03  -4.27429495E-06
  -4.39999998E-03  -4.35846323E-06
  -4.35000006E-03  -4.44409761E-06
  -4.30000015E-03  -4.53121856E-06
  -4.25000023E-03  -4.61984473E-06
  -4.19999985E-03  -4.70999612E-06
  -4.14999994E-03  -4.80169456E-06
  -4.10000002E-03  -4.89496142E-06
  -4.05000011E-03  -4.98981808E-06
  -4.00000019E-03  -5.08628409E-06
  -3.94999981E-03  -5.18437764E-06
  -3.89999989E-03  -5.28411556E-06
  -3.84999998E-03  -5.38551603E-06
  -3.80000006E-03  -5.48859907E-06
  -3.74999992E-03  -5.59338559E-06
  -3.70000000E-03  -5.69989834E-06
  -3.65000009E-03  -5.80815686E-06
  -3.59999994E-03  -5.91818298E-06
  -3.55000002E-03  -6.02999944E-06
  -3.50000011E-03  -6.14362943E-06
  -3.44999996E-03  -6.25909524E-06
  -3.40000005E-03  -6.37641460E-06
  -3.34999990E-03  -6.49560661E-06
  -3.29999998E-03  -6.61669310E-06
  -3.25000007E-03  -6.73969907E-06
  -3.19999992E-03  -6.86465046E-06
  -3.15000000E-03  -6.99156908E-06
  -3.10000009E-03  -7.12047449E-06
  -3.04999994E-03  -7.25138761E-06
  -3.00000003E-03  -7.38432891E-06
  -2.95000011E-03  -7.51932021E-06
  -2.89999996E-03  -7.65638288E-06
  -2.85000005E-03  -7.79553648E-06
  -2.79999990E-03  -7.93680101E-06
  -2.74999999E-03  -8.08019468E-06
  -2.70000007E-03  -8.22574293E-06
  -2.64999992E-03  -8.37347125E-06
  -2.60000001E-03  -8.52340236E-06
  -2.55000009E-03  -8.67554900E-06
  -2.49999994E-03  -8.82992845E-06
  -2.45000003E-03  -8.98656253E-06
  -2.40000011E-03  -9.14547581E-06
  -2.34999997E-03  -9.30669285E-06
  -2.30000005E-03  -9.47023091E-06
  -2.24999990E-03  -9.63610910E-06
  -2.19999999E-03  -9.80435107E-06
  -2.15000007E-03  -9.97498682E-06
  -2.09999993E-03  -1.01480427E-05
  -2.05000001E-03  -1.03235370E-05
  -2.00000009E-03  -1.05014833E-05
  -1.94999995E-03  -1.06819043E-05
  -1.90000003E-03  -1.08648264E-05
  -1.85000000E-03  -1.10502788E-05
  -1.79999997E-03  -1.12382813E-05
  -1.75000005E-03  -1.14288487E-05
  -1.70000002E-03  -1.16220017E-05
  -1.64999999E-03  -1.18177641E-05
  -1.59999996E-03  -1.20161594E-05
  -1.55000004E-03  -1.22172041E-05
  -1.50000001E-03  -1.24209146E-05
  -1.44999998E-03  -1.26273062E-05
  -1.39999995E-03  -1.28363999E-05
  -1.35000004E-03  -1.30482258E-05
  -1.30000000E-03  -1.32628084E-05
  -1.24999997E-03  -1.34801649E-05
  -1.20000006E-03  -1.37003117E-05
  -1.15000003E-03  -1.39232752E-05
  -1.09999999E-03  -1.41490827E-05
  -1.04999996E-03  -1.43777588E-05
  -1.00000005E-03  -1.46093171E-05
  -9.50000016E-04  -1.48437775E-05
  -8.99999985E-04  -1.50811647E-05
  -8.50000011E-04  -1.53215096E-05
  -7.99999980E-04  -1.55648377E-05
  -7.50000007E-04  -1.58111689E-05
  -6.99999975E-04  -1.60605141E-05
  -6.50000002E-04  -1.63128898E-05
  -6.00000028E-04  -1.65683232E-05
  -5.49999997E-04  -1.68268398E-05
  -5.00000024E-04  -1.70884578E-05
  -4.49999992E-04  -1.73531953E-05
  -3.99999990E-04  -1.76210688E-05
  -3.49999988E-04  -1.78921018E-05
  -3.00000014E-04  -1.81663290E-05
  -2.50000012E-04  -1.84437704E-05
  -1.99999995E-04  -1.87244386E-05
  -1.50000007E-04  -1.90083465E-05
  -9.99999975E-05  -1.92955213E-05
  -4.99999987E-05  -1.95859866E-05
   0.00000000      -1.98797716E-05
   4.99999987E-05  -2.01768999E-05
   9.99999975E-05  -2.04773896E-05
   1.50000007E-04  -2.07812609E-05
   1.99999995E-04  -2.10885355E-05
   2.50000012E-04  -2.13992371E-05
   3.00000014E-04  -2.17133911E-05
   3.49999988E-04  -2.20310212E-05
   3.99999990E-04  -2.23521438E-05
   4.49999992E-04  -2.26767752E-05
   5.00000024E-04  -2.30049372E-05
   5.49999997E-04  -2.33366663E-05
   6.00000028E-04  -2.36719843E-05
   6.50000002E-04  -2.40109148E-05
   6.99999975E-04  -2.43534687E-05
   7.50000007E-04  -2.46996569E-05
   7.99999980E-04  -2.50495123E-05
   8.50000011E-04  -2.54030638E-05
   8.99999985E-04  -2.57603278E-05
   9.50000016E-04  -2.61213190E-05
   1.00000005E-03  -2.64860591E-05
   1.04999996E-03  -2.68545682E-05
   1.09999999E-03  -2.72268790E-05
   1.15000003E-03  -2.76030096E-05
   1.20000006E-03  -2.79829874E-05
   1.24999997E-03  -2.83668251E-05
   1.30000000E-03  -2.87545390E-05
   1.35000004E-03  -2.91461638E-05
   1.39999995E-03  -2.95417303E-05
   1.44999998E-03  -2.99412677E-05
   1.50000001E-03  -3.03447814E-05
   1.55000004E-03  -3.07522932E-05
   1.59999996E-03  -3.11638287E-05
   1.64999999E-03  -3.15794168E-05
   1.70000002E-03  -3.19990941E-05
   1.75000005E-03  -3.24228640E-05
   1.79999997E-03  -3.28507340E-05
   1.85000000E-03  -3.32827294E-05
   1.90000003E-03  -3.37188758E-05
   1.94999995E-03  -3.41592167E-05
   2.00000009E-03  -3.46037668E-05
   2.05000001E-03  -3.50525261E-05
   2.09999993E-03  -3.55055090E-05
   2.15000007E-03  -3.59627520E-05
   2.19999999E-03  -3.64242987E-05
   2.24999990E-03  -3.68901710E-05
   2.30000005E-03  -3.73603689E-05
   2.34999997E-03  -3.78349032E-05
   2.40000011E-03  -3.83138031E-05
   2.45000003E-03  -3.87971195E-05
   2.49999994E-03  -3.92848960E-05
   2.55000009E-03  -3.97771364E-05
   2.60000001E-03  -4.02738260E-05
   2.64999992E-03  -4.07749867E-05
   2.70000007E-03  -4.12806730E-05
   2.74999999E-03  -4.17909287E-05
   2.79999990E-03  -4.23057645E-05