  -3.99999991E-02   0.00000000    
  -3.99499983E-02   0.00000000    
  -3.99000011E-02   1.33682827E-15
  -3.98500003E-02   5.32514605E-14
  -3.97999994E-02   3.91707012E-13
  -3.97499986E-02   1.60120745E-12
  -3.97000015E-02   4.59503139E-12
  -3.96500006E-02   1.02161170E-11
  -3.95999998E-02   1.85240902E-11
  -3.95499989E-02   2.82153450E-11
  -3.95000018E-02   3.67651604E-11
  -3.94500010E-02   4.15401845E-11
  -3.94000001E-02   4.14682733E-11
  -3.93499993E-02   3.83398313E-11
  -3.92999984E-02   3.68279504E-11
  -3.92500013E-02   4.28681951E-11
  -3.92000005E-02   6.08584433E-11
  -3.91499996E-02   9.08807543E-11
  -3.90999988E-02   1.27469479E-10
  -3.90500017E-02   1.61037281E-10
  -3.90000008E-02   1.81842499E-10
  -3.89500000E-02   1.84820839E-10
  -3.88999991E-02   1.72698911E-10
  -3.88499983E-02   1.55376059E-10
  -3.88000011E-02   1.45470760E-10
  -3.87500003E-02   1.52044627E-10
  -3.86999995E-02   1.75553433E-10
  -3.86499986E-02   2.06534762E-10
  -3.86000015E-02   2.28868133E-10
  -3.85500006E-02   2.26447264E-10
  -3.84999998E-02   1.90470792E-10
  -3.84499989E-02   1.23884333E-10
  -3.84000018E-02   4.03908920E-11
  -3.83500010E-02  -4.20161406E-11
  -3.83000001E-02  -1.09933590E-10
  -3.82499993E-02  -1.61101715E-10
  -3.81999984E-02  -2.05086073E-10
  -3.81500013E-02  -2.58031513E-10
  -3.81000005E-02  -3.34818395E-10
  -3.80499996E-02  -4.43003162E-10
  -3.79999988E-02  -5.81326209E-10
  -3.79500017E-02  -7.42812645E-10
  -3.79000008E-02  -9.20289844E-10
  -3.78500000E-02  -1.11120091E-09
  -3.77999991E-02  -1.31890920E-09
  -3.77499983E-02  -1.54932589E-09
  -3.77000012E-02  -1.80451099E-09
  -3.76500003E-02  -2.07759832E-09
  -3.75999995E-02  -2.35361997E-09
  -3.75499986E-02  -2.61727062E-09
  -3.75000015E-02  -2.86315949E-09
  -3.74500006E-02  -3.10090575E-09
  -3.73999998E-02  -3.34973338E-09
  -3.73499990E-02  -3.62403463E-09
  -3.73000018E-02  -3.91801303E-09
  -3.72500010E-02  -4.19948565E-09
  -3.72000001E-02  -4.41897807E-09
  -3.71499993E-02  -4.53267779E-09
  -3.70999984E-02  -4.53001148E-09
  -3.70500013E-02  -4.45170389E-09
  -3.70000005E-02  -4.38491909E-09
  -3.69499996E-02  -4.43035919E-09
  -3.68999988E-02  -4.65064209E-09
  -3.68500017E-02  -5.02347230E-09
  -3.68000008E-02  -5.42738698E-09
  -3.67500000E-02  -5.67626124E-09
  -3.66999991E-02  -5.59476998E-09
  -3.66499983E-02  -5.10312415E-09
  -3.66000012E-02  -4.26938440E-09
  -3.65500003E-02  -3.29811400E-09
  -3.64999995E-02  -2.45121101E-09
  -3.64499986E-02  -1.92891747E-09
  -3.64000015E-02  -1.76244863E-09
  -3.63500006E-02  -1.77280779E-09
  -3.62999998E-02  -1.62768454E-09
  -3.62499990E-02  -9.84956228E-10
  -3.62000018E-02   3.35239031E-10
  -3.61500010E-02   2.23286145E-09
  -3.61000001E-02   4.33308012E-09
  -3.60499993E-02   6.12930151E-09
  -3.59999985E-02   7.21114901E-09
  -3.59500013E-02   7.47561035E-09
  -3.59000005E-02   7.21620053E-09
  -3.58499996E-02   7.03208558E-09
  -3.57999988E-02   7.57850316E-09
  -3.57500017E-02   9.25805299E-09
  -3.57000008E-02   1.19937456E-08
  -3.56500000E-02   1.52042929E-08
  -3.55999991E-02   1.80200495E-08
  -3.55499983E-02   1.96646734E-08
  -3.55000012E-02   1.98356194E-08
  -3.54500003E-02   1.88965430E-08
  -3.53999995E-02   1.77663910E-08
  -3.53499986E-02   1.75265598E-08
  -3.53000015E-02   1.89069418E-08
  -3.52500007E-02   2.18857164E-08
  -3.51999998E-02   2.56065444E-08
  -3.51499990E-02   2.86864577E-08
  -3.51000018E-02   2.98101952E-08
  -3.50500010E-02   2.83593060E-08
  -3.50000001E-02   2.47793999E-08
  -3.49499993E-02   2.04812149E-08
  -3.48999985E-02   1.72727397E-08
  -3.48500013E-02   1.65456893E-08
  -3.48000005E-02   1.85807032E-08
  -3.47499996E-02   2.23133956E-08
  -3.46999988E-02   2.57138062E-08
  -3.46500017E-02   2.66534848E-08
  -3.46000008E-02   2.38936924E-08
  -3.45500000E-02   1.77407848E-08
  -3.44999991E-02   1.00326112E-08
  -3.44499983E-02   3.40431816E-09
  -3.44000012E-02   1.15727837E-10
  -3.43500003E-02   9.54207269E-10
  -3.42999995E-02   4.73763784E-09
  -3.42499986E-02   8.70395933E-09
  -3.42000015E-02   9.67777236E-09
  -3.41500007E-02   5.52674262E-09
  -3.40999998E-02  -3.75516018E-09
  -3.40499990E-02  -1.58746829E-08
  -3.40000018E-02  -2.71255303E-08
  -3.39500010E-02  -3.39975728E-08
  -3.39000002E-02  -3.48112650E-08
  -3.38499993E-02  -3.06173860E-08
  -3.37999985E-02  -2.48889922E-08
  -3.37500013E-02  -2.20611795E-08
  -3.37000005E-02  -2.55174601E-08
  -3.36499996E-02  -3.59257584E-08
  -3.35999988E-02  -5.07294899E-08
  -3.35500017E-02  -6.51142926E-08
  -3.35000008E-02  -7.40997734E-08
  -3.34500000E-02  -7.48535527E-08
  -3.33999991E-02  -6.81602117E-08
  -3.33499983E-02  -5.83027209E-08
  -3.33000012E-02  -5.13055838E-08
  -3.32500003E-02  -5.22474082E-08
  -3.31999995E-02  -6.28290948E-08
  -3.31499986E-02  -8.03431561E-08
  -3.31000015E-02  -9.86146418E-08
  -3.30500007E-02  -1.10606273E-07
  -3.29999998E-02  -1.11587241E-07
  -3.29499990E-02  -1.01432157E-07
  -3.29000019E-02  -8.49317701E-08
  -3.28500010E-02  -6.98526392E-08
  -3.28000002E-02  -6.35121111E-08
  -3.27499993E-02  -6.93678999E-08
  -3.26999985E-02  -8.51992468E-08
  -3.26500013E-02  -1.03809143E-07
  -3.26000005E-02  -1.16064619E-07
  -3.25499997E-02  -1.15002258E-07
  -3.24999988E-02  -9.91632803E-08
  -3.24500017E-02  -7.35756913E-08
  -3.24000008E-02  -4.77990945E-08
  -3.23500000E-02  -3.17716804E-08
  -3.22999991E-02  -3.12549240E-08
  -3.22499983E-02  -4.49549376E-08
  -3.22000012E-02  -6.47351186E-08
  -3.21500003E-02  -7.89823460E-08
  -3.20999995E-02  -7.77390738E-08
  -3.20499986E-02  -5.73314018E-08
  -3.20000015E-02  -2.23433574E-08
  -3.19500007E-02   1.60970384E-08
  -3.18999998E-02   4.51098074E-08
  -3.18499990E-02   5.58803777E-08
  -3.18000019E-02   4.78792934E-08
  -3.17500010E-02   2.94699767E-08
  -3.17000002E-02   1.44550842E-08
  -3.16499993E-02   1.59574345E-08
  -3.15999985E-02   4.03219751E-08
  -3.15500014E-02   8.38418970E-08
  -3.15000005E-02   1.33943288E-07
  -3.14499997E-02   1.74489244E-07
  -3.13999988E-02   1.92959277E-07
  -3.13500017E-02   1.86298919E-07
  -3.13000008E-02   1.62703842E-07
  -3.12500000E-02   1.38344092E-07
  -3.11999992E-02   1.30306134E-07
  -3.11500002E-02   1.48813655E-07
  -3.10999993E-02   1.92248081E-07
  -3.10500003E-02   2.47358372E-07
  -3.09999995E-02   2.94780250E-07
  -3.09500005E-02   3.17563689E-07
  -3.08999997E-02   3.08939804E-07
  -3.08500007E-02   2.75752910E-07
  -3.07999998E-02   2.35820522E-07
  -3.07500008E-02   2.10189086E-07
  -3.07000000E-02   2.13618947E-07
  -3.06499992E-02   2.47567897E-07
  -3.06000002E-02   2.98964693E-07
  -3.05499993E-02   3.45548870E-07
  -3.05000003E-02   3.65594218E-07
  -3.04499995E-02   3.47756497E-07
  -3.04000005E-02   2.96573688E-07
  -3.03499997E-02   2.30961263E-07
  -3.03000007E-02   1.76133867E-07
  -3.02499998E-02   1.52389518E-07
  -3.02000009E-02   1.65743458E-07
  -3.01500000E-02   2.04732061E-07
  -3.00999992E-02   2.45047858E-07
  -3.00500002E-02   2.60163375E-07
  -2.99999993E-02   2.33316428E-07
  -2.99500003E-02   1.65458005E-07
  -2.98999995E-02   7.54236567E-08
  -2.98500005E-02  -8.00501176E-09
  -2.97999997E-02  -5.88110538E-08
  -2.97500007E-02  -6.56162200E-08
  -2.96999998E-02  -3.73034297E-08
  -2.96500009E-02   3.69552305E-10
  -2.96000000E-02   1.59229643E-08
  -2.95499992E-02  -1.37313494E-08
  -2.95000002E-02  -9.25162098E-08
  -2.94499993E-02  -2.02741504E-07
  -2.94000003E-02  -3.12345975E-07
  -2.93499995E-02  -3.88843063E-07
  -2.93000005E-02  -4.13865877E-07
  -2.92499997E-02  -3.91753844E-07
  -2.92000007E-02  -3.48129475E-07
  -2.91499998E-02  -3.18821151E-07
  -2.91000009E-02  -3.33859361E-07
  -2.90500000E-02  -4.03636164E-07
  -2.89999992E-02  -5.13546411E-07
  -2.89500002E-02  -6.29776309E-07
  -2.88999993E-02  -7.13939073E-07
  -2.88500004E-02  -7.40190671E-07
  -2.87999995E-02  -7.07160950E-07
  -2.87500005E-02  -6.39169286E-07
  -2.86999997E-02  -5.75887100E-07
  -2.86500007E-02  -5.54802739E-07
  -2.85999998E-02  -5.94204266E-07
  -2.85500009E-02  -6.84358952E-07
  -2.85000000E-02  -7.91076502E-07
  -2.84499992E-02  -8.70368126E-07
  -2.84000002E-02  -8.87884482E-07
  -2.83499993E-02  -8.34498053E-07
  -2.83000004E-02  -7.30915190E-07
  -2.82499995E-02  -6.18968215E-07
  -2.82000005E-02  -5.43194290E-07
  -2.81499997E-02  -5.30774116E-07
  -2.81000007E-02  -5.78833237E-07
  -2.80499998E-02  -6.55004499E-07
  -2.80000009E-02  -7.11306768E-07
  -2.79500000E-02  -7.05399088E-07
  -2.78999992E-02  -6.19812056E-07
  -2.78500002E-02  -4.70447048E-07
  -2.77999993E-02  -3.00263792E-07
  -2.77500004E-02  -1.60645882E-07
  -2.76999995E-02  -8.85416327E-08
  -2.76500005E-02  -8.95730707E-08
  -2.75999997E-02  -1.34852627E-07
  -2.75500007E-02  -1.73249560E-07
  -2.74999999E-02  -1.53934650E-07
  -2.74500009E-02  -4.92924137E-08
  -2.74000000E-02   1.32093405E-07
  -2.73499992E-02   3.48424521E-07
  -2.73000002E-02   5.42632790E-07
  -2.72499993E-02   6.67541485E-07
  -2.72000004E-02   7.07087111E-07
  -2.71499995E-02   6.83986059E-07
  -2.71000005E-02   6.50120967E-07
  -2.70499997E-02   6.63607011E-07
  -2.70000007E-02   7.62570153E-07
  -2.69499999E-02   9.47354067E-07
  -2.69000009E-02   1.17932359E-06
  -2.68500000E-02   1.39713359E-06
  -2.67999992E-02   1.54349743E-06
  -2.67500002E-02   1.59064246E-06
  -2.66999993E-02   1.55300165E-06
  -2.66500004E-02   1.48121399E-06
  -2.65999995E-02   1.43977582E-06
  -2.65500005E-02   1.47807043E-06
  -2.64999997E-02   1.60765592E-06
  -2.64500007E-02   1.79611754E-06
  -2.63999999E-02   1.98054477E-06
  -2.63500009E-02   2.09493692E-06
  -2.63000000E-02   2.09947871E-06
  -2.62499992E-02   1.99857027E-06
  -2.62000002E-02   1.83932241E-06
  -2.61499994E-02   1.69084876E-06
  -2.61000004E-02   1.61333151E-06
  -2.60499995E-02   1.63057257E-06
  -2.60000005E-02   1.71840850E-06
  -2.59499997E-02   1.81445944E-06
  -2.59000007E-02   1.84519661E-06
  -2.58499999E-02   1.75847197E-06
  -2.58000009E-02   1.54700888E-06
  -2.57500000E-02   1.25216707E-06
  -2.56999992E-02   9.45974875E-07
  -2.56500002E-02   6.99140230E-07
  -2.55999994E-02   5.49190020E-07
  -2.55500004E-02   4.83035365E-07
  -2.54999995E-02   4.42007462E-07
  -2.54500005E-02   3.47451277E-07
  -2.53999997E-02   1.35693980E-07
  -2.53500007E-02  -2.13160448E-07
  -2.52999999E-02  -6.65629955E-07
  -2.52500009E-02  -1.14904105E-06
  -2.52000000E-02  -1.58348792E-06
  -2.51499992E-02  -1.91749086E-06
  -2.51000002E-02  -2.15141722E-06
  -2.50499994E-02  -2.33798323E-06
  -2.50000004E-02  -2.55928489E-06
  -2.49499995E-02  -2.89033551E-06
  -2.49000005E-02  -3.36527819E-06
  -2.48499997E-02  -3.96145242E-06
  -2.48000007E-02  -4.60868932E-06
  -2.47499999E-02  -5.21997936E-06
  -2.47000009E-02  -5.73002126E-06
  -2.46500000E-02  -6.12446138E-06
  -2.45999992E-02  -6.44659895E-06
  -2.45500002E-02  -6.77829803E-06
  -2.44999994E-02  -7.20336084E-06
  -2.44500004E-02  -7.76960769E-06
  -2.43999995E-02  -8.46666626E-06
  -2.43500005E-02  -9.22963409E-06
  -2.42999997E-02  -9.96726340E-06
  -2.42500007E-02  -1.06023044E-05
  -2.41999999E-02  -1.11060363E-05
  -2.41500009E-02  -1.15113908E-05
  -2.41000000E-02  -1.18985754E-05
  -2.40499992E-02  -1.23593481E-05
  -2.40000002E-02  -1.29557293E-05
  -2.39499994E-02  -1.36916369E-05
  -2.39000004E-02  -1.45102968E-05
  -2.38499995E-02  -1.53188466E-05
  -2.38000005E-02  -1.60293494E-05
  -2.37499997E-02  -1.65979745E-05
  -2.37000007E-02  -1.70447820E-05
  -2.36499999E-02  -1.74449633E-05
  -2.36000009E-02  -1.78953360E-05
  -2.35500000E-02  -1.84708042E-05
  -2.34999992E-02  -1.91903328E-05
  -2.34500002E-02  -2.00077939E-05
  -2.33999994E-02  -2.08319198E-05
  -2.33500004E-02  -2.15667606E-05
  -2.32999995E-02  -2.21546034E-05
  -2.32500006E-02  -2.26020566E-05
  -2.31999997E-02  -2.29775706E-05
  -2.31500007E-02  -2.33811879E-05
  -2.30999999E-02  -2.38999692E-05
  -2.30500009E-02  -2.45689571E-05
  -2.30000000E-02  -2.53552007E-05
  -2.29499992E-02  -2.61722053E-05
  -2.29000002E-02  -2.69185475E-05
  -2.28499994E-02  -2.75233888E-05
  -2.28000004E-02  -2.79785581E-05
  -2.27499995E-02  -2.83427107E-05
  -2.27000006E-02  -2.87155126E-05
  -2.26499997E-02  -2.91933720E-05
  -2.26000007E-02  -2.98264058E-05
  -2.25499999E-02  -3.05960275E-05
  -2.25000009E-02  -3.14232966E-05
  -2.24500000E-02  -3.22044580E-05
  -2.23999992E-02  -3.28578426E-05
  -2.23500002E-02  -3.33610042E-05
  -2.22999994E-02  -3.37615165E-05
  -2.22500004E-02  -3.41564009E-05
  -2.21999995E-02  -3.46492743E-05
  -2.21500006E-02  -3.53044452E-05
  -2.20999997E-02  -3.61185303E-05
  -2.20500007E-02  -3.70224116E-05
  -2.19999999E-02  -3.79127923E-05
  -2.19500009E-02  -3.86992397E-05
  -2.19000001E-02  -3.93454866E-05
  -2.18499992E-02  -3.98866105E-05
  -2.18000002E-02  -4.04141610E-05
  -2.17499994E-02  -4.10357788E-05
  -2.17000004E-02  -4.18275340E-05
  -2.16499995E-02  -4.28003405E-05
  -2.16000006E-02  -4.38956195E-05
  -2.15499997E-02  -4.50120897E-05
  -2.15000007E-02  -4.60517622E-05
  -2.14499999E-02  -4.69646802E-05
  -2.14000009E-02  -4.77719441E-05
  -2.13500001E-02  -4.85570599E-05
  -2.12999992E-02  -4.94290398E-05
  -2.12500002E-02  -5.04742311E-05
  -2.11999994E-02  -5.17184562E-05
  -2.11500004E-02  -5.31160658E-05
  -2.10999995E-02  -5.45713810E-05
  -2.10500006E-02  -5.59825530E-05
  -2.09999997E-02  -5.72880053E-05
  -2.09500007E-02  -5.84947484E-05
  -2.08999999E-02  -5.96758655E-05
  -2.08500009E-02  -6.09380731E-05
  -2.08000001E-02  -6.23742089E-05
  -2.07499992E-02  -6.40221697E-05
  -2.07000002E-02  -6.58483332E-05
  -2.06499994E-02  -6.77633434E-05
  -2.06000004E-02  -6.96630013E-05
  -2.05499995E-02  -7.14756025E-05
  -2.05000006E-02  -7.31946930E-05
  -2.04499997E-02  -7.48823004E-05
  -2.04000007E-02  -7.66414305E-05
  -2.03499999E-02  -7.85702941E-05
  -2.03000009E-02  -8.07186952E-05
  -2.02500001E-02  -8.30667123E-05
  -2.01999992E-02  -8.55345279E-05
  -2.01500002E-02  -8.80193184E-05
  -2.00999994E-02  -9.04425033E-05
  -2.00500004E-02  -9.27856236E-05
  -1.99999996E-02  -9.50991744E-05
  -1.99500006E-02  -9.74799405E-05
  -1.98999997E-02  -1.00027850E-04
  -1.98500007E-02  -1.02801590E-04
  -1.97999999E-02  -1.05792642E-04
  -1.97500009E-02  -1.08930035E-04
  -1.97000001E-02  -1.12113288E-04
  -1.96499992E-02  -1.15258394E-04
  -1.96000002E-02  -1.18336247E-04
  -1.95499994E-02  -1.21386067E-04
  -1.95000004E-02  -1.24498489E-04
  -1.94499996E-02  -1.27775042E-04
  -1.94000006E-02  -1.31283130E-04
  -1.93499997E-02  -1.35027061E-04
  -1.93000007E-02  -1.38947406E-04
  -1.92499999E-02  -1.42949371E-04
  -1.92000009E-02  -1.46946622E-04
  -1.91500001E-02  -1.50901222E-04
  -1.90999992E-02  -1.54841793E-04
  -1.90500002E-02  -1.58850569E-04
  -1.89999994E-02  -1.63026751E-04
  -1.89500004E-02  -1.67442617E-04
  -1.88999996E-02  -1.72112210E-04
  -1.88500006E-02  -1.76986374E-04
  -1.87999997E-02  -1.81976589E-04
  -1.87500007E-02  -1.86996433E-04
  -1.86999999E-02  -1.92001899E-04
  -1.86500009E-02  -1.97012167E-04
  -1.86000001E-02  -2.02101539E-04
  -1.85499992E-02  -2.07366393E-04
  -1.85000002E-02  -2.12882704E-04
  -1.84499994E-02  -2.18673522E-04
  -1.84000004E-02  -2.24700372E-04
  -1.83499996E-02  -2.30882055E-04
  -1.83000006E-02  -2.37133820E-04
  -1.82499997E-02  -2.43407398E-04
  -1.82000007E-02  -2.49713805E-04
  -1.81499999E-02  -2.56119820E-04
  -1.81000009E-02  -2.62718153E-04
  -1.80500001E-02  -2.69586861E-04
  -1.79999992E-02  -2.76755891E-04
  -1.79500002E-02  -2.84194713E-04
  -1.78999994E-02  -2.91828735E-04
  -1.78500004E-02  -2.99575273E-04
  -1.77999996E-02  -3.07382637E-04
  -1.77500006E-02  -3.15254758E-04
  -1.76999997E-02  -3.23250628E-04
  -1.76500008E-02  -3.31458374E-04
  -1.75999999E-02  -3.39956518E-04
  -1.75500009E-02  -3.48779606E-04
  -1.75000001E-02  -3.57905315E-04
  -1.74499992E-02  -3.67266912E-04
  -1.74000002E-02  -3.76786134E-04
  -1.73499994E-02  -3.86410538E-04
  -1.73000004E-02  -3.96139687E-04
  -1.72499996E-02  -4.06026287E-04
  -1.72000006E-02  -4.16153431E-04
  -1.71499997E-02  -4.26598242E-04
  -1.71000008E-02  -4.37398674E-04
  -1.70499999E-02  -4.48538165E-04
  -1.70000009E-02  -4.59955190E-04
  -1.69500001E-02  -4.71574458E-04
  -1.68999992E-02  -4.83342301E-04
  -1.68500002E-02  -4.95253247E-04
  -1.67999994E-02  -5.07353223E-04
  -1.67500004E-02  -5.19719208E-04
  -1.66999996E-02  -5.32425183E-04
  -1.66500006E-02  -5.45509858E-04
  -1.65999997E-02  -5.58961357E-04
  -1.65500008E-02  -5.72724384E-04
  -1.64999999E-02  -5.86728740E-04
  -1.64500009E-02  -6.00924657E-04
  -1.64000001E-02  -6.15306024E-04
  -1.63499992E-02  -6.29914983E-04
  -1.63000003E-02  -6.44825050E-04
  -1.62499994E-02  -6.60108170E-04
  -1.62000004E-02  -6.75802527E-04
  -1.61499996E-02  -6.91898458E-04
  -1.61000006E-02  -7.08343869E-04
  -1.60499997E-02  -7.25071121E-04
  -1.60000008E-02  -7.42030505E-04
  -1.59499999E-02  -7.59213115E-04
  -1.59000009E-02  -7.76656903E-04
  -1.58500001E-02  -7.94431311E-04
  -1.57999992E-02  -8.12605489E-04
  -1.57500003E-02  -8.31218145E-04
  -1.56999994E-02  -8.50262470E-04
  -1.56500004E-02  -8.69691779E-04
  -1.55999996E-02  -8.89445830E-04
  -1.55499997E-02  -9.09479568E-04
  -1.54999997E-02  -9.29785543E-04
  -1.54499998E-02  -9.50400950E-04
  -1.53999999E-02  -9.71391797E-04
  -1.53500000E-02  -9.92824789E-04
  -1.53000001E-02  -1.01473823E-03
  -1.52500002E-02  -1.03712745E-03
  -1.52000003E-02  -1.05994951E-03
  -1.51500003E-02  -1.08314492E-03
  -1.51000004E-02  -1.10666978E-03
  -1.50499996E-02  -1.13051792E-03
  -1.49999997E-02  -1.15472486E-03
  -1.49499997E-02  -1.17935322E-03
  -1.48999998E-02  -1.20446936E-03
  -1.48499999E-02  -1.23011181E-03
  -1.48000000E-02  -1.25627720E-03
  -1.47500001E-02  -1.28292723E-03
  -1.47000002E-02  -1.31000753E-03
  -1.46500003E-02  -1.33747677E-03
  -1.46000003E-02  -1.36533112E-03
  -1.45500004E-02  -1.39360735E-03
  -1.44999996E-02  -1.42236985E-03
  -1.44499997E-02  -1.45168218E-03
  -1.43999998E-02  -1.48157927E-03
  -1.43499998E-02  -1.51205936E-03
  -1.42999999E-02  -1.54308637E-03
  -1.42500000E-02  -1.57460896E-03
  -1.42000001E-02  -1.60659046E-03
  -1.41500002E-02  -1.63902808E-03
  -1.41000003E-02  -1.67195860E-03
  -1.40500003E-02  -1.70544453E-03
  -1.40000004E-02  -1.73954584E-03
  -1.39499996E-02  -1.77429686E-03
  -1.38999997E-02  -1.80969271E-03
  -1.38499998E-02  -1.84569543E-03
  -1.37999998E-02  -1.88225845E-03
  -1.37499999E-02  -1.91935233E-03
  -1.37000000E-02  -1.95698021E-03
  -1.36500001E-02  -1.99518120E-03
  -1.36000002E-02  -2.03401688E-03
  -1.35500003E-02  -2.07354315E-03
  -1.35000004E-02  -2.11378979E-03
  -1.34500004E-02  -2.15475052E-03
  -1.33999996E-02  -2.19639088E-03
  -1.33499997E-02  -2.23866897E-03
  -1.32999998E-02  -2.28155497E-03
  -1.32499998E-02  -2.32505356E-03
  -1.31999999E-02  -2.36920733E-03
  -1.31500000E-02  -2.41407799E-03
  -1.31000001E-02  -2.45971861E-03
  -1.30500002E-02  -2.50615296E-03
  -1.30000003E-02  -2.55336380E-03
  -1.29500004E-02  -2.60131038E-03
  -1.29000004E-02  -2.64995662E-03
  -1.28499996E-02  -2.69927969E-03
  -1.27999997E-02  -2.74929125E-03
  -1.27499998E-02  -2.80004204E-03
  -1.26999998E-02  -2.85159261E-03
  -1.26499999E-02  -2.90399021E-03
  -1.26000000E-02  -2.95725372E-03
  -1.25500001E-02  -3.01135983E-03
  -1.25000002E-02  -3.06626991E-03
  -1.24500003E-02  -3.12194950E-03
  -1.24000004E-02  -3.17837647E-03
  -1.23500004E-02  -3.23557085E-03
  -1.22999996E-02  -3.29357851E-03
  -1.22499997E-02  -3.35245486E-03
  -1.21999998E-02  -3.41224717E-03
  -1.21499998E-02  -3.47296661E-03
  -1.20999999E-02  -3.53458733E-03
  -1.20500000E-02  -3.59705603E-03
  -1.20000001E-02  -3.66032333E-03
  -1.19500002E-02  -3.72437574E-03
  -1.19000003E-02  -3.78924585E-03
  -1.18500004E-02  -3.85499350E-03
  -1.18000004E-02  -3.92167736E-03
  -1.17499996E-02  -3.98934400E-03
  -1.16999997E-02  -4.05799691E-03
  -1.16499998E-02  -4.12760163E-03
  -1.15999999E-02  -4.19810787E-03
  -1.15499999E-02  -4.26945416E-03
  -1.15000000E-02  -4.34162049E-03
  -1.14500001E-02  -4.41464270E-03
  -1.14000002E-02  -4.48858179E-03
  -1.13500003E-02  -4.56349691E-03
  -1.13000004E-02  -4.63942066E-03
  -1.12500004E-02  -4.71635815E-03
  -1.11999996E-02  -4.79426561E-03
  -1.11499997E-02  -4.87306574E-03
  -1.10999998E-02  -4.95270360E-03
  -1.10499999E-02  -5.03318245E-03
  -1.09999999E-02  -5.11453440E-03
  -1.09500000E-02  -5.19681722E-03
  -1.09000001E-02  -5.28011937E-03
  -1.08500002E-02  -5.36448974E-03
  -1.08000003E-02  -5.44991344E-03
  -1.07500004E-02  -5.53632667E-03
  -1.07000005E-02  -5.62365586E-03
  -1.06499996E-02  -5.71183208E-03
  -1.05999997E-02  -5.80081949E-03
  -1.05499998E-02  -5.89064136E-03
  -1.04999999E-02  -5.98137546E-03
  -1.04499999E-02  -6.07311632E-03
  -1.04000000E-02  -6.16591098E-03
  -1.03500001E-02  -6.25973009E-03
  -1.03000002E-02  -6.35451125E-03
  -1.02500003E-02  -6.45016646E-03
  -1.02000004E-02  -6.54661097E-03
  -1.01500005E-02  -6.64382940E-03
  -1.00999996E-02  -6.74185110E-03
  -1.00499997E-02  -6.84074406E-03
  -9.99999978E-03  -6.94058277E-03
  -9.94999986E-03  -7.04141427E-03
  -9.89999995E-03  -7.14324694E-03
  -9.85000003E-03  -7.24603143E-03
  -9.80000012E-03  -7.34966155E-03
  -9.75000020E-03  -7.45403161E-03
  -9.70000029E-03  -7.55909923E-03
  -9.65000037E-03  -7.66487699E-03
  -9.60000046E-03  -7.77142588E-03
  -9.54999961E-03  -7.87883345E-03
  -9.49999969E-03  -7.98716303E-03
  -9.44999978E-03  -8.09640624E-03
  -9.39999986E-03  -8.20647832E-03
  -9.34999995E-03  -8.31726566E-03
  -9.30000003E-03  -8.42863694E-03
  -9.25000012E-03  -8.54050461E-03
  -9.20000020E-03  -8.65288544E-03
  -9.15000029E-03  -8.76588374E-03
  -9.10000037E-03  -8.87961220E-03
  -9.05000046E-03  -8.99412204E-03
  -8.99999961E-03  -9.10940953E-03
  -8.94999970E-03  -9.22539551E-03
  -8.89999978E-03  -9.34193563E-03
  -8.84999987E-03  -9.45886318E-03
  -8.79999995E-03  -9.57608409E-03
  -8.75000004E-03  -9.69362725E-03
  -8.70000012E-03  -9.81158484E-03
  -8.65000021E-03  -9.93006676E-03
  -8.60000029E-03  -1.00491401E-02
  -8.55000038E-03  -1.01688001E-02
  -8.50000046E-03  -1.02889538E-02
  -8.44999962E-03  -1.04094213E-02
  -8.39999970E-03  -1.05300210E-02
  -8.34999979E-03  -1.06506478E-02
  -8.29999987E-03  -1.07712848E-02
  -8.24999996E-03  -1.08920317E-02
  -8.20000004E-03  -1.10130068E-02
  -8.15000013E-03  -1.11342752E-02
  -8.10000021E-03  -1.12558389E-02
  -8.05000030E-03  -1.13775739E-02
  -8.00000038E-03  -1.14992792E-02
  -7.95000046E-03  -1.16207581E-02
  -7.89999962E-03  -1.17418859E-02
  -7.84999970E-03  -1.18626552E-02
  -7.79999979E-03  -1.19831488E-02
  -7.74999987E-03  -1.21034738E-02
  -7.69999996E-03  -1.22237289E-02
  -7.65000004E-03  -1.23439413E-02
  -7.60000013E-03  -1.24639887E-02
  -7.55000021E-03  -1.25836534E-02
  -7.49999983E-03  -1.27027025E-02
  -7.44999992E-03  -1.28209796E-02
  -7.40000000E-03  -1.29384287E-02
  -7.35000009E-03  -1.30550731E-02
  -7.30000017E-03  -1.31710451E-02
  -7.24999979E-03  -1.32864891E-02
  -7.19999988E-03  -1.34014431E-02
  -7.14999996E-03  -1.35158049E-02
  -7.10000005E-03  -1.36293499E-02
  -7.05000013E-03  -1.37417708E-02
  -7.00000022E-03  -1.38527909E-02
  -6.94999984E-03  -1.39623042E-02
  -6.89999992E-03  -1.40704066E-02
  -6.85000001E-03  -1.41772758E-02
  -6.80000009E-03  -1.42830545E-02
  -6.75000018E-03  -1.43878162E-02
  -6.69999979E-03  -1.44914472E-02
  -6.64999988E-03  -1.45936599E-02
  -6.59999996E-03  -1.46940853E-02
  -6.55000005E-03  -1.47924107E-02
  -6.50000013E-03  -1.48885297E-02
  -6.45000022E-03  -1.49824945E-02
  -6.39999984E-03  -1.50745427E-02
  -6.34999992E-03  -1.51649155E-02
  -6.30000001E-03  -1.52536817E-02
  -6.25000009E-03  -1.53407147E-02
  -6.20000018E-03  -1.54256737E-02
  -6.14999980E-03  -1.55081553E-02
  -6.09999988E-03  -1.55877760E-02
  -6.04999997E-03  -1.56643223E-02
  -6.00000005E-03  -1.57378744E-02
  -5.95000014E-03  -1.58086605E-02
  -5.90000022E-03  -1.58769339E-02
  -5.84999984E-03  -1.59428231E-02
  -5.79999993E-03  -1.60061885E-02
  -5.75000001E-03  -1.60667002E-02
  -5.70000010E-03  -1.61239114E-02
  -5.65000018E-03  -1.61773562E-02
  -5.59999980E-03  -1.62268076E-02
  -5.54999989E-03  -1.62723083E-02
  -5.49999997E-03  -1.63140129E-02
  -5.45000006E-03  -1.63521469E-02
  -5.40000014E-03  -1.63868926E-02
  -5.35000023E-03  -1.64182279E-02
  -5.29999984E-03  -1.64458845E-02
  -5.24999993E-03  -1.64694041E-02
  -5.20000001E-03  -1.64882690E-02
  -5.15000010E-03  -1.65021513E-02
  -5.10000018E-03  -1.65110063E-02
  -5.04999980E-03  -1.65149774E-02
  -4.99999989E-03  -1.65143032E-02
  -4.94999997E-03  -1.65091641E-02
  -4.90000006E-03  -1.64995417E-02
  -4.85000014E-03  -1.64851882E-02
  -4.80000023E-03  -1.64656769E-02
  -4.74999985E-03  -1.64404530E-02
  -4.69999993E-03  -1.64090861E-02
  -4.65000002E-03  -1.63713787E-02
  -4.60000010E-03  -1.63273606E-02
  -4.55000019E-03  -1.62772257E-02
  -4.49999981E-03  -1.62212420E-02
  -4.44999989E-03  -1.61596909E-02
  -4.39999998E-03  -1.60924476E-02
  -4.35000006E-03  -1.60190091E-02
  -4.30000015E-03  -1.59387197E-02
  -4.25000023E-03  -1.58509463E-02
  -4.19999985E-03  -1.57553554E-02
  -4.14999994E-03  -1.56519208E-02
  -4.10000002E-03  -1.55409789E-02
  -4.05000011E-03  -1.54229663E-02
  -4.00000019E-03  -1.52980955E-02
  -3.94999981E-03  -1.51662966E-02
  -3.89999989E-03  -1.50271002E-02
  -3.84999998E-03  -1.48798004E-02
  -3.80000006E-03  -1.47237275E-02
  -3.74999992E-03  -1.45584019E-02
  -3.70000000E-03  -1.43836476E-02
  -3.65000009E-03  -1.41996806E-02
  -3.59999994E-03  -1.40069481E-02
  -3.55000002E-03  -1.38058066E-02
  -3.50000011E-03  -1.35963839E-02
  -3.44999996E-03  -1.33782718E-02
  -3.40000005E-03  -1.31506957E-02
  -3.34999990E-03  -1.29128229E-02
  -3.29999998E-03  -1.26639539E-02
  -3.25000007E-03  -1.24039035E-02
  -3.19999992E-03  -1.21329604E-02
  -3.15000000E-03  -1.18516032E-02
  -3.10000009E-03  -1.15603050E-02
  -3.04999994E-03  -1.12592336E-02
  -3.00000003E-03  -1.09479921E-02
  -2.95000011E-03  -1.06258262E-02
  -2.89999996E-03  -1.02919182E-02
  -2.85000005E-03  -9.94554069E-03
  -2.79999990E-03  -9.58629884E-03
  -2.74999999E-03  -9.21431370E-03
  -2.70000007E-03  -8.83004535E-03
  -2.64999992E-03  -8.43395758E-03
  -2.60000001E-03  -8.02636333E-03
  -2.55000009E-03  -7.60716153E-03
  -2.49999994E-03  -7.17570214E-03
  -2.45000003E-03  -6.73099328E-03
  -2.40000011E-03  -6.27209106E-03
  -2.34999997E-03  -5.79850562E-03
  -2.30000005E-03  -5.31019270E-03
  -2.24999990E-03  -4.80755093E-03
  -2.19999999E-03  -4.29124571E-03
  -2.15000007E-03  -3.76180862E-03
  -2.09999993E-03  -3.21918051E-03
  -2.05000001E-03  -2.66258116E-03
  -2.00000009E-03  -2.09102686E-03
  -1.94999995E-03  -1.50361517E-03
  -1.90000003E-03  -8.99758132E-04
  -1.85000000E-03  -2.79343920E-04
  -1.79999997E-03   3.57189856E-04
  -1.75000005E-03   1.00914866E-03
  -1.70000002E-03   1.67606445E-03
  -1.64999999E-03   2.35788897E-03
  -1.59999996E-03   3.05519276E-03
  -1.55000004E-03   3.76897003E-03
  -1.50000001E-03   4.50026570E-03
  -1.44999998E-03   5.24974009E-03
  -1.39999995E-03   6.01755269E-03
  -1.35000004E-03   6.80342130E-03
  -1.30000000E-03   7.60670425E-03
  -1.24999997E-03   8.42681248E-03
  -1.20000006E-03   9.26352479E-03
  -1.15000003E-03   1.01171983E-02
  -1.09999999E-03   1.09888334E-02
  -1.04999996E-03   1.18796248E-02
  -1.00000005E-03   1.27904331E-02
  -9.50000016E-04   1.37216132E-02
  -8.99999985E-04   1.46727934E-02
  -8.50000011E-04   1.56431887E-02
  -7.99999980E-04   1.66320000E-02
  -7.50000007E-04   1.76388640E-02
  -6.99999975E-04   1.86641980E-02
  -6.50000002E-04   1.97089072E-02
  -6.00000028E-04   2.07742024E-02
  -5.49999997E-04   2.18611136E-02
  -5.00000024E-04   2.29699742E-02
  -4.49999992E-04   2.41004489E-02
  -3.99999990E-04   2.52517946E-02
  -3.49999988E-04   2.64231078E-02
  -3.00000014E-04   2.76139695E-02
  -2.50000012E-04   2.88247056E-02
  -1.99999995E-04   3.00562810E-02
  -1.50000007E-04   3.13099362E-02
  -9.99999975E-05   3.25866453E-02
  -4.99999987E-05   3.38869095E-02
   0.00000000       3.52104083E-02
   4.99999987E-05   3.65562215E-02
   9.99999975E-05   3.79234590E-02
   1.50000007E-04   3.93116511E-02
   1.99999995E-04   4.07209471E-02
   2.50000012E-04   4.21521105E-02
   3.00000014E-04   4.36063148E-02
   3.49999988E-04   4.50847037E-02
   3.99999990E-04   4.65878695E-02
   4.49999992E-04   4.81156372E-02
   5.00000024E-04   4.96671200E-02
   5.49999997E-04   5.12412079E-02
   6.00000028E-04   5.28371967E-02
   6.50000002E-04   5.44549897E-02
   6.99999975E-04   5.60952947E-02
   7.50000007E-04   5.77593856E-02
   7.99999980E-04   5.94485328E-02
   8.50000011E-04   6.11635409E-02
   8.99999985E-04   6.29042909E-02
   9.50000016E-04   6.46698698E-02
   1.00000005E-03   6.64591342E-02
   1.04999996E-03   6.82710856E-02
   1.09999999E-03   7.01054409E-02
   1.15000003E-03   7.19627738E-02
   1.20000006E-03   7.38442019E-02
   1.24999997E-03   7.57510662E-02
   1.30000000E-03   7.76843280E-02
   1.35000004E-03   7.96440318E-02
   1.39999995E-03   8.16292688E-02
   1.44999998E-03   8.36387202E-02
   1.50000001E-03   8.56712013E-02
   1.55000004E-03   8.77261311E-02
   1.59999996E-03   8.98037851E-02
   1.64999999E-03   9.19053108E-02
   1.70000002E-03   9.40321684E-02
   1.75000005E-03   9.61854458E-02
   1.79999997E-03   9.83653814E-02
   1.85000000E-03  0.100571245    
   1.90000003E-03  0.102801643    
   1.94999995E-03  0.105055109    
   2.00000009E-03  0.107330725    
   2.05000001E-03  0.109628499    
   2.09999993E-03  0.111949347    
   2.15000007E-03  0.114294685    
   2.19999999E-03  0.116665773    
   2.24999990E-03  0.119063117    
   2.30000005E-03  0.121486239    
   2.34999997E-03  0.123933762    
   2.40000011E-03  0.126403987    
   2.45000003E-03  0.128895476    
   2.49999994E-03  0.131407842    
   2.55000009E-03  0.133941844    
   2.60000001E-03  0.136498973    
   2.64999992E-03  0.139080554    
   2.70000007E-03  0.141687199    
   2.74999999E-03  0.144318566    
   2.79999990E-03  0.146973491    