  -3.99999991E-02   0.00000000    
  -3.99499983E-02   0.00000000    
  -3.99000011E-02   0.00000000    
  -3.98500003E-02   0.00000000    
  -3.97999994E-02  -2.11520691E-18
  -3.97499986E-02  -2.41437031E-17
  -3.97000015E-02  -1.43717748E-16
  -3.96500006E-02  -5.91453196E-16
  -3.95999998E-02  -1.88233210E-15
  -3.95499989E-02  -4.91490910E-15
  -3.95000018E-02  -1.09111438E-14
  -3.94500010E-02  -2.10791501E-14
  -3.94000001E-02  -3.60104843E-14
  -3.93499993E-02  -5.50571619E-14
  -3.92999984E-02  -7.61484381E-14
  -3.92500013E-02  -9.65067260E-14
  -3.92000005E-02  -1.14357566E-13
  -3.91499996E-02  -1.31061679E-13
  -3.90999988E-02  -1.52470809E-13
  -3.90500017E-02  -1.88216562E-13
  -3.90000008E-02  -2.48403403E-13
  -3.89500000E-02  -3.38621682E-13
  -3.88999991E-02  -4.55611460E-13
  -3.88499983E-02  -5.86358382E-13
  -3.88000011E-02  -7.12304781E-13
  -3.87500003E-02  -8.17917999E-13
  -3.86999995E-02  -9.00122153E-13
  -3.86499986E-02  -9.73544921E-13
  -3.86000015E-02  -1.06736690E-12
  -3.85500006E-02  -1.21300474E-12
  -3.84999998E-02  -1.42672636E-12
  -3.84499989E-02  -1.69525201E-12
  -3.84000018E-02  -1.97290274E-12
  -3.83500010E-02  -2.19469712E-12
  -3.83000001E-02  -2.30217820E-12
  -3.82499993E-02  -2.27125090E-12
  -3.81999984E-02  -2.12819280E-12
  -3.81500013E-02  -1.94373120E-12
  -3.81000005E-02  -1.80467598E-12
  -3.80499996E-02  -1.77373947E-12
  -3.79999988E-02  -1.85531755E-12
  -3.79500017E-02  -1.98414375E-12
  -3.79000008E-02  -2.04450411E-12
  -3.78500000E-02  -1.91376927E-12
  -3.77999991E-02  -1.51168336E-12
  -3.77499983E-02  -8.32494338E-13
  -3.77000012E-02   5.62966049E-14
  -3.76500003E-02   1.04941327E-12
  -3.75999995E-02   2.05749610E-12
  -3.75499986E-02   3.05355546E-12
  -3.75000015E-02   4.09003473E-12
  -3.74500006E-02   5.27873795E-12
  -3.73999998E-02   6.74364167E-12
  -3.73499990E-02   8.56832227E-12
  -3.73000018E-02   1.07599459E-11
  -3.72500010E-02   1.32417098E-11
  -3.72000001E-02   1.58718715E-11
  -3.71499993E-02   1.84776344E-11
  -3.70999984E-02   2.08908706E-11
  -3.70500013E-02   2.29789295E-11
  -3.70000005E-02   2.46717351E-11
  -3.69499996E-02   2.59887667E-11
  -3.68999988E-02   2.70622240E-11
  -3.68500017E-02   2.81397700E-11
  -3.68000008E-02   2.95426010E-11
  -3.67500000E-02   3.15648480E-11
  -3.66999991E-02   3.43307674E-11
  -3.66499983E-02   3.76644965E-11
  -3.66000012E-02   4.10485361E-11
  -3.65500003E-02   4.37293882E-11
  -3.64999995E-02   4.49680050E-11
  -3.64499986E-02   4.43514045E-11
  -3.64000015E-02   4.20218756E-11
  -3.63500006E-02   3.86819569E-11
  -3.62999998E-02   3.53144181E-11
  -3.62499990E-02   3.26927686E-11
  -3.62000018E-02   3.08909391E-11
  -3.61500010E-02   2.90559521E-11
  -3.61000001E-02   2.56331952E-11
  -3.60499993E-02   1.90367323E-11
  -3.59999985E-02   8.51444609E-12
  -3.59500013E-02  -5.20847731E-12
  -3.59000005E-02  -1.99046370E-11
  -3.58499996E-02  -3.25978654E-11
  -3.57999988E-02  -4.08809896E-11
  -3.57500017E-02  -4.42428004E-11
  -3.57000008E-02  -4.47270970E-11
  -3.56500000E-02  -4.64507217E-11
  -3.55999991E-02  -5.39944478E-11
  -3.55499983E-02  -7.02548991E-11
  -3.55000012E-02  -9.47301265E-11
  -3.54500003E-02  -1.23172639E-10
  -3.53999995E-02  -1.49022961E-10
  -3.53499986E-02  -1.66212016E-10
  -3.53000015E-02  -1.72160577E-10
  -3.52500007E-02  -1.69507935E-10
  -3.51999998E-02  -1.65500488E-10
  -3.51499990E-02  -1.68973474E-10
  -3.51000018E-02  -1.86054935E-10
  -3.50500010E-02  -2.16534887E-10
  -3.50000001E-02  -2.52810939E-10
  -3.49499993E-02  -2.82333296E-10
  -3.48999985E-02  -2.92875502E-10
  -3.48500013E-02  -2.78457951E-10
  -3.48000005E-02  -2.43110920E-10
  -3.47499996E-02  -2.00319220E-10
  -3.46999988E-02  -1.67811903E-10
  -3.46500017E-02  -1.59601360E-10
  -3.46000008E-02  -1.78782406E-10
  -3.45500000E-02  -2.14696511E-10
  -3.44999991E-02  -2.46395626E-10
  -3.44499983E-02  -2.51506538E-10
  -3.44000012E-02  -2.16847942E-10
  -3.43500003E-02  -1.45848320E-10
  -3.42999995E-02  -5.87706481E-11
  -3.42499986E-02   1.52247329E-11
  -3.42000015E-02   5.12840499E-11
  -3.41500007E-02   4.15224036E-11
  -3.40999998E-02   9.10401312E-13
  -3.40499990E-02  -3.72811643E-11
  -3.40000018E-02  -3.54891394E-11
  -3.39500010E-02   3.03844276E-11
  -3.39000002E-02   1.57639832E-10
  -3.38499993E-02   3.14821363E-10
  -3.37999985E-02   4.53344418E-10
  -3.37500013E-02   5.28595390E-10
  -3.37000005E-02   5.21378329E-10
  -3.36499996E-02   4.49445092E-10
  -3.35999988E-02   3.62545688E-10
  -3.35500017E-02   3.21682930E-10
  -3.35000008E-02   3.70924846E-10
  -3.34500000E-02   5.14550125E-10
  -3.33999991E-02   7.11025794E-10
  -3.33499983E-02   8.88371321E-10
  -3.33000012E-02   9.75633574E-10
  -3.32500003E-02   9.36942857E-10
  -3.31999995E-02   7.92080623E-10
  -3.31499986E-02   6.12410900E-10
  -3.31000015E-02   4.91774177E-10
  -3.30500007E-02   5.03874886E-10
  -3.29999998E-02   6.65220712E-10
  -3.29499990E-02   9.21763166E-10
  -3.29000019E-02   1.16774490E-09
  -3.28500010E-02   1.29068145E-09
  -3.28000002E-02   1.22342991E-09
  -3.27499993E-02   9.79268555E-10
  -3.26999985E-02   6.51920185E-10
  -3.26500013E-02   3.77578496E-10
  -3.26000005E-02   2.73811224E-10
  -3.25499997E-02   3.82436333E-10
  -3.24999988E-02   6.43793741E-10
  -3.24500017E-02   9.17155518E-10
  -3.24000008E-02   1.04129039E-09
  -3.23500000E-02   9.09659514E-10
  -3.22999991E-02   5.25737731E-10
  -3.22499983E-02   1.06394563E-11
  -3.22000012E-02  -4.44357939E-10
  -3.21500003E-02  -6.62275013E-10
  -3.20999995E-02  -5.64836788E-10
  -3.20499986E-02  -2.16954454E-10
  -3.20000015E-02   1.92764915E-10
  -3.19500007E-02   4.31117669E-10
  -3.18999998E-02   3.26190908E-10
  -3.18499990E-02  -1.47837215E-10
  -3.18000019E-02  -8.48387638E-10
  -3.17500010E-02  -1.51959478E-09
  -3.17000002E-02  -1.90437266E-09
  -3.16499993E-02  -1.86470550E-09
  -3.15999985E-02  -1.45417067E-09
  -3.15500014E-02  -9.05307163E-10
  -3.15000005E-02  -5.31945821E-10
  -3.14499997E-02  -5.86631965E-10
  -3.13999988E-02  -1.13711685E-09
  -3.13500017E-02  -2.02125094E-09
  -3.13000008E-02  -2.90673263E-09
  -3.12500000E-02  -3.43467765E-09
  -3.11999992E-02  -3.38523498E-09
  -3.11500002E-02  -2.78912515E-09
  -3.10999993E-02  -1.92939886E-09
  -3.10500003E-02  -1.22558308E-09
  -3.09999995E-02  -1.04693521E-09
  -3.09500005E-02  -1.53760882E-09
  -3.08999997E-02  -2.53605204E-09
  -3.08500007E-02  -3.63194452E-09
  -3.07999998E-02  -4.34231584E-09
  -3.07500008E-02  -4.33169278E-09
  -3.07000000E-02  -3.57612406E-09
  -3.06499992E-02  -2.39126985E-09
  -3.06000002E-02  -1.30359823E-09
  -3.05499993E-02  -8.15810974E-10
  -3.05000003E-02  -1.16994636E-09
  -3.04499995E-02  -2.21861329E-09
  -3.04000005E-02  -3.47058360E-09
  -3.03499997E-02  -4.29939240E-09
  -3.03000007E-02  -4.22693747E-09
  -3.02499998E-02  -3.15421023E-09
  -3.02000009E-02  -1.42886147E-09
  -3.01500000E-02   2.90790364E-10
  -3.00999992E-02   1.32313427E-09
  -3.00500002E-02   1.27666566E-09
  -2.99999993E-02   2.45265031E-10
  -2.99500003E-02  -1.21145982E-09
  -2.98999995E-02  -2.30471797E-09
  -2.98500005E-02  -2.37126430E-09
  -2.97999997E-02  -1.18766330E-09
  -2.97500007E-02   9.03810304E-10
  -2.96999998E-02   3.12551496E-09
  -2.96500009E-02   4.60331995E-09
  -2.96000000E-02   4.76719331E-09
  -2.95499992E-02   3.63074970E-09
  -2.95000002E-02   1.81416782E-09
  -2.94499993E-02   2.87278479E-10
  -2.94000003E-02  -6.18318799E-11
  -2.93499995E-02   1.15856380E-09
  -2.93000005E-02   3.63859498E-09
  -2.92499997E-02   6.47571552E-09
  -2.92000007E-02   8.56208526E-09
  -2.91499998E-02   9.08423736E-09
  -2.91000009E-02   7.90936294E-09
  -2.90500000E-02   5.67475933E-09
  -2.89999992E-02   3.52597485E-09
  -2.89500002E-02   2.60907895E-09
  -2.88999993E-02   3.54081675E-09
  -2.88500004E-02   6.10038375E-09
  -2.87999995E-02   9.29474631E-09
  -2.87500005E-02   1.17835306E-08
  -2.86999997E-02   1.24827135E-08
  -2.86500007E-02   1.10760192E-08
  -2.85999998E-02   8.19401880E-09
  -2.85500009E-02   5.16409093E-09
  -2.85000000E-02   3.42839490E-09
  -2.84499992E-02   3.88427113E-09
  -2.84000002E-02   6.44779252E-09
  -2.83499993E-02   1.00506838E-08
  -2.83000004E-02   1.30897773E-08
  -2.82499995E-02   1.41403458E-08
  -2.82000005E-02   1.26156010E-08
  -2.81499997E-02   9.06677666E-09
  -2.81000007E-02   4.97164887E-09
  -2.80499998E-02   2.08893081E-09
  -2.80000009E-02   1.65890846E-09
  -2.79500000E-02   3.81232068E-09
  -2.78999992E-02   7.46756257E-09
  -2.78500002E-02   1.07822204E-08
  -2.77999993E-02   1.19722747E-08
  -2.77500004E-02   1.01360120E-08
  -2.76999995E-02   5.70378589E-09
  -2.76500005E-02   2.92626451E-10
  -2.75999997E-02  -3.98991062E-09
  -2.75500007E-02  -5.49338175E-09
  -2.74999999E-02  -3.79766218E-09
  -2.74500009E-02   4.97526742E-11
  -2.74000000E-02   3.96066779E-09
  -2.73499992E-02   5.72528513E-09
  -2.73000002E-02   4.01924849E-09
  -2.72499993E-02  -9.60330260E-10
  -2.72000004E-02  -7.53461382E-09
  -2.71499995E-02  -1.32635778E-08
  -2.71000005E-02  -1.60399729E-08
  -2.70499997E-02  -1.50672310E-08
  -2.70000007E-02  -1.12683560E-08
  -2.69499999E-02  -6.91861413E-09
  -2.69000009E-02  -4.64416239E-09
  -2.68500000E-02  -6.22486596E-09
  -2.67999992E-02  -1.17442216E-08
  -2.67500002E-02  -1.94884731E-08
  -2.66999993E-02  -2.66665889E-08
  -2.66500004E-02  -3.06483763E-08
  -2.65999995E-02  -3.01701029E-08
  -2.65500005E-02  -2.59535593E-08
  -2.64999997E-02  -2.04352695E-08
  -2.64500007E-02  -1.67011258E-08
  -2.63999999E-02  -1.70890893E-08
  -2.63500009E-02  -2.20900489E-08
  -2.63000000E-02  -3.00604910E-08
  -2.62499992E-02  -3.79046092E-08
  -2.62000002E-02  -4.24438156E-08
  -2.61499994E-02  -4.18672492E-08
  -2.61000004E-02  -3.66003263E-08
  -2.60499995E-02  -2.91743785E-08
  -2.60000005E-02  -2.31255832E-08
  -2.59499997E-02  -2.13979483E-08
  -2.59000007E-02  -2.49674379E-08
  -2.58499999E-02  -3.23256657E-08
  -2.58000009E-02  -4.00870235E-08
  -2.57500000E-02  -4.44758967E-08
  -2.56999992E-02  -4.30394138E-08
  -2.56500002E-02  -3.58072754E-08
  -2.55999994E-02  -2.53499781E-08
  -2.55500004E-02  -1.56752975E-08
  -2.54999995E-02  -1.04339284E-08
  -2.54500005E-02  -1.12365166E-08
  -2.53999997E-02  -1.68573759E-08
  -2.53500007E-02  -2.37167601E-08
  -2.52999999E-02  -2.74583609E-08
  -2.52500009E-02  -2.49304364E-08
  -2.52000000E-02  -1.56729083E-08
  -2.51499992E-02  -2.21278174E-09
  -2.51000002E-02   1.10032579E-08
  -2.50499994E-02   1.95895495E-08
  -2.50000004E-02   2.12329780E-08
  -2.49499995E-02   1.68123808E-08
  -2.49000005E-02   1.00852304E-08
  -2.48499997E-02   6.04293238E-09
  -2.48000007E-02   8.65084093E-09
  -2.47499999E-02   1.89928020E-08
  -2.47000009E-02   3.46840920E-08
  -2.46500000E-02   5.08593061E-08
  -2.45999992E-02   6.23267056E-08
  -2.45500002E-02   6.59327526E-08
  -2.44999994E-02   6.20559959E-08
  -2.44500004E-02   5.45182175E-08
  -2.43999995E-02   4.89082446E-08
  -2.43500005E-02   5.00438446E-08
  -2.42999997E-02   5.97144947E-08
  -2.42500007E-02   7.57521121E-08
  -2.41999999E-02   9.28964141E-08
  -2.41500009E-02   1.05108946E-07
  -2.41000000E-02   1.08313259E-07
  -2.40499992E-02   1.02312811E-07
  -2.40000002E-02   9.09799240E-08
  -2.39499994E-02   8.05787721E-08
  -2.39000004E-02   7.69404878E-08
  -2.38499995E-02   8.27573245E-08
  -2.38000005E-02   9.62447118E-08
  -2.37499997E-02   1.11826012E-07
  -2.37000007E-02   1.22582037E-07
  -2.36499999E-02   1.23387295E-07
  -2.36000009E-02   1.13307813E-07
  -2.35500000E-02   9.61346913E-08
  -2.34999992E-02   7.87549439E-08
  -2.34500002E-02   6.80493599E-08
  -2.33999994E-02   6.77060967E-08
  -2.33500004E-02   7.64174857E-08
  -2.32999995E-02   8.83315963E-08
  -2.32500006E-02   9.56153769E-08
  -2.31999997E-02   9.20077312E-08
  -2.31500007E-02   7.57518066E-08
  -2.30999999E-02   5.05364071E-08
  -2.30500009E-02   2.39548612E-08
  -2.30000000E-02   4.12152934E-09
  -2.29499992E-02  -4.04556655E-09
  -2.29000002E-02  -1.17015908E-09
  -2.28499994E-02   6.72997391E-09
  -2.28000004E-02   1.08864402E-08
  -2.27499995E-02   3.76971476E-09
  -2.27000006E-02  -1.73800263E-08
  -2.26499997E-02  -4.91242105E-08
  -2.26000007E-02  -8.32200229E-08
  -2.25499999E-02  -1.10273696E-07
  -2.25000009E-02  -1.24029043E-07
  -2.24500000E-02  -1.24327713E-07
  -2.23999992E-02  -1.17334011E-07
  -2.23500002E-02  -1.12841214E-07
  -2.22999994E-02  -1.19819589E-07
  -2.22500004E-02  -1.42212343E-07
  -2.21999995E-02  -1.76929703E-07
  -2.21500006E-02  -2.15031648E-07
  -2.20999997E-02  -2.45643946E-07
  -2.20500007E-02  -2.60876590E-07
  -2.19999999E-02  -2.59500979E-07
  -2.19500009E-02  -2.47650974E-07
  -2.19000001E-02  -2.36138007E-07
  -2.18499992E-02  -2.35526258E-07
  -2.18000002E-02  -2.51181547E-07
  -2.17499994E-02  -2.80582867E-07
  -2.17000004E-02  -3.14206233E-07
  -2.16499995E-02  -3.39674955E-07
  -2.16000006E-02  -3.47351715E-07
  -2.15499997E-02  -3.34827718E-07
  -2.15000007E-02  -3.08201095E-07
  -2.14499999E-02  -2.79460266E-07
  -2.14000009E-02  -2.61069744E-07
  -2.13500001E-02  -2.60181508E-07
  -2.12999992E-02  -2.75137182E-07
  -2.12500002E-02  -2.95944545E-07
  -2.11999994E-02  -3.08622504E-07
  -2.11500004E-02  -3.01517105E-07
  -2.10999995E-02  -2.70724200E-07
  -2.10500006E-02  -2.22087351E-07
  -2.09999997E-02  -1.68748613E-07
  -2.09500007E-02  -1.25258666E-07
  -2.08999999E-02  -1.00872036E-07
  -2.08500009E-02  -9.51060031E-08
  -2.08000001E-02  -9.76823529E-08
  -2.07499992E-02  -9.30070740E-08
  -2.07000002E-02  -6.72471145E-08
  -2.06499994E-02  -1.48088475E-08
  -2.06000004E-02   5.87949600E-08
  -2.05499995E-02   1.39119507E-07
  -2.05000006E-02   2.09144176E-07
  -2.04499997E-02   2.56995747E-07
  -2.04000007E-02   2.81511348E-07
  -2.03499999E-02   2.93009691E-07
  -2.03000009E-02   3.08777629E-07
  -2.02500001E-02   3.45206843E-07
  -2.01999992E-02   4.10116826E-07
  -2.01500002E-02   4.98813336E-07
  -2.00999994E-02   5.95808160E-07
  -2.00500004E-02   6.81565666E-07
  -1.99999996E-02   7.41302358E-07
  -1.99500006E-02   7.71833470E-07
  -1.98999997E-02   7.83251664E-07
  -1.98500007E-02   7.94513824E-07
  -1.97999999E-02   8.24801816E-07
  -1.97500009E-02   8.84524468E-07
  -1.97000001E-02   9.70100359E-07
  -1.96499992E-02   1.06503705E-06
  -1.96000002E-02   1.14698537E-06
  -1.95499994E-02   1.19768731E-06
  -1.95000004E-02   1.21131268E-06
  -1.94499996E-02   1.19729862E-06
  -1.94000006E-02   1.17623460E-06
  -1.93499997E-02   1.17049694E-06
  -1.93000007E-02   1.19380536E-06
  -1.92499999E-02   1.24448195E-06
  -1.92000009E-02   1.30561807E-06
  -1.91500001E-02   1.35226583E-06
  -1.90999992E-02   1.36252902E-06
  -1.90500002E-02   1.32755281E-06
  -1.89999994E-02   1.25578481E-06
  -1.89500004E-02   1.16938668E-06
  -1.88999996E-02   1.09423524E-06
  -1.88500006E-02   1.04794094E-06
  -1.87999997E-02   1.03133948E-06
  -1.87500007E-02   1.02746787E-06
  -1.86999999E-02   1.00869681E-06
  -1.86500009E-02   9.48961372E-07
  -1.86000001E-02   8.35606215E-07
  -1.85499992E-02   6.75394631E-07
  -1.85000002E-02   4.91767423E-07
  -1.84499994E-02   3.14384437E-07
  -1.84000004E-02   1.65547590E-07
  -1.83499996E-02   4.96587802E-08
  -1.83000006E-02  -4.93622032E-08
  -1.82499997E-02  -1.61313878E-07
  -1.82000007E-02  -3.16464821E-07
  -1.81499999E-02  -5.31733690E-07
  -1.81000009E-02  -8.02626175E-07
  -1.80500001E-02  -1.10477822E-06
  -1.79999992E-02  -1.40463874E-06
  -1.79500002E-02  -1.67463509E-06
  -1.78999994E-02  -1.90597927E-06
  -1.78500004E-02  -2.11318184E-06
  -1.77999996E-02  -2.32799812E-06
  -1.77500006E-02  -2.58531736E-06
  -1.76999997E-02  -2.90724802E-06
  -1.76500008E-02  -3.29265436E-06
  -1.75999999E-02  -3.71706869E-06
  -1.75500009E-02  -4.14324813E-06
  -1.75000001E-02  -4.53783014E-06
  -1.74499992E-02  -4.88659998E-06
  -1.74000002E-02  -5.20135382E-06
  -1.73499994E-02  -5.51499897E-06
  -1.73000004E-02  -5.86686201E-06
  -1.72499996E-02  -6.28469979E-06
  -1.72000006E-02  -6.77153821E-06
  -1.71499997E-02  -7.30350848E-06
  -1.71000008E-02  -7.83991891E-06
  -1.70499999E-02  -8.34124694E-06
  -1.70000009E-02  -8.78703122E-06
  -1.69500001E-02  -9.18546903E-06
  -1.68999992E-02  -9.57016618E-06
  -1.68500002E-02  -9.98520500E-06
  -1.67999994E-02  -1.04650953E-05
  -1.67500004E-02  -1.10186302E-05
  -1.66999996E-02  -1.16241217E-05
  -1.66500006E-02  -1.22384427E-05
  -1.65999997E-02  -1.28160282E-05
  -1.65500008E-02  -1.33294525E-05
  -1.64999999E-02  -1.37821598E-05
  -1.64500009E-02  -1.42073995E-05
  -1.64000001E-02  -1.46535876E-05
  -1.63499992E-02  -1.51623635E-05
  -1.63000003E-02  -1.57492923E-05
  -1.62499994E-02  -1.63960376E-05
  -1.62000004E-02  -1.70578169E-05
  -1.61499996E-02  -1.76830854E-05
  -1.61000006E-02  -1.82367457E-05
  -1.60499997E-02  -1.87163823E-05
  -1.60000008E-02  -1.91540203E-05
  -1.59499999E-02  -1.96022465E-05
  -1.59000009E-02  -2.01106614E-05
  -1.58500001E-02  -2.07032663E-05
  -1.57999992E-02  -2.13670573E-05
  -1.57500003E-02  -2.20571910E-05
  -1.56999994E-02  -2.27168202E-05
  -1.56500004E-02  -2.33028168E-05
  -1.55999996E-02  -2.38057601E-05
  -1.55499997E-02  -2.42549686E-05
  -1.54999997E-02  -2.47060798E-05
  -1.54499998E-02  -2.52163954E-05
  -1.53999999E-02  -2.58190012E-05
  -1.53500000E-02  -2.65073559E-05
  -1.53000001E-02  -2.72376674E-05
  -1.52500002E-02  -2.79482483E-05
  -1.52000003E-02  -2.85874394E-05
  -1.51500003E-02  -2.91375563E-05
  -1.51000004E-02  -2.96238541E-05
  -1.50499996E-02  -3.01042546E-05
  -1.49999997E-02  -3.06440052E-05
  -1.49499997E-02  -3.12865777E-05
  -1.48999998E-02  -3.20339786E-05
  -1.48499999E-02  -3.28454917E-05
  -1.48000000E-02  -3.36558587E-05
  -1.47500001E-02  -3.44049076E-05
  -1.47000002E-02  -3.50655027E-05
  -1.46500003E-02  -3.56570490E-05
  -1.46000003E-02  -3.62379687E-05
  -1.45500004E-02  -3.68804540E-05
  -1.44999996E-02  -3.76384814E-05
  -1.44499997E-02  -3.85235035E-05
  -1.43999998E-02  -3.94990748E-05
  -1.43499998E-02  -4.04970779E-05
  -1.42999999E-02  -4.14486640E-05
  -1.42500000E-02  -4.23161327E-05
  -1.42000001E-02  -4.31112203E-05
  -1.41500002E-02  -4.38912066E-05
  -1.41000003E-02  -4.47344282E-05
  -1.40500003E-02  -4.57058413E-05
  -1.40000004E-02  -4.68279977E-05
  -1.39499996E-02  -4.80708622E-05
  -1.38999997E-02  -4.93652515E-05
  -1.38499998E-02  -5.06344550E-05
  -1.37999998E-02  -5.18295456E-05
  -1.37499999E-02  -5.29527497E-05
  -1.37000000E-02  -5.40581459E-05
  -1.36500001E-02  -5.52286183E-05
  -1.36000002E-02  -5.65394403E-05
  -1.35500003E-02  -5.80247142E-05
  -1.35000004E-02  -5.96619575E-05
  -1.34500004E-02  -6.13820957E-05
  -1.33999996E-02  -6.31007933E-05
  -1.33499997E-02  -6.47571505E-05
  -1.32999998E-02  -6.63424071E-05
  -1.32499998E-02  -6.79053919E-05
  -1.31999999E-02  -6.95319395E-05
  -1.31500000E-02  -7.13074041E-05
  -1.31000001E-02  -7.32785920E-05
  -1.30500002E-02  -7.54326393E-05
  -1.30000003E-02  -7.77029127E-05
  -1.29500004E-02  -7.99990667E-05
  -1.29000004E-02  -8.22484290E-05
  -1.28499996E-02  -8.44299284E-05
  -1.27999997E-02  -8.65851543E-05
  -1.27499998E-02  -8.88011928E-05
  -1.26999998E-02  -9.11724055E-05
  -1.26499999E-02  -9.37582226E-05
  -1.26000000E-02  -9.65565050E-05
  -1.25500001E-02  -9.95043738E-05
  -1.25000002E-02  -1.02506507E-04
  -1.24500003E-02  -1.05478532E-04
  -1.24000004E-02  -1.08386004E-04
  -1.23500004E-02  -1.11261303E-04
  -1.22999996E-02  -1.14190429E-04
  -1.22499997E-02  -1.17275202E-04
  -1.21999998E-02  -1.20588178E-04
  -1.21499998E-02  -1.24140162E-04
  -1.20999999E-02  -1.27874970E-04
  -1.20500000E-02  -1.31694833E-04
  -1.20000001E-02  -1.35505194E-04
  -1.19500002E-02  -1.39258438E-04
  -1.19000003E-02  -1.42976787E-04
  -1.18500004E-02  -1.46743827E-04
  -1.18000004E-02  -1.50668246E-04
  -1.17499996E-02  -1.54835550E-04
  -1.16999997E-02  -1.59269912E-04
  -1.16499998E-02  -1.63922858E-04
  -1.15999999E-02  -1.68695624E-04
  -1.15499999E-02  -1.73483975E-04
  -1.15000000E-02  -1.78225717E-04
  -1.14500001E-02  -1.82931064E-04
  -1.14000002E-02  -1.87678961E-04
  -1.13500003E-02  -1.92582811E-04
  -1.13000004E-02  -1.97740766E-04
  -1.12500004E-02  -2.03191783E-04
  -1.11999996E-02  -2.08898593E-04
  -1.11499997E-02  -2.14764688E-04
  -1.10999998E-02  -2.20678645E-04
  -1.10499999E-02  -2.26566161E-04
  -1.09999999E-02  -2.32425082E-04
  -1.09500000E-02  -2.38328445E-04
  -1.09000001E-02  -2.44393304E-04
  -1.08500002E-02  -2.50729383E-04
  -1.08000003E-02  -2.57390144E-04
  -1.07500004E-02  -2.64349597E-04
  -1.07000005E-02  -2.71514145E-04
  -1.06499996E-02  -2.78765248E-04
  -1.05999997E-02  -2.86014809E-04
  -1.05499998E-02  -2.93246732E-04
  -1.04999999E-02  -3.00525164E-04
  -1.04499999E-02  -3.07968439E-04
  -1.04000000E-02  -3.15697136E-04
  -1.03500001E-02  -3.23780259E-04
  -1.03000002E-02  -3.32205789E-04
  -1.02500003E-02  -3.40887433E-04
  -1.02000004E-02  -3.49704089E-04
  -1.01500005E-02  -3.58556863E-04
  -1.00999996E-02  -3.67415632E-04
  -1.00499997E-02  -3.76335141E-04
  -9.99999978E-03  -3.85433523E-04
  -9.94999986E-03  -3.94840899E-04
  -9.89999995E-03  -4.04641847E-04
  -9.85000003E-03  -4.14839014E-04
  -9.80000012E-03  -4.25352773E-04
  -9.75000020E-03  -4.36058850E-04
  -9.70000029E-03  -4.46847058E-04
  -9.65000037E-03  -4.57671995E-04
  -9.60000046E-03  -4.68577025E-04
  -9.54999961E-03  -4.79677139E-04
  -9.49999969E-03  -4.91108105E-04
  -9.44999978E-03  -5.02968149E-04
  -9.39999986E-03  -5.15273889E-04
  -9.34999995E-03  -5.27954486E-04
  -9.30000003E-03  -5.40886016E-04
  -9.25000012E-03  -5.53949620E-04
  -9.20000020E-03  -5.67087904E-04
  -9.15000029E-03  -5.80334221E-04
  -9.10000037E-03  -5.93800039E-04
  -9.05000046E-03  -6.07627851E-04
  -8.99999961E-03  -6.21929066E-04
  -8.94999970E-03  -6.36736688E-04
  -8.89999978E-03  -6.51991053E-04
  -8.84999987E-03  -6.67570101E-04
  -8.79999995E-03  -6.83348451E-04
  -8.75000004E-03  -6.99254801E-04
  -8.70000012E-03  -7.15308997E-04
  -8.65000021E-03  -7.31615175E-04
  -8.60000029E-03  -7.48317514E-04
  -8.55000038E-03  -7.65538251E-04
  -8.50000046E-03  -7.83323194E-04
  -8.44999962E-03  -8.01621878E-04
  -8.39999970E-03  -8.20313871E-04
  -8.34999979E-03  -8.39267275E-04
  -8.29999987E-03  -8.58399551E-04
  -8.24999996E-03  -8.77717335E-04
  -8.20000004E-03  -8.97318358E-04
  -8.15000013E-03  -9.17351048E-04
  -8.10000021E-03  -9.37947945E-04
  -8.05000030E-03  -9.59168246E-04
  -8.00000038E-03  -9.80976387E-04
  -7.95000046E-03  -1.00325875E-03
  -7.89999962E-03  -1.02587778E-03
  -7.84999970E-03  -1.04874151E-03
  -7.79999979E-03  -1.07184669E-03
  -7.74999987E-03  -1.09528273E-03
  -7.69999996E-03  -1.11919723E-03
  -7.65000004E-03  -1.14373176E-03
  -7.60000013E-03  -1.16895954E-03
  -7.55000021E-03  -1.19485392E-03
  -7.49999983E-03  -1.22130488E-03
  -7.44999992E-03  -1.24817272E-03
  -7.40000000E-03  -1.27535372E-03
  -7.35000009E-03  -1.30283250E-03
  -7.30000017E-03  -1.33069232E-03
  -7.24999979E-03  -1.35908043E-03
  -7.19999988E-03  -1.38814491E-03
  -7.14999996E-03  -1.41796959E-03
  -7.10000005E-03  -1.44853850E-03
  -7.05000013E-03  -1.47974782E-03
  -7.00000022E-03  -1.51145679E-03
  -6.94999984E-03  -1.54355331E-03
  -6.89999992E-03  -1.57601049E-03
  -6.85000001E-03  -1.60890538E-03
  -6.80000009E-03  -1.64238503E-03
  -6.75000018E-03  -1.67660229E-03
  -6.69999979E-03  -1.71165529E-03
  -6.64999988E-03  -1.74754427E-03
  -6.59999996E-03  -1.78417237E-03
  -6.55000005E-03  -1.82139536E-03
  -6.50000013E-03  -1.85909250E-03
  -6.45000022E-03  -1.89722423E-03
  -6.39999984E-03  -1.93586166E-03
  -6.34999992E-03  -1.97514938E-03
  -6.30000001E-03  -2.01524701E-03
  -6.25000009E-03  -2.05626665E-03
  -6.20000018E-03  -2.09821505E-03
  -6.14999980E-03  -2.14100513E-03
  -6.09999988E-03  -2.18449230E-03
  -6.04999997E-03  -2.22854130E-03
  -6.00000005E-03  -2.27309833E-03
  -5.95000014E-03  -2.31821975E-03
  -5.90000022E-03  -2.36405083E-03
  -5.84999984E-03  -2.41076690E-03
  -5.79999993E-03  -2.45848880E-03
  -5.75000001E-03  -2.50723702E-03
  -5.70000010E-03  -2.55692913E-03
  -5.65000018E-03  -2.60741683E-03
  -5.59999980E-03  -2.65855342E-03
  -5.54999989E-03  -2.71027465E-03
  -5.49999997E-03  -2.76263524E-03
  -5.45000006E-03  -2.81577534E-03
  -5.40000014E-03  -2.86987098E-03
  -5.35000023E-03  -2.92506278E-03
  -5.29999984E-03  -2.98138452E-03
  -5.24999993E-03  -3.03875841E-03
  -5.20000001E-03  -3.09703941E-03
  -5.15000010E-03  -3.15607828E-03
  -5.10000018E-03  -3.21579236E-03
  -5.04999980E-03  -3.27621284E-03
  -4.99999989E-03  -3.33747733E-03
  -4.94999997E-03  -3.39976582E-03
  -4.90000006E-03  -3.46322521E-03
  -4.85000014E-03  -3.52790509E-03
  -4.80000023E-03  -3.59374029E-03
  -4.74999985E-03  -3.66057293E-03
  -4.69999993E-03  -3.72824306E-03
  -4.65000002E-03  -3.79666314E-03
  -4.60000010E-03  -3.86585062E-03
  -4.55000019E-03  -3.93593544E-03
  -4.49999981E-03  -4.00710339E-03
  -4.44999989E-03  -4.07951465E-03
  -4.39999998E-03  -4.15322930E-03
  -4.35000006E-03  -4.22819238E-03
  -4.30000015E-03  -4.30425815E-03
  -4.25000023E-03  -4.38125990E-03
  -4.19999985E-03  -4.45909100E-03
  -4.14999994E-03  -4.53775888E-03
  -4.10000002E-03  -4.61737905E-03
  -4.05000011E-03  -4.69813123E-03
  -4.00000019E-03  -4.78018448E-03
  -3.94999981E-03  -4.86361887E-03
  -3.89999989E-03  -4.94839344E-03
  -3.84999998E-03  -5.03434986E-03
  -3.80000006E-03  -5.12130978E-03
  -3.74999992E-03  -5.20915398E-03
  -3.70000000E-03  -5.29786060E-03
  -3.65000009E-03  -5.38753252E-03
  -3.59999994E-03  -5.47835976E-03
  -3.55000002E-03  -5.57052484E-03
  -3.50000011E-03  -5.66412462E-03
  -3.44999996E-03  -5.75913256E-03
  -3.40000005E-03  -5.85540757E-03
  -3.34999990E-03  -5.95274568E-03
  -3.29999998E-03  -6.05098670E-03
  -3.25000007E-03  -6.15010131E-03
  -3.19999992E-03  -6.25018496E-03
  -3.15000000E-03  -6.35143649E-03
  -3.10000009E-03  -6.45407476E-03
  -3.04999994E-03  -6.55820174E-03
  -3.00000003E-03  -6.66379137E-03
  -2.95000011E-03  -6.77069416E-03
  -2.89999996E-03  -6.87868195E-03
  -2.85000005E-03  -6.98759453E-03
  -2.79999990E-03  -7.09737884E-03
  -2.74999999E-03  -7.20811216E-03
  -2.70000007E-03  -7.31999613E-03
  -2.64999992E-03  -7.43324822E-03
  -2.60000001E-03  -7.54798902E-03
  -2.55000009E-03  -7.66420225E-03
  -2.49999994E-03  -7.78175192E-03
  -2.45000003E-03  -7.90043361E-03
  -2.40000011E-03  -8.02004151E-03
  -2.34999997E-03  -8.14047363E-03
  -2.30000005E-03  -8.26178864E-03
  -2.24999990E-03  -8.38417467E-03
  -2.19999999E-03  -8.50786362E-03
  -2.15000007E-03  -8.63302778E-03
  -2.09999993E-03  -8.75968486E-03
  -2.05000001E-03  -8.88769329E-03
  -2.00000009E-03  -9.01681650E-03
  -1.94999995E-03  -9.14683100E-03
  -1.90000003E-03  -9.27761197E-03
  -1.85000000E-03  -9.40918457E-03
  -1.79999997E-03  -9.54175740E-03
  -1.75000005E-03  -9.67559125E-03
  -1.70000002E-03  -9.81084723E-03
  -1.64999999E-03  -9.94754676E-03
  -1.59999996E-03  -1.00855473E-02
  -1.55000004E-03  -1.02245845E-02
  -1.50000001E-03  -1.03644161E-02
  -1.44999998E-03  -1.05049275E-02
  -1.39999995E-03  -1.06461439E-02
  -1.35000004E-03  -1.07882507E-02
  -1.30000000E-03  -1.09314919E-02
  -1.24999997E-03  -1.10760322E-02
  -1.20000006E-03  -1.12219052E-02
  -1.15000003E-03  -1.13689750E-02
  -1.09999999E-03  -1.15169827E-02
  -1.04999996E-03  -1.16656879E-02
  -1.00000005E-03  -1.18149230E-02
  -9.50000016E-04  -1.19647048E-02
  -8.99999985E-04  -1.21152345E-02
  -8.50000011E-04  -1.22667262E-02
  -7.99999980E-04  -1.24193486E-02
  -7.50000007E-04  -1.25731491E-02
  -6.99999975E-04  -1.27280159E-02
  -6.50000002E-04  -1.28836976E-02
  -6.00000028E-04  -1.30399177E-02
  -5.49999997E-04  -1.31964954E-02
  -5.00000024E-04  -1.33534297E-02
  -4.49999992E-04  -1.35108745E-02
  -3.99999990E-04  -1.36690335E-02
  -3.49999988E-04  -1.38280969E-02
  -3.00000014E-04  -1.39881419E-02
  -2.50000012E-04  -1.41490949E-02
  -1.99999995E-04  -1.43107362E-02
  -1.50000007E-04  -1.44727482E-02
  -9.99999975E-05  -1.46348504E-02
  -4.99999987E-05  -1.47969471E-02
   0.00000000      -1.49591416E-02
   4.99999987E-05  -1.51216807E-02
   9.99999975E-05  -1.52848363E-02
   1.50000007E-04  -1.54487481E-02
   1.99999995E-04  -1.56133501E-02
   2.50000012E-04  -1.57783814E-02
   3.00000014E-04  -1.59434993E-02
   3.49999988E-04  -1.61084197E-02
   3.99999990E-04  -1.62730180E-02
   4.49999992E-04  -1.64373964E-02
   5.00000024E-04  -1.66017637E-02
   5.49999997E-04  -1.67663861E-02
   6.00000028E-04  -1.69314221E-02
   6.50000002E-04  -1.70968026E-02
   6.99999975E-04  -1.72623061E-02
   7.50000007E-04  -1.74275879E-02
   7.99999980E-04  -1.75922960E-02
   8.50000011E-04  -1.77562684E-02
   8.99999985E-04  -1.79195367E-02
   9.50000016E-04  -1.80822648E-02
   1.00000005E-03  -1.82447340E-02
   1.04999996E-03  -1.84071567E-02
   1.09999999E-03  -1.85694899E-02
   1.15000003E-03  -1.87315345E-02
   1.20000006E-03  -1.88929588E-02
   1.24999997E-03  -1.90533996E-02
   1.30000000E-03  -1.92126501E-02
   1.35000004E-03  -1.93706471E-02
   1.39999995E-03  -1.95275340E-02
   1.44999998E-03  -1.96836069E-02
   1.50000001E-03  -1.98390838E-02
   1.55000004E-03  -1.99940447E-02
   1.59999996E-03  -2.01482791E-02
   1.64999999E-03  -2.03013569E-02
   1.70000002E-03  -2.04528999E-02
   1.75000005E-03  -2.06026342E-02
   1.79999997E-03  -2.07504444E-02
   1.85000000E-03  -2.08964683E-02
   1.90000003E-03  -2.10410599E-02
   1.94999995E-03  -2.11845096E-02
   2.00000009E-03  -2.13268269E-02
   2.05000001E-03  -2.14677863E-02
   2.09999993E-03  -2.16070153E-02
   2.15000007E-03  -2.17440985E-02
   2.19999999E-03  -2.18786579E-02
   2.24999990E-03  -2.20105704E-02
   2.30000005E-03  -2.21400373E-02
   2.34999997E-03  -2.22673398E-02
   2.40000011E-03  -2.23927144E-02
   2.45000003E-03  -2.25162040E-02
   2.49999994E-03  -2.26376485E-02
   2.55000009E-03  -2.27566473E-02
   2.60000001E-03  -2.28727050E-02
   2.64999992E-03  -2.29855161E-02
   2.70000007E-03  -2.30949987E-02
   2.74999999E-03  -2.32012849E-02
   2.79999990E-03  -2.33046152E-02