  -3.99999991E-02   0.00000000    
  -3.99499983E-02   0.00000000    
  -3.99000011E-02   0.00000000    
  -3.98500003E-02   0.00000000    
  -3.97999994E-02   0.00000000    
  -3.97499986E-02  -1.28740577E-23
  -3.97000015E-02  -6.61354603E-23
  -3.96500006E-02   1.46655269E-23
  -3.95999998E-02   1.52903549E-21
  -3.95499989E-02   9.05127603E-21
  -3.95000018E-02   3.36189595E-20
  -3.94500010E-02   9.52280177E-20
  -3.94000001E-02   2.21365061E-19
  -3.93499993E-02   4.38441552E-19
  -3.92999984E-02   7.56172740E-19
  -3.92500013E-02   1.15069085E-18
  -3.92000005E-02   1.55739312E-18
  -3.91499996E-02   1.88458854E-18
  -3.90999988E-02   2.05072260E-18
  -3.90500017E-02   2.03286336E-18
  -3.90000008E-02   1.89962917E-18
  -3.89500000E-02   1.79843169E-18
  -3.88999991E-02   1.88222839E-18
  -3.88499983E-02   2.19259379E-18
  -3.88000011E-02   2.54965313E-18
  -3.87500003E-02   2.51446156E-18
  -3.86999995E-02   1.46963597E-18
  -3.86499986E-02  -1.19027764E-18
  -3.86000015E-02  -5.83509375E-18
  -3.85500006E-02  -1.24640940E-17
  -3.84999998E-02  -2.07717393E-17
  -3.84499989E-02  -3.04470559E-17
  -3.84000018E-02  -4.16160753E-17
  -3.83500010E-02  -5.52252081E-17
  -3.83000001E-02  -7.31322953E-17
  -3.82499993E-02  -9.77629943E-17
  -3.81999984E-02  -1.31385874E-16
  -3.81500013E-02  -1.75277203E-16
  -3.81000005E-02  -2.29172096E-16
  -3.80499996E-02  -2.91343414E-16
  -3.79999988E-02  -3.59405397E-16
  -3.79500017E-02  -4.31597168E-16
  -3.79000008E-02  -5.08014892E-16
  -3.78500000E-02  -5.91188551E-16
  -3.77999991E-02  -6.85610173E-16
  -3.77499983E-02  -7.96263592E-16
  -3.77000012E-02  -9.26695655E-16
  -3.76500003E-02  -1.07747048E-15
  -3.75999995E-02  -1.24577201E-15
  -3.75499986E-02  -1.42645695E-15
  -3.75000015E-02  -1.61418306E-15
  -3.74500006E-02  -1.80567286E-15
  -3.73999998E-02  -2.00100501E-15
  -3.73499990E-02  -2.20318013E-15
  -3.73000018E-02  -2.41595523E-15
  -3.72500010E-02  -2.64074782E-15
  -3.72000001E-02  -2.87391757E-15
  -3.71499993E-02  -3.10566896E-15
  -3.70999984E-02  -3.32119967E-15
  -3.70500013E-02  -3.50377910E-15
  -3.70000005E-02  -3.63861764E-15
  -3.69499996E-02  -3.71601994E-15
  -3.68999988E-02  -3.73261755E-15
  -3.68500017E-02  -3.69025828E-15
  -3.68000008E-02  -3.59303795E-15
  -3.67500000E-02  -3.44355443E-15
  -3.66999991E-02  -3.23961917E-15
  -3.66499983E-02  -2.97230616E-15
  -3.66000012E-02  -2.62574771E-15
  -3.65500003E-02  -2.17861512E-15
  -3.64999995E-02  -1.60695449E-15
  -3.64499986E-02  -8.87839077E-16
  -3.64000015E-02  -3.08592983E-18
  -3.63500006E-02   1.05798375E-15
  -3.62999998E-02   2.29789578E-15
  -3.62499990E-02   3.71336491E-15
  -3.62000018E-02   5.30053652E-15
  -3.61500010E-02   7.06152564E-15
  -3.61000001E-02   9.00915847E-15
  -3.60499993E-02   1.11663481E-14
  -3.59999985E-02   1.35579363E-14
  -3.59500013E-02   1.61961322E-14
  -3.59000005E-02   1.90647736E-14
  -3.58499996E-02   2.21104144E-14
  -3.57999988E-02   2.52476076E-14
  -3.57500017E-02   2.83807808E-14
  -3.57000008E-02   3.14372484E-14
  -3.56500000E-02   3.43981977E-14
  -3.55999991E-02   3.73116184E-14
  -3.55499983E-02   4.02754917E-14
  -3.55000012E-02   4.33914345E-14
  -3.54500003E-02   4.67037772E-14
  -3.53999995E-02   5.01503407E-14
  -3.53499986E-02   5.35514694E-14
  -3.53000015E-02   5.66511695E-14
  -3.52500007E-02   5.92011181E-14
  -3.51999998E-02   6.10549615E-14
  -3.51499990E-02   6.22283190E-14
  -3.51000018E-02   6.28880831E-14
  -3.50500010E-02   6.32624175E-14
  -3.50000001E-02   6.35014028E-14
  -3.49499993E-02   6.35486469E-14
  -3.48999985E-02   6.30905714E-14
  -3.48500013E-02   6.16242761E-14
  -3.48000005E-02   5.86334163E-14
  -3.47499996E-02   5.38059045E-14
  -3.46999988E-02   4.71942262E-14
  -3.46500017E-02   3.92299786E-14
  -3.46000008E-02   3.05604066E-14
  -3.45500000E-02   2.17572474E-14
  -3.44999991E-02   1.30192064E-14
  -3.44499983E-02   4.01257507E-15
  -3.44000012E-02  -6.05022293E-15
  -3.43500003E-02  -1.80954139E-14
  -3.42999995E-02  -3.27536155E-14
  -3.42499986E-02  -5.00007953E-14
  -3.42000015E-02  -6.90612796E-14
  -3.41500007E-02  -8.86591487E-14
  -3.40999998E-02  -1.07546167E-13
  -3.40499990E-02  -1.25087630E-13
  -3.40000018E-02  -1.41626836E-13
  -3.39500010E-02  -1.58416398E-13
  -3.39000002E-02  -1.77085831E-13
  -3.38499993E-02  -1.98837556E-13
  -3.37999985E-02  -2.23723099E-13
  -3.37500013E-02  -2.50362529E-13
  -3.37000005E-02  -2.76304858E-13
  -3.36499996E-02  -2.98943840E-13
  -3.35999988E-02  -3.16623138E-13
  -3.35500017E-02  -3.29425506E-13
  -3.35000008E-02  -3.39226667E-13
  -3.34500000E-02  -3.48896259E-13
  -3.33999991E-02  -3.60924832E-13
  -3.33499983E-02  -3.76066853E-13
  -3.33000012E-02  -3.92655011E-13
  -3.32500003E-02  -4.06997596E-13
  -3.31999995E-02  -4.14798512E-13
  -3.31499986E-02  -4.13039530E-13
  -3.31000015E-02  -4.01475917E-13
  -3.30500007E-02  -3.82981461E-13
  -3.29999998E-02  -3.62443962E-13
  -3.29499990E-02  -3.44571892E-13
  -3.29000019E-02  -3.31538480E-13
  -3.28500010E-02  -3.21570786E-13
  -3.28000002E-02  -3.09264496E-13
  -3.27499993E-02  -2.87665670E-13
  -3.26999985E-02  -2.51322509E-13
  -3.26500013E-02  -1.98959610E-13
  -3.26000005E-02  -1.34465816E-13
  -3.25499997E-02  -6.55524829E-14
  -3.24999988E-02  -4.83383756E-16
  -3.24500017E-02   5.57619272E-14
  -3.24000008E-02   1.04120563E-13
  -3.23500000E-02   1.51498849E-13
  -3.22999991E-02   2.07960670E-13
  -3.22499983E-02   2.82103713E-13
  -3.22000012E-02   3.76644787E-13
  -3.21500003E-02   4.86335256E-13
  -3.20999995E-02   5.99429686E-13
  -3.20499986E-02   7.02360045E-13
  -3.20000015E-02   7.85713129E-13
  -3.19500007E-02   8.48806865E-13
  -3.18999998E-02   9.00568574E-13
  -3.18499990E-02   9.55953957E-13
  -3.18000019E-02   1.02918357E-12
  -3.17500010E-02   1.12669563E-12
  -3.17000002E-02   1.24311314E-12
  -3.16499993E-02   1.36239414E-12
  -3.15999985E-02   1.46408200E-12
  -3.15500014E-02   1.53215971E-12
  -3.15000005E-02   1.56256789E-12
  -3.14499997E-02   1.56573409E-12
  -3.13999988E-02   1.56250132E-12
  -3.13500017E-02   1.57481818E-12
  -3.13000008E-02   1.61513262E-12
  -3.12500000E-02   1.67937517E-12
  -3.11999992E-02   1.74713141E-12
  -3.11500002E-02   1.78952144E-12
  -3.10999993E-02   1.78172245E-12
  -3.10500003E-02   1.71463744E-12
  -3.09999995E-02   1.60017377E-12
  -3.09500005E-02   1.46715485E-12
  -3.08999997E-02   1.34903525E-12
  -3.08500007E-02   1.26853432E-12
  -3.07999998E-02   1.22613193E-12
  -3.07500008E-02   1.19809891E-12
  -3.07000000E-02   1.14570267E-12
  -3.06499992E-02   1.03211981E-12
  -3.06000002E-02   8.39728189E-13
  -3.05499993E-02   5.79729732E-13
  -3.05000003E-02   2.89054262E-13
  -3.04499995E-02   1.50682553E-14
  -3.04000005E-02  -2.05645383E-13
  -3.03499997E-02  -3.64953185E-13
  -3.03000007E-02  -4.88777801E-13
  -3.02499998E-02  -6.27166884E-13
  -3.02000009E-02  -8.32346074E-13
  -3.01500000E-02  -1.13413066E-12
  -3.00999992E-02  -1.52395208E-12
  -3.00500002E-02  -1.95552385E-12
  -2.99999993E-02  -2.36297635E-12
  -2.99500003E-02  -2.68922580E-12
  -2.98999995E-02  -2.91209786E-12
  -2.98500005E-02  -3.05595002E-12
  -2.97999997E-02  -3.18245690E-12
  -2.97500007E-02  -3.36349438E-12
  -2.96999998E-02  -3.64754711E-12
  -2.96500009E-02  -4.03480591E-12
  -2.96000000E-02  -4.47304910E-12
  -2.95499992E-02  -4.87753371E-12
  -2.95000002E-02  -5.16718916E-12
  -2.94499993E-02  -5.30137696E-12
  -2.94000003E-02  -5.30024852E-12
  -2.93499995E-02  -5.23827379E-12
  -2.93000005E-02  -5.21230585E-12
  -2.92499997E-02  -5.29740227E-12
  -2.92000007E-02  -5.51006246E-12
  -2.91499998E-02  -5.79629920E-12
  -2.91000009E-02  -6.05149871E-12
  -2.90500000E-02  -6.16477312E-12
  -2.89999992E-02  -6.06877699E-12
  -2.89500002E-02  -5.77235005E-12
  -2.88999993E-02  -5.36000151E-12
  -2.88500004E-02  -4.95661021E-12
  -2.87999995E-02  -4.67168188E-12
  -2.87500005E-02  -4.54769295E-12
  -2.86999997E-02  -4.53653087E-12
  -2.86500007E-02  -4.51641632E-12
  -2.85999998E-02  -4.34371593E-12
  -2.85500009E-02  -3.91771901E-12
  -2.85000000E-02  -3.22928967E-12
  -2.84499992E-02  -2.37018803E-12
  -2.84000002E-02  -1.49668537E-12
  -2.83499993E-02  -7.61770963E-13
  -2.83000004E-02  -2.45404310E-13
  -2.82499995E-02   8.53044238E-14
  -2.82000005E-02   3.66195328E-13
  -2.81499997E-02   7.78438457E-13
  -2.81000007E-02   1.46715745E-12
  -2.80499998E-02   2.47234416E-12
  -2.80000009E-02   3.70427170E-12
  -2.79500000E-02   4.97682798E-12
  -2.78999992E-02   6.08634931E-12
  -2.78500002E-02   6.90211169E-12
  -2.77999993E-02   7.42769301E-12
  -2.77500004E-02   7.80378019E-12
  -2.76999995E-02   8.24837421E-12
  -2.76500005E-02   8.95873740E-12
  -2.75999997E-02   1.00180706E-11
  -2.75500007E-02   1.13497215E-11
  -2.74999999E-02   1.27420340E-11
  -2.74500009E-02   1.39357735E-11
  -2.74000000E-02   1.47371941E-11
  -2.73499992E-02   1.51064317E-11
  -2.73000002E-02   1.51798660E-11
  -2.72499993E-02   1.52134295E-11
  -2.72000004E-02   1.54690861E-11
  -2.71499995E-02   1.60936871E-11
  -2.71000005E-02   1.70449106E-11
  -2.70499997E-02   1.80999712E-11
  -2.70000007E-02   1.89467192E-11
  -2.69499999E-02   1.93192077E-11
  -2.69000009E-02   1.91180804E-11
  -2.68500000E-02   1.84604814E-11
  -2.67999992E-02   1.76338683E-11
  -2.67500002E-02   1.69707321E-11
  -2.66999993E-02   1.66977751E-11
  -2.66500004E-02   1.68268958E-11
  -2.65999995E-02   1.71391668E-11
  -2.65500005E-02   1.72728689E-11
  -2.64999997E-02   1.68799488E-11
  -2.64500007E-02   1.57828819E-11
  -2.63999999E-02   1.40609269E-11
  -2.63500009E-02   1.20240085E-11
  -2.63000000E-02   1.00815831E-11
  -2.62499992E-02   8.56166353E-12
  -2.62000002E-02   7.55987373E-12
  -2.61499994E-02   6.88789911E-12
  -2.61000004E-02   6.14845674E-12
  -2.60499995E-02   4.90777124E-12
  -2.60000005E-02   2.89142668E-12
  -2.59499997E-02   1.16072841E-13
  -2.59000007E-02  -3.10485361E-12
  -2.58499999E-02  -6.28870610E-12
  -2.58000009E-02  -8.99194174E-12
  -2.57500000E-02  -1.10082568E-11
  -2.56999992E-02  -1.24668383E-11
  -2.56500002E-02  -1.37827926E-11
  -2.55999994E-02  -1.54765974E-11
  -2.55500004E-02  -1.79391363E-11
  -2.54999995E-02  -2.12460362E-11
  -2.54500005E-02  -2.51066858E-11
  -2.53999997E-02  -2.89756812E-11
  -2.53500007E-02  -3.22823816E-11
  -2.52999999E-02  -3.46795752E-11
  -2.52500009E-02  -3.62001609E-11
  -2.52000000E-02  -3.72482462E-11
  -2.51499992E-02  -3.84228968E-11
  -2.51000002E-02  -4.02479820E-11
  -2.50499994E-02  -4.29262945E-11
  -2.50000004E-02  -4.62292912E-11
  -2.49499995E-02  -4.95767524E-11
  -2.49000005E-02  -5.22771895E-11
  -2.48499997E-02  -5.38266272E-11
  -2.48000007E-02  -5.41337634E-11
  -2.47499999E-02  -5.35678828E-11
  -2.47000009E-02  -5.28020926E-11
  -2.46500000E-02  -5.25152387E-11
  -2.45999992E-02  -5.30814004E-11
  -2.45500002E-02  -5.43858222E-11
  -2.44999994E-02  -5.58540367E-11
  -2.44500004E-02  -5.66883034E-11
  -2.43999995E-02  -5.62123681E-11
  -2.43500005E-02  -5.41736378E-11
  -2.42999997E-02  -5.08661377E-11
  -2.42500007E-02  -4.70131677E-11
  -2.41999999E-02  -4.34544761E-11
  -2.41500009E-02  -4.07715944E-11
  -2.41000000E-02  -3.90172269E-11
  -2.40499992E-02  -3.76732985E-11
  -2.40000002E-02  -3.58640201E-11
  -2.39499994E-02  -3.27369486E-11
  -2.39000004E-02  -2.78470389E-11
  -2.38499995E-02  -2.13719511E-11
  -2.38000005E-02  -1.40568208E-11
  -2.37499997E-02  -6.90453857E-12
  -2.37000007E-02  -7.41855633E-13
  -2.36499999E-02   4.14857775E-12
  -2.36000009E-02   8.16360174E-12
  -2.35500000E-02   1.22144491E-11
  -2.34999992E-02   1.73254796E-11
  -2.34500002E-02   2.41687365E-11
  -2.33999994E-02   3.27404423E-11
  -2.33500004E-02   4.23285330E-11
  -2.32999995E-02   5.17949121E-11
  -2.32500006E-02   6.00560504E-11
  -2.31999997E-02   6.65532698E-11
  -2.31500007E-02   7.15021445E-11
  -2.30999999E-02   7.58026142E-11
  -2.30500009E-02   8.06396269E-11
  -2.30000000E-02   8.69431541E-11
  -2.29499992E-02   9.49448367E-11
  -2.29000002E-02   1.04032463E-10
  -2.28499994E-02   1.12976656E-10
  -2.28000004E-02   1.20439922E-10
  -2.27499995E-02   1.25549363E-10
  -2.27000006E-02   1.28279179E-10
  -2.26499997E-02   1.29466271E-10
  -2.26000007E-02   1.30441144E-10
  -2.25499999E-02   1.32427458E-10
  -2.25000009E-02   1.35971970E-10
  -2.24500000E-02   1.40660567E-10
  -2.23999992E-02   1.45256140E-10
  -2.23500002E-02   1.48209431E-10
  -2.22999994E-02   1.48325574E-10
  -2.22500004E-02   1.45293305E-10
  -2.21999995E-02   1.39836184E-10
  -2.21500006E-02   1.33407035E-10
  -2.20999997E-02   1.27549082E-10
  -2.20500007E-02   1.23199131E-10
  -2.19999999E-02   1.20243232E-10
  -2.19500009E-02   1.17530374E-10
  -2.19000001E-02   1.13351800E-10
  -2.18499992E-02   1.06185206E-10
  -2.18000002E-02   9.53790449E-11
  -2.17499994E-02   8.14694354E-11
  -2.17000004E-02   6.59777996E-11
  -2.16499995E-02   5.07649860E-11
  -2.16000006E-02   3.72183534E-11
  -2.15499997E-02   2.56304405E-11
  -2.15000007E-02   1.50525738E-11
  -2.14499999E-02   3.70216314E-12
  -2.14000009E-02  -1.02429974E-11
  -2.13500001E-02  -2.78077856E-11
  -2.12999992E-02  -4.87132210E-11
  -2.12500002E-02  -7.14359405E-11
  -2.11999994E-02  -9.38226163E-11
  -2.11500004E-02  -1.13999858E-10
  -2.10999995E-02  -1.31180719E-10
  -2.10500006E-02  -1.46004625E-10
  -2.09999997E-02  -1.60246386E-10
  -2.09500007E-02  -1.76007320E-10
  -2.08999999E-02  -1.94736893E-10
  -2.08500009E-02  -2.16517720E-10
  -2.08000001E-02  -2.39940817E-10
  -2.07499992E-02  -2.62641991E-10
  -2.07000002E-02  -2.82277646E-10
  -2.06499994E-02  -2.97513875E-10
  -2.06000004E-02  -3.08588349E-10
  -2.05499995E-02  -3.17182142E-10
  -2.05000006E-02  -3.25641708E-10
  -2.04499997E-02  -3.35883210E-10
  -2.04000007E-02  -3.48461121E-10
  -2.03499999E-02  -3.62222474E-10
  -2.03000009E-02  -3.74716258E-10
  -2.02500001E-02  -3.83194115E-10
  -2.01999992E-02  -3.85770055E-10
  -2.01500002E-02  -3.82224585E-10
  -2.00999994E-02  -3.74085984E-10
  -2.00500004E-02  -3.63935021E-10
  -1.99999996E-02  -3.54225621E-10
  -1.99500006E-02  -3.46138340E-10
  -1.98999997E-02  -3.38979317E-10
  -1.98500007E-02  -3.30407285E-10
  -1.97999999E-02  -3.17405990E-10
  -1.97500009E-02  -2.97585234E-10
  -1.97000001E-02  -2.70236444E-10
  -1.96499992E-02  -2.36665409E-10
  -1.96000002E-02  -1.99637806E-10
  -1.95499994E-02  -1.62165698E-10
  -1.95000004E-02  -1.26163247E-10
  -1.94499996E-02  -9.15703902E-11
  -1.94000006E-02  -5.63465767E-11
  -1.93499997E-02  -1.73571834E-11
  -1.93000007E-02   2.82240863E-11
  -1.92499999E-02   8.16121129E-11
  -1.92000009E-02   1.41790718E-10
  -1.91500001E-02   2.05867504E-10
  -1.90999992E-02   2.70264700E-10
  -1.90500002E-02   3.32230743E-10
  -1.89999994E-02   3.91003868E-10
  -1.89500004E-02   4.48100224E-10
  -1.88999996E-02   5.06580000E-10
  -1.88500006E-02   5.69599368E-10
  -1.87999997E-02   6.38880782E-10
  -1.87500007E-02   7.13784032E-10
  -1.86999999E-02   7.91404497E-10
  -1.86500009E-02   8.67675598E-10
  -1.86000001E-02   9.39001210E-10
  -1.85499992E-02   1.00370023E-09
  -1.85000002E-02   1.06261344E-09
  -1.84499994E-02   1.11858611E-09
  -1.84000004E-02   1.17503662E-09
  -1.83499996E-02   1.23423372E-09
  -1.83000006E-02   1.29604605E-09
  -1.82499997E-02   1.35773137E-09
  -1.82000007E-02   1.41487966E-09
  -1.81499999E-02   1.46310741E-09
  -1.81000009E-02   1.49976320E-09
  -1.80500001E-02   1.52488167E-09
  -1.79999992E-02   1.54094981E-09
  -1.79500002E-02   1.55156687E-09
  -1.78999994E-02   1.55958235E-09
  -1.78500004E-02   1.56553126E-09
  -1.77999996E-02   1.56707303E-09
  -1.77500006E-02   1.55970092E-09
  -1.76999997E-02   1.53842705E-09
  -1.76500008E-02   1.49970658E-09
  -1.75999999E-02   1.44274914E-09
  -1.75500009E-02   1.36961920E-09
  -1.75000001E-02   1.28406685E-09
  -1.74499992E-02   1.18958698E-09
  -1.74000002E-02   1.08756482E-09
  -1.73499994E-02   9.76333236E-10
  -1.73000004E-02   8.51579085E-10
  -1.72499996E-02   7.07937486E-10
  -1.72000006E-02   5.41079015E-10
  -1.71499997E-02   3.49370088E-10
  -1.71000008E-02   1.34357622E-10
  -1.70499999E-02  -1.00151783E-10
  -1.70000009E-02  -3.50028201E-10
  -1.69500001E-02  -6.12919160E-10
  -1.68999992E-02  -8.89580132E-10
  -1.68500002E-02  -1.18383059E-09
  -1.67999994E-02  -1.50113488E-09
  -1.67500004E-02  -1.84642279E-09
  -1.66999996E-02  -2.22210916E-09
  -1.66500006E-02  -2.62719935E-09
  -1.65999997E-02  -3.05789061E-09
  -1.65500008E-02  -3.50942386E-09
  -1.64999999E-02  -3.97837407E-09
  -1.64500009E-02  -4.46436488E-09
  -1.64000001E-02  -4.97043784E-09
  -1.63499992E-02  -5.50189405E-09
  -1.63000003E-02  -6.06410566E-09
  -1.62499994E-02  -6.66026034E-09
  -1.62000004E-02  -7.29004235E-09
  -1.61499996E-02  -7.94984523E-09
  -1.61000006E-02  -8.63445049E-09
  -1.60499997E-02  -9.33942346E-09
  -1.60000008E-02  -1.00631850E-08
  -1.59499999E-02  -1.08078178E-08
  -1.59000009E-02  -1.15782539E-08
  -1.58500001E-02  -1.23801644E-08
  -1.57999992E-02  -1.32174929E-08
  -1.57500003E-02  -1.40907321E-08
  -1.56999994E-02  -1.49966919E-08
  -1.56500004E-02  -1.59299223E-08
  -1.55999996E-02  -1.68851280E-08
  -1.55499997E-02  -1.78595574E-08
  -1.54999997E-02  -1.88542622E-08
  -1.54499998E-02  -1.98736814E-08
  -1.53999999E-02  -2.09237268E-08
  -1.53500000E-02  -2.20091714E-08
  -1.53000001E-02  -2.31315465E-08
  -1.52500002E-02  -2.42884486E-08
  -1.52000003E-02  -2.54746002E-08
  -1.51500003E-02  -2.66841980E-08
  -1.51000004E-02  -2.79135346E-08
  -1.50499996E-02  -2.91626918E-08
  -1.49999997E-02  -3.04356043E-08
  -1.49499997E-02  -3.17383844E-08
  -1.48999998E-02  -3.30766845E-08
  -1.48499999E-02  -3.44532616E-08
  -1.48000000E-02  -3.58668153E-08
  -1.47500001E-02  -3.73126170E-08
  -1.47000002E-02  -3.87847017E-08
  -1.46500003E-02  -4.02786462E-08
  -1.46000003E-02  -4.17936832E-08
  -1.45500004E-02  -4.33332445E-08
  -1.44999996E-02  -4.49036364E-08
  -1.44499997E-02  -4.65114738E-08
  -1.43999998E-02  -4.81609632E-08
  -1.43499998E-02  -4.98522752E-08
  -1.42999999E-02  -5.15817078E-08
  -1.42500000E-02  -5.33436122E-08
  -1.42000001E-02  -5.51332242E-08
  -1.41500002E-02  -5.69491476E-08
  -1.41000003E-02  -5.87943738E-08
  -1.40500003E-02  -6.06754043E-08
  -1.40000004E-02  -6.25998027E-08
  -1.39499996E-02  -6.45733493E-08
  -1.38999997E-02  -6.65979201E-08
  -1.38499998E-02  -6.86711843E-08
  -1.37999998E-02  -7.07881682E-08
  -1.37499999E-02  -7.29440615E-08
  -1.37000000E-02  -7.51369811E-08
  -1.36500001E-02  -7.73694850E-08
  -1.36000002E-02  -7.96481743E-08
  -1.35500003E-02  -8.19814971E-08
  -1.35000004E-02  -8.43767936E-08
  -1.34500004E-02  -8.68378223E-08
  -1.33999996E-02  -8.93638941E-08
  -1.33499997E-02  -9.19511223E-08
  -1.32999998E-02  -9.45949736E-08
  -1.32499998E-02  -9.72932739E-08
  -1.31999999E-02  -1.00048226E-07
  -1.31500000E-02  -1.02866395E-07
  -1.31000001E-02  -1.05756953E-07
  -1.30500002E-02  -1.08728685E-07
  -1.30000003E-02  -1.11787173E-07
  -1.29500004E-02  -1.14933535E-07
  -1.29000004E-02  -1.18165090E-07
  -1.28499996E-02  -1.21477768E-07
  -1.27999997E-02  -1.24869231E-07
  -1.27499998E-02  -1.28341199E-07
  -1.26999998E-02  -1.31900052E-07
  -1.26499999E-02  -1.35555467E-07
  -1.26000000E-02  -1.39317436E-07
  -1.25500001E-02  -1.43193361E-07
  -1.25000002E-02  -1.47186199E-07
  -1.24500003E-02  -1.51294671E-07
  -1.24000004E-02  -1.55515437E-07
  -1.23500004E-02  -1.59846124E-07
  -1.22999996E-02  -1.64288053E-07
  -1.22499997E-02  -1.68847336E-07
  -1.21999998E-02  -1.73533849E-07
  -1.21499998E-02  -1.78358619E-07
  -1.20999999E-02  -1.83330656E-07
  -1.20500000E-02  -1.88454763E-07
  -1.20000001E-02  -1.93731211E-07
  -1.19500002E-02  -1.99157498E-07
  -1.19000003E-02  -2.04731350E-07
  -1.18500004E-02  -2.10453663E-07
  -1.18000004E-02  -2.16330079E-07
  -1.17499996E-02  -2.22370446E-07
  -1.16999997E-02  -2.28586529E-07
  -1.16499998E-02  -2.34988704E-07
  -1.15999999E-02  -2.41583479E-07
  -1.15499999E-02  -2.48372800E-07
  -1.15000000E-02  -2.55355104E-07
  -1.14500001E-02  -2.62528488E-07
  -1.14000002E-02  -2.69893661E-07
  -1.13500003E-02  -2.77455939E-07
  -1.13000004E-02  -2.85225127E-07
  -1.12500004E-02  -2.93213702E-07
  -1.11999996E-02  -3.01433374E-07
  -1.11499997E-02  -3.09892613E-07
  -1.10999998E-02  -3.18594942E-07
  -1.10499999E-02  -3.27540249E-07
  -1.09999999E-02  -3.36727140E-07
  -1.09500000E-02  -3.46156241E-07
  -1.09000001E-02  -3.55832498E-07
  -1.08500002E-02  -3.65765601E-07
  -1.08000003E-02  -3.75968455E-07
  -1.07500004E-02  -3.86454019E-07
  -1.07000005E-02  -3.97232412E-07
  -1.06499996E-02  -4.08309234E-07
  -1.05999997E-02  -4.19685989E-07
  -1.05499998E-02  -4.31362395E-07
  -1.04999999E-02  -4.43339559E-07
  -1.04499999E-02  -4.55622512E-07
  -1.04000000E-02  -4.68221288E-07
  -1.03500001E-02  -4.81149470E-07
  -1.03000002E-02  -4.94421556E-07
  -1.02500003E-02  -5.08049595E-07
  -1.02000004E-02  -5.22041546E-07
  -1.01500005E-02  -5.36400876E-07
  -1.00999996E-02  -5.51128721E-07
  -1.00499997E-02  -5.66226959E-07
  -9.99999978E-03  -5.81700988E-07
  -9.94999986E-03  -5.97561097E-07
  -9.89999995E-03  -6.13821555E-07
  -9.85000003E-03  -6.30498334E-07
  -9.80000012E-03  -6.47605589E-07
  -9.75000020E-03  -6.65153607E-07
  -9.70000029E-03  -6.83148187E-07
  -9.65000037E-03  -7.01592455E-07
  -9.60000046E-03  -7.20489425E-07
  -9.54999961E-03  -7.39845518E-07
  -9.49999969E-03  -7.59671877E-07
  -9.44999978E-03  -7.79983964E-07
  -9.39999986E-03  -8.00799398E-07
  -9.34999995E-03  -8.22134893E-07
  -9.30000003E-03  -8.44003523E-07
  -9.25000012E-03  -8.66413984E-07
  -9.20000020E-03  -8.89371734E-07
  -9.15000029E-03  -9.12881944E-07
  -9.10000037E-03  -9.36952233E-07
  -9.05000046E-03  -9.61594765E-07
  -8.99999961E-03  -9.86826535E-07
  -8.94999970E-03  -1.01266687E-06
  -8.89999978E-03  -1.03913487E-06
  -8.84999987E-03  -1.06624623E-06
  -8.79999995E-03  -1.09401276E-06
  -8.75000004E-03  -1.12244231E-06
  -8.70000012E-03  -1.15154228E-06
  -8.65000021E-03  -1.18132198E-06
  -8.60000029E-03  -1.21179517E-06
  -8.55000038E-03  -1.24298049E-06
  -8.50000046E-03  -1.27489943E-06
  -8.44999962E-03  -1.30757371E-06
  -8.39999970E-03  -1.34102220E-06
  -8.34999979E-03  -1.37526001E-06
  -8.29999987E-03  -1.41029841E-06
  -8.24999996E-03  -1.44614728E-06
  -8.20000004E-03  -1.48281811E-06
  -8.15000013E-03  -1.52032680E-06
  -8.10000021E-03  -1.55869384E-06
  -8.05000030E-03  -1.59794297E-06
  -8.00000038E-03  -1.63809875E-06
  -7.95000046E-03  -1.67918347E-06
  -7.89999962E-03  -1.72121531E-06
  -7.84999970E-03  -1.76420895E-06
  -7.79999979E-03  -1.80817710E-06
  -7.74999987E-03  -1.85313388E-06
  -7.69999996E-03  -1.89909679E-06
  -7.65000004E-03  -1.94608856E-06
  -7.60000013E-03  -1.99413512E-06
  -7.55000021E-03  -2.04326443E-06
  -7.49999983E-03  -2.09350151E-06
  -7.44999992E-03  -2.14486886E-06
  -7.40000000E-03  -2.19738399E-06
  -7.35000009E-03  -2.25106328E-06
  -7.30000017E-03  -2.30592400E-06
  -7.24999979E-03  -2.36198616E-06
  -7.19999988E-03  -2.41927501E-06
  -7.14999996E-03  -2.47781941E-06
  -7.10000005E-03  -2.53765029E-06
  -7.05000013E-03  -2.59879630E-06
  -7.00000022E-03  -2.66128336E-06
  -6.94999984E-03  -2.72513398E-06
  -6.89999992E-03  -2.79036726E-06
  -6.85000001E-03  -2.85700366E-06
  -6.80000009E-03  -2.92506616E-06
  -6.75000018E-03  -2.99458247E-06
  -6.69999979E-03  -3.06558445E-06
  -6.64999988E-03  -3.13810597E-06
  -6.59999996E-03  -3.21217999E-06
  -6.55000005E-03  -3.28783676E-06
  -6.50000013E-03  -3.36510197E-06
  -6.45000022E-03  -3.44399950E-06
  -6.39999984E-03  -3.52455208E-06
  -6.34999992E-03  -3.60678632E-06
  -6.30000001E-03  -3.69073246E-06
  -6.25000009E-03  -3.77642618E-06
  -6.20000018E-03  -3.86390457E-06
  -6.14999980E-03  -3.95320467E-06
  -6.09999988E-03  -4.04436150E-06
  -6.04999997E-03  -4.13740645E-06
  -6.00000005E-03  -4.23236725E-06
  -5.95000014E-03  -4.32926890E-06
  -5.90000022E-03  -4.42814235E-06
  -5.84999984E-03  -4.52902077E-06
  -5.79999993E-03  -4.63194419E-06
  -5.75000001E-03  -4.73695400E-06
  -5.70000010E-03  -4.84409202E-06
  -5.65000018E-03  -4.95339782E-06
  -5.59999980E-03  -5.06490596E-06
  -5.54999989E-03  -5.17864919E-06
  -5.49999997E-03  -5.29465751E-06
  -5.45000006E-03  -5.41296504E-06
  -5.40000014E-03  -5.53360860E-06
  -5.35000023E-03  -5.65663095E-06
  -5.29999984E-03  -5.78207801E-06
  -5.24999993E-03  -5.90999571E-06
  -5.20000001E-03  -6.04042862E-06
  -5.15000010E-03  -6.17341720E-06
  -5.10000018E-03  -6.30899922E-06
  -5.04999980E-03  -6.44720922E-06
  -4.99999989E-03  -6.58808449E-06
  -4.94999997E-03  -6.73166551E-06
  -4.90000006E-03  -6.87799866E-06
  -4.85000014E-03  -7.02713442E-06
  -4.80000023E-03  -7.17912280E-06
  -4.74999985E-03  -7.33401430E-06
  -4.69999993E-03  -7.49185483E-06
  -4.65000002E-03  -7.65268669E-06
  -4.60000010E-03  -7.81654853E-06
  -4.55000019E-03  -7.98348174E-06
  -4.49999981E-03  -8.15352996E-06
  -4.44999989E-03  -8.32674414E-06
  -4.39999998E-03  -8.50317610E-06
  -4.35000006E-03  -8.68288316E-06
  -4.30000015E-03  -8.86591806E-06
  -4.25000023E-03  -9.05233173E-06
  -4.19999985E-03  -9.24217147E-06
  -4.14999994E-03  -9.43548093E-06
  -4.10000002E-03  -9.63230741E-06
  -4.05000011E-03  -9.83269638E-06
  -4.00000019E-03  -1.00366997E-05
  -3.94999981E-03  -1.02443737E-05
  -3.89999989E-03  -1.04557776E-05
  -3.84999998E-03  -1.06709704E-05
  -3.80000006E-03  -1.08900076E-05
  -3.74999992E-03  -1.11129420E-05
  -3.70000000E-03  -1.13398237E-05
  -3.65000009E-03  -1.15706998E-05
  -3.59999994E-03  -1.18056187E-05
  -3.55000002E-03  -1.20446348E-05
  -3.50000011E-03  -1.22878064E-05
  -3.44999996E-03  -1.25351980E-05
  -3.40000005E-03  -1.27868725E-05
  -3.34999990E-03  -1.30428889E-05
  -3.29999998E-03  -1.33033018E-05
  -3.25000007E-03  -1.35681639E-05
  -3.19999992E-03  -1.38375244E-05
  -3.15000000E-03  -1.41114351E-05
  -3.10000009E-03  -1.43899533E-05
  -3.04999994E-03  -1.46731390E-05
  -3.00000003E-03  -1.49610551E-05
  -2.95000011E-03  -1.52537687E-05
  -2.89999996E-03  -1.55513426E-05
  -2.85000005E-03  -1.58538314E-05
  -2.79999990E-03  -1.61612916E-05
  -2.74999999E-03  -1.64737794E-05
  -2.70000007E-03  -1.67913422E-05
  -2.64999992E-03  -1.71140437E-05
  -2.60000001E-03  -1.74419401E-05
  -2.55000009E-03  -1.77750953E-05
  -2.49999994E-03  -1.81135729E-05
  -2.45000003E-03  -1.84574401E-05
  -2.40000011E-03  -1.88067588E-05
  -2.34999997E-03  -1.91615836E-05
  -2.30000005E-03  -1.95219709E-05
  -2.24999990E-03  -1.98879752E-05
  -2.19999999E-03  -2.02596457E-05
  -2.15000007E-03  -2.06370405E-05
  -2.09999993E-03  -2.10202252E-05
  -2.05000001E-03  -2.14092652E-05
  -2.00000009E-03  -2.18042260E-05
  -1.94999995E-03  -2.22051658E-05
  -1.90000003E-03  -2.26121429E-05
  -1.85000000E-03  -2.30252172E-05
  -1.79999997E-03  -2.34444342E-05
  -1.75000005E-03  -2.38698467E-05
  -1.70000002E-03  -2.43015165E-05
  -1.64999999E-03  -2.47395001E-05
  -1.59999996E-03  -2.51838592E-05
  -1.55000004E-03  -2.56346557E-05
  -1.50000001E-03  -2.60919478E-05
  -1.44999998E-03  -2.65557937E-05
  -1.39999995E-03  -2.70262499E-05
  -1.35000004E-03  -2.75033653E-05
  -1.30000000E-03  -2.79871911E-05
  -1.24999997E-03  -2.84777780E-05
  -1.20000006E-03  -2.89751770E-05
  -1.15000003E-03  -2.94794463E-05
  -1.09999999E-03  -2.99906405E-05
  -1.04999996E-03  -3.05088179E-05
  -1.00000005E-03  -3.10340365E-05
  -9.50000016E-04  -3.15663456E-05
  -8.99999985E-04  -3.21057996E-05
  -8.50000011E-04  -3.26524387E-05
  -7.99999980E-04  -3.32063100E-05
  -7.50000007E-04  -3.37674574E-05
  -6.99999975E-04  -3.43359206E-05
  -6.50000002E-04  -3.49117545E-05
  -6.00000028E-04  -3.54950098E-05
  -5.49999997E-04  -3.60857412E-05
  -5.00000024E-04  -3.66839959E-05
  -4.49999992E-04  -3.72898212E-05
  -3.99999990E-04  -3.79032499E-05
  -3.49999988E-04  -3.85243184E-05
  -3.00000014E-04  -3.91530666E-05
  -2.50000012E-04  -3.97895201E-05
  -1.99999995E-04  -4.04337261E-05
  -1.50000007E-04  -4.10857356E-05
  -9.99999975E-05  -4.17455958E-05
  -4.99999987E-05  -4.24133359E-05
   0.00000000      -4.30889995E-05
   4.99999987E-05  -4.37726085E-05
   9.99999975E-05  -4.44641810E-05
   1.50000007E-04  -4.51637497E-05
   1.99999995E-04  -4.58713257E-05
   2.50000012E-04  -4.65869525E-05
   3.00000014E-04  -4.73106556E-05
   3.49999988E-04  -4.80424715E-05
   3.99999990E-04  -4.87824364E-05
   4.49999992E-04  -4.95305649E-05
   5.00000024E-04  -5.02868752E-05
   5.49999997E-04  -5.10513746E-05
   6.00000028E-04  -5.18240740E-05
   6.50000002E-04  -5.26049844E-05
   6.99999975E-04  -5.33941165E-05
   7.50000007E-04  -5.41914851E-05
   7.99999980E-04  -5.49971155E-05
   8.50000011E-04  -5.58110187E-05
   8.99999985E-04  -5.66332128E-05
   9.50000016E-04  -5.74637015E-05
   1.00000005E-03  -5.83024594E-05
   1.04999996E-03  -5.91494863E-05
   1.09999999E-03  -6.00047679E-05
   1.15000003E-03  -6.08682894E-05
   1.20000006E-03  -6.17400583E-05
   1.24999997E-03  -6.26200635E-05
   1.30000000E-03  -6.35083125E-05
   1.35000004E-03  -6.44047905E-05
   1.39999995E-03  -6.53095049E-05
   1.44999998E-03  -6.62224047E-05
   1.50000001E-03  -6.71434536E-05
   1.55000004E-03  -6.80726225E-05
   1.59999996E-03  -6.90098750E-05
   1.64999999E-03  -6.99551892E-05
   1.70000002E-03  -7.09085361E-05
   1.75000005E-03  -7.18698939E-05
   1.79999997E-03  -7.28392406E-05
   1.85000000E-03  -7.38165254E-05
   1.90000003E-03  -7.48016973E-05
   1.94999995E-03  -7.57946909E-05
   2.00000009E-03  -7.67954552E-05
   2.05000001E-03  -7.78039248E-05
   2.09999993E-03  -7.88200268E-05
   2.15000007E-03  -7.98437250E-05
   2.19999999E-03  -8.08749610E-05
   2.24999990E-03  -8.19136694E-05
   2.30000005E-03  -8.29597993E-05
   2.34999997E-03  -8.40132780E-05
   2.40000011E-03  -8.50740107E-05
   2.45000003E-03  -8.61418885E-05
   2.49999994E-03  -8.72168166E-05
   2.55000009E-03  -8.82987006E-05
   2.60000001E-03  -8.93874458E-05
   2.64999992E-03  -9.04829722E-05
   2.70000007E-03  -9.15851924E-05
   2.74999999E-03  -9.26940265E-05
   2.79999990E-03  -9.38093581E-05