  -3.99999991E-02   0.00000000    
  -3.99499983E-02   0.00000000    
  -3.99000011E-02   0.00000000    
  -3.98500003E-02   0.00000000    
  -3.97999994E-02   1.06698822E-19
  -3.97499986E-02   9.50419253E-19
  -3.97000015E-02   4.30204560E-18
  -3.96500006E-02   1.30412584E-17
  -3.95999998E-02   2.91303366E-17
  -3.95499989E-02   4.89429302E-17
  -3.95000018E-02   5.74913819E-17
  -3.94500010E-02   2.57122823E-17
  -3.94000001E-02  -8.42202676E-17
  -3.93499993E-02  -3.03549503E-16
  -3.92999984E-02  -6.36124232E-16
  -3.92500013E-02  -1.04355878E-15
  -3.92000005E-02  -1.44969297E-15
  -3.91499996E-02  -1.77065768E-15
  -3.90999988E-02  -1.96213594E-15
  -3.90500017E-02  -2.06066790E-15
  -3.90000008E-02  -2.19167446E-15
  -3.89500000E-02  -2.52965289E-15
  -3.88999991E-02  -3.22173810E-15
  -3.88499983E-02  -4.31045749E-15
  -3.88000011E-02  -5.69884402E-15
  -3.87500003E-02  -7.18368727E-15
  -3.86999995E-02  -8.54774490E-15
  -3.86499986E-02  -9.66783840E-15
  -3.86000015E-02  -1.05822621E-14
  -3.85500006E-02  -1.14774489E-14
  -3.84999998E-02  -1.25941314E-14
  -3.84499989E-02  -1.40973498E-14
  -3.84000018E-02  -1.59775960E-14
  -3.83500010E-02  -1.80355879E-14
  -3.83000001E-02  -1.99546055E-14
  -3.82499993E-02  -2.14097505E-14
  -3.81999984E-02  -2.21400741E-14
  -3.81500013E-02  -2.19383482E-14
  -3.81000005E-02  -2.05795498E-14
  -3.80499996E-02  -1.77664398E-14
  -3.79999988E-02  -1.31723644E-14
  -3.79500017E-02  -6.59538689E-15
  -3.79000008E-02   1.85889469E-15
  -3.78500000E-02   1.17105795E-14
  -3.77999991E-02   2.22733886E-14
  -3.77499983E-02   3.30563891E-14
  -3.77000012E-02   4.42376713E-14
  -3.76500003E-02   5.69364027E-14
  -3.75999995E-02   7.30334237E-14
  -3.75499986E-02   9.44809010E-14
  -3.75000015E-02   1.22334854E-13
  -3.74500006E-02   1.55989886E-13
  -3.73999998E-02   1.93123200E-13
  -3.73499990E-02   2.30581613E-13
  -3.73000018E-02   2.65960051E-13
  -3.72500010E-02   2.99162198E-13
  -3.72000001E-02   3.33076123E-13
  -3.71499993E-02   3.72793403E-13
  -3.70999984E-02   4.23461098E-13
  -3.70500013E-02   4.87595045E-13
  -3.70000005E-02   5.63119972E-13
  -3.69499996E-02   6.43262407E-13
  -3.68999988E-02   7.18687046E-13
  -3.68500017E-02   7.81201221E-13
  -3.68000008E-02   8.27459086E-13
  -3.67500000E-02   8.60861404E-13
  -3.66999991E-02   8.90489939E-13
  -3.66499983E-02   9.27228997E-13
  -3.66000012E-02   9.78613132E-13
  -3.65500003E-02   1.04469981E-12
  -3.64999995E-02   1.11697685E-12
  -3.64499986E-02   1.18104441E-12
  -3.64000015E-02   1.22213210E-12
  -3.63500006E-02   1.23118583E-12
  -3.62999998E-02   1.20889182E-12
  -3.62499990E-02   1.16577765E-12
  -3.62000018E-02   1.11814301E-12
  -3.61500010E-02   1.08130811E-12
  -3.61000001E-02   1.06280078E-12
  -3.60499993E-02   1.05817059E-12
  -3.59999985E-02   1.05112501E-12
  -3.59500013E-02   1.01812710E-12
  -3.59000005E-02   9.36065353E-13
  -3.58499996E-02   7.90655356E-13
  -3.57999988E-02   5.82928833E-13
  -3.57500017E-02   3.31457003E-13
  -3.57000008E-02   6.87789872E-14
  -3.56500000E-02  -1.68115169E-13
  -3.55999991E-02  -3.51445761E-13
  -3.55499983E-02  -4.76471185E-13
  -3.55000012E-02  -5.69907403E-13
  -3.54500003E-02  -6.87537917E-13
  -3.53999995E-02  -8.98390574E-13
  -3.53499986E-02  -1.25808175E-12
  -3.53000015E-02  -1.78004042E-12
  -3.52500007E-02  -2.41746206E-12
  -3.51999998E-02  -3.06802088E-12
  -3.51499990E-02  -3.60612668E-12
  -3.51000018E-02  -3.93528179E-12
  -3.50500010E-02  -4.04070701E-12
  -3.50000001E-02  -4.01642044E-12
  -3.49499993E-02  -4.04654088E-12
  -3.48999985E-02  -4.33824374E-12
  -3.48500013E-02  -5.02757167E-12
  -3.48000005E-02  -6.09842211E-12
  -3.47499996E-02  -7.35823468E-12
  -3.46999988E-02  -8.49558965E-12
  -3.46500017E-02  -9.20933208E-12
  -3.46000008E-02  -9.36017409E-12
  -3.45500000E-02  -9.07334364E-12
  -3.44999991E-02  -8.72994992E-12
  -3.44499983E-02  -8.82769639E-12
  -3.44000012E-02  -9.75378979E-12
  -3.43500003E-02  -1.15662922E-11
  -3.42999995E-02  -1.38957327E-11
  -3.42499986E-02  -1.60404121E-11
  -3.42000015E-02  -1.72456962E-11
  -3.41500007E-02  -1.70630315E-11
  -3.40999998E-02  -1.56244670E-11
  -3.40499990E-02  -1.36800293E-11
  -3.40000018E-02  -1.23359239E-11
  -3.39500010E-02  -1.25697491E-11
  -3.39000002E-02  -1.47238038E-11
  -3.38499993E-02  -1.82238686E-11
  -3.37999985E-02  -2.17013855E-11
  -3.37500013E-02  -2.35266338E-11
  -3.37000005E-02  -2.25577439E-11
  -3.36499996E-02  -1.87709692E-11
  -3.35999988E-02  -1.34420825E-11
  -3.35500017E-02  -8.71789880E-12
  -3.35000008E-02  -6.69298731E-12
  -3.34500000E-02  -8.36877095E-12
  -3.33999991E-02  -1.29883543E-11
  -3.33499983E-02  -1.81304173E-11
  -3.33000012E-02  -2.06299387E-11
  -3.32500003E-02  -1.79974646E-11
  -3.31999995E-02  -9.71604481E-12
  -3.31499986E-02   2.23478267E-12
  -3.31000015E-02   1.39928277E-11
  -3.30500007E-02   2.14246381E-11
  -3.29999998E-02   2.20872487E-11
  -3.29499990E-02   1.66334359E-11
  -3.29000019E-02   8.90241700E-12
  -3.28500010E-02   4.47746050E-12
  -3.28000002E-02   8.20977574E-12
  -3.27499993E-02   2.17763359E-11
  -3.26999985E-02   4.24610069E-11
  -3.26500013E-02   6.39061443E-11
  -3.26000005E-02   7.87192325E-11
  -3.25499997E-02   8.19040044E-11
  -3.24999988E-02   7.35568897E-11
  -3.24500017E-02   5.94331043E-11
  -3.24000008E-02   4.88480437E-11
  -3.23500000E-02   5.06045691E-11
  -3.22999991E-02   6.86745036E-11
  -3.22499983E-02   9.96869809E-11
  -3.22000012E-02   1.33645650E-10
  -3.21500003E-02   1.57905272E-10
  -3.20999995E-02   1.62871064E-10
  -3.20499986E-02   1.46879023E-10
  -3.20000015E-02   1.17822363E-10
  -3.19500007E-02   9.03813482E-11
  -3.18999998E-02   7.96995456E-11
  -3.18499990E-02   9.41489595E-11
  -3.18000019E-02   1.30551778E-10
  -3.17500010E-02   1.74412637E-10
  -3.17000002E-02   2.05586451E-10
  -3.16499993E-02   2.07248579E-10
  -3.15999985E-02   1.74228756E-10
  -3.15500014E-02   1.16663651E-10
  -3.15000005E-02   5.67415559E-11
  -3.14499997E-02   1.93838261E-11
  -3.13999988E-02   2.06870372E-11
  -3.13500017E-02   5.94025384E-11
  -3.13000008E-02   1.15807711E-10
  -3.12500000E-02   1.59233363E-10
  -3.11999992E-02   1.61514760E-10
  -3.11500002E-02   1.10551006E-10
  -3.10999993E-02   1.75476248E-11
  -3.10500003E-02  -8.60936114E-11
  -3.09999995E-02  -1.61735431E-10
  -3.09500005E-02  -1.81090781E-10
  -3.08999997E-02  -1.40528131E-10
  -3.08500007E-02  -6.50171375E-11
  -3.07999998E-02   1.10076683E-12
  -3.07500008E-02   1.33435962E-11
  -3.07000000E-02  -5.18735263E-11
  -3.06499992E-02  -1.84178992E-10
  -3.06000002E-02  -3.41042444E-10
  -3.05499993E-02  -4.64890848E-10
  -3.05000003E-02  -5.08804998E-10
  -3.04499995E-02  -4.59420862E-10
  -3.04000005E-02  -3.45999951E-10
  -3.03499997E-02  -2.30214778E-10
  -3.03000007E-02  -1.79826640E-10
  -3.02499998E-02  -2.37290604E-10
  -3.02000009E-02  -3.97632427E-10
  -3.01500000E-02  -6.06764916E-10
  -3.00999992E-02  -7.82711174E-10
  -3.00500002E-02  -8.51629323E-10
  -2.99999993E-02  -7.82921006E-10
  -2.99500003E-02  -6.06874107E-10
  -2.98999995E-02  -4.05173395E-10
  -2.98500005E-02  -2.76584117E-10
  -2.97999997E-02  -2.91943997E-10
  -2.97500007E-02  -4.58713262E-10
  -2.96999998E-02  -7.12423120E-10
  -2.96500009E-02  -9.41094092E-10
  -2.96000000E-02  -1.03372066E-09
  -2.95499992E-02  -9.31982269E-10
  -2.95000002E-02  -6.61265986E-10
  -2.94499993E-02  -3.24974436E-10
  -2.94000003E-02  -6.20632712E-11
  -2.93499995E-02   1.50765997E-11
  -2.93000005E-02  -1.25145339E-10
  -2.92499997E-02  -4.13015178E-10
  -2.92000007E-02  -7.02713610E-10
  -2.91499998E-02  -8.34732672E-10
  -2.91000009E-02  -7.09075076E-10
  -2.90500000E-02  -3.35920319E-10
  -2.89999992E-02   1.61393704E-10
  -2.89500002E-02   5.95766214E-10
  -2.88999993E-02   7.98749400E-10
  -2.88500004E-02   6.99943881E-10
  -2.87999995E-02   3.66282504E-10
  -2.87500005E-02  -1.97551732E-11
  -2.86999997E-02  -2.36991621E-10
  -2.86500007E-02  -1.25490257E-10
  -2.85999998E-02   3.35219269E-10
  -2.85500009E-02   1.00731301E-09
  -2.85000000E-02   1.64784331E-09
  -2.84499992E-02   2.01395078E-09
  -2.84000002E-02   1.97477013E-09
  -2.83499993E-02   1.57867119E-09
  -2.83000004E-02   1.04189679E-09
  -2.82499995E-02   6.58883115E-10
  -2.82000005E-02   6.70802136E-10
  -2.81499997E-02   1.15046173E-09
  -2.81000007E-02   1.95774552E-09
  -2.80499998E-02   2.79052226E-09
  -2.80000009E-02   3.31338446E-09
  -2.79500000E-02   3.30957839E-09
  -2.78999992E-02   2.78747714E-09
  -2.78500002E-02   1.98978611E-09
  -2.77999993E-02   1.29543154E-09
  -2.77500004E-02   1.05293685E-09
  -2.76999995E-02   1.41795287E-09
  -2.76500005E-02   2.26995067E-09
  -2.75999997E-02   3.25100324E-09
  -2.75500007E-02   3.91589250E-09
  -2.74999999E-02   3.93094224E-09
  -2.74500009E-02   3.23300453E-09
  -2.74000000E-02   2.07330997E-09
  -2.73499992E-02   9.19561205E-10
  -2.73000002E-02   2.53256971E-10
  -2.72499993E-02   3.49424989E-10
  -2.72000004E-02   1.13884546E-09
  -2.71499995E-02   2.22052421E-09
  -2.71000005E-02   3.02695957E-09
  -2.70499997E-02   3.07482306E-09
  -2.70000007E-02   2.19085305E-09
  -2.69499999E-02   6.08163297E-10
  -2.69000009E-02  -1.11809562E-09
  -2.68500000E-02  -2.34679742E-09
  -2.67999992E-02  -2.63869970E-09
  -2.67500002E-02  -1.96720107E-09
  -2.66999993E-02  -7.51585238E-10
  -2.66500004E-02   3.11733500E-10
  -2.65999995E-02   5.53373958E-10
  -2.65500005E-02  -3.61356556E-10
  -2.64999997E-02  -2.26160801E-09
  -2.64500007E-02  -4.52196014E-09
  -2.63999999E-02  -6.32327790E-09
  -2.63500009E-02  -7.01509473E-09
  -2.63000000E-02  -6.41939346E-09
  -2.62499992E-02  -4.93430186E-09
  -2.62000002E-02  -3.38041595E-09
  -2.61499994E-02  -2.64693889E-09
  -2.61000004E-02  -3.28888139E-09
  -2.60499995E-02  -5.25635313E-09
  -2.60000005E-02  -7.88569654E-09
  -2.59499997E-02  -1.01693365E-08
  -2.59000007E-02  -1.11951772E-08
  -2.58499999E-02  -1.05639328E-08
  -2.58000009E-02  -8.59356852E-09
  -2.57500000E-02  -6.20771390E-09
  -2.56999992E-02  -4.54365612E-09
  -2.56500002E-02  -4.44469750E-09
  -2.55999994E-02  -6.06201356E-09
  -2.55500004E-02  -8.75203110E-09
  -2.54999995E-02  -1.13298118E-08
  -2.54500005E-02  -1.25801227E-08
  -2.53999997E-02  -1.18062529E-08
  -2.53500007E-02  -9.16932041E-09
  -2.52999999E-02  -5.65441738E-09
  -2.52500009E-02  -2.66175126E-09
  -2.52000000E-02  -1.39089917E-09
  -2.51499992E-02  -2.28789121E-09
  -2.51000002E-02  -4.80860329E-09
  -2.50499994E-02  -7.62010277E-09
  -2.50000004E-02  -9.16856013E-09
  -2.49499995E-02  -8.37307912E-09
  -2.49000005E-02  -5.13689136E-09
  -2.48499997E-02  -4.36263942E-10
  -2.48000007E-02   4.07194811E-09
  -2.47499999E-02   6.76796530E-09
  -2.47000009E-02   6.80157042E-09
  -2.46500000E-02   4.50864812E-09
  -2.45999992E-02   1.30941580E-09
  -2.45500002E-02  -8.88393914E-10
  -2.44999994E-02  -5.33173894E-10
  -2.44500004E-02   2.85080737E-09
  -2.43999995E-02   8.39837355E-09
  -2.43500005E-02   1.42327119E-08
  -2.42999997E-02   1.82658919E-08
  -2.42500007E-02   1.91292777E-08
  -2.41999999E-02   1.68190244E-08
  -2.41500009E-02   1.27528947E-08
  -2.41000000E-02   9.18752541E-09
  -2.40499992E-02   8.23210211E-09
  -2.40000002E-02   1.08866303E-08
  -2.39499994E-02   1.65400991E-08
  -2.39000004E-02   2.31744739E-08
  -2.38499995E-02   2.82121650E-08
  -2.38000005E-02   2.96514653E-08
  -2.37499997E-02   2.69895875E-08
  -2.37000007E-02   2.15079563E-08
  -2.36499999E-02   1.57645186E-08
  -2.36000009E-02   1.24892701E-08
  -2.35500000E-02   1.33566722E-08
  -2.34999992E-02   1.81836342E-08
  -2.34500002E-02   2.49323993E-08
  -2.33999994E-02   3.05501011E-08
  -2.33500004E-02   3.23006439E-08
  -2.32999995E-02   2.90084472E-08
  -2.32500006E-02   2.16497149E-08
  -2.31999997E-02   1.29982425E-08
  -2.31500007E-02   6.44725873E-09
  -2.30999999E-02   4.50522908E-09
  -2.30500009E-02   7.63055485E-09
  -2.30000000E-02   1.39440175E-08
  -2.29499992E-02   1.99835881E-08
  -2.29000002E-02   2.22029417E-08
  -2.28499994E-02   1.85678104E-08
  -2.28000004E-02   9.53474011E-09
  -2.27499995E-02  -2.05323891E-09
  -2.27000006E-02  -1.21496253E-08
  -2.26499997E-02  -1.72754024E-08
  -2.26000007E-02  -1.61030904E-08
  -2.25499999E-02  -1.01328821E-08
  -2.25000009E-02  -3.12092152E-09
  -2.24500000E-02   5.31115207E-10
  -2.23999992E-02  -2.26016783E-09
  -2.23500002E-02  -1.18135715E-08
  -2.22999994E-02  -2.54257166E-08
  -2.22500004E-02  -3.84638561E-08
  -2.21999995E-02  -4.63684167E-08
  -2.21500006E-02  -4.66980197E-08
  -2.20999997E-02  -4.02977705E-08
  -2.20500007E-02  -3.10317247E-08
  -2.19999999E-02  -2.41460771E-08
  -2.19500009E-02  -2.39488802E-08
  -2.19000001E-02  -3.18255786E-08
  -2.18499992E-02  -4.54965061E-08
  -2.18000002E-02  -5.98967134E-08
  -2.17499994E-02  -6.93420787E-08
  -2.17000004E-02  -7.00538791E-08
  -2.16499995E-02  -6.19185272E-08
  -2.16000006E-02  -4.86622618E-08
  -2.15499997E-02  -3.63044990E-08
  -2.15000007E-02  -3.05236938E-08
  -2.14499999E-02  -3.40820812E-08
  -2.14000009E-02  -4.54707809E-08
  -2.13500001E-02  -5.94288316E-08
  -2.12999992E-02  -6.91696940E-08
  -2.12500002E-02  -6.93738116E-08
  -2.11999994E-02  -5.86277729E-08
  -2.11500004E-02  -4.01927451E-08
  -2.10999995E-02  -2.06977262E-08
  -2.10500006E-02  -7.27322735E-09
  -2.09999997E-02  -4.36096670E-09
  -2.09500007E-02  -1.16240466E-08
  -2.08999999E-02  -2.39362645E-08
  -2.08500009E-02  -3.35271686E-08
  -2.08000001E-02  -3.33916788E-08
  -2.07499992E-02  -2.04732356E-08
  -2.07000002E-02   2.81926060E-09
  -2.06499994E-02   2.94996401E-08
  -2.06000004E-02   5.09794873E-08
  -2.05499995E-02   6.08617654E-08
  -2.05000006E-02   5.78737058E-08
  -2.04499997E-02   4.65910617E-08
  -2.04000007E-02   3.55548551E-08
  -2.03499999E-02   3.35416921E-08
  -2.03000009E-02   4.56046294E-08
  -2.02500001E-02   7.06577268E-08
  -2.01999992E-02   1.01740937E-07
  -2.01500002E-02   1.28932854E-07
  -2.00999994E-02   1.43686776E-07
  -2.00500004E-02   1.42686005E-07
  -1.99999996E-02   1.29469186E-07
  -1.99500006E-02   1.13024377E-07
  -1.98999997E-02   1.03888190E-07
  -1.98500007E-02   1.09425393E-07
  -1.97999999E-02   1.30385772E-07
  -1.97500009E-02   1.60326110E-07
  -1.97000001E-02   1.88245750E-07
  -1.96499992E-02   2.03350695E-07
  -1.96000002E-02   1.99869831E-07
  -1.95499994E-02   1.79760605E-07
  -1.95000004E-02   1.52024143E-07
  -1.94499996E-02   1.28835509E-07
  -1.94000006E-02   1.20132654E-07
  -1.93499997E-02   1.29049454E-07
  -1.93000007E-02   1.50270537E-07
  -1.92499999E-02   1.72133440E-07
  -1.92000009E-02   1.81643784E-07
  -1.91500001E-02   1.70235722E-07
  -1.90999992E-02   1.37711481E-07
  -1.90500002E-02   9.25376753E-08
  -1.89999994E-02   4.82603610E-08
  -1.89500004E-02   1.75379746E-08
  -1.88999996E-02   6.40475228E-09
  -1.88500006E-02   1.13474146E-08
  -1.87999997E-02   2.05871373E-08
  -1.87500007E-02   1.91096579E-08
  -1.86999999E-02  -4.71034545E-09
  -1.86500009E-02  -5.38210898E-08
  -1.86000001E-02  -1.20951398E-07
  -1.85499992E-02  -1.91609885E-07
  -1.85000002E-02  -2.50403389E-07
  -1.84499994E-02  -2.87927094E-07
  -1.84000004E-02  -3.05150309E-07
  -1.83499996E-02  -3.13262120E-07
  -1.83000006E-02  -3.28925125E-07
  -1.82499997E-02  -3.66945642E-07
  -1.82000007E-02  -4.33581334E-07
  -1.81499999E-02  -5.23505548E-07
  -1.81000009E-02  -6.21885135E-07
  -1.80500001E-02  -7.10773008E-07
  -1.79999992E-02  -7.77058233E-07
  -1.79500002E-02  -8.18447916E-07
  -1.78999994E-02  -8.44748740E-07
  -1.78500004E-02  -8.73753265E-07
  -1.77999996E-02  -9.23441632E-07
  -1.77500006E-02  -1.00390253E-06
  -1.76999997E-02  -1.11258851E-06
  -1.76500008E-02  -1.23511632E-06
  -1.75999999E-02  -1.35138794E-06
  -1.75500009E-02  -1.44441992E-06
  -1.75000001E-02  -1.50798815E-06
  -1.74499992E-02  -1.54963470E-06
  -1.74000002E-02  -1.58757643E-06
  -1.73499994E-02  -1.64275775E-06
  -1.73000004E-02  -1.72949331E-06
  -1.72499996E-02  -1.84885869E-06
  -1.72000006E-02  -1.98785779E-06
  -1.71499997E-02  -2.12487225E-06
  -1.71000008E-02  -2.23909842E-06
  -1.70499999E-02  -2.31983654E-06
  -1.70000009E-02  -2.37146878E-06
  -1.69500001E-02  -2.41179600E-06
  -1.68999992E-02  -2.46433638E-06
  -1.68500002E-02  -2.54789416E-06
  -1.67999994E-02  -2.66800203E-06
  -1.67500004E-02  -2.81412144E-06
  -1.66999996E-02  -2.96397479E-06
  -1.66500006E-02  -3.09322672E-06
  -1.65999997E-02  -3.18630009E-06
  -1.65500008E-02  -3.24350731E-06
  -1.64999999E-02  -3.28122655E-06
  -1.64500009E-02  -3.32490208E-06
  -1.64000001E-02  -3.39784151E-06
  -1.63499992E-02  -3.51073572E-06
  -1.63000003E-02  -3.65660753E-06
  -1.62499994E-02  -3.81356426E-06
  -1.62000004E-02  -3.95427514E-06
  -1.61499996E-02  -4.05808305E-06
  -1.61000006E-02  -4.12038889E-06
  -1.60499997E-02  -4.15504337E-06
  -1.60000008E-02  -4.18854643E-06
  -1.59499999E-02  -4.24848349E-06
  -1.59000009E-02  -4.35125230E-06
  -1.58500001E-02  -4.49455592E-06
  -1.57999992E-02  -4.65809990E-06
  -1.57500003E-02  -4.81235838E-06
  -1.56999994E-02  -4.93163407E-06
  -1.56500004E-02  -5.00566921E-06
  -1.55999996E-02  -5.04458058E-06
  -1.55499997E-02  -5.07479444E-06
  -1.54999997E-02  -5.12761244E-06
  -1.54499998E-02  -5.22539949E-06
  -1.53999999E-02  -5.37150891E-06
  -1.53500000E-02  -5.54851249E-06
  -1.53000001E-02  -5.72568797E-06
  -1.52500002E-02  -5.87258728E-06
  -1.52000003E-02  -5.97272492E-06
  -1.51500003E-02  -6.03128638E-06
  -1.51000004E-02  -6.07330003E-06
  -1.50499996E-02  -6.13292332E-06
  -1.49999997E-02  -6.23847018E-06
  -1.49499997E-02  -6.39977770E-06
  -1.48999998E-02  -6.60361638E-06
  -1.48499999E-02  -6.81930442E-06
  -1.48000000E-02  -7.01221916E-06
  -1.47500001E-02  -7.15929446E-06
  -1.47000002E-02  -7.25963173E-06
  -1.46500003E-02  -7.33540583E-06
  -1.46000003E-02  -7.42246266E-06
  -1.45500004E-02  -7.55468272E-06
  -1.44999996E-02  -7.74895580E-06
  -1.44499997E-02  -7.99749159E-06
  -1.43999998E-02  -8.27102667E-06
  -1.43499998E-02  -8.53164693E-06
  -1.42999999E-02  -8.74968282E-06
  -1.42500000E-02  -8.91718719E-06
  -1.42000001E-02  -9.05194975E-06
  -1.41500002E-02  -9.19009653E-06
  -1.41000003E-02  -9.37037112E-06
  -1.40500003E-02  -9.61703699E-06
  -1.40000004E-02  -9.92895639E-06
  -1.39499996E-02  -1.02798476E-05
  -1.38999997E-02  -1.06297348E-05
  -1.38499998E-02  -1.09426455E-05
  -1.37999998E-02  -1.12028401E-05
  -1.37499999E-02  -1.14222512E-05
  -1.37000000E-02  -1.16356614E-05
  -1.36500001E-02  -1.18856378E-05
  -1.36000002E-02  -1.22037718E-05
  -1.35500003E-02  -1.25965562E-05
  -1.35000004E-02  -1.30422413E-05
  -1.34500004E-02  -1.35002047E-05
  -1.33999996E-02  -1.39289032E-05
  -1.33499997E-02  -1.43044708E-05
  -1.32999998E-02  -1.46316461E-05
  -1.32499998E-02  -1.49421512E-05
  -1.31999999E-02  -1.52810226E-05
  -1.31500000E-02  -1.56868027E-05
  -1.31000001E-02  -1.61744065E-05
  -1.30500002E-02  -1.67282305E-05
  -1.30000003E-02  -1.73087792E-05
  -1.29500004E-02  -1.78700502E-05
  -1.29000004E-02  -1.83800366E-05
  -1.28499996E-02  -1.88351951E-05
  -1.27999997E-02  -1.92625030E-05
  -1.27499998E-02  -1.97078916E-05
  -1.26999998E-02  -2.02161227E-05
  -1.26499999E-02  -2.08109414E-05
  -1.26000000E-02  -2.14843058E-05
  -1.25500001E-02  -2.21996852E-05
  -1.25000002E-02  -2.29080797E-05
  -1.24500003E-02  -2.35697207E-05
  -1.24000004E-02  -2.41720136E-05
  -1.23500004E-02  -2.47355874E-05
  -1.22999996E-02  -2.53055405E-05
  -1.22499997E-02  -2.59317076E-05
  -1.21999998E-02  -2.66467159E-05
  -1.21499998E-02  -2.74513877E-05
  -1.20999999E-02  -2.83141071E-05
  -1.20500000E-02  -2.91846573E-05
  -1.20000001E-02  -3.00165248E-05
  -1.19500002E-02  -3.07877781E-05
  -1.19000003E-02  -3.15112011E-05
  -1.18500004E-02  -3.22291016E-05
  -1.18000004E-02  -3.29949580E-05
  -1.17499996E-02  -3.38498576E-05
  -1.16999997E-02  -3.48042449E-05
  -1.16499998E-02  -3.58331599E-05
  -1.15999999E-02  -3.68871370E-05
  -1.15499999E-02  -3.79141457E-05
  -1.15000000E-02  -3.88828194E-05
  -1.14500001E-02  -3.97968543E-05
  -1.14000002E-02  -4.06938598E-05
  -1.13500003E-02  -4.16291987E-05
  -1.13000004E-02  -4.26516526E-05
  -1.12500004E-02  -4.37819654E-05
  -1.11999996E-02  -4.50035805E-05
  -1.11499997E-02  -4.62699791E-05
  -1.10999998E-02  -4.75253328E-05
  -1.10499999E-02  -4.87294019E-05
  -1.09999999E-02  -4.98758782E-05
  -1.09500000E-02  -5.09957026E-05
  -1.09000001E-02  -5.21440052E-05
  -1.08500002E-02  -5.33758866E-05
  -1.08000003E-02  -5.47222517E-05
  -1.07500004E-02  -5.61761772E-05
  -1.07000005E-02  -5.76958009E-05
  -1.06499996E-02  -5.92231263E-05
  -1.05999997E-02  -6.07100046E-05
  -1.05499998E-02  -6.21397558E-05
  -1.04999999E-02  -6.35351389E-05
  -1.04499999E-02  -6.49488429E-05
  -1.04000000E-02  -6.64406980E-05
  -1.03500001E-02  -6.80513695E-05
  -1.03000002E-02  -6.97844662E-05
  -1.02500003E-02  -7.16052527E-05
  -1.02000004E-02  -7.34561545E-05
  -1.01500005E-02  -7.52823253E-05
  -1.00999996E-02  -7.70564584E-05
  -1.00499997E-02  -7.87916288E-05
  -9.99999978E-03  -8.05360178E-05
  -9.94999986E-03  -8.23519367E-05
  -9.89999995E-03  -8.42888257E-05
  -9.85000003E-03  -8.63614550E-05
  -9.80000012E-03  -8.85432964E-05
  -9.75000020E-03  -9.07788999E-05
  -9.70000029E-03  -9.30085662E-05
  -9.65000037E-03  -9.51949551E-05
  -9.60000046E-03  -9.73403876E-05
  -9.54999961E-03  -9.94862421E-05
  -9.49999969E-03  -1.01695048E-04
  -9.44999978E-03  -1.04023158E-04
  -9.39999986E-03  -1.06496344E-04
  -9.34999995E-03  -1.09098597E-04
  -9.30000003E-03  -1.11779103E-04
  -9.25000012E-03  -1.14475311E-04
  -9.20000020E-03  -1.17141171E-04
  -9.15000029E-03  -1.19767938E-04
  -9.10000037E-03  -1.22388679E-04
  -9.05000046E-03  -1.25064049E-04
  -8.99999961E-03  -1.27856183E-04
  -8.94999970E-03  -1.30801403E-04
  -8.89999978E-03  -1.33894166E-04
  -8.84999987E-03  -1.37090436E-04
  -8.79999995E-03  -1.40327218E-04
  -8.75000004E-03  -1.43550584E-04
  -8.70000012E-03  -1.46740320E-04
  -8.65000021E-03  -1.49919346E-04
  -8.60000029E-03  -1.53144210E-04
  -8.55000038E-03  -1.56480281E-04
  -8.50000046E-03  -1.59973119E-04
  -8.44999962E-03  -1.63628851E-04
  -8.39999970E-03  -1.67411694E-04
  -8.34999979E-03  -1.71260166E-04
  -8.29999987E-03  -1.75114357E-04
  -8.24999996E-03  -1.78943548E-04
  -8.20000004E-03  -1.82760181E-04
  -8.15000013E-03  -1.86614314E-04
  -8.10000021E-03  -1.90572420E-04
  -8.05000030E-03  -1.94688517E-04
  -8.00000038E-03  -1.98980779E-04
  -7.95000046E-03  -2.03423842E-04
  -7.89999962E-03  -2.07960475E-04
  -7.84999970E-03  -2.12527608E-04
  -7.79999979E-03  -2.17084336E-04
  -7.74999987E-03  -2.21631286E-04
  -7.69999996E-03  -2.26210555E-04
  -7.65000004E-03  -2.30887439E-04
  -7.60000013E-03  -2.35722167E-04
  -7.55000021E-03  -2.40743771E-04
  -7.49999983E-03  -2.45937757E-04
  -7.44999992E-03  -2.51253368E-04
  -7.40000000E-03  -2.56626314E-04
  -7.35000009E-03  -2.62007496E-04
  -7.30000017E-03  -2.67385680E-04
  -7.24999979E-03  -2.72792706E-04
  -7.19999988E-03  -2.78289750E-04
  -7.14999996E-03  -2.83940841E-04
  -7.10000005E-03  -2.89785763E-04
  -7.05000013E-03  -2.95822305E-04
  -7.00000022E-03  -3.02008353E-04
  -6.94999984E-03  -3.08280461E-04
  -6.89999992E-03  -3.14583711E-04
  -6.85000001E-03  -3.20896332E-04
  -6.80000009E-03  -3.27238260E-04
  -6.75000018E-03  -3.33664735E-04
  -6.69999979E-03  -3.40242375E-04
  -6.64999988E-03  -3.47019377E-04
  -6.59999996E-03  -3.54005198E-04
  -6.55000005E-03  -3.61167942E-04
  -6.50000013E-03  -3.68449284E-04
  -6.45000022E-03  -3.75790318E-04
  -6.39999984E-03  -3.83157720E-04
  -6.34999992E-03  -3.90559930E-04
  -6.30000001E-03  -3.98043601E-04
  -6.25000009E-03  -4.05673578E-04
  -6.20000018E-03  -4.13504429E-04
  -6.14999980E-03  -4.21557052E-04
  -6.09999988E-03  -4.29811305E-04
  -6.04999997E-03  -4.38214105E-04
  -6.00000005E-03  -4.46703780E-04
  -5.95000014E-03  -4.55238973E-04
  -5.90000022E-03  -4.63816687E-04
  -5.84999984E-03  -4.72474261E-04
  -5.79999993E-03  -4.81272989E-04
  -5.75000001E-03  -4.90271603E-04
  -5.70000010E-03  -4.99502523E-04
  -5.65000018E-03  -5.08956728E-04
  -5.59999980E-03  -5.18588524E-04
  -5.54999989E-03  -5.28338307E-04
  -5.49999997E-03  -5.38157241E-04
  -5.45000006E-03  -5.48030133E-04
  -5.40000014E-03  -5.57984109E-04
  -5.35000023E-03  -5.68075047E-04
  -5.29999984E-03  -5.78364066E-04
  -5.24999993E-03  -5.88890573E-04
  -5.20000001E-03  -5.99656545E-04
  -5.15000010E-03  -6.10626594E-04
  -5.10000018E-03  -6.21742860E-04
  -5.04999980E-03  -6.32951618E-04
  -4.99999989E-03  -6.44227490E-04
  -4.94999997E-03  -6.55585143E-04
  -4.90000006E-03  -6.67073065E-04
  -4.85000014E-03  -6.78751036E-04
  -4.80000023E-03  -6.90667250E-04
  -4.74999985E-03  -7.02836085E-04
  -4.69999993E-03  -7.15229951E-04
  -4.65000002E-03  -7.27795297E-04
  -4.60000010E-03  -7.40476942E-04
  -4.55000019E-03  -7.53240078E-04
  -4.49999981E-03  -7.66086916E-04
  -4.44999989E-03  -7.79057213E-04
  -4.39999998E-03  -7.92210223E-04
  -4.35000006E-03  -8.05598334E-04
  -4.30000015E-03  -8.19244422E-04
  -4.25000023E-03  -8.33133643E-04
  -4.19999985E-03  -8.47219781E-04
  -4.14999994E-03  -8.61444860E-04
  -4.10000002E-03  -8.75766389E-04
  -4.05000011E-03  -8.90175230E-04
  -4.00000019E-03  -9.04699729E-04
  -3.94999981E-03  -9.19393613E-04
  -3.89999989E-03  -9.34312586E-04
  -3.84999998E-03  -9.49488196E-04
  -3.80000006E-03  -9.64915496E-04
  -3.74999992E-03  -9.80556943E-04
  -3.70000000E-03  -9.96356714E-04
  -3.65000009E-03  -1.01226696E-03
  -3.59999994E-03  -1.02826743E-03
  -3.55000002E-03  -1.04437524E-03
  -3.50000011E-03  -1.06063636E-03
  -3.44999996E-03  -1.07710517E-03
  -3.40000005E-03  -1.09382183E-03
  -3.34999990E-03  -1.11079356E-03
  -3.29999998E-03  -1.12799194E-03
  -3.25000007E-03  -1.14536658E-03
  -3.19999992E-03  -1.16286764E-03
  -3.15000000E-03  -1.18046277E-03
  -3.10000009E-03  -1.19815418E-03
  -3.04999994E-03  -1.21598132E-03
  -3.00000003E-03  -1.23399589E-03
  -2.95000011E-03  -1.25224283E-03
  -2.89999996E-03  -1.27074344E-03
  -2.85000005E-03  -1.28947862E-03
  -2.79999990E-03  -1.30840146E-03
  -2.74999999E-03  -1.32745935E-03
  -2.70000007E-03  -1.34661247E-03
  -2.64999992E-03  -1.36584952E-03
  -2.60000001E-03  -1.38519483E-03
  -2.55000009E-03  -1.40469975E-03
  -2.49999994E-03  -1.42441702E-03
  -2.45000003E-03  -1.44437561E-03
  -2.40000011E-03  -1.46456691E-03
  -2.34999997E-03  -1.48494961E-03
  -2.30000005E-03  -1.50546571E-03
  -2.24999990E-03  -1.52606890E-03
  -2.19999999E-03  -1.54674018E-03
  -2.15000007E-03  -1.56749471E-03
  -2.09999993E-03  -1.58837857E-03
  -2.05000001E-03  -1.60944555E-03
  -2.00000009E-03  -1.63073395E-03
  -1.94999995E-03  -1.65224914E-03
  -1.90000003E-03  -1.67395489E-03
  -1.85000000E-03  -1.69579487E-03
  -1.79999997E-03  -1.71771541E-03
  -1.75000005E-03  -1.73968903E-03
  -1.70000002E-03  -1.76172308E-03
  -1.64999999E-03  -1.78384536E-03
  -1.59999996E-03  -1.80610293E-03
  -1.55000004E-03  -1.82854163E-03
  -1.50000001E-03  -1.85117940E-03
  -1.44999998E-03  -1.87399809E-03
  -1.39999995E-03  -1.89694855E-03
  -1.35000004E-03  -1.91997120E-03
  -1.30000000E-03  -1.94302085E-03
  -1.24999997E-03  -1.96608435E-03
  -1.20000006E-03  -1.98918208E-03
  -1.15000003E-03  -2.01236038E-03
  -1.09999999E-03  -2.03567930E-03
  -1.04999996E-03  -2.05916865E-03
  -1.00000005E-03  -2.08281819E-03
  -9.50000016E-04  -2.10658903E-03
  -8.99999985E-04  -2.13041855E-03
  -8.50000011E-04  -2.15424434E-03
  -7.99999980E-04  -2.17803637E-03
  -7.50000007E-04  -2.20180582E-03
  -6.99999975E-04  -2.22559692E-03
  -6.50000002E-04  -2.24946695E-03
  -6.00000028E-04  -2.27346038E-03
  -5.49999997E-04  -2.29758420E-03
  -5.00000024E-04  -2.32180557E-03
  -4.49999992E-04  -2.34606327E-03
  -3.99999990E-04  -2.37028766E-03
  -3.49999988E-04  -2.39442312E-03
  -3.00000014E-04  -2.41845730E-03
  -2.50000012E-04  -2.44242186E-03
  -1.99999995E-04  -2.46637827E-03
  -1.50000007E-04  -2.49039498E-03
  -9.99999975E-05  -2.51450925E-03
  -4.99999987E-05  -2.53870548E-03
   0.00000000      -2.56291125E-03
   4.99999987E-05  -2.58703716E-03
   9.99999975E-05  -2.61100871E-03
   1.50000007E-04  -2.63479399E-03
   1.99999995E-04  -2.65841838E-03
   2.50000012E-04  -2.68194731E-03
   3.00000014E-04  -2.70545925E-03
   3.49999988E-04  -2.72900215E-03
   3.99999990E-04  -2.75256834E-03
   4.49999992E-04  -2.77610170E-03
   5.00000024E-04  -2.79951771E-03
   5.49999997E-04  -2.82272696E-03
   6.00000028E-04  -2.84567289E-03
   6.50000002E-04  -2.86835991E-03
   6.99999975E-04  -2.89084483E-03
   7.50000007E-04  -2.91321054E-03
   7.99999980E-04  -2.93552014E-03
   8.50000011E-04  -2.95777642E-03
   8.99999985E-04  -2.97993631E-03
   9.50000016E-04  -3.00191832E-03
   1.00000005E-03  -3.02361744E-03
   1.04999996E-03  -3.04497196E-03
   1.09999999E-03  -3.06596817E-03
   1.15000003E-03  -3.08664073E-03
   1.20000006E-03  -3.10707069E-03
   1.24999997E-03  -3.12732626E-03
   1.30000000E-03  -3.14743351E-03
   1.35000004E-03  -3.16736568E-03
   1.39999995E-03  -3.18704895E-03
   1.44999998E-03  -3.20638902E-03
   1.50000001E-03  -3.22530302E-03
   1.55000004E-03  -3.24375834E-03
   1.59999996E-03  -3.26177361E-03
   1.64999999E-03  -3.27940285E-03
   1.70000002E-03  -3.29671614E-03
   1.75000005E-03  -3.31375818E-03
   1.79999997E-03  -3.33052641E-03
   1.85000000E-03  -3.34696681E-03
   1.90000003E-03  -3.36298766E-03
   1.94999995E-03  -3.37848812E-03
   2.00000009E-03  -3.39340069E-03
   2.05000001E-03  -3.40772606E-03
   2.09999993E-03  -3.42150731E-03
   2.15000007E-03  -3.43482103E-03
   2.19999999E-03  -3.44773638E-03
   2.24999990E-03  -3.46026616E-03
   2.30000005E-03  -3.47237103E-03
   2.34999997E-03  -3.48395552E-03
   2.40000011E-03  -3.49491299E-03
   2.45000003E-03  -3.50516080E-03
   2.49999994E-03  -3.51466960E-03
   2.55000009E-03  -3.52345617E-03
   2.60000001E-03  -3.53159080E-03
   2.64999992E-03  -3.53916292E-03
   2.70000007E-03  -3.54622491E-03
   2.74999999E-03  -3.55277327E-03
   2.79999990E-03  -3.55872675E-03