  -3.99999991E-02   0.00000000    
  -3.99499983E-02   0.00000000    
  -3.99000011E-02   0.00000000    
  -3.98500003E-02   0.00000000    
  -3.97999994E-02   0.00000000    
  -3.97499986E-02  -2.20252773E-23
  -3.97000015E-02  -1.94377334E-22
  -3.96500006E-02  -8.90068755E-22
  -3.95999998E-02  -2.77322155E-21
  -3.95499989E-02  -6.46869941E-21
  -3.95000018E-02  -1.16178446E-20
  -3.94500010E-02  -1.54625938E-20
  -3.94000001E-02  -1.17316530E-20
  -3.93499993E-02   8.90233747E-21
  -3.92999984E-02   5.57183691E-20
  -3.92500013E-02   1.32342345E-19
  -3.92000005E-02   2.30754414E-19
  -3.91499996E-02   3.28661476E-19
  -3.90999988E-02   3.93858973E-19
  -3.90500017E-02   3.96429772E-19
  -3.90000008E-02   3.24866759E-19
  -3.89500000E-02   1.97897210E-19
  -3.88999991E-02   6.30716234E-20
  -3.88499983E-02  -2.20856367E-20
  -3.88000011E-02  -2.15436525E-20
  -3.87500003E-02   4.90003797E-20
  -3.86999995E-02   1.10518787E-19
  -3.86499986E-02   3.95264572E-20
  -3.86000015E-02  -2.84632513E-19
  -3.85500006E-02  -9.22725247E-19
  -3.84999998E-02  -1.83805508E-18
  -3.84499989E-02  -2.90468794E-18
  -3.84000018E-02  -3.96923320E-18
  -3.83500010E-02  -4.94598999E-18
  -3.83000001E-02  -5.90139269E-18
  -3.82499993E-02  -7.07849221E-18
  -3.81999984E-02  -8.83322105E-18
  -3.81500013E-02  -1.14953869E-17
  -3.81000005E-02  -1.52101541E-17
  -3.80499996E-02  -1.98369740E-17
  -3.79999988E-02  -2.49675650E-17
  -3.79500017E-02  -3.00743978E-17
  -3.79000008E-02  -3.47368973E-17
  -3.78500000E-02  -3.88447324E-17
  -3.77999991E-02  -4.26731923E-17
  -3.77499983E-02  -4.67739832E-17
  -3.77000012E-02  -5.17090916E-17
  -3.76500003E-02  -5.77382722E-17
  -3.75999995E-02  -6.46083446E-17
  -3.75499986E-02  -7.15598712E-17
  -3.75000015E-02  -7.75712641E-17
  -3.74500006E-02  -8.17449527E-17
  -3.73999998E-02  -8.36616229E-17
  -3.73499990E-02  -8.35299688E-17
  -3.73000018E-02  -8.20449877E-17
  -3.72500010E-02  -8.00013288E-17
  -3.72000001E-02  -7.78258239E-17
  -3.71499993E-02  -7.52391177E-17
  -3.70999984E-02  -7.12037270E-17
  -3.70500013E-02  -6.41878060E-17
  -3.70000005E-02  -5.26312955E-17
  -3.69499996E-02  -3.54125880E-17
  -3.68999988E-02  -1.21251186E-17
  -3.68500017E-02   1.69256076E-17
  -3.68000008E-02   5.09602153E-17
  -3.67500000E-02   8.90605050E-17
  -3.66999991E-02   1.30456269E-16
  -3.66499983E-02   1.74688475E-16
  -3.66000012E-02   2.21664075E-16
  -3.65500003E-02   2.71663398E-16
  -3.64999995E-02   3.25331167E-16
  -3.64499986E-02   3.83606531E-16
  -3.64000015E-02   4.47491794E-16
  -3.63500006E-02   5.17598699E-16
  -3.62999998E-02   5.93553044E-16
  -3.62499990E-02   6.73522801E-16
  -3.62000018E-02   7.54226565E-16
  -3.61500010E-02   8.31672640E-16
  -3.61000001E-02   9.02537216E-16
  -3.60499993E-02   9.65660970E-16
  -3.59999985E-02   1.02285189E-15
  -3.59500013E-02   1.07828734E-15
  -3.59000005E-02   1.13637104E-15
  -3.58499996E-02   1.19873850E-15
  -3.57999988E-02   1.26181831E-15
  -3.57500017E-02   1.31647438E-15
  -3.57000008E-02   1.35055391E-15
  -3.56500000E-02   1.35380260E-15
  -3.55999991E-02   1.32315959E-15
  -3.55499983E-02   1.26569105E-15
  -3.55000012E-02   1.19696597E-15
  -3.54500003E-02   1.13454695E-15
  -3.53999995E-02   1.08879203E-15
  -3.53499986E-02   1.05513285E-15
  -3.53000015E-02   1.01222491E-15
  -3.52500007E-02   9.28322170E-16
  -3.51999998E-02   7.74491087E-16
  -3.51499990E-02   5.39440556E-16
  -3.51000018E-02   2.38795343E-16
  -3.50500010E-02  -8.70213592E-17
  -3.50000001E-02  -3.87523423E-16
  -3.49499993E-02  -6.24600189E-16
  -3.48999985E-02  -7.92908918E-16
  -3.48500013E-02  -9.27678742E-16
  -3.48000005E-02  -1.09377852E-15
  -3.47499996E-02  -1.35820706E-15
  -3.46999988E-02  -1.75685867E-15
  -3.46500017E-02  -2.27115897E-15
  -3.46000008E-02  -2.82786396E-15
  -3.45500000E-02  -3.32594411E-15
  -3.44999991E-02  -3.68158212E-15
  -3.44499983E-02  -3.87181471E-15
  -3.44000012E-02  -3.95491160E-15
  -3.43500003E-02  -4.05369894E-15
  -3.42999995E-02  -4.30432286E-15
  -3.42499986E-02  -4.79048038E-15
  -3.42000015E-02  -5.49343472E-15
  -3.41500007E-02  -6.28486970E-15
  -3.40999998E-02  -6.97246733E-15
  -3.40499990E-02  -7.38350827E-15
  -3.40000018E-02  -7.45085840E-15
  -3.39500010E-02  -7.25944251E-15
  -3.39000002E-02  -7.02482328E-15
  -3.38499993E-02  -7.00495019E-15
  -3.37999985E-02  -7.37913420E-15
  -3.37500013E-02  -8.14905919E-15
  -3.37000005E-02  -9.11325967E-15
  -3.36499996E-02  -9.93737444E-15
  -3.35999988E-02  -1.02985772E-14
  -3.35500017E-02  -1.00434297E-14
  -3.35000008E-02  -9.28395290E-15
  -3.34500000E-02  -8.37709317E-15
  -3.33999991E-02  -7.78262258E-15
  -3.33499983E-02  -7.85301101E-15
  -3.33000012E-02  -8.64862398E-15
  -3.32500003E-02  -9.87080867E-15
  -3.31999995E-02  -1.09595865E-14
  -3.31499986E-02  -1.13286015E-14
  -3.31000015E-02  -1.06402881E-14
  -3.30500007E-02  -8.99341806E-15
  -3.29999998E-02  -6.92261139E-15
  -3.29499990E-02  -5.18860535E-15
  -3.29000019E-02  -4.43654724E-15
  -3.28500010E-02  -4.87184086E-15
  -3.28000002E-02  -6.11127792E-15
  -3.27499993E-02  -7.30014922E-15
  -3.26999985E-02  -7.46799134E-15
  -3.26500013E-02  -5.97788420E-15
  -3.26000005E-02  -2.86369346E-15
  -3.25499997E-02   1.11835264E-15
  -3.24999988E-02   4.77853849E-15
  -3.24500017E-02   7.02011547E-15
  -3.24000008E-02   7.37587227E-15
  -3.23500000E-02   6.29910535E-15
  -3.22999991E-02   5.04472537E-15
  -3.22499983E-02   5.15574937E-15
  -3.22000012E-02   7.76057939E-15
  -3.21500003E-02   1.29972954E-14
  -3.20999995E-02   1.98516672E-14
  -3.20499986E-02   2.65261158E-14
  -3.20000015E-02   3.12149361E-14
  -3.19500007E-02   3.29554770E-14
  -3.18999998E-02   3.21573585E-14
  -3.18499990E-02   3.05275621E-14
  -3.18000019E-02   3.03704747E-14
  -3.17500010E-02   3.35372531E-14
  -3.17000002E-02   4.04912953E-14
  -3.16499993E-02   4.99440170E-14
  -3.15999985E-02   5.92860112E-14
  -3.15500014E-02   6.56814826E-14
  -3.15000005E-02   6.73676135E-14
  -3.14499997E-02   6.45627621E-14
  -3.13999988E-02   5.95198126E-14
  -3.13500017E-02   5.56253685E-14
  -3.13000008E-02   5.58875354E-14
  -3.12500000E-02   6.14735923E-14
  -3.11999992E-02   7.09911527E-14
  -3.11500002E-02   8.09138726E-14
  -3.10999993E-02   8.70461201E-14
  -3.10500003E-02   8.64223312E-14
  -3.09999995E-02   7.87824734E-14
  -3.09500005E-02   6.68948336E-14
  -3.08999997E-02   5.54817524E-14
  -3.08500007E-02   4.91417548E-14
  -3.07999998E-02   5.01656449E-14
  -3.07500008E-02   5.72646788E-14
  -3.07000000E-02   6.58800813E-14
  -3.06499992E-02   7.00521252E-14
  -3.06000002E-02   6.50926050E-14
  -3.05499993E-02   4.98692511E-14
  -3.05000003E-02   2.76018595E-14
  -3.04499995E-02   4.68472747E-15
  -3.04000005E-02  -1.20611698E-14
  -3.03499997E-02  -1.85369417E-14
  -3.03000007E-02  -1.54718852E-14
  -3.02499998E-02  -8.42554261E-15
  -3.02000009E-02  -5.53159144E-15
  -3.01500000E-02  -1.38747088E-14
  -3.00999992E-02  -3.60948454E-14
  -3.00500002E-02  -6.88209526E-14
  -2.99999993E-02  -1.03795045E-13
  -2.99500003E-02  -1.31351662E-13
  -2.98999995E-02  -1.44794916E-13
  -2.98500005E-02  -1.43694748E-13
  -2.97999997E-02  -1.34491769E-13
  -2.97500007E-02  -1.27943852E-13
  -2.96999998E-02  -1.34387279E-13
  -2.96500009E-02  -1.58869269E-13
  -2.96000000E-02  -1.98406423E-13
  -2.95499992E-02  -2.42785392E-13
  -2.95000002E-02  -2.78768680E-13
  -2.94499993E-02  -2.95976731E-13
  -2.94000003E-02  -2.91826486E-13
  -2.93499995E-02  -2.73174983E-13
  -2.93000005E-02  -2.53694364E-13
  -2.92499997E-02  -2.47924701E-13
  -2.92000007E-02  -2.64550182E-13
  -2.91499998E-02  -3.01965050E-13
  -2.91000009E-02  -3.48326321E-13
  -2.90500000E-02  -3.86346554E-13
  -2.89999992E-02  -4.00900613E-13
  -2.89500002E-02  -3.86099301E-13
  -2.88999993E-02  -3.48525543E-13
  -2.88500004E-02  -3.04903509E-13
  -2.87999995E-02  -2.74942937E-13
  -2.87500005E-02  -2.72374137E-13
  -2.86999997E-02  -2.98206419E-13
  -2.86500007E-02  -3.39452370E-13
  -2.85999998E-02  -3.74227830E-13
  -2.85500009E-02  -3.81247442E-13
  -2.85000000E-02  -3.49593022E-13
  -2.84499992E-02  -2.84269082E-13
  -2.84000002E-02  -2.04745902E-13
  -2.83499993E-02  -1.36763823E-13
  -2.83000004E-02  -1.00792916E-13
  -2.82499995E-02  -1.02273902E-13
  -2.82000005E-02  -1.28232115E-13
  -2.81499997E-02  -1.52178739E-13
  -2.81000007E-02  -1.45505420E-13
  -2.80499998E-02  -9.04929276E-14
  -2.80000009E-02   1.09547618E-14
  -2.79500000E-02   1.37095589E-13
  -2.78999992E-02   2.55213954E-13
  -2.78500002E-02   3.35985769E-13
  -2.77999993E-02   3.67047918E-13
  -2.77500004E-02   3.59506777E-13
  -2.76999995E-02   3.44028300E-13
  -2.76500005E-02   3.57752781E-13
  -2.75999997E-02   4.27548974E-13
  -2.75500007E-02   5.57083513E-13
  -2.74999999E-02   7.23822369E-13
  -2.74500009E-02   8.87843293E-13
  -2.74000000E-02   1.00902836E-12
  -2.73499992E-02   1.06519708E-12
  -2.73000002E-02   1.06293273E-12
  -2.72499993E-02   1.03578604E-12
  -2.72000004E-02   1.03004476E-12
  -2.71499995E-02   1.08395346E-12
  -2.71000005E-02   1.20955242E-12
  -2.70499997E-02   1.38555974E-12
  -2.70000007E-02   1.56509170E-12
  -2.69499999E-02   1.69542353E-12
  -2.69000009E-02   1.74136595E-12
  -2.68500000E-02   1.70177045E-12
  -2.67999992E-02   1.61131330E-12
  -2.67500002E-02   1.52603960E-12
  -2.66999993E-02   1.49848851E-12
  -2.66500004E-02   1.55323736E-12
  -2.65999995E-02   1.67403201E-12
  -2.65500005E-02   1.80890589E-12
  -2.64999997E-02   1.89180551E-12
  -2.64500007E-02   1.87164889E-12
  -2.63999999E-02   1.73593887E-12
  -2.63500009E-02   1.51793877E-12
  -2.63000000E-02   1.28339104E-12
  -2.62499992E-02   1.10188172E-12
  -2.62000002E-02   1.01517167E-12
  -2.61499994E-02   1.01675526E-12
  -2.61000004E-02   1.05245207E-12
  -2.60499995E-02   1.04272027E-12
  -2.60000005E-02   9.17541542E-13
  -2.59499997E-02   6.48609313E-13
  -2.59000007E-02   2.64091673E-13
  -2.58499999E-02  -1.61502471E-13
  -2.58000009E-02  -5.38855256E-13
  -2.57500000E-02  -8.03408121E-13
  -2.56999992E-02  -9.45372253E-13
  -2.56500002E-02  -1.01615396E-12
  -2.55999994E-02  -1.10725307E-12
  -2.55500004E-02  -1.31000560E-12
  -2.54999995E-02  -1.67358792E-12
  -2.54500005E-02  -2.18023950E-12
  -2.53999997E-02  -2.74967592E-12
  -2.53500007E-02  -3.27194456E-12
  -2.52999999E-02  -3.65506106E-12
  -2.52500009E-02  -3.86648829E-12
  -2.52000000E-02  -3.94942109E-12
  -2.51499992E-02  -4.00543661E-12
  -2.51000002E-02  -4.14995555E-12
  -2.50499994E-02  -4.45952346E-12
  -2.50000004E-02  -4.93443697E-12
  -2.49499995E-02  -5.49426173E-12
  -2.49000005E-02  -6.00964764E-12
  -2.48499997E-02  -6.35756031E-12
  -2.48000007E-02  -6.47593090E-12
  -2.47499999E-02  -6.39299291E-12
  -2.47000009E-02  -6.21700998E-12
  -2.46500000E-02  -6.08942540E-12
  -2.45999992E-02  -6.12113095E-12
  -2.45500002E-02  -6.33998192E-12
  -2.44999994E-02  -6.67374966E-12
  -2.44500004E-02  -6.97766324E-12
  -2.43999995E-02  -7.09591587E-12
  -2.43500005E-02  -6.93072162E-12
  -2.42999997E-02  -6.48804361E-12
  -2.42500007E-02  -5.87840453E-12
  -2.41999999E-02  -5.27062682E-12
  -2.41500009E-02  -4.81751921E-12
  -2.41000000E-02  -4.58595575E-12
  -2.40499992E-02  -4.52309544E-12
  -2.40000002E-02  -4.47542871E-12
  -2.39499994E-02  -4.25413784E-12
  -2.39000004E-02  -3.71909708E-12
  -2.38499995E-02  -2.84433219E-12
  -2.38000005E-02  -1.73468304E-12
  -2.37499997E-02  -5.84254541E-13
  -2.37000007E-02   4.06845862E-13
  -2.36499999E-02   1.12152171E-12
  -2.36000009E-02   1.58050580E-12
  -2.35500000E-02   1.93693130E-12
  -2.34999992E-02   2.41079270E-12
  -2.34500002E-02   3.19055980E-12
  -2.33999994E-02   4.34507985E-12
  -2.33500004E-02   5.78589173E-12
  -2.32999995E-02   7.29887678E-12
  -2.32500006E-02   8.63358950E-12
  -2.31999997E-02   9.61217043E-12
  -2.31500007E-02   1.02094696E-11
  -2.30999999E-02   1.05671930E-11
  -2.30500009E-02   1.09332491E-11
  -2.30000000E-02   1.15508826E-11
  -2.29499992E-02   1.25457526E-11
  -2.29000002E-02   1.38618006E-11
  -2.28499994E-02   1.52766497E-11
  -2.28000004E-02   1.64925209E-11
  -2.27499995E-02   1.72644451E-11
  -2.27000006E-02   1.75093742E-11
  -2.26499997E-02   1.73462789E-11
  -2.26000007E-02   1.70467095E-11
  -2.25499999E-02   1.69148653E-11
  -2.25000009E-02   1.71487390E-11
  -2.24500000E-02   1.77442436E-11
  -2.23999992E-02   1.84871320E-11
  -2.23500002E-02   1.90394818E-11
  -2.22999994E-02   1.90851692E-11
  -2.22500004E-02   1.84708863E-11
  -2.21999995E-02   1.72790254E-11
  -2.21500006E-02   1.57972090E-11
  -2.20999997E-02   1.43946166E-11
  -2.20500007E-02   1.33576266E-11
  -2.19999999E-02   1.27574132E-11
  -2.19500009E-02   1.24103219E-11
  -2.19000001E-02   1.19520713E-11
  -2.18499992E-02   1.09962837E-11
  -2.18000002E-02   9.30881153E-12
  -2.17499994E-02   6.91986963E-12
  -2.17000004E-02   4.12135647E-12
  -2.16499995E-02   1.34668101E-12
  -2.16000006E-02  -1.01670560E-12
  -2.15499997E-02  -2.79988836E-12
  -2.15000007E-02  -4.13194002E-12
  -2.14499999E-02  -5.38735679E-12
  -2.14000009E-02  -7.02079497E-12
  -2.13500001E-02  -9.35982108E-12
  -2.12999992E-02  -1.24476566E-11
  -2.12500002E-02  -1.60083787E-11
  -2.11999994E-02  -1.95542298E-11
  -2.11500004E-02  -2.25913576E-11
  -2.10999995E-02  -2.48344817E-11
  -2.10500006E-02  -2.63341519E-11
  -2.09999997E-02  -2.74565214E-11
  -2.09500007E-02  -2.87200888E-11
  -2.08999999E-02  -3.05584100E-11
  -2.08500009E-02  -3.31133627E-11
  -2.08000001E-02  -3.61530528E-11
  -2.07499992E-02  -3.91552971E-11
  -2.07000002E-02  -4.15242736E-11
  -2.06499994E-02  -4.28470662E-11
  -2.06000004E-02  -4.30758346E-11
  -2.05499995E-02  -4.25514415E-11
  -2.05000006E-02  -4.18530627E-11
  -2.04499997E-02  -4.15362710E-11
  -2.04000007E-02  -4.18741881E-11
  -2.03499999E-02  -4.27183219E-11
  -2.03000009E-02  -4.35453826E-11
  -2.02500001E-02  -4.36746542E-11
  -2.01999992E-02  -4.25632307E-11
  -2.01500002E-02  -4.00485790E-11
  -2.00999994E-02  -3.64278642E-11
  -2.00500004E-02  -3.23335941E-11
  -1.99999996E-02  -2.84556493E-11
  -1.99500006E-02  -2.52304254E-11
  -1.98999997E-02  -2.26359678E-11
  -1.98500007E-02  -2.01884447E-11
  -1.97999999E-02  -1.71473113E-11
  -1.97500009E-02  -1.28428821E-11
  -1.97000001E-02  -6.98252090E-12
  -1.96499992E-02   2.02828151E-13
  -1.96000002E-02   8.04206181E-12
  -1.95499994E-02   1.57061204E-11
  -1.95000004E-02   2.25675555E-11
  -1.94499996E-02   2.84778885E-11
  -1.94000006E-02   3.38357641E-11
  -1.93499997E-02   3.94095902E-11
  -1.93000007E-02   4.59877240E-11
  -1.92499999E-02   5.40087974E-11
  -1.92000009E-02   6.33378766E-11
  -1.91500001E-02   7.32928648E-11
  -1.90999992E-02   8.29160560E-11
  -1.90500002E-02   9.13751019E-11
  -1.89999994E-02   9.83167298E-11
  -1.89500004E-02   1.04013000E-10
  -1.88999996E-02   1.09228980E-10
  -1.88500006E-02   1.14864188E-10
  -1.87999997E-02   1.21523153E-10
  -1.87500007E-02   1.29206049E-10
  -1.86999999E-02   1.37261869E-10
  -1.86500009E-02   1.44631404E-10
  -1.86000001E-02   1.50278498E-10
  -1.85499992E-02   1.53620727E-10
  -1.85000002E-02   1.54765936E-10
  -1.84499994E-02   1.54443763E-10
  -1.84000004E-02   1.53655713E-10
  -1.83499996E-02   1.53193819E-10
  -1.83000006E-02   1.53241184E-10
  -1.82499997E-02   1.53235646E-10
  -1.82000007E-02   1.52064306E-10
  -1.81499999E-02   1.48509594E-10
  -1.81000009E-02   1.41752679E-10
  -1.80500001E-02   1.31709837E-10
  -1.79999992E-02   1.19046994E-10
  -1.79500002E-02   1.04858414E-10
  -1.78999994E-02   9.01461544E-11
  -1.78500004E-02   7.53292290E-11
  -1.77999996E-02   6.00036063E-11
  -1.77500006E-02   4.30662866E-11
  -1.76999997E-02   2.31564715E-11
  -1.76500008E-02  -7.77098600E-13
  -1.75999999E-02  -2.90339940E-11
  -1.75500009E-02  -6.10460987E-11
  -1.75000001E-02  -9.56470805E-11
  -1.74499992E-02  -1.31614691E-10
  -1.74000002E-02  -1.68248540E-10
  -1.73499994E-02  -2.05725340E-10
  -1.73000004E-02  -2.45067105E-10
  -1.72499996E-02  -2.87728313E-10
  -1.72000006E-02  -3.34978711E-10
  -1.71499997E-02  -3.87354537E-10
  -1.71000008E-02  -4.44424830E-10
  -1.70499999E-02  -5.04984610E-10
  -1.70000009E-02  -5.67596969E-10
  -1.69500001E-02  -6.31249442E-10
  -1.68999992E-02  -6.95830338E-10
  -1.68500002E-02  -7.62211461E-10
  -1.67999994E-02  -8.31889557E-10
  -1.67500004E-02  -9.06338560E-10
  -1.66999996E-02  -9.86358106E-10
  -1.66500006E-02  -1.07170905E-09
  -1.65999997E-02  -1.16120524E-09
  -1.65500008E-02  -1.25323019E-09
  -1.64999999E-02  -1.34645450E-09
  -1.64500009E-02  -1.44043777E-09
  -1.64000001E-02  -1.53584312E-09
  -1.63499992E-02  -1.63416092E-09
  -1.63000003E-02  -1.73705450E-09
  -1.62499994E-02  -1.84561677E-09
  -1.62000004E-02  -1.95986627E-09
  -1.61499996E-02  -2.07871276E-09
  -1.61000006E-02  -2.20042029E-09
  -1.60499997E-02  -2.32336483E-09
  -1.60000008E-02  -2.44675769E-09
  -1.59499999E-02  -2.57100674E-09
  -1.59000009E-02  -2.69755018E-09
  -1.58500001E-02  -2.82822699E-09
  -1.57999992E-02  -2.96445624E-09
  -1.57500003E-02  -3.10659165E-09
  -1.56999994E-02  -3.25373972E-09
  -1.56500004E-02  -3.40413675E-09
  -1.55999996E-02  -3.55591889E-09
  -1.55499997E-02  -3.70795550E-09
  -1.54999997E-02  -3.86036936E-09
  -1.54499998E-02  -4.01450651E-09
  -1.53999999E-02  -4.17236201E-09
  -1.53500000E-02  -4.33570513E-09
  -1.53000001E-02  -4.50529836E-09
  -1.52500002E-02  -4.68054751E-09
  -1.52000003E-02  -4.85976370E-09
  -1.51500003E-02  -5.04091480E-09
  -1.51000004E-02  -5.22254906E-09
  -1.50499996E-02  -5.40447864E-09
  -1.49999997E-02  -5.58790836E-09
  -1.49499997E-02  -5.77495252E-09
  -1.48999998E-02  -5.96773786E-09
  -1.48499999E-02  -6.16749052E-09
  -1.48000000E-02  -6.37401643E-09
  -1.47500001E-02  -6.58580923E-09
  -1.47000002E-02  -6.80075196E-09
  -1.46500003E-02  -7.01710468E-09
  -1.46000003E-02  -7.23434734E-09
  -1.45500004E-02  -7.45348938E-09
  -1.44999996E-02  -7.67671082E-09
  -1.44499997E-02  -7.90647015E-09
  -1.43999998E-02  -8.14448953E-09
  -1.43499998E-02  -8.39105052E-09
  -1.42999999E-02  -8.64492922E-09
  -1.42500000E-02  -8.90400464E-09
  -1.42000001E-02  -9.16628551E-09
  -1.41500002E-02  -9.43089429E-09
  -1.41000003E-02  -9.69857616E-09
  -1.40500003E-02  -9.97148852E-09
  -1.40000004E-02  -1.02523705E-08
  -1.39499996E-02  -1.05434381E-08
  -1.38999997E-02  -1.08455041E-08
  -1.38499998E-02  -1.11577165E-08
  -1.37999998E-02  -1.14780381E-08
  -1.37499999E-02  -1.18042687E-08
  -1.37000000E-02  -1.21351560E-08
  -1.36500001E-02  -1.24711059E-08
  -1.36000002E-02  -1.28141622E-08
  -1.35500003E-02  -1.31672575E-08
  -1.35000004E-02  -1.35330698E-08
  -1.34500004E-02  -1.39129659E-08
  -1.33999996E-02  -1.43065364E-08
  -1.33499997E-02  -1.47119081E-08
  -1.32999998E-02  -1.51267265E-08
  -1.32499998E-02  -1.55493556E-08
  -1.31999999E-02  -1.59797882E-08
  -1.31500000E-02  -1.64198397E-08
  -1.31000001E-02  -1.68725318E-08
  -1.30500002E-02  -1.73409322E-08
  -1.30000003E-02  -1.78269737E-08
  -1.29500004E-02  -1.83307485E-08
  -1.29000004E-02  -1.88506402E-08
  -1.28499996E-02  -1.93841974E-08
  -1.27999997E-02  -1.99294181E-08
  -1.27499998E-02  -2.04858370E-08
  -1.26999998E-02  -2.10549373E-08
  -1.26499999E-02  -2.16397193E-08
  -1.26000000E-02  -2.22435759E-08
  -1.25500001E-02  -2.28689849E-08
  -1.25000002E-02  -2.35166002E-08
  -1.24500003E-02  -2.41851481E-08
  -1.24000004E-02  -2.48721719E-08
  -1.23500004E-02  -2.55753410E-08
  -1.22999996E-02  -2.62936943E-08
  -1.22499997E-02  -2.70283138E-08
  -1.21999998E-02  -2.77820664E-08
  -1.21499998E-02  -2.85585777E-08
  -1.20999999E-02  -2.93608604E-08
  -1.20500000E-02  -3.01901828E-08
  -1.20000001E-02  -3.10457153E-08
  -1.19500002E-02  -3.19251328E-08
  -1.19000003E-02  -3.28258665E-08
  -1.18500004E-02  -3.37464847E-08
  -1.18000004E-02  -3.46875986E-08
  -1.17499996E-02  -3.56518690E-08
  -1.16999997E-02  -3.66430797E-08
  -1.16499998E-02  -3.76647336E-08
  -1.15999999E-02  -3.87187491E-08
  -1.15499999E-02  -3.98048599E-08
  -1.15000000E-02  -4.09209981E-08
  -1.14500001E-02  -4.20644675E-08
  -1.14000002E-02  -4.32334168E-08
  -1.13500003E-02  -4.44279848E-08
  -1.13000004E-02  -4.56505447E-08
  -1.12500004E-02  -4.69049652E-08
  -1.11999996E-02  -4.81952220E-08
  -1.11499997E-02  -4.95239334E-08
  -1.10999998E-02  -5.08915257E-08
  -1.10499999E-02  -5.22963397E-08
  -1.09999999E-02  -5.37357145E-08
  -1.09500000E-02  -5.52074724E-08
  -1.09000001E-02  -5.67112757E-08
  -1.08500002E-02  -5.82491531E-08
  -1.08000003E-02  -5.98249770E-08
  -1.07500004E-02  -6.14431173E-08
  -1.07000005E-02  -6.31069312E-08
  -1.06499996E-02  -6.48175913E-08
  -1.05999997E-02  -6.65740103E-08
  -1.05499998E-02  -6.83736943E-08
  -1.04999999E-02  -7.02142842E-08
  -1.04499999E-02  -7.20950197E-08
  -1.04000000E-02  -7.40175565E-08
  -1.03500001E-02  -7.59856960E-08
  -1.03000002E-02  -7.80041702E-08
  -1.02500003E-02  -8.00770223E-08
  -1.02000004E-02  -8.22063058E-08
  -1.01500005E-02  -8.43916368E-08
  -1.00999996E-02  -8.66308767E-08
  -1.00499997E-02  -8.89215741E-08
  -9.99999978E-03  -9.12626064E-08
  -9.94999986E-03  -9.36552169E-08
  -9.89999995E-03  -9.61030509E-08
  -9.85000003E-03  -9.86111175E-08
  -9.80000012E-03  -1.01184121E-07
  -9.75000020E-03  -1.03824974E-07
  -9.70000029E-03  -1.06534095E-07
  -9.65000037E-03  -1.09309845E-07
  -9.60000046E-03  -1.12149849E-07
  -9.54999961E-03  -1.15052671E-07
  -9.49999969E-03  -1.18019145E-07
  -9.44999978E-03  -1.21052679E-07
  -9.39999986E-03  -1.24158390E-07
  -9.34999995E-03  -1.27341579E-07
  -9.30000003E-03  -1.30606054E-07
  -9.25000012E-03  -1.33953151E-07
  -9.20000020E-03  -1.37381861E-07
  -9.15000029E-03  -1.40890023E-07
  -9.10000037E-03  -1.44476004E-07
  -9.05000046E-03  -1.48140259E-07
  -8.99999961E-03  -1.51885871E-07
  -8.94999970E-03  -1.55718027E-07
  -8.89999978E-03  -1.59642497E-07
  -8.84999987E-03  -1.63663927E-07
  -8.79999995E-03  -1.67784577E-07
  -8.75000004E-03  -1.72004235E-07
  -8.70000012E-03  -1.76321052E-07
  -8.65000021E-03  -1.80733323E-07
  -8.60000029E-03  -1.85241106E-07
  -8.55000038E-03  -1.89847114E-07
  -8.50000046E-03  -1.94556449E-07
  -8.44999962E-03  -1.99375279E-07
  -8.39999970E-03  -2.04309003E-07
  -8.34999979E-03  -2.09360920E-07
  -8.29999987E-03  -2.14531653E-07
  -8.24999996E-03  -2.19819810E-07
  -8.20000004E-03  -2.25223772E-07
  -8.15000013E-03  -2.30743282E-07
  -8.10000021E-03  -2.36380686E-07
  -8.05000030E-03  -2.42140914E-07
  -8.00000038E-03  -2.48030318E-07
  -7.95000046E-03  -2.54055124E-07
  -7.89999962E-03  -2.60219537E-07
  -7.84999970E-03  -2.66525205E-07
  -7.79999979E-03  -2.72971477E-07
  -7.74999987E-03  -2.79556787E-07
  -7.69999996E-03  -2.86280738E-07
  -7.65000004E-03  -2.93145234E-07
  -7.60000013E-03  -3.00154937E-07
  -7.55000021E-03  -3.07316384E-07
  -7.49999983E-03  -3.14636367E-07
  -7.44999992E-03  -3.22120144E-07
  -7.40000000E-03  -3.29770387E-07
  -7.35000009E-03  -3.37587267E-07
  -7.30000017E-03  -3.45569731E-07
  -7.24999979E-03  -3.53717155E-07
  -7.19999988E-03  -3.62031216E-07
  -7.14999996E-03  -3.70516204E-07
  -7.10000005E-03  -3.79178744E-07
  -7.05000013E-03  -3.88026194E-07
  -7.00000022E-03  -3.97064753E-07
  -6.94999984E-03  -4.06298255E-07
  -6.89999992E-03  -4.15727698E-07
  -6.85000001E-03  -4.25352709E-07
  -6.80000009E-03  -4.35172723E-07
  -6.75000018E-03  -4.45189073E-07
  -6.69999979E-03  -4.55405797E-07
  -6.64999988E-03  -4.65829459E-07
  -6.59999996E-03  -4.76467704E-07
  -6.55000005E-03  -4.87327725E-07
  -6.50000013E-03  -4.98414522E-07
  -6.45000022E-03  -5.09730285E-07
  -6.39999984E-03  -5.21275410E-07
  -6.34999992E-03  -5.33049558E-07
  -6.30000001E-03  -5.45053979E-07
  -6.25000009E-03  -5.57292253E-07
  -6.20000018E-03  -5.69770918E-07
  -6.14999980E-03  -5.82497989E-07
  -6.09999988E-03  -5.95481310E-07
  -6.04999997E-03  -6.08727191E-07
  -6.00000005E-03  -6.22238986E-07
  -5.95000014E-03  -6.36017830E-07
  -5.90000022E-03  -6.50063953E-07
  -5.84999984E-03  -6.64378490E-07
  -5.79999993E-03  -6.78964795E-07
  -5.75000001E-03  -6.93829179E-07
  -5.70000010E-03  -7.08979712E-07
  -5.65000018E-03  -7.24425149E-07
  -5.59999980E-03  -7.40172538E-07
  -5.54999989E-03  -7.56226768E-07
  -5.49999997E-03  -7.72589942E-07
  -5.45000006E-03  -7.89262799E-07
  -5.40000014E-03  -8.06246533E-07
  -5.35000023E-03  -8.23544326E-07
  -5.29999984E-03  -8.41162091E-07
  -5.24999993E-03  -8.59108127E-07
  -5.20000001E-03  -8.77391585E-07
  -5.15000010E-03  -8.96020481E-07
  -5.10000018E-03  -9.15000840E-07
  -5.04999980E-03  -9.34335901E-07
  -4.99999989E-03  -9.54027314E-07
  -4.94999997E-03  -9.74076102E-07
  -4.90000006E-03  -9.94485504E-07
  -4.85000014E-03  -1.01526109E-06
  -4.80000023E-03  -1.03641071E-06
  -4.74999985E-03  -1.05794402E-06
  -4.69999993E-03  -1.07987012E-06
  -4.65000002E-03  -1.10219582E-06
  -4.60000010E-03  -1.12492557E-06
  -4.55000019E-03  -1.14806176E-06
  -4.49999981E-03  -1.17160573E-06
  -4.44999989E-03  -1.19556034E-06
  -4.39999998E-03  -1.21993071E-06
  -4.35000006E-03  -1.24472456E-06
  -4.30000015E-03  -1.26995144E-06
  -4.25000023E-03  -1.29562113E-06
  -4.19999985E-03  -1.32174159E-06
  -4.14999994E-03  -1.34831851E-06
  -4.10000002E-03  -1.37535483E-06
  -4.05000011E-03  -1.40285260E-06
  -4.00000019E-03  -1.43081411E-06
  -3.94999981E-03  -1.45924434E-06
  -3.89999989E-03  -1.48815036E-06
  -3.84999998E-03  -1.51754148E-06
  -3.80000006E-03  -1.54742793E-06
  -3.74999992E-03  -1.57781858E-06
  -3.70000000E-03  -1.60871980E-06
  -3.65000009E-03  -1.64013579E-06
  -3.59999994E-03  -1.67206872E-06
  -3.55000002E-03  -1.70452108E-06
  -3.50000011E-03  -1.73749709E-06
  -3.44999996E-03  -1.77100310E-06
  -3.40000005E-03  -1.80504810E-06
  -3.34999990E-03  -1.83964210E-06
  -3.29999998E-03  -1.87479463E-06
  -3.25000007E-03  -1.91051322E-06
  -3.19999992E-03  -1.94680274E-06
  -3.15000000E-03  -1.98366615E-06
  -3.10000009E-03  -2.02110550E-06
  -3.04999994E-03  -2.05912443E-06
  -3.00000003E-03  -2.09772838E-06
  -2.95000011E-03  -2.13692579E-06
  -2.89999996E-03  -2.17672641E-06
  -2.85000005E-03  -2.21714072E-06
  -2.79999990E-03  -2.25817621E-06
  -2.74999999E-03  -2.29983925E-06
  -2.70000007E-03  -2.34213280E-06
  -2.64999992E-03  -2.38505936E-06
  -2.60000001E-03  -2.42862120E-06
  -2.55000009E-03  -2.47282310E-06
  -2.49999994E-03  -2.51767210E-06
  -2.45000003E-03  -2.56317799E-06
  -2.40000011E-03  -2.60935076E-06
  -2.34999997E-03  -2.65619951E-06
  -2.30000005E-03  -2.70373016E-06
  -2.24999990E-03  -2.75194657E-06
  -2.19999999E-03  -2.80085033E-06
  -2.15000007E-03  -2.85044302E-06
  -2.09999993E-03  -2.90072853E-06
  -2.05000001E-03  -2.95171299E-06
  -2.00000009E-03  -3.00340480E-06
  -1.94999995E-03  -3.05581375E-06
  -1.90000003E-03  -3.10894984E-06
  -1.85000000E-03  -3.16281898E-06
  -1.79999997E-03  -3.21742573E-06
  -1.75000005E-03  -3.27277098E-06
  -1.70000002E-03  -3.32885634E-06
  -1.64999999E-03  -3.38568429E-06
  -1.59999996E-03  -3.44325917E-06
  -1.55000004E-03  -3.50158803E-06
  -1.50000001E-03  -3.56068017E-06
  -1.44999998E-03  -3.62054448E-06
  -1.39999995E-03  -3.68118799E-06
  -1.35000004E-03  -3.74261504E-06
  -1.30000000E-03  -3.80482720E-06
  -1.24999997E-03  -3.86782449E-06
  -1.20000006E-03  -3.93160826E-06
  -1.15000003E-03  -3.99617966E-06
  -1.09999999E-03  -4.06154368E-06
  -1.04999996E-03  -4.12771033E-06
  -1.00000005E-03  -4.19468688E-06
  -9.50000016E-04  -4.26248062E-06
  -8.99999985E-04  -4.33109608E-06
  -8.50000011E-04  -4.40053554E-06
  -7.99999980E-04  -4.47079674E-06
  -7.50000007E-04  -4.54187830E-06
  -6.99999975E-04  -4.61378113E-06
  -6.50000002E-04  -4.68650796E-06
  -6.00000028E-04  -4.76006517E-06
  -5.49999997E-04  -4.83446047E-06
  -5.00000024E-04  -4.90970024E-06
  -4.49999992E-04  -4.98578947E-06
  -3.99999990E-04  -5.06272954E-06
  -3.49999988E-04  -5.14051817E-06
  -3.00000014E-04  -5.21915217E-06
  -2.50000012E-04  -5.29862791E-06
  -1.99999995E-04  -5.37894493E-06
  -1.50000007E-04  -5.46010824E-06
  -9.99999975E-05  -5.54212238E-06
  -4.99999987E-05  -5.62499554E-06
   0.00000000      -5.70873226E-06
   4.99999987E-05  -5.79333255E-06
   9.99999975E-05  -5.87879276E-06
   1.50000007E-04  -5.96510790E-06
   1.99999995E-04  -6.05227024E-06
   2.50000012E-04  -6.14027704E-06
   3.00000014E-04  -6.22912967E-06
   3.49999988E-04  -6.31883040E-06
   3.99999990E-04  -6.40938697E-06
   4.49999992E-04  -6.50080074E-06
   5.00000024E-04  -6.59307307E-06
   5.49999997E-04  -6.68619850E-06
   6.00000028E-04  -6.78017068E-06
   6.50000002E-04  -6.87497868E-06
   6.99999975E-04  -6.97061478E-06
   7.50000007E-04  -7.06707760E-06
   7.99999980E-04  -7.16436762E-06
   8.50000011E-04  -7.26248800E-06
   8.99999985E-04  -7.36144011E-06
   9.50000016E-04  -7.46122259E-06
   1.00000005E-03  -7.56183090E-06
   1.04999996E-03  -7.66325229E-06
   1.09999999E-03  -7.76547677E-06
   1.15000003E-03  -7.86849068E-06
   1.20000006E-03  -7.97228859E-06
   1.24999997E-03  -8.07686683E-06
   1.30000000E-03  -8.18222543E-06
   1.35000004E-03  -8.28836437E-06
   1.39999995E-03  -8.39527820E-06
   1.44999998E-03  -8.50296237E-06
   1.50000001E-03  -8.61140325E-06
   1.55000004E-03  -8.72058536E-06
   1.59999996E-03  -8.83049324E-06
   1.64999999E-03  -8.94111599E-06
   1.70000002E-03  -9.05244542E-06
   1.75000005E-03  -9.16447607E-06
   1.79999997E-03  -9.27720339E-06
   1.85000000E-03  -9.39062375E-06
   1.90000003E-03  -9.50472622E-06
   1.94999995E-03  -9.61949991E-06
   2.00000009E-03  -9.73492297E-06
   2.05000001E-03  -9.85097722E-06
   2.09999993E-03  -9.96764356E-06
   2.15000007E-03  -1.00849084E-05
   2.19999999E-03  -1.02027634E-05
   2.24999990E-03  -1.03211987E-05
   2.30000005E-03  -1.04402088E-05
   2.34999997E-03  -1.05597819E-05
   2.40000011E-03  -1.06799007E-05
   2.45000003E-03  -1.08005424E-05
   2.49999994E-03  -1.09216844E-05
   2.55000009E-03  -1.10433029E-05
   2.60000001E-03  -1.11653735E-05
   2.64999992E-03  -1.12878834E-05
   2.70000007E-03  -1.14108198E-05
   2.74999999E-03  -1.15341718E-05
   2.79999990E-03  -1.16579267E-05