  -3.99999991E-02   0.00000000    
  -3.99499983E-02   0.00000000    
  -3.99000011E-02   0.00000000    
  -3.98500003E-02   0.00000000    
  -3.97999994E-02   0.00000000    
  -3.97499986E-02   7.46067489E-24
  -3.97000015E-02   6.59075300E-23
  -3.96500006E-02   3.02209760E-22
  -3.95999998E-02   9.43427862E-22
  -3.95499989E-02   2.20689647E-21
  -3.95000018E-02   3.98200223E-21
  -3.94500010E-02   5.34823803E-21
  -3.94000001E-02   4.18562316E-21
  -3.93499993E-02  -2.69868059E-21
  -3.92999984E-02  -1.85638749E-20
  -3.92500013E-02  -4.48883583E-20
  -3.92000005E-02  -7.93720511E-20
  -3.91499996E-02  -1.15024789E-19
  -3.90999988E-02  -1.41542442E-19
  -3.90500017E-02  -1.49266538E-19
  -3.90000008E-02  -1.34464503E-19
  -3.89500000E-02  -1.03254675E-19
  -3.88999991E-02  -7.12578681E-20
  -3.88499983E-02  -5.75881527E-20
  -3.88000011E-02  -7.47165235E-20
  -3.87500003E-02  -1.18662936E-19
  -3.86999995E-02  -1.65122182E-19
  -3.86499986E-02  -1.75348603E-19
  -3.86000015E-02  -1.11169934E-19
  -3.85500006E-02   4.68017401E-20
  -3.84999998E-02   2.87083294E-19
  -3.84499989E-02   5.69745462E-19
  -3.84000018E-02   8.45841238E-19
  -3.83500010E-02   1.08747698E-18
  -3.83000001E-02   1.31462615E-18
  -3.82499993E-02   1.60317053E-18
  -3.81999984E-02   2.06529525E-18
  -3.81500013E-02   2.80630825E-18
  -3.81000005E-02   3.87531305E-18
  -3.80499996E-02   5.23368920E-18
  -3.79999988E-02   6.76044209E-18
  -3.79500017E-02   8.29785156E-18
  -3.79000008E-02   9.72100919E-18
  -3.78500000E-02   1.10002117E-17
  -3.77999991E-02   1.22240470E-17
  -3.77499983E-02   1.35660094E-17
  -3.77000012E-02   1.52033811E-17
  -3.76500003E-02   1.72223040E-17
  -3.75999995E-02   1.95541510E-17
  -3.75499986E-02   2.19779308E-17
  -3.75000015E-02   2.41942918E-17
  -3.74500006E-02   2.59416876E-17
  -3.73999998E-02   2.71021989E-17
  -3.73499990E-02   2.77455055E-17
  -3.73000018E-02   2.80858721E-17
  -3.72500010E-02   2.83669713E-17
  -3.72000001E-02   2.87238997E-17
  -3.71499993E-02   2.90843155E-17
  -3.70999984E-02   2.91540601E-17
  -3.70500013E-02   2.84944861E-17
  -3.70000005E-02   2.66569954E-17
  -3.69499996E-02   2.33158458E-17
  -3.68999988E-02   1.83451653E-17
  -3.68500017E-02   1.18168599E-17
  -3.68000008E-02   3.93469303E-18
  -3.67500000E-02  -5.05507071E-18
  -3.66999991E-02  -1.49373466E-17
  -3.66499983E-02  -2.55696698E-17
  -3.66000012E-02  -3.69008249E-17
  -3.65500003E-02  -4.89856392E-17
  -3.64999995E-02  -6.20010316E-17
  -3.64499986E-02  -7.62416143E-17
  -3.64000015E-02  -9.20564341E-17
  -3.63500006E-02  -1.09703777E-16
  -3.62999998E-02  -1.29150065E-16
  -3.62499990E-02  -1.49900678E-16
  -3.62000018E-02  -1.70982124E-16
  -3.61500010E-02  -1.91160963E-16
  -3.61000001E-02  -2.09376301E-16
  -3.60499993E-02  -2.25223943E-16
  -3.59999985E-02  -2.39235721E-16
  -3.59500013E-02  -2.52724562E-16
  -3.59000005E-02  -2.67140216E-16
  -3.58499996E-02  -2.83141118E-16
  -3.57999988E-02  -2.99813082E-16
  -3.57500017E-02  -3.14511380E-16
  -3.57000008E-02  -3.23594300E-16
  -3.56500000E-02  -3.23901429E-16
  -3.55999991E-02  -3.14383981E-16
  -3.55499983E-02  -2.97052337E-16
  -3.55000012E-02  -2.76557951E-16
  -3.54500003E-02  -2.58281998E-16
  -3.53999995E-02  -2.45568113E-16
  -3.53499986E-02  -2.37343423E-16
  -3.53000015E-02  -2.27463286E-16
  -3.52500007E-02  -2.06521164E-16
  -3.51999998E-02  -1.65752211E-16
  -3.51499990E-02  -1.01498886E-16
  -3.51000018E-02  -1.80956827E-17
  -3.50500010E-02   7.26024298E-17
  -3.50000001E-02   1.55475730E-16
  -3.49499993E-02   2.18778234E-16
  -3.48999985E-02   2.60292325E-16
  -3.48500013E-02   2.89848534E-16
  -3.48000005E-02   3.26315367E-16
  -3.47499996E-02   3.89601777E-16
  -3.46999988E-02   4.90806783E-16
  -3.46500017E-02   6.25110315E-16
  -3.46000008E-02   7.71394493E-16
  -3.45500000E-02   8.99877745E-16
  -3.44999991E-02   9.85253795E-16
  -3.44499983E-02   1.01968198E-15
  -3.44000012E-02   1.01916211E-15
  -3.43500003E-02   1.01910515E-15
  -3.42999995E-02   1.05963599E-15
  -3.42499986E-02   1.16633313E-15
  -3.42000015E-02   1.33523246E-15
  -3.41500007E-02   1.53012013E-15
  -3.40999998E-02   1.69524899E-15
  -3.40499990E-02   1.77945190E-15
  -3.40000018E-02   1.76143265E-15
  -3.39500010E-02   1.66398828E-15
  -3.39000002E-02   1.54865818E-15
  -3.38499993E-02   1.49073585E-15
  -3.37999985E-02   1.54421613E-15
  -3.37500013E-02   1.71247478E-15
  -3.37000005E-02   1.93978041E-15
  -3.36499996E-02   2.13053943E-15
  -3.35999988E-02   2.19051910E-15
  -3.35500017E-02   2.07280757E-15
  -3.35000008E-02   1.80673568E-15
  -3.34500000E-02   1.49351359E-15
  -3.33999991E-02   1.26647445E-15
  -3.33499983E-02   1.23077275E-15
  -3.33000012E-02   1.40917812E-15
  -3.32500003E-02   1.72091112E-15
  -3.31999995E-02   2.00770843E-15
  -3.31499986E-02   2.10015170E-15
  -3.31000015E-02   1.89702452E-15
  -3.30500007E-02   1.42101921E-15
  -3.29999998E-02   8.21311627E-16
  -3.29499990E-02   3.15790082E-16
  -3.29000019E-02   9.39706425E-17
  -3.28500010E-02   2.22880547E-16
  -3.28000002E-02   6.01409804E-16
  -3.27499993E-02   9.90265054E-16
  -3.26999985E-02   1.11125302E-15
  -3.26500013E-02   7.75655016E-16
  -3.26000005E-02  -1.67777176E-17
  -3.25499997E-02  -1.05870309E-15
  -3.24999988E-02  -2.01339160E-15
  -3.24500017E-02  -2.56286081E-15
  -3.24000008E-02  -2.56224777E-15
  -3.23500000E-02  -2.12727687E-15
  -3.22999991E-02  -1.60631265E-15
  -3.22499983E-02  -1.43879388E-15
  -3.22000012E-02  -1.95628654E-15
  -3.21500003E-02  -3.21527608E-15
  -3.20999995E-02  -4.94433884E-15
  -3.20499986E-02  -6.64175517E-15
  -3.20000015E-02  -7.79137920E-15
  -3.19500007E-02  -8.10523201E-15
  -3.18999998E-02  -7.67995795E-15
  -3.18499990E-02  -6.98477344E-15
  -3.18000019E-02  -6.67103752E-15
  -3.17500010E-02  -7.27745721E-15
  -3.17000002E-02  -8.96128840E-15
  -3.16499993E-02  -1.13853459E-14
  -3.15999985E-02  -1.38284388E-14
  -3.15500014E-02  -1.54869861E-14
  -3.15000005E-02  -1.58421673E-14
  -3.14499997E-02  -1.49249611E-14
  -3.13999988E-02  -1.33451311E-14
  -3.13500017E-02  -1.20502168E-14
  -3.13000008E-02  -1.19052488E-14
  -3.12500000E-02  -1.32761073E-14
  -3.11999992E-02  -1.58130616E-14
  -3.11500002E-02  -1.85528710E-14
  -3.10999993E-02  -2.03174524E-14
  -3.10500003E-02  -2.02456019E-14
  -3.09999995E-02  -1.82184573E-14
  -3.09500005E-02  -1.49701350E-14
  -3.08999997E-02  -1.18066779E-14
  -3.08500007E-02  -1.00344436E-14
  -3.07999998E-02  -1.03437580E-14
  -3.07500008E-02  -1.24337237E-14
  -3.07000000E-02  -1.50729733E-14
  -3.06499992E-02  -1.66014019E-14
  -3.06000002E-02  -1.56714072E-14
  -3.05499993E-02  -1.18995025E-14
  -3.05000003E-02  -6.11657018E-15
  -3.04499995E-02  -6.97127769E-17
  -3.04000005E-02   4.32524796E-15
  -3.03499997E-02   5.86409253E-15
  -3.03000007E-02   4.66552778E-15
  -3.02499998E-02   2.20850924E-15
  -3.02000009E-02   7.37000350E-16
  -3.01500000E-02   2.26505313E-15
  -3.00999992E-02   7.61827955E-15
  -3.00500002E-02   1.59614719E-14
  -2.99999993E-02   2.50666153E-14
  -2.99500003E-02   3.22477674E-14
  -2.98999995E-02   3.55732188E-14
  -2.98500005E-02   3.48093611E-14
  -2.97999997E-02   3.16386626E-14
  -2.97500007E-02   2.90011172E-14
  -2.96999998E-02   2.98065134E-14
  -2.96500009E-02   3.55739913E-14
  -2.96000000E-02   4.56259549E-14
  -2.95499992E-02   5.72470606E-14
  -2.95000002E-02   6.67973774E-14
  -2.94499993E-02   7.13252360E-14
  -2.94000003E-02   6.99642438E-14
  -2.93499995E-02   6.44534000E-14
  -2.93000005E-02   5.84843317E-14
  -2.92499997E-02   5.61045114E-14
  -2.92000007E-02   5.98570266E-14
  -2.91499998E-02   6.95016486E-14
  -2.91000009E-02   8.19445084E-14
  -2.90500000E-02   9.24825808E-14
  -2.89999992E-02   9.68671893E-14
  -2.89500002E-02   9.32822206E-14
  -2.88999993E-02   8.33177182E-14
  -2.88500004E-02   7.14293804E-14
  -2.87999995E-02   6.30435713E-14
  -2.87500005E-02   6.21027210E-14
  -2.86999997E-02   6.91503807E-14
  -2.86500007E-02   8.08702674E-14
  -2.85999998E-02   9.13755833E-14
  -2.85500009E-02   9.47549060E-14
  -2.85000000E-02   8.77737011E-14
  -2.84499992E-02   7.14966416E-14
  -2.84000002E-02   5.10236079E-14
  -2.83499993E-02   3.33558051E-14
  -2.83000004E-02   2.42700926E-14
  -2.82499995E-02   2.55843930E-14
  -2.82000005E-02   3.40932083E-14
  -2.81499997E-02   4.27542116E-14
  -2.81000007E-02   4.37035323E-14
  -2.80499998E-02   3.18144186E-14
  -2.80000009E-02   7.19498923E-15
  -2.79500000E-02  -2.45776757E-14
  -2.78999992E-02  -5.47151232E-14
  -2.78500002E-02  -7.50635990E-14
  -2.77999993E-02  -8.18596154E-14
  -2.77500004E-02  -7.76698923E-14
  -2.76999995E-02  -7.05326978E-14
  -2.76500005E-02  -7.05493335E-14
  -2.75999997E-02  -8.53543310E-14
  -2.75500007E-02  -1.16479024E-13
  -2.74999999E-02  -1.58316570E-13
  -2.74500009E-02  -2.00291904E-13
  -2.74000000E-02  -2.31404956E-13
  -2.73499992E-02  -2.45188987E-13
  -2.73000002E-02  -2.42838925E-13
  -2.72499993E-02  -2.32990873E-13
  -2.72000004E-02  -2.28088273E-13
  -2.71499995E-02  -2.38827756E-13
  -2.71000005E-02  -2.69124675E-13
  -2.70499997E-02  -3.13921903E-13
  -2.70000007E-02  -3.60978066E-13
  -2.69499999E-02  -3.96011240E-13
  -2.69000009E-02  -4.09015459E-13
  -2.68500000E-02  -3.98927527E-13
  -2.67999992E-02  -3.74442014E-13
  -2.67500002E-02  -3.50422680E-13
  -2.66999993E-02  -3.41339126E-13
  -2.66500004E-02  -3.54578563E-13
  -2.65999995E-02  -3.86670866E-13
  -2.65500005E-02  -4.24279589E-13
  -2.64999997E-02  -4.49727901E-13
  -2.64500007E-02  -4.48754152E-13
  -2.63999999E-02  -4.17073141E-13
  -2.63500009E-02  -3.62706881E-13
  -2.63000000E-02  -3.02834553E-13
  -2.62499992E-02  -2.56346024E-13
  -2.62000002E-02  -2.35289842E-13
  -2.61499994E-02  -2.39050099E-13
  -2.61000004E-02  -2.54019923E-13
  -2.60499995E-02  -2.59164923E-13
  -2.60000005E-02  -2.35214761E-13
  -2.59499997E-02  -1.73474367E-13
  -2.59000007E-02  -8.02430293E-14
  -2.58499999E-02   2.53531395E-14
  -2.58000009E-02   1.19418771E-13
  -2.57500000E-02   1.83839177E-13
  -2.56999992E-02   2.14649614E-13
  -2.56500002E-02   2.24337747E-13
  -2.55999994E-02   2.36777232E-13
  -2.55500004E-02   2.76772203E-13
  -2.54999995E-02   3.58719781E-13
  -2.54500005E-02   4.79486513E-13
  -2.53999997E-02   6.18903041E-13
  -2.53500007E-02   7.47974111E-13
  -2.52999999E-02   8.41413527E-13
  -2.52500009E-02   8.89013797E-13
  -2.52000000E-02   9.00658671E-13
  -2.51499992E-02   9.02448201E-13
  -2.51000002E-02   9.25321885E-13
  -2.50499994E-02   9.91015538E-13
  -2.50000004E-02   1.10159440E-12
  -2.49499995E-02   1.23743962E-12
  -2.49000005E-02   1.36494928E-12
  -2.48499997E-02   1.45086547E-12
  -2.48000007E-02   1.47702770E-12
  -2.47499999E-02   1.44890100E-12
  -2.47000009E-02   1.39377930E-12
  -2.46500000E-02   1.34906029E-12
  -2.45999992E-02   1.34549392E-12
  -2.45500002E-02   1.39277478E-12
  -2.44999994E-02   1.47407986E-12
  -2.44500004E-02   1.55238149E-12
  -2.43999995E-02   1.58615211E-12
  -2.43500005E-02   1.54774598E-12
  -2.42999997E-02   1.43626517E-12
  -2.42500007E-02   1.27888509E-12
  -2.41999999E-02   1.11959031E-12
  -2.41500009E-02   9.99912176E-13
  -2.41000000E-02   9.40049796E-13
  -2.40499992E-02   9.28912437E-13
  -2.40000002E-02   9.27920501E-13
  -2.39499994E-02   8.87385597E-13
  -2.39000004E-02   7.68563056E-13
  -2.38499995E-02   5.61648547E-13
  -2.38000005E-02   2.91444440E-13
  -2.37499997E-02   7.67155538E-15
  -2.37000007E-02  -2.36287688E-13
  -2.36499999E-02  -4.07063164E-13
  -2.36000009E-02  -5.06801740E-13
  -2.35500000E-02  -5.73200287E-13
  -2.34999992E-02  -6.63471123E-13
  -2.34500002E-02  -8.28867953E-13
  -2.33999994E-02  -1.09090937E-12
  -2.33500004E-02  -1.43008413E-12
  -2.32999995E-02  -1.79259678E-12
  -2.32500006E-02  -2.11278239E-12
  -2.31999997E-02  -2.34166245E-12
  -2.31500007E-02  -2.46900005E-12
  -2.30999999E-02  -2.52867302E-12
  -2.30500009E-02  -2.58434290E-12
  -2.30000000E-02  -2.70116807E-12
  -2.29499992E-02  -2.91581234E-12
  -2.29000002E-02  -3.21821150E-12
  -2.28499994E-02  -3.55374931E-12
  -2.28000004E-02  -3.84559008E-12
  -2.27499995E-02  -4.02783232E-12
  -2.27000006E-02  -4.07491922E-12
  -2.26499997E-02  -4.01392721E-12
  -2.26000007E-02  -3.91358083E-12
  -2.25499999E-02  -3.85413706E-12
  -2.25000009E-02  -3.89104157E-12
  -2.24500000E-02  -4.02852448E-12
  -2.23999992E-02  -4.21538889E-12
  -2.23500002E-02  -4.36566972E-12
  -2.22999994E-02  -4.39571556E-12
  -2.22500004E-02  -4.26155769E-12
  -2.21999995E-02  -3.97974102E-12
  -2.21500006E-02  -3.62166915E-12
  -2.20999997E-02  -3.28311987E-12
  -2.20500007E-02  -3.04182395E-12
  -2.19999999E-02  -2.92183270E-12
  -2.19500009E-02  -2.88095502E-12
  -2.19000001E-02  -2.82770617E-12
  -2.18499992E-02  -2.66111373E-12
  -2.18000002E-02  -2.31620972E-12
  -2.17499994E-02  -1.79489605E-12
  -2.17000004E-02  -1.16780186E-12
  -2.16499995E-02  -5.45336400E-13
  -2.16000006E-02  -2.99797791E-14
  -2.15499997E-02   3.29311096E-13
  -2.15000007E-02   5.59973237E-13
  -2.14499999E-02   7.54953879E-13
  -2.14000009E-02   1.03189614E-12
  -2.13500001E-02   1.47982906E-12
  -2.12999992E-02   2.11697977E-12
  -2.12500002E-02   2.87906699E-12
  -2.11999994E-02   3.64430751E-12
  -2.11500004E-02   4.28502372E-12
  -2.10999995E-02   4.72344342E-12
  -2.10500006E-02   4.96668765E-12
  -2.09999997E-02   5.10456304E-12
  -2.09500007E-02   5.27001793E-12
  -2.08999999E-02   5.57893922E-12
  -2.08500009E-02   6.07579915E-12
  -2.08000001E-02   6.70980589E-12
  -2.07499992E-02   7.35324215E-12
  -2.07000002E-02   7.85500050E-12
  -2.06499994E-02   8.10627954E-12
  -2.06000004E-02   8.08922460E-12
  -2.05499995E-02   7.88613098E-12
  -2.05000006E-02   7.64391848E-12
  -2.04499997E-02   7.50858056E-12
  -2.04000007E-02   7.55826998E-12
  -2.03499999E-02   7.76509933E-12
  -2.03000009E-02   8.00371141E-12
  -2.02500001E-02   8.10408598E-12
  -2.01999992E-02   7.92609207E-12
  -2.01500002E-02   7.42284272E-12
  -2.00999994E-02   6.66404518E-12
  -2.00500004E-02   5.80770935E-12
  -1.99999996E-02   5.03154636E-12
  -1.99500006E-02   4.45380798E-12
  -1.98999997E-02   4.07891082E-12
  -1.98500007E-02   3.79300627E-12
  -1.97999999E-02   3.41283880E-12
  -1.97500009E-02   2.76735601E-12
  -1.97000001E-02   1.77624050E-12
  -1.96499992E-02   4.89952751E-13
  -1.96000002E-02  -9.27748113E-13
  -1.95499994E-02  -2.26844715E-12
  -1.95000004E-02  -3.36935514E-12
  -1.94499996E-02  -4.18518388E-12
  -1.94000006E-02  -4.80881784E-12
  -1.93499997E-02  -5.43019189E-12
  -1.93000007E-02  -6.25029238E-12
  -1.92499999E-02  -7.38784121E-12
  -1.92000009E-02  -8.82044351E-12
  -1.91500001E-02  -1.03875519E-11
  -1.90999992E-02  -1.18554645E-11
  -1.90500002E-02  -1.30166745E-11
  -1.89999994E-02  -1.37797898E-11
  -1.89500004E-02  -1.42093620E-11
  -1.88999996E-02  -1.44965411E-11
  -1.88500006E-02  -1.48720793E-11
  -1.87999997E-02  -1.54994455E-11
  -1.87500007E-02  -1.63956088E-11
  -1.86999999E-02  -1.74158066E-11
  -1.86500009E-02  -1.83106429E-11
  -1.86000001E-02  -1.88315977E-11
  -1.85499992E-02  -1.88386928E-11
  -1.85000002E-02  -1.83620185E-11
  -1.84499994E-02  -1.75884463E-11
  -1.84000004E-02  -1.67778395E-11
  -1.83499996E-02  -1.61448164E-11
  -1.83000006E-02  -1.57584727E-11
  -1.82499997E-02  -1.55054979E-11
  -1.82000007E-02  -1.51347233E-11
  -1.81499999E-02  -1.43649146E-11
  -1.81000009E-02  -1.30088310E-11
  -1.80500001E-02  -1.10582064E-11
  -1.79999992E-02  -8.69071048E-12
  -1.79500002E-02  -6.19408040E-12
  -1.78999994E-02  -3.83979393E-12
  -1.78500004E-02  -1.76186409E-12
  -1.77999996E-02   1.04603798E-13
  -1.77500006E-02   1.99635252E-12
  -1.76999997E-02   4.21661013E-12
  -1.76500008E-02   6.99712467E-12
  -1.75999999E-02   1.03888122E-11
  -1.75500009E-02   1.42306323E-11
  -1.75000001E-02   1.82122806E-11
  -1.74499992E-02   2.20043567E-11
  -1.74000002E-02   2.53989364E-11
  -1.73499994E-02   2.83977668E-11
  -1.73000004E-02   3.12073874E-11
  -1.72499996E-02   3.41416097E-11
  -1.72000006E-02   3.74732086E-11
  -1.71499997E-02   4.13005671E-11
  -1.71000008E-02   4.54891159E-11
  -1.70499999E-02   4.97154956E-11
  -1.70000009E-02   5.35964120E-11
  -1.69500001E-02   5.68462291E-11
  -1.68999992E-02   5.93928240E-11
  -1.68500002E-02   6.13993856E-11
  -1.67999994E-02   6.31805788E-11
  -1.67500004E-02   6.50485152E-11
  -1.66999996E-02   6.71567385E-11
  -1.66500006E-02   6.94118860E-11
  -1.65999997E-02   7.14938872E-11
  -1.65500008E-02   7.29778390E-11
  -1.64999999E-02   7.35043415E-11
  -1.64500009E-02   7.29232785E-11
  -1.64000001E-02   7.13457834E-11
  -1.63499992E-02   6.90799778E-11
  -1.63000003E-02   6.64768379E-11
  -1.62499994E-02   6.37543005E-11
  -1.62000004E-02   6.08777057E-11
  -1.61499996E-02   5.75511930E-11
  -1.61000006E-02   5.33260797E-11
  -1.60499997E-02   4.77794158E-11
  -1.60000008E-02   4.06837897E-11
  -1.59499999E-02   3.20926098E-11
  -1.59000009E-02   2.23010152E-11
  -1.58500001E-02   1.16983810E-11
  -1.57999992E-02   5.76284680E-13
  -1.57500003E-02  -1.10221563E-11
  -1.56999994E-02  -2.33439622E-11
  -1.56500004E-02  -3.68377932E-11
  -1.55999996E-02  -5.19740709E-11
  -1.55499997E-02  -6.90515214E-11
  -1.54999997E-02  -8.80774481E-11
  -1.54499998E-02  -1.08775856E-10
  -1.53999999E-02  -1.30722252E-10
  -1.53500000E-02  -1.53546023E-10
  -1.53000001E-02  -1.77110965E-10
  -1.52500002E-02  -2.01593214E-10
  -1.52000003E-02  -2.27419195E-10
  -1.51500003E-02  -2.55090615E-10
  -1.51000004E-02  -2.84972018E-10
  -1.50499996E-02  -3.17136373E-10
  -1.49999997E-02  -3.51337959E-10
  -1.49499997E-02  -3.87127025E-10
  -1.48999998E-02  -4.24056318E-10
  -1.48499999E-02  -4.61888749E-10
  -1.48000000E-02  -5.00712916E-10
  -1.47500001E-02  -5.40914147E-10
  -1.47000002E-02  -5.83010695E-10
  -1.46500003E-02  -6.27429220E-10
  -1.46000003E-02  -6.74315825E-10
  -1.45500004E-02  -7.23471005E-10
  -1.44999996E-02  -7.74437015E-10
  -1.44499997E-02  -8.26701874E-10
  -1.43999998E-02  -8.79929796E-10
  -1.43499998E-02  -9.34115008E-10
  -1.42999999E-02  -9.89589410E-10
  -1.42500000E-02  -1.04687936E-09
  -1.42000001E-02  -1.10647358E-09
  -1.41500002E-02  -1.16860455E-09
  -1.41000003E-02  -1.23314137E-09
  -1.40500003E-02  -1.29964517E-09
  -1.40000004E-02  -1.36756206E-09
  -1.39499996E-02  -1.43646950E-09
  -1.38999997E-02  -1.50626822E-09
  -1.38499998E-02  -1.57723090E-09
  -1.37999998E-02  -1.64988578E-09
  -1.37499999E-02  -1.72478487E-09
  -1.37000000E-02  -1.80226067E-09
  -1.36500001E-02  -1.88227611E-09
  -1.36000002E-02  -1.96444172E-09
  -1.35500003E-02  -2.04818984E-09
  -1.35000004E-02  -2.13303308E-09
  -1.34500004E-02  -2.21878693E-09
  -1.33999996E-02  -2.30566477E-09
  -1.33499997E-02  -2.39419351E-09
  -1.32999998E-02  -2.48499066E-09
  -1.32499998E-02  -2.57850030E-09
  -1.31999999E-02  -2.67480460E-09
  -1.31500000E-02  -2.77359669E-09
  -1.31000001E-02  -2.87432855E-09
  -1.30500002E-02  -2.97647151E-09
  -1.30000003E-02  -3.07977110E-09
  -1.29500004E-02  -3.18438076E-09
  -1.29000004E-02  -3.29082117E-09
  -1.28499996E-02  -3.39977380E-09
  -1.27999997E-02  -3.51180107E-09
  -1.27499998E-02  -3.62712083E-09
  -1.26999998E-02  -3.74553588E-09
  -1.26499999E-02  -3.86654841E-09
  -1.26000000E-02  -3.98961131E-09
  -1.25500001E-02  -4.11440970E-09
  -1.25000002E-02  -4.24103952E-09
  -1.24500003E-02  -4.37000747E-09
  -1.24000004E-02  -4.50204762E-09
  -1.23500004E-02  -4.63784211E-09
  -1.22999996E-02  -4.77775552E-09
  -1.22499997E-02  -4.92172125E-09
  -1.21999998E-02  -5.06931563E-09
  -1.21499998E-02  -5.21999821E-09
  -1.20999999E-02  -5.37340394E-09
  -1.20500000E-02  -5.52956436E-09
  -1.20000001E-02  -5.68895553E-09
  -1.19500002E-02  -5.85234883E-09
  -1.19000003E-02  -6.02052719E-09
  -1.18500004E-02  -6.19400131E-09
  -1.18000004E-02  -6.37284359E-09
  -1.17499996E-02  -6.55672139E-09
  -1.16999997E-02  -6.74511336E-09
  -1.16499998E-02  -6.93761359E-09
  -1.15999999E-02  -7.13418835E-09
  -1.15499999E-02  -7.33526795E-09
  -1.15000000E-02  -7.54163754E-09
  -1.14500001E-02  -7.75416620E-09
  -1.14000002E-02  -7.97350275E-09
  -1.13500003E-02  -8.19986212E-09
  -1.13000004E-02  -8.43301340E-09
  -1.12500004E-02  -8.67246808E-09
  -1.11999996E-02  -8.91778029E-09
  -1.11499997E-02  -9.16884257E-09
  -1.10999998E-02  -9.42601730E-09
  -1.10499999E-02  -9.69007719E-09
  -1.09999999E-02  -9.96195393E-09
  -1.09500000E-02  -1.02424140E-08
  -1.09000001E-02  -1.05318154E-08
  -1.08500002E-02  -1.08300391E-08
  -1.08000003E-02  -1.11366445E-08
  -1.07500004E-02  -1.14511707E-08
  -1.07000005E-02  -1.17734338E-08
  -1.06499996E-02  -1.21037260E-08
  -1.05999997E-02  -1.24427944E-08
  -1.05499998E-02  -1.27916069E-08
  -1.04999999E-02  -1.31510420E-08
  -1.04499999E-02  -1.35215910E-08
  -1.04000000E-02  -1.39032652E-08
  -1.03500001E-02  -1.42956873E-08
  -1.03000002E-02  -1.46983847E-08
  -1.02500003E-02  -1.51111141E-08
  -1.02000004E-02  -1.55340931E-08
  -1.01500005E-02  -1.59680162E-08
  -1.00999996E-02  -1.64138854E-08
  -1.00499997E-02  -1.68726704E-08
  -9.99999978E-03  -1.73450108E-08
  -9.94999986E-03  -1.78310522E-08
  -9.89999995E-03  -1.83305158E-08
  -9.85000003E-03  -1.88429485E-08
  -9.80000012E-03  -1.93680645E-08
  -9.75000020E-03  -1.99060217E-08
  -9.70000029E-03  -2.04574757E-08
  -9.65000037E-03  -2.10234550E-08
  -9.60000046E-03  -2.16050289E-08
  -9.54999961E-03  -2.22029968E-08
  -9.49999969E-03  -2.28176766E-08
  -9.44999978E-03  -2.34489050E-08
  -9.39999986E-03  -2.40962947E-08
  -9.34999995E-03  -2.47595651E-08
  -9.30000003E-03  -2.54388226E-08
  -9.25000012E-03  -2.61347068E-08
  -9.20000020E-03  -2.68482605E-08
  -9.15000029E-03  -2.75806578E-08
  -9.10000037E-03  -2.83328507E-08
  -9.05000046E-03  -2.91053368E-08
  -8.99999961E-03  -2.98981178E-08
  -8.94999970E-03  -3.07109076E-08
  -8.89999978E-03  -3.15434434E-08
  -8.84999987E-03  -3.23958282E-08
  -8.79999995E-03  -3.32686803E-08
  -8.75000004E-03  -3.41630830E-08
  -8.70000012E-03  -3.50803155E-08
  -8.65000021E-03  -3.60215076E-08
  -8.60000029E-03  -3.69873661E-08
  -8.55000038E-03  -3.79781042E-08
  -8.50000046E-03  -3.89935657E-08
  -8.44999962E-03  -4.00335729E-08
  -8.39999970E-03  -4.10982430E-08
  -8.34999979E-03  -4.21882014E-08
  -8.29999987E-03  -4.33045884E-08
  -8.24999996E-03  -4.44488073E-08
  -8.20000004E-03  -4.56221656E-08
  -8.15000013E-03  -4.68256083E-08
  -8.10000021E-03  -4.80595617E-08
  -8.05000030E-03  -4.93240435E-08
  -8.00000038E-03  -5.06189757E-08
  -7.95000046E-03  -5.19445216E-08
  -7.89999962E-03  -5.33013420E-08
  -7.84999970E-03  -5.46905987E-08
  -7.79999979E-03  -5.61137981E-08
  -7.74999987E-03  -5.75724535E-08
  -7.69999996E-03  -5.90677267E-08
  -7.65000004E-03  -6.06002857E-08
  -7.60000013E-03  -6.21703649E-08
  -7.55000021E-03  -6.37780104E-08
  -7.49999983E-03  -6.54234498E-08
  -7.44999992E-03  -6.71073721E-08
  -7.40000000E-03  -6.88310067E-08
  -7.35000009E-03  -7.05959664E-08
  -7.30000017E-03  -7.24039424E-08
  -7.24999979E-03  -7.42563344E-08
  -7.19999988E-03  -7.61540591E-08
  -7.14999996E-03  -7.80975640E-08
  -7.10000005E-03  -8.00870694E-08
  -7.05000013E-03  -8.21228738E-08
  -7.00000022E-03  -8.42057375E-08
  -6.94999984E-03  -8.63369181E-08
  -6.89999992E-03  -8.85181635E-08
  -6.85000001E-03  -9.07512785E-08
  -6.80000009E-03  -9.30379187E-08
  -6.75000018E-03  -9.53792707E-08
  -6.69999979E-03  -9.77759882E-08
  -6.64999988E-03  -1.00228455E-07
  -6.59999996E-03  -1.02737111E-07
  -6.55000005E-03  -1.05302746E-07
  -6.50000013E-03  -1.07926681E-07
  -6.45000022E-03  -1.10610699E-07
  -6.39999984E-03  -1.13356776E-07
  -6.34999992E-03  -1.16166788E-07
  -6.30000001E-03  -1.19042156E-07
  -6.25000009E-03  -1.21983817E-07
  -6.20000018E-03  -1.24992340E-07
  -6.14999980E-03  -1.28068294E-07
  -6.09999988E-03  -1.31212545E-07
  -6.04999997E-03  -1.34426443E-07
  -6.00000005E-03  -1.37711865E-07
  -5.95000014E-03  -1.41070998E-07
  -5.90000022E-03  -1.44505876E-07
  -5.84999984E-03  -1.48018216E-07
  -5.79999993E-03  -1.51609186E-07
  -5.75000001E-03  -1.55279579E-07
  -5.70000010E-03  -1.59030137E-07
  -5.65000018E-03  -1.62861781E-07
  -5.59999980E-03  -1.66776019E-07
  -5.54999989E-03  -1.70774769E-07
  -5.49999997E-03  -1.74860332E-07
  -5.45000006E-03  -1.79034942E-07
  -5.40000014E-03  -1.83300600E-07
  -5.35000023E-03  -1.87658756E-07
  -5.29999984E-03  -1.92110505E-07
  -5.24999993E-03  -1.96656742E-07
  -5.20000001E-03  -2.01298562E-07
  -5.15000010E-03  -2.06037441E-07
  -5.10000018E-03  -2.10875484E-07
  -5.04999980E-03  -2.15815092E-07
  -4.99999989E-03  -2.20858809E-07
  -4.94999997E-03  -2.26008851E-07
  -4.90000006E-03  -2.31267066E-07
  -4.85000014E-03  -2.36634762E-07
  -4.80000023E-03  -2.42113117E-07
  -4.74999985E-03  -2.47703355E-07
  -4.69999993E-03  -2.53407109E-07
  -4.65000002E-03  -2.59226596E-07
  -4.60000010E-03  -2.65164402E-07
  -4.55000019E-03  -2.71223257E-07
  -4.49999981E-03  -2.77405718E-07
  -4.44999989E-03  -2.83713945E-07
  -4.39999998E-03  -2.90149643E-07
  -4.35000006E-03  -2.96714262E-07
  -4.30000015E-03  -3.03409166E-07
  -4.25000023E-03  -3.10236260E-07
  -4.19999985E-03  -3.17197731E-07
  -4.14999994E-03  -3.24296337E-07
  -4.10000002E-03  -3.31535063E-07
  -4.05000011E-03  -3.38916777E-07
  -4.00000019E-03  -3.46444040E-07
  -3.94999981E-03  -3.54118896E-07
  -3.89999989E-03  -3.61943137E-07
  -3.84999998E-03  -3.69918382E-07
  -3.80000006E-03  -3.78046678E-07
  -3.74999992E-03  -3.86330385E-07
  -3.70000000E-03  -3.94772343E-07
  -3.65000009E-03  -4.03375822E-07
  -3.59999994E-03  -4.12144004E-07
  -3.55000002E-03  -4.21079903E-07
  -3.50000011E-03  -4.30185992E-07
  -3.44999996E-03  -4.39464372E-07
  -3.40000005E-03  -4.48916893E-07
  -3.34999990E-03  -4.58545770E-07
  -3.29999998E-03  -4.68353591E-07
  -3.25000007E-03  -4.78343281E-07
  -3.19999992E-03  -4.88518310E-07
  -3.15000000E-03  -4.98882116E-07
  -3.10000009E-03  -5.09438053E-07
  -3.04999994E-03  -5.20189019E-07
  -3.00000003E-03  -5.31137459E-07
  -2.95000011E-03  -5.42285647E-07
  -2.89999996E-03  -5.53635914E-07
  -2.85000005E-03  -5.65190817E-07
  -2.79999990E-03  -5.76953653E-07
  -2.74999999E-03  -5.88927890E-07
  -2.70000007E-03  -6.01117392E-07
  -2.64999992E-03  -6.13525685E-07
  -2.60000001E-03  -6.26156066E-07
  -2.55000009E-03  -6.39011375E-07
  -2.49999994E-03  -6.52094172E-07
  -2.45000003E-03  -6.65407015E-07
  -2.40000011E-03  -6.78952631E-07
  -2.34999997E-03  -6.92734318E-07
  -2.30000005E-03  -7.06755657E-07
  -2.24999990E-03  -7.21020740E-07
  -2.19999999E-03  -7.35533376E-07
  -2.15000007E-03  -7.50297318E-07
  -2.09999993E-03  -7.65315747E-07
  -2.05000001E-03  -7.80591563E-07
  -2.00000009E-03  -7.96127495E-07
  -1.94999995E-03  -8.11926270E-07
  -1.90000003E-03  -8.27991130E-07
  -1.85000000E-03  -8.44325882E-07
  -1.79999997E-03  -8.60934165E-07
  -1.75000005E-03  -8.77820355E-07
  -1.70000002E-03  -8.94988432E-07
  -1.64999999E-03  -9.12441863E-07
  -1.59999996E-03  -9.30184058E-07
  -1.55000004E-03  -9.48217803E-07
  -1.50000001E-03  -9.66546281E-07
  -1.44999998E-03  -9.85172278E-07
  -1.39999995E-03  -1.00409977E-06
  -1.35000004E-03  -1.02333229E-06
  -1.30000000E-03  -1.04287403E-06
  -1.24999997E-03  -1.06272944E-06
  -1.20000006E-03  -1.08290203E-06
  -1.15000003E-03  -1.10339568E-06
  -1.09999999E-03  -1.12421344E-06
  -1.04999996E-03  -1.14535851E-06
  -1.00000005E-03  -1.16683361E-06
  -9.50000016E-04  -1.18864227E-06
  -8.99999985E-04  -1.21078824E-06
  -8.50000011E-04  -1.23327573E-06
  -7.99999980E-04  -1.25610882E-06
  -7.50000007E-04  -1.27929150E-06
  -6.99999975E-04  -1.30282785E-06
  -6.50000002E-04  -1.32672096E-06
  -6.00000028E-04  -1.35097389E-06
  -5.49999997E-04  -1.37558959E-06
  -5.00000024E-04  -1.40057114E-06
  -4.49999992E-04  -1.42592171E-06
  -3.99999990E-04  -1.45164563E-06
  -3.49999988E-04  -1.47774699E-06
  -3.00000014E-04  -1.50422977E-06
  -2.50000012E-04  -1.53109772E-06
  -1.99999995E-04  -1.55835494E-06
  -1.50000007E-04  -1.58600415E-06
  -9.99999975E-05  -1.61404796E-06
  -4.99999987E-05  -1.64248888E-06
   0.00000000      -1.67133010E-06
   4.99999987E-05  -1.70057524E-06
   9.99999975E-05  -1.73022784E-06
   1.50000007E-04  -1.76029243E-06
   1.99999995E-04  -1.79077290E-06
   2.50000012E-04  -1.82167321E-06
   3.00000014E-04  -1.85299621E-06
   3.49999988E-04  -1.88474382E-06
   3.99999990E-04  -1.91691834E-06
   4.49999992E-04  -1.94952167E-06
   5.00000024E-04  -1.98255725E-06
   5.49999997E-04  -2.01602779E-06
   6.00000028E-04  -2.04993785E-06
   6.50000002E-04  -2.08429128E-06
   6.99999975E-04  -2.11909173E-06
   7.50000007E-04  -2.15434261E-06
   7.99999980E-04  -2.19004505E-06
   8.50000011E-04  -2.22620042E-06
   8.99999985E-04  -2.26281031E-06
   9.50000016E-04  -2.29987722E-06
   1.00000005E-03  -2.33740343E-06
   1.04999996E-03  -2.37539257E-06
   1.09999999E-03  -2.41384805E-06
   1.15000003E-03  -2.45277329E-06
   1.20000006E-03  -2.49217123E-06
   1.24999997E-03  -2.53204325E-06
   1.30000000E-03  -2.57239003E-06
   1.35000004E-03  -2.61321225E-06
   1.39999995E-03  -2.65451149E-06
   1.44999998E-03  -2.69628936E-06
   1.50000001E-03  -2.73854789E-06
   1.55000004E-03  -2.78129050E-06
   1.59999996E-03  -2.82451947E-06
   1.64999999E-03  -2.86823729E-06
   1.70000002E-03  -2.91244487E-06
   1.75000005E-03  -2.95714221E-06
   1.79999997E-03  -3.00232955E-06
   1.85000000E-03  -3.04800642E-06
   1.90000003E-03  -3.09417351E-06
   1.94999995E-03  -3.14083172E-06
   2.00000009E-03  -3.18798379E-06
   2.05000001E-03  -3.23563177E-06
   2.09999993E-03  -3.28377700E-06
   2.15000007E-03  -3.33241996E-06
   2.19999999E-03  -3.38156019E-06
   2.24999990E-03  -3.43119609E-06
   2.30000005E-03  -3.48132608E-06
   2.34999997E-03  -3.53194878E-06
   2.40000011E-03  -3.58306465E-06
   2.45000003E-03  -3.63467439E-06
   2.49999994E-03  -3.68677934E-06
   2.55000009E-03  -3.73938019E-06
   2.60000001E-03  -3.79247649E-06
   2.64999992E-03  -3.84606710E-06
   2.70000007E-03  -3.90014975E-06
   2.74999999E-03  -3.95471989E-06
   2.79999990E-03  -4.00977524E-06