  -3.99999991E-02   0.00000000    
  -3.99499983E-02   0.00000000    
  -3.99000011E-02   0.00000000    
  -3.98500003E-02   6.51373260E-16
  -3.97999994E-02   5.33620254E-15
  -3.97499986E-02   2.28359778E-14
  -3.97000015E-02   6.78217519E-14
  -3.96500006E-02   1.56372839E-13
  -3.95999998E-02   2.97191850E-13
  -3.95499989E-02   4.84130964E-13
  -3.95000018E-02   6.97148014E-13
  -3.94500010E-02   9.13967578E-13
  -3.94000001E-02   1.12660304E-12
  -3.93499993E-02   1.35232179E-12
  -3.92999984E-02   1.63165488E-12
  -3.92500013E-02   2.01425031E-12
  -3.92000005E-02   2.54069313E-12
  -3.91499996E-02   3.23056859E-12
  -3.90999988E-02   4.08354730E-12
  -3.90500017E-02   5.09277689E-12
  -3.90000008E-02   6.26124933E-12
  -3.89500000E-02   7.60709204E-12
  -3.88999991E-02   9.14880931E-12
  -3.88499983E-02   1.08770267E-11
  -3.88000011E-02   1.27356042E-11
  -3.87500003E-02   1.46367068E-11
  -3.86999995E-02   1.65142518E-11
  -3.86499986E-02   1.83886985E-11
  -3.86000015E-02   2.03964658E-11
  -3.85500006E-02   2.27468877E-11
  -3.84999998E-02   2.56065603E-11
  -3.84499989E-02   2.89564085E-11
  -3.84000018E-02   3.24962904E-11
  -3.83500010E-02   3.56681629E-11
  -3.83000001E-02   3.78257009E-11
  -3.82499993E-02   3.85053586E-11
  -3.81999984E-02   3.76821178E-11
  -3.81500013E-02   3.58659873E-11
  -3.81000005E-02   3.39457663E-11
  -3.80499996E-02   3.28045369E-11
  -3.79999988E-02   3.28600654E-11
  -3.79500017E-02   3.37472758E-11
  -3.79000008E-02   3.43157135E-11
  -3.78500000E-02   3.29793692E-11
  -3.77999991E-02   2.82937441E-11
  -3.77499983E-02   1.95196602E-11
  -3.77000012E-02   6.91707412E-12
  -3.76500003E-02  -8.38970039E-12
  -3.75999995E-02  -2.49518687E-11
  -3.75499986E-02  -4.17237599E-11
  -3.75000015E-02  -5.86509452E-11
  -3.74500006E-02  -7.68355102E-11
  -3.73999998E-02  -9.81814977E-11
  -3.73499990E-02  -1.24659214E-10
  -3.73000018E-02  -1.57488148E-10
  -3.72500010E-02  -1.96553815E-10
  -3.72000001E-02  -2.40265086E-10
  -3.71499993E-02  -2.85895724E-10
  -3.70999984E-02  -3.30309807E-10
  -3.70500013E-02  -3.70874748E-10
  -3.70000005E-02  -4.06318534E-10
  -3.69499996E-02  -4.37290509E-10
  -3.68999988E-02  -4.66433392E-10
  -3.68500017E-02  -4.97859864E-10
  -3.68000008E-02  -5.36044098E-10
  -3.67500000E-02  -5.84294779E-10
  -3.66999991E-02  -6.43179454E-10
  -3.66499983E-02  -7.09471148E-10
  -3.66000012E-02  -7.76248787E-10
  -3.65500003E-02  -8.34531000E-10
  -3.64999995E-02  -8.76221151E-10
  -3.64499986E-02  -8.97389163E-10
  -3.64000015E-02  -9.00404029E-10
  -3.63500006E-02  -8.93564112E-10
  -3.62999998E-02  -8.87754925E-10
  -3.62499990E-02  -8.91046015E-10
  -3.62000018E-02  -9.03423503E-10
  -3.61500010E-02  -9.14362031E-10
  -3.61000001E-02  -9.05206243E-10
  -3.60499993E-02  -8.56380800E-10
  -3.59999985E-02  -7.56960938E-10
  -3.59500013E-02  -6.12269235E-10
  -3.59000005E-02  -4.45101511E-10
  -3.58499996E-02  -2.88422314E-10
  -3.57999988E-02  -1.71279158E-10
  -3.57500017E-02  -1.03554970E-10
  -3.57000008E-02  -6.69569608E-11
  -3.56500000E-02  -1.80160106E-11
  -3.55999991E-02   9.59997845E-11
  -3.55499983E-02   3.13597925E-10
  -3.55000012E-02   6.38110231E-10
  -3.54500003E-02   1.03002862E-09
  -3.53999995E-02   1.41878453E-09
  -3.53499986E-02   1.73160430E-09
  -3.53000015E-02   1.92816785E-09
  -3.52500007E-02   2.02494355E-09
  -3.51999998E-02   2.09545403E-09
  -3.51499990E-02   2.24239893E-09
  -3.51000018E-02   2.55082933E-09
  -3.50500010E-02   3.04235193E-09
  -3.50000001E-02   3.65293484E-09
  -3.49499993E-02   4.24874580E-09
  -3.48999985E-02   4.67808103E-09
  -3.48500013E-02   4.83959761E-09
  -3.48000005E-02   4.73625006E-09
  -3.47499996E-02   4.48686643E-09
  -3.46999988E-02   4.28386571E-09
  -3.46500017E-02   4.31017089E-09
  -3.46000008E-02   4.64991734E-09
  -3.45500000E-02   5.23515142E-09
  -3.44999991E-02   5.85874416E-09
  -3.44499983E-02   6.25553032E-09
  -3.44000012E-02   6.22096730E-09
  -3.43500003E-02   5.71479175E-09
  -3.42999995E-02   4.89806506E-09
  -3.42499986E-02   4.07787448E-09
  -3.42000015E-02   3.57538910E-09
  -3.41500007E-02   3.57168606E-09
  -3.40999998E-02   4.00286337E-09
  -3.40499990E-02   4.56059901E-09
  -3.40000018E-02   4.81008477E-09
  -3.39500010E-02   4.38219150E-09
  -3.39000002E-02   3.15618442E-09
  -3.38499993E-02   1.34463740E-09
  -3.37999985E-02  -5.70564818E-10
  -3.37500013E-02  -2.03653827E-09
  -3.37000005E-02  -2.68178657E-09
  -3.36499996E-02  -2.50829935E-09
  -3.35999988E-02  -1.92593119E-09
  -3.35500017E-02  -1.59678493E-09
  -3.35000008E-02  -2.14442308E-09
  -3.34500000E-02  -3.85251653E-09
  -3.33999991E-02  -6.49498499E-09
  -3.33499983E-02  -9.39114031E-09
  -3.33000012E-02  -1.16815002E-08
  -3.32500003E-02  -1.27147226E-08
  -3.31999995E-02  -1.23729746E-08
  -3.31499986E-02  -1.11760343E-08
  -3.31000015E-02  -1.00943609E-08
  -3.30500007E-02  -1.01325304E-08
  -3.29999998E-02  -1.18583428E-08
  -3.29499990E-02  -1.50941979E-08
  -3.29000019E-02  -1.89300700E-08
  -3.28500010E-02  -2.20799592E-08
  -3.28000002E-02  -2.34440236E-08
  -3.27499993E-02  -2.26301395E-08
  -3.26999985E-02  -2.01870360E-08
  -3.26500013E-02  -1.74161539E-08
  -3.26000005E-02  -1.58165339E-08
  -3.25499997E-02  -1.63937433E-08
  -3.24999988E-02  -1.91461744E-08
  -3.24500017E-02  -2.29835475E-08
  -3.24000008E-02  -2.61495821E-08
  -3.23500000E-02  -2.69900475E-08
  -3.22999991E-02  -2.47332945E-08
  -3.22499983E-02  -1.99187813E-08
  -3.22000012E-02  -1.42462611E-08
  -3.21500003E-02  -9.87209603E-09
  -3.20999995E-02  -8.43971648E-09
  -3.20499986E-02  -1.02769802E-08
  -3.20000015E-02  -1.41470764E-08
  -3.19500007E-02  -1.77092900E-08
  -3.18999998E-02  -1.85258493E-08
  -3.18499990E-02  -1.51849537E-08
  -3.18000019E-02  -8.02573918E-09
  -3.17500010E-02   8.99484709E-10
  -3.17000002E-02   8.66026273E-09
  -3.16499993E-02   1.27463400E-08
  -3.15999985E-02   1.22572272E-08
  -3.15500014E-02   8.42303027E-09
  -3.15000005E-02   4.17010027E-09
  -3.14499997E-02   2.86985857E-09
  -3.13999988E-02   6.79773837E-09
  -3.13500017E-02   1.59980935E-08
  -3.13000008E-02   2.81074577E-08
  -3.12500000E-02   3.92795485E-08
  -3.11999992E-02   4.58539304E-08
  -3.11500002E-02   4.60434251E-08
  -3.10999993E-02   4.08620622E-08
  -3.10500003E-02   3.38185870E-08
  -3.09999995E-02   2.94424538E-08
  -3.09500005E-02   3.12522666E-08
  -3.08999997E-02   4.00704359E-08
  -3.08500007E-02   5.34808891E-08
  -3.07999998E-02   6.67457982E-08
  -3.07500008E-02   7.48423261E-08
  -3.07000000E-02   7.47447828E-08
  -3.06499992E-02   6.69147653E-08
  -3.06000002E-02   5.52690835E-08
  -3.05499993E-02   4.55560247E-08
  -3.05000003E-02   4.27997975E-08
  -3.04499995E-02   4.89382579E-08
  -3.04000005E-02   6.17508817E-08
  -3.03499997E-02   7.56397611E-08
  -3.03000007E-02   8.40041210E-08
  -3.02499998E-02   8.22031367E-08
  -3.02000009E-02   6.97781957E-08
  -3.01500000E-02   5.08768601E-08
  -3.00999992E-02   3.25912701E-08
  -3.00500002E-02   2.18659792E-08
  -2.99999993E-02   2.23196377E-08
  -2.99500003E-02   3.24319984E-08
  -2.98999995E-02   4.59942733E-08
  -2.98500005E-02   5.47279768E-08
  -2.97999997E-02   5.19793986E-08
  -2.97500007E-02   3.58515280E-08
  -2.96999998E-02   1.03134319E-08
  -2.96500009E-02  -1.63178040E-08
  -2.96000000E-02  -3.49538816E-08
  -2.95499992E-02  -3.98345712E-08
  -2.95000002E-02  -3.13022532E-08
  -2.94499993E-02  -1.59227245E-08
  -2.94000003E-02  -3.77410903E-09
  -2.93499995E-02  -4.00954558E-09
  -2.93000005E-02  -2.06370121E-08
  -2.92499997E-02  -5.04484490E-08
  -2.92000007E-02  -8.41364596E-08
  -2.91499998E-02  -1.10230673E-07
  -2.91000009E-02  -1.20185959E-07
  -2.90500000E-02  -1.12358244E-07
  -2.89999992E-02  -9.30129715E-08
  -2.89500002E-02  -7.37824806E-08
  -2.88999993E-02  -6.65792896E-08
  -2.88500004E-02  -7.81709275E-08
  -2.87999995E-02  -1.06868100E-07
  -2.87500005E-02  -1.42918111E-07
  -2.86999997E-02  -1.72577629E-07
  -2.86500007E-02  -1.84165629E-07
  -2.85999998E-02  -1.73429584E-07
  -2.85500009E-02  -1.45762030E-07
  -2.85000000E-02  -1.14136022E-07
  -2.84499992E-02  -9.35252515E-08
  -2.84000002E-02  -9.41990095E-08
  -2.83499993E-02  -1.16885296E-07
  -2.83000004E-02  -1.52064970E-07
  -2.82499995E-02  -1.83875343E-07
  -2.82000005E-02  -1.97032392E-07
  -2.81499997E-02  -1.83753585E-07
  -2.81000007E-02  -1.47549514E-07
  -2.80499998E-02  -1.02052162E-07
  -2.80000009E-02  -6.52263097E-08
  -2.79500000E-02  -5.14113410E-08
  -2.78999992E-02  -6.47126797E-08
  -2.78500002E-02  -9.67797931E-08
  -2.77999993E-02  -1.30134765E-07
  -2.77500004E-02  -1.45748970E-07
  -2.76999995E-02  -1.31598995E-07
  -2.76500005E-02  -8.83742501E-08
  -2.75999997E-02  -2.96579099E-08
  -2.75500007E-02   2.36971740E-08
  -2.74999999E-02   5.26669695E-08
  -2.74500009E-02   4.86497349E-08
  -2.74000000E-02   1.76643713E-08
  -2.73499992E-02  -2.18882334E-08
  -2.73000002E-02  -4.71115733E-08
  -2.72499993E-02  -4.07871923E-08
  -2.72000004E-02   6.67674249E-10
  -2.71499995E-02   6.51146124E-08
  -2.71000005E-02   1.29612843E-07
  -2.70499997E-02   1.70359115E-07
  -2.70000007E-02   1.73340482E-07
  -2.69499999E-02   1.40930567E-07
  -2.69000009E-02   9.13307261E-08
  -2.68500000E-02   5.08756237E-08
  -2.67999992E-02   4.24343298E-08
  -2.67500002E-02   7.49966702E-08
  -2.66999993E-02   1.39164015E-07
  -2.66500004E-02   2.10758671E-07
  -2.65999995E-02   2.61185818E-07
  -2.65500005E-02   2.70105346E-07
  -2.64999997E-02   2.34794356E-07
  -2.64500007E-02   1.71894001E-07
  -2.63999999E-02   1.10522961E-07
  -2.63500009E-02   7.95853339E-08
  -2.63000000E-02   9.47938048E-08
  -2.62499992E-02   1.51224611E-07
  -2.62000002E-02   2.24913038E-07
  -2.61499994E-02   2.83045466E-07
  -2.61000004E-02   2.98431956E-07
  -2.60499995E-02   2.61892268E-07
  -2.60000005E-02   1.86935466E-07
  -2.59499997E-02   1.04404123E-07
  -2.59000007E-02   4.91877152E-08
  -2.58499999E-02   4.47303066E-08
  -2.58000009E-02   9.22134191E-08
  -2.57500000E-02   1.69400167E-07
  -2.56999992E-02   2.39940050E-07
  -2.56500002E-02   2.69267531E-07
  -2.55999994E-02   2.40161143E-07
  -2.55500004E-02   1.60983262E-07
  -2.54999995E-02   6.27016448E-08
  -2.54500005E-02  -1.42901264E-08
  -2.53999997E-02  -3.79375713E-08
  -2.53500007E-02   9.53110590E-10
  -2.52999999E-02   8.40296650E-08
  -2.52500009E-02   1.72913886E-07
  -2.52000000E-02   2.25895320E-07
  -2.51499992E-02   2.16573738E-07
  -2.51000002E-02   1.46155443E-07
  -2.50499994E-02   4.37242953E-08
  -2.50000004E-02  -4.59620111E-08
  -2.49499995E-02  -8.20251529E-08
  -2.49000005E-02  -4.58157281E-08
  -2.48499997E-02   5.01853989E-08
  -2.48000007E-02   1.67148713E-07
  -2.47499999E-02   2.56582268E-07
  -2.47000009E-02   2.81768280E-07
  -2.46500000E-02   2.34481632E-07
  -2.45999992E-02   1.39387865E-07
  -2.45500002E-02   4.38347669E-08
  -2.44999994E-02  -2.76762768E-09
  -2.44500004E-02   2.89821038E-08
  -2.43999995E-02   1.34794888E-07
  -2.43500005E-02   2.77734415E-07
  -2.42999997E-02   4.03889402E-07
  -2.42500007E-02   4.66028155E-07
  -2.41999999E-02   4.44849064E-07
  -2.41500009E-02   3.58252890E-07
  -2.41000000E-02   2.54186915E-07
  -2.40499992E-02   1.89854291E-07
  -2.40000002E-02   2.06252352E-07
  -2.39499994E-02   3.09318921E-07
  -2.39000004E-02   4.66283666E-07
  -2.38499995E-02   6.19226284E-07
  -2.38000005E-02   7.10195366E-07
  -2.37499997E-02   7.06929598E-07
  -2.37000007E-02   6.17691740E-07
  -2.36499999E-02   4.88326179E-07
  -2.36000009E-02   3.82435246E-07
  -2.35500000E-02   3.53149915E-07
  -2.34999992E-02   4.18925822E-07
  -2.34500002E-02   5.54284270E-07
  -2.33999994E-02   6.99985947E-07
  -2.33500004E-02   7.88529064E-07
  -2.32999995E-02   7.73913200E-07
  -2.32500006E-02   6.52453821E-07
  -2.31999997E-02   4.65136765E-07
  -2.31500007E-02   2.80047345E-07
  -2.30999999E-02   1.62292196E-07
  -2.30500009E-02   1.44590103E-07
  -2.30000000E-02   2.11700382E-07
  -2.29499992E-02   3.05953932E-07
  -2.29000002E-02   3.51865765E-07
  -2.28499994E-02   2.89231338E-07
  -2.28000004E-02   1.00089700E-07
  -2.27499995E-02  -1.82631709E-07
  -2.27000006E-02  -4.89040076E-07
  -2.26499997E-02  -7.43002488E-07
  -2.26000007E-02  -8.96266954E-07
  -2.25499999E-02  -9.50792355E-07
  -2.25000009E-02  -9.59057616E-07
  -2.24500000E-02  -1.00176703E-06
  -2.23999992E-02  -1.15247019E-06
  -2.23500002E-02  -1.44466298E-06
  -2.22999994E-02  -1.85613533E-06
  -2.22500004E-02  -2.31790818E-06
  -2.21999995E-02  -2.74423655E-06
  -2.21500006E-02  -3.07067489E-06
  -2.20999997E-02  -3.28333135E-06
  -2.20500007E-02  -3.42606359E-06
  -2.19999999E-02  -3.58197985E-06
  -2.19500009E-02  -3.83704219E-06
  -2.19000001E-02  -4.24171321E-06
  -2.18499992E-02  -4.78776110E-06
  -2.18000002E-02  -5.41087184E-06
  -2.17499994E-02  -6.01835791E-06
  -2.17000004E-02  -6.53002598E-06
  -2.16499995E-02  -6.91416017E-06
  -2.16000006E-02  -7.20244134E-06
  -2.15499997E-02  -7.47676950E-06
  -2.15000007E-02  -7.83338874E-06
  -2.14499999E-02  -8.33996182E-06
  -2.14000009E-02  -9.00468694E-06
  -2.13500001E-02  -9.77144373E-06
  -2.12999992E-02  -1.05435711E-05
  -2.12500002E-02  -1.12261469E-05
  -2.11999994E-02  -1.17681657E-05
  -2.11500004E-02  -1.21857356E-05
  -2.10999995E-02  -1.25556844E-05
  -2.10500006E-02  -1.29819291E-05
  -2.09999997E-02  -1.35492537E-05
  -2.09500007E-02  -1.42849294E-05
  -2.08999999E-02  -1.51454406E-05
  -2.08500009E-02  -1.60346863E-05
  -2.08000001E-02  -1.68459046E-05
  -2.07499992E-02  -1.75089772E-05
  -2.07000002E-02  -1.80220359E-05
  -2.06499994E-02  -1.84530290E-05
  -2.06000004E-02  -1.89101011E-05
  -2.05499995E-02  -1.94935965E-05
  -2.05000006E-02  -2.02509182E-05
  -2.04499997E-02  -2.11543738E-05
  -2.04000007E-02  -2.21123100E-05
  -2.03499999E-02  -2.30089645E-05
  -2.03000009E-02  -2.37556433E-05
  -2.02500001E-02  -2.43305130E-05
  -2.01999992E-02  -2.47890603E-05
  -2.01500002E-02  -2.52401878E-05
  -2.00999994E-02  -2.57982338E-05
  -2.00500004E-02  -2.65319741E-05
  -1.99999996E-02  -2.74333943E-05
  -1.99500006E-02  -2.84204325E-05
  -1.98999997E-02  -2.93727717E-05
  -1.98500007E-02  -3.01852378E-05
  -1.97999999E-02  -3.08151066E-05
  -1.97500009E-02  -3.13020209E-05
  -1.97000001E-02  -3.17514641E-05
  -1.96499992E-02  -3.22886262E-05
  -1.96000002E-02  -3.30029907E-05
  -1.95499994E-02  -3.39082799E-05
  -1.95000004E-02  -3.49358306E-05
  -1.94499996E-02  -3.59646619E-05
  -1.94000006E-02  -3.68752408E-05
  -1.93499997E-02  -3.76032476E-05
  -1.93000007E-02  -3.81691534E-05
  -1.92499999E-02  -3.86704160E-05
  -1.92000009E-02  -3.92393122E-05
  -1.91500001E-02  -3.99848614E-05
  -1.90999992E-02  -4.09445456E-05
  -1.90500002E-02  -4.20676879E-05
  -1.89999994E-02  -4.32379420E-05
  -1.89500004E-02  -4.43253739E-05
  -1.88999996E-02  -4.52449858E-05
  -1.88500006E-02  -4.59957955E-05
  -1.87999997E-02  -4.66627571E-05
  -1.87500007E-02  -4.73804466E-05
  -1.86999999E-02  -4.82742762E-05
  -1.86500009E-02  -4.94052110E-05
  -1.86000001E-02  -5.07429868E-05
  -1.85499992E-02  -5.21797119E-05
  -1.85000002E-02  -5.35781583E-05
  -1.84499994E-02  -5.48335993E-05
  -1.84000004E-02  -5.59216751E-05
  -1.83499996E-02  -5.69106014E-05
  -1.83000006E-02  -5.79322405E-05
  -1.82499997E-02  -5.91247081E-05
  -1.82000007E-02  -6.05717833E-05
  -1.81499999E-02  -6.22660300E-05
  -1.81000009E-02  -6.41124498E-05
  -1.80500001E-02  -6.59711732E-05
  -1.79999992E-02  -6.77205026E-05
  -1.79500002E-02  -6.93122347E-05
  -1.78999994E-02  -7.07943254E-05
  -1.78500004E-02  -7.22911136E-05
  -1.77999996E-02  -7.39492534E-05
  -1.77500006E-02  -7.58731549E-05
  -1.76999997E-02  -7.80790797E-05
  -1.76500008E-02  -8.04880547E-05
  -1.75999999E-02  -8.29614801E-05
  -1.75500009E-02  -8.53632373E-05
  -1.75000001E-02  -8.76207196E-05
  -1.74499992E-02  -8.97581849E-05
  -1.74000002E-02  -9.18873120E-05
  -1.73499994E-02  -9.41580802E-05
  -1.73000004E-02  -9.66929656E-05
  -1.72499996E-02  -9.95329101E-05
  -1.72000006E-02  -1.02619437E-04
  -1.71499997E-02  -1.05820836E-04
  -1.71000008E-02  -1.08991138E-04
  -1.70499999E-02  -1.12036047E-04
  -1.70000009E-02  -1.14955576E-04
  -1.69500001E-02  -1.17844895E-04
  -1.68999992E-02  -1.20852928E-04
  -1.68500002E-02  -1.24116879E-04
  -1.67999994E-02  -1.27701394E-04
  -1.67500004E-02  -1.31570167E-04
  -1.66999996E-02  -1.35602357E-04
  -1.66500006E-02  -1.39646509E-04
  -1.65999997E-02  -1.43588462E-04
  -1.65500008E-02  -1.47402883E-04
  -1.64999999E-02  -1.51164844E-04
  -1.64500009E-02  -1.55017100E-04
  -1.64000001E-02  -1.59107614E-04
  -1.63499992E-02  -1.63523684E-04
  -1.63000003E-02  -1.68253580E-04
  -1.62499994E-02  -1.73192646E-04
  -1.62000004E-02  -1.78189744E-04
  -1.61499996E-02  -1.83115641E-04
  -1.61000006E-02  -1.87921367E-04
  -1.60499997E-02  -1.92660867E-04
  -1.60000008E-02  -1.97467816E-04
  -1.59499999E-02  -2.02497351E-04
  -1.59000009E-02  -2.07857403E-04
  -1.58500001E-02  -2.13561420E-04
  -1.57999992E-02  -2.19523485E-04
  -1.57500003E-02  -2.25597032E-04
  -1.56999994E-02  -2.31640865E-04
  -1.56500004E-02  -2.37583125E-04
  -1.55999996E-02  -2.43454211E-04
  -1.55499997E-02  -2.49374280E-04
  -1.54999997E-02  -2.55501276E-04
  -1.54499998E-02  -2.61961628E-04
  -1.53999999E-02  -2.68794771E-04
  -1.53500000E-02  -2.75937375E-04
  -1.53000001E-02  -2.83253437E-04
  -1.52500002E-02  -2.90595548E-04
  -1.52000003E-02  -2.97872815E-04
  -1.51500003E-02  -3.05093243E-04
  -1.51000004E-02  -3.12361750E-04
  -1.50499996E-02  -3.19834973E-04
  -1.49999997E-02  -3.27653019E-04
  -1.49499997E-02  -3.35879449E-04
  -1.48999998E-02  -3.44474596E-04
  -1.48499999E-02  -3.53315263E-04
  -1.48000000E-02  -3.62251827E-04
  -1.47500001E-02  -3.71177302E-04
  -1.47000002E-02  -3.80077312E-04
  -1.46500003E-02  -3.89038119E-04
  -1.46000003E-02  -3.98209988E-04
  -1.45500004E-02  -4.07743006E-04
  -1.44999996E-02  -4.17722331E-04
  -1.44499997E-02  -4.28132073E-04
  -1.43999998E-02  -4.38866293E-04
  -1.43499998E-02  -4.49779327E-04
  -1.42999999E-02  -4.60751704E-04
  -1.42500000E-02  -4.71747422E-04
  -1.42000001E-02  -4.82832751E-04
  -1.41500002E-02  -4.94148175E-04
  -1.41000003E-02  -5.05849835E-04
  -1.40500003E-02  -5.18042769E-04
  -1.40000004E-02  -5.30735531E-04
  -1.39499996E-02  -5.43840870E-04
  -1.38999997E-02  -5.57217747E-04
  -1.38499998E-02  -5.70735720E-04
  -1.37999998E-02  -5.84337220E-04
  -1.37499999E-02  -5.98067068E-04
  -1.37000000E-02  -6.12052681E-04
  -1.36500001E-02  -6.26450928E-04
  -1.36000002E-02  -6.41381484E-04
  -1.35500003E-02  -6.56875840E-04
  -1.35000004E-02  -6.72866474E-04
  -1.34500004E-02  -6.89221604E-04
  -1.33999996E-02  -7.05806480E-04
  -1.33499997E-02  -7.22546363E-04
  -1.32999998E-02  -7.39462615E-04
  -1.32499998E-02  -7.56666821E-04
  -1.31999999E-02  -7.74313114E-04
  -1.31500000E-02  -7.92531646E-04
  -1.31000001E-02  -8.11374164E-04
  -1.30500002E-02  -8.30792880E-04
  -1.30000003E-02  -8.50669225E-04
  -1.29500004E-02  -8.70866817E-04
  -1.29000004E-02  -8.91295436E-04
  -1.28499996E-02  -9.11955722E-04
  -1.27999997E-02  -9.32939642E-04
  -1.27499998E-02  -9.54390329E-04
  -1.26999998E-02  -9.76443640E-04
  -1.26499999E-02  -9.99169890E-04
  -1.26000000E-02  -1.02254353E-03
  -1.25500001E-02  -1.04646012E-03
  -1.25000002E-02  -1.07078522E-03
  -1.24500003E-02  -1.09541812E-03
  -1.24000004E-02  -1.12033868E-03
  -1.23500004E-02  -1.14561850E-03
  -1.22999996E-02  -1.17139227E-03
  -1.22499997E-02  -1.19780109E-03
  -1.21999998E-02  -1.22493424E-03
  -1.21499998E-02  -1.25278998E-03
  -1.20999999E-02  -1.28127844E-03
  -1.20500000E-02  -1.31026877E-03
  -1.20000001E-02  -1.33964745E-03
  -1.19500002E-02  -1.36937259E-03
  -1.19000003E-02  -1.39949482E-03
  -1.18500004E-02  -1.43013813E-03
  -1.18000004E-02  -1.46144710E-03
  -1.17499996E-02  -1.49352103E-03
  -1.16999997E-02  -1.52637635E-03
  -1.16499998E-02  -1.55994343E-03
  -1.15999999E-02  -1.59409945E-03
  -1.15499999E-02  -1.62872823E-03
  -1.15000000E-02  -1.66377623E-03
  -1.14500001E-02  -1.69927662E-03
  -1.14000002E-02  -1.73533859E-03
  -1.13500003E-02  -1.77210441E-03
  -1.13000004E-02  -1.80968666E-03
  -1.12500004E-02  -1.84811978E-03
  -1.11999996E-02  -1.88735162E-03
  -1.11499997E-02  -1.92726776E-03
  -1.10999998E-02  -1.96774490E-03
  -1.10499999E-02  -2.00871541E-03
  -1.09999999E-02  -2.05019559E-03
  -1.09500000E-02  -2.09227623E-03
  -1.09000001E-02  -2.13509239E-03
  -1.08500002E-02  -2.17876863E-03
  -1.08000003E-02  -2.22336245E-03
  -1.07500004E-02  -2.26884219E-03
  -1.07000005E-02  -2.31510866E-03
  -1.06499996E-02  -2.36204593E-03
  -1.05999997E-02  -2.40957085E-03
  -1.05499998E-02  -2.45767646E-03
  -1.04999999E-02  -2.50644074E-03
  -1.04499999E-02  -2.55599013E-03
  -1.04000000E-02  -2.60645244E-03
  -1.03500001E-02  -2.65790219E-03
  -1.03000002E-02  -2.71032634E-03
  -1.02500003E-02  -2.76364502E-03
  -1.02000004E-02  -2.81774532E-03
  -1.01500005E-02  -2.87253340E-03
  -1.00999996E-02  -2.92798434E-03
  -1.00499997E-02  -2.98415544E-03
  -9.99999978E-03  -3.04116565E-03
  -9.94999986E-03  -3.09914490E-03
  -9.89999995E-03  -3.15817795E-03
  -9.85000003E-03  -3.21827689E-03
  -9.80000012E-03  -3.27937817E-03
  -9.75000020E-03  -3.34137050E-03
  -9.70000029E-03  -3.40415444E-03
  -9.65000037E-03  -3.46768205E-03
  -9.60000046E-03  -3.53199104E-03
  -9.54999961E-03  -3.59719340E-03
  -9.49999969E-03  -3.66341579E-03
  -9.44999978E-03  -3.73076368E-03
  -9.39999986E-03  -3.79926641E-03
  -9.34999995E-03  -3.86887067E-03
  -9.30000003E-03  -3.93947819E-03
  -9.25000012E-03  -4.01098002E-03
  -9.20000020E-03  -4.08331864E-03
  -9.15000029E-03  -4.15651826E-03
  -9.10000037E-03  -4.23066085E-03
  -9.05000046E-03  -4.30586888E-03
  -8.99999961E-03  -4.38224943E-03
  -8.94999970E-03  -4.45984257E-03
  -8.89999978E-03  -4.53862315E-03
  -8.84999987E-03  -4.61850269E-03
  -8.79999995E-03  -4.69936943E-03
  -8.75000004E-03  -4.78115492E-03
  -8.70000012E-03  -4.86386474E-03
  -8.65000021E-03  -4.94757202E-03
  -8.60000029E-03  -5.03239268E-03
  -8.55000038E-03  -5.11843152E-03
  -8.50000046E-03  -5.20573650E-03
  -8.44999962E-03  -5.29429037E-03
  -8.39999970E-03  -5.38402237E-03
  -8.34999979E-03  -5.47482586E-03
  -8.29999987E-03  -5.56661794E-03
  -8.24999996E-03  -5.65937720E-03
  -8.20000004E-03  -5.75314555E-03
  -8.15000013E-03  -5.84803661E-03
  -8.10000021E-03  -5.94416726E-03
  -8.05000030E-03  -6.04161201E-03
  -8.00000038E-03  -6.14036294E-03
  -7.95000046E-03  -6.24033622E-03
  -7.89999962E-03  -6.34142058E-03
  -7.84999970E-03  -6.44352986E-03
  -7.79999979E-03  -6.54663891E-03
  -7.74999987E-03  -6.65078964E-03
  -7.69999996E-03  -6.75607985E-03
  -7.65000004E-03  -6.86261337E-03
  -7.60000013E-03  -6.97045308E-03
  -7.55000021E-03  -7.07961991E-03
  -7.49999983E-03  -7.19007198E-03
  -7.44999992E-03  -7.30171800E-03
  -7.40000000E-03  -7.41444761E-03
  -7.35000009E-03  -7.52819655E-03
  -7.30000017E-03  -7.64298392E-03
  -7.24999979E-03  -7.75886700E-03
  -7.19999988E-03  -7.87593704E-03
  -7.14999996E-03  -7.99428392E-03
  -7.10000005E-03  -8.11393838E-03
  -7.05000013E-03  -8.23487062E-03
  -7.00000022E-03  -8.35698284E-03
  -6.94999984E-03  -8.48017354E-03
  -6.89999992E-03  -8.60436819E-03
  -6.85000001E-03  -8.72955285E-03
  -6.80000009E-03  -8.85580294E-03
  -6.75000018E-03  -8.98320787E-03
  -6.69999979E-03  -9.11184307E-03
  -6.64999988E-03  -9.24174953E-03
  -6.59999996E-03  -9.37289279E-03
  -6.55000005E-03  -9.50520486E-03
  -6.50000013E-03  -9.63858236E-03
  -6.45000022E-03  -9.77292657E-03
  -6.39999984E-03  -9.90821142E-03
  -6.34999992E-03  -1.00444714E-02
  -6.30000001E-03  -1.01817865E-02
  -6.25000009E-03  -1.03202369E-02
  -6.20000018E-03  -1.04598617E-02
  -6.14999980E-03  -1.06006674E-02
  -6.09999988E-03  -1.07425749E-02
  -6.04999997E-03  -1.08854538E-02
  -6.00000005E-03  -1.10292006E-02
  -5.95000014E-03  -1.11737661E-02
  -5.90000022E-03  -1.13191269E-02
  -5.84999984E-03  -1.14653269E-02
  -5.79999993E-03  -1.16124656E-02
  -5.75000001E-03  -1.17606297E-02
  -5.70000010E-03  -1.19098397E-02
  -5.65000018E-03  -1.20600322E-02
  -5.59999980E-03  -1.22111263E-02
  -5.54999989E-03  -1.23629821E-02
  -5.49999997E-03  -1.25154778E-02
  -5.45000006E-03  -1.26685901E-02
  -5.40000014E-03  -1.28223440E-02
  -5.35000023E-03  -1.29767731E-02
  -5.29999984E-03  -1.31319398E-02
  -5.24999993E-03  -1.32879112E-02
  -5.20000001E-03  -1.34446826E-02
  -5.15000010E-03  -1.36021879E-02
  -5.10000018E-03  -1.37603097E-02
  -5.04999980E-03  -1.39188664E-02
  -4.99999989E-03  -1.40777314E-02
  -4.94999997E-03  -1.42368712E-02
  -4.90000006E-03  -1.43963285E-02
  -4.85000014E-03  -1.45561732E-02
  -4.80000023E-03  -1.47164650E-02
  -4.74999985E-03  -1.48772281E-02
  -4.69999993E-03  -1.50384111E-02
  -4.65000002E-03  -1.51999006E-02
  -4.60000010E-03  -1.53615139E-02
  -4.55000019E-03  -1.55231170E-02
  -4.49999981E-03  -1.56846214E-02
  -4.44999989E-03  -1.58459954E-02
  -4.39999998E-03  -1.60073042E-02
  -4.35000006E-03  -1.61686167E-02
  -4.30000015E-03  -1.63300093E-02
  -4.25000023E-03  -1.64914802E-02
  -4.19999985E-03  -1.66528840E-02
  -4.14999994E-03  -1.68140363E-02
  -4.10000002E-03  -1.69747062E-02
  -4.05000011E-03  -1.71347577E-02
  -4.00000019E-03  -1.72941666E-02
  -3.94999981E-03  -1.74529422E-02
  -3.89999989E-03  -1.76111292E-02
  -3.84999998E-03  -1.77688040E-02
  -3.80000006E-03  -1.79260261E-02
  -3.74999992E-03  -1.80827212E-02
  -3.70000000E-03  -1.82386711E-02
  -3.65000009E-03  -1.83936562E-02
  -3.59999994E-03  -1.85474381E-02
  -3.55000002E-03  -1.86998434E-02
  -3.50000011E-03  -1.88508667E-02
  -3.44999996E-03  -1.90005694E-02
  -3.40000005E-03  -1.91490985E-02
  -3.34999990E-03  -1.92965437E-02
  -3.29999998E-03  -1.94428582E-02
  -3.25000007E-03  -1.95878725E-02
  -3.19999992E-03  -1.97313745E-02
  -3.15000000E-03  -1.98730659E-02
  -3.10000009E-03  -2.00126190E-02
  -3.04999994E-03  -2.01498996E-02
  -3.00000003E-03  -2.02850141E-02
  -2.95000011E-03  -2.04181746E-02
  -2.89999996E-03  -2.05495562E-02
  -2.85000005E-03  -2.06791870E-02
  -2.79999990E-03  -2.08068453E-02
  -2.74999999E-03  -2.09321808E-02
  -2.70000007E-03  -2.10548565E-02
  -2.64999992E-03  -2.11745612E-02
  -2.60000001E-03  -2.12910883E-02
  -2.55000009E-03  -2.14044265E-02
  -2.49999994E-03  -2.15148088E-02
  -2.45000003E-03  -2.16224790E-02
  -2.40000011E-03  -2.17274651E-02
  -2.34999997E-03  -2.18298230E-02
  -2.30000005E-03  -2.19293088E-02
  -2.24999990E-03  -2.20253170E-02
  -2.19999999E-03  -2.21173074E-02
  -2.15000007E-03  -2.22049747E-02
  -2.09999993E-03  -2.22882833E-02
  -2.05000001E-03  -2.23674104E-02
  -2.00000009E-03  -2.24427041E-02
  -1.94999995E-03  -2.25145128E-02
  -1.90000003E-03  -2.25829147E-02
  -1.85000000E-03  -2.26475988E-02
  -1.79999997E-03  -2.27079690E-02
  -1.75000005E-03  -2.27633175E-02
  -1.70000002E-03  -2.28131413E-02
  -1.64999999E-03  -2.28572860E-02
  -1.59999996E-03  -2.28958894E-02
  -1.55000004E-03  -2.29294486E-02
  -1.50000001E-03  -2.29585040E-02
  -1.44999998E-03  -2.29831003E-02
  -1.39999995E-03  -2.30029654E-02
  -1.35000004E-03  -2.30175741E-02
  -1.30000000E-03  -2.30260845E-02
  -1.24999997E-03  -2.30278932E-02
  -1.20000006E-03  -2.30227485E-02
  -1.15000003E-03  -2.30106916E-02
  -1.09999999E-03  -2.29921583E-02
  -1.04999996E-03  -2.29676552E-02
  -1.00000005E-03  -2.29374506E-02
  -9.50000016E-04  -2.29014829E-02
  -8.99999985E-04  -2.28592902E-02
  -8.50000011E-04  -2.28100978E-02
  -7.99999980E-04  -2.27530003E-02
  -7.50000007E-04  -2.26873606E-02
  -6.99999975E-04  -2.26132199E-02
  -6.50000002E-04  -2.25309264E-02
  -6.00000028E-04  -2.24411525E-02
  -5.49999997E-04  -2.23445538E-02
  -5.00000024E-04  -2.22411472E-02
  -4.49999992E-04  -2.21304819E-02
  -3.99999990E-04  -2.20116843E-02
  -3.49999988E-04  -2.18836293E-02
  -3.00000014E-04  -2.17454731E-02
  -2.50000012E-04  -2.15970241E-02
  -1.99999995E-04  -2.14386433E-02
  -1.50000007E-04  -2.12711357E-02
  -9.99999975E-05  -2.10953429E-02
  -4.99999987E-05  -2.09115557E-02
   0.00000000      -2.07193848E-02
   4.99999987E-05  -2.05179099E-02
   9.99999975E-05  -2.03059111E-02
   1.50000007E-04  -2.00822167E-02
   1.99999995E-04  -1.98464058E-02
   2.50000012E-04  -1.95989795E-02
   3.00000014E-04  -1.93407964E-02
   3.49999988E-04  -1.90727618E-02
   3.99999990E-04  -1.87954567E-02
   4.49999992E-04  -1.85085554E-02
   5.00000024E-04  -1.82109959E-02
   5.49999997E-04  -1.79014876E-02
   6.00000028E-04  -1.75788496E-02
   6.50000002E-04  -1.72424726E-02
   6.99999975E-04  -1.68926306E-02
   7.50000007E-04  -1.65303033E-02
   7.99999980E-04  -1.61564481E-02
   8.50000011E-04  -1.57716107E-02
   8.99999985E-04  -1.53757976E-02
   9.50000016E-04  -1.49681652E-02
   1.00000005E-03  -1.45473210E-02
   1.04999996E-03  -1.41120348E-02
   1.09999999E-03  -1.36614889E-02
   1.15000003E-03  -1.31956246E-02
   1.20000006E-03  -1.27153564E-02
   1.24999997E-03  -1.22218719E-02
   1.30000000E-03  -1.17158107E-02
   1.35000004E-03  -1.11971227E-02
   1.39999995E-03  -1.06652100E-02
   1.44999998E-03  -1.01189744E-02
   1.50000001E-03  -9.55705438E-03
   1.55000004E-03  -8.97845346E-03
   1.59999996E-03  -8.38293228E-03
   1.64999999E-03  -7.77111668E-03
   1.70000002E-03  -7.14417221E-03
   1.75000005E-03  -6.50302600E-03
   1.79999997E-03  -5.84799657E-03
   1.85000000E-03  -5.17866295E-03
   1.90000003E-03  -4.49391594E-03
   1.94999995E-03  -3.79228662E-03
   2.00000009E-03  -3.07248719E-03
   2.05000001E-03  -2.33395328E-03
   2.09999993E-03  -1.57721201E-03
   2.15000007E-03  -8.03481380E-04
   2.19999999E-03  -1.40427883E-05
   2.24999990E-03   7.90453050E-04
   2.30000005E-03   1.61032437E-03
   2.34999997E-03   2.44674692E-03
   2.40000011E-03   3.30121210E-03
   2.45000003E-03   4.17495985E-03
   2.49999994E-03   5.06881578E-03
   2.55000009E-03   5.98254241E-03
   2.60000001E-03   6.91503333E-03
   2.64999992E-03   7.86488224E-03
   2.70000007E-03   8.83099623E-03
   2.74999999E-03   9.81341582E-03
   2.79999990E-03   1.08132549E-02