  -3.99999991E-02   0.00000000    
  -3.99499983E-02   0.00000000    
  -3.99000011E-02   0.00000000    
  -3.98500003E-02  -9.07099572E-20
  -3.97999994E-02   1.72636451E-18
  -3.97499986E-02   1.87516650E-17
  -3.97000015E-02   8.94025144E-17
  -3.96500006E-02   2.76014474E-16
  -3.95999998E-02   6.17767757E-16
  -3.95499989E-02   1.02463289E-15
  -3.95000018E-02   1.15345559E-15
  -3.94500010E-02   3.70992093E-16
  -3.94000001E-02  -2.07457385E-15
  -3.93499993E-02  -6.63314593E-15
  -3.92999984E-02  -1.29181596E-14
  -3.92500013E-02  -1.93767528E-14
  -3.92000005E-02  -2.35321812E-14
  -3.91499996E-02  -2.29634850E-14
  -3.90999988E-02  -1.67533918E-14
  -3.90500017E-02  -6.67932277E-15
  -3.90000008E-02   2.73226888E-15
  -3.89500000E-02   5.78450319E-15
  -3.88999991E-02  -1.54101001E-15
  -3.88499983E-02  -1.87451525E-14
  -3.88000011E-02  -3.96590008E-14
  -3.87500003E-02  -5.41391103E-14
  -3.86999995E-02  -5.24279174E-14
  -3.86499986E-02  -3.04199415E-14
  -3.86000015E-02   6.88820322E-15
  -3.85500006E-02   4.61546627E-14
  -3.84999998E-02   7.12964505E-14
  -3.84499989E-02   7.20336266E-14
  -3.84000018E-02   5.13500172E-14
  -3.83500010E-02   2.74791989E-14
  -3.83000001E-02   2.80588930E-14
  -3.82499993E-02   7.79262654E-14
  -3.81999984E-02   1.85829217E-13
  -3.81500013E-02   3.36919051E-13
  -3.81000005E-02   4.95985956E-13
  -3.80499996E-02   6.21520359E-13
  -3.79999988E-02   6.85058184E-13
  -3.79500017E-02   6.86764393E-13
  -3.79000008E-02   6.58882616E-13
  -3.78500000E-02   6.53693896E-13
  -3.77999991E-02   7.20011182E-13
  -3.77499983E-02   8.78564907E-13
  -3.77000012E-02   1.10850814E-12
  -3.76500003E-02   1.35306024E-12
  -3.75999995E-02   1.54340093E-12
  -3.75499986E-02   1.63050151E-12
  -3.75000015E-02   1.60964395E-12
  -3.74500006E-02   1.52499899E-12
  -3.73999998E-02   1.45090808E-12
  -3.73499990E-02   1.45792883E-12
  -3.73000018E-02   1.57942214E-12
  -3.72500010E-02   1.79452080E-12
  -3.72000001E-02   2.03560693E-12
  -3.71499993E-02   2.21666283E-12
  -3.70999984E-02   2.26882987E-12
  -3.70500013E-02   2.16631595E-12
  -3.70000005E-02   1.93126222E-12
  -3.69499996E-02   1.61760243E-12
  -3.68999988E-02   1.28496259E-12
  -3.68500017E-02   9.77824267E-13
  -3.68000008E-02   7.19815971E-13
  -3.67500000E-02   5.21542716E-13
  -3.66999991E-02   3.90558029E-13
  -3.66499983E-02   3.30905849E-13
  -3.66000012E-02   3.28660954E-13
  -3.65500003E-02   3.33547507E-13
  -3.64999995E-02   2.55497988E-13
  -3.64499986E-02  -8.65559252E-15
  -3.64000015E-02  -5.19962654E-13
  -3.63500006E-02  -1.23736741E-12
  -3.62999998E-02  -1.99088250E-12
  -3.62499990E-02  -2.51995690E-12
  -3.62000018E-02  -2.58010345E-12
  -3.61500010E-02  -2.07948849E-12
  -3.61000001E-02  -1.17548842E-12
  -3.60499993E-02  -2.62101186E-13
  -3.59999985E-02   1.78168610E-13
  -3.59500013E-02  -1.86495134E-13
  -3.59000005E-02  -1.31581757E-12
  -3.58499996E-02  -2.72163867E-12
  -3.57999988E-02  -3.61723108E-12
  -3.57500017E-02  -3.26697393E-12
  -3.57000008E-02  -1.39620086E-12
  -3.56500000E-02   1.54507613E-12
  -3.55999991E-02   4.44068046E-12
  -3.55499983E-02   5.93338703E-12
  -3.55000012E-02   5.07556107E-12
  -3.54500003E-02   1.91283057E-12
  -3.53999995E-02  -2.32048300E-12
  -3.53499986E-02  -5.58007286E-12
  -3.53000015E-02  -5.88886058E-12
  -3.52500007E-02  -2.36247610E-12
  -3.51999998E-02   4.11295867E-12
  -3.51499990E-02   1.09633838E-11
  -3.51000018E-02   1.48714201E-11
  -3.50500010E-02   1.32656542E-11
  -3.50000001E-02   5.70507530E-12
  -3.49499993E-02  -5.55193001E-12
  -3.48999985E-02  -1.62173122E-11
  -3.48500013E-02  -2.17554637E-11
  -3.48000005E-02  -1.95733117E-11
  -3.47499996E-02  -1.05955401E-11
  -3.46999988E-02   6.54161295E-13
  -3.46500017E-02   7.73753544E-12
  -3.46000008E-02   5.18645413E-12
  -3.45500000E-02  -8.65881932E-12
  -3.44999991E-02  -3.02660119E-11
  -3.44499983E-02  -5.18753929E-11
  -3.44000012E-02  -6.46744325E-11
  -3.43500003E-02  -6.29352334E-11
  -3.42999995E-02  -4.72185520E-11
  -3.42499986E-02  -2.49446644E-11
  -3.42000015E-02  -7.69208221E-12
  -3.41500007E-02  -6.10489567E-12
  -3.40999998E-02  -2.45802389E-11
  -3.40499990E-02  -5.83018356E-11
  -3.40000018E-02  -9.43711637E-11
  -3.39500010E-02  -1.17009069E-10
  -3.39000002E-02  -1.14808739E-10
  -3.38499993E-02  -8.67671004E-11
  -3.37999985E-02  -4.40115271E-11
  -3.37500013E-02  -5.85579371E-12
  -3.37000005E-02   8.58984238E-12
  -3.36499996E-02  -1.02764281E-11
  -3.35999988E-02  -5.67251177E-11
  -3.35500017E-02  -1.10584798E-10
  -3.35000008E-02  -1.45203335E-10
  -3.34500000E-02  -1.39462872E-10
  -3.33999991E-02  -8.85252982E-11
  -3.33499983E-02  -7.99303679E-12
  -3.33000012E-02   7.12525455E-11
  -3.32500003E-02   1.16089263E-10
  -3.31999995E-02   1.06678708E-10
  -3.31499986E-02   4.73120570E-11
  -3.31000015E-02  -3.31080267E-11
  -3.30500007E-02  -9.22692825E-11
  -3.29999998E-02  -9.32003710E-11
  -3.29499990E-02  -2.24000020E-11
  -3.29000019E-02   1.01363036E-10
  -3.28500010E-02   2.32710143E-10
  -3.28000002E-02   3.18516269E-10
  -3.27499993E-02   3.22297078E-10
  -3.26999985E-02   2.43055798E-10
  -3.26500013E-02   1.19093319E-10
  -3.26000005E-02   1.35328857E-11
  -3.25499997E-02  -1.32996739E-11
  -3.24999988E-02   6.72336284E-11
  -3.24500017E-02   2.35503311E-10
  -3.24000008E-02   4.28334396E-10
  -3.23500000E-02   5.64739477E-10
  -3.22999991E-02   5.82385473E-10
  -3.22499983E-02   4.68510730E-10
  -3.22000012E-02   2.70188844E-10
  -3.21500003E-02   7.72766365E-11
  -3.20999995E-02  -1.62772521E-11
  -3.20499986E-02   4.36327016E-11
  -3.20000015E-02   2.42372983E-10
  -3.19500007E-02   4.97619390E-10
  -3.18999998E-02   6.92380098E-10
  -3.18499990E-02   7.27112481E-10
  -3.18000019E-02   5.67980218E-10
  -3.17500010E-02   2.68225303E-10
  -3.17000002E-02  -4.96011947E-11
  -3.16499993E-02  -2.45386683E-10
  -3.15999985E-02  -2.25632651E-10
  -3.15500014E-02   9.05019462E-12
  -3.15000005E-02   3.56710134E-10
  -3.14499997E-02   6.53631371E-10
  -3.13999988E-02   7.45832451E-10
  -3.13500017E-02   5.61499292E-10
  -3.13000008E-02   1.50570723E-10
  -3.12500000E-02  -3.29483607E-10
  -3.11999992E-02  -6.79058976E-10
  -3.11500002E-02  -7.46239792E-10
  -3.10999993E-02  -5.00936626E-10
  -3.10500003E-02  -5.76314621E-11
  -3.09999995E-02   3.67563840E-10
  -3.09500005E-02   5.50220092E-10
  -3.08999997E-02   3.61387920E-10
  -3.08500007E-02  -1.65695305E-10
  -3.07999998E-02  -8.39610770E-10
  -3.07500008E-02  -1.38850542E-09
  -3.07000000E-02  -1.58051083E-09
  -3.06499992E-02  -1.33380296E-09
  -3.06000002E-02  -7.64507735E-10
  -3.05499993E-02  -1.46062634E-10
  -3.05000003E-02   2.06991951E-10
  -3.04499995E-02   8.18930895E-11
  -3.04000005E-02  -5.27254795E-10
  -3.03499997E-02  -1.40329603E-09
  -3.03000007E-02  -2.19194218E-09
  -3.02499998E-02  -2.55653321E-09
  -3.02000009E-02  -2.33439867E-09
  -3.01500000E-02  -1.62260350E-09
  -3.00999992E-02  -7.49032836E-10
  -3.00500002E-02  -1.35061004E-10
  -2.99999993E-02  -1.06560510E-10
  -2.99500003E-02  -7.37346961E-10
  -2.98999995E-02  -1.79928128E-09
  -2.98500005E-02  -2.84849078E-09
  -2.97999997E-02  -3.41613449E-09
  -2.97500007E-02  -3.22205151E-09
  -2.96999998E-02  -2.31427322E-09
  -2.96500009E-02  -1.06585174E-09
  -2.96000000E-02  -2.21645827E-11
  -2.95499992E-02   3.39723250E-10
  -2.95000002E-02  -1.65898739E-10
  -2.94499993E-02  -1.33139066E-09
  -2.94000003E-02  -2.62845434E-09
  -2.93499995E-02  -3.43191031E-09
  -2.93000005E-02  -3.30028338E-09
  -2.92499997E-02  -2.18766250E-09
  -2.92000007E-02  -4.85975038E-10
  -2.91499998E-02   1.13087917E-09
  -2.91000009E-02   2.00029704E-09
  -2.90500000E-02   1.77470627E-09
  -2.89999992E-02   5.97309036E-10
  -2.89500002E-02  -9.37339539E-10
  -2.88999993E-02  -2.03117545E-09
  -2.88500004E-02  -2.03646078E-09
  -2.87999995E-02  -7.59423913E-10
  -2.87500005E-02   1.42755929E-09
  -2.86999997E-02   3.72621667E-09
  -2.86500007E-02   5.25381871E-09
  -2.85999998E-02   5.44014345E-09
  -2.85500009E-02   4.30167058E-09
  -2.85000000E-02   2.46190779E-09
  -2.84499992E-02   8.96087871E-10
  -2.84000002E-02   5.03059816E-10
  -2.83499993E-02   1.69100078E-09
  -2.83000004E-02   4.16630153E-09
  -2.82499995E-02   7.03155534E-09
  -2.82000005E-02   9.16291931E-09
  -2.81499997E-02   9.70851488E-09
  -2.81000007E-02   8.48696402E-09
  -2.80499998E-02   6.10014084E-09
  -2.80000009E-02   3.69546016E-09
  -2.79500000E-02   2.46929432E-09
  -2.78999992E-02   3.12497206E-09
  -2.78500002E-02   5.52929924E-09
  -2.77999993E-02   8.73258621E-09
  -2.77500004E-02   1.13597070E-08
  -2.76999995E-02   1.22117543E-08
  -2.76500005E-02   1.08150928E-08
  -2.75999997E-02   7.66672326E-09
  -2.75500007E-02   4.05129086E-09
  -2.74999999E-02   1.49365098E-09
  -2.74500009E-02   1.07880416E-09
  -2.74000000E-02   2.94121261E-09
  -2.73499992E-02   6.16199092E-09
  -2.73000002E-02   9.13821641E-09
  -2.72499993E-02   1.02777413E-08
  -2.72000004E-02   8.71936034E-09
  -2.71499995E-02   4.75392214E-09
  -2.71000005E-02  -2.56664107E-10
  -2.70499997E-02  -4.44721016E-09
  -2.70000007E-02  -6.26795016E-09
  -2.69499999E-02  -5.19508392E-09
  -2.69000009E-02  -2.00794270E-09
  -2.68500000E-02   1.51028035E-09
  -2.67999992E-02   3.33698913E-09
  -2.67500002E-02   2.11413953E-09
  -2.66999993E-02  -2.21028706E-09
  -2.66500004E-02  -8.30320523E-09
  -2.65999995E-02  -1.39881919E-08
  -2.65500005E-02  -1.71889472E-08
  -2.64999997E-02  -1.68654033E-08
  -2.64500007E-02  -1.35203679E-08
  -2.63999999E-02  -9.03127972E-09
  -2.63500009E-02  -5.85598414E-09
  -2.63000000E-02  -5.94537664E-09
  -2.62499992E-02  -9.84091564E-09
  -2.62000002E-02  -1.63706737E-08
  -2.61499994E-02  -2.31042705E-08
  -2.61000004E-02  -2.73917653E-08
  -2.60499995E-02  -2.75419740E-08
  -2.60000005E-02  -2.36156499E-08
  -2.59499997E-02  -1.74619892E-08
  -2.59000007E-02  -1.19529595E-08
  -2.58499999E-02  -9.72889591E-09
  -2.58000009E-02  -1.20005232E-08
  -2.57500000E-02  -1.79479560E-08
  -2.56999992E-02  -2.50093048E-08
  -2.56500002E-02  -2.99628091E-08
  -2.55999994E-02  -3.03462500E-08
  -2.55500004E-02  -2.55887205E-08
  -2.54999995E-02  -1.73357932E-08
  -2.54500005E-02  -8.79209860E-09
  -2.53999997E-02  -3.34010886E-09
  -2.53500007E-02  -3.02846548E-09
  -2.52999999E-02  -7.60355956E-09
  -2.52500009E-02  -1.45389043E-08
  -2.52000000E-02  -2.00854711E-08
  -2.51499992E-02  -2.09087894E-08
  -2.51000002E-02  -1.55996585E-08
  -2.50499994E-02  -5.37629807E-09
  -2.50000004E-02   6.36590114E-09
  -2.49499995E-02   1.54961306E-08
  -2.49000005E-02   1.89700753E-08
  -2.48499997E-02   1.62283680E-08
  -2.48000007E-02   9.52963841E-09
  -2.47499999E-02   3.03144376E-09
  -2.47000009E-02   9.87415261E-10
  -2.46500000E-02   5.83811444E-09
  -2.45999992E-02   1.70478476E-08
  -2.45500002E-02   3.12347552E-08
  -2.44999994E-02   4.35804814E-08
  -2.44500004E-02   4.99316535E-08
  -2.43999995E-02   4.86749592E-08
  -2.43500005E-02   4.15379517E-08
  -2.42999997E-02   3.29201093E-08
  -2.42500007E-02   2.80041785E-08
  -2.41999999E-02   3.04528029E-08
  -2.41500009E-02   4.07084144E-08
  -2.41000000E-02   5.56781075E-08
  -2.40499992E-02   6.99907403E-08
  -2.40000002E-02   7.83153595E-08
  -2.39499994E-02   7.77376528E-08
  -2.39000004E-02   6.91320636E-08
  -2.38499995E-02   5.68825769E-08
  -2.38000005E-02   4.70233914E-08
  -2.37499997E-02   4.45809647E-08
  -2.37000007E-02   5.12817628E-08
  -2.36499999E-02   6.46637304E-08
  -2.36000009E-02   7.90341872E-08
  -2.35500000E-02   8.79042119E-08
  -2.34999992E-02   8.68567511E-08
  -2.34500002E-02   7.55786758E-08
  -2.33999994E-02   5.81213335E-08
  -2.33500004E-02   4.12178665E-08
  -2.32999995E-02   3.13501651E-08
  -2.32500006E-02   3.18391713E-08
  -2.31999997E-02   4.12609609E-08
  -2.31500007E-02   5.39375833E-08
  -2.30999999E-02   6.23458547E-08
  -2.30500009E-02   6.04242558E-08
  -2.30000000E-02   4.63259120E-08
  -2.29499992E-02   2.33697701E-08
  -2.29000002E-02  -1.28851119E-09
  -2.28499994E-02  -1.97388204E-08
  -2.28000004E-02  -2.68246758E-08
  -2.27499995E-02  -2.25206307E-08
  -2.27000006E-02  -1.20830670E-08
  -2.26499997E-02  -3.84274124E-09
  -2.26000007E-02  -5.55817392E-09
  -2.25499999E-02  -2.09193018E-08
  -2.25000009E-02  -4.77687863E-08
  -2.24500000E-02  -7.88843266E-08
  -2.23999992E-02  -1.05044386E-07
  -2.23500002E-02  -1.19070691E-07
  -2.22999994E-02  -1.19068162E-07
  -2.22500004E-02  -1.09392445E-07
  -2.21999995E-02  -9.88505846E-08
  -2.21500006E-02  -9.68637153E-08
  -2.20999997E-02  -1.09251076E-07
  -2.20500007E-02  -1.35508785E-07
  -2.19999999E-02  -1.68838838E-07
  -2.19500009E-02  -1.98988403E-07
  -2.19000001E-02  -2.16705445E-07
  -2.18499992E-02  -2.17863160E-07
  -2.18000002E-02  -2.05403268E-07
  -2.17499994E-02  -1.88173715E-07
  -2.17000004E-02  -1.77100347E-07
  -2.16499995E-02  -1.80333387E-07
  -2.16000006E-02  -1.99509017E-07
  -2.15499997E-02  -2.28822927E-07
  -2.15000007E-02  -2.57399051E-07
  -2.14499999E-02  -2.73978770E-07
  -2.14000009E-02  -2.71895118E-07
  -2.13500001E-02  -2.52120685E-07
  -2.12999992E-02  -2.22982976E-07
  -2.12500002E-02  -1.96594428E-07
  -2.11999994E-02  -1.83511645E-07
  -2.11500004E-02  -1.87963352E-07
  -2.10999995E-02  -2.05788524E-07
  -2.10500006E-02  -2.26067485E-07
  -2.09999997E-02  -2.35804151E-07
  -2.09500007E-02  -2.25641941E-07
  -2.08999999E-02  -1.94089466E-07
  -2.08500009E-02  -1.48338898E-07
  -2.08000001E-02  -1.01235649E-07
  -2.07499992E-02  -6.56639614E-08
  -2.07000002E-02  -4.87926819E-08
  -2.06499994E-02  -4.87419918E-08
  -2.06000004E-02  -5.52079733E-08
  -2.05499995E-02  -5.38532881E-08
  -2.05000006E-02  -3.25888152E-08
  -2.04499997E-02   1.30107312E-08
  -2.04000007E-02   7.75861224E-08
  -2.03499999E-02   1.48181059E-07
  -2.03000009E-02   2.09853667E-07
  -2.02500001E-02   2.52285162E-07
  -2.01999992E-02   2.74464043E-07
  -2.01500002E-02   2.85322614E-07
  -2.00999994E-02   2.99961272E-07
  -2.00500004E-02   3.33051389E-07
  -1.99999996E-02   3.92296016E-07
  -1.99500006E-02   4.74857387E-07
  -1.98999997E-02   5.68398093E-07
  -1.98500007E-02   6.56362204E-07
  -1.97999999E-02   7.25230962E-07
  -1.97500009E-02   7.70564611E-07
  -1.97000001E-02   7.99123882E-07
  -1.96499992E-02   8.26053906E-07
  -1.96000002E-02   8.68292034E-07
  -1.95499994E-02   9.37057507E-07
  -1.95000004E-02   1.03274272E-06
  -1.94499996E-02   1.14451859E-06
  -1.94000006E-02   1.25491249E-06
  -1.93499997E-02   1.34741401E-06
  -1.93000007E-02   1.41378644E-06
  -1.92499999E-02   1.45783110E-06
  -1.92000009E-02   1.49387517E-06
  -1.91500001E-02   1.54056215E-06
  -1.90999992E-02   1.61262346E-06
  -1.90500002E-02   1.71424449E-06
  -1.89999994E-02   1.83699956E-06
  -1.89500004E-02   1.96334258E-06
  -1.88999996E-02   2.07419930E-06
  -1.88500006E-02   2.15736031E-06
  -1.87999997E-02   2.21296682E-06
  -1.87500007E-02   2.25361146E-06
  -1.86999999E-02   2.29892521E-06
  -1.86500009E-02   2.36696087E-06
  -1.86000001E-02   2.46614832E-06
  -1.85499992E-02   2.59138938E-06
  -1.85000002E-02   2.72608850E-06
  -1.84499994E-02   2.84930411E-06
  -1.84000004E-02   2.94493748E-06
  -1.83499996E-02   3.00891702E-06
  -1.83000006E-02   3.05116305E-06
  -1.82499997E-02   3.09139318E-06
  -1.82000007E-02   3.15053444E-06
  -1.81499999E-02   3.24147436E-06
  -1.81000009E-02   3.36324865E-06
  -1.80500001E-02   3.50127448E-06
  -1.79999992E-02   3.63360846E-06
  -1.79500002E-02   3.74055708E-06
  -1.78999994E-02   3.81342238E-06
  -1.78500004E-02   3.85851126E-06
  -1.77999996E-02   3.89457318E-06
  -1.77500006E-02   3.94470590E-06
  -1.76999997E-02   4.02623891E-06
  -1.76500008E-02   4.14304213E-06
  -1.75999999E-02   4.28368003E-06
  -1.75500009E-02   4.42630972E-06
  -1.75000001E-02   4.54823930E-06
  -1.74499992E-02   4.63598781E-06
  -1.74000002E-02   4.69140787E-06
  -1.73499994E-02   4.73111095E-06
  -1.73000004E-02   4.77937419E-06
  -1.72499996E-02   4.85759074E-06
  -1.72000006E-02   4.97486599E-06
  -1.71499997E-02   5.12391898E-06
  -1.71000008E-02   5.28418150E-06
  -1.70499999E-02   5.43079977E-06
  -1.70000009E-02   5.54561939E-06
  -1.69500001E-02   5.62534888E-06
  -1.68999992E-02   5.68326914E-06
  -1.68500002E-02   5.74364958E-06
  -1.67999994E-02   5.83126575E-06
  -1.67500004E-02   5.96057998E-06
  -1.66999996E-02   6.12935901E-06
  -1.66500006E-02   6.31958574E-06
  -1.65999997E-02   6.50532684E-06
  -1.65500008E-02   6.66419373E-06
  -1.64999999E-02   6.78734477E-06
  -1.64500009E-02   6.88363389E-06
  -1.64000001E-02   6.97600581E-06
  -1.63499992E-02   7.09164351E-06
  -1.63000003E-02   7.25015570E-06
  -1.62499994E-02   7.45498710E-06
  -1.62000004E-02   7.69184862E-06
  -1.61499996E-02   7.93494291E-06
  -1.61000006E-02   8.15831663E-06
  -1.60499997E-02   8.34739967E-06
  -1.60000008E-02   8.50563356E-06
  -1.59499999E-02   8.65322818E-06
  -1.59000009E-02   8.81854885E-06
  -1.58500001E-02   9.02583270E-06
  -1.57999992E-02   9.28460304E-06
  -1.57500003E-02   9.58547389E-06
  -1.56999994E-02   9.90422814E-06
  -1.56500004E-02   1.02124295E-05
  -1.55999996E-02   1.04900155E-05
  -1.55499997E-02   1.07342948E-05
  -1.54999997E-02   1.09613802E-05
  -1.54499998E-02   1.11993850E-05
  -1.53999999E-02   1.14762761E-05
  -1.53500000E-02   1.18077005E-05
  -1.53000001E-02   1.21901085E-05
  -1.52500002E-02   1.26022460E-05
  -1.52000003E-02   1.30144708E-05
  -1.51500003E-02   1.34018073E-05
  -1.51000004E-02   1.37550087E-05
  -1.50499996E-02   1.40848470E-05
  -1.49999997E-02   1.44176265E-05
  -1.49499997E-02   1.47838455E-05
  -1.48999998E-02   1.52049324E-05
  -1.48499999E-02   1.56838687E-05
  -1.48000000E-02   1.62038468E-05
  -1.47500001E-02   1.67355556E-05
  -1.47000002E-02   1.72500986E-05
  -1.46500003E-02   1.77317470E-05
  -1.46000003E-02   1.81850100E-05
  -1.45500004E-02   1.86328816E-05
  -1.44999996E-02   1.91069794E-05
  -1.44499997E-02   1.96338315E-05
  -1.43999998E-02   2.02232768E-05
  -1.43499998E-02   2.08641577E-05
  -1.42999999E-02   2.15291129E-05
  -1.42500000E-02   2.21865557E-05
  -1.42000001E-02   2.28146237E-05
  -1.41500002E-02   2.34108775E-05
  -1.41000003E-02   2.39935325E-05
  -1.40500003E-02   2.45937372E-05
  -1.40000004E-02   2.52421305E-05
  -1.39499996E-02   2.59554909E-05
  -1.38999997E-02   2.67293526E-05
  -1.38499998E-02   2.75399616E-05
  -1.37999998E-02   2.83547342E-05
  -1.37499999E-02   2.91465421E-05
  -1.37000000E-02   2.99057210E-05
  -1.36500001E-02   3.06445290E-05
  -1.36000002E-02   3.13920209E-05
  -1.35500003E-02   3.21815787E-05
  -1.35000004E-02   3.30364492E-05
  -1.34500004E-02   3.39596409E-05
  -1.33999996E-02   3.49326147E-05
  -1.33499997E-02   3.59235128E-05
  -1.32999998E-02   3.69011723E-05
  -1.32499998E-02   3.78488548E-05
  -1.31999999E-02   3.87718464E-05
  -1.31500000E-02   3.96953947E-05
  -1.31000001E-02   4.06538966E-05
  -1.30500002E-02   4.16760995E-05
  -1.30000003E-02   4.27727537E-05
  -1.29500004E-02   4.39320247E-05
  -1.29000004E-02   4.51247397E-05
  -1.28499996E-02   4.63172764E-05
  -1.27999997E-02   4.74864755E-05
  -1.27499998E-02   4.86300523E-05
  -1.26999998E-02   4.97679284E-05
  -1.26499999E-02   5.09338388E-05
  -1.26000000E-02   5.21608090E-05
  -1.25500001E-02   5.34670980E-05
  -1.25000002E-02   5.48483986E-05
  -1.24500003E-02   5.62798014E-05
  -1.24000004E-02   5.77268838E-05
  -1.23500004E-02   5.91610878E-05
  -1.22999996E-02   6.05724163E-05
  -1.22499997E-02   6.19741841E-05
  -1.21999998E-02   6.33976888E-05
  -1.21499998E-02   6.48788773E-05
  -1.20999999E-02   6.64428517E-05
  -1.20500000E-02   6.80933736E-05
  -1.20000001E-02   6.98115546E-05
  -1.19500002E-02   7.15642309E-05
  -1.19000003E-02   7.33186462E-05
  -1.18500004E-02   7.50571344E-05
  -1.18000004E-02   7.67853053E-05
  -1.17499996E-02   7.85298835E-05
  -1.16999997E-02   8.03274379E-05
  -1.16499998E-02   8.22089714E-05
  -1.15999999E-02   8.41866058E-05
  -1.15499999E-02   8.62486049E-05
  -1.15000000E-02   8.83649845E-05
  -1.14500001E-02   9.05008201E-05
  -1.14000002E-02   9.26319772E-05
  -1.13500003E-02   9.47560911E-05
  -1.13000004E-02   9.68941386E-05
  -1.12500004E-02   9.90817280E-05
  -1.11999996E-02   1.01354170E-04
  -1.11499997E-02   1.03731581E-04
  -1.10999998E-02   1.06210027E-04
  -1.10499999E-02   1.08763939E-04
  -1.09999999E-02   1.11357360E-04
  -1.09500000E-02   1.13959875E-04
  -1.09000001E-02   1.16560666E-04
  -1.08500002E-02   1.19173339E-04
  -1.08000003E-02   1.21830621E-04
  -1.07500004E-02   1.24570550E-04
  -1.07000005E-02   1.27420295E-04
  -1.06499996E-02   1.30385029E-04
  -1.05999997E-02   1.33445952E-04
  -1.05499998E-02   1.36568779E-04
  -1.04999999E-02   1.39719486E-04
  -1.04499999E-02   1.42879566E-04
  -1.04000000E-02   1.46054590E-04
  -1.03500001E-02   1.49272266E-04
  -1.03000002E-02   1.52571214E-04
  -1.02500003E-02   1.55984657E-04
  -1.02000004E-02   1.59526055E-04
  -1.01500005E-02   1.63183606E-04
  -1.00999996E-02   1.66925936E-04
  -1.00499997E-02   1.70716288E-04
  -9.99999978E-03   1.74528905E-04
  -9.94999986E-03   1.78360526E-04
  -9.89999995E-03   1.82232165E-04
  -9.85000003E-03   1.86181001E-04
  -9.80000012E-03   1.90244784E-04
  -9.75000020E-03   1.94445005E-04
  -9.70000029E-03   1.98778565E-04
  -9.65000037E-03   2.03219461E-04
  -9.60000046E-03   2.07730205E-04
  -9.54999961E-03   2.12279017E-04
  -9.49999969E-03   2.16854722E-04
  -9.44999978E-03   2.21471593E-04
  -9.39999986E-03   2.26164120E-04
  -9.34999995E-03   2.30972859E-04
  -9.30000003E-03   2.35926971E-04
  -9.25000012E-03   2.41032612E-04
  -9.20000020E-03   2.46270647E-04
  -9.15000029E-03   2.51605088E-04
  -9.10000037E-03   2.56999047E-04
  -9.05000046E-03   2.62431917E-04
  -8.99999961E-03   2.67908996E-04
  -8.94999970E-03   2.73459678E-04
  -8.89999978E-03   2.79124448E-04
  -8.84999987E-03   2.84938375E-04
  -8.79999995E-03   2.90916214E-04
  -8.75000004E-03   2.97046179E-04
  -8.70000012E-03   3.03295470E-04
  -8.65000021E-03   3.09625146E-04
  -8.60000029E-03   3.16007790E-04
  -8.55000038E-03   3.22440115E-04
  -8.50000046E-03   3.28945025E-04
  -8.44999962E-03   3.35562363E-04
  -8.39999970E-03   3.42332525E-04
  -8.34999979E-03   3.49279464E-04
  -8.29999987E-03   3.56400240E-04
  -8.24999996E-03   3.63667525E-04
  -8.20000004E-03   3.71042028E-04
  -8.15000013E-03   3.78490018E-04
  -8.10000021E-03   3.86000174E-04
  -8.05000030E-03   3.93588038E-04
  -8.00000038E-03   4.01289610E-04
  -7.95000046E-03   4.09147528E-04
  -7.89999962E-03   4.17192176E-04
  -7.84999970E-03   4.25429258E-04
  -7.79999979E-03   4.33837151E-04
  -7.74999987E-03   4.42376564E-04
  -7.69999996E-03   4.51009080E-04
  -7.65000004E-03   4.59713076E-04
  -7.60000013E-03   4.68495215E-04
  -7.55000021E-03   4.77387774E-04
  -7.49999983E-03   4.86435369E-04
  -7.44999992E-03   4.95674962E-04
  -7.40000000E-03   5.05121134E-04
  -7.35000009E-03   5.14760090E-04
  -7.30000017E-03   5.24555566E-04
  -7.24999979E-03   5.34467283E-04
  -7.19999988E-03   5.44467999E-04
  -7.14999996E-03   5.54555678E-04
  -7.10000005E-03   5.64756454E-04
  -7.05000013E-03   5.75113809E-04
  -7.00000022E-03   5.85669419E-04
  -6.94999984E-03   5.96445752E-04
  -6.89999992E-03   6.07436523E-04
  -6.85000001E-03   6.18609309E-04
  -6.80000009E-03   6.29920862E-04
  -6.75000018E-03   6.41337072E-04
  -6.69999979E-03   6.52847579E-04
  -6.64999988E-03   6.64472056E-04
  -6.59999996E-03   6.76251657E-04
  -6.55000005E-03   6.88229862E-04
  -6.50000013E-03   7.00435252E-04
  -6.45000022E-03   7.12869165E-04
  -6.39999984E-03   7.25504127E-04
  -6.34999992E-03   7.38296250E-04
  -6.30000001E-03   7.51206011E-04
  -6.25000009E-03   7.64216296E-04
  -6.20000018E-03   7.77339912E-04
  -6.14999980E-03   7.90614460E-04
  -6.09999988E-03   8.04087205E-04
  -6.04999997E-03   8.17793363E-04
  -6.00000005E-03   8.31741840E-04
  -5.95000014E-03   8.45911913E-04
  -5.90000022E-03   8.60260508E-04
  -5.84999984E-03   8.74744670E-04
  -5.79999993E-03   8.89339717E-04
  -5.75000001E-03   9.04048851E-04
  -5.70000010E-03   9.18903446E-04
  -5.65000018E-03   9.33950068E-04
  -5.59999980E-03   9.49228473E-04
  -5.54999989E-03   9.64757521E-04
  -5.49999997E-03   9.80524463E-04
  -5.45000006E-03   9.96487215E-04
  -5.40000014E-03   1.01259653E-03
  -5.35000023E-03   1.02881866E-03
  -5.29999984E-03   1.04514882E-03
  -5.24999993E-03   1.06161356E-03
  -5.20000001E-03   1.07825943E-03
  -5.15000010E-03   1.09513267E-03
  -5.10000018E-03   1.11225795E-03
  -5.04999980E-03   1.12962734E-03
  -4.99999989E-03   1.14720373E-03
  -4.94999997E-03   1.16493751E-03
  -4.90000006E-03   1.18278852E-03
  -4.85000014E-03   1.20074465E-03
  -4.80000023E-03   1.21882732E-03
  -4.74999985E-03   1.23707927E-03
  -4.69999993E-03   1.25555089E-03
  -4.65000002E-03   1.27427268E-03
  -4.60000010E-03   1.29324419E-03
  -4.55000019E-03   1.31243328E-03
  -4.49999981E-03   1.33178476E-03
  -4.44999989E-03   1.35125406E-03
  -4.39999998E-03   1.37081987E-03
  -4.35000006E-03   1.39049161E-03
  -4.30000015E-03   1.41031190E-03
  -4.25000023E-03   1.43033394E-03
  -4.19999985E-03   1.45059580E-03
  -4.14999994E-03   1.47110433E-03
  -4.10000002E-03   1.49183068E-03
  -4.05000011E-03   1.51272176E-03
  -4.00000019E-03   1.53372239E-03
  -3.94999981E-03   1.55480241E-03
  -3.89999989E-03   1.57597079E-03
  -3.84999998E-03   1.59726583E-03
  -3.80000006E-03   1.61873852E-03
  -3.74999992E-03   1.64043438E-03
  -3.70000000E-03   1.66236807E-03
  -3.65000009E-03   1.68451667E-03
  -3.59999994E-03   1.70682603E-03
  -3.55000002E-03   1.72923680E-03
  -3.50000011E-03   1.75171229E-03
  -3.44999996E-03   1.77425006E-03
  -3.40000005E-03   1.79688202E-03
  -3.34999990E-03   1.81966275E-03
  -3.29999998E-03   1.84264744E-03
  -3.25000007E-03   1.86585414E-03
  -3.19999992E-03   1.88926002E-03
  -3.15000000E-03   1.91281457E-03
  -3.10000009E-03   1.93645083E-03
  -3.04999994E-03   1.96011690E-03
  -3.00000003E-03   1.98380090E-03
  -2.95000011E-03   2.00753403E-03
  -2.89999996E-03   2.03137845E-03
  -2.85000005E-03   2.05539307E-03
  -2.79999990E-03   2.07960629E-03
  -2.74999999E-03   2.10400159E-03
  -2.70000007E-03   2.12852075E-03
  -2.64999992E-03   2.15309137E-03
  -2.60000001E-03   2.17765290E-03
  -2.55000009E-03   2.20218813E-03
  -2.49999994E-03   2.22672988E-03
  -2.45000003E-03   2.25133915E-03
  -2.40000011E-03   2.27607973E-03
  -2.34999997E-03   2.30097794E-03
  -2.30000005E-03   2.32602190E-03
  -2.24999990E-03   2.35115853E-03
  -2.19999999E-03   2.37631099E-03
  -2.15000007E-03   2.40141409E-03
  -2.09999993E-03   2.42643966E-03
  -2.05000001E-03   2.45140307E-03
  -2.00000009E-03   2.47635925E-03
  -1.94999995E-03   2.50138110E-03
  -1.90000003E-03   2.52651144E-03
  -1.85000000E-03   2.55174446E-03
  -1.79999997E-03   2.57702707E-03
  -1.75000005E-03   2.60227872E-03
  -1.70000002E-03   2.62742187E-03
  -1.64999999E-03   2.65241391E-03
  -1.59999996E-03   2.67726812E-03
  -1.55000004E-03   2.70204130E-03
  -1.50000001E-03   2.72680051E-03
  -1.44999998E-03   2.75159278E-03
  -1.39999995E-03   2.77642231E-03
  -1.35000004E-03   2.80124322E-03
  -1.30000000E-03   2.82597775E-03
  -1.24999997E-03   2.85054999E-03
  -1.20000006E-03   2.87490548E-03
  -1.15000003E-03   2.89903395E-03
  -1.09999999E-03   2.92297872E-03
  -1.04999996E-03   2.94680661E-03
  -1.00000005E-03   2.97057955E-03
  -9.50000016E-04   2.99431896E-03
  -8.99999985E-04   3.01798922E-03
  -8.50000011E-04   3.04150674E-03
  -7.99999980E-04   3.06477933E-03
  -7.50000007E-04   3.08773736E-03
  -6.99999975E-04   3.11035290E-03
  -6.50000002E-04   3.13266017E-03
  -6.00000028E-04   3.15473485E-03
  -5.49999997E-04   3.17664328E-03
  -5.00000024E-04   3.19841597E-03
  -4.49999992E-04   3.22003593E-03
  -3.99999990E-04   3.24142515E-03
  -3.49999988E-04   3.26247537E-03
  -3.00000014E-04   3.28309578E-03
  -2.50000012E-04   3.30324960E-03
  -1.99999995E-04   3.32297361E-03
  -1.50000007E-04   3.34234186E-03
  -9.99999975E-05   3.36143444E-03
  -4.99999987E-05   3.38029629E-03
   0.00000000       3.39890551E-03
   4.99999987E-05   3.41717340E-03
   9.99999975E-05   3.43498308E-03
   1.50000007E-04   3.45224072E-03
   1.99999995E-04   3.46889230E-03
   2.50000012E-04   3.48495971E-03
   3.00000014E-04   3.50051629E-03
   3.49999988E-04   3.51564842E-03
   3.99999990E-04   3.53041454E-03
   4.49999992E-04   3.54480580E-03
   5.00000024E-04   3.55875050E-03
   5.49999997E-04   3.57212569E-03
   6.00000028E-04   3.58481635E-03
   6.50000002E-04   3.59675079E-03
   6.99999975E-04   3.60792736E-03
   7.50000007E-04   3.61841428E-03
   7.99999980E-04   3.62829911E-03
   8.50000011E-04   3.63766798E-03
   8.99999985E-04   3.64653906E-03
   9.50000016E-04   3.65485018E-03
   1.00000005E-03   3.66247538E-03
   1.04999996E-03   3.66926659E-03
   1.09999999E-03   3.67511553E-03
   1.15000003E-03   3.68000497E-03
   1.20000006E-03   3.68402782E-03
   1.24999997E-03   3.68729420E-03
   1.30000000E-03   3.68989771E-03
   1.35000004E-03   3.69186606E-03
   1.39999995E-03   3.69313289E-03
   1.44999998E-03   3.69357155E-03
   1.50000001E-03   3.69302579E-03
   1.55000004E-03   3.69136524E-03
   1.59999996E-03   3.68853449E-03
   1.64999999E-03   3.68459523E-03
   1.70000002E-03   3.67967109E-03
   1.75000005E-03   3.67389107E-03
   1.79999997E-03   3.66733666E-03
   1.85000000E-03   3.65997758E-03
   1.90000003E-03   3.65166762E-03
   1.94999995E-03   3.64220142E-03
   2.00000009E-03   3.63140553E-03
   2.05000001E-03   3.61920870E-03
   2.09999993E-03   3.60567309E-03
   2.15000007E-03   3.59094841E-03
   2.19999999E-03   3.57519975E-03
   2.24999990E-03   3.55851138E-03
   2.30000005E-03   3.54085024E-03
   2.34999997E-03   3.52208852E-03
   2.40000011E-03   3.50203179E-03
   2.45000003E-03   3.48047982E-03
   2.49999994E-03   3.45732574E-03
   2.55000009E-03   3.43260146E-03
   2.60000001E-03   3.40642151E-03
   2.64999992E-03   3.37896193E-03
   2.70000007E-03   3.35038686E-03
   2.74999999E-03   3.32072214E-03
   2.79999990E-03   3.28983297E-03