  -3.99999991E-02   0.00000000    
  -3.99499983E-02   0.00000000    
  -3.99000011E-02   0.00000000    
  -3.98500003E-02   0.00000000    
  -3.97999994E-02   0.00000000    
  -3.97499986E-02  -1.38557107E-22
  -3.97000015E-02  -1.67587529E-21
  -3.96500006E-02  -1.06054305E-20
  -3.95999998E-02  -4.64762736E-20
  -3.95499989E-02  -1.57789820E-19
  -3.95000018E-02  -4.40656380E-19
  -3.94500010E-02  -1.05024165E-18
  -3.94000001E-02  -2.18962111E-18
  -3.93499993E-02  -4.06488713E-18
  -3.92999984E-02  -6.81285805E-18
  -3.92500013E-02  -1.04339404E-17
  -3.92000005E-02  -1.47822023E-17
  -3.91499996E-02  -1.96575320E-17
  -3.90999988E-02  -2.50001659E-17
  -3.90500017E-02  -3.11182402E-17
  -3.90000008E-02  -3.88217567E-17
  -3.89500000E-02  -4.93369759E-17
  -3.88999991E-02  -6.39578366E-17
  -3.88499983E-02  -8.35332378E-17
  -3.88000011E-02  -1.08022204E-16
  -3.87500003E-02  -1.36388795E-16
  -3.86999995E-02  -1.67001082E-16
  -3.86499986E-02  -1.98461699E-16
  -3.86000015E-02  -2.30528143E-16
  -3.85500006E-02  -2.64622860E-16
  -3.84999998E-02  -3.03509428E-16
  -3.84499989E-02  -3.50048700E-16
  -3.84000018E-02  -4.05433353E-16
  -3.83500010E-02  -4.67695753E-16
  -3.83000001E-02  -5.31345832E-16
  -3.82499993E-02  -5.88601077E-16
  -3.81999984E-02  -6.31939942E-16
  -3.81500013E-02  -6.56967542E-16
  -3.81000005E-02  -6.64232861E-16
  -3.80499996E-02  -6.58923235E-16
  -3.79999988E-02  -6.48233626E-16
  -3.79500017E-02  -6.37311772E-16
  -3.79000008E-02  -6.25484598E-16
  -3.78500000E-02  -6.04558649E-16
  -3.77999991E-02  -5.60206998E-16
  -3.77499983E-02  -4.76090062E-16
  -3.77000012E-02  -3.39015117E-16
  -3.76500003E-02  -1.42790975E-16
  -3.75999995E-02   1.11108872E-16
  -3.75499986E-02   4.16531946E-16
  -3.75000015E-02   7.67996250E-16
  -3.74500006E-02   1.16591798E-15
  -3.73999998E-02   1.61920301E-15
  -3.73499990E-02   2.14383721E-15
  -3.73000018E-02   2.75788697E-15
  -3.72500010E-02   3.47487474E-15
  -3.72000001E-02   4.29811834E-15
  -3.71499993E-02   5.21812699E-15
  -3.70999984E-02   6.21383497E-15
  -3.70500013E-02   7.25699035E-15
  -3.70000005E-02   8.31811850E-15
  -3.69499996E-02   9.37237552E-15
  -3.68999988E-02   1.04041692E-14
  -3.68500017E-02   1.14099895E-14
  -3.68000008E-02   1.23989581E-14
  -3.67500000E-02   1.33903102E-14
  -3.66999991E-02   1.44068124E-14
  -3.66499983E-02   1.54640637E-14
  -3.66000012E-02   1.65576679E-14
  -3.65500003E-02   1.76528239E-14
  -3.64999995E-02   1.86819977E-14
  -3.64499986E-02   1.95547297E-14
  -3.64000015E-02   2.01788557E-14
  -3.63500006E-02   2.04861949E-14
  -3.62999998E-02   2.04510820E-14
  -3.62499990E-02   2.00904340E-14
  -3.62000018E-02   1.94405056E-14
  -3.61500010E-02   1.85169856E-14
  -3.61000001E-02   1.72761263E-14
  -3.60499993E-02   1.55994009E-14
  -3.59999985E-02   1.33176602E-14
  -3.59500013E-02   1.02736253E-14
  -3.59000005E-02   6.40011573E-15
  -3.58499996E-02   1.77659295E-15
  -3.57999988E-02  -3.37191683E-15
  -3.57500017E-02  -8.74849086E-15
  -3.57000008E-02  -1.41113216E-14
  -3.56500000E-02  -1.94027974E-14
  -3.55999991E-02  -2.48162104E-14
  -3.55499983E-02  -3.07529304E-14
  -3.55000012E-02  -3.76677551E-14
  -3.54500003E-02  -4.58558904E-14
  -3.53999995E-02  -5.52748731E-14
  -3.53499986E-02  -6.54955555E-14
  -3.53000015E-02  -7.58291203E-14
  -3.52500007E-02  -8.55977886E-14
  -3.51999998E-02  -9.44388000E-14
  -3.51499990E-02  -1.02495351E-13
  -3.51000018E-02  -1.10379513E-13
  -3.50500010E-02  -1.18886495E-13
  -3.50000001E-02  -1.28560953E-13
  -3.49499993E-02  -1.39306522E-13
  -3.48999985E-02  -1.50241297E-13
  -3.48500013E-02  -1.59912502E-13
  -3.48000005E-02  -1.66825456E-13
  -3.47499996E-02  -1.70078944E-13
  -3.46999988E-02  -1.69813762E-13
  -3.46500017E-02  -1.67228590E-13
  -3.46000008E-02  -1.64091668E-13
  -3.45500000E-02  -1.61913614E-13
  -3.44999991E-02  -1.61135794E-13
  -3.44499983E-02  -1.60730790E-13
  -3.44000012E-02  -1.58464808E-13
  -3.43500003E-02  -1.51782680E-13
  -3.42999995E-02  -1.38966529E-13
  -3.42499986E-02  -1.20039653E-13
  -3.42000015E-02  -9.69410641E-14
  -3.41500007E-02  -7.27909960E-14
  -3.40999998E-02  -5.04880426E-14
  -3.40499990E-02  -3.12372707E-14
  -3.40000018E-02  -1.37200254E-14
  -3.39500010E-02   5.60455401E-15
  -3.39000002E-02   3.10651163E-14
  -3.38499993E-02   6.57596197E-14
  -3.37999985E-02   1.09854569E-13
  -3.37500013E-02   1.60059818E-13
  -3.37000005E-02   2.10675078E-13
  -3.36499996E-02   2.55892529E-13
  -3.35999988E-02   2.92399677E-13
  -3.35500017E-02   3.21070373E-13
  -3.35000008E-02   3.46833646E-13
  -3.34500000E-02   3.76582744E-13
  -3.33999991E-02   4.15912882E-13
  -3.33499983E-02   4.66127137E-13
  -3.33000012E-02   5.22977657E-13
  -3.32500003E-02   5.77935215E-13
  -3.31999995E-02   6.21650192E-13
  -3.31499986E-02   6.48180945E-13
  -3.31000015E-02   6.58045992E-13
  -3.30500007E-02   6.58514367E-13
  -3.29999998E-02   6.60705594E-13
  -3.29499990E-02   6.74548958E-13
  -3.29000019E-02   7.03782844E-13
  -3.28500010E-02   7.43374383E-13
  -3.28000002E-02   7.80826196E-13
  -3.27499993E-02   8.01130646E-13
  -3.26999985E-02   7.93375999E-13
  -3.26500013E-02   7.56033582E-13
  -3.26000005E-02   6.98301117E-13
  -3.25499997E-02   6.36509129E-13
  -3.24999988E-02   5.86850067E-13
  -3.24500017E-02   5.57553407E-13
  -3.24000008E-02   5.44177388E-13
  -3.23500000E-02   5.30538016E-13
  -3.22999991E-02   4.95344976E-13
  -3.22499983E-02   4.21908548E-13
  -3.22000012E-02   3.06587465E-13
  -3.21500003E-02   1.61856097E-13
  -3.20999995E-02   1.20570270E-14
  -3.20499986E-02  -1.16804448E-13
  -3.20000015E-02  -2.08928469E-13
  -3.19500007E-02  -2.66800877E-13
  -3.18999998E-02  -3.11358632E-13
  -3.18499990E-02  -3.73499219E-13
  -3.18000019E-02  -4.80212007E-13
  -3.17500010E-02  -6.41409994E-13
  -3.17000002E-02  -8.43704989E-13
  -3.16499993E-02  -1.05460009E-12
  -3.15999985E-02  -1.23594873E-12
  -3.15500014E-02  -1.36107781E-12
  -3.15000005E-02  -1.42781024E-12
  -3.14499997E-02  -1.46095104E-12
  -3.13999988E-02  -1.50225568E-12
  -3.13500017E-02  -1.59163752E-12
  -3.13000008E-02  -1.74777467E-12
  -3.12500000E-02  -1.95717856E-12
  -3.11999992E-02  -2.17750123E-12
  -3.11500002E-02  -2.35460479E-12
  -3.10999993E-02  -2.44643390E-12
  -3.10500003E-02  -2.44303276E-12
  -3.09999995E-02  -2.37307353E-12
  -3.09500005E-02  -2.29288225E-12
  -3.08999997E-02  -2.26184371E-12
  -3.08500007E-02  -2.31469965E-12
  -3.07999998E-02  -2.44344649E-12
  -3.07500008E-02  -2.59791884E-12
  -3.07000000E-02  -2.70605110E-12
  -3.06499992E-02  -2.70568268E-12
  -3.06000002E-02  -2.57384110E-12
  -3.05499993E-02  -2.33967771E-12
  -3.05000003E-02  -2.07394301E-12
  -3.04499995E-02  -1.85837196E-12
  -3.04000005E-02  -1.74794304E-12
  -3.03499997E-02  -1.74314990E-12
  -3.03000007E-02  -1.78587201E-12
  -3.02499998E-02  -1.78231496E-12
  -3.02000009E-02  -1.64411160E-12
  -3.01500000E-02  -1.32965557E-12
  -3.00999992E-02  -8.66493292E-13
  -3.00500002E-02  -3.43205201E-13
  -2.99999993E-02   1.27345346E-13
  -2.99500003E-02   4.58109191E-13
  -2.98999995E-02   6.28893476E-13
  -2.98500005E-02   6.98802290E-13
  -2.97999997E-02   7.82638711E-13
  -2.97500007E-02   1.00009877E-12
  -2.96999998E-02   1.41972133E-12
  -2.96500009E-02   2.02326480E-12
  -2.96000000E-02   2.70819803E-12
  -2.95499992E-02   3.32935003E-12
  -2.95000002E-02   3.76269241E-12
  -2.94499993E-02   3.96300137E-12
  -2.94000003E-02   3.98839512E-12
  -2.93499995E-02   3.97853885E-12
  -2.93000005E-02   4.09400465E-12
  -2.92499997E-02   4.44261078E-12
  -2.92000007E-02   5.02601823E-12
  -2.91499998E-02   5.73228357E-12
  -2.91000009E-02   6.38025527E-12
  -2.90500000E-02   6.79809681E-12
  -2.89999992E-02   6.90155788E-12
  -2.89500002E-02   6.73595337E-12
  -2.88999993E-02   6.46067011E-12
  -2.88500004E-02   6.28043798E-12
  -2.87999995E-02   6.35232578E-12
  -2.87500005E-02   6.71008561E-12
  -2.86999997E-02   7.24155848E-12
  -2.86500007E-02   7.73220203E-12
  -2.85999998E-02   7.95800231E-12
  -2.85500009E-02   7.78749981E-12
  -2.85000000E-02   7.24643392E-12
  -2.84499992E-02   6.51349114E-12
  -2.84000002E-02   5.84572625E-12
  -2.83499993E-02   5.46449908E-12
  -2.83000004E-02   5.45235124E-12
  -2.82499995E-02   5.70862888E-12
  -2.82000005E-02   5.98693187E-12
  -2.81499997E-02   6.00102346E-12
  -2.81000007E-02   5.55383647E-12
  -2.80499998E-02   4.63155599E-12
  -2.80000009E-02   3.41814337E-12
  -2.79500000E-02   2.22012166E-12
  -2.78999992E-02   1.33208928E-12
  -2.78500002E-02   9.01927133E-13
  -2.77999993E-02   8.57384530E-13
  -2.77500004E-02   9.30339898E-13
  -2.76999995E-02   7.71876974E-13
  -2.76500005E-02   1.09508627E-13
  -2.75999997E-02  -1.12354397E-12
  -2.75500007E-02  -2.74727658E-12
  -2.74999999E-02  -4.40459648E-12
  -2.74500009E-02  -5.71466095E-12
  -2.74000000E-02  -6.44344083E-12
  -2.73499992E-02  -6.61447980E-12
  -2.73000002E-02  -6.50692954E-12
  -2.72499993E-02  -6.53723950E-12
  -2.72000004E-02  -7.07374133E-12
  -2.71499995E-02  -8.26595563E-12
  -2.71000005E-02  -9.96692139E-12
  -2.70499997E-02  -1.17875406E-11
  -2.70000007E-02  -1.32632837E-11
  -2.69499999E-02  -1.40616598E-11
  -2.69000009E-02  -1.41375054E-11
  -2.68500000E-02  -1.37633871E-11
  -2.67999992E-02  -1.34164901E-11
  -2.67500002E-02  -1.35679775E-11
  -2.66999993E-02  -1.44669780E-11
  -2.66500004E-02  -1.60172067E-11
  -2.65999995E-02  -1.78057829E-11
  -2.65500005E-02  -1.92768423E-11
  -2.64999997E-02  -1.99763973E-11
  -2.64500007E-02  -1.97599281E-11
  -2.63999999E-02  -1.88671440E-11
  -2.63500009E-02  -1.78252274E-11
  -2.63000000E-02  -1.72183916E-11
  -2.62499992E-02  -1.74235591E-11
  -2.62000002E-02  -1.84308211E-11
  -2.61499994E-02  -1.98330415E-11
  -2.61000004E-02  -2.09951362E-11
  -2.60499995E-02  -2.13324740E-11
  -2.60000005E-02  -2.05759160E-11
  -2.59499997E-02  -1.89029434E-11
  -2.59000007E-02  -1.68709404E-11
  -2.58499999E-02  -1.51761520E-11
  -2.58000009E-02  -1.43416641E-11
  -2.57500000E-02  -1.44732802E-11
  -2.56999992E-02  -1.51960441E-11
  -2.56500002E-02  -1.58061255E-11
  -2.55999994E-02  -1.55764481E-11
  -2.55500004E-02  -1.40829197E-11
  -2.54999995E-02  -1.14045769E-11
  -2.54500005E-02  -8.10322556E-12
  -2.53999997E-02  -4.98492046E-12
  -2.53500007E-02  -2.74421436E-12
  -2.52999999E-02  -1.64829457E-12
  -2.52500009E-02  -1.40483577E-12
  -2.52000000E-02  -1.27891426E-12
  -2.51499992E-02  -4.13698345E-13
  -2.51000002E-02   1.78370751E-12
  -2.50499994E-02   5.36356289E-12
  -2.50000004E-02   9.79099701E-12
  -2.49499995E-02   1.41661041E-11
  -2.49000005E-02   1.76151073E-11
  -2.48499997E-02   1.96813763E-11
  -2.48000007E-02   2.05398476E-11
  -2.47499999E-02   2.09330504E-11
  -2.47000009E-02   2.18494303E-11
  -2.46500000E-02   2.40813914E-11
  -2.45999992E-02   2.78587622E-11
  -2.45500002E-02   3.27248541E-11
  -2.44999994E-02   3.77177144E-11
  -2.44500004E-02   4.17835384E-11
  -2.43999995E-02   4.42423598E-11
  -2.43500005E-02   4.50978629E-11
  -2.42999997E-02   4.50473894E-11
  -2.42500007E-02   4.51794886E-11
  -2.41999999E-02   4.64866444E-11
  -2.41500009E-02   4.94075510E-11
  -2.41000000E-02   5.36059010E-11
  -2.40499992E-02   5.80916808E-11
  -2.40000002E-02   6.16398321E-11
  -2.39499994E-02   6.33258723E-11
  -2.39000004E-02   6.29409441E-11
  -2.38499995E-02   6.10964473E-11
  -2.38000005E-02   5.89631122E-11
  -2.37499997E-02   5.77524521E-11
  -2.37000007E-02   5.81668255E-11
  -2.36499999E-02   6.00644742E-11
  -2.36000009E-02   6.24954810E-11
  -2.35500000E-02   6.41017378E-11
  -2.34999992E-02   6.37103426E-11
  -2.34500002E-02   6.08585682E-11
  -2.33999994E-02   5.60130137E-11
  -2.33500004E-02   5.03769353E-11
  -2.32999995E-02   4.53623389E-11
  -2.32500006E-02   4.19559699E-11
  -2.31999997E-02   4.02615129E-11
  -2.31500007E-02   3.94280372E-11
  -2.30999999E-02   3.80062093E-11
  -2.30500009E-02   3.45827186E-11
  -2.30000000E-02   2.84147671E-11
  -2.29499992E-02   1.97798861E-11
  -2.29000002E-02   9.87745823E-12
  -2.28499994E-02   3.15758839E-13
  -2.28000004E-02  -7.59487265E-12
  -2.27499995E-02  -1.34299750E-11
  -2.27000006E-02  -1.78536162E-11
  -2.26499997E-02  -2.23361867E-11
  -2.26000007E-02  -2.85032518E-11
  -2.25499999E-02  -3.73994412E-11
  -2.25000009E-02  -4.89958872E-11
  -2.24500000E-02  -6.21675628E-11
  -2.23999992E-02  -7.51610232E-11
  -2.23500002E-02  -8.63532093E-11
  -2.22999994E-02  -9.49673257E-11
  -2.22500004E-02  -1.01423453E-10
  -2.21999995E-02  -1.07158699E-10
  -2.21500006E-02  -1.13986293E-10
  -2.20999997E-02  -1.23270977E-10
  -2.20500007E-02  -1.35286476E-10
  -2.19999999E-02  -1.49046817E-10
  -2.19500009E-02  -1.62696787E-10
  -2.19000001E-02  -1.74297715E-10
  -2.18499992E-02  -1.82664495E-10
  -2.18000002E-02  -1.87879864E-10
  -2.17499994E-02  -1.91249058E-10
  -2.17000004E-02  -1.94704738E-10
  -2.16499995E-02  -1.99918207E-10
  -2.16000006E-02  -2.07510259E-10
  -2.15499997E-02  -2.16717172E-10
  -2.15000007E-02  -2.25670635E-10
  -2.14499999E-02  -2.32177902E-10
  -2.14000009E-02  -2.34661901E-10
  -2.13500001E-02  -2.32843134E-10
  -2.12999992E-02  -2.27853472E-10
  -2.12500002E-02  -2.21719990E-10
  -2.11999994E-02  -2.16439575E-10
  -2.11500004E-02  -2.13051118E-10
  -2.10999995E-02  -2.11121426E-10
  -2.10500006E-02  -2.08882217E-10
  -2.09999997E-02  -2.03968537E-10
  -2.09500007E-02  -1.94437813E-10
  -2.08999999E-02  -1.79618626E-10
  -2.08500009E-02  -1.60406105E-10
  -2.08000001E-02  -1.38863157E-10
  -2.07499992E-02  -1.17295271E-10
  -2.07000002E-02  -9.72054451E-11
  -2.06499994E-02  -7.85958382E-11
  -2.06000004E-02  -5.99353414E-11
  -2.05499995E-02  -3.88180182E-11
  -2.05000006E-02  -1.30289182E-11
  -2.04499997E-02   1.84537385E-11
  -2.04000007E-02   5.49699904E-11
  -2.03499999E-02   9.44292422E-11
  -2.03000009E-02   1.34200165E-10
  -2.02500001E-02   1.72250103E-10
  -2.01999992E-02   2.08027359E-10
  -2.01500002E-02   2.42688286E-10
  -2.00999994E-02   2.78558066E-10
  -2.00500004E-02   3.18055859E-10
  -1.99999996E-02   3.62558483E-10
  -1.99500006E-02   4.11709833E-10
  -1.98999997E-02   4.63490968E-10
  -1.98500007E-02   5.15028686E-10
  -1.97999999E-02   5.63789460E-10
  -1.97500009E-02   6.08628814E-10
  -1.97000001E-02   6.50224319E-10
  -1.96499992E-02   6.90690172E-10
  -1.96000002E-02   7.32536254E-10
  -1.95499994E-02   7.77429565E-10
  -1.95000004E-02   8.25310709E-10
  -1.94499996E-02   8.74264383E-10
  -1.94000006E-02   9.21210996E-10
  -1.93499997E-02   9.63119473E-10
  -1.93000007E-02   9.98203853E-10
  -1.92499999E-02   1.02657005E-09
  -1.92000009E-02   1.05001652E-09
  -1.91500001E-02   1.07107112E-09
  -1.90999992E-02   1.09168874E-09
  -1.90500002E-02   1.11218734E-09
  -1.89999994E-02   1.13090337E-09
  -1.89500004E-02   1.14472509E-09
  -1.88999996E-02   1.15027488E-09
  -1.88500006E-02   1.14521559E-09
  -1.87999997E-02   1.12909859E-09
  -1.87500007E-02   1.10336895E-09
  -1.86999999E-02   1.07052012E-09
  -1.86500009E-02   1.03276843E-09
  -1.86000001E-02   9.90837967E-10
  -1.85499992E-02   9.43400358E-10
  -1.85000002E-02   8.87425411E-10
  -1.84499994E-02   8.19292412E-10
  -1.84000004E-02   7.36172678E-10
  -1.83499996E-02   6.37065789E-10
  -1.83000006E-02   5.23025734E-10
  -1.82499997E-02   3.96472161E-10
  -1.82000007E-02   2.59888971E-10
  -1.81499999E-02   1.14490924E-10
  -1.81000009E-02  -4.05470726E-11
  -1.80500001E-02  -2.07948062E-10
  -1.79999992E-02  -3.91341182E-10
  -1.79500002E-02  -5.93854688E-10
  -1.78999994E-02  -8.16926582E-10
  -1.78500004E-02  -1.05986087E-09
  -1.77999996E-02  -1.32033451E-09
  -1.77500006E-02  -1.59562863E-09
  -1.76999997E-02  -1.88403826E-09
  -1.76500008E-02  -2.18582863E-09
  -1.75999999E-02  -2.50331089E-09
  -1.75500009E-02  -2.84000112E-09
  -1.75000001E-02  -3.19923066E-09
  -1.74499992E-02  -3.58283603E-09
  -1.74000002E-02  -3.99050348E-09
  -1.73499994E-02  -4.42007053E-09
  -1.73000004E-02  -4.86864016E-09
  -1.72499996E-02  -5.33402256E-09
  -1.72000006E-02  -5.81584070E-09
  -1.71499997E-02  -6.31582742E-09
  -1.71000008E-02  -6.83716506E-09
  -1.70499999E-02  -7.38316830E-09
  -1.70000009E-02  -7.95590704E-09
  -1.69500001E-02  -8.55537241E-09
  -1.68999992E-02  -9.17957088E-09
  -1.68500002E-02  -9.82550130E-09
  -1.67999994E-02  -1.04905702E-08
  -1.67500004E-02  -1.11738245E-08
  -1.66999996E-02  -1.18764403E-08
  -1.66500006E-02  -1.26012649E-08
  -1.65999997E-02  -1.33516052E-08
  -1.65500008E-02  -1.41298102E-08
  -1.64999999E-02  -1.49363011E-08
  -1.64500009E-02  -1.57694409E-08
  -1.64000001E-02  -1.66263394E-08
  -1.63499992E-02  -1.75042150E-08
  -1.63000003E-02  -1.84016749E-08
  -1.62499994E-02  -1.93193994E-08
  -1.62000004E-02  -2.02598756E-08
  -1.61499996E-02  -2.12263291E-08
  -1.61000006E-02  -2.22213465E-08
  -1.60499997E-02  -2.32457804E-08
  -1.60000008E-02  -2.42984584E-08
  -1.59499999E-02  -2.53767922E-08
  -1.59000009E-02  -2.64780500E-08
  -1.58500001E-02  -2.76006524E-08
  -1.57999992E-02  -2.87449957E-08
  -1.57500003E-02  -2.99133767E-08
  -1.56999994E-02  -3.11090709E-08
  -1.56500004E-02  -3.23350378E-08
  -1.55999996E-02  -3.35927481E-08
  -1.55499997E-02  -3.48817402E-08
  -1.54999997E-02  -3.62000314E-08
  -1.54499998E-02  -3.75452345E-08
  -1.53999999E-02  -3.89158679E-08
  -1.53500000E-02  -4.03122122E-08
  -1.53000001E-02  -4.17364596E-08
  -1.52500002E-02  -4.31919460E-08
  -1.52000003E-02  -4.46819364E-08
  -1.51500003E-02  -4.62084877E-08
  -1.51000004E-02  -4.77718878E-08
  -1.50499996E-02  -4.93708612E-08
  -1.49999997E-02  -5.10036031E-08
  -1.49499997E-02  -5.26689519E-08
  -1.48999998E-02  -5.43673728E-08
  -1.48499999E-02  -5.61011682E-08
  -1.48000000E-02  -5.78739048E-08
  -1.47500001E-02  -5.96893202E-08
  -1.47000002E-02  -6.15501889E-08
  -1.46500003E-02  -6.34577120E-08
  -1.46000003E-02  -6.54115553E-08
  -1.45500004E-02  -6.74107454E-08
  -1.44999996E-02  -6.94547353E-08
  -1.44499997E-02  -7.15443278E-08
  -1.43999998E-02  -7.36820596E-08
  -1.43499998E-02  -7.58717178E-08
  -1.42999999E-02  -7.81174094E-08
  -1.42500000E-02  -8.04224811E-08
  -1.42000001E-02  -8.27889011E-08
  -1.41500002E-02  -8.52172590E-08
  -1.41000003E-02  -8.77074058E-08
  -1.40500003E-02  -9.02595048E-08
  -1.40000004E-02  -9.28748776E-08
  -1.39499996E-02  -9.55564019E-08
  -1.38999997E-02  -9.83081563E-08
  -1.38499998E-02  -1.01134653E-07
  -1.37999998E-02  -1.04039842E-07
  -1.37499999E-02  -1.07026466E-07
  -1.37000000E-02  -1.10096067E-07
  -1.36500001E-02  -1.13249456E-07
  -1.36000002E-02  -1.16487648E-07
  -1.35500003E-02  -1.19812611E-07
  -1.35000004E-02  -1.23227679E-07
  -1.34500004E-02  -1.26737220E-07
  -1.33999996E-02  -1.30346024E-07
  -1.33499997E-02  -1.34058382E-07
  -1.32999998E-02  -1.37877620E-07
  -1.32499998E-02  -1.41805927E-07
  -1.31999999E-02  -1.45845007E-07
  -1.31500000E-02  -1.49996623E-07
  -1.31000001E-02  -1.54263475E-07
  -1.30500002E-02  -1.58649414E-07
  -1.30000003E-02  -1.63159214E-07
  -1.29500004E-02  -1.67797950E-07
  -1.29000004E-02  -1.72570296E-07
  -1.28499996E-02  -1.77480089E-07
  -1.27999997E-02  -1.82530286E-07
  -1.27499998E-02  -1.87723359E-07
  -1.26999998E-02  -1.93062064E-07
  -1.26499999E-02  -1.98549884E-07
  -1.26000000E-02  -2.04191380E-07
  -1.25500001E-02  -2.09991768E-07
  -1.25000002E-02  -2.15956433E-07
  -1.24500003E-02  -2.22090264E-07
  -1.24000004E-02  -2.28397468E-07
  -1.23500004E-02  -2.34881455E-07
  -1.22999996E-02  -2.41545393E-07
  -1.22499997E-02  -2.48392780E-07
  -1.21999998E-02  -2.55428006E-07
  -1.21499998E-02  -2.62656300E-07
  -1.20999999E-02  -2.70083461E-07
  -1.20500000E-02  -2.77715372E-07
  -1.20000001E-02  -2.85557235E-07
  -1.19500002E-02  -2.93613624E-07
  -1.19000003E-02  -3.01888491E-07
  -1.18500004E-02  -3.10385815E-07
  -1.18000004E-02  -3.19110256E-07
  -1.17499996E-02  -3.28067301E-07
  -1.16999997E-02  -3.37263515E-07
  -1.16499998E-02  -3.46705690E-07
  -1.15999999E-02  -3.56400506E-07
  -1.15499999E-02  -3.66353873E-07
  -1.15000000E-02  -3.76570767E-07
  -1.14500001E-02  -3.87055792E-07
  -1.14000002E-02  -3.97813665E-07
  -1.13500003E-02  -4.08849957E-07
  -1.13000004E-02  -4.20171347E-07
  -1.12500004E-02  -4.31785679E-07
  -1.11999996E-02  -4.43700912E-07
  -1.11499997E-02  -4.55924891E-07
  -1.10999998E-02  -4.68464350E-07
  -1.10499999E-02  -4.81325060E-07
  -1.09999999E-02  -4.94512562E-07
  -1.09500000E-02  -5.08032656E-07
  -1.09000001E-02  -5.21892446E-07
  -1.08500002E-02  -5.36100629E-07
  -1.08000003E-02  -5.50666925E-07
  -1.07500004E-02  -5.65601397E-07
  -1.07000005E-02  -5.80913422E-07
  -1.06499996E-02  -5.96611301E-07
  -1.05999997E-02  -6.12701683E-07
  -1.05499998E-02  -6.29190936E-07
  -1.04999999E-02  -6.46085994E-07
  -1.04499999E-02  -6.63395042E-07
  -1.04000000E-02  -6.81128199E-07
  -1.03500001E-02  -6.99297175E-07
  -1.03000002E-02  -7.17913792E-07
  -1.02500003E-02  -7.36989364E-07
  -1.02000004E-02  -7.56533666E-07
  -1.01500005E-02  -7.76554998E-07
  -1.00999996E-02  -7.97061091E-07
  -1.00499997E-02  -8.18060187E-07
  -9.99999978E-03  -8.39562460E-07
  -9.94999986E-03  -8.61580133E-07
  -9.89999995E-03  -8.84127360E-07
  -9.85000003E-03  -9.07218919E-07
  -9.80000012E-03  -9.30868794E-07
  -9.75000020E-03  -9.55089149E-07
  -9.70000029E-03  -9.79890274E-07
  -9.65000037E-03  -1.00528155E-06
  -9.60000046E-03  -1.03127275E-06
  -9.54999961E-03  -1.05787547E-06
  -9.49999969E-03  -1.08510403E-06
  -9.44999978E-03  -1.11297504E-06
  -9.39999986E-03  -1.14150555E-06
  -9.34999995E-03  -1.17071215E-06
  -9.30000003E-03  -1.20060918E-06
  -9.25000012E-03  -1.23120856E-06
  -9.20000020E-03  -1.26252132E-06
  -9.15000029E-03  -1.29455839E-06
  -9.10000037E-03  -1.32733351E-06
  -9.05000046E-03  -1.36086305E-06
  -8.99999961E-03  -1.39516635E-06
  -8.94999970E-03  -1.43026364E-06
  -8.89999978E-03  -1.46617469E-06
  -8.84999987E-03  -1.50291737E-06
  -8.79999995E-03  -1.54050622E-06
  -8.75000004E-03  -1.57895511E-06
  -8.70000012E-03  -1.61827734E-06
  -8.65000021E-03  -1.65848860E-06
  -8.60000029E-03  -1.69960788E-06
  -8.55000038E-03  -1.74165712E-06
  -8.50000046E-03  -1.78465996E-06
  -8.44999962E-03  -1.82863914E-06
  -8.39999970E-03  -1.87361547E-06
  -8.34999979E-03  -1.91960635E-06
  -8.29999987E-03  -1.96662745E-06
  -8.24999996E-03  -2.01469379E-06
  -8.20000004E-03  -2.06382265E-06
  -8.15000013E-03  -2.11403540E-06
  -8.10000021E-03  -2.16535614E-06
  -8.05000030E-03  -2.21781170E-06
  -8.00000038E-03  -2.27142846E-06
  -7.95000046E-03  -2.32623051E-06
  -7.89999962E-03  -2.38223856E-06
  -7.84999970E-03  -2.43947125E-06
  -7.79999979E-03  -2.49794584E-06
  -7.74999987E-03  -2.55768305E-06
  -7.69999996E-03  -2.61870582E-06
  -7.65000004E-03  -2.68104282E-06
  -7.60000013E-03  -2.74472427E-06
  -7.55000021E-03  -2.80978088E-06
  -7.49999983E-03  -2.87624039E-06
  -7.44999992E-03  -2.94412803E-06
  -7.40000000E-03  -3.01346449E-06
  -7.35000009E-03  -3.08426979E-06
  -7.30000017E-03  -3.15656689E-06
  -7.24999979E-03  -3.23038194E-06
  -7.19999988E-03  -3.30574585E-06
  -7.14999996E-03  -3.38269365E-06
  -7.10000005E-03  -3.46125921E-06
  -7.05000013E-03  -3.54147460E-06
  -7.00000022E-03  -3.62336777E-06
  -6.94999984E-03  -3.70696353E-06
  -6.89999992E-03  -3.79228482E-06
  -6.85000001E-03  -3.87935597E-06
  -6.80000009E-03  -3.96820724E-06
  -6.75000018E-03  -4.05887295E-06
  -6.69999979E-03  -4.15139129E-06
  -6.64999988E-03  -4.24580094E-06
  -6.59999996E-03  -4.34213871E-06
  -6.55000005E-03  -4.44043826E-06
  -6.50000013E-03  -4.54072688E-06
  -6.45000022E-03  -4.64303230E-06
  -6.39999984E-03  -4.74738181E-06
  -6.34999992E-03  -4.85380815E-06
  -6.30000001E-03  -4.96235043E-06
  -6.25000009E-03  -5.07305140E-06
  -6.20000018E-03  -5.18595471E-06
  -6.14999980E-03  -5.30110174E-06
  -6.09999988E-03  -5.41852978E-06
  -6.04999997E-03  -5.53827067E-06
  -6.00000005E-03  -5.66035442E-06
  -5.95000014E-03  -5.78481331E-06
  -5.90000022E-03  -5.91168236E-06
  -5.84999984E-03  -6.04100296E-06
  -5.79999993E-03  -6.17282240E-06
  -5.75000001E-03  -6.30718887E-06
  -5.70000010E-03  -6.44414740E-06
  -5.65000018E-03  -6.58374211E-06
  -5.59999980E-03  -6.72600800E-06
  -5.54999989E-03  -6.87097827E-06
  -5.49999997E-03  -7.01868657E-06
  -5.45000006E-03  -7.16917293E-06
  -5.40000014E-03  -7.32248236E-06
  -5.35000023E-03  -7.47866534E-06
  -5.29999984E-03  -7.63777552E-06
  -5.24999993E-03  -7.79986385E-06
  -5.20000001E-03  -7.96497716E-06
  -5.15000010E-03  -8.13315546E-06
  -5.10000018E-03  -8.30443696E-06
  -5.04999980E-03  -8.47885804E-06
  -4.99999989E-03  -8.65646234E-06
  -4.94999997E-03  -8.83729535E-06
  -4.90000006E-03  -9.02141346E-06
  -4.85000014E-03  -9.20887214E-06
  -4.80000023E-03  -9.39972870E-06
  -4.74999985E-03  -9.59403133E-06
  -4.69999993E-03  -9.79182641E-06
  -4.65000002E-03  -9.99315125E-06
  -4.60000010E-03  -1.01980468E-05
  -4.55000019E-03  -1.04065557E-05
  -4.49999981E-03  -1.06187299E-05
  -4.44999989E-03  -1.08346258E-05
  -4.39999998E-03  -1.10543042E-05
  -4.35000006E-03  -1.12778253E-05
  -4.30000015E-03  -1.15052426E-05
  -4.25000023E-03  -1.17366062E-05
  -4.19999985E-03  -1.19719552E-05
  -4.14999994E-03  -1.22113333E-05
  -4.10000002E-03  -1.24547860E-05
  -4.05000011E-03  -1.27023632E-05
  -4.00000019E-03  -1.29541277E-05
  -3.94999981E-03  -1.32101441E-05
  -3.89999989E-03  -1.34704760E-05
  -3.84999998E-03  -1.37351808E-05
  -3.80000006E-03  -1.40043076E-05
  -3.74999992E-03  -1.42779008E-05
  -3.70000000E-03  -1.45560007E-05
  -3.65000009E-03  -1.48386544E-05
  -3.59999994E-03  -1.51259146E-05
  -3.55000002E-03  -1.54178415E-05
  -3.50000011E-03  -1.57144987E-05
  -3.44999996E-03  -1.60159561E-05
  -3.40000005E-03  -1.63222721E-05
  -3.34999990E-03  -1.66335030E-05
  -3.29999998E-03  -1.69496889E-05
  -3.25000007E-03  -1.72708751E-05
  -3.19999992E-03  -1.75971018E-05
  -3.15000000E-03  -1.79284252E-05
  -3.10000009E-03  -1.82649037E-05
  -3.04999994E-03  -1.86066081E-05
  -3.00000003E-03  -1.89536040E-05
  -2.95000011E-03  -1.93059568E-05
  -2.89999996E-03  -1.96637211E-05
  -2.85000005E-03  -2.00269387E-05
  -2.79999990E-03  -2.03956515E-05
  -2.74999999E-03  -2.07698995E-05
  -2.70000007E-03  -2.11497336E-05
  -2.64999992E-03  -2.15352156E-05
  -2.60000001E-03  -2.19264130E-05
  -2.55000009E-03  -2.23233910E-05
  -2.49999994E-03  -2.27262153E-05
  -2.45000003E-03  -2.31349422E-05
  -2.40000011E-03  -2.35496118E-05
  -2.34999997E-03  -2.39702658E-05
  -2.30000005E-03  -2.43969407E-05
  -2.24999990E-03  -2.48296801E-05
  -2.19999999E-03  -2.52685404E-05
  -2.15000007E-03  -2.57135889E-05
  -2.09999993E-03  -2.61648966E-05
  -2.05000001E-03  -2.66225270E-05
  -2.00000009E-03  -2.70865348E-05
  -1.94999995E-03  -2.75569600E-05
  -1.90000003E-03  -2.80338336E-05
  -1.85000000E-03  -2.85171918E-05
  -1.79999997E-03  -2.90070693E-05
  -1.75000005E-03  -2.95035188E-05
  -1.70000002E-03  -3.00066040E-05
  -1.64999999E-03  -3.05163921E-05
  -1.59999996E-03  -3.10329488E-05
  -1.55000004E-03  -3.15563229E-05
  -1.50000001E-03  -3.20865547E-05
  -1.44999998E-03  -3.26236659E-05
  -1.39999995E-03  -3.31676856E-05
  -1.35000004E-03  -3.37186357E-05
  -1.30000000E-03  -3.42765634E-05
  -1.24999997E-03  -3.48415342E-05
  -1.20000006E-03  -3.54136027E-05
  -1.15000003E-03  -3.59928345E-05
  -1.09999999E-03  -3.65792766E-05
  -1.04999996E-03  -3.71729548E-05
  -1.00000005E-03  -3.77738870E-05
  -9.50000016E-04  -3.83820807E-05
  -8.99999985E-04  -3.89975539E-05
  -8.50000011E-04  -3.96203504E-05
  -7.99999980E-04  -4.02505066E-05
  -7.50000007E-04  -4.08880915E-05
  -6.99999975E-04  -4.15331524E-05
  -6.50000002E-04  -4.21857403E-05
  -6.00000028E-04  -4.28458661E-05
  -5.49999997E-04  -4.35135407E-05
  -5.00000024E-04  -4.41887496E-05
  -4.49999992E-04  -4.48715109E-05
  -3.99999990E-04  -4.55618392E-05
  -3.49999988E-04  -4.62597673E-05
  -3.00000014E-04  -4.69653460E-05
  -2.50000012E-04  -4.76786226E-05
  -1.99999995E-04  -4.83996228E-05
  -1.50000007E-04  -4.91283681E-05
  -9.99999975E-05  -4.98648515E-05
  -4.99999987E-05  -5.06090473E-05
   0.00000000      -5.13609302E-05
   4.99999987E-05  -5.21205038E-05
   9.99999975E-05  -5.28877790E-05
   1.50000007E-04  -5.36627922E-05
   1.99999995E-04  -5.44455761E-05
   2.50000012E-04  -5.52361635E-05
   3.00000014E-04  -5.60345470E-05
   3.49999988E-04  -5.68407086E-05
   3.99999990E-04  -5.76546045E-05
   4.49999992E-04  -5.84761910E-05
   5.00000024E-04  -5.93054392E-05
   5.49999997E-04  -6.01423417E-05
   6.00000028E-04  -6.09869130E-05
   6.50000002E-04  -6.18391787E-05
   6.99999975E-04  -6.26991387E-05
   7.50000007E-04  -6.35667820E-05
   7.99999980E-04  -6.44420797E-05
   8.50000011E-04  -6.53249444E-05
   8.99999985E-04  -6.62153179E-05
   9.50000016E-04  -6.71131420E-05
   1.00000005E-03  -6.80183730E-05
   1.04999996E-03  -6.89310036E-05
   1.09999999E-03  -6.98510339E-05
   1.15000003E-03  -7.07784639E-05
   1.20000006E-03  -7.17132498E-05
   1.24999997E-03  -7.26553335E-05
   1.30000000E-03  -7.36046277E-05
   1.35000004E-03  -7.45610232E-05
   1.39999995E-03  -7.55244182E-05
   1.44999998E-03  -7.64947545E-05
   1.50000001E-03  -7.74719811E-05
   1.55000004E-03  -7.84560834E-05
   1.59999996E-03  -7.94470325E-05
   1.64999999E-03  -8.04447700E-05
   1.70000002E-03  -8.14492087E-05
   1.75000005E-03  -8.24602175E-05
   1.79999997E-03  -8.34776656E-05
   1.85000000E-03  -8.45014220E-05
   1.90000003E-03  -8.55313701E-05
   1.94999995E-03  -8.65674447E-05
   2.00000009E-03  -8.76095946E-05
   2.05000001E-03  -8.86577545E-05
   2.09999993E-03  -8.97118443E-05
   2.15000007E-03  -9.07717549E-05
   2.19999999E-03  -9.18373116E-05
   2.24999990E-03  -9.29083544E-05
   2.30000005E-03  -9.39846868E-05
   2.34999997E-03  -9.50661779E-05
   2.40000011E-03  -9.61527185E-05
   2.45000003E-03  -9.72441994E-05
   2.49999994E-03  -9.83405334E-05
   2.55000009E-03  -9.94416114E-05
   2.60000001E-03  -1.00547288E-04
   2.64999992E-03  -1.01657351E-04
   2.70000007E-03  -1.02771592E-04
   2.74999999E-03  -1.03889804E-04
   2.79999990E-03  -1.05011779E-04