  -3.99999991E-02   0.00000000    
  -3.99499983E-02   0.00000000    
  -3.99000011E-02   0.00000000    
  -3.98500003E-02   0.00000000    
  -3.97999994E-02  -4.00362539E-25
  -3.97499986E-02   3.64522243E-23
  -3.97000015E-02   3.37612121E-22
  -3.96500006E-02   1.57605069E-21
  -3.95999998E-02   4.98017820E-21
  -3.95499989E-02   1.17886558E-20
  -3.95000018E-02   2.16016391E-20
  -3.94500010E-02   2.98154376E-20
  -3.94000001E-02   2.54177125E-20
  -3.93499993E-02  -8.69093547E-21
  -3.92999984E-02  -9.09386533E-20
  -3.92500013E-02  -2.31968405E-19
  -3.92000005E-02  -4.24510512E-19
  -3.91499996E-02  -6.38352288E-19
  -3.90999988E-02  -8.26422140E-19
  -3.90500017E-02  -9.43624172E-19
  -3.90000008E-02  -9.72480884E-19
  -3.89500000E-02  -9.42761732E-19
  -3.88999991E-02  -9.31054025E-19
  -3.88499983E-02  -1.03348907E-18
  -3.88000011E-02  -1.31865473E-18
  -3.87500003E-02  -1.78142361E-18
  -3.86999995E-02  -2.32372033E-18
  -3.86499986E-02  -2.77990899E-18
  -3.86000015E-02  -2.98395563E-18
  -3.85500006E-02  -2.85145804E-18
  -3.84999998E-02  -2.43456811E-18
  -3.84499989E-02  -1.91242131E-18
  -3.84000018E-02  -1.50629166E-18
  -3.83500010E-02  -1.34785059E-18
  -3.83000001E-02  -1.36146732E-18
  -3.82499993E-02  -1.22739313E-18
  -3.81999984E-02  -4.62755337E-19
  -3.81500013E-02   1.39871154E-18
  -3.81000005E-02   4.60295240E-18
  -3.80499996E-02   9.04758904E-18
  -3.79999988E-02   1.43057264E-17
  -3.79500017E-02   1.98113942E-17
  -3.79000008E-02   2.51361974E-17
  -3.78500000E-02   3.02315191E-17
  -3.77999991E-02   3.55116346E-17
  -3.77499983E-02   4.17171502E-17
  -3.77000012E-02   4.96012038E-17
  -3.76500003E-02   5.95749043E-17
  -3.75999995E-02   7.14832214E-17
  -3.75499986E-02   8.46331829E-17
  -3.75000015E-02   9.80796787E-17
  -3.74500006E-02   1.11046271E-16
  -3.73999998E-02   1.23284851E-16
  -3.73499990E-02   1.35198979E-16
  -3.73000018E-02   1.47664008E-16
  -3.72500010E-02   1.61620477E-16
  -3.72000001E-02   1.77624040E-16
  -3.71499993E-02   1.95555569E-16
  -3.70999984E-02   2.14615239E-16
  -3.70500013E-02   2.33587811E-16
  -3.70000005E-02   2.51239978E-16
  -3.69499996E-02   2.66661589E-16
  -3.68999988E-02   2.79417640E-16
  -3.68500017E-02   2.89497650E-16
  -3.68000008E-02   2.97162716E-16
  -3.67500000E-02   3.02820817E-16
  -3.66999991E-02   3.06991633E-16
  -3.66499983E-02   3.10305967E-16
  -3.66000012E-02   3.13411508E-16
  -3.65500003E-02   3.16695666E-16
  -3.64999995E-02   3.19884640E-16
  -3.64499986E-02   3.21745359E-16
  -3.64000015E-02   3.20185389E-16
  -3.63500006E-02   3.12923432E-16
  -3.62999998E-02   2.98603810E-16
  -3.62499990E-02   2.77887290E-16
  -3.62000018E-02   2.53870889E-16
  -3.61500010E-02   2.31346430E-16
  -3.61000001E-02   2.14918927E-16
  -3.60499993E-02   2.06674266E-16
  -3.59999985E-02   2.04557438E-16
  -3.59500013E-02   2.02560677E-16
  -3.59000005E-02   1.93111230E-16
  -3.58499996E-02   1.70929700E-16
  -3.57999988E-02   1.36632052E-16
  -3.57500017E-02   9.80567691E-17
  -3.57000008E-02   6.80370943E-17
  -3.56500000E-02   5.89472926E-17
  -3.55999991E-02   7.61572154E-17
  -3.55499983E-02   1.13606706E-16
  -3.55000012E-02   1.54322600E-16
  -3.54500003E-02   1.76724319E-16
  -3.53999995E-02   1.64708032E-16
  -3.53499986E-02   1.17088858E-16
  -3.53000015E-02   5.13839402E-17
  -3.52500007E-02  -1.18416095E-18
  -3.51999998E-02  -8.69526139E-18
  -3.51499990E-02   4.54558014E-17
  -3.51000018E-02   1.51021395E-16
  -3.50500010E-02   2.70435782E-16
  -3.50000001E-02   3.51640672E-16
  -3.49499993E-02   3.50154235E-16
  -3.48999985E-02   2.51027770E-16
  -3.48500013E-02   7.98201696E-17
  -3.48000005E-02  -1.04599669E-16
  -3.47499996E-02  -2.34735408E-16
  -3.46999988E-02  -2.67152048E-16
  -3.46500017E-02  -2.08245816E-16
  -3.46000008E-02  -1.19326137E-16
  -3.45500000E-02  -9.54124712E-17
  -3.44999991E-02  -2.24307374E-16
  -3.44499983E-02  -5.43190635E-16
  -3.44000012E-02  -1.01366836E-15
  -3.43500003E-02  -1.53009546E-15
  -3.42999995E-02  -1.96172788E-15
  -3.42499986E-02  -2.21274292E-15
  -3.42000015E-02  -2.27324585E-15
  -3.41500007E-02  -2.23516007E-15
  -3.40999998E-02  -2.26061278E-15
  -3.40499990E-02  -2.51199458E-15
  -3.40000018E-02  -3.07278502E-15
  -3.39500010E-02  -3.89644092E-15
  -3.39000002E-02  -4.81169178E-15
  -3.38499993E-02  -5.58866536E-15
  -3.37999985E-02  -6.04122067E-15
  -3.37500013E-02  -6.12028781E-15
  -3.37000005E-02  -5.95188199E-15
  -3.36499996E-02  -5.79473747E-15
  -3.35999988E-02  -5.92844670E-15
  -3.35500017E-02  -6.51790964E-15
  -3.35000008E-02  -7.51672877E-15
  -3.34500000E-02  -8.66067048E-15
  -3.33999991E-02  -9.56473924E-15
  -3.33499983E-02  -9.88910119E-15
  -3.33000012E-02  -9.50203424E-15
  -3.32500003E-02  -8.56161421E-15
  -3.31999995E-02  -7.46822766E-15
  -3.31499986E-02  -6.69676403E-15
  -3.31000015E-02  -6.57582170E-15
  -3.30500007E-02  -7.11370287E-15
  -3.29999998E-02  -7.95894604E-15
  -3.29499990E-02  -8.52799548E-15
  -3.29000019E-02  -8.25615719E-15
  -3.28500010E-02  -6.86485264E-15
  -3.28000002E-02  -4.51976272E-15
  -3.27499993E-02  -1.79404924E-15
  -3.26999985E-02   5.64741430E-16
  -3.26500013E-02   1.97228022E-15
  -3.26000005E-02   2.29927750E-15
  -3.25499997E-02   1.97477558E-15
  -3.24999988E-02   1.83426954E-15
  -3.24500017E-02   2.76085095E-15
  -3.24000008E-02   5.27011660E-15
  -3.23500000E-02   9.22995794E-15
  -3.22999991E-02   1.38597748E-14
  -3.22499983E-02   1.80344106E-14
  -3.22000012E-02   2.07763155E-14
  -3.21500003E-02   2.17202982E-14
  -3.20999995E-02   2.13293908E-14
  -3.20499986E-02   2.07388343E-14
  -3.20000015E-02   2.12701239E-14
  -3.19500007E-02   2.38162693E-14
  -3.18999998E-02   2.83770691E-14
  -3.18499990E-02   3.39757790E-14
  -3.18000019E-02   3.90281544E-14
  -3.17500010E-02   4.20277216E-14
  -3.17000002E-02   4.22512943E-14
  -3.16499993E-02   4.01551825E-14
  -3.15999985E-02   3.72511944E-14
  -3.15500014E-02   3.54788457E-14
  -3.15000005E-02   3.63276337E-14
  -3.14499997E-02   4.01002778E-14
  -3.13999988E-02   4.56721724E-14
  -3.13500017E-02   5.08974102E-14
  -3.13000008E-02   5.35209457E-14
  -3.12500000E-02   5.22093016E-14
  -3.11999992E-02   4.72281685E-14
  -3.11500002E-02   4.04251861E-14
  -3.10999993E-02   3.44754336E-14
  -3.10500003E-02   3.16879837E-14
  -3.09999995E-02   3.28977941E-14
  -3.09500005E-02   3.69649142E-14
  -3.08999997E-02   4.11569548E-14
  -3.08500007E-02   4.22990669E-14
  -3.07999998E-02   3.82103474E-14
  -3.07500008E-02   2.87792827E-14
  -3.07000000E-02   1.61540550E-14
  -3.06499992E-02   3.89927890E-15
  -3.06000002E-02  -4.55939285E-15
  -3.05499993E-02  -7.52942240E-15
  -3.05000003E-02  -5.94818765E-15
  -3.04499995E-02  -3.12140302E-15
  -3.04000005E-02  -3.34880553E-15
  -3.03499997E-02  -1.00011704E-14
  -3.03000007E-02  -2.39029089E-14
  -3.02499998E-02  -4.27873442E-14
  -3.02000009E-02  -6.21439749E-14
  -3.01500000E-02  -7.71531751E-14
  -3.00999992E-02  -8.48819983E-14
  -3.00500002E-02  -8.57430514E-14
  -2.99999993E-02  -8.34972282E-14
  -2.99500003E-02  -8.37097725E-14
  -2.98999995E-02  -9.12773953E-14
  -2.98500005E-02  -1.08110129E-13
  -2.97999997E-02  -1.32044915E-13
  -2.97500007E-02  -1.57564798E-13
  -2.96999998E-02  -1.78099519E-13
  -2.96500009E-02  -1.88942612E-13
  -2.96000000E-02  -1.89480105E-13
  -2.95499992E-02  -1.83667616E-13
  -2.95000002E-02  -1.78436489E-13
  -2.94499993E-02  -1.80643315E-13
  -2.94000003E-02  -1.93880082E-13
  -2.93499995E-02  -2.16600338E-13
  -2.93000005E-02  -2.42493010E-13
  -2.92499997E-02  -2.63056206E-13
  -2.92000007E-02  -2.71312161E-13
  -2.91499998E-02  -2.65024195E-13
  -2.91000009E-02  -2.47916867E-13
  -2.90500000E-02  -2.28234505E-13
  -2.89999992E-02  -2.15156343E-13
  -2.89500002E-02  -2.14595160E-13
  -2.88999993E-02  -2.26267491E-13
  -2.88500004E-02  -2.43441145E-13
  -2.87999995E-02  -2.55614513E-13
  -2.87500005E-02  -2.53056013E-13
  -2.86999997E-02  -2.31228394E-13
  -2.86500007E-02  -1.93075224E-13
  -2.85999998E-02  -1.48020214E-13
  -2.85500009E-02  -1.07972903E-13
  -2.85000000E-02  -8.20135721E-14
  -2.84499992E-02  -7.21143251E-14
  -2.84000002E-02  -7.18965902E-14
  -2.83499993E-02  -6.91393625E-14
  -2.83000004E-02  -5.10784482E-14
  -2.82499995E-02  -1.02200039E-14
  -2.82000005E-02   5.19516139E-14
  -2.81499997E-02   1.25158849E-13
  -2.81000007E-02   1.94510112E-13
  -2.80499998E-02   2.46963230E-13
  -2.80000009E-02   2.77244482E-13
  -2.79500000E-02   2.90510264E-13
  -2.78999992E-02   3.00390599E-13
  -2.78500002E-02   3.23088886E-13
  -2.77999993E-02   3.70031561E-13
  -2.77500004E-02   4.42334347E-13
  -2.76999995E-02   5.29675262E-13
  -2.76500005E-02   6.14284827E-13
  -2.75999997E-02   6.78475939E-13
  -2.75500007E-02   7.12464105E-13
  -2.74999999E-02   7.18950995E-13
  -2.74500009E-02   7.12256426E-13
  -2.74000000E-02   7.12154456E-13
  -2.73499992E-02   7.34971274E-13
  -2.73000002E-02   7.85854671E-13
  -2.72499993E-02   8.55762618E-13
  -2.72000004E-02   9.24736850E-13
  -2.71499995E-02   9.70254909E-13
  -2.71000005E-02   9.77105007E-13
  -2.70499997E-02   9.44393218E-13
  -2.70000007E-02   8.86398268E-13
  -2.69499999E-02   8.26631732E-13
  -2.69000009E-02   7.87501683E-13
  -2.68500000E-02   7.80059773E-13
  -2.67999992E-02   7.98460744E-13
  -2.67500002E-02   8.21826765E-13
  -2.66999993E-02   8.22979434E-13
  -2.66500004E-02   7.80384329E-13
  -2.65999995E-02   6.88055353E-13
  -2.65500005E-02   5.58874886E-13
  -2.64999997E-02   4.19569896E-13
  -2.64500007E-02   2.99274115E-13
  -2.63999999E-02   2.16573246E-13
  -2.63500009E-02   1.70808598E-13
  -2.63000000E-02   1.41725349E-13
  -2.62499992E-02   9.79562026E-14
  -2.62000002E-02   1.08716069E-14
  -2.61499994E-02  -1.32224066E-13
  -2.61000004E-02  -3.21513486E-13
  -2.60499995E-02  -5.27922595E-13
  -2.60000005E-02  -7.15132164E-13
  -2.59499997E-02  -8.55284539E-13
  -2.59000007E-02  -9.41470101E-13
  -2.58499999E-02  -9.91259483E-13
  -2.58000009E-02  -1.03935534E-12
  -2.57500000E-02  -1.12225246E-12
  -2.56999992E-02  -1.26149828E-12
  -2.56500002E-02  -1.45301902E-12
  -2.55999994E-02  -1.66753926E-12
  -2.55500004E-02  -1.86232149E-12
  -2.54999995E-02  -1.99938026E-12
  -2.54500005E-02  -2.06223688E-12
  -2.53999997E-02  -2.06364092E-12
  -2.53500007E-02  -2.04046220E-12
  -2.52999999E-02  -2.03757692E-12
  -2.52500009E-02  -2.08757577E-12
  -2.52000000E-02  -2.19524659E-12
  -2.51499992E-02  -2.33397286E-12
  -2.51000002E-02  -2.45608937E-12
  -2.50499994E-02  -2.51306094E-12
  -2.50000004E-02  -2.47678939E-12
  -2.49499995E-02  -2.35254004E-12
  -2.49000005E-02  -2.17739672E-12
  -2.48499997E-02  -2.00443395E-12
  -2.48000007E-02  -1.87920274E-12
  -2.47499999E-02  -1.81880737E-12
  -2.47000009E-02  -1.80304317E-12
  -2.46500000E-02  -1.78199567E-12
  -2.45999992E-02  -1.69726451E-12
  -2.45500002E-02  -1.50777492E-12
  -2.44999994E-02  -1.20876768E-12
  -2.44500004E-02  -8.35224197E-13
  -2.43999995E-02  -4.47661819E-13
  -2.43500005E-02  -1.06062579E-13
  -2.42999997E-02   1.56784823E-13
  -2.42500007E-02   3.50606534E-13
  -2.41999999E-02   5.24382187E-13
  -2.41500009E-02   7.45336898E-13
  -2.41000000E-02   1.06900112E-12
  -2.40499992E-02   1.51344887E-12
  -2.40000002E-02   2.04938714E-12
  -2.39499994E-02   2.61105330E-12
  -2.39000004E-02   3.12372329E-12
  -2.38499995E-02   3.53605860E-12
  -2.38000005E-02   3.84296241E-12
  -2.37499997E-02   4.08841320E-12
  -2.37000007E-02   4.34636355E-12
  -2.36499999E-02   4.68754983E-12
  -2.36000009E-02   5.14662661E-12
  -2.35500000E-02   5.70434455E-12
  -2.34999992E-02   6.29322549E-12
  -2.34500002E-02   6.82494469E-12
  -2.33999994E-02   7.22785156E-12
  -2.33500004E-02   7.47816392E-12
  -2.32999995E-02   7.61069419E-12
  -2.32500006E-02   7.70369966E-12
  -2.31999997E-02   7.84383062E-12
  -2.31500007E-02   8.08627037E-12
  -2.30999999E-02   8.42775415E-12
  -2.30500009E-02   8.80491426E-12
  -2.30000000E-02   9.11946386E-12
  -2.29499992E-02   9.27974884E-12
  -2.29000002E-02   9.24060134E-12
  -2.28499994E-02   9.02359611E-12
  -2.28000004E-02   8.70813404E-12
  -2.27499995E-02   8.39646668E-12
  -2.27000006E-02   8.16757512E-12
  -2.26499997E-02   8.04020652E-12
  -2.26000007E-02   7.96185774E-12
  -2.25499999E-02   7.82938905E-12
  -2.25000009E-02   7.53295690E-12
  -2.24500000E-02   7.00429211E-12
  -2.23999992E-02   6.24789109E-12
  -2.23500002E-02   5.34071008E-12
  -2.22999994E-02   4.39964558E-12
  -2.22500004E-02   3.53044525E-12
  -2.21999995E-02   2.78038269E-12
  -2.21500006E-02   2.11592744E-12
  -2.20999997E-02   1.43607283E-12
  -2.20500007E-02   6.16323128E-13
  -2.19999999E-02  -4.35488451E-13
  -2.19500009E-02  -1.73615397E-12
  -2.19000001E-02  -3.21637378E-12
  -2.18499992E-02  -4.74799063E-12
  -2.18000002E-02  -6.19800045E-12
  -2.17499994E-02  -7.48592160E-12
  -2.17000004E-02  -8.61900308E-12
  -2.16499995E-02  -9.68898486E-12
  -2.16000006E-02  -1.08309100E-11
  -2.15499997E-02  -1.21613813E-11
  -2.15000007E-02  -1.37233176E-11
  -2.14499999E-02  -1.54619945E-11
  -2.14000009E-02  -1.72438348E-11
  -2.13500001E-02  -1.89105866E-11
  -2.12999992E-02  -2.03456245E-11
  -2.12500002E-02  -2.15230542E-11
  -2.11999994E-02  -2.25173994E-11
  -2.11500004E-02  -2.34685674E-11
  -2.10999995E-02  -2.45167289E-11
  -2.10500006E-02  -2.57354329E-11
  -2.09999997E-02  -2.70927013E-11
  -2.09500007E-02  -2.84581629E-11
  -2.08999999E-02  -2.96540258E-11
  -2.08500009E-02  -3.05282223E-11
  -2.08000001E-02  -3.10176503E-11
  -2.07499992E-02  -3.11730815E-11
  -2.07000002E-02  -3.11338941E-11
  -2.06499994E-02  -3.10627080E-11
  -2.06000004E-02  -3.10682452E-11
  -2.05499995E-02  -3.11504260E-11
  -2.05000006E-02  -3.11927532E-11
  -2.04499997E-02  -3.10062254E-11
  -2.04000007E-02  -3.04064690E-11
  -2.03499999E-02  -2.92904034E-11
  -2.03000009E-02  -2.76783024E-11
  -2.02500001E-02  -2.57019041E-11
  -2.01999992E-02  -2.35427320E-11
  -2.01500002E-02  -2.13470873E-11
  -2.00999994E-02  -1.91550525E-11
  -2.00500004E-02  -1.68753882E-11
  -1.99999996E-02  -1.43183859E-11
  -1.99500006E-02  -1.12732471E-11
  -1.98999997E-02  -7.59644344E-12
  -1.98500007E-02  -3.27203347E-12
  -1.97999999E-02   1.58338956E-12
  -1.97500009E-02   6.77437707E-12
  -1.97000001E-02   1.21161614E-11
  -1.96499992E-02   1.75209534E-11
  -1.96000002E-02   2.30426182E-11
  -1.95499994E-02   2.88591252E-11
  -1.95000004E-02   3.51994371E-11
  -1.94499996E-02   4.22463176E-11
  -1.94000006E-02   5.00576941E-11
  -1.93499997E-02   5.85418797E-11
  -1.93000007E-02   6.74985415E-11
  -1.92499999E-02   7.67083411E-11
  -1.92000009E-02   8.60323618E-11
  -1.91500001E-02   9.54773899E-11
  -1.90999992E-02   1.05197441E-10
  -1.90500002E-02   1.15429874E-10
  -1.89999994E-02   1.26393340E-10
  -1.89500004E-02   1.38192083E-10
  -1.88999996E-02   1.50769244E-10
  -1.88500006E-02   1.63930591E-10
  -1.87999997E-02   1.77429280E-10
  -1.87500007E-02   1.91075128E-10
  -1.86999999E-02   2.04820313E-10
  -1.86500009E-02   2.18783380E-10
  -1.86000001E-02   2.33199543E-10
  -1.85499992E-02   2.48318727E-10
  -1.85000002E-02   2.64295474E-10
  -1.84499994E-02   2.81119100E-10
  -1.84000004E-02   2.98616160E-10
  -1.83499996E-02   3.16524862E-10
  -1.83000006E-02   3.34609646E-10
  -1.82499997E-02   3.52765733E-10
  -1.82000007E-02   3.71067566E-10
  -1.81499999E-02   3.89738464E-10
  -1.81000009E-02   4.09054429E-10
  -1.80500001E-02   4.29222990E-10
  -1.79999992E-02   4.50290888E-10
  -1.79500002E-02   4.72121842E-10
  -1.78999994E-02   4.94454755E-10
  -1.78500004E-02   5.17017984E-10
  -1.77999996E-02   5.39650657E-10
  -1.77500006E-02   5.62375868E-10
  -1.76999997E-02   5.85394511E-10
  -1.76500008E-02   6.09000961E-10
  -1.75999999E-02   6.33455954E-10
  -1.75500009E-02   6.58873678E-10
  -1.75000001E-02   6.85172363E-10
  -1.74499992E-02   7.12110870E-10
  -1.74000002E-02   7.39396822E-10
  -1.73499994E-02   7.66818553E-10
  -1.73000004E-02   7.94344091E-10
  -1.72499996E-02   8.22142077E-10
  -1.72000006E-02   8.50515047E-10
  -1.71499997E-02   8.79773421E-10
  -1.71000008E-02   9.10104825E-10
  -1.70499999E-02   9.41496880E-10
  -1.70000009E-02   9.73747527E-10
  -1.69500001E-02   1.00655972E-09
  -1.68999992E-02   1.03967923E-09
  -1.68500002E-02   1.07301690E-09
  -1.67999994E-02   1.10669829E-09
  -1.67500004E-02   1.14102128E-09
  -1.66999996E-02   1.17633692E-09
  -1.66500006E-02   1.21290766E-09
  -1.65999997E-02   1.25080146E-09
  -1.65500008E-02   1.28987321E-09
  -1.64999999E-02   1.32983979E-09
  -1.64500009E-02   1.37041667E-09
  -1.64000001E-02   1.41145828E-09
  -1.63499992E-02   1.45303847E-09
  -1.63000003E-02   1.49543611E-09
  -1.62499994E-02   1.53903101E-09
  -1.62000004E-02   1.58415514E-09
  -1.61499996E-02   1.63096370E-09
  -1.61000006E-02   1.67938408E-09
  -1.60499997E-02   1.72916403E-09
  -1.60000008E-02   1.78000115E-09
  -1.59499999E-02   1.83169546E-09
  -1.59000009E-02   1.88425942E-09
  -1.58500001E-02   1.93793537E-09
  -1.57999992E-02   1.99311478E-09
  -1.57500003E-02   2.05018891E-09
  -1.56999994E-02   2.10940065E-09
  -1.56500004E-02   2.17076201E-09
  -1.55999996E-02   2.23406960E-09
  -1.55499997E-02   2.29901920E-09
  -1.54999997E-02   2.36536346E-09
  -1.54499998E-02   2.43304843E-09
  -1.53999999E-02   2.50226551E-09
  -1.53500000E-02   2.57339727E-09
  -1.53000001E-02   2.64687894E-09
  -1.52500002E-02   2.72303757E-09
  -1.52000003E-02   2.80197621E-09
  -1.51500003E-02   2.88355695E-09
  -1.51000004E-02   2.96749025E-09
  -1.50499996E-02   3.05349124E-09
  -1.49999997E-02   3.14143622E-09
  -1.49499997E-02   3.23145066E-09
  -1.48999998E-02   3.32388672E-09
  -1.48499999E-02   3.41920381E-09
  -1.48000000E-02   3.51780183E-09
  -1.47500001E-02   3.61987751E-09
  -1.47000002E-02   3.72537201E-09
  -1.46500003E-02   3.83402954E-09
  -1.46000003E-02   3.94554300E-09
  -1.45500004E-02   4.05972411E-09
  -1.44999996E-02   4.17662260E-09
  -1.44499997E-02   4.29654268E-09
  -1.43999998E-02   4.41994885E-09
  -1.43499998E-02   4.54730031E-09
  -1.42999999E-02   4.67888750E-09
  -1.42500000E-02   4.81474327E-09
  -1.42000001E-02   4.95466290E-09
  -1.41500002E-02   5.09833553E-09
  -1.41000003E-02   5.24551691E-09
  -1.40500003E-02   5.39617728E-09
  -1.40000004E-02   5.55055779E-09
  -1.39499996E-02   5.70910652E-09
  -1.38999997E-02   5.87232618E-09
  -1.38499998E-02   6.04059558E-09
  -1.37999998E-02   6.21404839E-09
  -1.37499999E-02   6.39255537E-09
  -1.37000000E-02   6.57582655E-09
  -1.36500001E-02   6.76357947E-09
  -1.36000002E-02   6.95571067E-09
  -1.35500003E-02   7.15238846E-09
  -1.35000004E-02   7.35402850E-09
  -1.34500004E-02   7.56116147E-09
  -1.33999996E-02   7.77425058E-09
  -1.33499997E-02   7.99353828E-09
  -1.32999998E-02   8.21899437E-09
  -1.32499998E-02   8.45037640E-09
  -1.31999999E-02   8.68738947E-09
  -1.31500000E-02   8.92987106E-09
  -1.31000001E-02   9.17791265E-09
  -1.30500002E-02   9.43188549E-09
  -1.30000003E-02   9.69232783E-09
  -1.29500004E-02   9.95977789E-09
  -1.29000004E-02   1.02345918E-08
  -1.28499996E-02   1.05168558E-08
  -1.27999997E-02   1.08064029E-08
  -1.27499998E-02   1.11029586E-08
  -1.26999998E-02   1.14063186E-08
  -1.26499999E-02   1.17165095E-08
  -1.26000000E-02   1.20338486E-08
  -1.25500001E-02   1.23588704E-08
  -1.25000002E-02   1.26921753E-08
  -1.24500003E-02   1.30342359E-08
  -1.24000004E-02   1.33852636E-08
  -1.23500004E-02   1.37451979E-08
  -1.22999996E-02   1.41138088E-08
  -1.22499997E-02   1.44908769E-08
  -1.21999998E-02   1.48763739E-08
  -1.21499998E-02   1.52705599E-08
  -1.20999999E-02   1.56739581E-08
  -1.20500000E-02   1.60872133E-08
  -1.20000001E-02   1.65109064E-08
  -1.19500002E-02   1.69453891E-08
  -1.19000003E-02   1.73907342E-08
  -1.18500004E-02   1.78467925E-08
  -1.18000004E-02   1.83133562E-08
  -1.17499996E-02   1.87903577E-08
  -1.16999997E-02   1.92779943E-08
  -1.16499998E-02   1.97767580E-08
  -1.15999999E-02   2.02873185E-08
  -1.15499999E-02   2.08103454E-08
  -1.15000000E-02   2.13463380E-08
  -1.14500001E-02   2.18955059E-08
  -1.14000002E-02   2.24578098E-08
  -1.13500003E-02   2.30330919E-08
  -1.13000004E-02   2.36212720E-08
  -1.12500004E-02   2.42225013E-08
  -1.11999996E-02   2.48372416E-08
  -1.11499997E-02   2.54661785E-08
  -1.10999998E-02   2.61100670E-08
  -1.10499999E-02   2.67695395E-08
  -1.09999999E-02   2.74449654E-08
  -1.09500000E-02   2.81364283E-08
  -1.09000001E-02   2.88438393E-08
  -1.08500002E-02   2.95671061E-08
  -1.08000003E-02   3.03063388E-08
  -1.07500004E-02   3.10619441E-08
  -1.07000005E-02   3.18345919E-08
  -1.06499996E-02   3.26250884E-08
  -1.05999997E-02   3.34341976E-08
  -1.05499998E-02   3.42624453E-08
  -1.04999999E-02   3.51100731E-08
  -1.04499999E-02   3.59770986E-08
  -1.04000000E-02   3.68634794E-08
  -1.03500001E-02   3.77693006E-08
  -1.03000002E-02   3.86949353E-08
  -1.02500003E-02   3.96410407E-08
  -1.02000004E-02   4.06084730E-08
  -1.01500005E-02   4.15980956E-08
  -1.00999996E-02   4.26105906E-08
  -1.00499997E-02   4.36463559E-08
  -9.99999978E-03   4.47055299E-08
  -9.94999986E-03   4.57881200E-08
  -9.89999995E-03   4.68942041E-08
  -9.85000003E-03   4.80241091E-08
  -9.80000012E-03   4.91784498E-08
  -9.75000020E-03   5.03580928E-08
  -9.70000029E-03   5.15639762E-08
  -9.65000037E-03   5.27969171E-08
  -9.60000046E-03   5.40574909E-08
  -9.54999961E-03   5.53459749E-08
  -9.49999969E-03   5.66624614E-08
  -9.44999978E-03   5.80070498E-08
  -9.39999986E-03   5.93800351E-08
  -9.34999995E-03   6.07820070E-08
  -9.30000003E-03   6.22138572E-08
  -9.25000012E-03   6.36766089E-08
  -9.20000020E-03   6.51712355E-08
  -9.15000029E-03   6.66984761E-08
  -9.10000037E-03   6.82587924E-08
  -9.05000046E-03   6.98523834E-08
  -8.99999961E-03   7.14794126E-08
  -8.94999970E-03   7.31401499E-08
  -8.89999978E-03   7.48351781E-08
  -8.84999987E-03   7.65653354E-08
  -8.79999995E-03   7.83316736E-08
  -8.75000004E-03   8.01352655E-08
  -8.70000012E-03   8.19770065E-08
  -8.65000021E-03   8.38575147E-08
  -8.60000029E-03   8.57771454E-08
  -8.55000038E-03   8.77361188E-08
  -8.50000046E-03   8.97347192E-08
  -8.44999962E-03   9.17734724E-08
  -8.39999970E-03   9.38532025E-08
  -8.34999979E-03   9.59750253E-08
  -8.29999987E-03   9.81401058E-08
  -8.24999996E-03   1.00349524E-07
  -8.20000004E-03   1.02604098E-07
  -8.15000013E-03   1.04904359E-07
  -8.10000021E-03   1.07250628E-07
  -8.05000030E-03   1.09643274E-07
  -8.00000038E-03   1.12082802E-07
  -7.95000046E-03   1.14570049E-07
  -7.89999962E-03   1.17106133E-07
  -7.84999970E-03   1.19692288E-07
  -7.79999979E-03   1.22329766E-07
  -7.74999987E-03   1.25019525E-07
  -7.69999996E-03   1.27762263E-07
  -7.65000004E-03   1.30558433E-07
  -7.60000013E-03   1.33408420E-07
  -7.55000021E-03   1.36312721E-07
  -7.49999983E-03   1.39272117E-07
  -7.44999992E-03   1.42287689E-07
  -7.40000000E-03   1.45360758E-07
  -7.35000009E-03   1.48492646E-07
  -7.30000017E-03   1.51684532E-07
  -7.24999979E-03   1.54937254E-07
  -7.19999988E-03   1.58251424E-07
  -7.14999996E-03   1.61627526E-07
  -7.10000005E-03   1.65066098E-07
  -7.05000013E-03   1.68567936E-07
  -7.00000022E-03   1.72134150E-07
  -6.94999984E-03   1.75766061E-07
  -6.89999992E-03   1.79465133E-07
  -6.85000001E-03   1.83232643E-07
  -6.80000009E-03   1.87069674E-07
  -6.75000018E-03   1.90976948E-07
  -6.69999979E-03   1.94955035E-07
  -6.64999988E-03   1.99004504E-07
  -6.59999996E-03   2.03126163E-07
  -6.55000005E-03   2.07321051E-07
  -6.50000013E-03   2.11590532E-07
  -6.45000022E-03   2.15936069E-07
  -6.39999984E-03   2.20359055E-07
  -6.34999992E-03   2.24860656E-07
  -6.30000001E-03   2.29441767E-07
  -6.25000009E-03   2.34103055E-07
  -6.20000018E-03   2.38845161E-07
  -6.14999980E-03   2.43668836E-07
  -6.09999988E-03   2.48575105E-07
  -6.04999997E-03   2.53565304E-07
  -6.00000005E-03   2.58640938E-07
  -5.95000014E-03   2.63803514E-07
  -5.90000022E-03   2.69054425E-07
  -5.84999984E-03   2.74394608E-07
  -5.79999993E-03   2.79824860E-07
  -5.75000001E-03   2.85345834E-07
  -5.70000010E-03   2.90958383E-07
  -5.65000018E-03   2.96663501E-07
  -5.59999980E-03   3.02462439E-07
  -5.54999989E-03   3.08356704E-07
  -5.49999997E-03   3.14347858E-07
  -5.45000006E-03   3.20437294E-07
  -5.40000014E-03   3.26626122E-07
  -5.35000023E-03   3.32915278E-07
  -5.29999984E-03   3.39305444E-07
  -5.24999993E-03   3.45797332E-07
  -5.20000001E-03   3.52391936E-07
  -5.15000010E-03   3.59090450E-07
  -5.10000018E-03   3.65894323E-07
  -5.04999980E-03   3.72805090E-07
  -4.99999989E-03   3.79824229E-07
  -4.94999997E-03   3.86952905E-07
  -4.90000006E-03   3.94192085E-07
  -4.85000014E-03   4.01542536E-07
  -4.80000023E-03   4.09005082E-07
  -4.74999985E-03   4.16580548E-07
  -4.69999993E-03   4.24270155E-07
  -4.65000002E-03   4.32075268E-07
  -4.60000010E-03   4.39997393E-07
  -4.55000019E-03   4.48037980E-07
  -4.49999981E-03   4.56198279E-07
  -4.44999989E-03   4.64479285E-07
  -4.39999998E-03   4.72881823E-07
  -4.35000006E-03   4.81406573E-07
  -4.30000015E-03   4.90054276E-07
  -4.25000023E-03   4.98826068E-07
  -4.19999985E-03   5.07723257E-07
  -4.14999994E-03   5.16747320E-07
  -4.10000002E-03   5.25899509E-07
  -4.05000011E-03   5.35181243E-07
  -4.00000019E-03   5.44593377E-07
  -3.94999981E-03   5.54136705E-07
  -3.89999989E-03   5.63811739E-07
  -3.84999998E-03   5.73619218E-07
  -3.80000006E-03   5.83559995E-07
  -3.74999992E-03   5.93635434E-07
  -3.70000000E-03   6.03846843E-07
  -3.65000009E-03   6.14195585E-07
  -3.59999994E-03   6.24682912E-07
  -3.55000002E-03   6.35309732E-07
  -3.50000011E-03   6.46076558E-07
  -3.44999996E-03   6.56983957E-07
  -3.40000005E-03   6.68032442E-07
  -3.34999990E-03   6.79222751E-07
  -3.29999998E-03   6.90556021E-07
  -3.25000007E-03   7.02033503E-07
  -3.19999992E-03   7.13656391E-07
  -3.15000000E-03   7.25425707E-07
  -3.10000009E-03   7.37342361E-07
  -3.04999994E-03   7.49406752E-07
  -3.00000003E-03   7.61619276E-07
  -2.95000011E-03   7.73980048E-07
  -2.89999996E-03   7.86489693E-07
  -2.85000005E-03   7.99149063E-07
  -2.79999990E-03   8.11959069E-07
  -2.74999999E-03   8.24920960E-07
  -2.70000007E-03   8.38035533E-07
  -2.64999992E-03   8.51303298E-07
  -2.60000001E-03   8.64724711E-07
  -2.55000009E-03   8.78299943E-07
  -2.49999994E-03   8.92028822E-07
  -2.45000003E-03   9.05911577E-07
  -2.40000011E-03   9.19948661E-07
  -2.34999997E-03   9.34140758E-07
  -2.30000005E-03   9.48488889E-07
  -2.24999990E-03   9.62993681E-07
  -2.19999999E-03   9.77655645E-07
  -2.15000007E-03   9.92474952E-07
  -2.09999993E-03   1.00745115E-06
  -2.05000001E-03   1.02258400E-06
  -2.00000009E-03   1.03787306E-06
  -1.94999995E-03   1.05331844E-06
  -1.90000003E-03   1.06892060E-06
  -1.85000000E-03   1.08468009E-06
  -1.79999997E-03   1.10059739E-06
  -1.75000005E-03   1.11667259E-06
  -1.70000002E-03   1.13290548E-06
  -1.64999999E-03   1.14929526E-06
  -1.59999996E-03   1.16584113E-06
  -1.55000004E-03   1.18254229E-06
  -1.50000001E-03   1.19939796E-06
  -1.44999998E-03   1.21640812E-06
  -1.39999995E-03   1.23357336E-06
  -1.35000004E-03   1.25089389E-06
  -1.30000000E-03   1.26836926E-06
  -1.24999997E-03   1.28599902E-06
  -1.20000006E-03   1.30378203E-06
  -1.15000003E-03   1.32171647E-06
  -1.09999999E-03   1.33980109E-06
  -1.04999996E-03   1.35803475E-06
  -1.00000005E-03   1.37641678E-06
  -9.50000016E-04   1.39494705E-06
  -8.99999985E-04   1.41362534E-06
  -8.50000011E-04   1.43245109E-06
  -7.99999980E-04   1.45142315E-06
  -7.50000007E-04   1.47053959E-06
  -6.99999975E-04   1.48979825E-06
  -6.50000002E-04   1.50919675E-06
  -6.00000028E-04   1.52873326E-06
  -5.49999997E-04   1.54840654E-06
  -5.00000024E-04   1.56821579E-06
  -4.49999992E-04   1.58816010E-06
  -3.99999990E-04   1.60823856E-06
  -3.49999988E-04   1.62844958E-06
  -3.00000014E-04   1.64879043E-06
  -2.50000012E-04   1.66925838E-06
  -1.99999995E-04   1.68985002E-06
  -1.50000007E-04   1.71056286E-06
  -9.99999975E-05   1.73139472E-06
  -4.99999987E-05   1.75234391E-06
   0.00000000       1.77340928E-06
   4.99999987E-05   1.79458925E-06
   9.99999975E-05   1.81588143E-06
   1.50000007E-04   1.83728287E-06
   1.99999995E-04   1.85878935E-06
   2.50000012E-04   1.88039689E-06
   3.00000014E-04   1.90210164E-06
   3.49999988E-04   1.92390030E-06
   3.99999990E-04   1.94579093E-06
   4.49999992E-04   1.96777114E-06
   5.00000024E-04   1.98983889E-06
   5.49999997E-04   2.01199100E-06
   6.00000028E-04   2.03422383E-06
   6.50000002E-04   2.05653214E-06
   6.99999975E-04   2.07891048E-06
   7.50000007E-04   2.10135477E-06
   7.99999980E-04   2.12385999E-06
   8.50000011E-04   2.14642318E-06
   8.99999985E-04   2.16904073E-06
   9.50000016E-04   2.19171034E-06
   1.00000005E-03   2.21442815E-06
   1.04999996E-03   2.23718939E-06
   1.09999999E-03   2.25998861E-06
   1.15000003E-03   2.28281851E-06
   1.20000006E-03   2.30567321E-06
   1.24999997E-03   2.32854723E-06
   1.30000000E-03   2.35143602E-06
   1.35000004E-03   2.37433551E-06
   1.39999995E-03   2.39724250E-06
   1.44999998E-03   2.42015221E-06
   1.50000001E-03   2.44305966E-06
   1.55000004E-03   2.46595732E-06
   1.59999996E-03   2.48883725E-06
   1.64999999E-03   2.51169172E-06
   1.70000002E-03   2.53451367E-06
   1.75000005E-03   2.55729674E-06
   1.79999997E-03   2.58003661E-06
   1.85000000E-03   2.60272873E-06
   1.90000003E-03   2.62536764E-06
   1.94999995E-03   2.64794789E-06
   2.00000009E-03   2.67046107E-06
   2.05000001E-03   2.69289808E-06
   2.09999993E-03   2.71524891E-06
   2.15000007E-03   2.73750516E-06
   2.19999999E-03   2.75965931E-06
   2.24999990E-03   2.78170523E-06
   2.30000005E-03   2.80363724E-06
   2.34999997E-03   2.82545011E-06
   2.40000011E-03   2.84713656E-06
   2.45000003E-03   2.86868794E-06
   2.49999994E-03   2.89009381E-06
   2.55000009E-03   2.91134302E-06
   2.60000001E-03   2.93242510E-06
   2.64999992E-03   2.95332984E-06
   2.70000007E-03   2.97405063E-06
   2.74999999E-03   2.99458020E-06
   2.79999990E-03   3.01491195E-06