  -3.99999991E-02   0.00000000    
  -3.99499983E-02   0.00000000    
  -3.99000011E-02   0.00000000    
  -3.98500003E-02   0.00000000    
  -3.97999994E-02   2.00060339E-19
  -3.97499986E-02   1.51795780E-18
  -3.97000015E-02   6.18692262E-18
  -3.96500006E-02   1.80302064E-17
  -3.95999998E-02   4.24785898E-17
  -3.95499989E-02   8.70552604E-17
  -3.95000018E-02   1.62660263E-16
  -3.94500010E-02   2.84249169E-16
  -3.94000001E-02   4.68424361E-16
  -3.93499993E-02   7.27579702E-16
  -3.92999984E-02   1.06475461E-15
  -3.92500013E-02   1.47532959E-15
  -3.92000005E-02   1.95717593E-15
  -3.91499996E-02   2.52286773E-15
  -3.90999988E-02   3.20444909E-15
  -3.90500017E-02   4.04744911E-15
  -3.90000008E-02   5.10023271E-15
  -3.89500000E-02   6.40678399E-15
  -3.88999991E-02   8.00365582E-15
  -3.88499983E-02   9.91540071E-15
  -3.88000011E-02   1.21473105E-14
  -3.87500003E-02   1.46850085E-14
  -3.86999995E-02   1.75111238E-14
  -3.86499986E-02   2.06333228E-14
  -3.86000015E-02   2.41006860E-14
  -3.85500006E-02   2.79891162E-14
  -3.84999998E-02   3.23629537E-14
  -3.84499989E-02   3.72425886E-14
  -3.84000018E-02   4.26011833E-14
  -3.83500010E-02   4.83831352E-14
  -3.83000001E-02   5.45179611E-14
  -3.82499993E-02   6.09172814E-14
  -3.81999984E-02   6.74717647E-14
  -3.81500013E-02   7.40704563E-14
  -3.81000005E-02   8.06364253E-14
  -3.80499996E-02   8.71445589E-14
  -3.79999988E-02   9.35978183E-14
  -3.79500017E-02   9.99812958E-14
  -3.79000008E-02   1.06237298E-13
  -3.78500000E-02   1.12277619E-13
  -3.77999991E-02   1.18001190E-13
  -3.77499983E-02   1.23276226E-13
  -3.77000012E-02   1.27894521E-13
  -3.76500003E-02   1.31555438E-13
  -3.75999995E-02   1.33921262E-13
  -3.75499986E-02   1.34712323E-13
  -3.75000015E-02   1.33757656E-13
  -3.74500006E-02   1.30948990E-13
  -3.73999998E-02   1.26134902E-13
  -3.73499990E-02   1.19040831E-13
  -3.73000018E-02   1.09266281E-13
  -3.72500010E-02   9.63393793E-14
  -3.72000001E-02   7.97897786E-14
  -3.71499993E-02   5.92404679E-14
  -3.70999984E-02   3.45403942E-14
  -3.70500013E-02   5.90192271E-15
  -3.70000005E-02  -2.60777270E-14
  -3.69499996E-02  -6.06186447E-14
  -3.68999988E-02  -9.71463375E-14
  -3.68500017E-02  -1.35657734E-13
  -3.68000008E-02  -1.76830813E-13
  -3.67500000E-02  -2.21796580E-13
  -3.66999991E-02  -2.71695562E-13
  -3.66499983E-02  -3.27229942E-13
  -3.66000012E-02  -3.88371084E-13
  -3.65500003E-02  -4.54294317E-13
  -3.64999995E-02  -5.23572505E-13
  -3.64499986E-02  -5.94629164E-13
  -3.64000015E-02  -6.66332712E-13
  -3.63500006E-02  -7.38451184E-13
  -3.62999998E-02  -8.11643179E-13
  -3.62499990E-02  -8.86880033E-13
  -3.62000018E-02  -9.64562414E-13
  -3.61500010E-02  -1.04383776E-12
  -3.61000001E-02  -1.12253013E-12
  -3.60499993E-02  -1.19772551E-12
  -3.59999985E-02  -1.26671655E-12
  -3.59500013E-02  -1.32788236E-12
  -3.59000005E-02  -1.38116179E-12
  -3.58499996E-02  -1.42791584E-12
  -3.57999988E-02  -1.47013456E-12
  -3.57500017E-02  -1.50917690E-12
  -3.57000008E-02  -1.54454780E-12
  -3.56500000E-02  -1.57338584E-12
  -3.55999991E-02  -1.59111439E-12
  -3.55499983E-02  -1.59308775E-12
  -3.55000012E-02  -1.57644026E-12
  -3.54500003E-02  -1.54115761E-12
  -3.53999995E-02  -1.48980015E-12
  -3.53499986E-02  -1.42600927E-12
  -3.53000015E-02  -1.35246740E-12
  -3.52500007E-02  -1.26917422E-12
  -3.51999998E-02  -1.17274712E-12
  -3.51499990E-02  -1.05715599E-12
  -3.51000018E-02  -9.15803674E-13
  -3.50500010E-02  -7.44251015E-13
  -3.50000001E-02  -5.42369752E-13
  -3.49499993E-02  -3.14738144E-13
  -3.48999985E-02  -6.88522183E-14
  -3.48500013E-02   1.88117656E-13
  -3.48000005E-02   4.52450198E-13
  -3.47499996E-02   7.25350444E-13
  -3.46999988E-02   1.01209937E-12
  -3.46500017E-02   1.31929168E-12
  -3.46000008E-02   1.65137435E-12
  -3.45500000E-02   2.00791120E-12
  -3.44999991E-02   2.38275957E-12
  -3.44499983E-02   2.76569956E-12
  -3.44000012E-02   3.14607129E-12
  -3.43500003E-02   3.51693089E-12
  -3.42999995E-02   3.87769981E-12
  -3.42499986E-02   4.23377436E-12
  -3.42000015E-02   4.59304513E-12
  -3.41500007E-02   4.96093487E-12
  -3.40999998E-02   5.33636416E-12
  -3.40499990E-02   5.71057698E-12
  -3.40000018E-02   6.06934251E-12
  -3.39500010E-02   6.39753094E-12
  -3.39000002E-02   6.68415713E-12
  -3.38499993E-02   6.92575511E-12
  -3.37999985E-02   7.12653244E-12
  -3.37500013E-02   7.29494676E-12
  -3.37000005E-02   7.43794349E-12
  -3.36499996E-02   7.55542157E-12
  -3.35999988E-02   7.63776455E-12
  -3.35500017E-02   7.66797476E-12
  -3.35000008E-02   7.62764418E-12
  -3.34500000E-02   7.50399482E-12
  -3.33999991E-02   7.29465880E-12
  -3.33499983E-02   7.00802524E-12
  -3.33000012E-02   6.65900451E-12
  -3.32500003E-02   6.26200567E-12
  -3.31999995E-02   5.82396154E-12
  -3.31499986E-02   5.34032931E-12
  -3.31000015E-02   4.79598132E-12
  -3.30500007E-02   4.17098821E-12
  -3.29999998E-02   3.44908195E-12
  -3.29499990E-02   2.62499853E-12
  -3.29000019E-02   1.70716165E-12
  -3.28500010E-02   7.14300526E-13
  -3.28000002E-02  -3.32365700E-13
  -3.27499993E-02  -1.41765224E-12
  -3.26999985E-02  -2.53770789E-12
  -3.26500013E-02  -3.69987417E-12
  -3.26000005E-02  -4.91734344E-12
  -3.25499997E-02  -6.20088442E-12
  -3.24999988E-02  -7.55107175E-12
  -3.24500017E-02  -8.95440840E-12
  -3.24000008E-02  -1.03853237E-11
  -3.23500000E-02  -1.18136126E-11
  -3.22999991E-02  -1.32141936E-11
  -3.22499983E-02  -1.45746349E-11
  -3.22000012E-02  -1.58967509E-11
  -3.21500003E-02  -1.71914861E-11
  -3.20999995E-02  -1.84695922E-11
  -3.20499986E-02  -1.97325160E-11
  -3.20000015E-02  -2.09675124E-11
  -3.19500007E-02  -2.21488990E-11
  -3.18999998E-02  -2.32447880E-11
  -3.18499990E-02  -2.42266346E-11
  -3.18000019E-02  -2.50776414E-11
  -3.17500010E-02  -2.57964223E-11
  -3.17000002E-02  -2.63938506E-11
  -3.16499993E-02  -2.68841494E-11
  -3.15999985E-02  -2.72740632E-11
  -3.15500014E-02  -2.75552896E-11
  -3.15000005E-02  -2.77038583E-11
  -3.14499997E-02  -2.76867574E-11
  -3.13999988E-02  -2.74726734E-11
  -3.13500017E-02  -2.70421706E-11
  -3.13000008E-02  -2.63932834E-11
  -3.12500000E-02  -2.55405454E-11
  -3.11999992E-02  -2.45079443E-11
  -3.11500002E-02  -2.33183802E-11
  -3.10999993E-02  -2.19837221E-11
  -3.10500003E-02  -2.04997755E-11
  -3.09999995E-02  -1.88486848E-11
  -3.09500005E-02  -1.70079940E-11
  -3.08999997E-02  -1.49622276E-11
  -3.08500007E-02  -1.27116434E-11
  -3.07999998E-02  -1.02743048E-11
  -3.07500008E-02  -7.68105718E-12
  -3.07000000E-02  -4.96588317E-12
  -3.06499992E-02  -2.15569511E-12
  -3.06000002E-02   7.36650866E-13
  -3.05499993E-02   3.71354683E-12
  -3.05000003E-02   6.78741481E-12
  -3.04499995E-02   9.97072130E-12
  -3.04000005E-02   1.32650765E-11
  -3.03499997E-02   1.66542995E-11
  -3.03000007E-02   2.01048674E-11
  -3.02499998E-02   2.35736378E-11
  -3.02000009E-02   2.70192098E-11
  -3.01500000E-02   3.04115413E-11
  -3.00999992E-02   3.37361250E-11
  -3.00500002E-02   3.69914308E-11
  -2.99999993E-02   4.01809454E-11
  -2.99500003E-02   4.33029966E-11
  -2.98999995E-02   4.63420934E-11
  -2.98500005E-02   4.92653973E-11
  -2.97999997E-02   5.20268550E-11
  -2.97500007E-02   5.45779359E-11
  -2.96999998E-02   5.68810138E-11
  -2.96500009E-02   5.89189739E-11
  -2.96000000E-02   6.06963438E-11
  -2.95499992E-02   6.22313659E-11
  -2.95000002E-02   6.35424283E-11
  -2.94499993E-02   6.46346379E-11
  -2.94000003E-02   6.54916746E-11
  -2.93499995E-02   6.60759156E-11
  -2.93000005E-02   6.63372066E-11
  -2.92499997E-02   6.62275443E-11
  -2.92000007E-02   6.57166127E-11
  -2.91499998E-02   6.48012477E-11
  -2.91000009E-02   6.35039521E-11
  -2.90500000E-02   6.18602530E-11
  -2.89999992E-02   5.99002167E-11
  -2.89500002E-02   5.76327354E-11
  -2.88999993E-02   5.50397089E-11
  -2.88500004E-02   5.20824633E-11
  -2.87999995E-02   4.87174572E-11
  -2.87500005E-02   4.49150057E-11
  -2.86999997E-02   4.06739260E-11
  -2.86500007E-02   3.60258906E-11
  -2.85999998E-02   3.10270074E-11
  -2.85500009E-02   2.57387965E-11
  -2.85000000E-02   2.02060816E-11
  -2.84499992E-02   1.44420283E-11
  -2.84000002E-02   8.42766742E-12
  -2.83499993E-02   2.12661204E-12
  -2.83000004E-02  -4.49162625E-12
  -2.82499995E-02  -1.14307374E-11
  -2.82000005E-02  -1.86579120E-11
  -2.81499997E-02  -2.61093751E-11
  -2.81000007E-02  -3.37082619E-11
  -2.80499998E-02  -4.13878480E-11
  -2.80000009E-02  -4.91106530E-11
  -2.79500000E-02  -5.68746057E-11
  -2.78999992E-02  -6.47027293E-11
  -2.78500002E-02  -7.26192023E-11
  -2.77999993E-02  -8.06226474E-11
  -2.77500004E-02  -8.86696827E-11
  -2.76999995E-02  -9.66770969E-11
  -2.76500005E-02  -1.04542111E-10
  -2.75999997E-02  -1.12171647E-10
  -2.75500007E-02  -1.19507390E-10
  -2.74999999E-02  -1.26536046E-10
  -2.74500009E-02  -1.33280456E-10
  -2.74000000E-02  -1.39775205E-10
  -2.73499992E-02  -1.46036461E-10
  -2.73000002E-02  -1.52038312E-10
  -2.72499993E-02  -1.57706584E-10
  -2.72000004E-02  -1.62934541E-10
  -2.71499995E-02  -1.67614880E-10
  -2.71000005E-02  -1.71673592E-10
  -2.70499997E-02  -1.75089790E-10
  -2.70000007E-02  -1.77892229E-10
  -2.69499999E-02  -1.80134463E-10
  -2.69000009E-02  -1.81860138E-10
  -2.68500000E-02  -1.83073348E-10
  -2.67999992E-02  -1.83726173E-10
  -2.67500002E-02  -1.83728172E-10
  -2.66999993E-02  -1.82974261E-10
  -2.66500004E-02  -1.81380064E-10
  -2.65999995E-02  -1.78910275E-10
  -2.65500005E-02  -1.75586823E-10
  -2.64999997E-02  -1.71472975E-10
  -2.64500007E-02  -1.66639647E-10
  -2.63999999E-02  -1.61130664E-10
  -2.63500009E-02  -1.54942378E-10
  -2.63000000E-02  -1.48026993E-10
  -2.62499992E-02  -1.40316106E-10
  -2.62000002E-02  -1.31753067E-10
  -2.61499994E-02  -1.22320237E-10
  -2.61000004E-02  -1.12050431E-10
  -2.60499995E-02  -1.01017500E-10
  -2.60000005E-02  -8.93098026E-11
  -2.59499997E-02  -7.69971517E-11
  -2.59000007E-02  -6.41059636E-11
  -2.58499999E-02  -5.06138534E-11
  -2.58000009E-02  -3.64680890E-11
  -2.57500000E-02  -2.16184726E-11
  -2.56999992E-02  -6.04917505E-12
  -2.56500002E-02   1.02046054E-11
  -2.55999994E-02   2.70620401E-11
  -2.55500004E-02   4.44190171E-11
  -2.54999995E-02   6.21784499E-11
  -2.54500005E-02   8.02757583E-11
  -2.53999997E-02   9.86902851E-11
  -2.53500007E-02   1.17437352E-10
  -2.52999999E-02   1.36543790E-10
  -2.52500009E-02   1.56017033E-10
  -2.52000000E-02   1.75820622E-10
  -2.51499992E-02   1.95868169E-10
  -2.51000002E-02   2.16039187E-10
  -2.50499994E-02   2.36208469E-10
  -2.50000004E-02   2.56276306E-10
  -2.49499995E-02   2.76186907E-10
  -2.49000005E-02   2.95929059E-10
  -2.48499997E-02   3.15520443E-10
  -2.48000007E-02   3.34982125E-10
  -2.47499999E-02   3.54310942E-10
  -2.47000009E-02   3.73460096E-10
  -2.46500000E-02   3.92334942E-10
  -2.45999992E-02   4.10807083E-10
  -2.45500002E-02   4.28740404E-10
  -2.44999994E-02   4.46019360E-10
  -2.44500004E-02   4.62566735E-10
  -2.43999995E-02   4.78343642E-10
  -2.43500005E-02   4.93334595E-10
  -2.42999997E-02   5.07524356E-10
  -2.42500007E-02   5.20875343E-10
  -2.41999999E-02   5.33311784E-10
  -2.41500009E-02   5.44716938E-10
  -2.41000000E-02   5.54944202E-10
  -2.40499992E-02   5.63840752E-10
  -2.40000002E-02   5.71275360E-10
  -2.39499994E-02   5.77157655E-10
  -2.39000004E-02   5.81439119E-10
  -2.38499995E-02   5.84095883E-10
  -2.38000005E-02   5.85099635E-10
  -2.37499997E-02   5.84390480E-10
  -2.37000007E-02   5.81861892E-10
  -2.36499999E-02   5.77362380E-10
  -2.36000009E-02   5.70714975E-10
  -2.35500000E-02   5.61747371E-10
  -2.34999992E-02   5.50323065E-10
  -2.34500002E-02   5.36359568E-10
  -2.33999994E-02   5.19823184E-10
  -2.33500004E-02   5.00698871E-10
  -2.32999995E-02   4.78947382E-10
  -2.32500006E-02   4.54470350E-10
  -2.31999997E-02   4.27098718E-10
  -2.31500007E-02   3.96613076E-10
  -2.30999999E-02   3.62786634E-10
  -2.30500009E-02   3.25434152E-10
  -2.30000000E-02   2.84447604E-10
  -2.29499992E-02   2.39802372E-10
  -2.29000002E-02   1.91529570E-10
  -2.28499994E-02   1.39662851E-10
  -2.28000004E-02   8.41780257E-11
  -2.27499995E-02   2.49545315E-11
  -2.27000006E-02  -3.82206836E-11
  -2.26499997E-02  -1.05607127E-10
  -2.26000007E-02  -1.77439244E-10
  -2.25499999E-02  -2.53862431E-10
  -2.25000009E-02  -3.34906075E-10
  -2.24500000E-02  -4.20505630E-10
  -2.23999992E-02  -5.10563647E-10
  -2.23500002E-02  -6.05026806E-10
  -2.22999994E-02  -7.03947289E-10
  -2.22500004E-02  -8.07500400E-10
  -2.21999995E-02  -9.15948872E-10
  -2.21500006E-02  -1.02956277E-09
  -2.20999997E-02  -1.14852916E-09
  -2.20500007E-02  -1.27289435E-09
  -2.19999999E-02  -1.40256573E-09
  -2.19500009E-02  -1.53737290E-09
  -2.19000001E-02  -1.67716419E-09
  -2.18499992E-02  -1.82189019E-09
  -2.18000002E-02  -1.97164196E-09
  -2.17499994E-02  -2.12662643E-09
  -2.17000004E-02  -2.28708719E-09
  -2.16499995E-02  -2.45320519E-09
  -2.16000006E-02  -2.62502531E-09
  -2.15499997E-02  -2.80243651E-09
  -2.15000007E-02  -2.98522296E-09
  -2.14499999E-02  -3.17316440E-09
  -2.14000009E-02  -3.36614359E-09
  -2.13500001E-02  -3.56420715E-09
  -2.12999992E-02  -3.76754716E-09
  -2.12500002E-02  -3.97641120E-09
  -2.11999994E-02  -4.19098711E-09
  -2.11500004E-02  -4.41130599E-09
  -2.10999995E-02  -4.63721372E-09
  -2.10500006E-02  -4.86841900E-09
  -2.09999997E-02  -5.10460207E-09
  -2.09500007E-02  -5.34554534E-09
  -2.08999999E-02  -5.59121727E-09
  -2.08500009E-02  -5.84178395E-09
  -2.08000001E-02  -6.09752693E-09
  -2.07499992E-02  -6.35870734E-09
  -2.07000002E-02  -6.62543931E-09
  -2.06499994E-02  -6.89762869E-09
  -2.06000004E-02  -7.17500193E-09
  -2.05499995E-02  -7.45722151E-09
  -2.05000006E-02  -7.74403297E-09
  -2.04499997E-02  -8.03537592E-09
  -2.04000007E-02  -8.33141733E-09
  -2.03499999E-02  -8.63248850E-09
  -2.03000009E-02  -8.93895447E-09
  -2.02500001E-02  -9.25106836E-09
  -2.01999992E-02  -9.56888258E-09
  -2.01500002E-02  -9.89223725E-09
  -2.00999994E-02  -1.02208695E-08
  -2.00500004E-02  -1.05545563E-08
  -1.99999996E-02  -1.08932614E-08
  -1.99500006E-02  -1.12371934E-08
  -1.98999997E-02  -1.15867671E-08
  -1.98500007E-02  -1.19424817E-08
  -1.97999999E-02  -1.23047750E-08
  -1.97500009E-02  -1.26739135E-08
  -1.97000001E-02  -1.30499620E-08
  -1.96499992E-02  -1.34328664E-08
  -1.96000002E-02  -1.38225982E-08
  -1.95499994E-02  -1.42192897E-08
  -1.95000004E-02  -1.46233221E-08
  -1.94499996E-02  -1.50353099E-08
  -1.94000006E-02  -1.54559920E-08
  -1.93499997E-02  -1.58860800E-08
  -1.93000007E-02  -1.63261245E-08
  -1.92499999E-02  -1.67764682E-08
  -1.92000009E-02  -1.72373120E-08
  -1.91500001E-02  -1.77088459E-08
  -1.90999992E-02  -1.81914093E-08
  -1.90500002E-02  -1.86855882E-08
  -1.89999994E-02  -1.91922283E-08
  -1.89500004E-02  -1.97123260E-08
  -1.88999996E-02  -2.02468922E-08
  -1.88500006E-02  -2.07968043E-08
  -1.87999997E-02  -2.13627374E-08
  -1.87500007E-02  -2.19451799E-08
  -1.86999999E-02  -2.25445653E-08
  -1.86500009E-02  -2.31614230E-08
  -1.86000001E-02  -2.37965274E-08
  -1.85499992E-02  -2.44509302E-08
  -1.85000002E-02  -2.51259085E-08
  -1.84499994E-02  -2.58227928E-08
  -1.84000004E-02  -2.65428302E-08
  -1.83499996E-02  -2.72870597E-08
  -1.83000006E-02  -2.80563235E-08
  -1.82499997E-02  -2.88513338E-08
  -1.82000007E-02  -2.96728118E-08
  -1.81499999E-02  -3.05216368E-08
  -1.81000009E-02  -3.13989190E-08
  -1.80500001E-02  -3.23059943E-08
  -1.79999992E-02  -3.32443193E-08
  -1.79500002E-02  -3.42153257E-08
  -1.78999994E-02  -3.52202782E-08
  -1.78500004E-02  -3.62602357E-08
  -1.77999996E-02  -3.73361289E-08
  -1.77500006E-02  -3.84488743E-08
  -1.76999997E-02  -3.95994846E-08
  -1.76500008E-02  -4.07891569E-08
  -1.75999999E-02  -4.20192841E-08
  -1.75500009E-02  -4.32914185E-08
  -1.75000001E-02  -4.46071340E-08
  -1.74499992E-02  -4.59678731E-08
  -1.74000002E-02  -4.73748614E-08
  -1.73499994E-02  -4.88291434E-08
  -1.73000004E-02  -5.03316855E-08
  -1.72499996E-02  -5.18835215E-08
  -1.72000006E-02  -5.34858344E-08
  -1.71499997E-02  -5.51399850E-08
  -1.71000008E-02  -5.68474725E-08
  -1.70499999E-02  -5.86098352E-08
  -1.70000009E-02  -6.04285546E-08
  -1.69500001E-02  -6.23048990E-08
  -1.68999992E-02  -6.42399698E-08
  -1.68500002E-02  -6.62347190E-08
  -1.67999994E-02  -6.82900776E-08
  -1.67500004E-02  -7.04071255E-08
  -1.66999996E-02  -7.25871132E-08
  -1.66500006E-02  -7.48315401E-08
  -1.65999997E-02  -7.71419479E-08
  -1.65500008E-02  -7.95198503E-08
  -1.64999999E-02  -8.19666610E-08
  -1.64500009E-02  -8.44835881E-08
  -1.64000001E-02  -8.70716121E-08
  -1.63499992E-02  -8.97316355E-08
  -1.63000003E-02  -9.24646102E-08
  -1.62499994E-02  -9.52716590E-08
  -1.62000004E-02  -9.81541106E-08
  -1.61499996E-02  -1.01113493E-07
  -1.61000006E-02  -1.04151390E-07
  -1.60499997E-02  -1.07269322E-07
  -1.60000008E-02  -1.10468640E-07
  -1.59499999E-02  -1.13750545E-07
  -1.59000009E-02  -1.17116137E-07
  -1.58500001E-02  -1.20566497E-07
  -1.57999992E-02  -1.24102726E-07
  -1.57500003E-02  -1.27726196E-07
  -1.56999994E-02  -1.31438483E-07
  -1.56500004E-02  -1.35241322E-07
  -1.55999996E-02  -1.39136446E-07
  -1.55499997E-02  -1.43125519E-07
  -1.54999997E-02  -1.47210102E-07
  -1.54499998E-02  -1.51391603E-07
  -1.53999999E-02  -1.55671444E-07
  -1.53500000E-02  -1.60051087E-07
  -1.53000001E-02  -1.64532139E-07
  -1.52500002E-02  -1.69116504E-07
  -1.52000003E-02  -1.73806313E-07
  -1.51500003E-02  -1.78603813E-07
  -1.51000004E-02  -1.83511148E-07
  -1.50499996E-02  -1.88530308E-07
  -1.49999997E-02  -1.93663297E-07
  -1.49499997E-02  -1.98912034E-07
  -1.48999998E-02  -2.04278564E-07
  -1.48499999E-02  -2.09765076E-07
  -1.48000000E-02  -2.15374072E-07
  -1.47500001E-02  -2.21108237E-07
  -1.47000002E-02  -2.26970684E-07
  -1.46500003E-02  -2.32964439E-07
  -1.46000003E-02  -2.39092515E-07
  -1.45500004E-02  -2.45357768E-07
  -1.44999996E-02  -2.51762856E-07
  -1.44499997E-02  -2.58310592E-07
  -1.43999998E-02  -2.65004019E-07
  -1.43499998E-02  -2.71846432E-07
  -1.42999999E-02  -2.78841355E-07
  -1.42500000E-02  -2.85992598E-07
  -1.42000001E-02  -2.93304197E-07
  -1.41500002E-02  -3.00780385E-07
  -1.41000003E-02  -3.08425228E-07
  -1.40500003E-02  -3.16242534E-07
  -1.40000004E-02  -3.24236055E-07
  -1.39499996E-02  -3.32409655E-07
  -1.38999997E-02  -3.40767741E-07
  -1.38499998E-02  -3.49315030E-07
  -1.37999998E-02  -3.58056468E-07
  -1.37499999E-02  -3.66997085E-07
  -1.37000000E-02  -3.76142111E-07
  -1.36500001E-02  -3.85496975E-07
  -1.36000002E-02  -3.95067133E-07
  -1.35500003E-02  -4.04857730E-07
  -1.35000004E-02  -4.14873767E-07
  -1.34500004E-02  -4.25120334E-07
  -1.33999996E-02  -4.35603340E-07
  -1.33499997E-02  -4.46328983E-07
  -1.32999998E-02  -4.57303685E-07
  -1.32499998E-02  -4.68533727E-07
  -1.31999999E-02  -4.80025506E-07
  -1.31500000E-02  -4.91785556E-07
  -1.31000001E-02  -5.03820615E-07
  -1.30500002E-02  -5.16137277E-07
  -1.30000003E-02  -5.28742135E-07
  -1.29500004E-02  -5.41641953E-07
  -1.29000004E-02  -5.54844291E-07
  -1.28499996E-02  -5.68357109E-07
  -1.27999997E-02  -5.82188420E-07
  -1.27499998E-02  -5.96345956E-07
  -1.26999998E-02  -6.10837219E-07
  -1.26499999E-02  -6.25669941E-07
  -1.26000000E-02  -6.40852193E-07
  -1.25500001E-02  -6.56392046E-07
  -1.25000002E-02  -6.72297460E-07
  -1.24500003E-02  -6.88576904E-07
  -1.24000004E-02  -7.05239643E-07
  -1.23500004E-02  -7.22295511E-07
  -1.22999996E-02  -7.39754398E-07
  -1.22499997E-02  -7.57625969E-07
  -1.21999998E-02  -7.75919148E-07
  -1.21499998E-02  -7.94642915E-07
  -1.20999999E-02  -8.13806537E-07
  -1.20500000E-02  -8.33419222E-07
  -1.20000001E-02  -8.53490405E-07
  -1.19500002E-02  -8.74029354E-07
  -1.19000003E-02  -8.95046014E-07
  -1.18500004E-02  -9.16551130E-07
  -1.18000004E-02  -9.38556639E-07
  -1.17499996E-02  -9.61073738E-07
  -1.16999997E-02  -9.84113512E-07
  -1.16499998E-02  -1.00768739E-06
  -1.15999999E-02  -1.03180741E-06
  -1.15499999E-02  -1.05648644E-06
  -1.15000000E-02  -1.08173663E-06
  -1.14500001E-02  -1.10757003E-06
  -1.14000002E-02  -1.13399813E-06
  -1.13500003E-02  -1.16103251E-06
  -1.13000004E-02  -1.18868502E-06
  -1.12500004E-02  -1.21696621E-06
  -1.11999996E-02  -1.24588644E-06
  -1.11499997E-02  -1.27545638E-06
  -1.10999998E-02  -1.30568719E-06
  -1.10499999E-02  -1.33659250E-06
  -1.09999999E-02  -1.36818619E-06
  -1.09500000E-02  -1.40048348E-06
  -1.09000001E-02  -1.43349996E-06
  -1.08500002E-02  -1.46725233E-06
  -1.08000003E-02  -1.50175708E-06
  -1.07500004E-02  -1.53703081E-06
  -1.07000005E-02  -1.57308841E-06
  -1.06499996E-02  -1.60994455E-06
  -1.05999997E-02  -1.64761354E-06
  -1.05499998E-02  -1.68610882E-06
  -1.04999999E-02  -1.72544355E-06
  -1.04499999E-02  -1.76563037E-06
  -1.04000000E-02  -1.80668223E-06
  -1.03500001E-02  -1.84861267E-06
  -1.03000002E-02  -1.89143520E-06
  -1.02500003E-02  -1.93516416E-06
  -1.02000004E-02  -1.97981512E-06
  -1.01500005E-02  -2.02540559E-06
  -1.00999996E-02  -2.07195308E-06
  -1.00499997E-02  -2.11947713E-06
  -9.99999978E-03  -2.16799754E-06
  -9.94999986E-03  -2.21753407E-06
  -9.89999995E-03  -2.26810630E-06
  -9.85000003E-03  -2.31973240E-06
  -9.80000012E-03  -2.37243012E-06
  -9.75000020E-03  -2.42621718E-06
  -9.70000029E-03  -2.48111064E-06
  -9.65000037E-03  -2.53712733E-06
  -9.60000046E-03  -2.59428452E-06
  -9.54999961E-03  -2.65259928E-06
  -9.49999969E-03  -2.71209069E-06
  -9.44999978E-03  -2.77277604E-06
  -9.39999986E-03  -2.83467352E-06
  -9.34999995E-03  -2.89780064E-06
  -9.30000003E-03  -2.96217581E-06
  -9.25000012E-03  -3.02781700E-06
  -9.20000020E-03  -3.09474262E-06
  -9.15000029E-03  -3.16297155E-06
  -9.10000037E-03  -3.23252470E-06
  -9.05000046E-03  -3.30342164E-06
  -8.99999961E-03  -3.37568463E-06
  -8.94999970E-03  -3.44933551E-06
  -8.89999978E-03  -3.52439520E-06
  -8.84999987E-03  -3.60088507E-06
  -8.79999995E-03  -3.67882762E-06
  -8.75000004E-03  -3.75824607E-06
  -8.70000012E-03  -3.83916404E-06
  -8.65000021E-03  -3.92160382E-06
  -8.60000029E-03  -4.00558747E-06
  -8.55000038E-03  -4.09113636E-06
  -8.50000046E-03  -4.17827232E-06
  -8.44999962E-03  -4.26701672E-06
  -8.39999970E-03  -4.35739048E-06
  -8.34999979E-03  -4.44941361E-06
  -8.29999987E-03  -4.54310612E-06
  -8.24999996E-03  -4.63849074E-06
  -8.20000004E-03  -4.73558976E-06
  -8.15000013E-03  -4.83442636E-06
  -8.10000021E-03  -4.93502557E-06
  -8.05000030E-03  -5.03741057E-06
  -8.00000038E-03  -5.14160274E-06
  -7.95000046E-03  -5.24762663E-06
  -7.89999962E-03  -5.35550589E-06
  -7.84999970E-03  -5.46526690E-06
  -7.79999979E-03  -5.57693556E-06
  -7.74999987E-03  -5.69053600E-06
  -7.69999996E-03  -5.80609367E-06
  -7.65000004E-03  -5.92363858E-06
  -7.60000013E-03  -6.04319894E-06
  -7.55000021E-03  -6.16480247E-06
  -7.49999983E-03  -6.28847647E-06
  -7.44999992E-03  -6.41424640E-06
  -7.40000000E-03  -6.54213954E-06
  -7.35000009E-03  -6.67218410E-06
  -7.30000017E-03  -6.80441053E-06
  -7.24999979E-03  -6.93884385E-06
  -7.19999988E-03  -7.07550907E-06
  -7.14999996E-03  -7.21443303E-06
  -7.10000005E-03  -7.35564572E-06
  -7.05000013E-03  -7.49917672E-06
  -7.00000022E-03  -7.64505148E-06
  -6.94999984E-03  -7.79329639E-06
  -6.89999992E-03  -7.94393964E-06
  -6.85000001E-03  -8.09701305E-06
  -6.80000009E-03  -8.25255211E-06
  -6.75000018E-03  -8.41059045E-06
  -6.69999979E-03  -8.57115265E-06
  -6.64999988E-03  -8.73427143E-06
  -6.59999996E-03  -8.89997864E-06
  -6.55000005E-03  -9.06831610E-06
  -6.50000013E-03  -9.23931748E-06
  -6.45000022E-03  -9.41301369E-06
  -6.39999984E-03  -9.58943565E-06
  -6.34999992E-03  -9.76862157E-06
  -6.30000001E-03  -9.95060873E-06
  -6.25000009E-03  -1.01354381E-05
  -6.20000018E-03  -1.03231459E-05
  -6.14999980E-03  -1.05137642E-05
  -6.09999988E-03  -1.07073229E-05
  -6.04999997E-03  -1.09038629E-05
  -6.00000005E-03  -1.11034224E-05
  -5.95000014E-03  -1.13060378E-05
  -5.90000022E-03  -1.15117409E-05
  -5.84999984E-03  -1.17205691E-05
  -5.79999993E-03  -1.19325614E-05
  -5.75000001E-03  -1.21477597E-05
  -5.70000010E-03  -1.23662039E-05
  -5.65000018E-03  -1.25879315E-05
  -5.59999980E-03  -1.28129805E-05
  -5.54999989E-03  -1.30413910E-05
  -5.49999997E-03  -1.32732121E-05
  -5.45000006E-03  -1.35084911E-05
  -5.40000014E-03  -1.37472653E-05
  -5.35000023E-03  -1.39895765E-05
  -5.29999984E-03  -1.42354702E-05
  -5.24999993E-03  -1.44849937E-05
  -5.20000001E-03  -1.47381970E-05
  -5.15000010E-03  -1.49951265E-05
  -5.10000018E-03  -1.52558232E-05
  -5.04999980E-03  -1.55203343E-05
  -4.99999989E-03  -1.57887080E-05
  -4.94999997E-03  -1.60609943E-05
  -4.90000006E-03  -1.63372370E-05
  -4.85000014E-03  -1.66174814E-05
  -4.80000023E-03  -1.69017676E-05
  -4.74999985E-03  -1.71901447E-05
  -4.69999993E-03  -1.74826564E-05
  -4.65000002E-03  -1.77793518E-05
  -4.60000010E-03  -1.80802799E-05
  -4.55000019E-03  -1.83854881E-05
  -4.49999981E-03  -1.86950256E-05
  -4.44999989E-03  -1.90089468E-05
  -4.39999998E-03  -1.93273045E-05
  -4.35000006E-03  -1.96501605E-05
  -4.30000015E-03  -1.99775604E-05
  -4.25000023E-03  -2.03095569E-05
  -4.19999985E-03  -2.06462009E-05
  -4.14999994E-03  -2.09875561E-05
  -4.10000002E-03  -2.13336807E-05
  -4.05000011E-03  -2.16846274E-05
  -4.00000019E-03  -2.20404472E-05
  -3.94999981E-03  -2.24011892E-05
  -3.89999989E-03  -2.27669098E-05
  -3.84999998E-03  -2.31376671E-05
  -3.80000006E-03  -2.35135176E-05
  -3.74999992E-03  -2.38945122E-05
  -3.70000000E-03  -2.42806909E-05
  -3.65000009E-03  -2.46721156E-05
  -3.59999994E-03  -2.50688572E-05
  -3.55000002E-03  -2.54709685E-05
  -3.50000011E-03  -2.58784949E-05
  -3.44999996E-03  -2.62914909E-05
  -3.40000005E-03  -2.67100240E-05
  -3.34999990E-03  -2.71341578E-05
  -3.29999998E-03  -2.75639486E-05
  -3.25000007E-03  -2.79994510E-05
  -3.19999992E-03  -2.84407161E-05
  -3.15000000E-03  -2.88878109E-05
  -3.10000009E-03  -2.93408084E-05
  -3.04999994E-03  -2.97997758E-05
  -3.00000003E-03  -3.02647695E-05
  -2.95000011E-03  -3.07358350E-05
  -2.89999996E-03  -3.12130360E-05
  -2.85000005E-03  -3.16964361E-05
  -2.79999990E-03  -3.21861044E-05
  -2.74999999E-03  -3.26821028E-05
  -2.70000007E-03  -3.31844822E-05
  -2.64999992E-03  -3.36933008E-05
  -2.60000001E-03  -3.42086350E-05
  -2.55000009E-03  -3.47305468E-05
  -2.49999994E-03  -3.52591014E-05
  -2.45000003E-03  -3.57943500E-05
  -2.40000011E-03  -3.63363397E-05
  -2.34999997E-03  -3.68851470E-05
  -2.30000005E-03  -3.74408519E-05
  -2.24999990E-03  -3.80035053E-05
  -2.19999999E-03  -3.85731582E-05
  -2.15000007E-03  -3.91498652E-05
  -2.09999993E-03  -3.97337062E-05
  -2.05000001E-03  -4.03247577E-05
  -2.00000009E-03  -4.09230852E-05
  -1.94999995E-03  -4.15287468E-05
  -1.90000003E-03  -4.21418008E-05
  -1.85000000E-03  -4.27623163E-05
  -1.79999997E-03  -4.33903697E-05
  -1.75000005E-03  -4.40260301E-05
  -1.70000002E-03  -4.46693703E-05
  -1.64999999E-03  -4.53204448E-05
  -1.59999996E-03  -4.59793191E-05
  -1.55000004E-03  -4.66460624E-05
  -1.50000001E-03  -4.73207438E-05
  -1.44999998E-03  -4.80034214E-05
  -1.39999995E-03  -4.86941608E-05
  -1.35000004E-03  -4.93930092E-05
  -1.30000000E-03  -5.01000432E-05
  -1.24999997E-03  -5.08153462E-05
  -1.20000006E-03  -5.15389729E-05
  -1.15000003E-03  -5.22709961E-05
  -1.09999999E-03  -5.30114703E-05
  -1.04999996E-03  -5.37604610E-05
  -1.00000005E-03  -5.45180301E-05
  -9.50000016E-04  -5.52842648E-05
  -8.99999985E-04  -5.60592161E-05
  -8.50000011E-04  -5.68429714E-05
  -7.99999980E-04  -5.76356033E-05
  -7.50000007E-04  -5.84371774E-05
  -6.99999975E-04  -5.92477554E-05
  -6.50000002E-04  -6.00674175E-05
  -6.00000028E-04  -6.08962182E-05
  -5.49999997E-04  -6.17342375E-05
  -5.00000024E-04  -6.25815301E-05
  -4.49999992E-04  -6.34381577E-05
  -3.99999990E-04  -6.43041858E-05
  -3.49999988E-04  -6.51797018E-05
  -3.00000014E-04  -6.60647929E-05
  -2.50000012E-04  -6.69595101E-05
  -1.99999995E-04  -6.78638971E-05
  -1.50000007E-04  -6.87779975E-05
  -9.99999975E-05  -6.97019204E-05
  -4.99999987E-05  -7.06357387E-05
   0.00000000      -7.15795104E-05
   4.99999987E-05  -7.25332720E-05
   9.99999975E-05  -7.34970818E-05
   1.50000007E-04  -7.44710633E-05
   1.99999995E-04  -7.54553039E-05
   2.50000012E-04  -7.64498691E-05
   3.00000014E-04  -7.74547734E-05
   3.49999988E-04  -7.84700605E-05
   3.99999990E-04  -7.94958105E-05
   4.49999992E-04  -8.05321470E-05
   5.00000024E-04  -8.15791791E-05
   5.49999997E-04  -8.26368778E-05
   6.00000028E-04  -8.37053158E-05
   6.50000002E-04  -8.47845586E-05
   6.99999975E-04  -8.58747226E-05
   7.50000007E-04  -8.69758951E-05
   7.99999980E-04  -8.80881125E-05
   8.50000011E-04  -8.92113894E-05
   8.99999985E-04  -9.03457985E-05
   9.50000016E-04  -9.14914053E-05
   1.00000005E-03  -9.26483262E-05
   1.04999996E-03  -9.38166195E-05
   1.09999999E-03  -9.49963141E-05
   1.15000003E-03  -9.61874684E-05
   1.20000006E-03  -9.73901406E-05
   1.24999997E-03  -9.86044179E-05
   1.30000000E-03  -9.98303949E-05
   1.35000004E-03  -1.01068123E-04
   1.39999995E-03  -1.02317616E-04
   1.44999998E-03  -1.03578910E-04
   1.50000001E-03  -1.04852086E-04
   1.55000004E-03  -1.06137282E-04
   1.59999996E-03  -1.07434586E-04
   1.64999999E-03  -1.08744003E-04
   1.70000002E-03  -1.10065528E-04
   1.75000005E-03  -1.11399248E-04
   1.79999997E-03  -1.12745278E-04
   1.85000000E-03  -1.14103677E-04
   1.90000003E-03  -1.15474497E-04
   1.94999995E-03  -1.16857744E-04
   2.00000009E-03  -1.18253447E-04
   2.05000001E-03  -1.19661687E-04
   2.09999993E-03  -1.21082572E-04
   2.15000007E-03  -1.22516140E-04
   2.19999999E-03  -1.23962382E-04
   2.24999990E-03  -1.25421328E-04
   2.30000005E-03  -1.26893006E-04
   2.34999997E-03  -1.28377564E-04
   2.40000011E-03  -1.29875043E-04
   2.45000003E-03  -1.31385488E-04
   2.49999994E-03  -1.32908914E-04
   2.55000009E-03  -1.34445319E-04
   2.60000001E-03  -1.35994822E-04
   2.64999992E-03  -1.37557450E-04
   2.70000007E-03  -1.39133219E-04
   2.74999999E-03  -1.40722172E-04
   2.79999990E-03  -1.42324323E-04