  -3.99999991E-02   0.00000000    
  -3.99499983E-02   0.00000000    
  -3.99000011E-02   0.00000000    
  -3.98500003E-02   0.00000000    
  -3.97999994E-02   0.00000000    
  -3.97499986E-02   9.11281831E-23
  -3.97000015E-02   1.04705990E-21
  -3.96500006E-02   6.36101649E-21
  -3.95999998E-02   2.69856172E-20
  -3.95499989E-02   8.92892228E-20
  -3.95000018E-02   2.44367067E-19
  -3.94500010E-02   5.73470257E-19
  -3.94000001E-02   1.18224665E-18
  -3.93499993E-02   2.17886859E-18
  -3.92999984E-02   3.63967038E-18
  -3.92500013E-02   5.57826327E-18
  -3.92000005E-02   7.94295303E-18
  -3.91499996E-02   1.06633251E-17
  -3.90999988E-02   1.37453446E-17
  -3.90500017E-02   1.73813626E-17
  -3.90000008E-02   2.20148082E-17
  -3.89500000E-02   2.83004329E-17
  -3.88999991E-02   3.69402649E-17
  -3.88499983E-02   4.84422080E-17
  -3.88000011E-02   6.29099443E-17
  -3.87500003E-02   7.99908732E-17
  -3.86999995E-02   9.90590870E-17
  -3.86499986E-02   1.19601145E-16
  -3.86000015E-02   1.41648248E-16
  -3.85500006E-02   1.66024956E-16
  -3.84999998E-02   1.94217124E-16
  -3.84499989E-02   2.27814355E-16
  -3.84000018E-02   2.67701348E-16
  -3.83500010E-02   3.13353671E-16
  -3.83000001E-02   3.62625313E-16
  -3.82499993E-02   4.12242862E-16
  -3.81999984E-02   4.58901381E-16
  -3.81500013E-02   5.00528497E-16
  -3.81000005E-02   5.37127362E-16
  -3.80499996E-02   5.70725559E-16
  -3.79999988E-02   6.04323385E-16
  -3.79500017E-02   6.40203754E-16
  -3.79000008E-02   6.78307002E-16
  -3.78500000E-02   7.15418744E-16
  -3.77999991E-02   7.45605569E-16
  -3.77499983E-02   7.61777599E-16
  -3.77000012E-02   7.57715176E-16
  -3.76500003E-02   7.29632593E-16
  -3.75999995E-02   6.76534691E-16
  -3.75499986E-02   5.99173902E-16
  -3.75000015E-02   4.98082372E-16
  -3.74500006E-02   3.71595816E-16
  -3.73999998E-02   2.14784540E-16
  -3.73499990E-02   1.97849890E-17
  -3.73000018E-02  -2.22592079E-16
  -3.72500010E-02  -5.20605243E-16
  -3.72000001E-02  -8.79482091E-16
  -3.71499993E-02  -1.30011098E-15
  -3.70999984E-02  -1.77878592E-15
  -3.70500013E-02  -2.30792867E-15
  -3.70000005E-02  -2.87756468E-15
  -3.69499996E-02  -3.47737222E-15
  -3.68999988E-02  -4.09917402E-15
  -3.68500017E-02  -4.73960716E-15
  -3.68000008E-02  -5.40226772E-15
  -3.67500000E-02  -6.09817093E-15
  -3.66999991E-02  -6.84333376E-15
  -3.66499983E-02  -7.65306804E-15
  -3.66000012E-02  -8.53412969E-15
  -3.65500003E-02  -9.47756091E-15
  -3.64999995E-02  -1.04558425E-14
  -3.64499986E-02  -1.14270089E-14
  -3.64000015E-02  -1.23456289E-14
  -3.63500006E-02  -1.31769434E-14
  -3.62999998E-02  -1.39077838E-14
  -3.62499990E-02  -1.45478823E-14
  -3.62000018E-02  -1.51186115E-14
  -3.61500010E-02  -1.56321658E-14
  -3.61000001E-02  -1.60701666E-14
  -3.60499993E-02  -1.63733061E-14
  -3.59999985E-02  -1.64507181E-14
  -3.59500013E-02  -1.62093731E-14
  -3.59000005E-02  -1.55931430E-14
  -3.58499996E-02  -1.46134918E-14
  -3.57999988E-02  -1.33539200E-14
  -3.57500017E-02  -1.19396545E-14
  -3.57000008E-02  -1.04801472E-14
  -3.56500000E-02  -9.00731363E-15
  -3.55999991E-02  -7.43941245E-15
  -3.55499983E-02  -5.59355740E-15
  -3.55000012E-02  -3.25001735E-15
  -3.54500003E-02  -2.46188061E-16
  -3.53999995E-02   3.44065757E-15
  -3.53499986E-02   7.66440049E-15
  -3.53000015E-02   1.21578493E-14
  -3.52500007E-02   1.66458220E-14
  -3.51999998E-02   2.09774503E-14
  -3.51499990E-02   2.52145666E-14
  -3.51000018E-02   2.96247876E-14
  -3.50500010E-02   3.45671334E-14
  -3.50000001E-02   4.03096847E-14
  -3.49499993E-02   4.68588588E-14
  -3.48999985E-02   5.38865319E-14
  -3.48500013E-02   6.08064624E-14
  -3.48000005E-02   6.69859743E-14
  -3.47499996E-02   7.20103908E-14
  -3.46999988E-02   7.58799016E-14
  -3.46500017E-02   7.90345098E-14
  -3.46000008E-02   8.21718453E-14
  -3.45500000E-02   8.59185024E-14
  -3.44999991E-02   9.04949130E-14
  -3.44499983E-02   9.55344812E-14
  -3.44000012E-02   1.00163354E-13
  -3.43500003E-02   1.03333988E-13
  -3.42999995E-02   1.04281438E-13
  -3.42499986E-02   1.02896092E-13
  -3.42000015E-02   9.98218571E-14
  -3.41500007E-02   9.61994224E-14
  -3.40999998E-02   9.31368426E-14
  -3.40499990E-02   9.11323222E-14
  -3.40000018E-02   8.97241198E-14
  -3.39500010E-02   8.75648702E-14
  -3.39000002E-02   8.29356251E-14
  -3.38499993E-02   7.45040829E-14
  -3.37999985E-02   6.19914886E-14
  -3.37500013E-02   4.64189031E-14
  -3.37000005E-02   2.97690881E-14
  -3.36499996E-02   1.41623528E-14
  -3.35999988E-02   8.88168944E-16
  -3.35500017E-02  -1.02609461E-14
  -3.35000008E-02  -2.10048670E-14
  -3.34500000E-02  -3.38679043E-14
  -3.33999991E-02  -5.10132775E-14
  -3.33499983E-02  -7.31318624E-14
  -3.33000012E-02  -9.89221251E-14
  -3.32500003E-02  -1.25468917E-13
  -3.31999995E-02  -1.49429324E-13
  -3.31499986E-02  -1.68539309E-13
  -3.31000015E-02  -1.82754568E-13
  -3.30500007E-02  -1.94446727E-13
  -3.29999998E-02  -2.07470204E-13
  -3.29499990E-02  -2.25433997E-13
  -3.29000019E-02  -2.49920527E-13
  -3.28500010E-02  -2.79487588E-13
  -3.28000002E-02  -3.09993974E-13
  -3.27499993E-02  -3.36212205E-13
  -3.26999985E-02  -3.54080453E-13
  -3.26500013E-02  -3.62588269E-13
  -3.26000005E-02  -3.64379073E-13
  -3.25499997E-02  -3.64681213E-13
  -3.24999988E-02  -3.68937845E-13
  -3.24500017E-02  -3.80150121E-13
  -3.24000008E-02  -3.97167705E-13
  -3.23500000E-02  -4.14811496E-13
  -3.22999991E-02  -4.25921586E-13
  -3.22499983E-02  -4.24519767E-13
  -3.22000012E-02  -4.08685509E-13
  -3.21500003E-02  -3.81766423E-13
  -3.20999995E-02  -3.51218539E-13
  -3.20499986E-02  -3.25432715E-13
  -3.20000015E-02  -3.09876853E-13
  -3.19500007E-02  -3.04308472E-13
  -3.18999998E-02  -3.02443292E-13
  -3.18499990E-02  -2.94417892E-13
  -3.18000019E-02  -2.71100308E-13
  -3.17500010E-02  -2.28369624E-13
  -3.17000002E-02  -1.69363763E-13
  -3.16499993E-02  -1.03504736E-13
  -3.15999985E-02  -4.25331326E-14
  -3.15500014E-02   4.79874615E-15
  -3.15000005E-02   3.69860257E-14
  -3.14499997E-02   6.09165360E-14
  -3.13999988E-02   8.91519185E-14
  -3.13500017E-02   1.34350051E-13
  -3.13000008E-02   2.03238942E-13
  -3.12500000E-02   2.92924701E-13
  -3.11999992E-02   3.91416283E-13
  -3.11500002E-02   4.82406161E-13
  -3.10999993E-02   5.52369077E-13
  -3.10500003E-02   5.96834593E-13
  -3.09999995E-02   6.22870841E-13
  -3.09500005E-02   6.46390656E-13
  -3.08999997E-02   6.85205527E-13
  -3.08500007E-02   7.50784417E-13
  -3.07999998E-02   8.42453494E-13
  -3.07500008E-02   9.46866066E-13
  -3.07000000E-02   1.04329382E-12
  -3.06499992E-02   1.11262475E-12
  -3.06000002E-02   1.14610968E-12
  -3.05499993E-02   1.14978762E-12
  -3.05000003E-02   1.14229026E-12
  -3.04499995E-02   1.14666458E-12
  -3.04000005E-02   1.17966444E-12
  -3.03499997E-02   1.24332836E-12
  -3.03000007E-02   1.32288050E-12
  -3.02499998E-02   1.39228830E-12
  -3.02000009E-02   1.42534487E-12
  -3.01500000E-02   1.40747342E-12
  -3.00999992E-02   1.34285378E-12
  -3.00500002E-02   1.25333630E-12
  -2.99999993E-02   1.16921132E-12
  -2.99500003E-02   1.11565640E-12
  -2.98999995E-02   1.10087796E-12
  -2.98500005E-02   1.11148959E-12
  -2.97999997E-02   1.11761858E-12
  -2.97500007E-02   1.08587325E-12
  -2.96999998E-02   9.94591128E-13
  -2.96500009E-02   8.44459593E-13
  -2.96000000E-02   6.59385795E-13
  -2.95499992E-02   4.76734971E-13
  -2.95000002E-02   3.30899262E-13
  -2.94499993E-02   2.37426696E-13
  -2.94000003E-02   1.85029902E-13
  -2.93499995E-02   1.39528539E-13
  -2.93000005E-02   5.84911283E-14
  -2.92499997E-02  -8.96259656E-14
  -2.92000007E-02  -3.10393042E-13
  -2.91499998E-02  -5.79465620E-13
  -2.91000009E-02  -8.52089341E-13
  -2.90500000E-02  -1.08230330E-12
  -2.89999992E-02  -1.24348557E-12
  -2.89500002E-02  -1.34090937E-12
  -2.88999993E-02  -1.41023142E-12
  -2.88500004E-02  -1.50201195E-12
  -2.87999995E-02  -1.65876384E-12
  -2.87500005E-02  -1.89471984E-12
  -2.86999997E-02  -2.18769404E-12
  -2.86500007E-02  -2.48726777E-12
  -2.85999998E-02  -2.73623810E-12
  -2.85500009E-02  -2.89608008E-12
  -2.85000000E-02  -2.96494621E-12
  -2.84499992E-02  -2.97968009E-12
  -2.84000002E-02  -3.00026627E-12
  -2.83499993E-02  -3.08309606E-12
  -2.83000004E-02  -3.25478338E-12
  -2.82499995E-02  -3.49847647E-12
  -2.82000005E-02  -3.75937692E-12
  -2.81499997E-02  -3.96768859E-12
  -2.81000007E-02  -4.06920461E-12
  -2.80499998E-02  -4.04990191E-12
  -2.80000009E-02  -3.94313922E-12
  -2.79500000E-02  -3.81555291E-12
  -2.78999992E-02  -3.73731168E-12
  -2.78500002E-02  -3.74972362E-12
  -2.77999993E-02  -3.84485152E-12
  -2.77500004E-02  -3.96686633E-12
  -2.76999995E-02  -4.03530031E-12
  -2.76500005E-02  -3.98042753E-12
  -2.75999997E-02  -3.77510046E-12
  -2.75500007E-02  -3.44846157E-12
  -2.74999999E-02  -3.07465425E-12
  -2.74500009E-02  -2.74078763E-12
  -2.74000000E-02  -2.50797278E-12
  -2.73499992E-02  -2.38284717E-12
  -2.73000002E-02  -2.31284935E-12
  -2.72499993E-02  -2.20812756E-12
  -2.72000004E-02  -1.98101886E-12
  -2.71499995E-02  -1.58576071E-12
  -2.71000005E-02  -1.04044843E-12
  -2.70499997E-02  -4.20761435E-13
  -2.70000007E-02   1.72554299E-13
  -2.69499999E-02   6.58485744E-13
  -2.69000009E-02   1.01288531E-12
  -2.68500000E-02   1.28084934E-12
  -2.67999992E-02   1.55798486E-12
  -2.67500002E-02   1.94810292E-12
  -2.66999993E-02   2.51581503E-12
  -2.66500004E-02   3.25534369E-12
  -2.65999995E-02   4.09015356E-12
  -2.65500005E-02   4.90446139E-12
  -2.64999997E-02   5.59328625E-12
  -2.64500007E-02   6.10891719E-12
  -2.63999999E-02   6.48269719E-12
  -2.63500009E-02   6.81159946E-12
  -2.63000000E-02   7.21472534E-12
  -2.62499992E-02   7.77860415E-12
  -2.62000002E-02   8.51573933E-12
  -2.61499994E-02   9.35550509E-12
  -2.61000004E-02   1.01723300E-11
  -2.60499995E-02   1.08393789E-11
  -2.60000005E-02   1.12840839E-11
  -2.59499997E-02   1.15204365E-11
  -2.59000007E-02   1.16428490E-11
  -2.58499999E-02   1.17834076E-11
  -2.58000009E-02   1.20509401E-11
  -2.57500000E-02   1.24790378E-11
  -2.56999992E-02   1.30067606E-11
  -2.56500002E-02   1.35015454E-11
  -2.55999994E-02   1.38150116E-11
  -2.55500004E-02   1.38472211E-11
  -2.54999995E-02   1.35906130E-11
  -2.54500005E-02   1.31333512E-11
  -2.53999997E-02   1.26197048E-11
  -2.53500007E-02   1.21845077E-11
  -2.52999999E-02   1.18907653E-11
  -2.52500009E-02   1.16986854E-11
  -2.52000000E-02   1.14808059E-11
  -2.51499992E-02   1.10772893E-11
  -2.51000002E-02   1.03671802E-11
  -2.50499994E-02   9.32371541E-12
  -2.50000004E-02   8.02835142E-12
  -2.49499995E-02   6.63634295E-12
  -2.49000005E-02   5.30853573E-12
  -2.48499997E-02   4.13956499E-12
  -2.48000007E-02   3.11487316E-12
  -2.47499999E-02   2.11649903E-12
  -2.47000009E-02   9.75891134E-13
  -2.46500000E-02  -4.49321813E-13
  -2.45999992E-02  -2.20891664E-12
  -2.45500002E-02  -4.23419416E-12
  -2.44999994E-02  -6.36496108E-12
  -2.44500004E-02  -8.41794950E-12
  -2.43999995E-02  -1.02663251E-11
  -2.43500005E-02  -1.18943804E-11
  -2.42999997E-02  -1.34023166E-11
  -2.42500007E-02  -1.49582118E-11
  -2.41999999E-02  -1.67182448E-11
  -2.41500009E-02  -1.87509244E-11
  -2.41000000E-02  -2.09998199E-11
  -2.40499992E-02  -2.33022247E-11
  -2.40000002E-02  -2.54560938E-11
  -2.39499994E-02  -2.73055276E-11
  -2.39000004E-02  -2.88062890E-11
  -2.38499995E-02  -3.00414346E-11
  -2.38000005E-02  -3.11794063E-11
  -2.37499997E-02  -3.23930327E-11
  -2.37000007E-02  -3.37757843E-11
  -2.36499999E-02  -3.52933377E-11
  -2.36000009E-02  -3.67927251E-11
  -2.35500000E-02  -3.80654779E-11
  -2.34999992E-02  -3.89364339E-11
  -2.34500002E-02  -3.93380675E-11
  -2.33999994E-02  -3.93363710E-11
  -2.33500004E-02  -3.90961985E-11
  -2.32999995E-02  -3.88015002E-11
  -2.32500006E-02  -3.85666117E-11
  -2.31999997E-02  -3.83790812E-11
  -2.31500007E-02  -3.81004846E-11
  -2.30999999E-02  -3.75251635E-11
  -2.30500009E-02  -3.64704933E-11
  -2.30000000E-02  -3.48575890E-11
  -2.29499992E-02  -3.27455042E-11
  -2.29000002E-02  -3.03031870E-11
  -2.28499994E-02  -2.77317978E-11
  -2.28000004E-02  -2.51729835E-11
  -2.27499995E-02  -2.26451115E-11
  -2.27000006E-02  -2.00369062E-11
  -2.26499997E-02  -1.71614199E-11
  -2.26000007E-02  -1.38455714E-11
  -2.25499999E-02  -1.00139532E-11
  -2.25000009E-02  -5.72815319E-12
  -2.24500000E-02  -1.16333267E-12
  -2.23999992E-02   3.46717208E-12
  -2.23500002E-02   8.00427086E-12
  -2.22999994E-02   1.24097087E-11
  -2.22500004E-02   1.67757822E-11
  -2.21999995E-02   2.12735697E-11
  -2.21500006E-02   2.60637224E-11
  -2.20999997E-02   3.12114432E-11
  -2.20500007E-02   3.66451904E-11
  -2.19999999E-02   4.21785870E-11
  -2.19500009E-02   4.75851580E-11
  -2.19000001E-02   5.26909107E-11
  -2.18499992E-02   5.74411664E-11
  -2.18000002E-02   6.19102825E-11
  -2.17499994E-02   6.62496308E-11
  -2.17000004E-02   7.05984785E-11
  -2.16499995E-02   7.50001658E-11
  -2.16000006E-02   7.93635088E-11
  -2.15499997E-02   8.34881608E-11
  -2.15000007E-02   8.71422309E-11
  -2.14499999E-02   9.01553623E-11
  -2.14000009E-02   9.24829657E-11
  -2.13500001E-02   9.42104658E-11
  -2.12999992E-02   9.54953200E-11
  -2.12500002E-02   9.64741481E-11
  -2.11999994E-02   9.71796393E-11
  -2.11500004E-02   9.75076686E-11
  -2.10999995E-02   9.72513389E-11
  -2.10500006E-02   9.61863714E-11
  -2.09999997E-02   9.41671602E-11
  -2.09500007E-02   9.11868775E-11
  -2.08999999E-02   8.73715544E-11
  -2.08500009E-02   8.29098248E-11
  -2.08000001E-02   7.79514994E-11
  -2.07499992E-02   7.25241950E-11
  -2.07000002E-02   6.65098740E-11
  -2.06499994E-02   5.96948393E-11
  -2.06000004E-02   5.18711463E-11
  -2.05499995E-02   4.29413033E-11
  -2.05000006E-02   3.29750255E-11
  -2.04499997E-02   2.21882512E-11
  -2.04000007E-02   1.08518385E-11
  -2.03499999E-02  -8.27909789E-13
  -2.03000009E-02  -1.27993414E-11
  -2.02500001E-02  -2.51805642E-11
  -2.01999992E-02  -3.81889208E-11
  -2.01500002E-02  -5.20157910E-11
  -2.00999994E-02  -6.67055647E-11
  -2.00500004E-02  -8.20987098E-11
  -1.99999996E-02  -9.78698511E-11
  -1.99500006E-02  -1.13647231E-10
  -1.98999997E-02  -1.29159100E-10
  -1.98500007E-02  -1.44337084E-10
  -1.97999999E-02  -1.59323624E-10
  -1.97500009E-02  -1.74374876E-10
  -1.97000001E-02  -1.89700519E-10
  -1.96499992E-02  -2.05314987E-10
  -1.96000002E-02  -2.20972615E-10
  -1.95499994E-02  -2.36223013E-10
  -1.95000004E-02  -2.50566623E-10
  -1.94499996E-02  -2.63640859E-10
  -1.94000006E-02  -2.75349576E-10
  -1.93499997E-02  -2.85870300E-10
  -1.93000007E-02  -2.95529989E-10
  -1.92499999E-02  -3.04601622E-10
  -1.92000009E-02  -3.13115284E-10
  -1.91500001E-02  -3.20775295E-10
  -1.90999992E-02  -3.27029237E-10
  -1.90500002E-02  -3.31264183E-10
  -1.89999994E-02  -3.33044287E-10
  -1.89500004E-02  -3.32279343E-10
  -1.88999996E-02  -3.29240163E-10
  -1.88500006E-02  -3.24406113E-10
  -1.87999997E-02  -3.18207877E-10
  -1.87500007E-02  -3.10781456E-10
  -1.86999999E-02  -3.01850850E-10
  -1.86500009E-02  -2.90801383E-10
  -1.86000001E-02  -2.76919321E-10
  -1.85499992E-02  -2.59693878E-10
  -1.85000002E-02  -2.39043535E-10
  -1.84499994E-02  -2.15356996E-10
  -1.84000004E-02  -1.89320448E-10
  -1.83499996E-02  -1.61602398E-10
  -1.83000006E-02  -1.32536801E-10
  -1.82499997E-02  -1.01952932E-10
  -1.82000007E-02  -6.92389202E-11
  -1.81499999E-02  -3.36210053E-11
  -1.81000009E-02   5.46094723E-12
  -1.80500001E-02   4.80522011E-11
  -1.79999992E-02   9.35998362E-11
  -1.79500002E-02   1.41134951E-10
  -1.78999994E-02   1.89649726E-10
  -1.78500004E-02   2.38501802E-10
  -1.77999996E-02   2.87660340E-10
  -1.77500006E-02   3.37672446E-10
  -1.76999997E-02   3.89353799E-10
  -1.76500008E-02   4.43333231E-10
  -1.75999999E-02   4.99657482E-10
  -1.75500009E-02   5.57639601E-10
  -1.75000001E-02   6.16031393E-10
  -1.74499992E-02   6.73455458E-10
  -1.74000002E-02   7.28905991E-10
  -1.73499994E-02   7.82092058E-10
  -1.73000004E-02   8.33456859E-10
  -1.72499996E-02   8.83852935E-10
  -1.72000006E-02   9.34005318E-10
  -1.71499997E-02   9.84005322E-10
  -1.71000008E-02   1.03306563E-09
  -1.70499999E-02   1.07966136E-09
  -1.70000009E-02   1.12200871E-09
  -1.69500001E-02   1.15867294E-09
  -1.68999992E-02   1.18903387E-09
  -1.68500002E-02   1.21339072E-09
  -1.67999994E-02   1.23264510E-09
  -1.67500004E-02   1.24769151E-09
  -1.66999996E-02   1.25878452E-09
  -1.66500006E-02   1.26517330E-09
  -1.65999997E-02   1.26517719E-09
  -1.65500008E-02   1.25668786E-09
  -1.64999999E-02   1.23788180E-09
  -1.64500009E-02   1.20782473E-09
  -1.64000001E-02   1.16669097E-09
  -1.63499992E-02   1.11548470E-09
  -1.63000003E-02   1.05536713E-09
  -1.62499994E-02   9.86892790E-10
  -1.62000004E-02   9.09495090E-10
  -1.61499996E-02   8.21462787E-10
  -1.61000006E-02   7.20440319E-10
  -1.60499997E-02   6.04236439E-10
  -1.60000008E-02   4.71589379E-10
  -1.59499999E-02   3.22536137E-10
  -1.59000009E-02   1.58207558E-10
  -1.58500001E-02  -1.98771381E-11
  -1.57999992E-02  -2.10706175E-10
  -1.57500003E-02  -4.14466739E-10
  -1.56999994E-02  -6.32702724E-10
  -1.56500004E-02  -8.67859340E-10
  -1.55999996E-02  -1.12239451E-09
  -1.55499997E-02  -1.39785405E-09
  -1.54999997E-02  -1.69432612E-09
  -1.54499998E-02  -2.01053263E-09
  -1.53999999E-02  -2.34453967E-09
  -1.53500000E-02  -2.69477751E-09
  -1.53000001E-02  -3.06092240E-09
  -1.52500002E-02  -3.44422868E-09
  -1.52000003E-02  -3.84715371E-09
  -1.51500003E-02  -4.27242286E-09
  -1.51000004E-02  -4.72193040E-09
  -1.50499996E-02  -5.19599341E-09
  -1.49999997E-02  -5.69327918E-09
  -1.49499997E-02  -6.21147977E-09
  -1.48999998E-02  -6.74842715E-09
  -1.48499999E-02  -7.30317584E-09
  -1.48000000E-02  -7.87655630E-09
  -1.47500001E-02  -8.47092441E-09
  -1.47000002E-02  -9.08921649E-09
  -1.46500003E-02  -9.73371250E-09
  -1.46000003E-02  -1.04050502E-08
  -1.45500004E-02  -1.11019665E-08
  -1.44999996E-02  -1.18218706E-08
  -1.44499997E-02  -1.25620483E-08
  -1.43999998E-02  -1.33209266E-08
  -1.43499998E-02  -1.40988767E-08
  -1.42999999E-02  -1.48981441E-08
  -1.42500000E-02  -1.57219411E-08
  -1.42000001E-02  -1.65730789E-08
  -1.41500002E-02  -1.74527415E-08
  -1.41000003E-02  -1.83599944E-08
  -1.40500003E-02  -1.92921963E-08
  -1.40000004E-02  -2.02462296E-08
  -1.39499996E-02  -2.12199716E-08
  -1.38999997E-02  -2.22133281E-08
  -1.38499998E-02  -2.32284147E-08
  -1.37999998E-02  -2.42687292E-08
  -1.37499999E-02  -2.53377106E-08
  -1.37000000E-02  -2.64372790E-08
  -1.36500001E-02  -2.75670526E-08
  -1.36000002E-02  -2.87245907E-08
  -1.35500003E-02  -2.99065874E-08
  -1.35000004E-02  -3.11104742E-08
  -1.34500004E-02  -3.23357625E-08
  -1.33999996E-02  -3.35844810E-08
  -1.33499997E-02  -3.48605091E-08
  -1.32999998E-02  -3.61680748E-08
  -1.32499998E-02  -3.75100804E-08
  -1.31999999E-02  -3.88870340E-08
  -1.31500000E-02  -4.02970244E-08
  -1.31000001E-02  -4.17368078E-08
  -1.30500002E-02  -4.32035527E-08
  -1.30000003E-02  -4.46964350E-08
  -1.29500004E-02  -4.62173873E-08
  -1.29000004E-02  -4.77706337E-08
  -1.28499996E-02  -4.93612440E-08
  -1.27999997E-02  -5.09932327E-08
  -1.27499998E-02  -5.26681880E-08
  -1.26999998E-02  -5.43849694E-08
  -1.26499999E-02  -5.61406281E-08
  -1.26000000E-02  -5.79322119E-08
  -1.25500001E-02  -5.97585981E-08
  -1.25000002E-02  -6.16216198E-08
  -1.24500003E-02  -6.35258317E-08
  -1.24000004E-02  -6.54771455E-08
  -1.23500004E-02  -6.74808476E-08
  -1.22999996E-02  -6.95398725E-08
  -1.22499997E-02  -7.16541209E-08
  -1.21999998E-02  -7.38212265E-08
  -1.21499998E-02  -7.60383330E-08
  -1.20999999E-02  -7.83041187E-08
  -1.20500000E-02  -8.06202394E-08
  -1.20000001E-02  -8.29914839E-08
  -1.19500002E-02  -8.54245314E-08
  -1.19000003E-02  -8.79258195E-08
  -1.18500004E-02  -9.04996114E-08
  -1.18000004E-02  -9.31469799E-08
  -1.17499996E-02  -9.58662199E-08
  -1.16999997E-02  -9.86546027E-08
  -1.16499998E-02  -1.01510572E-07
  -1.15999999E-02  -1.04435550E-07
  -1.15499999E-02  -1.07434396E-07
  -1.15000000E-02  -1.10514399E-07
  -1.14500001E-02  -1.13683214E-07
  -1.14000002E-02  -1.16946559E-07
  -1.13500003E-02  -1.20306879E-07
  -1.13000004E-02  -1.23763400E-07
  -1.12500004E-02  -1.27313783E-07
  -1.11999996E-02  -1.30956295E-07
  -1.11499997E-02  -1.34692016E-07
  -1.10999998E-02  -1.38525664E-07
  -1.10499999E-02  -1.42464913E-07
  -1.09999999E-02  -1.46518261E-07
  -1.09500000E-02  -1.50692713E-07
  -1.09000001E-02  -1.54992023E-07
  -1.08500002E-02  -1.59416402E-07
  -1.08000003E-02  -1.63963890E-07
  -1.07500004E-02  -1.68632738E-07
  -1.07000005E-02  -1.73423672E-07
  -1.06499996E-02  -1.78341296E-07
  -1.05999997E-02  -1.83393567E-07
  -1.05499998E-02  -1.88589993E-07
  -1.04999999E-02  -1.93939059E-07
  -1.04499999E-02  -1.99446063E-07
  -1.04000000E-02  -2.05112556E-07
  -1.03500001E-02  -2.10937344E-07
  -1.03000002E-02  -2.16918821E-07
  -1.02500003E-02  -2.23057469E-07
  -1.02000004E-02  -2.29357639E-07
  -1.01500005E-02  -2.35827372E-07
  -1.00999996E-02  -2.42476915E-07
  -1.00499997E-02  -2.49315946E-07
  -9.99999978E-03  -2.56351314E-07
  -9.94999986E-03  -2.63585974E-07
  -9.89999995E-03  -2.71019616E-07
  -9.85000003E-03  -2.78650930E-07
  -9.80000012E-03  -2.86480343E-07
  -9.75000020E-03  -2.94512063E-07
  -9.70000029E-03  -3.02754302E-07
  -9.65000037E-03  -3.11218059E-07
  -9.60000046E-03  -3.19914506E-07
  -9.54999961E-03  -3.28852337E-07
  -9.49999969E-03  -3.38036358E-07
  -9.44999978E-03  -3.47467733E-07
  -9.39999986E-03  -3.57146149E-07
  -9.34999995E-03  -3.67072374E-07
  -9.30000003E-03  -3.77250814E-07
  -9.25000012E-03  -3.87690136E-07
  -9.20000020E-03  -3.98402221E-07
  -9.15000029E-03  -4.09399604E-07
  -9.10000037E-03  -4.20692857E-07
  -9.05000046E-03  -4.32288658E-07
  -8.99999961E-03  -4.44189766E-07
  -8.94999970E-03  -4.56396890E-07
  -8.89999978E-03  -4.68911367E-07
  -8.84999987E-03  -4.81737629E-07
  -8.79999995E-03  -4.94884716E-07
  -8.75000004E-03  -5.08365133E-07
  -8.70000012E-03  -5.22192920E-07
  -8.65000021E-03  -5.36380583E-07
  -8.60000029E-03  -5.50937102E-07
  -8.55000038E-03  -5.65867651E-07
  -8.50000046E-03  -5.81174618E-07
  -8.44999962E-03  -5.96860616E-07
  -8.39999970E-03  -6.12931046E-07
  -8.34999979E-03  -6.29395686E-07
  -8.29999987E-03  -6.46268518E-07
  -8.24999996E-03  -6.63565118E-07
  -8.20000004E-03  -6.81300435E-07
  -8.15000013E-03  -6.99486179E-07
  -8.10000021E-03  -7.18129797E-07
  -8.05000030E-03  -7.37236064E-07
  -8.00000038E-03  -7.56808902E-07
  -7.95000046E-03  -7.76854677E-07
  -7.89999962E-03  -7.97384075E-07
  -7.84999970E-03  -8.18411820E-07
  -7.79999979E-03  -8.39955248E-07
  -7.74999987E-03  -8.62031129E-07
  -7.69999996E-03  -8.84653559E-07
  -7.65000004E-03  -9.07832543E-07
  -7.60000013E-03  -9.31575130E-07
  -7.55000021E-03  -9.55887231E-07
  -7.49999983E-03  -9.80776576E-07
  -7.44999992E-03  -1.00625539E-06
  -7.40000000E-03  -1.03233947E-06
  -7.35000009E-03  -1.05904837E-06
  -7.30000017E-03  -1.08640108E-06
  -7.24999979E-03  -1.11441489E-06
  -7.19999988E-03  -1.14310262E-06
  -7.14999996E-03  -1.17247419E-06
  -7.10000005E-03  -1.20253776E-06
  -7.05000013E-03  -1.23330346E-06
  -7.00000022E-03  -1.26478483E-06
  -6.94999984E-03  -1.29699970E-06
  -6.89999992E-03  -1.32996900E-06
  -6.85000001E-03  -1.36371455E-06
  -6.80000009E-03  -1.39825579E-06
  -6.75000018E-03  -1.43360853E-06
  -6.69999979E-03  -1.46978550E-06
  -6.64999988E-03  -1.50679762E-06
  -6.59999996E-03  -1.54465693E-06
  -6.55000005E-03  -1.58337866E-06
  -6.50000013E-03  -1.62298250E-06
  -6.45000022E-03  -1.66349093E-06
  -6.39999984E-03  -1.70492808E-06
  -6.34999992E-03  -1.74731576E-06
  -6.30000001E-03  -1.79067308E-06
  -6.25000009E-03  -1.83501629E-06
  -6.20000018E-03  -1.88035881E-06
  -6.14999980E-03  -1.92671587E-06
  -6.09999988E-03  -1.97410486E-06
  -6.04999997E-03  -2.02254773E-06
  -6.00000005E-03  -2.07206972E-06
  -5.95000014E-03  -2.12269697E-06
  -5.90000022E-03  -2.17445472E-06
  -5.84999984E-03  -2.22736526E-06
  -5.79999993E-03  -2.28144836E-06
  -5.75000001E-03  -2.33672108E-06
  -5.70000010E-03  -2.39320161E-06
  -5.65000018E-03  -2.45090996E-06
  -5.59999980E-03  -2.50987046E-06
  -5.54999989E-03  -2.57011061E-06
  -5.49999997E-03  -2.63165953E-06
  -5.45000006E-03  -2.69454517E-06
  -5.40000014E-03  -2.75879347E-06
  -5.35000023E-03  -2.82442693E-06
  -5.29999984E-03  -2.89146647E-06
  -5.24999993E-03  -2.95993300E-06
  -5.20000001E-03  -3.02985040E-06
  -5.15000010E-03  -3.10124574E-06
  -5.10000018E-03  -3.17414970E-06
  -5.04999980E-03  -3.24859411E-06
  -4.99999989E-03  -3.32461082E-06
  -4.94999997E-03  -3.40222891E-06
  -4.90000006E-03  -3.48147501E-06
  -4.85000014E-03  -3.56237410E-06
  -4.80000023E-03  -3.64495145E-06
  -4.74999985E-03  -3.72923455E-06
  -4.69999993E-03  -3.81525433E-06
  -4.65000002E-03  -3.90304513E-06
  -4.60000010E-03  -3.99264218E-06
  -4.55000019E-03  -4.08408005E-06
  -4.49999981E-03  -4.17739284E-06
  -4.44999989E-03  -4.27260966E-06
  -4.39999998E-03  -4.36976097E-06
  -4.35000006E-03  -4.46887543E-06
  -4.30000015E-03  -4.56998396E-06
  -4.25000023E-03  -4.67312111E-06
  -4.19999985E-03  -4.77832509E-06
  -4.14999994E-03  -4.88563455E-06
  -4.10000002E-03  -4.99508815E-06
  -4.05000011E-03  -5.10672362E-06
  -4.00000019E-03  -5.22057553E-06
  -3.94999981E-03  -5.33667617E-06
  -3.89999989E-03  -5.45505918E-06
  -3.84999998E-03  -5.57576050E-06
  -3.80000006E-03  -5.69881877E-06
  -3.74999992E-03  -5.82427674E-06
  -3.70000000E-03  -5.95217762E-06
  -3.65000009E-03  -6.08256460E-06
  -3.59999994E-03  -6.21547861E-06
  -3.55000002E-03  -6.35095785E-06
  -3.50000011E-03  -6.48904052E-06
  -3.44999996E-03  -6.62976436E-06
  -3.40000005E-03  -6.77316984E-06
  -3.34999990E-03  -6.91929972E-06
  -3.29999998E-03  -7.06819992E-06
  -3.25000007E-03  -7.21991773E-06
  -3.19999992E-03  -7.37450137E-06
  -3.15000000E-03  -7.53199402E-06
  -3.10000009E-03  -7.69244070E-06
  -3.04999994E-03  -7.85588054E-06
  -3.00000003E-03  -8.02235809E-06
  -2.95000011E-03  -8.19191428E-06
  -2.89999996E-03  -8.36459731E-06
  -2.85000005E-03  -8.54045538E-06
  -2.79999990E-03  -8.71954398E-06
  -2.74999999E-03  -8.90191222E-06
  -2.70000007E-03  -9.08761103E-06
  -2.64999992E-03  -9.27668680E-06
  -2.60000001E-03  -9.46918499E-06
  -2.55000009E-03  -9.66514926E-06
  -2.49999994E-03  -9.86462783E-06
  -2.45000003E-03  -1.00676716E-05
  -2.40000011E-03  -1.02743361E-05
  -2.34999997E-03  -1.04846749E-05
  -2.30000005E-03  -1.06987472E-05
  -2.24999990E-03  -1.09166058E-05
  -2.19999999E-03  -1.11382979E-05
  -2.15000007E-03  -1.13638725E-05
  -2.09999993E-03  -1.15933781E-05
  -2.05000001E-03  -1.18268617E-05
  -2.00000009E-03  -1.20643799E-05
  -1.94999995E-03  -1.23059899E-05
  -1.90000003E-03  -1.25517518E-05
  -1.85000000E-03  -1.28017246E-05
  -1.79999997E-03  -1.30559665E-05
  -1.75000005E-03  -1.33145286E-05
  -1.70000002E-03  -1.35774608E-05
  -1.64999999E-03  -1.38448131E-05
  -1.59999996E-03  -1.41166356E-05
  -1.55000004E-03  -1.43929874E-05
  -1.50000001E-03  -1.46739294E-05
  -1.44999998E-03  -1.49595226E-05
  -1.39999995E-03  -1.52498305E-05
  -1.35000004E-03  -1.55449143E-05
  -1.30000000E-03  -1.58448238E-05
  -1.24999997E-03  -1.61496137E-05
  -1.20000006E-03  -1.64593348E-05
  -1.15000003E-03  -1.67740400E-05
  -1.09999999E-03  -1.70937856E-05
  -1.04999996E-03  -1.74186334E-05
  -1.00000005E-03  -1.77486490E-05
  -9.50000016E-04  -1.80839033E-05
  -8.99999985E-04  -1.84244509E-05
  -8.50000011E-04  -1.87703517E-05
  -7.99999980E-04  -1.91216550E-05
  -7.50000007E-04  -1.94784097E-05
  -6.99999975E-04  -1.98406669E-05
  -6.50000002E-04  -2.02084866E-05
  -6.00000028E-04  -2.05819288E-05
  -5.49999997E-04  -2.09610625E-05
  -5.00000024E-04  -2.13459552E-05
  -4.49999992E-04  -2.17366669E-05
  -3.99999990E-04  -2.21332521E-05
  -3.49999988E-04  -2.25357653E-05
  -3.00000014E-04  -2.29442503E-05
  -2.50000012E-04  -2.33587598E-05
  -1.99999995E-04  -2.37793483E-05
  -1.50000007E-04  -2.42060796E-05
  -9.99999975E-05  -2.46390227E-05
  -4.99999987E-05  -2.50782396E-05
   0.00000000      -2.55237901E-05
   4.99999987E-05  -2.59757326E-05
   9.99999975E-05  -2.64341106E-05
   1.50000007E-04  -2.68989734E-05
   1.99999995E-04  -2.73703645E-05
   2.50000012E-04  -2.78483403E-05
   3.00000014E-04  -2.83329609E-05
   3.49999988E-04  -2.88242863E-05
   3.99999990E-04  -2.93223784E-05
   4.49999992E-04  -2.98272971E-05
   5.00000024E-04  -3.03390898E-05
   5.49999997E-04  -3.08578055E-05
   6.00000028E-04  -3.13834789E-05
   6.50000002E-04  -3.19161554E-05
   6.99999975E-04  -3.24558860E-05
   7.50000007E-04  -3.30027215E-05
   7.99999980E-04  -3.35567165E-05
   8.50000011E-04  -3.41179293E-05
   8.99999985E-04  -3.46864181E-05
   9.50000016E-04  -3.52622264E-05
   1.00000005E-03  -3.58453908E-05
   1.04999996E-03  -3.64359548E-05
   1.09999999E-03  -3.70339440E-05
   1.15000003E-03  -3.76393946E-05
   1.20000006E-03  -3.82523540E-05
   1.24999997E-03  -3.88728731E-05
   1.30000000E-03  -3.95009993E-05
   1.35000004E-03  -4.01367834E-05
   1.39999995E-03  -4.07802727E-05
   1.44999998E-03  -4.14314818E-05
   1.50000001E-03  -4.20904435E-05
   1.55000004E-03  -4.27571758E-05
   1.59999996E-03  -4.34317080E-05
   1.64999999E-03  -4.41140692E-05
   1.70000002E-03  -4.48043102E-05
   1.75000005E-03  -4.55024638E-05
   1.79999997E-03  -4.62085700E-05
   1.85000000E-03  -4.69226507E-05
   1.90000003E-03  -4.76447240E-05
   1.94999995E-03  -4.83748117E-05
   2.00000009E-03  -4.91129140E-05
   2.05000001E-03  -4.98590489E-05
   2.09999993E-03  -5.06132310E-05
   2.15000007E-03  -5.13754894E-05
   2.19999999E-03  -5.21458496E-05
   2.24999990E-03  -5.29243298E-05
   2.30000005E-03  -5.37109518E-05
   2.34999997E-03  -5.45057192E-05
   2.40000011E-03  -5.53086247E-05
   2.45000003E-03  -5.61196648E-05
   2.49999994E-03  -5.69388358E-05
   2.55000009E-03  -5.77661303E-05
   2.60000001E-03  -5.86015631E-05
   2.64999992E-03  -5.94451340E-05
   2.70000007E-03  -6.02968539E-05
   2.74999999E-03  -6.11567229E-05
   2.79999990E-03  -6.20247229E-05