  -3.99999991E-02   0.00000000    
  -3.99499983E-02   0.00000000    
  -3.99000011E-02   0.00000000    
  -3.98500003E-02   0.00000000    
  -3.97999994E-02   2.59893702E-20
  -3.97499986E-02   2.29588089E-19
  -3.97000015E-02   1.02674186E-18
  -3.96500006E-02   3.05672539E-18
  -3.95999998E-02   6.63444263E-18
  -3.95499989E-02   1.05830480E-17
  -3.95000018E-02   1.09378878E-17
  -3.94500010E-02   6.98288864E-19
  -3.94000001E-02  -2.80510214E-17
  -3.93499993E-02  -7.92735488E-17
  -3.92999984E-02  -1.46983192E-16
  -3.92500013E-02  -2.11788386E-16
  -3.92000005E-02  -2.44153118E-16
  -3.91499996E-02  -2.16160929E-16
  -3.90999988E-02  -1.18503112E-16
  -3.90500017E-02   2.59007290E-17
  -3.90000008E-02   1.62017127E-16
  -3.89500000E-02   2.22327964E-16
  -3.88999991E-02   1.61488777E-16
  -3.88499983E-02  -9.51010212E-18
  -3.88000011E-02  -2.10070299E-16
  -3.87500003E-02  -3.11820251E-16
  -3.86999995E-02  -1.93380269E-16
  -3.86499986E-02   1.93690415E-16
  -3.86000015E-02   7.81824328E-16
  -3.85500006E-02   1.39762024E-15
  -3.84999998E-02   1.83387313E-15
  -3.84499989E-02   1.95964799E-15
  -3.84000018E-02   1.81690558E-15
  -3.83500010E-02   1.64640144E-15
  -3.83000001E-02   1.81080503E-15
  -3.82499993E-02   2.63251868E-15
  -3.81999984E-02   4.21457845E-15
  -3.81500013E-02   6.33657470E-15
  -3.81000005E-02   8.49520344E-15
  -3.80499996E-02   1.00953105E-14
  -3.79999988E-02   1.07197898E-14
  -3.79500017E-02   1.03543501E-14
  -3.79000008E-02   9.44647819E-15
  -3.78500000E-02   8.74327906E-15
  -3.77999991E-02   8.95645523E-15
  -3.77499983E-02   1.03974455E-14
  -3.77000012E-02   1.27614814E-14
  -3.76500003E-02   1.51881749E-14
  -3.75999995E-02   1.66019389E-14
  -3.75499986E-02   1.61939249E-14
  -3.75000015E-02   1.38210019E-14
  -3.74500006E-02   1.01180389E-14
  -3.73999998E-02   6.24561057E-15
  -3.73499990E-02   3.36866507E-15
  -3.73000018E-02   2.09827616E-15
  -3.72500010E-02   2.15779187E-15
  -3.72000001E-02   2.43915102E-15
  -3.71499993E-02   1.43611207E-15
  -3.70999984E-02  -2.13729261E-15
  -3.70500013E-02  -8.82327540E-15
  -3.70000005E-02  -1.82245745E-14
  -3.69499996E-02  -2.92061026E-14
  -3.68999988E-02  -4.03694412E-14
  -3.68500017E-02  -5.05564964E-14
  -3.68000008E-02  -5.91575332E-14
  -3.67500000E-02  -6.61386093E-14
  -3.66999991E-02  -7.18710098E-14
  -3.66499983E-02  -7.69338816E-14
  -3.66000012E-02  -8.20169263E-14
  -3.65500003E-02  -8.79105545E-14
  -3.64999995E-02  -9.54420326E-14
  -3.64499986E-02  -1.05204772E-13
  -3.64000015E-02  -1.17072083E-13
  -3.63500006E-02  -1.29717377E-13
  -3.62999998E-02  -1.40526791E-13
  -3.62499990E-02  -1.46231998E-13
  -3.62000018E-02  -1.44257775E-13
  -3.61500010E-02  -1.34291721E-13
  -3.61000001E-02  -1.19214412E-13
  -3.60499993E-02  -1.04572533E-13
  -3.59999985E-02  -9.63564013E-14
  -3.59500013E-02  -9.77777904E-14
  -3.59000005E-02  -1.06564321E-13
  -3.58499996E-02  -1.14470702E-13
  -3.57999988E-02  -1.09958612E-13
  -3.57500017E-02  -8.34851529E-14
  -3.57000008E-02  -3.32283504E-14
  -3.56500000E-02   3.17620923E-14
  -3.55999991E-02   9.34011372E-14
  -3.55499983E-02   1.31720074E-13
  -3.55000012E-02   1.34871335E-13
  -3.54500003E-02   1.07370649E-13
  -3.53999995E-02   7.17679700E-14
  -3.53499986E-02   6.12871841E-14
  -3.53000015E-02   1.05174279E-13
  -3.52500007E-02   2.12715181E-13
  -3.51999998E-02   3.63886628E-13
  -3.51499990E-02   5.12863298E-13
  -3.51000018E-02   6.05268168E-13
  -3.50500010E-02   6.03186338E-13
  -3.50000001E-02   5.06823804E-13
  -3.49499993E-02   3.61250174E-13
  -3.48999985E-02   2.42054125E-13
  -3.48500013E-02   2.23266406E-13
  -3.48000005E-02   3.40464148E-13
  -3.47499996E-02   5.66688840E-13
  -3.46999988E-02   8.15423358E-13
  -3.46500017E-02   9.73693673E-13
  -3.46000008E-02   9.53747172E-13
  -3.45500000E-02   7.40551771E-13
  -3.44999991E-02   4.10761133E-13
  -3.44499983E-02   1.09174104E-13
  -3.44000012E-02  -1.22680483E-14
  -3.43500003E-02   1.31547808E-13
  -3.42999995E-02   5.06676244E-13
  -3.42499986E-02   9.58793808E-13
  -3.42000015E-02   1.27106572E-12
  -3.41500007E-02   1.26134921E-12
  -3.40999998E-02   8.76493106E-13
  -3.40499990E-02   2.36807915E-13
  -3.40000018E-02  -3.98291182E-13
  -3.39500010E-02  -7.37646869E-13
  -3.39000002E-02  -5.96098691E-13
  -3.38499993E-02   8.72814618E-16
  -3.37999985E-02   8.01419586E-13
  -3.37500013E-02   1.42018342E-12
  -3.37000005E-02   1.50873899E-12
  -3.36499996E-02   9.30480844E-13
  -3.35999988E-02  -1.44919124E-13
  -3.35500017E-02  -1.28403191E-12
  -3.35000008E-02  -1.96603888E-12
  -3.34500000E-02  -1.82409686E-12
  -3.33999991E-02  -8.42502392E-13
  -3.33499983E-02   5.91601800E-13
  -3.33000012E-02   1.82494384E-12
  -3.32500003E-02   2.21992325E-12
  -3.31999995E-02   1.46254504E-12
  -3.31499986E-02  -2.49213708E-13
  -3.31000015E-02  -2.24151600E-12
  -3.30500007E-02  -3.63375150E-12
  -3.29999998E-02  -3.73749556E-12
  -3.29499990E-02  -2.40786189E-12
  -3.29000019E-02  -1.72842480E-13
  -3.28500010E-02   1.94611254E-12
  -3.28000002E-02   2.86976584E-12
  -3.27499993E-02   1.97137640E-12
  -3.26999985E-02  -5.75495923E-13
  -3.26500013E-02  -3.79596138E-12
  -3.26000005E-02  -6.29661601E-12
  -3.25499997E-02  -6.88874652E-12
  -3.24999988E-02  -5.17814090E-12
  -3.24500017E-02  -1.83550375E-12
  -3.24000008E-02   1.61459051E-12
  -3.23500000E-02   3.43404710E-12
  -3.22999991E-02   2.47794688E-12
  -3.22499983E-02  -1.20117349E-12
  -3.22000012E-02  -6.25983944E-12
  -3.21500003E-02  -1.05754416E-11
  -3.20999995E-02  -1.21779210E-11
  -3.20499986E-02  -1.01976327E-11
  -3.20000015E-02  -5.37946944E-12
  -3.19500007E-02   1.22452477E-13
  -3.18999998E-02   3.63924038E-12
  -3.18499990E-02   3.20946438E-12
  -3.18000019E-02  -1.42157044E-12
  -3.17500010E-02  -8.52082554E-12
  -3.17000002E-02  -1.50037014E-11
  -3.16499993E-02  -1.77685869E-11
  -3.15999985E-02  -1.51598456E-11
  -3.15500014E-02  -7.87764992E-12
  -3.15000005E-02   1.14482230E-12
  -3.14499997E-02   7.92907753E-12
  -3.13999988E-02   9.23475272E-12
  -3.13500017E-02   4.14757942E-12
  -3.13000008E-02  -5.29435480E-12
  -3.12500000E-02  -1.48123805E-11
  -3.11999992E-02  -1.97129413E-11
  -3.11500002E-02  -1.70586965E-11
  -3.10999993E-02  -7.19045006E-12
  -3.10500003E-02   6.16953624E-12
  -3.09999995E-02   1.73958035E-11
  -3.09500005E-02   2.14503276E-11
  -3.08999997E-02   1.62942559E-11
  -3.08500007E-02   4.08043564E-12
  -3.07999998E-02  -9.52942586E-12
  -3.07500008E-02  -1.77480235E-11
  -3.07000000E-02  -1.57583304E-11
  -3.06499992E-02  -3.12368664E-12
  -3.06000002E-02   1.56708570E-11
  -3.05499993E-02   3.29409972E-11
  -3.05000003E-02   4.11520262E-11
  -3.04499995E-02   3.64464015E-11
  -3.04000005E-02   2.07116928E-11
  -3.03499997E-02   1.11414155E-12
  -3.03000007E-02  -1.28683366E-11
  -3.02499998E-02  -1.37068768E-11
  -3.02000009E-02   5.22646162E-13
  -3.01500000E-02   2.48400692E-11
  -3.00999992E-02   4.91912309E-11
  -3.00500002E-02   6.27734947E-11
  -2.99999993E-02   5.90122118E-11
  -2.99500003E-02   3.89119362E-11
  -2.98999995E-02   1.11079262E-11
  -2.98500005E-02  -1.16319758E-11
  -2.97999997E-02  -1.80671450E-11
  -2.97500007E-02  -3.81661152E-12
  -2.96999998E-02   2.61391846E-11
  -2.96500009E-02   5.91392907E-11
  -2.96000000E-02   8.02009500E-11
  -2.95499992E-02   7.88076826E-11
  -2.95000002E-02   5.40675976E-11
  -2.94499993E-02   1.57424091E-11
  -2.94000003E-02  -1.95946263E-11
  -2.93499995E-02  -3.57997972E-11
  -2.93000005E-02  -2.46563759E-11
  -2.92499997E-02   9.82995803E-12
  -2.92000007E-02   5.25266289E-11
  -2.91499998E-02   8.34863428E-11
  -2.91000009E-02   8.68735084E-11
  -2.90500000E-02   5.85330742E-11
  -2.89999992E-02   8.61782781E-12
  -2.89500002E-02  -4.22386119E-11
  -2.88999993E-02  -7.18206605E-11
  -2.88500004E-02  -6.64909239E-11
  -2.87999995E-02  -2.79928407E-11
  -2.87500005E-02   2.64424992E-11
  -2.86999997E-02   7.11257928E-11
  -2.86500007E-02   8.32463543E-11
  -2.85999998E-02   5.35360645E-11
  -2.85500009E-02  -8.69419294E-12
  -2.85000000E-02  -7.87863386E-11
  -2.84499992E-02  -1.27213323E-10
  -2.84000002E-02  -1.32884856E-10
  -2.83499993E-02  -9.33119138E-11
  -2.83000004E-02  -2.67775541E-11
  -2.82499995E-02   3.49264610E-11
  -2.82000005E-02   6.03751008E-11
  -2.81499997E-02   3.29787239E-11
  -2.81000007E-02  -4.05729166E-11
  -2.80499998E-02  -1.32096875E-10
  -2.80000009E-02  -2.03663572E-10
  -2.79500000E-02  -2.24443644E-10
  -2.78999992E-02  -1.85195650E-10
  -2.78500002E-02  -1.03623991E-10
  -2.77999993E-02  -1.76712481E-11
  -2.77500004E-02   3.08110100E-11
  -2.76999995E-02   1.50299443E-11
  -2.76500005E-02  -6.36933492E-11
  -2.75999997E-02  -1.75061146E-10
  -2.75500007E-02  -2.72144030E-10
  -2.74999999E-02  -3.11953158E-10
  -2.74500009E-02  -2.75243134E-10
  -2.74000000E-02  -1.76451340E-10
  -2.73499992E-02  -5.87386736E-11
  -2.73000002E-02   2.43389840E-11
  -2.72499993E-02   3.28120101E-11
  -2.72000004E-02  -4.07470550E-11
  -2.71499995E-02  -1.66195432E-10
  -2.71000005E-02  -2.87693341E-10
  -2.70499997E-02  -3.47877921E-10
  -2.70000007E-02  -3.13900822E-10
  -2.69499999E-02  -1.93543431E-10
  -2.69000009E-02  -3.35903493E-11
  -2.68500000E-02   9.96391997E-11
  -2.67999992E-02   1.49570731E-10
  -2.67500002E-02   9.55862889E-11
  -2.66999993E-02  -3.59136124E-11
  -2.66500004E-02  -1.81339443E-10
  -2.65999995E-02  -2.67125627E-10
  -2.65500005E-02  -2.42742493E-10
  -2.64999997E-02  -1.04752061E-10
  -2.64500007E-02   9.94473531E-11
  -2.63999999E-02   2.90814289E-10
  -2.63500009E-02   3.93108768E-10
  -2.63000000E-02   3.67619019E-10
  -2.62499992E-02   2.32398809E-10
  -2.62000002E-02   5.65775482E-11
  -2.61499994E-02  -6.87873231E-11
  -2.61000004E-02  -7.11245715E-11
  -2.60499995E-02   6.98192199E-11
  -2.60000005E-02   3.10378140E-10
  -2.59499997E-02   5.59839175E-10
  -2.59000007E-02   7.19382276E-10
  -2.58499999E-02   7.26389948E-10
  -2.58000009E-02   5.84266469E-10
  -2.57500000E-02   3.63622493E-10
  -2.56999992E-02   1.73054987E-10
  -2.56500002E-02   1.11460889E-10
  -2.55999994E-02   2.22704410E-10
  -2.55500004E-02   4.73278305E-10
  -2.54999995E-02   7.64056596E-10
  -2.54500005E-02   9.72259606E-10
  -2.53999997E-02   1.00590458E-09
  -2.53500007E-02   8.46613724E-10
  -2.52999999E-02   5.60914037E-10
  -2.52500009E-02   2.73599060E-10
  -2.52000000E-02   1.13625324E-10
  -2.51499992E-02   1.55886470E-10
  -2.51000002E-02   3.85035087E-10
  -2.50499994E-02   6.98626879E-10
  -2.50000004E-02   9.49783696E-10
  -2.49499995E-02   1.01170072E-09
  -2.49000005E-02   8.35725711E-10
  -2.48499997E-02   4.76490403E-10
  -2.48000007E-02   7.13992893E-11
  -2.47499999E-02  -2.18100760E-10
  -2.47000009E-02  -2.78467277E-10
  -2.46500000E-02  -9.72386963E-11
  -2.45999992E-02   2.27339675E-10
  -2.45500002E-02   5.26336474E-10
  -2.44999994E-02   6.33701536E-10
  -2.44500004E-02   4.61484323E-10
  -2.43999995E-02   4.27901187E-11
  -2.43500005E-02  -4.78204865E-10
  -2.42999997E-02  -9.06766162E-10
  -2.42500007E-02  -1.08330822E-09
  -2.41999999E-02  -9.56590029E-10
  -2.41500009E-02  -6.10866635E-10
  -2.41000000E-02  -2.32942110E-10
  -2.40499992E-02  -3.16575308E-11
  -2.40000002E-02  -1.44306636E-10
  -2.39499994E-02  -5.71709569E-10
  -2.39000004E-02  -1.17234900E-09
  -2.38499995E-02  -1.72048176E-09
  -2.38000005E-02  -2.00445727E-09
  -2.37499997E-02  -1.92242000E-09
  -2.37000007E-02  -1.53211654E-09
  -2.36499999E-02  -1.03059472E-09
  -2.36000009E-02  -6.70302314E-10
  -2.35500000E-02  -6.47036313E-10
  -2.34999992E-02  -1.00922770E-09
  -2.34500002E-02  -1.63028480E-09
  -2.33999994E-02  -2.25882935E-09
  -2.33500004E-02  -2.62707656E-09
  -2.32999995E-02  -2.57064547E-09
  -2.32500006E-02  -2.10619322E-09
  -2.31999997E-02  -1.43031165E-09
  -2.31500007E-02  -8.37295400E-10
  -2.30999999E-02  -5.89889304E-10
  -2.30500009E-02  -7.99583177E-10
  -2.30000000E-02  -1.37077982E-09
  -2.29499992E-02  -2.03632733E-09
  -2.29000002E-02  -2.47170062E-09
  -2.28499994E-02  -2.43917775E-09
  -2.28000004E-02  -1.89808036E-09
  -2.27499995E-02  -1.03016440E-09
  -2.27000006E-02  -1.65671699E-10
  -2.26499997E-02   3.60144942E-10
  -2.26000007E-02   3.57803204E-10
  -2.25499999E-02  -1.26043467E-10
  -2.25000009E-02  -8.21526236E-10
  -2.24500000E-02  -1.34957290E-09
  -2.23999992E-02  -1.38915435E-09
  -2.23500002E-02  -8.24229185E-10
  -2.22999994E-02   1.96551123E-10
  -2.22500004E-02   1.31730660E-09
  -2.21999995E-02   2.12769757E-09
  -2.21500006E-02   2.34540587E-09
  -2.20999997E-02   1.94710137E-09
  -2.20500007E-02   1.18711418E-09
  -2.19999999E-02   4.91598373E-10
  -2.19500009E-02   2.71690725E-10
  -2.19000001E-02   7.37152950E-10
  -2.18499992E-02   1.79450776E-09
  -2.18000002E-02   3.07839998E-09
  -2.17499994E-02   4.10646983E-09
  -2.17000004E-02   4.49203830E-09
  -2.16499995E-02   4.12066115E-09
  -2.16000006E-02   3.20981819E-09
  -2.15499997E-02   2.22103047E-09
  -2.15000007E-02   1.65922187E-09
  -2.14499999E-02   1.84608284E-09
  -2.14000009E-02   2.76872614E-09
  -2.13500001E-02   4.07423162E-09
  -2.12999992E-02   5.21718801E-09
  -2.12500002E-02   5.69861358E-09
  -2.11999994E-02   5.29149657E-09
  -2.11500004E-02   4.15092982E-09
  -2.10999995E-02   2.75562262E-09
  -2.10500006E-02   1.70189862E-09
  -2.09999997E-02   1.43844203E-09
  -2.09500007E-02   2.05945572E-09
  -2.08999999E-02   3.25122151E-09
  -2.08500009E-02   4.42083037E-09
  -2.08000001E-02   4.95462826E-09
  -2.07499992E-02   4.49388882E-09
  -2.07000002E-02   3.10406612E-09
  -2.06499994E-02   1.25820987E-09
  -2.06000004E-02  -3.63527985E-10
  -2.05499995E-02  -1.17343979E-09
  -2.05000006E-02  -9.42884326E-10
  -2.04499997E-02   8.50564549E-11
  -2.04000007E-02   1.29209787E-09
  -2.03499999E-02   1.95305372E-09
  -2.03000009E-02   1.56005320E-09
  -2.02500001E-02   5.82979359E-11
  -2.01999992E-02  -2.11532614E-09
  -2.01500002E-02  -4.21376400E-09
  -2.00999994E-02  -5.50592860E-09
  -2.00500004E-02  -5.60470026E-09
  -1.99999996E-02  -4.64918237E-09
  -1.99500006E-02  -3.25513549E-09
  -1.98999997E-02  -2.24949703E-09
  -1.98500007E-02  -2.30256414E-09
  -1.97999999E-02  -3.62059405E-09
  -1.97500009E-02  -5.83883253E-09
  -1.97000001E-02  -8.16850143E-09
  -1.96499992E-02  -9.73842074E-09
  -1.96000002E-02  -9.98275151E-09
  -1.95499994E-02  -8.90163054E-09
  -1.95000004E-02  -7.07408265E-09
  -1.94499996E-02  -5.41094680E-09
  -1.94000006E-02  -4.75223905E-09
  -1.93499997E-02  -5.48607160E-09
  -1.93000007E-02  -7.36112149E-09
  -1.92499999E-02  -9.58197521E-09
  -1.92000009E-02  -1.11516423E-08
  -1.91500001E-02  -1.13134249E-08
  -1.90999992E-02  -9.89588944E-09
  -1.90500002E-02  -7.40342321E-09
  -1.89999994E-02  -4.80530549E-09
  -1.89500004E-02  -3.11074455E-09
  -1.88999996E-02  -2.91575408E-09
  -1.88500006E-02  -4.12493595E-09
  -1.87999997E-02  -5.97745720E-09
  -1.87500007E-02  -7.37291739E-09
  -1.86999999E-02  -7.35777128E-09
  -1.86500009E-02  -5.55743274E-09
  -1.86000001E-02  -2.35864150E-09
  -1.85499992E-02   1.24577026E-09
  -1.85000002E-02   4.08781275E-09
  -1.84499994E-02   5.34359446E-09
  -1.84000004E-02   4.90965402E-09
  -1.83499996E-02   3.46395046E-09
  -1.83000006E-02   2.17693796E-09
  -1.82499997E-02   2.19469198E-09
  -1.82000007E-02   4.12117762E-09
  -1.81499999E-02   7.73221132E-09
  -1.81000009E-02   1.20547599E-08
  -1.80500001E-02   1.57840390E-08
  -1.79999992E-02   1.78583388E-08
  -1.79500002E-02   1.79369426E-08
  -1.78999994E-02   1.65644405E-08
  -1.78500004E-02   1.49408539E-08
  -1.77999996E-02   1.43925662E-08
  -1.77500006E-02   1.57752353E-08
  -1.76999997E-02   1.90752782E-08
  -1.76500008E-02   2.33930830E-08
  -1.75999999E-02   2.73233738E-08
  -1.75500009E-02   2.95701028E-08
  -1.75000001E-02   2.95245570E-08
  -1.74499992E-02   2.75466085E-08
  -1.74000002E-02   2.48169698E-08
  -1.73499994E-02   2.28180923E-08
  -1.73000004E-02   2.26694024E-08
  -1.72499996E-02   2.46123015E-08
  -1.72000006E-02   2.78789436E-08
  -1.71499997E-02   3.10111652E-08
  -1.71000008E-02   3.24953042E-08
  -1.70499999E-02   3.14340376E-08
  -1.70000009E-02   2.79547638E-08
  -1.69500001E-02   2.31660771E-08
  -1.68999992E-02   1.86736866E-08
  -1.68500002E-02   1.58648650E-08
  -1.67999994E-02   1.52774753E-08
  -1.67500004E-02   1.63385963E-08
  -1.66999996E-02   1.75965695E-08
  -1.66500006E-02   1.73514607E-08
  -1.65999997E-02   1.44084211E-08
  -1.65500008E-02   8.61837179E-09
  -1.64999999E-02   9.59596402E-10
  -1.64500009E-02  -6.88405599E-09
  -1.64000001E-02  -1.32680906E-08
  -1.63499992E-02  -1.73277304E-08
  -1.63000003E-02  -1.93807281E-08
  -1.62499994E-02  -2.08070414E-08
  -1.62000004E-02  -2.34504718E-08
  -1.61499996E-02  -2.88014110E-08
  -1.61000006E-02  -3.73239679E-08
  -1.60499997E-02  -4.82314277E-08
  -1.60000008E-02  -5.98179000E-08
  -1.59499999E-02  -7.02066458E-08
  -1.59000009E-02  -7.81863605E-08
  -1.58500001E-02  -8.37624725E-08
  -1.57999992E-02  -8.81720013E-08
  -1.57500003E-02  -9.33468698E-08
  -1.56999994E-02  -1.01056571E-07
  -1.56500004E-02  -1.12110136E-07
  -1.55999996E-02  -1.25975831E-07
  -1.55499997E-02  -1.40994246E-07
  -1.54999997E-02  -1.55099812E-07
  -1.54499998E-02  -1.66734822E-07
  -1.53999999E-02  -1.75549587E-07
  -1.53500000E-02  -1.82571441E-07
  -1.53000001E-02  -1.89760243E-07
  -1.52500002E-02  -1.99139123E-07
  -1.52000003E-02  -2.11884071E-07
  -1.51500003E-02  -2.27779225E-07
  -1.51000004E-02  -2.45287765E-07
  -1.50499996E-02  -2.62214940E-07
  -1.49999997E-02  -2.76673802E-07
  -1.49499997E-02  -2.87928316E-07
  -1.48999998E-02  -2.96731997E-07
  -1.48499999E-02  -3.05005045E-07
  -1.48000000E-02  -3.14984703E-07
  -1.47500001E-02  -3.28221631E-07
  -1.47000002E-02  -3.44871211E-07
  -1.46500003E-02  -3.63599071E-07
  -1.46000003E-02  -3.82153075E-07
  -1.45500004E-02  -3.98353336E-07
  -1.44999996E-02  -4.11063667E-07
  -1.44499997E-02  -4.20709824E-07
  -1.43999998E-02  -4.29103665E-07
  -1.43499998E-02  -4.38646055E-07
  -1.42999999E-02  -4.51257506E-07
  -1.42500000E-02  -4.67511200E-07
  -1.42000001E-02  -4.86355930E-07
  -1.41500002E-02  -5.05563662E-07
  -1.41000003E-02  -5.22712298E-07
  -1.40500003E-02  -5.36264679E-07
  -1.40000004E-02  -5.46266165E-07
  -1.39499996E-02  -5.54342876E-07
  -1.38999997E-02  -5.62994956E-07
  -1.38499998E-02  -5.74489377E-07
  -1.37999998E-02  -5.89845399E-07
  -1.37499999E-02  -6.08367259E-07
  -1.37000000E-02  -6.27937766E-07
  -1.36500001E-02  -6.45954685E-07
  -1.36000002E-02  -6.60495516E-07
  -1.35500003E-02  -6.71189980E-07
  -1.35000004E-02  -6.79406469E-07
  -1.34500004E-02  -6.87669342E-07
  -1.33999996E-02  -6.98547865E-07
  -1.33499997E-02  -7.13515249E-07
  -1.32999998E-02  -7.32291312E-07
  -1.32499998E-02  -7.52955657E-07
  -1.31999999E-02  -7.72800490E-07
  -1.31500000E-02  -7.89547585E-07
  -1.31000001E-02  -8.02382317E-07
  -1.30500002E-02  -8.12342705E-07
  -1.30000003E-02  -8.21887397E-07
  -1.29500004E-02  -8.33824572E-07
  -1.29000004E-02  -8.50070819E-07
  -1.28499996E-02  -8.70800591E-07
  -1.27999997E-02  -8.94366508E-07
  -1.27499998E-02  -9.18032583E-07
  -1.26999998E-02  -9.39203346E-07
  -1.26499999E-02  -9.56602207E-07
  -1.26000000E-02  -9.70873089E-07
  -1.25500001E-02  -9.84326334E-07
  -1.25000002E-02  -9.99935082E-07
  -1.24500003E-02  -1.02002878E-06
  -1.24000004E-02  -1.04526725E-06
  -1.23500004E-02  -1.07434391E-06
  -1.22999996E-02  -1.10457245E-06
  -1.22499997E-02  -1.13309864E-06
  -1.21999998E-02  -1.15818875E-06
  -1.21499998E-02  -1.18003015E-06
  -1.20999999E-02  -1.20067966E-06
  -1.20500000E-02  -1.22317783E-06
  -1.20000001E-02  -1.25021700E-06
  -1.19500002E-02  -1.28294494E-06
  -1.19000003E-02  -1.32045693E-06
  -1.18500004E-02  -1.36020526E-06
  -1.18000004E-02  -1.39913891E-06
  -1.17499996E-02  -1.43508737E-06
  -1.16999997E-02  -1.46775164E-06
  -1.16499998E-02  -1.49886500E-06
  -1.15999999E-02  -1.53145152E-06
  -1.15499999E-02  -1.56850342E-06
  -1.15000000E-02  -1.61165349E-06
  -1.14500001E-02  -1.66044424E-06
  -1.14000002E-02  -1.71253396E-06
  -1.13500003E-02  -1.76474941E-06
  -1.13000004E-02  -1.81451173E-06
  -1.12500004E-02  -1.86100237E-06
  -1.11999996E-02  -1.90556159E-06
  -1.11499997E-02  -1.95110329E-06
  -1.10999998E-02  -2.00084014E-06
  -1.10499999E-02  -2.05686638E-06
  -1.09999999E-02  -2.11921383E-06
  -1.09500000E-02  -2.18584614E-06
  -1.09000001E-02  -2.25356484E-06
  -1.08500002E-02  -2.31945637E-06
  -1.08000003E-02  -2.38220991E-06
  -1.07500004E-02  -2.44270859E-06
  -1.07000005E-02  -2.50367066E-06
  -1.06499996E-02  -2.56846397E-06
  -1.05999997E-02  -2.63960101E-06
  -1.05499998E-02  -2.71761473E-06
  -1.04999999E-02  -2.80083168E-06
  -1.04499999E-02  -2.88612887E-06
  -1.04000000E-02  -2.97031534E-06
  -1.03500001E-02  -3.05158369E-06
  -1.03000002E-02  -3.13034388E-06
  -1.02500003E-02  -3.20904473E-06
  -1.02000004E-02  -3.29111322E-06
  -1.01500005E-02  -3.37944357E-06
  -1.00999996E-02  -3.47510058E-06
  -1.00499997E-02  -3.57684144E-06
  -9.99999978E-03  -3.68170367E-06
  -9.94999986E-03  -3.78633354E-06
  -9.89999995E-03  -3.88848093E-06
  -9.85000003E-03  -3.98804832E-06
  -9.80000012E-03  -4.08717278E-06
  -9.75000020E-03  -4.18927584E-06
  -9.70000029E-03  -4.29757210E-06
  -9.65000037E-03  -4.41365364E-06
  -9.60000046E-03  -4.53678149E-06
  -9.54999961E-03  -4.66423626E-06
  -9.49999969E-03  -4.79255050E-06
  -9.44999978E-03  -4.91910578E-06
  -9.39999986E-03  -5.04333048E-06
  -9.34999995E-03  -5.16695854E-06
  -9.30000003E-03  -5.29331237E-06
  -9.25000012E-03  -5.42583030E-06
  -9.20000020E-03  -5.56656278E-06
  -9.15000029E-03  -5.71528426E-06
  -9.10000037E-03  -5.86960959E-06
  -9.05000046E-03  -6.02610498E-06
  -8.99999961E-03  -6.18183185E-06
  -8.94999970E-03  -6.33571108E-06
  -8.89999978E-03  -6.48907144E-06
  -8.84999987E-03  -6.64506388E-06
  -8.79999995E-03  -6.80729408E-06
  -8.75000004E-03  -6.97826317E-06
  -8.70000012E-03  -7.15828355E-06
  -8.65000021E-03  -7.34538617E-06
  -8.60000029E-03  -7.53621907E-06
  -8.55000038E-03  -7.72761177E-06
  -8.50000046E-03  -7.91803814E-06
  -8.44999962E-03  -8.10832262E-06
  -8.39999970E-03  -8.30134923E-06
  -8.34999979E-03  -8.50085053E-06
  -8.29999987E-03  -8.70976055E-06
  -8.24999996E-03  -8.92889329E-06
  -8.20000004E-03  -9.15668716E-06
  -8.15000013E-03  -9.38996345E-06
  -8.10000021E-03  -9.62534432E-06
  -8.05000030E-03  -9.86084160E-06
  -8.00000038E-03  -1.00967973E-05
  -7.95000046E-03  -1.03357806E-05
  -7.89999962E-03  -1.05814634E-05
  -7.84999970E-03  -1.08370605E-05
  -7.79999979E-03  -1.11039835E-05
  -7.74999987E-03  -1.13811784E-05
  -7.69999996E-03  -1.16656693E-05
  -7.65000004E-03  -1.19539754E-05
  -7.60000013E-03  -1.22437241E-05
  -7.55000021E-03  -1.25347542E-05
  -7.49999983E-03  -1.28292049E-05
  -7.44999992E-03  -1.31306688E-05
  -7.40000000E-03  -1.34426655E-05
  -7.35000009E-03  -1.37670877E-05
  -7.30000017E-03  -1.41033324E-05
  -7.24999979E-03  -1.44487067E-05
  -7.19999988E-03  -1.47997607E-05
  -7.14999996E-03  -1.51537706E-05
  -7.10000005E-03  -1.55100261E-05
  -7.05000013E-03  -1.58702569E-05
  -7.00000022E-03  -1.62378710E-05
  -6.94999984E-03  -1.66165300E-05
  -6.89999992E-03  -1.70084750E-05
  -6.85000001E-03  -1.74136676E-05
  -6.80000009E-03  -1.78299251E-05
  -6.75000018E-03  -1.82537151E-05
  -6.69999979E-03  -1.86819780E-05
  -6.64999988E-03  -1.91135859E-05
  -6.59999996E-03  -1.95498051E-05
  -6.55000005E-03  -1.99937385E-05
  -6.50000013E-03  -2.04490389E-05
  -6.45000022E-03  -2.09183509E-05
  -6.39999984E-03  -2.14022257E-05
  -6.34999992E-03  -2.18988753E-05
  -6.30000001E-03  -2.24050327E-05
  -6.25000009E-03  -2.29174693E-05
  -6.20000018E-03  -2.34345098E-05
  -6.14999980E-03  -2.39569144E-05
  -6.09999988E-03  -2.44874409E-05
  -6.04999997E-03  -2.50297780E-05
  -6.00000005E-03  -2.55870000E-05
  -5.95000014E-03  -2.61600908E-05
  -5.90000022E-03  -2.67476207E-05
  -5.84999984E-03  -2.73464830E-05
  -5.79999993E-03  -2.79533433E-05
  -5.75000001E-03  -2.85663573E-05
  -5.70000010E-03  -2.91858032E-05
  -5.65000018E-03  -2.98140367E-05
  -5.59999980E-03  -3.04546174E-05
  -5.54999989E-03  -3.11106560E-05
  -5.49999997E-03  -3.17836057E-05
  -5.45000006E-03  -3.24727080E-05
  -5.40000014E-03  -3.31752381E-05
  -5.35000023E-03  -3.38879654E-05
  -5.29999984E-03  -3.46086490E-05
  -5.24999993E-03  -3.53369542E-05
  -5.20000001E-03  -3.60747254E-05
  -5.15000010E-03  -3.68253241E-05
  -5.10000018E-03  -3.75921118E-05
  -5.04999980E-03  -3.83770566E-05
  -4.99999989E-03  -3.91800168E-05
  -4.94999997E-03  -3.99987875E-05
  -4.90000006E-03  -4.08300984E-05
  -4.85000014E-03  -4.16713920E-05
  -4.80000023E-03  -4.25219150E-05
  -4.74999985E-03  -4.33829518E-05
  -4.69999993E-03  -4.42576566E-05
  -4.65000002E-03  -4.51495107E-05
  -4.60000010E-03  -4.60608098E-05
  -4.55000019E-03  -4.69919323E-05
  -4.49999981E-03  -4.79412483E-05
  -4.44999989E-03  -4.89059021E-05
  -4.39999998E-03  -4.98831323E-05
  -4.35000006E-03  -5.08714620E-05
  -4.30000015E-03  -5.18716297E-05
  -4.25000023E-03  -5.28862183E-05
  -4.19999985E-03  -5.39185530E-05
  -4.14999994E-03  -5.49715405E-05
  -4.10000002E-03  -5.60463632E-05
  -4.05000011E-03  -5.71421260E-05
  -4.00000019E-03  -5.82561988E-05
  -3.94999981E-03  -5.93856093E-05
  -3.89999989E-03  -6.05282730E-05
  -3.84999998E-03  -6.16843899E-05
  -3.80000006E-03  -6.28561102E-05
  -3.74999992E-03  -6.40464059E-05
  -3.70000000E-03  -6.52585732E-05
  -3.65000009E-03  -6.64945110E-05
  -3.59999994E-03  -6.77541757E-05
  -3.55000002E-03  -6.90353772E-05
  -3.50000011E-03  -7.03348414E-05
  -3.44999996E-03  -7.16502254E-05
  -3.40000005E-03  -7.29809472E-05
  -3.34999990E-03  -7.43285345E-05
  -3.29999998E-03  -7.56955778E-05
  -3.25000007E-03  -7.70853876E-05
  -3.19999992E-03  -7.85003722E-05
  -3.15000000E-03  -7.99409754E-05
  -3.10000009E-03  -8.14060841E-05
  -3.04999994E-03  -8.28928678E-05
  -3.00000003E-03  -8.43984963E-05
  -2.95000011E-03  -8.59215288E-05
  -2.89999996E-03  -8.74624820E-05
  -2.85000005E-03  -8.90237861E-05
  -2.79999990E-03  -9.06087662E-05
  -2.74999999E-03  -9.22202089E-05
  -2.70000007E-03  -9.38592566E-05
  -2.64999992E-03  -9.55253345E-05
  -2.60000001E-03  -9.72160342E-05
  -2.55000009E-03  -9.89281471E-05
  -2.49999994E-03  -1.00659716E-04
  -2.45000003E-03  -1.02410522E-04
  -2.40000011E-03  -1.04182516E-04
  -2.34999997E-03  -1.05978659E-04
  -2.30000005E-03  -1.07802261E-04
  -2.24999990E-03  -1.09655404E-04
  -2.19999999E-03  -1.11537811E-04
  -2.15000007E-03  -1.13448004E-04
  -2.09999993E-03  -1.15383154E-04
  -2.05000001E-03  -1.17339878E-04
  -2.00000009E-03  -1.19316348E-04
  -1.94999995E-03  -1.21313264E-04
  -1.90000003E-03  -1.23333695E-04
  -1.85000000E-03  -1.25380990E-04
  -1.79999997E-03  -1.27458276E-04
  -1.75000005E-03  -1.29567095E-04
  -1.70000002E-03  -1.31706067E-04
  -1.64999999E-03  -1.33872978E-04
  -1.59999996E-03  -1.36064569E-04
  -1.55000004E-03  -1.38277785E-04
  -1.50000001E-03  -1.40511867E-04
  -1.44999998E-03  -1.42768564E-04
  -1.39999995E-03  -1.45050682E-04
  -1.35000004E-03  -1.47361541E-04
  -1.30000000E-03  -1.49703992E-04
  -1.24999997E-03  -1.52078443E-04
  -1.20000006E-03  -1.54483132E-04
  -1.15000003E-03  -1.56915135E-04
  -1.09999999E-03  -1.59370786E-04
  -1.04999996E-03  -1.61847143E-04
  -1.00000005E-03  -1.64344267E-04
  -9.50000016E-04  -1.66864804E-04
  -8.99999985E-04  -1.69412742E-04
  -8.50000011E-04  -1.71991822E-04
  -7.99999980E-04  -1.74603818E-04
  -7.50000007E-04  -1.77247872E-04
  -6.99999975E-04  -1.79920840E-04
  -6.50000002E-04  -1.82618125E-04
  -6.00000028E-04  -1.85335433E-04
  -5.49999997E-04  -1.88071514E-04
  -5.00000024E-04  -1.90828330E-04
  -4.49999992E-04  -1.93610627E-04
  -3.99999990E-04  -1.96422392E-04
  -3.49999988E-04  -1.99266127E-04
  -3.00000014E-04  -2.02142750E-04
  -2.50000012E-04  -2.05050092E-04
  -1.99999995E-04  -2.07982637E-04
  -1.50000007E-04  -2.10934319E-04
  -9.99999975E-05  -2.13901614E-04
  -4.99999987E-05  -2.16884917E-04
   0.00000000      -2.19889596E-04
   4.99999987E-05  -2.22921313E-04
   9.99999975E-05  -2.25984913E-04
   1.50000007E-04  -2.29082798E-04
   1.99999995E-04  -2.32212173E-04
   2.50000012E-04  -2.35367057E-04
   3.00000014E-04  -2.38539244E-04
   3.49999988E-04  -2.41722359E-04
   3.99999990E-04  -2.44914787E-04
   4.49999992E-04  -2.48121563E-04
   5.00000024E-04  -2.51350953E-04
   5.49999997E-04  -2.54609011E-04
   6.00000028E-04  -2.57900334E-04
   6.50000002E-04  -2.61224457E-04
   6.99999975E-04  -2.64575123E-04
   7.50000007E-04  -2.67941854E-04
   7.99999980E-04  -2.71314319E-04
   8.50000011E-04  -2.74690130E-04
   8.99999985E-04  -2.78073421E-04
   9.50000016E-04  -2.81471497E-04
   1.00000005E-03  -2.84893584E-04
   1.04999996E-03  -2.88345269E-04
   1.09999999E-03  -2.91825825E-04
   1.15000003E-03  -2.95330276E-04
   1.20000006E-03  -2.98848958E-04
   1.24999997E-03  -3.02371540E-04
   1.30000000E-03  -3.05893627E-04
   1.35000004E-03  -3.09416675E-04
   1.39999995E-03  -3.12946504E-04
   1.44999998E-03  -3.16490798E-04
   1.50000001E-03  -3.20057035E-04
   1.55000004E-03  -3.23647459E-04
   1.59999996E-03  -3.27257498E-04
   1.64999999E-03  -3.30878684E-04
   1.70000002E-03  -3.34499869E-04
   1.75000005E-03  -3.38113634E-04
   1.79999997E-03  -3.41718871E-04
   1.85000000E-03  -3.45320674E-04
   1.90000003E-03  -3.48927977E-04
   1.94999995E-03  -3.52550385E-04
   2.00000009E-03  -3.56191536E-04
   2.05000001E-03  -3.59848025E-04
   2.09999993E-03  -3.63512343E-04
   2.15000007E-03  -3.67172121E-04
   2.19999999E-03  -3.70815949E-04
   2.24999990E-03  -3.74440744E-04
   2.30000005E-03  -3.78048746E-04
   2.34999997E-03  -3.81648511E-04
   2.40000011E-03  -3.85252177E-04
   2.45000003E-03  -3.88866756E-04
   2.49999994E-03  -3.92491376E-04
   2.55000009E-03  -3.96118528E-04
   2.60000001E-03  -3.99737095E-04
   2.64999992E-03  -4.03334008E-04
   2.70000007E-03  -4.06898995E-04
   2.74999999E-03  -4.10430861E-04
   2.79999990E-03  -4.13940230E-04