  -3.99999991E-02   0.00000000    
  -3.99499983E-02   0.00000000    
  -3.99000011E-02   0.00000000    
  -3.98500003E-02   0.00000000    
  -3.97999994E-02   7.80440462E-19
  -3.97499986E-02   6.90598576E-18
  -3.97000015E-02   3.09608012E-17
  -3.96500006E-02   9.25192714E-17
  -3.95999998E-02   2.02026358E-16
  -3.95499989E-02   3.25915514E-16
  -3.95000018E-02   3.47003061E-16
  -3.94500010E-02   5.44855498E-17
  -3.94000001E-02  -7.97459073E-16
  -3.93499993E-02  -2.35051601E-15
  -3.92999984E-02  -4.46790313E-15
  -3.92500013E-02  -6.62970274E-15
  -3.92000005E-02  -8.01746585E-15
  -3.91499996E-02  -7.84007597E-15
  -3.90999988E-02  -5.80992392E-15
  -3.90500017E-02  -2.52960651E-15
  -3.90000008E-02   4.99068160E-16
  -3.89500000E-02   1.40316069E-15
  -3.88999991E-02  -1.12041495E-15
  -3.88499983E-02  -6.87523345E-15
  -3.88000011E-02  -1.37977152E-14
  -3.87500003E-02  -1.85283426E-14
  -3.86999995E-02  -1.78549395E-14
  -3.86499986E-02  -1.04443279E-14
  -3.86000015E-02   2.03364691E-15
  -3.85500006E-02   1.51714104E-14
  -3.84999998E-02   2.36804747E-14
  -3.84499989E-02   2.42041986E-14
  -3.84000018E-02   1.77597788E-14
  -3.83500010E-02   1.03703184E-14
  -3.83000001E-02   1.11238584E-14
  -3.82499993E-02   2.81563594E-14
  -3.81999984E-02   6.42977764E-14
  -3.81500013E-02   1.14630446E-13
  -3.81000005E-02   1.67572987E-13
  -3.80499996E-02   2.09499546E-13
  -3.79999988E-02   2.31066333E-13
  -3.79500017E-02   2.32284190E-13
  -3.79000008E-02   2.23612009E-13
  -3.78500000E-02   2.21997998E-13
  -3.77999991E-02   2.43207879E-13
  -3.77499983E-02   2.93830525E-13
  -3.77000012E-02   3.66935784E-13
  -3.76500003E-02   4.43962060E-13
  -3.75999995E-02   5.02502337E-13
  -3.75499986E-02   5.26608325E-13
  -3.75000015E-02   5.14670392E-13
  -3.74500006E-02   4.80822576E-13
  -3.73999998E-02   4.48853492E-13
  -3.73499990E-02   4.41276139E-13
  -3.73000018E-02   4.68654683E-13
  -3.72500010E-02   5.24234464E-13
  -3.72000001E-02   5.86394865E-13
  -3.71499993E-02   6.27671580E-13
  -3.70999984E-02   6.25944717E-13
  -3.70500013E-02   5.72490135E-13
  -3.70000005E-02   4.73435364E-13
  -3.69499996E-02   3.44807706E-13
  -3.68999988E-02   2.04757882E-13
  -3.68500017E-02   6.76324841E-14
  -3.68000008E-02  -5.73404713E-14
  -3.67500000E-02  -1.63675050E-13
  -3.66999991E-02  -2.45396964E-13
  -3.66499983E-02  -2.98737272E-13
  -3.66000012E-02  -3.28217000E-13
  -3.65500003E-02  -3.53054310E-13
  -3.64999995E-02  -4.07276697E-13
  -3.64499986E-02  -5.28760358E-13
  -3.64000015E-02  -7.38607472E-13
  -3.63500006E-02  -1.01989532E-12
  -3.62999998E-02  -1.30926097E-12
  -3.62499990E-02  -1.51205632E-12
  -3.62000018E-02  -1.54120651E-12
  -3.61500010E-02  -1.36547653E-12
  -3.61000001E-02  -1.04234514E-12
  -3.60499993E-02  -7.11772763E-13
  -3.59999985E-02  -5.42676798E-13
  -3.59500013E-02  -6.48688731E-13
  -3.59000005E-02  -1.01168618E-12
  -3.58499996E-02  -1.45728460E-12
  -3.57999988E-02  -1.70890038E-12
  -3.57500017E-02  -1.51047512E-12
  -3.57000008E-02  -7.68324803E-13
  -3.56500000E-02   3.59365857E-13
  -3.55999991E-02   1.48535763E-12
  -3.55499983E-02   2.14214323E-12
  -3.55000012E-02   2.00654706E-12
  -3.54500003E-02   1.09877992E-12
  -3.53999995E-02  -1.53873238E-13
  -3.53499986E-02  -1.05064579E-12
  -3.53000015E-02  -9.19901850E-13
  -3.52500007E-02   5.30878184E-13
  -3.51999998E-02   2.98753687E-12
  -3.51499990E-02   5.56336097E-12
  -3.51000018E-02   7.12649384E-12
  -3.50500010E-02   6.80919947E-12
  -3.50000001E-02   4.47595129E-12
  -3.49499993E-02   9.09170688E-13
  -3.48999985E-02  -2.42781489E-12
  -3.48500013E-02  -4.00274302E-12
  -3.48000005E-02  -2.95806131E-12
  -3.47499996E-02   3.62141523E-13
  -3.46999988E-02   4.39730544E-12
  -3.46500017E-02   6.95376569E-12
  -3.46000008E-02   6.18805224E-12
  -3.45500000E-02   1.56372506E-12
  -3.44999991E-02  -5.69416042E-12
  -3.44499983E-02  -1.29432194E-11
  -3.44000012E-02  -1.72108491E-11
  -3.43500003E-02  -1.65946805E-11
  -3.42999995E-02  -1.13329589E-11
  -3.42499986E-02  -3.97523594E-12
  -3.42000015E-02   1.55187159E-12
  -3.41500007E-02   1.67465998E-12
  -3.40999998E-02  -5.04216243E-12
  -3.40499990E-02  -1.69186002E-11
  -3.40000018E-02  -2.95711788E-11
  -3.39500010E-02  -3.76886682E-11
  -3.39000002E-02  -3.74780172E-11
  -3.38499993E-02  -2.86738445E-11
  -3.37999985E-02  -1.50819253E-11
  -3.37500013E-02  -3.21505583E-12
  -3.37000005E-02   5.46407158E-13
  -3.36499996E-02  -6.93060323E-12
  -3.35999988E-02  -2.36168862E-11
  -3.35500017E-02  -4.26728965E-11
  -3.35000008E-02  -5.51614622E-11
  -3.34500000E-02  -5.40847957E-11
  -3.33999991E-02  -3.79519506E-11
  -3.33499983E-02  -1.21075311E-11
  -3.33000012E-02   1.30651904E-11
  -3.32500003E-02   2.65470840E-11
  -3.31999995E-02   2.18638128E-11
  -3.31499986E-02   6.47785807E-13
  -3.31000015E-02  -2.72922310E-11
  -3.30500007E-02  -4.77905319E-11
  -3.29999998E-02  -4.86101819E-11
  -3.29499990E-02  -2.54481592E-11
  -3.29000019E-02   1.52297445E-11
  -3.28500010E-02   5.81896580E-11
  -3.28000002E-02   8.57894658E-11
  -3.27499993E-02   8.60960123E-11
  -3.26999985E-02   5.90694924E-11
  -3.26500013E-02   1.76919850E-11
  -3.26000005E-02  -1.69736447E-11
  -3.25499997E-02  -2.50171724E-11
  -3.24999988E-02   2.77416176E-12
  -3.24500017E-02   5.95538827E-11
  -3.24000008E-02   1.24156616E-10
  -3.23500000E-02   1.69756459E-10
  -3.22999991E-02   1.75966186E-10
  -3.22499983E-02   1.38963216E-10
  -3.22000012E-02   7.46881793E-11
  -3.21500003E-02   1.30068491E-11
  -3.20999995E-02  -1.51838368E-11
  -3.20499986E-02   7.57669535E-12
  -3.20000015E-02   7.59601340E-11
  -3.19500007E-02   1.62446889E-10
  -3.18999998E-02   2.28417465E-10
  -3.18499990E-02   2.41380027E-10
  -3.18000019E-02   1.90730931E-10
  -3.17500010E-02   9.45183237E-11
  -3.17000002E-02  -6.69445532E-12
  -3.16499993E-02  -6.70163994E-11
  -3.15999985E-02  -5.62818854E-11
  -3.15500014E-02   2.45944393E-11
  -3.15000005E-02   1.41595971E-10
  -3.14499997E-02   2.40889531E-10
  -3.13999988E-02   2.72372958E-10
  -3.13500017E-02   2.13256551E-10
  -3.13000008E-02   8.06684372E-11
  -3.12500000E-02  -7.34080158E-11
  -3.11999992E-02  -1.83794938E-10
  -3.11500002E-02  -2.01481193E-10
  -3.10999993E-02  -1.17554230E-10
  -3.10500003E-02   2.98288581E-11
  -3.09999995E-02   1.69872880E-10
  -3.09500005E-02   2.29759767E-10
  -3.08999997E-02   1.68329822E-10
  -3.08500007E-02  -2.61755483E-12
  -3.07999998E-02  -2.20145721E-10
  -3.07500008E-02  -3.95844940E-10
  -3.07000000E-02  -4.55026378E-10
  -3.06499992E-02  -3.72164355E-10
  -3.06000002E-02  -1.85906596E-10
  -3.05499993E-02   1.46385629E-11
  -3.05000003E-02   1.27847191E-10
  -3.04499995E-02   8.57473745E-11
  -3.04000005E-02  -1.12427199E-10
  -3.03499997E-02  -3.95611544E-10
  -3.03000007E-02  -6.49158838E-10
  -3.02499998E-02  -7.64950991E-10
  -3.02000009E-02  -6.91567192E-10
  -3.01500000E-02  -4.61347821E-10
  -3.00999992E-02  -1.80455581E-10
  -3.00500002E-02   1.57142268E-11
  -2.99999993E-02   2.32870060E-11
  -2.99500003E-02  -1.80219228E-10
  -2.98999995E-02  -5.20528676E-10
  -2.98500005E-02  -8.54854909E-10
  -2.97999997E-02  -1.03330844E-09
  -2.97500007E-02  -9.67141367E-10
  -2.96999998E-02  -6.72852218E-10
  -2.96500009E-02  -2.70513223E-10
  -2.96000000E-02   6.54987384E-11
  -2.95499992E-02   1.83423582E-10
  -2.95000002E-02   2.49440971E-11
  -2.94499993E-02  -3.42892437E-10
  -2.94000003E-02  -7.51413487E-10
  -2.93499995E-02  -1.00186648E-09
  -2.93000005E-02  -9.54583079E-10
  -2.92499997E-02  -5.95893557E-10
  -2.92000007E-02  -5.10028027E-11
  -2.91499998E-02   4.65901318E-10
  -2.91000009E-02   7.44776074E-10
  -2.90500000E-02   6.75771994E-10
  -2.89999992E-02   3.04483799E-10
  -2.89500002E-02  -1.80909732E-10
  -2.88999993E-02  -5.28212474E-10
  -2.88500004E-02  -5.32963340E-10
  -2.87999995E-02  -1.34085298E-10
  -2.87500005E-02   5.50958168E-10
  -2.86999997E-02   1.27049693E-09
  -2.86500007E-02   1.74618253E-09
  -2.85999998E-02   1.79783122E-09
  -2.85500009E-02   1.42960566E-09
  -2.85000000E-02   8.36483049E-10
  -2.84499992E-02   3.24270638E-10
  -2.84000002E-02   1.75446796E-10
  -2.83499993E-02   5.19254140E-10
  -2.83000004E-02   1.26527389E-09
  -2.82499995E-02   2.13362106E-09
  -2.82000005E-02   2.77253909E-09
  -2.81499997E-02   2.91406055E-09
  -2.81000007E-02   2.49885823E-09
  -2.80499998E-02   1.71225167E-09
  -2.80000009E-02   9.10999332E-10
  -2.79500000E-02   4.69117634E-10
  -2.78999992E-02   6.08930462E-10
  -2.78500002E-02   1.29320010E-09
  -2.77999993E-02   2.22988716E-09
  -2.77500004E-02   2.99237013E-09
  -2.76999995E-02   3.20582805E-09
  -2.76500005E-02   2.71841882E-09
  -2.75999997E-02   1.67922576E-09
  -2.75500007E-02   4.83743157E-10
  -2.74999999E-02  -3.94152239E-10
  -2.74500009E-02  -6.12697670E-10
  -2.74000000E-02  -1.21966118E-10
  -2.73499992E-02   8.01431754E-10
  -2.73000002E-02   1.66558101E-09
  -2.72499993E-02   1.97636862E-09
  -2.72000004E-02   1.46059764E-09
  -2.71499995E-02   1.98933314E-10
  -2.71000005E-02  -1.39497291E-09
  -2.70499997E-02  -2.74609935E-09
  -2.70000007E-02  -3.36928330E-09
  -2.69499999E-02  -3.09017323E-09
  -2.69000009E-02  -2.13521600E-09
  -2.68500000E-02  -1.04491960E-09
  -2.67999992E-02  -4.42346243E-10
  -2.67500002E-02  -7.55235152E-10
  -2.66999993E-02  -2.01492356E-09
  -2.66500004E-02  -3.82552967E-09
  -2.65999995E-02  -5.52395862E-09
  -2.65500005E-02  -6.46626042E-09
  -2.64999997E-02  -6.31652819E-09
  -2.64500007E-02  -5.20858867E-09
  -2.63999999E-02  -3.70288356E-09
  -2.63500009E-02  -2.55000110E-09
  -2.63000000E-02  -2.35965181E-09
  -2.62499992E-02  -3.32016503E-09
  -2.62000002E-02  -5.09643927E-09
  -2.61499994E-02  -6.95902269E-09
  -2.61000004E-02  -8.09519207E-09
  -2.60499995E-02  -7.96931854E-09
  -2.60000005E-02  -6.57269439E-09
  -2.59499997E-02  -4.44656667E-09
  -2.59000007E-02  -2.45955833E-09
  -2.58499999E-02  -1.43015466E-09
  -2.58000009E-02  -1.75779769E-09
  -2.57500000E-02  -3.22833182E-09
  -2.56999992E-02  -5.08746290E-09
  -2.56500002E-02  -6.35914166E-09
  -2.55999994E-02  -6.27512398E-09
  -2.55500004E-02  -4.62723948E-09
  -2.54999995E-02  -1.88167171E-09
  -2.54500005E-02   1.00457287E-09
  -2.53999997E-02   2.99351899E-09
  -2.53500007E-02   3.42694251E-09
  -2.52999999E-02   2.33340391E-09
  -2.52500009E-02   4.38600933E-10
  -2.52000000E-02  -1.13610843E-09
  -2.51499992E-02  -1.36303879E-09
  -2.51000002E-02   2.27101213E-10
  -2.50499994E-02   3.31399375E-09
  -2.50000004E-02   6.90164681E-09
  -2.49499995E-02   9.73843051E-09
  -2.49000005E-02   1.08657758E-08
  -2.48499997E-02   1.00544000E-08
  -2.48000007E-02   7.92895616E-09
  -2.47499999E-02   5.71477354E-09
  -2.47000009E-02   4.70722306E-09
  -2.46500000E-02   5.69182790E-09
  -2.45999992E-02   8.57300453E-09
  -2.45500002E-02   1.23845920E-08
  -2.44999994E-02   1.56902331E-08
  -2.44500004E-02   1.72074817E-08
  -2.43999995E-02   1.63837992E-08
  -2.43500005E-02   1.36652218E-08
  -2.42999997E-02   1.03274047E-08
  -2.42500007E-02   7.93030619E-09
  -2.41999999E-02   7.62819141E-09
  -2.41500009E-02   9.63885682E-09
  -2.41000000E-02   1.31145921E-08
  -2.40499992E-02   1.64854868E-08
  -2.40000002E-02   1.81366424E-08
  -2.39499994E-02   1.71270926E-08
  -2.39000004E-02   1.36303058E-08
  -2.38499995E-02   8.89063223E-09
  -2.38000005E-02   4.70003014E-09
  -2.37499997E-02   2.61406718E-09
  -2.37000007E-02   3.24965055E-09
  -2.36499999E-02   5.98091310E-09
  -2.36000009E-02   9.18137655E-09
  -2.35500000E-02   1.09208527E-08
  -2.34999992E-02   9.81944304E-09
  -2.34500002E-02   5.68178526E-09
  -2.33999994E-02  -3.78346438E-10
  -2.33500004E-02  -6.39390407E-09
  -2.32999995E-02  -1.03943663E-08
  -2.32500006E-02  -1.12814789E-08
  -2.31999997E-02  -9.34058253E-09
  -2.31500007E-02  -6.14866558E-09
  -2.30999999E-02  -3.90296506E-09
  -2.30500009E-02  -4.45343407E-09
  -2.30000000E-02  -8.46271675E-09
  -2.29499992E-02  -1.50723132E-08
  -2.29000002E-02  -2.22381011E-08
  -2.28499994E-02  -2.76039600E-08
  -2.28000004E-02  -2.95383096E-08
  -2.27499995E-02  -2.78753340E-08
  -2.27000006E-02  -2.40220093E-08
  -2.26499997E-02  -2.03659880E-08
  -2.26000007E-02  -1.92300007E-08
  -2.25499999E-02  -2.18272405E-08
  -2.25000009E-02  -2.76839920E-08
  -2.24500000E-02  -3.47994025E-08
  -2.23999992E-02  -4.04904590E-08
  -2.23500002E-02  -4.25629736E-08
  -2.22999994E-02  -4.02946831E-08
  -2.22500004E-02  -3.47873588E-08
  -2.21999995E-02  -2.85150161E-08
  -2.21500006E-02  -2.42494984E-08
  -2.20999997E-02  -2.38270896E-08
  -2.20500007E-02  -2.73021730E-08
  -2.19999999E-02  -3.28747873E-08
  -2.19500009E-02  -3.76432077E-08
  -2.19000001E-02  -3.88661725E-08
  -2.18499992E-02  -3.51845166E-08
  -2.18000002E-02  -2.72569398E-08
  -2.17499994E-02  -1.75128427E-08
  -2.17000004E-02  -9.11173714E-09
  -2.16499995E-02  -4.55426452E-09
  -2.16000006E-02  -4.55538229E-09
  -2.15499997E-02  -7.68734054E-09
  -2.15000007E-02  -1.09688907E-08
  -2.14499999E-02  -1.11596341E-08
  -2.14000009E-02  -6.19913365E-09
  -2.13500001E-02   3.84632770E-09
  -2.12999992E-02   1.67612022E-08
  -2.12500002E-02   2.91122415E-08
  -2.11999994E-02   3.77400298E-08
  -2.11500004E-02   4.11590264E-08
  -2.10999995E-02   4.02415310E-08
  -2.10500006E-02   3.78667160E-08
  -2.09999997E-02   3.76695084E-08
  -2.09500007E-02   4.24272955E-08
  -2.08999999E-02   5.27941211E-08
  -2.08500009E-02   6.69519835E-08
  -2.08000001E-02   8.13522405E-08
  -2.07499992E-02   9.22393539E-08
  -2.07000002E-02   9.72952066E-08
  -2.06499994E-02   9.66760823E-08
  -2.06000004E-02   9.29703958E-08
  -2.05499995E-02   9.00757158E-08
  -2.05000006E-02   9.14734457E-08
  -2.04499997E-02   9.86558462E-08
  -2.04000007E-02   1.10406418E-07
  -2.03499999E-02   1.23268293E-07
  -2.03000009E-02   1.33014396E-07
  -2.02500001E-02   1.36484999E-07
  -2.01999992E-02   1.32983971E-07
  -2.01500002E-02   1.24607112E-07
  -2.00999994E-02   1.15338430E-07
  -2.00500004E-02   1.09293971E-07
  -1.99999996E-02   1.08877181E-07
  -1.99500006E-02   1.13662026E-07
  -1.98999997E-02   1.20510848E-07
  -1.98500007E-02   1.24895223E-07
  -1.97999999E-02   1.22854743E-07
  -1.97500009E-02   1.12736622E-07
  -1.97000001E-02   9.59425819E-08
  -1.96499992E-02   7.63370593E-08
  -1.96000002E-02   5.85576601E-08
  -1.95499994E-02   4.59583482E-08
  -1.95000004E-02   3.90899579E-08
  -1.94499996E-02   3.53985214E-08
  -1.94000006E-02   3.02925258E-08
  -1.93499997E-02   1.91275600E-08
  -1.93000007E-02  -7.55241036E-10
  -1.92499999E-02  -2.88378263E-08
  -1.92000009E-02  -6.16193034E-08
  -1.91500001E-02  -9.41293337E-08
  -1.90999992E-02  -1.22110592E-07
  -1.90500002E-02  -1.43915670E-07
  -1.89999994E-02  -1.61276276E-07
  -1.89500004E-02  -1.78590000E-07
  -1.88999996E-02  -2.01019276E-07
  -1.88500006E-02  -2.32226000E-07
  -1.87999997E-02  -2.72737310E-07
  -1.87500007E-02  -3.19671301E-07
  -1.86999999E-02  -3.67961235E-07
  -1.86500009E-02  -4.12557995E-07
  -1.86000001E-02  -4.50650305E-07
  -1.85499992E-02  -4.82924463E-07
  -1.85000002E-02  -5.13296357E-07
  -1.84499994E-02  -5.47214768E-07
  -1.84000004E-02  -5.89267017E-07
  -1.83499996E-02  -6.41133909E-07
  -1.83000006E-02  -7.00800456E-07
  -1.82499997E-02  -7.63384264E-07
  -1.82000007E-02  -8.23236064E-07
  -1.81499999E-02  -8.76402339E-07
  -1.81000009E-02  -9.22368031E-07
  -1.80500001E-02  -9.64305400E-07
  -1.79999992E-02  -1.00770114E-06
  -1.79500002E-02  -1.05794891E-06
  -1.78999994E-02  -1.11795543E-06
  -1.78500004E-02  -1.18681419E-06
  -1.77999996E-02  -1.26014174E-06
  -1.77500006E-02  -1.33194669E-06
  -1.76999997E-02  -1.39722624E-06
  -1.76500008E-02  -1.45415470E-06
  -1.75999999E-02  -1.50489757E-06
  -1.75500009E-02  -1.55467944E-06
  -1.75000001E-02  -1.60949890E-06
  -1.74499992E-02  -1.67348071E-06
  -1.74000002E-02  -1.74702427E-06
  -1.73499994E-02  -1.82657300E-06
  -1.73000004E-02  -1.90612161E-06
  -1.72499996E-02  -1.97981376E-06
  -1.72000006E-02  -2.04450021E-06
  -1.71499997E-02  -2.10113603E-06
  -1.71000008E-02  -2.15438718E-06
  -1.70499999E-02  -2.21060850E-06
  -1.70000009E-02  -2.27506007E-06
  -1.69500001E-02  -2.34958225E-06
  -1.68999992E-02  -2.43175577E-06
  -1.68500002E-02  -2.51592360E-06
  -1.67999994E-02  -2.59564604E-06
  -1.67500004E-02  -2.66652091E-06
  -1.66999996E-02  -2.72813713E-06
  -1.66500006E-02  -2.78429616E-06
  -1.65999997E-02  -2.84138537E-06
  -1.65500008E-02  -2.90560752E-06
  -1.64999999E-02  -2.98027203E-06
  -1.64500009E-02  -3.06433412E-06
  -1.64000001E-02  -3.15283978E-06
  -1.63499992E-02  -3.23908625E-06
  -1.63000003E-02  -3.31757133E-06
  -1.62499994E-02  -3.38644440E-06
  -1.62000004E-02  -3.44837667E-06
  -1.61499996E-02  -3.50945493E-06
  -1.61000006E-02  -3.57657837E-06
  -1.60499997E-02  -3.65447499E-06
  -1.60000008E-02  -3.74365504E-06
  -1.59499999E-02  -3.84020177E-06
  -1.59000009E-02  -3.93749770E-06
  -1.58500001E-02  -4.02915657E-06
  -1.57999992E-02  -4.11186829E-06
  -1.57500003E-02  -4.18692116E-06
  -1.56999994E-02  -4.25972212E-06
  -1.56500004E-02  -4.33751075E-06
  -1.55999996E-02  -4.42625969E-06
  -1.55499997E-02  -4.52811128E-06
  -1.54999997E-02  -4.64046752E-06
  -1.54499998E-02  -4.75716433E-06
  -1.53999999E-02  -4.87121542E-06
  -1.53500000E-02  -4.97792780E-06
  -1.53000001E-02  -5.07704272E-06
  -1.52500002E-02  -5.17294529E-06
  -1.52000003E-02  -5.27283964E-06
  -1.51500003E-02  -5.38369250E-06
  -1.51000004E-02  -5.50924869E-06
  -1.50499996E-02  -5.64846050E-06
  -1.49999997E-02  -5.79599509E-06
  -1.49499997E-02  -5.94461426E-06
  -1.48999998E-02  -6.08842493E-06
  -1.48499999E-02  -6.22553534E-06
  -1.48000000E-02  -6.35898050E-06
  -1.47500001E-02  -6.49549747E-06
  -1.47000002E-02  -6.64267100E-06
  -1.46500003E-02  -6.80570565E-06
  -1.46000003E-02  -6.98520807E-06
  -1.45500004E-02  -7.17698231E-06
  -1.44999996E-02  -7.37391929E-06
  -1.44499997E-02  -7.56918871E-06
  -1.43999998E-02  -7.75930312E-06
  -1.43499998E-02  -7.94573043E-06
  -1.42999999E-02  -8.13436782E-06
  -1.42500000E-02  -8.33305785E-06
  -1.42000001E-02  -8.54824793E-06
  -1.41500002E-02  -8.78224273E-06
  -1.41000003E-02  -9.03225919E-06
  -1.40500003E-02  -9.29171074E-06
  -1.40000004E-02  -9.55315500E-06
  -1.39499996E-02  -9.81163794E-06
  -1.38999997E-02  -1.00669431E-05
  -1.38499998E-02  -1.03237635E-05
  -1.37999998E-02  -1.05897525E-05
  -1.37499999E-02  -1.08722761E-05
  -1.37000000E-02  -1.11752515E-05
  -1.36500001E-02  -1.14975055E-05
  -1.36000002E-02  -1.18333537E-05
  -1.35500003E-02  -1.21751391E-05
  -1.35000004E-02  -1.25166534E-05
  -1.34500004E-02  -1.28559286E-05
  -1.33999996E-02  -1.31961824E-05
  -1.33499997E-02  -1.35445116E-05
  -1.32999998E-02  -1.39088570E-05
  -1.32499998E-02  -1.42946110E-05
  -1.31999999E-02  -1.47023593E-05
  -1.31500000E-02  -1.51276790E-05
  -1.31000001E-02  -1.55631606E-05
  -1.30500002E-02  -1.60017080E-05
  -1.30000003E-02  -1.64397097E-05
  -1.29500004E-02  -1.68787210E-05
  -1.29000004E-02  -1.73248682E-05
  -1.28499996E-02  -1.77862639E-05
  -1.27999997E-02  -1.82695276E-05
  -1.27499998E-02  -1.87769874E-05
  -1.26999998E-02  -1.93057531E-05
  -1.26499999E-02  -1.98490543E-05
  -1.26000000E-02  -2.03992859E-05
  -1.25500001E-02  -2.09514437E-05
  -1.25000002E-02  -2.15053988E-05
  -1.24500003E-02  -2.20660459E-05
  -1.24000004E-02  -2.26412903E-05
  -1.23500004E-02  -2.32386992E-05
  -1.22999996E-02  -2.38622761E-05
  -1.22499997E-02  -2.45108131E-05
  -1.21999998E-02  -2.51785423E-05
  -1.21499998E-02  -2.58577693E-05
  -1.20999999E-02  -2.65423278E-05
  -1.20500000E-02  -2.72304023E-05
  -1.20000001E-02  -2.79254982E-05
  -1.19500002E-02  -2.86350332E-05
  -1.19000003E-02  -2.93672201E-05
  -1.18500004E-02  -3.01276123E-05
  -1.18000004E-02  -3.09168463E-05
  -1.17499996E-02  -3.17305239E-05
  -1.16999997E-02  -3.25612709E-05
  -1.16499998E-02  -3.34021133E-05
  -1.15999999E-02  -3.42497115E-05
  -1.15499999E-02  -3.51059607E-05
  -1.15000000E-02  -3.59772603E-05
  -1.14500001E-02  -3.68718902E-05
  -1.14000002E-02  -3.77965334E-05
  -1.13500003E-02  -3.87535656E-05
  -1.13000004E-02  -3.97401236E-05
  -1.12500004E-02  -4.07495791E-05
  -1.11999996E-02  -4.17746742E-05
  -1.11499997E-02  -4.28109488E-05
  -1.10999998E-02  -4.38588577E-05
  -1.10499999E-02  -4.49237778E-05
  -1.09999999E-02  -4.60139418E-05
  -1.09500000E-02  -4.71370404E-05
  -1.09000001E-02  -4.82971554E-05
  -1.08500002E-02  -4.94930719E-05
  -1.08000003E-02  -5.07191362E-05
  -1.07500004E-02  -5.19679234E-05
  -1.07000005E-02  -5.32335580E-05
  -1.06499996E-02  -5.45146613E-05
  -1.05999997E-02  -5.58152278E-05
  -1.05499998E-02  -5.71428463E-05
  -1.04999999E-02  -5.85056951E-05
  -1.04499999E-02  -5.99091909E-05
  -1.04000000E-02  -6.13538941E-05
  -1.03500001E-02  -6.28354464E-05
  -1.03000002E-02  -6.43467938E-05
  -1.02500003E-02  -6.58816789E-05
  -1.02000004E-02  -6.74376934E-05
  -1.01500005E-02  -6.90175584E-05
  -1.00999996E-02  -7.06281353E-05
  -1.00499997E-02  -7.22779441E-05
  -9.99999978E-03  -7.39735697E-05
  -9.94999986E-03  -7.57170565E-05
  -9.89999995E-03  -7.75054068E-05
  -9.85000003E-03  -7.93321160E-05
  -9.80000012E-03  -8.11903155E-05
  -9.75000020E-03  -8.30763165E-05
  -9.70000029E-03  -8.49914068E-05
  -9.65000037E-03  -8.69414871E-05
  -9.60000046E-03  -8.89348230E-05
  -9.54999961E-03  -9.09785085E-05
  -9.49999969E-03  -9.30756360E-05
  -9.44999978E-03  -9.52241026E-05
  -9.39999986E-03  -9.74181385E-05
  -9.34999995E-03  -9.96510644E-05
  -9.30000003E-03  -1.01918289E-04
  -9.25000012E-03  -1.04219849E-04
  -9.20000020E-03  -1.06560874E-04
  -9.15000029E-03  -1.08949505E-04
  -9.10000037E-03  -1.11393660E-04
  -9.05000046E-03  -1.13897979E-04
  -8.99999961E-03  -1.16462281E-04
  -8.94999970E-03  -1.19081851E-04
  -8.89999978E-03  -1.21749996E-04
  -8.84999987E-03  -1.24461585E-04
  -8.79999995E-03  -1.27215593E-04
  -8.75000004E-03  -1.30015906E-04
  -8.70000012E-03  -1.32869885E-04
  -8.65000021E-03  -1.35785493E-04
  -8.60000029E-03  -1.38768068E-04
  -8.55000038E-03  -1.41818353E-04
  -8.50000046E-03  -1.44932303E-04
  -8.44999962E-03  -1.48103209E-04
  -8.39999970E-03  -1.51325090E-04
  -8.34999979E-03  -1.54595749E-04
  -8.29999987E-03  -1.57917879E-04
  -8.24999996E-03  -1.61298463E-04
  -8.20000004E-03  -1.64745754E-04
  -8.15000013E-03  -1.68265731E-04
  -8.10000021E-03  -1.71860389E-04
  -8.05000030E-03  -1.75526948E-04
  -8.00000038E-03  -1.79259659E-04
  -7.95000046E-03  -1.83052733E-04
  -7.89999962E-03  -1.86903620E-04
  -7.84999970E-03  -1.90814637E-04
  -7.79999979E-03  -1.94792170E-04
  -7.74999987E-03  -1.98844937E-04
  -7.69999996E-03  -2.02979994E-04
  -7.65000004E-03  -2.07200123E-04
  -7.60000013E-03  -2.11503007E-04
  -7.55000021E-03  -2.15882639E-04
  -7.49999983E-03  -2.20332469E-04
  -7.44999992E-03  -2.24848976E-04
  -7.40000000E-03  -2.29433674E-04
  -7.35000009E-03  -2.34092338E-04
  -7.30000017E-03  -2.38833207E-04
  -7.24999979E-03  -2.43663497E-04
  -7.19999988E-03  -2.48585973E-04
  -7.14999996E-03  -2.53598613E-04
  -7.10000005E-03  -2.58696062E-04
  -7.05000013E-03  -2.63872411E-04
  -7.00000022E-03  -2.69124343E-04
  -6.94999984E-03  -2.74452643E-04
  -6.89999992E-03  -2.79863394E-04
  -6.85000001E-03  -2.85365357E-04
  -6.80000009E-03  -2.90965574E-04
  -6.75000018E-03  -2.96667888E-04
  -6.69999979E-03  -3.02471570E-04
  -6.64999988E-03  -3.08371586E-04
  -6.59999996E-03  -3.14361183E-04
  -6.55000005E-03  -3.20436258E-04
  -6.50000013E-03  -3.26598092E-04
  -6.45000022E-03  -3.32852593E-04
  -6.39999984E-03  -3.39208054E-04
  -6.34999992E-03  -3.45672481E-04
  -6.30000001E-03  -3.52249830E-04
  -6.25000009E-03  -3.58938647E-04
  -6.20000018E-03  -3.65732558E-04
  -6.14999980E-03  -3.72623996E-04
  -6.09999988E-03  -3.79608595E-04
  -6.04999997E-03  -3.86686792E-04
  -6.00000005E-03  -3.93864029E-04
  -5.95000014E-03  -4.01149271E-04
  -5.90000022E-03  -4.08551306E-04
  -5.84999984E-03  -4.16075258E-04
  -5.79999993E-03  -4.23720398E-04
  -5.75000001E-03  -4.31480410E-04
  -5.70000010E-03  -4.39347641E-04
  -5.65000018E-03  -4.47316415E-04
  -5.59999980E-03  -4.55386034E-04
  -5.54999989E-03  -4.63562785E-04
  -5.49999997E-03  -4.71856387E-04
  -5.45000006E-03  -4.80275950E-04
  -5.40000014E-03  -4.88827820E-04
  -5.35000023E-03  -4.97512170E-04
  -5.29999984E-03  -5.06323064E-04
  -5.24999993E-03  -5.15250023E-04
  -5.20000001E-03  -5.24284900E-04
  -5.15000010E-03  -5.33426530E-04
  -5.10000018E-03  -5.42679452E-04
  -5.04999980E-03  -5.52052865E-04
  -4.99999989E-03  -5.61557477E-04
  -4.94999997E-03  -5.71200624E-04
  -4.90000006E-03  -5.80983004E-04
  -4.85000014E-03  -5.90897980E-04
  -4.80000023E-03  -6.00936532E-04
  -4.74999985E-03  -6.11089461E-04
  -4.69999993E-03  -6.21351297E-04
  -4.65000002E-03  -6.31725590E-04
  -4.60000010E-03  -6.42223109E-04
  -4.55000019E-03  -6.52856310E-04
  -4.49999981E-03  -6.63634448E-04
  -4.44999989E-03  -6.74559735E-04
  -4.39999998E-03  -6.85626874E-04
  -4.35000006E-03  -6.96824281E-04
  -4.30000015E-03  -7.08139967E-04
  -4.25000023E-03  -7.19567121E-04
  -4.19999985E-03  -7.31107488E-04
  -4.14999994E-03  -7.42770848E-04
  -4.10000002E-03  -7.54570647E-04
  -4.05000011E-03  -7.66517594E-04
  -4.00000019E-03  -7.78615591E-04
  -3.94999981E-03  -7.90859747E-04
  -3.89999989E-03  -8.03238479E-04
  -3.84999998E-03  -8.15737236E-04
  -3.80000006E-03  -8.28344841E-04
  -3.74999992E-03  -8.41060653E-04
  -3.70000000E-03  -8.53892940E-04
  -3.65000009E-03  -8.66856310E-04
  -3.59999994E-03  -8.79964791E-04
  -3.55000002E-03  -8.93225311E-04
  -3.50000011E-03  -9.06633970E-04
  -3.44999996E-03  -9.20177263E-04
  -3.40000005E-03  -9.33838368E-04
  -3.34999990E-03  -9.47603898E-04
  -3.29999998E-03  -9.61470127E-04
  -3.25000007E-03  -9.75445786E-04
  -3.19999992E-03  -9.89547698E-04
  -3.15000000E-03  -1.00379065E-03
  -3.10000009E-03  -1.01818331E-03
  -3.04999994E-03  -1.03272428E-03
  -3.00000003E-03  -1.04739901E-03
  -2.95000011E-03  -1.06218806E-03
  -2.89999996E-03  -1.07707572E-03
  -2.85000005E-03  -1.09205313E-03
  -2.79999990E-03  -1.10712310E-03
  -2.74999999E-03  -1.12230238E-03
  -2.70000007E-03  -1.13761227E-03
  -2.64999992E-03  -1.15306478E-03
  -2.60000001E-03  -1.16865768E-03
  -2.55000009E-03  -1.18437852E-03
  -2.49999994E-03  -1.20020623E-03
  -2.45000003E-03  -1.21611834E-03
  -2.40000011E-03  -1.23210344E-03
  -2.34999997E-03  -1.24816119E-03
  -2.30000005E-03  -1.26430299E-03
  -2.24999990E-03  -1.28055271E-03
  -2.19999999E-03  -1.29692943E-03
  -2.15000007E-03  -1.31343654E-03
  -2.09999993E-03  -1.33006531E-03
  -2.05000001E-03  -1.34679535E-03
  -2.00000009E-03  -1.36360025E-03
  -1.94999995E-03  -1.38045964E-03
  -1.90000003E-03  -1.39736617E-03
  -1.85000000E-03  -1.41432858E-03
  -1.79999997E-03  -1.43136992E-03
  -1.75000005E-03  -1.44851615E-03
  -1.70000002E-03  -1.46577868E-03
  -1.64999999E-03  -1.48314750E-03
  -1.59999996E-03  -1.50059874E-03
  -1.55000004E-03  -1.51810271E-03
  -1.50000001E-03  -1.53563381E-03
  -1.44999998E-03  -1.55318005E-03
  -1.39999995E-03  -1.57074712E-03
  -1.35000004E-03  -1.58835633E-03
  -1.30000000E-03  -1.60603342E-03
  -1.24999997E-03  -1.62379385E-03
  -1.20000006E-03  -1.64163474E-03
  -1.15000003E-03  -1.65953510E-03
  -1.09999999E-03  -1.67746667E-03
  -1.04999996E-03  -1.69539906E-03
  -1.00000005E-03  -1.71331048E-03
  -9.50000016E-04  -1.73119968E-03
  -8.99999985E-04  -1.74908701E-03
  -8.50000011E-04  -1.76700030E-03
  -7.99999980E-04  -1.78495981E-03
  -7.50000007E-04  -1.80297100E-03
  -6.99999975E-04  -1.82101678E-03
  -6.50000002E-04  -1.83906383E-03
  -6.00000028E-04  -1.85707549E-03
  -5.49999997E-04  -1.87502359E-03
  -5.00000024E-04  -1.89290068E-03
  -4.49999992E-04  -1.91071944E-03
  -3.99999990E-04  -1.92850549E-03
  -3.49999988E-04  -1.94628257E-03
  -3.00000014E-04  -1.96406036E-03
  -2.50000012E-04  -1.98182580E-03
  -1.99999995E-04  -1.99954980E-03
  -1.50000007E-04  -2.01719860E-03
  -9.99999975E-05  -2.03474052E-03
  -4.99999987E-05  -2.05216371E-03
   0.00000000      -2.06947164E-03
   4.99999987E-05  -2.08667992E-03
   9.99999975E-05  -2.10381020E-03
   1.50000007E-04  -2.12088204E-03
   1.99999995E-04  -2.13789730E-03
   2.50000012E-04  -2.15482875E-03
   3.00000014E-04  -2.17163656E-03
   3.49999988E-04  -2.18828185E-03
   3.99999990E-04  -2.20473646E-03
   4.49999992E-04  -2.22099759E-03
   5.00000024E-04  -2.23708618E-03
   5.49999997E-04  -2.25303345E-03
   6.00000028E-04  -2.26885942E-03
   6.50000002E-04  -2.28456268E-03
   6.99999975E-04  -2.30012112E-03
   7.50000007E-04  -2.31549540E-03
   7.99999980E-04  -2.33063963E-03
   8.50000011E-04  -2.34551588E-03
   8.99999985E-04  -2.36011413E-03
   9.50000016E-04  -2.37445207E-03
   1.00000005E-03  -2.38855975E-03
   1.04999996E-03  -2.40247021E-03
   1.09999999E-03  -2.41618999E-03
   1.15000003E-03  -2.42969813E-03
   1.20000006E-03  -2.44295457E-03
   1.24999997E-03  -2.45590159E-03
   1.30000000E-03  -2.46848888E-03
   1.35000004E-03  -2.48069642E-03
   1.39999995E-03  -2.49254121E-03
   1.44999998E-03  -2.50406493E-03
   1.50000001E-03  -2.51530879E-03
   1.55000004E-03  -2.52629118E-03
   1.59999996E-03  -2.53699766E-03
   1.64999999E-03  -2.54737283E-03
   1.70000002E-03  -2.55735032E-03
   1.75000005E-03  -2.56687263E-03
   1.79999997E-03  -2.57591181E-03
   1.85000000E-03  -2.58447952E-03
   1.90000003E-03  -2.59261276E-03
   1.94999995E-03  -2.60035205E-03
   2.00000009E-03  -2.60773068E-03
   2.05000001E-03  -2.61475262E-03
   2.09999993E-03  -2.62136175E-03
   2.15000007E-03  -2.62747798E-03
   2.19999999E-03  -2.63303332E-03
   2.24999990E-03  -2.63799122E-03
   2.30000005E-03  -2.64235493E-03
   2.34999997E-03  -2.64615729E-03
   2.40000011E-03  -2.64945719E-03
   2.45000003E-03  -2.65229493E-03
   2.49999994E-03  -2.65467120E-03
   2.55000009E-03  -2.65653711E-03
   2.60000001E-03  -2.65781162E-03
   2.64999992E-03  -2.65841675E-03
   2.70000007E-03  -2.65830336E-03
   2.74999999E-03  -2.65747937E-03
   2.79999990E-03  -2.65598274E-03