  -3.99999991E-02   0.00000000    
  -3.99499983E-02   0.00000000    
  -3.99000011E-02   0.00000000    
  -3.98500003E-02   0.00000000    
  -3.97999994E-02   6.48393924E-20
  -3.97499986E-02   5.27451407E-19
  -3.97000015E-02   2.30046497E-18
  -3.96500006E-02   7.08082652E-18
  -3.95999998E-02   1.71406100E-17
  -3.95499989E-02   3.45884117E-17
  -3.95000018E-02   6.04180263E-17
  -3.94500010E-02   9.40015063E-17
  -3.94000001E-02   1.33578049E-16
  -3.93499993E-02   1.77718511E-16
  -3.92999984E-02   2.27081142E-16
  -3.92500013E-02   2.85475117E-16
  -3.92000005E-02   3.59513658E-16
  -3.91499996E-02   4.56829432E-16
  -3.90999988E-02   5.83608136E-16
  -3.90500017E-02   7.42697388E-16
  -3.90000008E-02   9.33418344E-16
  -3.89500000E-02   1.15333467E-15
  -3.88999991E-02   1.40098117E-15
  -3.88499983E-02   1.67775606E-15
  -3.88000011E-02   1.98757425E-15
  -3.87500003E-02   2.33438977E-15
  -3.86999995E-02   2.71929425E-15
  -3.86499986E-02   3.13934297E-15
  -3.86000015E-02   3.58911704E-15
  -3.85500006E-02   4.06404333E-15
  -3.84999998E-02   4.56295293E-15
  -3.84499989E-02   5.08728623E-15
  -3.84000018E-02   5.63588449E-15
  -3.83500010E-02   6.19700993E-15
  -3.83000001E-02   6.74179273E-15
  -3.82499993E-02   7.22420679E-15
  -3.81999984E-02   7.59051720E-15
  -3.81500013E-02   7.79607769E-15
  -3.81000005E-02   7.82186646E-15
  -3.80499996E-02   7.68080837E-15
  -3.79999988E-02   7.40735310E-15
  -3.79500017E-02   7.03188796E-15
  -3.79000008E-02   6.55021420E-15
  -3.78500000E-02   5.90267361E-15
  -3.77999991E-02   4.97484473E-15
  -3.77499983E-02   3.62284462E-15
  -3.77000012E-02   1.71474906E-15
  -3.76500003E-02  -8.29471307E-16
  -3.75999995E-02  -4.01906969E-15
  -3.75499986E-02  -7.80669949E-15
  -3.75000015E-02  -1.21322824E-14
  -3.74500006E-02  -1.69772338E-14
  -3.73999998E-02  -2.24017768E-14
  -3.73499990E-02  -2.85439024E-14
  -3.73000018E-02  -3.55761156E-14
  -3.72500010E-02  -4.36365591E-14
  -3.72000001E-02  -5.27640032E-14
  -3.71499993E-02  -6.28656673E-14
  -3.70999984E-02  -7.37333371E-14
  -3.70500013E-02  -8.51033314E-14
  -3.70000005E-02  -9.67375390E-14
  -3.69499996E-02  -1.08493584E-13
  -3.68999988E-02  -1.20356565E-13
  -3.68500017E-02  -1.32421038E-13
  -3.68000008E-02  -1.44832578E-13
  -3.67500000E-02  -1.57712439E-13
  -3.66999991E-02  -1.71091060E-13
  -3.66499983E-02  -1.84866540E-13
  -3.66000012E-02  -1.98792615E-13
  -3.65500003E-02  -2.12493651E-13
  -3.64999995E-02  -2.25503928E-13
  -3.64499986E-02  -2.37327871E-13
  -3.64000015E-02  -2.47512541E-13
  -3.63500006E-02  -2.55712714E-13
  -3.62999998E-02  -2.61720035E-13
  -3.62499990E-02  -2.65430662E-13
  -3.62000018E-02  -2.66744661E-13
  -3.61500010E-02  -2.65424618E-13
  -3.61000001E-02  -2.60974917E-13
  -3.60499993E-02  -2.52621844E-13
  -3.59999985E-02  -2.39452121E-13
  -3.59500013E-02  -2.20703379E-13
  -3.59000005E-02  -1.96109323E-13
  -3.58499996E-02  -1.66132218E-13
  -3.57999988E-02  -1.31917182E-13
  -3.57500017E-02  -9.48965570E-14
  -3.57000008E-02  -5.61393346E-14
  -3.56500000E-02  -1.57020935E-14
  -3.55999991E-02   2.76920329E-14
  -3.55499983E-02   7.64008878E-14
  -3.55000012E-02   1.33020399E-13
  -3.54500003E-02   1.99225334E-13
  -3.53999995E-02   2.74790011E-13
  -3.53499986E-02   3.57305440E-13
  -3.53000015E-02   4.42871461E-13
  -3.52500007E-02   5.27608773E-13
  -3.51999998E-02   6.09389655E-13
  -3.51499990E-02   6.88958168E-13
  -3.51000018E-02   7.69759039E-13
  -3.50500010E-02   8.56322934E-13
  -3.50000001E-02   9.51754409E-13
  -3.49499993E-02   1.05542029E-12
  -3.48999985E-02   1.16203195E-12
  -3.48500013E-02   1.26283446E-12
  -3.48000005E-02   1.34868961E-12
  -3.47499996E-02   1.41387141E-12
  -3.46999988E-02   1.45883544E-12
  -3.46500017E-02   1.49044622E-12
  -3.46000008E-02   1.51915427E-12
  -3.45500000E-02   1.55403381E-12
  -3.44999991E-02   1.59778809E-12
  -3.44499983E-02   1.64414912E-12
  -3.44000012E-02   1.67927814E-12
  -3.43500003E-02   1.68703907E-12
  -3.42999995E-02   1.65609854E-12
  -3.42499986E-02   1.58563299E-12
  -3.42000015E-02   1.48666691E-12
  -3.41500007E-02   1.37779707E-12
  -3.40999998E-02   1.27664665E-12
  -3.40499990E-02   1.19066573E-12
  -3.40000018E-02   1.11170318E-12
  -3.39500010E-02   1.01752677E-12
  -3.39000002E-02   8.80487035E-13
  -3.38499993E-02   6.80070095E-13
  -3.37999985E-02   4.13760470E-13
  -3.37500013E-02   1.00759184E-13
  -3.37000005E-02  -2.24123142E-13
  -3.36499996E-02  -5.24658442E-13
  -3.35999988E-02  -7.79631134E-13
  -3.35500017E-02  -9.93894854E-13
  -3.35000008E-02  -1.19814673E-12
  -3.34500000E-02  -1.43626094E-12
  -3.33999991E-02  -1.74487985E-12
  -3.33499983E-02  -2.13421446E-12
  -3.33000012E-02  -2.57941823E-12
  -3.32500003E-02  -3.02783775E-12
  -3.31999995E-02  -3.42038745E-12
  -3.31499986E-02  -3.71830821E-12
  -3.31000015E-02  -3.92305025E-12
  -3.30500007E-02  -4.07901534E-12
  -3.29999998E-02  -4.25602262E-12
  -3.29499990E-02  -4.51774815E-12
  -3.29000019E-02  -4.88970843E-12
  -3.28500010E-02  -5.34198727E-12
  -3.28000002E-02  -5.79637597E-12
  -3.27499993E-02  -6.15694822E-12
  -3.26999985E-02  -6.35183442E-12
  -3.26500013E-02  -6.36747512E-12
  -3.26000005E-02  -6.25841870E-12
  -3.25499997E-02  -6.12581600E-12
  -3.24999988E-02  -6.07198666E-12
  -3.24500017E-02  -6.15052063E-12
  -3.24000008E-02  -6.33524223E-12
  -3.23500000E-02  -6.52451530E-12
  -3.22999991E-02  -6.58202876E-12
  -3.22499983E-02  -6.39797330E-12
  -3.22000012E-02  -5.94337600E-12
  -3.21500003E-02  -5.29119240E-12
  -3.20999995E-02  -4.59119331E-12
  -3.20499986E-02  -4.00643147E-12
  -3.20000015E-02  -3.63794693E-12
  -3.19500007E-02  -3.47223313E-12
  -3.18999998E-02  -3.37814390E-12
  -3.18499990E-02  -3.15883864E-12
  -3.18000019E-02  -2.63885029E-12
  -3.17500010E-02  -1.74819740E-12
  -3.17000002E-02  -5.63782853E-13
  -3.16499993E-02   7.14724504E-13
  -3.15999985E-02   1.84828433E-12
  -3.15500014E-02   2.66652520E-12
  -3.15000005E-02   3.15152353E-12
  -3.14499997E-02   3.45606660E-12
  -3.13999988E-02   3.84282016E-12
  -3.13500017E-02   4.56699435E-12
  -3.13000008E-02   5.75338562E-12
  -3.12500000E-02   7.32513529E-12
  -3.11999992E-02   9.02153872E-12
  -3.11500002E-02   1.05032016E-11
  -3.10999993E-02   1.15017457E-11
  -3.10500003E-02   1.19472895E-11
  -3.09999995E-02   1.20125281E-11
  -3.09500005E-02   1.20469190E-11
  -3.08999997E-02   1.24240106E-11
  -3.08500007E-02   1.33671321E-11
  -3.07999998E-02   1.48332579E-11
  -3.07500008E-02   1.65131034E-11
  -3.07000000E-02   1.79551027E-11
  -3.06499992E-02   1.87636243E-11
  -3.06000002E-02   1.87837905E-11
  -3.05499993E-02   1.81858226E-11
  -3.05000003E-02   1.74030200E-11
  -3.04499995E-02   1.69428881E-11
  -3.04000005E-02   1.71513706E-11
  -3.03499997E-02   1.80371759E-11
  -3.03000007E-02   1.92420246E-11
  -3.02499998E-02   2.01801024E-11
  -3.02000009E-02   2.02926408E-11
  -3.01500000E-02   1.93066327E-11
  -3.00999992E-02   1.73777642E-11
  -3.00500002E-02   1.50442124E-11
  -2.99999993E-02   1.30011783E-11
  -2.99500003E-02   1.17900065E-11
  -2.98999995E-02   1.15408603E-11
  -2.98500005E-02   1.18912684E-11
  -2.97999997E-02   1.21284380E-11
  -2.97500007E-02   1.15021664E-11
  -2.96999998E-02   9.57305415E-12
  -2.96500009E-02   6.43661426E-12
  -2.96000000E-02   2.71241601E-12
  -2.95499992E-02  -7.10018416E-13
  -2.95000002E-02  -3.06457876E-12
  -2.94499993E-02  -4.06693602E-12
  -2.94000003E-02  -4.07021682E-12
  -2.93499995E-02  -3.93480647E-12
  -2.93000005E-02  -4.65676846E-12
  -2.92499997E-02  -6.91330500E-12
  -2.92000007E-02  -1.07304998E-11
  -2.91499998E-02  -1.54329778E-11
  -2.91000009E-02  -1.99134129E-11
  -2.90500000E-02  -2.31141911E-11
  -2.89999992E-02  -2.45102254E-11
  -2.89500002E-02  -2.43706461E-11
  -2.88999993E-02  -2.36678316E-11
  -2.88500004E-02  -2.36582230E-11
  -2.87999995E-02  -2.53118602E-11
  -2.87500005E-02  -2.88459864E-11
  -2.86999997E-02  -3.35827269E-11
  -2.86500007E-02  -3.82122632E-11
  -2.85999998E-02  -4.13601549E-11
  -2.85500009E-02  -4.22125390E-11
  -2.85000000E-02  -4.09143240E-11
  -2.84499992E-02  -3.85464577E-11
  -2.84000002E-02  -3.66724706E-11
  -2.83499993E-02  -3.66421754E-11
  -2.83000004E-02  -3.89606125E-11
  -2.82499995E-02  -4.30147480E-11
  -2.82000005E-02  -4.72995705E-11
  -2.81499997E-02  -5.00627075E-11
  -2.81000007E-02  -5.00909487E-11
  -2.80499998E-02  -4.72847976E-11
  -2.80000009E-02  -4.27485720E-11
  -2.79500000E-02  -3.83337216E-11
  -2.78999992E-02  -3.58209053E-11
  -2.78500002E-02  -3.60998904E-11
  -2.77999993E-02  -3.87227785E-11
  -2.77500004E-02  -4.20512548E-11
  -2.76999995E-02  -4.39557418E-11
  -2.76500005E-02  -4.27701242E-11
  -2.75999997E-02  -3.80760180E-11
  -2.75500007E-02  -3.09508183E-11
  -2.74999999E-02  -2.35435837E-11
  -2.74500009E-02  -1.81444113E-11
  -2.74000000E-02  -1.61512158E-11
  -2.73499992E-02  -1.74009869E-11
  -2.73000002E-02  -2.01850862E-11
  -2.72499993E-02  -2.19686751E-11
  -2.72000004E-02  -2.05138823E-11
  -2.71499995E-02  -1.49104912E-11
  -2.71000005E-02  -6.04085488E-12
  -2.70499997E-02   3.75445638E-12
  -2.70000007E-02   1.16881114E-11
  -2.69499999E-02   1.57791696E-11
  -2.69000009E-02   1.57857494E-11
  -2.68500000E-02   1.33800124E-11
  -2.67999992E-02   1.14571191E-11
  -2.67500002E-02   1.28603517E-11
  -2.66999993E-02   1.90810961E-11
  -2.66500004E-02   2.95244766E-11
  -2.65999995E-02   4.16957198E-11
  -2.65500005E-02   5.22562514E-11
  -2.64999997E-02   5.85010998E-11
  -2.64500007E-02   5.96013239E-11
  -2.63999999E-02   5.70386932E-11
  -2.63500009E-02   5.40065666E-11
  -2.63000000E-02   5.40129087E-11
  -2.62499992E-02   5.92918492E-11
  -2.62000002E-02   6.97383956E-11
  -2.61499994E-02   8.28676988E-11
  -2.61000004E-02   9.48524037E-11
  -2.60499995E-02   1.02203739E-10
  -2.60000005E-02   1.03355206E-10
  -2.59499997E-02   9.94268834E-11
  -2.59000007E-02   9.37960265E-11
  -2.58499999E-02   9.06289002E-11
  -2.58000009E-02   9.30049510E-11
  -2.57500000E-02   1.01470325E-10
  -2.56999992E-02   1.13690564E-10
  -2.56500002E-02   1.25395888E-10
  -2.55999994E-02   1.32233169E-10
  -2.55500004E-02   1.31715513E-10
  -2.54999995E-02   1.24390442E-10
  -2.54500005E-02   1.13673605E-10
  -2.53999997E-02   1.04381663E-10
  -2.53500007E-02   1.00588059E-10
  -2.52999999E-02   1.03751077E-10
  -2.52500009E-02   1.11969239E-10
  -2.52000000E-02   1.20735519E-10
  -2.51499992E-02   1.24894303E-10
  -2.51000002E-02   1.20951985E-10
  -2.50499994E-02   1.08706502E-10
  -2.50000004E-02   9.14378781E-11
  -2.49499995E-02   7.45300904E-11
  -2.49000005E-02   6.31003236E-11
  -2.48499997E-02   5.96775754E-11
  -2.48000007E-02   6.29810509E-11
  -2.47499999E-02   6.83829035E-11
  -2.47000009E-02   6.98954852E-11
  -2.46500000E-02   6.28301855E-11
  -2.45999992E-02   4.59468366E-11
  -2.45500002E-02   2.21090559E-11
  -2.44999994E-02  -2.89214095E-12
  -2.44500004E-02  -2.28665767E-11
  -2.43999995E-02  -3.40011075E-11
  -2.43500005E-02  -3.66371204E-11
  -2.42999997E-02  -3.52191575E-11
  -2.42500007E-02  -3.63873064E-11
  -2.41999999E-02  -4.60233796E-11
  -2.41500009E-02  -6.65556499E-11
  -2.41000000E-02  -9.57459320E-11
  -2.40499992E-02  -1.27547126E-10
  -2.40000002E-02  -1.54701085E-10
  -2.39499994E-02  -1.71952189E-10
  -2.39000004E-02  -1.78444357E-10
  -2.38499995E-02  -1.78198914E-10
  -2.38000005E-02  -1.78407122E-10
  -2.37499997E-02  -1.86249904E-10
  -2.37000007E-02  -2.05639131E-10
  -2.36499999E-02  -2.35346909E-10
  -2.36000009E-02  -2.69400918E-10
  -2.35500000E-02  -2.99624742E-10
  -2.34999992E-02  -3.19232085E-10
  -2.34500002E-02  -3.25881572E-10
  -2.33999994E-02  -3.22801647E-10
  -2.33500004E-02  -3.17430610E-10
  -2.32999995E-02  -3.18123888E-10
  -2.32500006E-02  -3.30364652E-10
  -2.31999997E-02  -3.54174690E-10
  -2.31500007E-02  -3.83921561E-10
  -2.30999999E-02  -4.10668333E-10
  -2.30500009E-02  -4.26069374E-10
  -2.30000000E-02  -4.26094909E-10
  -2.29499992E-02  -4.12902518E-10
  -2.29000002E-02  -3.93968802E-10
  -2.28499994E-02  -3.78807818E-10
  -2.28000004E-02  -3.74697356E-10
  -2.27499995E-02  -3.83314241E-10
  -2.27000006E-02  -3.99814903E-10
  -2.26499997E-02  -4.14830531E-10
  -2.26000007E-02  -4.18544338E-10
  -2.25499999E-02  -4.05061484E-10
  -2.25000009E-02  -3.75109693E-10
  -2.24500000E-02  -3.35816874E-10
  -2.23999992E-02  -2.97601166E-10
  -2.23500002E-02  -2.69510081E-10
  -2.22999994E-02  -2.55074656E-10
  -2.22500004E-02  -2.50557936E-10
  -2.21999995E-02  -2.46440146E-10
  -2.21500006E-02  -2.31543340E-10
  -2.20999997E-02  -1.97996744E-10
  -2.20500007E-02  -1.44826540E-10
  -2.19999999E-02  -7.85267060E-11
  -2.19500009E-02  -1.02908159E-11
  -2.19000001E-02   4.89176512E-11
  -2.18499992E-02   9.32813549E-11
  -2.18000002E-02   1.24818975E-10
  -2.17499994E-02   1.52592883E-10
  -2.17000004E-02   1.88722066E-10
  -2.16499995E-02   2.42931841E-10
  -2.16000006E-02   3.18066240E-10
  -2.15499997E-02   4.08601847E-10
  -2.15000007E-02   5.02892616E-10
  -2.14499999E-02   5.88206206E-10
  -2.14000009E-02   6.56339427E-10
  -2.13500001E-02   7.07294279E-10
  -2.12999992E-02   7.49323159E-10
  -2.12500002E-02   7.95253197E-10
  -2.11999994E-02   8.56673288E-10
  -2.11500004E-02   9.38562561E-10
  -2.10999995E-02   1.03678222E-09
  -2.10500006E-02   1.13961407E-09
  -2.09999997E-02   1.23272326E-09
  -2.09500007E-02   1.30537448E-09
  -2.08999999E-02   1.35512312E-09
  -2.08500009E-02   1.38884659E-09
  -2.08000001E-02   1.41958745E-09
  -2.07499992E-02   1.46056123E-09
  -2.07000002E-02   1.51897850E-09
  -2.06499994E-02   1.59246261E-09
  -2.06000004E-02   1.66972280E-09
  -2.05499995E-02   1.73524706E-09
  -2.05000006E-02   1.77597415E-09
  -2.04499997E-02   1.78696857E-09
  -2.04000007E-02   1.77352966E-09
  -2.03499999E-02   1.74872550E-09
  -2.03000009E-02   1.72738712E-09
  -2.02500001E-02   1.71921255E-09
  -2.01999992E-02   1.72406589E-09
  -2.01500002E-02   1.73162329E-09
  -2.00999994E-02   1.72558701E-09
  -2.00500004E-02   1.69064207E-09
  -1.99999996E-02   1.61905966E-09
  -1.99500006E-02   1.51397705E-09
  -1.98999997E-02   1.38782574E-09
  -1.98500007E-02   1.25655364E-09
  -1.97999999E-02   1.13218379E-09
  -1.97500009E-02   1.01704389E-09
  -1.97000001E-02   9.02285580E-10
  -1.96499992E-02   7.71424813E-10
  -1.96000002E-02   6.07377870E-10
  -1.95499994E-02   3.99867361E-10
  -1.95000004E-02   1.49874266E-10
  -1.94499996E-02  -1.30910408E-10
  -1.94000006E-02  -4.25454005E-10
  -1.93499997E-02  -7.19210524E-10
  -1.93000007E-02  -1.00692032E-09
  -1.92499999E-02  -1.29530575E-09
  -1.92000009E-02  -1.60040492E-09
  -1.91500001E-02  -1.94067518E-09
  -1.90999992E-02  -2.32893171E-09
  -1.90500002E-02  -2.76673240E-09
  -1.89999994E-02  -3.24376903E-09
  -1.89500004E-02  -3.74258802E-09
  -1.88999996E-02  -4.24657687E-09
  -1.88500006E-02  -4.74764406E-09
  -1.87999997E-02  -5.25013233E-09
  -1.87500007E-02  -5.76915582E-09
  -1.86999999E-02  -6.32405373E-09
  -1.86500009E-02  -6.92985491E-09
  -1.86000001E-02  -7.59058416E-09
  -1.85499992E-02  -8.29744007E-09
  -1.85000002E-02  -9.03271147E-09
  -1.84499994E-02  -9.77773862E-09
  -1.84000004E-02  -1.05213589E-08
  -1.83499996E-02  -1.12650413E-08
  -1.83000006E-02  -1.20223760E-08
  -1.82499997E-02  -1.28130990E-08
  -1.82000007E-02  -1.36542928E-08
  -1.81499999E-02  -1.45527101E-08
  -1.81000009E-02  -1.55016995E-08
  -1.80500001E-02  -1.64841278E-08
  -1.79999992E-02  -1.74800636E-08
  -1.79500002E-02  -1.84757649E-08
  -1.78999994E-02  -1.94699421E-08
  -1.78500004E-02  -2.04744488E-08
  -1.77999996E-02  -2.15090328E-08
  -1.77500006E-02  -2.25925056E-08
  -1.76999997E-02  -2.37342359E-08
  -1.76500008E-02  -2.49298502E-08
  -1.75999999E-02  -2.61630912E-08
  -1.75500009E-02  -2.74130230E-08
  -1.75000001E-02  -2.86634165E-08
  -1.74499992E-02  -2.99100442E-08
  -1.74000002E-02  -3.11626351E-08
  -1.73499994E-02  -3.24405534E-08
  -1.73000004E-02  -3.37641239E-08
  -1.72499996E-02  -3.51455220E-08
  -1.72000006E-02  -3.65833053E-08
  -1.71499997E-02  -3.80630922E-08
  -1.71000008E-02  -3.95641528E-08
  -1.70499999E-02  -4.10688656E-08
  -1.70000009E-02  -4.25708784E-08
  -1.69500001E-02  -4.40782486E-08
  -1.68999992E-02  -4.56101006E-08
  -1.68500002E-02  -4.71882871E-08
  -1.67999994E-02  -4.88278289E-08
  -1.67500004E-02  -5.05303817E-08
  -1.66999996E-02  -5.22837666E-08
  -1.66500006E-02  -5.40677263E-08
  -1.65999997E-02  -5.58634063E-08
  -1.65500008E-02  -5.76622234E-08
  -1.64999999E-02  -5.94701781E-08
  -1.64500009E-02  -6.13055988E-08
  -1.64000001E-02  -6.31913935E-08
  -1.63499992E-02  -6.51451799E-08
  -1.63000003E-02  -6.71719107E-08
  -1.62499994E-02  -6.92622137E-08
  -1.62000004E-02  -7.13972526E-08
  -1.61499996E-02  -7.35579206E-08
  -1.61000006E-02  -7.57342562E-08
  -1.60499997E-02  -7.79307143E-08
  -1.60000008E-02  -8.01650444E-08
  -1.59499999E-02  -8.24610709E-08
  -1.59000009E-02  -8.48388524E-08
  -1.58500001E-02  -8.73064749E-08
  -1.57999992E-02  -8.98572949E-08
  -1.57500003E-02  -9.24739396E-08
  -1.56999994E-02  -9.51370964E-08
  -1.56500004E-02  -9.78352617E-08
  -1.55999996E-02  -1.00571029E-07
  -1.55499997E-02  -1.03360939E-07
  -1.54999997E-02  -1.06229166E-07
  -1.54499998E-02  -1.09197678E-07
  -1.53999999E-02  -1.12277540E-07
  -1.53500000E-02  -1.15465177E-07
  -1.53000001E-02  -1.18745369E-07
  -1.52500002E-02  -1.22099507E-07
  -1.52000003E-02  -1.25515598E-07
  -1.51500003E-02  -1.28995111E-07
  -1.51000004E-02  -1.32553936E-07
  -1.50499996E-02  -1.36216656E-07
  -1.49999997E-02  -1.40007018E-07
  -1.49499997E-02  -1.43938749E-07
  -1.48999998E-02  -1.48010997E-07
  -1.48499999E-02  -1.52210291E-07
  -1.48000000E-02  -1.56518482E-07
  -1.47500001E-02  -1.60922596E-07
  -1.47000002E-02  -1.65422477E-07
  -1.46500003E-02  -1.70032607E-07
  -1.46000003E-02  -1.74777213E-07
  -1.45500004E-02  -1.79681066E-07
  -1.44999996E-02  -1.84760026E-07
  -1.44499997E-02  -1.90015740E-07
  -1.43999998E-02  -1.95436783E-07
  -1.43499998E-02  -2.01006017E-07
  -1.42999999E-02  -2.06710325E-07
  -1.42500000E-02  -2.12548741E-07
  -1.42000001E-02  -2.18534993E-07
  -1.41500002E-02  -2.24693324E-07
  -1.41000003E-02  -2.31049668E-07
  -1.40500003E-02  -2.37621848E-07
  -1.40000004E-02  -2.44413741E-07
  -1.39499996E-02  -2.51415855E-07
  -1.38999997E-02  -2.58611692E-07
  -1.38499998E-02  -2.65987751E-07
  -1.37999998E-02  -2.73541957E-07
  -1.37499999E-02  -2.81286702E-07
  -1.37000000E-02  -2.89245776E-07
  -1.36500001E-02  -2.97445382E-07
  -1.36000002E-02  -3.05904820E-07
  -1.35500003E-02  -3.14629858E-07
  -1.35000004E-02  -3.23612653E-07
  -1.34500004E-02  -3.32837857E-07
  -1.33999996E-02  -3.42292282E-07
  -1.33499997E-02  -3.51973569E-07
  -1.32999998E-02  -3.61893910E-07
  -1.32499998E-02  -3.72077295E-07
  -1.31999999E-02  -3.82551093E-07
  -1.31500000E-02  -3.93336308E-07
  -1.31000001E-02  -4.04440812E-07
  -1.30500002E-02  -4.15858409E-07
  -1.30000003E-02  -4.27574747E-07
  -1.29500004E-02  -4.39576667E-07
  -1.29000004E-02  -4.51861411E-07
  -1.28499996E-02  -4.64440802E-07
  -1.27999997E-02  -4.77338745E-07
  -1.27499998E-02  -4.90583318E-07
  -1.26999998E-02  -5.04197089E-07
  -1.26499999E-02  -5.18189722E-07
  -1.26000000E-02  -5.32556783E-07
  -1.25500001E-02  -5.47285254E-07
  -1.25000002E-02  -5.62363141E-07
  -1.24500003E-02  -5.77788114E-07
  -1.24000004E-02  -5.93572963E-07
  -1.23500004E-02  -6.09742983E-07
  -1.22999996E-02  -6.26328415E-07
  -1.22499997E-02  -6.43354440E-07
  -1.21999998E-02  -6.60833507E-07
  -1.21499998E-02  -6.78763797E-07
  -1.20999999E-02  -6.97134112E-07
  -1.20500000E-02  -7.15933709E-07
  -1.20000001E-02  -7.35161393E-07
  -1.19500002E-02  -7.54831092E-07
  -1.19000003E-02  -7.74969408E-07
  -1.18500004E-02  -7.95608457E-07
  -1.18000004E-02  -8.16775696E-07
  -1.17499996E-02  -8.38485505E-07
  -1.16999997E-02  -8.60737714E-07
  -1.16499998E-02  -8.83522603E-07
  -1.15999999E-02  -9.06830280E-07
  -1.15499999E-02  -9.30660804E-07
  -1.15000000E-02  -9.55029464E-07
  -1.14500001E-02  -9.79965421E-07
  -1.14000002E-02  -1.00550415E-06
  -1.13500003E-02  -1.03167667E-06
  -1.13000004E-02  -1.05850131E-06
  -1.12500004E-02  -1.08598147E-06
  -1.11999996E-02  -1.11411032E-06
  -1.11499997E-02  -1.14287980E-06
  -1.10999998E-02  -1.17229172E-06
  -1.10499999E-02  -1.20236325E-06
  -1.09999999E-02  -1.23312566E-06
  -1.09500000E-02  -1.26461680E-06
  -1.09000001E-02  -1.29687021E-06
  -1.08500002E-02  -1.32990681E-06
  -1.08000003E-02  -1.36373126E-06
  -1.07500004E-02  -1.39833764E-06
  -1.07000005E-02  -1.43371881E-06
  -1.06499996E-02  -1.46987770E-06
  -1.05999997E-02  -1.50683377E-06
  -1.05499998E-02  -1.54462157E-06
  -1.04999999E-02  -1.58328419E-06
  -1.04499999E-02  -1.62286051E-06
  -1.04000000E-02  -1.66337691E-06
  -1.03500001E-02  -1.70484293E-06
  -1.03000002E-02  -1.74725608E-06
  -1.02500003E-02  -1.79061226E-06
  -1.02000004E-02  -1.83491647E-06
  -1.01500005E-02  -1.88019033E-06
  -1.00999996E-02  -1.92647190E-06
  -1.00499997E-02  -1.97380791E-06
  -9.99999978E-03  -2.02224101E-06
  -9.94999986E-03  -2.07180074E-06
  -9.89999995E-03  -2.12249870E-06
  -9.85000003E-03  -2.17433376E-06
  -9.80000012E-03  -2.22730205E-06
  -9.75000020E-03  -2.28140925E-06
  -9.70000029E-03  -2.33667811E-06
  -9.65000037E-03  -2.39314932E-06
  -9.60000046E-03  -2.45087381E-06
  -9.54999961E-03  -2.50989979E-06
  -9.49999969E-03  -2.57026181E-06
  -9.44999978E-03  -2.63197694E-06
  -9.39999986E-03  -2.69504767E-06
  -9.34999995E-03  -2.75947355E-06
  -9.30000003E-03  -2.82526298E-06
  -9.25000012E-03  -2.89244304E-06
  -9.20000020E-03  -2.96105895E-06
  -9.15000029E-03  -3.03116803E-06
  -9.10000037E-03  -3.10282417E-06
  -9.05000046E-03  -3.17606828E-06
  -8.99999961E-03  -3.25092128E-06
  -8.94999970E-03  -3.32738819E-06
  -8.89999978E-03  -3.40546853E-06
  -8.84999987E-03  -3.48517119E-06
  -8.79999995E-03  -3.56652299E-06
  -8.75000004E-03  -3.64957168E-06
  -8.70000012E-03  -3.73437638E-06
  -8.65000021E-03  -3.82099597E-06
  -8.60000029E-03  -3.90947571E-06
  -8.55000038E-03  -3.99984219E-06
  -8.50000046E-03  -4.09210224E-06
  -8.44999962E-03  -4.18625905E-06
  -8.39999970E-03  -4.28232306E-06
  -8.34999979E-03  -4.38032566E-06
  -8.29999987E-03  -4.48031824E-06
  -8.24999996E-03  -4.58236718E-06
  -8.20000004E-03  -4.68653798E-06
  -8.15000013E-03  -4.79288428E-06
  -8.10000021E-03  -4.90143657E-06
  -8.05000030E-03  -5.01220939E-06
  -8.00000038E-03  -5.12520819E-06
  -7.95000046E-03  -5.24044617E-06
  -7.89999962E-03  -5.35795607E-06
  -7.84999970E-03  -5.47779291E-06
  -7.79999979E-03  -5.60002718E-06
  -7.74999987E-03  -5.72473027E-06
  -7.69999996E-03  -5.85196040E-06
  -7.65000004E-03  -5.98175393E-06
  -7.60000013E-03  -6.11412815E-06
  -7.55000021E-03  -6.24909035E-06
  -7.49999983E-03  -6.38665506E-06
  -7.44999992E-03  -6.52685594E-06
  -7.40000000E-03  -6.66974984E-06
  -7.35000009E-03  -6.81541269E-06
  -7.30000017E-03  -6.96392135E-06
  -7.24999979E-03  -7.11534085E-06
  -7.19999988E-03  -7.26971348E-06
  -7.14999996E-03  -7.42706061E-06
  -7.10000005E-03  -7.58739407E-06
  -7.05000013E-03  -7.75073022E-06
  -7.00000022E-03  -7.91710590E-06
  -6.94999984E-03  -8.08658115E-06
  -6.89999992E-03  -8.25923780E-06
  -6.85000001E-03  -8.43515772E-06
  -6.80000009E-03  -8.61441367E-06
  -6.75000018E-03  -8.79705385E-06
  -6.69999979E-03  -8.98310464E-06
  -6.64999988E-03  -9.17258058E-06
  -6.59999996E-03  -9.36550077E-06
  -6.55000005E-03  -9.56190161E-06
  -6.50000013E-03  -9.76184674E-06
  -6.45000022E-03  -9.96541712E-06
  -6.39999984E-03  -1.01727019E-05
  -6.34999992E-03  -1.03837747E-05
  -6.30000001E-03  -1.05986883E-05
  -6.25000009E-03  -1.08174718E-05
  -6.20000018E-03  -1.10401388E-05
  -6.14999980E-03  -1.12667094E-05
  -6.09999988E-03  -1.14972190E-05
  -6.04999997E-03  -1.17317331E-05
  -6.00000005E-03  -1.19703363E-05
  -5.95000014E-03  -1.22131205E-05
  -5.90000022E-03  -1.24601684E-05
  -5.84999984E-03  -1.27115381E-05
  -5.79999993E-03  -1.29672617E-05
  -5.75000001E-03  -1.32273553E-05
  -5.70000010E-03  -1.34918391E-05
  -5.65000018E-03  -1.37607549E-05
  -5.59999980E-03  -1.40341681E-05
  -5.54999989E-03  -1.43121679E-05
  -5.49999997E-03  -1.45948525E-05
  -5.45000006E-03  -1.48823055E-05
  -5.40000014E-03  -1.51745899E-05
  -5.35000023E-03  -1.54717382E-05
  -5.29999984E-03  -1.57737650E-05
  -5.24999993E-03  -1.60806903E-05
  -5.20000001E-03  -1.63925470E-05
  -5.15000010E-03  -1.67094040E-05
  -5.10000018E-03  -1.70313488E-05
  -5.04999980E-03  -1.73584813E-05
  -4.99999989E-03  -1.76908852E-05
  -4.94999997E-03  -1.80286243E-05
  -4.90000006E-03  -1.83717329E-05
  -4.85000014E-03  -1.87202259E-05
  -4.80000023E-03  -1.90741193E-05
  -4.74999985E-03  -1.94334480E-05
  -4.69999993E-03  -1.97982845E-05
  -4.65000002E-03  -2.01687217E-05
  -4.60000010E-03  -2.05448614E-05
  -4.55000019E-03  -2.09267982E-05
  -4.49999981E-03  -2.13145941E-05
  -4.44999989E-03  -2.17082816E-05
  -4.39999998E-03  -2.21078753E-05
  -4.35000006E-03  -2.25133863E-05
  -4.30000015E-03  -2.29248453E-05
  -4.25000023E-03  -2.33423179E-05
  -4.19999985E-03  -2.37658951E-05
  -4.14999994E-03  -2.41956823E-05
  -4.10000002E-03  -2.46317704E-05
  -4.05000011E-03  -2.50742214E-05
  -4.00000019E-03  -2.55230625E-05
  -3.94999981E-03  -2.59782973E-05
  -3.89999989E-03  -2.64399350E-05
  -3.84999998E-03  -2.69079992E-05
  -3.80000006E-03  -2.73825535E-05
  -3.74999992E-03  -2.78636908E-05
  -3.70000000E-03  -2.83515128E-05
  -3.65000009E-03  -2.88461197E-05
  -3.59999994E-03  -2.93475714E-05
  -3.55000002E-03  -2.98558989E-05
  -3.50000011E-03  -3.03711004E-05
  -3.44999996E-03  -3.08931740E-05
  -3.40000005E-03  -3.14221361E-05
  -3.34999990E-03  -3.19580431E-05
  -3.29999998E-03  -3.25009860E-05
  -3.25000007E-03  -3.30510629E-05
  -3.19999992E-03  -3.36083831E-05
  -3.15000000E-03  -3.41730010E-05
  -3.10000009E-03  -3.47449422E-05
  -3.04999994E-03  -3.53241885E-05
  -3.00000003E-03  -3.59107325E-05
  -2.95000011E-03  -3.65045744E-05
  -2.89999996E-03  -3.71057540E-05
  -2.85000005E-03  -3.77143515E-05
  -2.79999990E-03  -3.83304832E-05
  -2.74999999E-03  -3.89542402E-05
  -2.70000007E-03  -3.95856841E-05
  -2.64999992E-03  -4.02248334E-05
  -2.60000001E-03  -4.08716551E-05
  -2.55000009E-03  -4.15261202E-05
  -2.49999994E-03  -4.21882141E-05
  -2.45000003E-03  -4.28579588E-05
  -2.40000011E-03  -4.35354450E-05
  -2.34999997E-03  -4.42207711E-05
  -2.30000005E-03  -4.49140352E-05
  -2.24999990E-03  -4.56152920E-05
  -2.19999999E-03  -4.63245451E-05
  -2.15000007E-03  -4.70417544E-05
  -2.09999993E-03  -4.77668582E-05
  -2.05000001E-03  -4.84998309E-05
  -2.00000009E-03  -4.92406725E-05
  -1.94999995E-03  -4.99894595E-05
  -1.90000003E-03  -5.07462828E-05
  -1.85000000E-03  -5.15112333E-05
  -1.79999997E-03  -5.22843693E-05
  -1.75000005E-03  -5.30656762E-05
  -1.70000002E-03  -5.38550958E-05
  -1.64999999E-03  -5.46525298E-05
  -1.59999996E-03  -5.54579128E-05
  -1.55000004E-03  -5.62712376E-05
  -1.50000001E-03  -5.70925404E-05
  -1.44999998E-03  -5.79219231E-05
  -1.39999995E-03  -5.87594623E-05
  -1.35000004E-03  -5.96052050E-05
  -1.30000000E-03  -6.04591369E-05
  -1.24999997E-03  -6.13211669E-05
  -1.20000006E-03  -6.21911677E-05
  -1.15000003E-03  -6.30690483E-05
  -1.09999999E-03  -6.39547434E-05
  -1.04999996E-03  -6.48482965E-05
  -1.00000005E-03  -6.57497803E-05
  -9.50000016E-04  -6.66592678E-05
  -8.99999985E-04  -6.75768097E-05
  -8.50000011E-04  -6.85023770E-05
  -7.99999980E-04  -6.94358387E-05
  -7.50000007E-04  -7.03770420E-05
  -6.99999975E-04  -7.13258341E-05
  -6.50000002E-04  -7.22821133E-05
  -6.00000028E-04  -7.32458720E-05
  -5.49999997E-04  -7.42171687E-05
  -5.00000024E-04  -7.51960761E-05
  -4.49999992E-04  -7.61826159E-05
  -3.99999990E-04  -7.71767372E-05
  -3.49999988E-04  -7.81783092E-05
  -3.00000014E-04  -7.91871134E-05
  -2.50000012E-04  -8.02029390E-05
  -1.99999995E-04  -8.12256476E-05
  -1.50000007E-04  -8.22551810E-05
  -9.99999975E-05  -8.32915757E-05
  -4.99999987E-05  -8.43348971E-05
   0.00000000      -8.53851598E-05
   4.99999987E-05  -8.64422909E-05
   9.99999975E-05  -8.75061305E-05
   1.50000007E-04  -8.85764239E-05
   1.99999995E-04  -8.96528945E-05
   2.50000012E-04  -9.07353460E-05
   3.00000014E-04  -9.18236838E-05
   3.49999988E-04  -9.29178859E-05
   3.99999990E-04  -9.40179962E-05
   4.49999992E-04  -9.51240218E-05
   5.00000024E-04  -9.62358681E-05
   5.49999997E-04  -9.73533315E-05
   6.00000028E-04  -9.84760991E-05
   6.50000002E-04  -9.96038652E-05
   6.99999975E-04  -1.00736332E-04
   7.50000007E-04  -1.01873346E-04
   7.99999980E-04  -1.03014834E-04
   8.50000011E-04  -1.04160812E-04
   8.99999985E-04  -1.05311272E-04
   9.50000016E-04  -1.06466105E-04
   1.00000005E-03  -1.07625077E-04
   1.04999996E-03  -1.08787848E-04
   1.09999999E-03  -1.09954017E-04
   1.15000003E-03  -1.11123241E-04
   1.20000006E-03  -1.12295260E-04
   1.24999997E-03  -1.13469978E-04
   1.30000000E-03  -1.14647359E-04
   1.35000004E-03  -1.15827359E-04
   1.39999995E-03  -1.17009877E-04
   1.44999998E-03  -1.18194635E-04
   1.50000001E-03  -1.19381235E-04
   1.55000004E-03  -1.20569202E-04
   1.59999996E-03  -1.21758116E-04
   1.64999999E-03  -1.22947662E-04
   1.70000002E-03  -1.24137630E-04
   1.75000005E-03  -1.25327977E-04
   1.79999997E-03  -1.26518615E-04
   1.85000000E-03  -1.27709383E-04
   1.90000003E-03  -1.28900007E-04
   1.94999995E-03  -1.30090048E-04
   2.00000009E-03  -1.31278954E-04
   2.05000001E-03  -1.32466230E-04
   2.09999993E-03  -1.33651454E-04
   2.15000007E-03  -1.34834365E-04
   2.19999999E-03  -1.36014831E-04
   2.24999990E-03  -1.37192736E-04
   2.30000005E-03  -1.38367934E-04
   2.34999997E-03  -1.39540090E-04
   2.40000011E-03  -1.40708726E-04
   2.45000003E-03  -1.41873243E-04
   2.49999994E-03  -1.43033016E-04
   2.55000009E-03  -1.44187550E-04
   2.60000001E-03  -1.45336497E-04
   2.64999992E-03  -1.46479666E-04
   2.70000007E-03  -1.47616913E-04
   2.74999999E-03  -1.48748033E-04
   2.79999990E-03  -1.49872722E-04