  -3.99999991E-02   0.00000000    
  -3.99499983E-02   0.00000000    
  -3.99000011E-02   0.00000000    
  -3.98500003E-02   0.00000000    
  -3.97999994E-02   0.00000000    
  -3.97499986E-02   3.23639221E-21
  -3.97000015E-02   2.48889486E-20
  -3.96500006E-02   9.96220787E-20
  -3.95999998E-02   2.78845867E-19
  -3.95499989E-02   6.23640622E-19
  -3.95000018E-02   1.21124471E-18
  -3.94500010E-02   2.15110448E-18
  -3.94000001E-02   3.56742608E-18
  -3.93499993E-02   5.51429367E-18
  -3.92999984E-02   7.87183452E-18
  -3.92500013E-02   1.03436611E-17
  -3.92000005E-02   1.26213708E-17
  -3.91499996E-02   1.46155684E-17
  -3.90999988E-02   1.65493248E-17
  -3.90500017E-02   1.88124760E-17
  -3.90000008E-02   2.16958589E-17
  -3.89500000E-02   2.52149896E-17
  -3.88999991E-02   2.90873827E-17
  -3.88499983E-02   3.27414630E-17
  -3.88000011E-02   3.52717423E-17
  -3.87500003E-02   3.54781470E-17
  -3.86999995E-02   3.21958580E-17
  -3.86499986E-02   2.48271693E-17
  -3.86000015E-02   1.36048546E-17
  -3.85500006E-02  -8.39644467E-19
  -3.84999998E-02  -1.84533390E-17
  -3.84499989E-02  -4.05675544E-17
  -3.84000018E-02  -6.98934200E-17
  -3.83500010E-02  -1.09757325E-16
  -3.83000001E-02  -1.63204138E-16
  -3.82499993E-02  -2.32470416E-16
  -3.81999984E-02  -3.18760362E-16
  -3.81500013E-02  -4.22026437E-16
  -3.81000005E-02  -5.40862459E-16
  -3.80499996E-02  -6.73031416E-16
  -3.79999988E-02  -8.16809806E-16
  -3.79500017E-02  -9.72395200E-16
  -3.79000008E-02  -1.14218878E-15
  -3.78500000E-02  -1.32954325E-15
  -3.77999991E-02  -1.53691958E-15
  -3.77499983E-02  -1.76489807E-15
  -3.77000012E-02  -2.01254097E-15
  -3.76500003E-02  -2.27827341E-15
  -3.75999995E-02  -2.56018165E-15
  -3.75499986E-02  -2.85566253E-15
  -3.75000015E-02  -3.16130208E-15
  -3.74500006E-02  -3.47351885E-15
  -3.73999998E-02  -3.78929591E-15
  -3.73499990E-02  -4.10583593E-15
  -3.73000018E-02  -4.41900773E-15
  -3.72500010E-02  -4.72181481E-15
  -3.72000001E-02  -5.00411268E-15
  -3.71499993E-02  -5.25336653E-15
  -3.70999984E-02  -5.45513867E-15
  -3.70500013E-02  -5.59274467E-15
  -3.70000005E-02  -5.64738889E-15
  -3.69499996E-02  -5.60065003E-15
  -3.68999988E-02  -5.43929026E-15
  -3.68500017E-02  -5.15958981E-15
  -3.68000008E-02  -4.76773713E-15
  -3.67500000E-02  -4.27514511E-15
  -3.66999991E-02  -3.69078894E-15
  -3.66499983E-02  -3.01408839E-15
  -3.66000012E-02  -2.23088277E-15
  -3.65500003E-02  -1.31355572E-15
  -3.64999995E-02  -2.25718160E-16
  -3.64499986E-02   1.06865192E-15
  -3.64000015E-02   2.59376184E-15
  -3.63500006E-02   4.35343637E-15
  -3.62999998E-02   6.33149928E-15
  -3.62499990E-02   8.50315031E-15
  -3.62000018E-02   1.08520760E-14
  -3.61500010E-02   1.33830596E-14
  -3.61000001E-02   1.61211851E-14
  -3.60499993E-02   1.90962138E-14
  -3.59999985E-02   2.23188963E-14
  -3.59500013E-02   2.57604861E-14
  -3.59000005E-02   2.93456225E-14
  -3.58499996E-02   3.29644555E-14
  -3.57999988E-02   3.65030475E-14
  -3.57500017E-02   3.98829190E-14
  -3.57000008E-02   4.30929096E-14
  -3.56500000E-02   4.61948764E-14
  -3.55999991E-02   4.92929333E-14
  -3.55499983E-02   5.24741857E-14
  -3.55000012E-02   5.57462029E-14
  -3.54500003E-02   5.90027498E-14
  -3.53999995E-02   6.20384684E-14
  -3.53499986E-02   6.46105009E-14
  -3.53000015E-02   6.65222949E-14
  -3.52500007E-02   6.76931791E-14
  -3.51999998E-02   6.81805144E-14
  -3.51499990E-02   6.81384880E-14
  -3.51000018E-02   6.77240992E-14
  -3.50500010E-02   6.69871737E-14
  -3.50000001E-02   6.57962183E-14
  -3.49499993E-02   6.38436651E-14
  -3.48999985E-02   6.07407801E-14
  -3.48500013E-02   5.61673781E-14
  -3.48000005E-02   5.00082729E-14
  -3.47499996E-02   4.24075143E-14
  -3.46999988E-02   3.37060939E-14
  -3.46500017E-02   2.42828828E-14
  -3.46000008E-02   1.43663208E-14
  -3.45500000E-02   3.90360555E-15
  -3.44999991E-02  -7.44479534E-15
  -3.44499983E-02  -2.01682085E-14
  -3.44000012E-02  -3.46747303E-14
  -3.43500003E-02  -5.10663763E-14
  -3.42999995E-02  -6.90319994E-14
  -3.42499986E-02  -8.79268378E-14
  -3.42000015E-02  -1.07022518E-13
  -3.41500007E-02  -1.25822936E-13
  -3.40999998E-02  -1.44295979E-13
  -3.40499990E-02  -1.62897622E-13
  -3.40000018E-02  -1.82355053E-13
  -3.39500010E-02  -2.03289385E-13
  -3.39000002E-02  -2.25841169E-13
  -3.38499993E-02  -2.49475435E-13
  -3.37999985E-02  -2.73075724E-13
  -3.37500013E-02  -2.95313741E-13
  -3.37000005E-02  -3.15149518E-13
  -3.36499996E-02  -3.32239417E-13
  -3.35999988E-02  -3.47047965E-13
  -3.35500017E-02  -3.60579540E-13
  -3.35000008E-02  -3.73825401E-13
  -3.34500000E-02  -3.87167159E-13
  -3.33999991E-02  -4.00022056E-13
  -3.33499983E-02  -4.10920050E-13
  -3.33000012E-02  -4.18010841E-13
  -3.32500003E-02  -4.19795383E-13
  -3.31999995E-02  -4.15754426E-13
  -3.31499986E-02  -4.06573131E-13
  -3.31000015E-02  -3.93821938E-13
  -3.30500007E-02  -3.79198273E-13
  -3.29999998E-02  -3.63649052E-13
  -3.29499990E-02  -3.46779490E-13
  -3.29000019E-02  -3.26856055E-13
  -3.28500010E-02  -3.01449051E-13
  -3.28000002E-02  -2.68460222E-13
  -3.27499993E-02  -2.27073013E-13
  -3.26999985E-02  -1.78169423E-13
  -3.26500013E-02  -1.23982476E-13
  -3.26000005E-02  -6.71033324E-14
  -3.25499997E-02  -9.27230789E-15
  -3.24999988E-02   4.94864871E-14
  -3.24500017E-02   1.10952216E-13
  -3.24000008E-02   1.77914026E-13
  -3.23500000E-02   2.52804749E-13
  -3.22999991E-02   3.36363316E-13
  -3.22499983E-02   4.26965944E-13
  -3.22000012E-02   5.20999422E-13
  -3.21500003E-02   6.14180907E-13
  -3.20999995E-02   7.03269528E-13
  -3.20499986E-02   7.87389468E-13
  -3.20000015E-02   8.68319089E-13
  -3.19500007E-02   9.49547949E-13
  -3.18999998E-02   1.03446873E-12
  -3.18499990E-02   1.12449546E-12
  -3.18000019E-02   1.21797407E-12
  -3.17500010E-02   1.31044058E-12
  -3.17000002E-02   1.39618720E-12
  -3.16499993E-02   1.47049256E-12
  -3.15999985E-02   1.53151396E-12
  -3.15500014E-02   1.58093482E-12
  -3.15000005E-02   1.62299644E-12
  -3.14499997E-02   1.66227297E-12
  -3.13999988E-02   1.70117392E-12
  -3.13500017E-02   1.73832932E-12
  -3.13000008E-02   1.76866486E-12
  -3.12500000E-02   1.78521304E-12
  -3.11999992E-02   1.78190947E-12
  -3.11500002E-02   1.75613029E-12
  -3.10999993E-02   1.70978466E-12
  -3.10500003E-02   1.64839052E-12
  -3.09999995E-02   1.57845709E-12
  -3.09500005E-02   1.50430894E-12
  -3.08999997E-02   1.42580218E-12
  -3.08500007E-02   1.33805087E-12
  -3.07999998E-02   1.23339501E-12
  -3.07500008E-02   1.10479095E-12
  -3.07000000E-02   9.49110690E-13
  -3.06499992E-02   7.68802773E-13
  -3.06000002E-02   5.71077853E-13
  -3.05499993E-02   3.64888241E-13
  -3.05000003E-02   1.57008385E-13
  -3.04499995E-02  -5.10130810E-14
  -3.04000005E-02  -2.63573993E-13
  -3.03499997E-02  -4.88974150E-13
  -3.03000007E-02  -7.35408696E-13
  -3.02499998E-02  -1.00675555E-12
  -3.02000009E-02  -1.30010217E-12
  -3.01500000E-02  -1.60622459E-12
  -3.00999992E-02  -1.91292945E-12
  -3.00500002E-02  -2.20983019E-12
  -2.99999993E-02  -2.49241469E-12
  -2.99500003E-02  -2.76351446E-12
  -2.98999995E-02  -3.03142364E-12
  -2.98500005E-02  -3.30541714E-12
  -2.97999997E-02  -3.59064276E-12
  -2.97500007E-02  -3.88469552E-12
  -2.96999998E-02  -4.17750600E-12
  -2.96500009E-02  -4.45471828E-12
  -2.96000000E-02  -4.70315020E-12
  -2.95499992E-02  -4.91590319E-12
  -2.95000002E-02  -5.09477833E-12
  -2.94499993E-02  -5.24879662E-12
  -2.94000003E-02  -5.38939856E-12
  -2.93499995E-02  -5.52441469E-12
  -2.93000005E-02  -5.65353840E-12
  -2.92499997E-02  -5.76740175E-12
  -2.92000007E-02  -5.85075868E-12
  -2.91499998E-02  -5.88843297E-12
  -2.91000009E-02  -5.87140623E-12
  -2.90500000E-02  -5.80029297E-12
  -2.89999992E-02  -5.68455309E-12
  -2.89500002E-02  -5.53769183E-12
  -2.88999993E-02  -5.37052781E-12
  -2.88500004E-02  -5.18557072E-12
  -2.87999995E-02  -4.97512925E-12
  -2.87500005E-02  -4.72412474E-12
  -2.86999997E-02  -4.41646025E-12
  -2.86500007E-02  -4.04212861E-12
  -2.85999998E-02  -3.60187487E-12
  -2.85500009E-02  -3.10724320E-12
  -2.85000000E-02  -2.57588113E-12
  -2.84499992E-02  -2.02410593E-12
  -2.84000002E-02  -1.45998860E-12
  -2.83499993E-02  -8.80078779E-13
  -2.83000004E-02  -2.71327719E-13
  -2.82499995E-02   3.82530840E-13
  -2.82000005E-02   1.09289921E-12
  -2.81499997E-02   1.86013488E-12
  -2.81000007E-02   2.67208911E-12
  -2.80499998E-02   3.50808813E-12
  -2.80000009E-02   4.34666235E-12
  -2.79500000E-02   5.17362585E-12
  -2.78999992E-02   5.98689848E-12
  -2.78500002E-02   6.79590715E-12
  -2.77999993E-02   7.61572923E-12
  -2.77500004E-02   8.45849866E-12
  -2.76999995E-02   9.32584652E-12
  -2.76500005E-02   1.02057633E-11
  -2.75999997E-02   1.10753568E-11
  -2.75500007E-02   1.19084126E-11
  -2.74999999E-02   1.26844620E-11
  -2.74500009E-02   1.33953655E-11
  -2.74000000E-02   1.40464897E-11
  -2.73499992E-02   1.46519116E-11
  -2.73000002E-02   1.52257078E-11
  -2.72499993E-02   1.57731900E-11
  -2.72000004E-02   1.62859275E-11
  -2.71499995E-02   1.67428155E-11
  -2.71000005E-02   1.71168323E-11
  -2.70499997E-02   1.73845799E-11
  -2.70000007E-02   1.75344982E-11
  -2.69499999E-02   1.75700669E-11
  -2.69000009E-02   1.75065292E-11
  -2.68500000E-02   1.73624743E-11
  -2.67999992E-02   1.71499048E-11
  -2.67500002E-02   1.68671986E-11
  -2.66999993E-02   1.64981084E-11
  -2.66500004E-02   1.60173472E-11
  -2.65999995E-02   1.54004327E-11
  -2.65500005E-02   1.46336034E-11
  -2.64999997E-02   1.37195038E-11
  -2.64500007E-02   1.26760902E-11
  -2.63999999E-02   1.15291023E-11
  -2.63500009E-02   1.03012373E-11
  -2.63000000E-02   9.00270483E-12
  -2.62499992E-02   7.62730244E-12
  -2.62000002E-02   6.15586748E-12
  -2.61499994E-02   4.56578698E-12
  -2.61000004E-02   2.84254608E-12
  -2.60499995E-02   9.88292239E-13
  -2.60000005E-02  -9.76308986E-13
  -2.59499997E-02  -3.01791057E-12
  -2.59000007E-02  -5.10162529E-12
  -2.58499999E-02  -7.20282341E-12
  -2.58000009E-02  -9.31444765E-12
  -2.57500000E-02  -1.14466717E-11
  -2.56999992E-02  -1.36187459E-11
  -2.56500002E-02  -1.58464405E-11
  -2.55999994E-02  -1.81304381E-11
  -2.55500004E-02  -2.04508008E-11
  -2.54999995E-02  -2.27701157E-11
  -2.54500005E-02  -2.50441230E-11
  -2.53999997E-02  -2.72354847E-11
  -2.53500007E-02  -2.93246399E-11
  -2.52999999E-02  -3.13130286E-11
  -2.52500009E-02  -3.32170715E-11
  -2.52000000E-02  -3.50553128E-11
  -2.51499992E-02  -3.68341642E-11
  -2.51000002E-02  -3.85385439E-11
  -2.50499994E-02  -4.01318145E-11
  -2.50000004E-02  -4.15653727E-11
  -2.49499995E-02  -4.27941189E-11
  -2.49000005E-02  -4.37911027E-11
  -2.48499997E-02  -4.45548945E-11
  -2.48000007E-02  -4.51061272E-11
  -2.47499999E-02  -4.54743951E-11
  -2.47000009E-02  -4.56810215E-11
  -2.46500000E-02  -4.57251702E-11
  -2.45999992E-02  -4.55796199E-11
  -2.45500002E-02  -4.51984526E-11
  -2.44999994E-02  -4.45337968E-11
  -2.44500004E-02  -4.35544795E-11
  -2.43999995E-02  -4.22584120E-11
  -2.43500005E-02  -4.06729025E-11
  -2.42999997E-02  -3.88423287E-11
  -2.42500007E-02  -3.68082405E-11
  -2.41999999E-02  -3.45905006E-11
  -2.41500009E-02  -3.21780415E-11
  -2.41000000E-02  -2.95337227E-11
  -2.40499992E-02  -2.66117042E-11
  -2.40000002E-02  -2.33800462E-11
  -2.39499994E-02  -1.98385613E-11
  -2.39000004E-02  -1.60238055E-11
  -2.38499995E-02  -1.19984916E-11
  -2.38000005E-02  -7.82952696E-12
  -2.37499997E-02  -3.56406636E-12
  -2.37000007E-02   7.85702178E-13
  -2.36499999E-02   5.24196572E-12
  -2.36000009E-02   9.84454185E-12
  -2.35500000E-02   1.46251015E-11
  -2.34999992E-02   1.95837443E-11
  -2.34500002E-02   2.46786359E-11
  -2.33999994E-02   2.98338368E-11
  -2.33500004E-02   3.49624427E-11
  -2.32999995E-02   3.99949310E-11
  -2.32500006E-02   4.49000524E-11
  -2.31999997E-02   4.96887462E-11
  -2.31500007E-02   5.43986765E-11
  -2.30999999E-02   5.90658009E-11
  -2.30500009E-02   6.36956113E-11
  -2.30000000E-02   6.82470677E-11
  -2.29499992E-02   7.26372643E-11
  -2.29000002E-02   7.67652886E-11
  -2.28499994E-02   8.05451331E-11
  -2.28000004E-02   8.39329092E-11
  -2.27499995E-02   8.69357988E-11
  -2.27000006E-02   8.95983981E-11
  -2.26499997E-02   9.19718399E-11
  -2.26000007E-02   9.40794734E-11
  -2.25499999E-02   9.58947366E-11
  -2.25000009E-02   9.73416001E-11
  -2.24500000E-02   9.83184367E-11
  -2.23999992E-02   9.87349300E-11
  -2.23500002E-02   9.85458520E-11
  -2.22999994E-02   9.77662187E-11
  -2.22500004E-02   9.64603952E-11
  -2.21999995E-02   9.47094694E-11
  -2.21500006E-02   9.25712840E-11
  -2.20999997E-02   9.00511193E-11
  -2.20500007E-02   8.70967881E-11
  -2.19999999E-02   8.36209504E-11
  -2.19500009E-02   7.95409433E-11
  -2.19000001E-02   7.48185749E-11
  -2.18499992E-02   6.94817606E-11
  -2.18000002E-02   6.36177430E-11
  -2.17499994E-02   5.73405039E-11
  -2.17000004E-02   5.07465077E-11
  -2.16499995E-02   4.38789942E-11
  -2.16000006E-02   3.67172820E-11
  -2.15499997E-02   2.91965896E-11
  -2.15000007E-02   2.12498092E-11
  -2.14499999E-02   1.28524942E-11
  -2.14000009E-02   4.05046569E-12
  -2.13500001E-02  -5.04301679E-12
  -2.12999992E-02  -1.42796573E-11
  -2.12500002E-02  -2.35241288E-11
  -2.11999994E-02  -3.26958634E-11
  -2.11500004E-02  -4.17855854E-11
  -2.10999995E-02  -5.08386250E-11
  -2.10500006E-02  -5.99120753E-11
  -2.09999997E-02  -6.90251051E-11
  -2.09500007E-02  -7.81252840E-11
  -2.08999999E-02  -8.70867822E-11
  -2.08500009E-02  -9.57419283E-11
  -2.08000001E-02  -1.03932321E-10
  -2.07499992E-02  -1.11556465E-10
  -2.07000002E-02  -1.18592067E-10
  -2.06499994E-02  -1.25082653E-10
  -2.06000004E-02  -1.31093997E-10
  -2.05499995E-02  -1.36660155E-10
  -2.05000006E-02  -1.41743575E-10
  -2.04499997E-02  -1.46228099E-10
  -2.04000007E-02  -1.49948665E-10
  -2.03499999E-02  -1.52744789E-10
  -2.03000009E-02  -1.54513957E-10
  -2.02500001E-02  -1.55240931E-10
  -2.01999992E-02  -1.54988786E-10
  -2.01500002E-02  -1.53856025E-10
  -2.00999994E-02  -1.51919047E-10
  -2.00500004E-02  -1.49185969E-10
  -1.99999996E-02  -1.45583587E-10
  -1.99500006E-02  -1.40983294E-10
  -1.98999997E-02  -1.35254835E-10
  -1.98500007E-02  -1.28323574E-10
  -1.97999999E-02  -1.20205262E-10
  -1.97500009E-02  -1.11002263E-10
  -1.97000001E-02  -1.00862659E-10
  -1.96499992E-02  -8.99208000E-11
  -1.96000002E-02  -7.82464996E-11
  -1.95499994E-02  -6.58264276E-11
  -1.95000004E-02  -5.25864872E-11
  -1.94499996E-02  -3.84453788E-11
  -1.94000006E-02  -2.33748472E-11
  -1.93499997E-02  -7.43911009E-12
  -1.93000007E-02   9.20475762E-12
  -1.92499999E-02   2.63459254E-11
  -1.92000009E-02   4.37806701E-11
  -1.91500001E-02   6.13676540E-11
  -1.90999992E-02   7.90518345E-11
  -1.90500002E-02   9.68460451E-11
  -1.89999994E-02   1.14778180E-10
  -1.89500004E-02   1.32828276E-10
  -1.88999996E-02   1.50884125E-10
  -1.88500006E-02   1.68736247E-10
  -1.87999997E-02   1.86114901E-10
  -1.87500007E-02   2.02752648E-10
  -1.86999999E-02   2.18443999E-10
  -1.86500009E-02   2.33075198E-10
  -1.86000001E-02   2.46610510E-10
  -1.85499992E-02   2.59040983E-10
  -1.85000002E-02   2.70319184E-10
  -1.84499994E-02   2.80309803E-10
  -1.84000004E-02   2.88778584E-10
  -1.83499996E-02   2.95425268E-10
  -1.83000006E-02   2.99945846E-10
  -1.82499997E-02   3.02095821E-10
  -1.82000007E-02   3.01725867E-10
  -1.81499999E-02   2.98773756E-10
  -1.81000009E-02   2.93216174E-10
  -1.80500001E-02   2.85002716E-10
  -1.79999992E-02   2.74002682E-10
  -1.79500002E-02   2.59988253E-10
  -1.78999994E-02   2.42663528E-10
  -1.78500004E-02   2.21725277E-10
  -1.77999996E-02   1.96928501E-10
  -1.77500006E-02   1.68126707E-10
  -1.76999997E-02   1.35268949E-10
  -1.76500008E-02   9.83555390E-11
  -1.75999999E-02   5.73715138E-11
  -1.75500009E-02   1.22296539E-11
  -1.75000001E-02  -3.72521354E-11
  -1.74499992E-02  -9.13262382E-11
  -1.74000002E-02  -1.50256932E-10
  -1.73499994E-02  -2.14253282E-10
  -1.73000004E-02  -2.83425228E-10
  -1.72499996E-02  -3.57781554E-10
  -1.72000006E-02  -4.37272024E-10
  -1.71499997E-02  -5.21853893E-10
  -1.71000008E-02  -6.11553030E-10
  -1.70499999E-02  -7.06491254E-10
  -1.70000009E-02  -8.06867351E-10
  -1.69500001E-02  -9.12899589E-10
  -1.68999992E-02  -1.02475539E-09
  -1.68500002E-02  -1.14250009E-09
  -1.67999994E-02  -1.26609045E-09
  -1.67500004E-02  -1.39541434E-09
  -1.66999996E-02  -1.53035618E-09
  -1.66500006E-02  -1.67086323E-09
  -1.65999997E-02  -1.81698068E-09
  -1.65500008E-02  -1.96884109E-09
  -1.64999999E-02  -2.12661133E-09
  -1.64500009E-02  -2.29041985E-09
  -1.64000001E-02  -2.46030218E-09
  -1.63499992E-02  -2.63618416E-09
  -1.63000003E-02  -2.81791568E-09
  -1.62499994E-02  -3.00533820E-09
  -1.62000004E-02  -3.19835136E-09
  -1.61499996E-02  -3.39695627E-09
  -1.61000006E-02  -3.60124996E-09
  -1.60499997E-02  -3.81137788E-09
  -1.60000008E-02  -4.02746236E-09
  -1.59499999E-02  -4.24954072E-09
  -1.59000009E-02  -4.47754323E-09
  -1.58500001E-02  -4.71131756E-09
  -1.57999992E-02  -4.95069763E-09
  -1.57500003E-02  -5.19557641E-09
  -1.56999994E-02  -5.44595036E-09
  -1.56500004E-02  -5.70192338E-09
  -1.55999996E-02  -5.96366023E-09
  -1.55499997E-02  -6.23131857E-09
  -1.54999997E-02  -6.50498722E-09
  -1.54499998E-02  -6.78464485E-09
  -1.53999999E-02  -7.07018533E-09
  -1.53500000E-02  -7.36148031E-09
  -1.53000001E-02  -7.65845787E-09
  -1.52500002E-02  -7.96115707E-09
  -1.52000003E-02  -8.26974045E-09
  -1.51500003E-02  -8.58444693E-09
  -1.51000004E-02  -8.90552521E-09
  -1.50499996E-02  -9.23315913E-09
  -1.49999997E-02  -9.56742863E-09
  -1.49499997E-02  -9.90831683E-09
  -1.48999998E-02  -1.02557758E-08
  -1.48499999E-02  -1.06098019E-08
  -1.48000000E-02  -1.09705010E-08
  -1.47500001E-02  -1.13381144E-08
  -1.47000002E-02  -1.17129897E-08
  -1.46500003E-02  -1.20954988E-08
  -1.46000003E-02  -1.24859616E-08
  -1.45500004E-02  -1.28845867E-08
  -1.44999996E-02  -1.32914861E-08
  -1.44499997E-02  -1.37067140E-08
  -1.43999998E-02  -1.41303653E-08
  -1.43499998E-02  -1.45626435E-08
  -1.42999999E-02  -1.50038897E-08
  -1.42500000E-02  -1.54545621E-08
  -1.42000001E-02  -1.59151625E-08
  -1.41500002E-02  -1.63861635E-08
  -1.41000003E-02  -1.68679382E-08
  -1.40500003E-02  -1.73607351E-08
  -1.40000004E-02  -1.78647479E-08
  -1.39499996E-02  -1.83801649E-08
  -1.38999997E-02  -1.89072935E-08
  -1.38499998E-02  -1.94465937E-08
  -1.37999998E-02  -1.99986534E-08
  -1.37499999E-02  -2.05641175E-08
  -1.37000000E-02  -2.11435971E-08
  -1.36500001E-02  -2.17375966E-08
  -1.36000002E-02  -2.23465211E-08
  -1.35500003E-02  -2.29706867E-08
  -1.35000004E-02  -2.36104167E-08
  -1.34500004E-02  -2.42661002E-08
  -1.33999996E-02  -2.49382950E-08
  -1.33499997E-02  -2.56277222E-08
  -1.32999998E-02  -2.63351883E-08
  -1.32499998E-02  -2.70614873E-08
  -1.31999999E-02  -2.78072854E-08
  -1.31500000E-02  -2.85731101E-08
  -1.31000001E-02  -2.93593967E-08
  -1.30500002E-02  -3.01665786E-08
  -1.30000003E-02  -3.09951709E-08
  -1.29500004E-02  -3.18458255E-08
  -1.29000004E-02  -3.27193632E-08
  -1.28499996E-02  -3.36167219E-08
  -1.27999997E-02  -3.45388678E-08
  -1.27499998E-02  -3.54866927E-08
  -1.26999998E-02  -3.64609001E-08
  -1.26499999E-02  -3.74620512E-08
  -1.26000000E-02  -3.84906649E-08
  -1.25500001E-02  -3.95473698E-08
  -1.25000002E-02  -4.06329548E-08
  -1.24500003E-02  -4.17483861E-08
  -1.24000004E-02  -4.28947260E-08
  -1.23500004E-02  -4.40731043E-08
  -1.22999996E-02  -4.52845832E-08
  -1.22499997E-02  -4.65301220E-08
  -1.21999998E-02  -4.78105413E-08
  -1.21499998E-02  -4.91265801E-08
  -1.20999999E-02  -5.04790201E-08
  -1.20500000E-02  -5.18688239E-08
  -1.20000001E-02  -5.32971534E-08
  -1.19500002E-02  -5.47653158E-08
  -1.19000003E-02  -5.62746330E-08
  -1.18500004E-02  -5.78263304E-08
  -1.18000004E-02  -5.94214811E-08
  -1.17499996E-02  -6.10610371E-08
  -1.16999997E-02  -6.27458832E-08
  -1.16499998E-02  -6.44769784E-08
  -1.15999999E-02  -6.62553958E-08
  -1.15499999E-02  -6.80825281E-08
  -1.15000000E-02  -6.99599809E-08
  -1.14500001E-02  -7.18895095E-08
  -1.14000002E-02  -7.38728261E-08
  -1.13500003E-02  -7.59114585E-08
  -1.13000004E-02  -7.80067779E-08
  -1.12500004E-02  -8.01600493E-08
  -1.11999996E-02  -8.23724946E-08
  -1.11499997E-02  -8.46454427E-08
  -1.10999998E-02  -8.69803642E-08
  -1.10499999E-02  -8.93789078E-08
  -1.09999999E-02  -9.18428427E-08
  -1.09500000E-02  -9.43739664E-08
  -1.09000001E-02  -9.69739204E-08
  -1.08500002E-02  -9.96442466E-08
  -1.08000003E-02  -1.02386394E-07
  -1.07500004E-02  -1.05201963E-07
  -1.07000005E-02  -1.08092742E-07
  -1.06499996E-02  -1.11060821E-07
  -1.05999997E-02  -1.14108509E-07
  -1.05499998E-02  -1.17238294E-07
  -1.04999999E-02  -1.20452611E-07
  -1.04499999E-02  -1.23753750E-07
  -1.04000000E-02  -1.27143764E-07
  -1.03500001E-02  -1.30624443E-07
  -1.03000002E-02  -1.34197421E-07
  -1.02500003E-02  -1.37864475E-07
  -1.02000004E-02  -1.41627581E-07
  -1.01500005E-02  -1.45488997E-07
  -1.00999996E-02  -1.49451154E-07
  -1.00499997E-02  -1.53516496E-07
  -9.99999978E-03  -1.57687538E-07
  -9.94999986E-03  -1.61966597E-07
  -9.89999995E-03  -1.66355960E-07
  -9.85000003E-03  -1.70857930E-07
  -9.80000012E-03  -1.75474938E-07
  -9.75000020E-03  -1.80209582E-07
  -9.70000029E-03  -1.85064749E-07
  -9.65000037E-03  -1.90043465E-07
  -9.60000046E-03  -1.95148900E-07
  -9.54999961E-03  -2.00384051E-07
  -9.49999969E-03  -2.05751761E-07
  -9.44999978E-03  -2.11254587E-07
  -9.39999986E-03  -2.16895074E-07
  -9.34999995E-03  -2.22675737E-07
  -9.30000003E-03  -2.28599390E-07
  -9.25000012E-03  -2.34669216E-07
  -9.20000020E-03  -2.40888426E-07
  -9.15000029E-03  -2.47260317E-07
  -9.10000037E-03  -2.53788130E-07
  -9.05000046E-03  -2.60474934E-07
  -8.99999961E-03  -2.67323685E-07
  -8.94999970E-03  -2.74337282E-07
  -8.89999978E-03  -2.81518595E-07
  -8.84999987E-03  -2.88870581E-07
  -8.79999995E-03  -2.96396763E-07
  -8.75000004E-03  -3.04100951E-07
  -8.70000012E-03  -3.11987122E-07
  -8.65000021E-03  -3.20059257E-07
  -8.60000029E-03  -3.28320994E-07
  -8.55000038E-03  -3.36776083E-07
  -8.50000046E-03  -3.45428106E-07
  -8.44999962E-03  -3.54280701E-07
  -8.39999970E-03  -3.63337591E-07
  -8.34999979E-03  -3.72602784E-07
  -8.29999987E-03  -3.82080430E-07
  -8.24999996E-03  -3.91774989E-07
  -8.20000004E-03  -4.01690784E-07
  -8.15000013E-03  -4.11831905E-07
  -8.10000021E-03  -4.22202220E-07
  -8.05000030E-03  -4.32805820E-07
  -8.00000038E-03  -4.43646570E-07
  -7.95000046E-03  -4.54728507E-07
  -7.89999962E-03  -4.66055951E-07
  -7.84999970E-03  -4.77633535E-07
  -7.79999979E-03  -4.89466288E-07
  -7.74999987E-03  -5.01559043E-07
  -7.69999996E-03  -5.13916689E-07
  -7.65000004E-03  -5.26543772E-07
  -7.60000013E-03  -5.39445182E-07
  -7.55000021E-03  -5.52625579E-07
  -7.49999983E-03  -5.66090193E-07
  -7.44999992E-03  -5.79844141E-07
  -7.40000000E-03  -5.93893105E-07
  -7.35000009E-03  -6.08242829E-07
  -7.30000017E-03  -6.22899336E-07
  -7.24999979E-03  -6.37868368E-07
  -7.19999988E-03  -6.53155610E-07
  -7.14999996E-03  -6.68766575E-07
  -7.10000005E-03  -6.84706777E-07
  -7.05000013E-03  -7.00982014E-07
  -7.00000022E-03  -7.17598084E-07
  -6.94999984E-03  -7.34561297E-07
  -6.89999992E-03  -7.51878076E-07
  -6.85000001E-03  -7.69554674E-07
  -6.80000009E-03  -7.87597571E-07
  -6.75000018E-03  -8.06013304E-07
  -6.69999979E-03  -8.24808239E-07
  -6.64999988E-03  -8.43988971E-07
  -6.59999996E-03  -8.63562207E-07
  -6.55000005E-03  -8.83534653E-07
  -6.50000013E-03  -9.03913474E-07
  -6.45000022E-03  -9.24706285E-07
  -6.39999984E-03  -9.45921045E-07
  -6.34999992E-03  -9.67565256E-07
  -6.30000001E-03  -9.89646651E-07
  -6.25000009E-03  -1.01217279E-06
  -6.20000018E-03  -1.03515129E-06
  -6.14999980E-03  -1.05859067E-06
  -6.09999988E-03  -1.08249913E-06
  -6.04999997E-03  -1.10688484E-06
  -6.00000005E-03  -1.13175633E-06
  -5.95000014E-03  -1.15712191E-06
  -5.90000022E-03  -1.18299113E-06
  -5.84999984E-03  -1.20937273E-06
  -5.79999993E-03  -1.23627558E-06
  -5.75000001E-03  -1.26370719E-06
  -5.70000010E-03  -1.29167699E-06
  -5.65000018E-03  -1.32019488E-06
  -5.59999980E-03  -1.34927075E-06
  -5.54999989E-03  -1.37891379E-06
  -5.49999997E-03  -1.40913312E-06
  -5.45000006E-03  -1.43993918E-06
  -5.40000014E-03  -1.47134244E-06
  -5.35000023E-03  -1.50335302E-06
  -5.29999984E-03  -1.53598069E-06
  -5.24999993E-03  -1.56923568E-06
  -5.20000001E-03  -1.60312925E-06
  -5.15000010E-03  -1.63767220E-06
  -5.10000018E-03  -1.67287601E-06
  -5.04999980E-03  -1.70875239E-06
  -4.99999989E-03  -1.74531237E-06
  -4.94999997E-03  -1.78256767E-06
  -4.90000006E-03  -1.82052997E-06
  -4.85000014E-03  -1.85921158E-06
  -4.80000023E-03  -1.89862385E-06
  -4.74999985E-03  -1.93877895E-06
  -4.69999993E-03  -1.97968870E-06
  -4.65000002E-03  -2.02136630E-06
  -4.60000010E-03  -2.06382379E-06
  -4.55000019E-03  -2.10707367E-06
  -4.49999981E-03  -2.15112891E-06
  -4.44999989E-03  -2.19600133E-06
  -4.39999998E-03  -2.24170390E-06
  -4.35000006E-03  -2.28824979E-06
  -4.30000015E-03  -2.33565243E-06
  -4.25000023E-03  -2.38392681E-06
  -4.19999985E-03  -2.43308659E-06
  -4.14999994E-03  -2.48314518E-06
  -4.10000002E-03  -2.53411713E-06
  -4.05000011E-03  -2.58601654E-06
  -4.00000019E-03  -2.63885886E-06
  -3.94999981E-03  -2.69265911E-06
  -3.89999989E-03  -2.74743138E-06
  -3.84999998E-03  -2.80319045E-06
  -3.80000006E-03  -2.85995134E-06
  -3.74999992E-03  -2.91773017E-06
  -3.70000000E-03  -2.97654356E-06
  -3.65000009E-03  -3.03640627E-06
  -3.59999994E-03  -3.09733196E-06
  -3.55000002E-03  -3.15933539E-06
  -3.50000011E-03  -3.22243295E-06
  -3.44999996E-03  -3.28664169E-06
  -3.40000005E-03  -3.35197819E-06
  -3.34999990E-03  -3.41845680E-06
  -3.29999998E-03  -3.48609365E-06
  -3.25000007E-03  -3.55490624E-06
  -3.19999992E-03  -3.62491210E-06
  -3.15000000E-03  -3.69612803E-06
  -3.10000009E-03  -3.76856974E-06
  -3.04999994E-03  -3.84225314E-06
  -3.00000003E-03  -3.91719459E-06
  -2.95000011E-03  -3.99341479E-06
  -2.89999996E-03  -4.07093148E-06
  -2.85000005E-03  -4.14976148E-06
  -2.79999990E-03  -4.22992116E-06
  -2.74999999E-03  -4.31142780E-06
  -2.70000007E-03  -4.39430187E-06
  -2.64999992E-03  -4.47856019E-06
  -2.60000001E-03  -4.56421958E-06
  -2.55000009E-03  -4.65129551E-06
  -2.49999994E-03  -4.73980617E-06
  -2.45000003E-03  -4.82977339E-06
  -2.40000011E-03  -4.92121671E-06
  -2.34999997E-03  -5.01415343E-06
  -2.30000005E-03  -5.10859763E-06
  -2.24999990E-03  -5.20456842E-06
  -2.19999999E-03  -5.30208445E-06
  -2.15000007E-03  -5.40116707E-06
  -2.09999993E-03  -5.50183313E-06
  -2.05000001E-03  -5.60409808E-06
  -2.00000009E-03  -5.70797783E-06
  -1.94999995E-03  -5.81349559E-06
  -1.90000003E-03  -5.92067454E-06
  -1.85000000E-03  -6.02953241E-06
  -1.79999997E-03  -6.14008286E-06
  -1.75000005E-03  -6.25234270E-06
  -1.70000002E-03  -6.36633104E-06
  -1.64999999E-03  -6.48207015E-06
  -1.59999996E-03  -6.59958005E-06
  -1.55000004E-03  -6.71887938E-06
  -1.50000001E-03  -6.83998587E-06
  -1.44999998E-03  -6.96291818E-06
  -1.39999995E-03  -7.08769676E-06
  -1.35000004E-03  -7.21434299E-06
  -1.30000000E-03  -7.34287369E-06
  -1.24999997E-03  -7.47330432E-06
  -1.20000006E-03  -7.60564808E-06
  -1.15000003E-03  -7.73992724E-06
  -1.09999999E-03  -7.87616500E-06
  -1.04999996E-03  -8.01438091E-06
  -1.00000005E-03  -8.15459134E-06
  -9.50000016E-04  -8.29681358E-06
  -8.99999985E-04  -8.44106580E-06
  -8.50000011E-04  -8.58736530E-06
  -7.99999980E-04  -8.73573117E-06
  -7.50000007E-04  -8.88618251E-06
  -6.99999975E-04  -9.03873479E-06
  -6.50000002E-04  -9.19340800E-06
  -6.00000028E-04  -9.35022308E-06
  -5.49999997E-04  -9.50920094E-06
  -5.00000024E-04  -9.67035885E-06
  -4.49999992E-04  -9.83371501E-06
  -3.99999990E-04  -9.99928307E-06
  -3.49999988E-04  -1.01670803E-05
  -3.00000014E-04  -1.03371294E-05
  -2.50000012E-04  -1.05094468E-05
  -1.99999995E-04  -1.06840471E-05
  -1.50000007E-04  -1.08609493E-05
  -9.99999975E-05  -1.10401761E-05
  -4.99999987E-05  -1.12217431E-05
   0.00000000      -1.14056666E-05
   4.99999987E-05  -1.15919593E-05
   9.99999975E-05  -1.17806421E-05
   1.50000007E-04  -1.19717315E-05
   1.99999995E-04  -1.21652429E-05
   2.50000012E-04  -1.23611926E-05
   3.00000014E-04  -1.25596025E-05
   3.49999988E-04  -1.27604890E-05
   3.99999990E-04  -1.29638720E-05
   4.49999992E-04  -1.31697670E-05
   5.00000024E-04  -1.33781878E-05
   5.49999997E-04  -1.35891487E-05
   6.00000028E-04  -1.38026653E-05
   6.50000002E-04  -1.40187612E-05
   6.99999975E-04  -1.42374502E-05
   7.50000007E-04  -1.44587475E-05
   7.99999980E-04  -1.46826706E-05
   8.50000011E-04  -1.49092320E-05
   8.99999985E-04  -1.51384529E-05
   9.50000016E-04  -1.53703513E-05
   1.00000005E-03  -1.56049409E-05
   1.04999996E-03  -1.58422281E-05
   1.09999999E-03  -1.60822237E-05
   1.15000003E-03  -1.63249533E-05
   1.20000006E-03  -1.65704350E-05
   1.24999997E-03  -1.68186889E-05
   1.30000000E-03  -1.70697222E-05
   1.35000004E-03  -1.73235421E-05
   1.39999995E-03  -1.75801651E-05
   1.44999998E-03  -1.78396149E-05
   1.50000001E-03  -1.81019022E-05
   1.55000004E-03  -1.83670363E-05
   1.59999996E-03  -1.86350280E-05
   1.64999999E-03  -1.89058956E-05
   1.70000002E-03  -1.91796589E-05
   1.75000005E-03  -1.94563381E-05
   1.79999997E-03  -1.97359386E-05
   1.85000000E-03  -2.00184713E-05
   1.90000003E-03  -2.03039399E-05
   1.94999995E-03  -2.05923661E-05
   2.00000009E-03  -2.08837610E-05
   2.05000001E-03  -2.11781462E-05
   2.09999993E-03  -2.14755255E-05
   2.15000007E-03  -2.17759170E-05
   2.19999999E-03  -2.20793318E-05
   2.24999990E-03  -2.23857878E-05
   2.30000005E-03  -2.26952870E-05
   2.34999997E-03  -2.30078385E-05
   2.40000011E-03  -2.33234514E-05
   2.45000003E-03  -2.36421401E-05
   2.49999994E-03  -2.39639230E-05
   2.55000009E-03  -2.42888091E-05
   2.60000001E-03  -2.46168020E-05
   2.64999992E-03  -2.49479181E-05
   2.70000007E-03  -2.52821665E-05
   2.74999999E-03  -2.56195599E-05
   2.79999990E-03  -2.59601111E-05