  -3.99999991E-02   0.00000000    
  -3.99499983E-02   0.00000000    
  -3.99000011E-02   0.00000000    
  -3.98500003E-02  -8.23868078E-16
  -3.97999994E-02  -6.31172826E-15
  -3.97499986E-02  -2.51223077E-14
  -3.97000015E-02  -6.98200110E-14
  -3.96500006E-02  -1.54288339E-13
  -3.95999998E-02  -2.94350915E-13
  -3.95499989E-02  -5.13208291E-13
  -3.95000018E-02  -8.42751162E-13
  -3.94500010E-02  -1.30802021E-12
  -3.94000001E-02  -1.89849850E-12
  -3.93499993E-02  -2.55515834E-12
  -3.92999984E-02  -3.20279003E-12
  -3.92500013E-02  -3.81753093E-12
  -3.92000005E-02  -4.47414111E-12
  -3.91499996E-02  -5.32249548E-12
  -3.90999988E-02  -6.50612550E-12
  -3.90500017E-02  -8.09302018E-12
  -3.90000008E-02  -1.00711262E-11
  -3.89500000E-02  -1.23849993E-11
  -3.88999991E-02  -1.49500620E-11
  -3.88499983E-02  -1.76333774E-11
  -3.88000011E-02  -2.02686600E-11
  -3.87500003E-02  -2.27590221E-11
  -3.86999995E-02  -2.52020245E-11
  -3.86499986E-02  -2.78887729E-11
  -3.86000015E-02  -3.11149093E-11
  -3.85500006E-02  -3.49374418E-11
  -3.84999998E-02  -3.90981726E-11
  -3.84499989E-02  -4.31858299E-11
  -3.84000018E-02  -4.68690607E-11
  -3.83500010E-02  -4.99743233E-11
  -3.83000001E-02  -5.23833824E-11
  -3.82499993E-02  -5.39460907E-11
  -3.81999984E-02  -5.45696752E-11
  -3.81500013E-02  -5.43880427E-11
  -3.81000005E-02  -5.37584664E-11
  -3.80499996E-02  -5.30043578E-11
  -3.79999988E-02  -5.21409894E-11
  -3.79500017E-02  -5.08813200E-11
  -3.79000008E-02  -4.89053659E-11
  -3.78500000E-02  -4.60524952E-11
  -3.77999991E-02  -4.21770154E-11
  -3.77499983E-02  -3.68452109E-11
  -3.77000012E-02  -2.93225930E-11
  -3.76500003E-02  -1.90166442E-11
  -3.75999995E-02  -5.98268917E-12
  -3.75499986E-02   9.07450243E-12
  -3.75000015E-02   2.54046784E-11
  -3.74500006E-02   4.28953123E-11
  -3.73999998E-02   6.22234625E-11
  -3.73499990E-02   8.44134485E-11
  -3.73000018E-02   1.10270036E-10
  -3.72500010E-02   1.40078296E-10
  -3.72000001E-02   1.73464035E-10
  -3.71499993E-02   2.09126133E-10
  -3.70999984E-02   2.44595788E-10
  -3.70500013E-02   2.76667605E-10
  -3.70000005E-02   3.02849218E-10
  -3.69499996E-02   3.23154004E-10
  -3.68999988E-02   3.40848599E-10
  -3.68500017E-02   3.61275038E-10
  -3.68000008E-02   3.89287880E-10
  -3.67500000E-02   4.26864988E-10
  -3.66999991E-02   4.72161532E-10
  -3.66499983E-02   5.20159527E-10
  -3.66000012E-02   5.64292946E-10
  -3.65500003E-02   5.98503580E-10
  -3.64999995E-02   6.19453377E-10
  -3.64499986E-02   6.28273378E-10
  -3.64000015E-02   6.30623498E-10
  -3.63500006E-02   6.34134356E-10
  -3.62999998E-02   6.43959885E-10
  -3.62499990E-02   6.58989419E-10
  -3.62000018E-02   6.71392164E-10
  -3.61500010E-02   6.70133005E-10
  -3.61000001E-02   6.46442344E-10
  -3.60499993E-02   5.98157301E-10
  -3.59999985E-02   5.30924471E-10
  -3.59500013E-02   4.56108595E-10
  -3.59000005E-02   3.86398469E-10
  -3.58499996E-02   3.30394573E-10
  -3.57999988E-02   2.87842805E-10
  -3.57500017E-02   2.47846910E-10
  -3.57000008E-02   1.92141927E-10
  -3.56500000E-02   1.03206631E-10
  -3.55999991E-02  -2.64343460E-11
  -3.55499983E-02  -1.89108729E-10
  -3.55000012E-02  -3.64599351E-10
  -3.54500003E-02  -5.29424171E-10
  -3.53999995E-02  -6.67925604E-10
  -3.53499986E-02  -7.79768694E-10
  -3.53000015E-02  -8.80737927E-10
  -3.52500007E-02  -9.96777882E-10
  -3.51999998E-02  -1.15334953E-09
  -3.51499990E-02  -1.36358891E-09
  -3.51000018E-02  -1.61997138E-09
  -3.50500010E-02  -1.89424143E-09
  -3.50000001E-02  -2.14761475E-09
  -3.49499993E-02  -2.34776731E-09
  -3.48999985E-02  -2.48429299E-09
  -3.48500013E-02  -2.57404964E-09
  -3.48000005E-02  -2.65310818E-09
  -3.47499996E-02  -2.75938405E-09
  -3.46999988E-02  -2.91455216E-09
  -3.46500017E-02  -3.11332915E-09
  -3.46000008E-02  -3.32426198E-09
  -3.45500000E-02  -3.50160811E-09
  -3.44999991E-02  -3.60418650E-09
  -3.44499983E-02  -3.61411145E-09
  -3.44000012E-02  -3.54687080E-09
  -3.43500003E-02  -3.44625040E-09
  -3.42999995E-02  -3.36427752E-09
  -3.42499986E-02  -3.33500272E-09
  -3.42000015E-02  -3.35563000E-09
  -3.41500007E-02  -3.38533468E-09
  -3.40999998E-02  -3.36264994E-09
  -3.40499990E-02  -3.23268901E-09
  -3.40000018E-02  -2.97130454E-09
  -3.39500010E-02  -2.59590593E-09
  -3.39000002E-02  -2.15867990E-09
  -3.38499993E-02  -1.72454517E-09
  -3.37999985E-02  -1.34200440E-09
  -3.37500013E-02  -1.01890563E-09
  -3.37000005E-02  -7.15234927E-10
  -3.36499996E-02  -3.59016372E-10
  -3.35999988E-02   1.19991794E-10
  -3.35500017E-02   7.54717566E-10
  -3.35000008E-02   1.52164825E-09
  -3.34500000E-02   2.34840458E-09
  -3.33999991E-02   3.14431570E-09
  -3.33499983E-02   3.83924714E-09
  -3.33000012E-02   4.41343539E-09
  -3.32500003E-02   4.90619056E-09
  -3.31999995E-02   5.39989919E-09
  -3.31499986E-02   5.98492411E-09
  -3.31000015E-02   6.71864830E-09
  -3.30500007E-02   7.59612018E-09
  -3.29999998E-02   8.54727134E-09
  -3.29499990E-02   9.46472056E-09
  -3.29000019E-02   1.02504636E-08
  -3.28500010E-02   1.08586660E-08
  -3.28000002E-02   1.13132010E-08
  -3.27499993E-02   1.16920749E-08
  -3.26999985E-02   1.20875443E-08
  -3.26500013E-02   1.25612054E-08
  -3.26000005E-02   1.31134721E-08
  -3.25499997E-02   1.36793581E-08
  -3.24999988E-02   1.41522953E-08
  -3.24500017E-02   1.44274725E-08
  -3.24000008E-02   1.44474575E-08
  -3.23500000E-02   1.42290579E-08
  -3.22999991E-02   1.38565461E-08
  -3.22499983E-02   1.34420590E-08
  -3.22000012E-02   1.30715438E-08
  -3.21500003E-02   1.27633104E-08
  -3.20999995E-02   1.24595001E-08
  -3.20499986E-02   1.20530022E-08
  -3.20000015E-02   1.14354233E-08
  -3.19500007E-02   1.05440217E-08
  -3.18999998E-02   9.38871203E-09
  -3.18499990E-02   8.04902633E-09
  -3.18000019E-02   6.64153932E-09
  -3.17500010E-02   5.26948574E-09
  -3.17000002E-02   3.97535782E-09
  -3.16499993E-02   2.71932166E-09
  -3.15999985E-02   1.39620093E-09
  -3.15500014E-02  -1.14991107E-10
  -3.15000005E-02  -1.89298599E-09
  -3.14499997E-02  -3.93626332E-09
  -3.13999988E-02  -6.16211926E-09
  -3.13500017E-02  -8.44015524E-09
  -3.13000008E-02  -1.06428475E-08
  -3.12500000E-02  -1.26921753E-08
  -3.11999992E-02  -1.45852761E-08
  -3.11500002E-02  -1.63902740E-08
  -3.10999993E-02  -1.82128019E-08
  -3.10500003E-02  -2.01447783E-08
  -3.09999995E-02  -2.22171472E-08
  -3.09500005E-02  -2.43798741E-08
  -3.08999997E-02  -2.65203131E-08
  -3.08500007E-02  -2.85107706E-08
  -3.07999998E-02  -3.02604839E-08
  -3.07500008E-02  -3.17469961E-08
  -3.07000000E-02  -3.30153753E-08
  -3.06499992E-02  -3.41505668E-08
  -3.06000002E-02  -3.52374023E-08
  -3.05499993E-02  -3.63231187E-08
  -3.05000003E-02  -3.73944253E-08
  -3.04499995E-02  -3.83774257E-08
  -3.04000005E-02  -3.91633819E-08
  -3.03499997E-02  -3.96520896E-08
  -3.03000007E-02  -3.97924858E-08
  -3.02499998E-02  -3.95992430E-08
  -3.02000009E-02  -3.91369106E-08
  -3.01500000E-02  -3.84822201E-08
  -3.00999992E-02  -3.76858971E-08
  -3.00500002E-02  -3.67512243E-08
  -2.99999993E-02  -3.56345708E-08
  -2.99500003E-02  -3.42631097E-08
  -2.98999995E-02  -3.25618430E-08
  -2.98500005E-02  -3.04834593E-08
  -2.97999997E-02  -2.80319696E-08
  -2.97500007E-02  -2.52683368E-08
  -2.96999998E-02  -2.22909744E-08
  -2.96500009E-02  -1.91964045E-08
  -2.96000000E-02  -1.60399356E-08
  -2.95499992E-02  -1.28167148E-08
  -2.95000002E-02  -9.47029388E-09
  -2.94499993E-02  -5.92103921E-09
  -2.94000003E-02  -2.09834239E-09
  -2.93499995E-02   2.03389305E-09
  -2.93000005E-02   6.46208909E-09
  -2.92499997E-02   1.11208553E-08
  -2.92000007E-02   1.59076503E-08
  -2.91499998E-02   2.07151896E-08
  -2.91000009E-02   2.54702570E-08
  -2.90500000E-02   3.01590930E-08
  -2.89999992E-02   3.48237741E-08
  -2.89500002E-02   3.95318338E-08
  -2.88999993E-02   4.43366019E-08
  -2.88500004E-02   4.92475039E-08
  -2.87999995E-02   5.42206067E-08
  -2.87500005E-02   5.91664566E-08
  -2.86999997E-02   6.39701199E-08
  -2.86500007E-02   6.85207695E-08
  -2.85999998E-02   7.27451166E-08
  -2.85500009E-02   7.66322472E-08
  -2.85000000E-02   8.02328515E-08
  -2.84499992E-02   8.36274765E-08
  -2.84000002E-02   8.68788845E-08
  -2.83499993E-02   8.99943444E-08
  -2.83000004E-02   9.29177020E-08
  -2.82499995E-02   9.55503126E-08
  -2.82000005E-02   9.77850050E-08
  -2.81499997E-02   9.95374307E-08
  -2.81000007E-02   1.00766314E-07
  -2.80499998E-02   1.01479799E-07
  -2.80000009E-02   1.01725767E-07
  -2.79500000E-02   1.01563892E-07
  -2.78999992E-02   1.01025961E-07
  -2.78500002E-02   1.00085984E-07
  -2.77999993E-02   9.86613102E-08
  -2.77500004E-02   9.66463958E-08
  -2.76999995E-02   9.39595850E-08
  -2.76500005E-02   9.05758029E-08
  -2.75999997E-02   8.65301999E-08
  -2.75500007E-02   8.18967365E-08
  -2.74999999E-02   7.67577930E-08
  -2.74500009E-02   7.11773822E-08
  -2.74000000E-02   6.51809131E-08
  -2.73499992E-02   5.87459112E-08
  -2.73000002E-02   5.18092662E-08
  -2.72499993E-02   4.42969927E-08
  -2.72000004E-02   3.61669983E-08
  -2.71499995E-02   2.74389134E-08
  -2.71000005E-02   1.81928446E-08
  -2.70499997E-02   8.53945359E-09
  -2.70000007E-02  -1.41709533E-09
  -2.69499999E-02  -1.16022809E-08
  -2.69000009E-02  -2.19763763E-08
  -2.68500000E-02  -3.25315028E-08
  -2.67999992E-02  -4.32863771E-08
  -2.67500002E-02  -5.42770557E-08
  -2.66999993E-02  -6.55367742E-08
  -2.66500004E-02  -7.70669715E-08
  -2.65999995E-02  -8.88154261E-08
  -2.65500005E-02  -1.00675059E-07
  -2.64999997E-02  -1.12503479E-07
  -2.64500007E-02  -1.24149835E-07
  -2.63999999E-02  -1.35477620E-07
  -2.63500009E-02  -1.46383371E-07
  -2.63000000E-02  -1.56816284E-07
  -2.62499992E-02  -1.66794166E-07
  -2.62000002E-02  -1.76393655E-07
  -2.61499994E-02  -1.85705829E-07
  -2.61000004E-02  -1.94770436E-07
  -2.60499995E-02  -2.03522902E-07
  -2.60000005E-02  -2.11790450E-07
  -2.59499997E-02  -2.19340791E-07
  -2.59000007E-02  -2.25958999E-07
  -2.58499999E-02  -2.31519692E-07
  -2.58000009E-02  -2.36028924E-07
  -2.57500000E-02  -2.39618913E-07
  -2.56999992E-02  -2.42491296E-07
  -2.56500002E-02  -2.44819716E-07
  -2.55999994E-02  -2.46644220E-07
  -2.55500004E-02  -2.47808913E-07
  -2.54999995E-02  -2.47986293E-07
  -2.54500005E-02  -2.46796901E-07
  -2.53999997E-02  -2.43971868E-07
  -2.53500007E-02  -2.39478226E-07
  -2.52999999E-02  -2.33541115E-07
  -2.52500009E-02  -2.26546376E-07
  -2.52000000E-02  -2.18869275E-07
  -2.51499992E-02  -2.10700378E-07
  -2.51000002E-02  -2.01944317E-07
  -2.50499994E-02  -1.92237977E-07
  -2.50000004E-02  -1.81091195E-07
  -2.49499995E-02  -1.68110233E-07
  -2.49000005E-02  -1.53210507E-07
  -2.48499997E-02  -1.36709687E-07
  -2.48000007E-02  -1.19232851E-07
  -2.47499999E-02  -1.01454717E-07
  -2.47000009E-02  -8.37933740E-08
  -2.46500000E-02  -6.62042297E-08
  -2.45999992E-02  -4.81808193E-08
  -2.45500002E-02  -2.89710993E-08
  -2.44999994E-02  -7.91800758E-09
  -2.44500004E-02   1.52193582E-08
  -2.43999995E-02   4.01023854E-08
  -2.43500005E-02   6.58880452E-08
  -2.42999997E-02   9.15354832E-08
  -2.42500007E-02   1.16235377E-07
  -2.41999999E-02   1.39771871E-07
  -2.41500009E-02   1.62635175E-07
  -2.41000000E-02   1.85808076E-07
  -2.40499992E-02   2.10300939E-07
  -2.40000002E-02   2.36645164E-07
  -2.39499994E-02   2.64588522E-07
  -2.39000004E-02   2.93135770E-07
  -2.38499995E-02   3.20921259E-07
  -2.38000005E-02   3.46760970E-07
  -2.37499997E-02   3.70146608E-07
  -2.37000007E-02   3.91466585E-07
  -2.36499999E-02   4.11840546E-07
  -2.36000009E-02   4.32608260E-07
  -2.35500000E-02   4.54678997E-07
  -2.34999992E-02   4.78036554E-07
  -2.34500002E-02   5.01653119E-07
  -2.33999994E-02   5.23877247E-07
  -2.33500004E-02   5.43130284E-07
  -2.32999995E-02   5.58602721E-07
  -2.32500006E-02   5.70607881E-07
  -2.31999997E-02   5.80432754E-07
  -2.31500007E-02   5.89748936E-07
  -2.30999999E-02   5.99822386E-07
  -2.30500009E-02   6.10875702E-07
  -2.30000000E-02   6.21881895E-07
  -2.29499992E-02   6.30910904E-07
  -2.29000002E-02   6.35920401E-07
  -2.28499994E-02   6.35651531E-07
  -2.28000004E-02   6.30215823E-07
  -2.27499995E-02   6.21073184E-07
  -2.27000006E-02   6.10380994E-07
  -2.26499997E-02   5.99995190E-07
  -2.26000007E-02   5.90585898E-07
  -2.25499999E-02   5.81271024E-07
  -2.25000009E-02   5.69942927E-07
  -2.24500000E-02   5.54152450E-07
  -2.23999992E-02   5.32171157E-07
  -2.23500002E-02   5.03787589E-07
  -2.22999994E-02   4.70463021E-07
  -2.22500004E-02   4.34742248E-07
  -2.21999995E-02   3.99137747E-07
  -2.21500006E-02   3.64963796E-07
  -2.20999997E-02   3.31679644E-07
  -2.20500007E-02   2.97075019E-07
  -2.19999999E-02   2.58224247E-07
  -2.19500009E-02   2.12783377E-07
  -2.19000001E-02   1.60047264E-07
  -2.18499992E-02   1.01299740E-07
  -2.18000002E-02   3.93028721E-08
  -2.17499994E-02  -2.28798509E-08
  -2.17000004E-02  -8.32280733E-08
  -2.16499995E-02  -1.41680601E-07
  -2.16000006E-02  -2.00212483E-07
  -2.15499997E-02  -2.61978045E-07
  -2.15000007E-02  -3.29876059E-07
  -2.14499999E-02  -4.05185460E-07
  -2.14000009E-02  -4.86917429E-07
  -2.13500001E-02  -5.72193755E-07
  -2.12999992E-02  -6.57497253E-07
  -2.12500002E-02  -7.40215569E-07
  -2.11999994E-02  -8.19793740E-07
  -2.11500004E-02  -8.98008636E-07
  -2.10999995E-02  -9.78205094E-07
  -2.10500006E-02  -1.06381344E-06
  -2.09999997E-02  -1.15676983E-06
  -2.09500007E-02  -1.25654356E-06
  -2.08999999E-02  -1.36025562E-06
  -2.08500009E-02  -1.46386287E-06
  -2.08000001E-02  -1.56393537E-06
  -2.07499992E-02  -1.65919278E-06
  -2.07000002E-02  -1.75105822E-06
  -2.06499994E-02  -1.84302087E-06
  -2.06000004E-02  -1.93909500E-06
  -2.05499995E-02  -2.04199773E-06
  -2.05000006E-02  -2.15187811E-06
  -2.04499997E-02  -2.26613884E-06
  -2.04000007E-02  -2.38045186E-06
  -2.03499999E-02  -2.49061668E-06
  -2.03000009E-02  -2.59440844E-06
  -2.02500001E-02  -2.69257612E-06
  -2.01999992E-02  -2.78852917E-06
  -2.01500002E-02  -2.88682372E-06
  -2.00999994E-02  -2.99110843E-06
  -2.00500004E-02  -3.10245537E-06
  -1.99999996E-02  -3.21881589E-06
  -1.99500006E-02  -3.33586104E-06
  -1.98999997E-02  -3.44883779E-06
  -1.98500007E-02  -3.55459792E-06
  -1.97999999E-02  -3.65300230E-06
  -1.97500009E-02  -3.74701108E-06
  -1.97000001E-02  -3.84138457E-06
  -1.96499992E-02  -3.94057315E-06
  -1.96000002E-02  -4.04669754E-06
  -1.95499994E-02  -4.15852082E-06
  -1.95000004E-02  -4.27190571E-06
  -1.94499996E-02  -4.38164125E-06
  -1.94000006E-02  -4.48375386E-06
  -1.93499997E-02  -4.57726173E-06
  -1.93000007E-02  -4.66461006E-06
  -1.92499999E-02  -4.75061324E-06
  -1.92000009E-02  -4.84039720E-06
  -1.91500001E-02  -4.93715925E-06
  -1.90999992E-02  -5.04064928E-06
  -1.90500002E-02  -5.14725889E-06
  -1.89999994E-02  -5.25159930E-06
  -1.89500004E-02  -5.34885112E-06
  -1.88999996E-02  -5.43701071E-06
  -1.88500006E-02  -5.51789572E-06
  -1.87999997E-02  -5.59639420E-06
  -1.87500007E-02  -5.67836696E-06
  -1.86999999E-02  -5.76810316E-06
  -1.86500009E-02  -5.86639271E-06
  -1.86000001E-02  -5.97022017E-06
  -1.85499992E-02  -6.07411812E-06
  -1.85000002E-02  -6.17256546E-06
  -1.84499994E-02  -6.26244582E-06
  -1.84000004E-02  -6.34453272E-06
  -1.83499996E-02  -6.42338864E-06
  -1.83000006E-02  -6.50558195E-06
  -1.82499997E-02  -6.59688112E-06
  -1.82000007E-02  -6.69975816E-06
  -1.81499999E-02  -6.81235770E-06
  -1.81000009E-02  -6.92945105E-06
  -1.80500001E-02  -7.04501281E-06
  -1.79999992E-02  -7.15489296E-06
  -1.79500002E-02  -7.25863492E-06
  -1.78999994E-02  -7.35994490E-06
  -1.78500004E-02  -7.46532987E-06
  -1.77999996E-02  -7.58147326E-06
  -1.77500006E-02  -7.71237956E-06
  -1.76999997E-02  -7.85756129E-06
  -1.76500008E-02  -8.01242459E-06
  -1.75999999E-02  -8.17051659E-06
  -1.75500009E-02  -8.32652404E-06
  -1.75000001E-02  -8.47887350E-06
  -1.74499992E-02  -8.63058631E-06
  -1.74000002E-02  -8.78821265E-06
  -1.73499994E-02  -8.95920311E-06
  -1.73000004E-02  -9.14871362E-06
  -1.72499996E-02  -9.35773733E-06
  -1.72000006E-02  -9.58283999E-06
  -1.71499997E-02  -9.81771063E-06
  -1.71000008E-02  -1.00560947E-05
  -1.70499999E-02  -1.02949498E-05
  -1.70000009E-02  -1.05361969E-05
  -1.69500001E-02  -1.07861470E-05
  -1.68999992E-02  -1.10530009E-05
  -1.68500002E-02  -1.13432325E-05
  -1.67999994E-02  -1.16589945E-05
  -1.67500004E-02  -1.19975348E-05
  -1.66999996E-02  -1.23526206E-05
  -1.66500006E-02  -1.27173898E-05
  -1.65999997E-02  -1.30874723E-05
  -1.65500008E-02  -1.34631982E-05
  -1.64999999E-02  -1.38499581E-05
  -1.64500009E-02  -1.42562203E-05
  -1.64000001E-02  -1.46900329E-05
  -1.63499992E-02  -1.51555932E-05
  -1.63000003E-02  -1.56513488E-05
  -1.62499994E-02  -1.61710541E-05
  -1.62000004E-02  -1.67069738E-05
  -1.61499996E-02  -1.72533801E-05
  -1.61000006E-02  -1.78091832E-05
  -1.60499997E-02  -1.83786706E-05
  -1.60000008E-02  -1.89699076E-05
  -1.59499999E-02  -1.95915454E-05
  -1.59000009E-02  -2.02492356E-05
  -1.58500001E-02  -2.09432164E-05
  -1.57999992E-02  -2.16682529E-05
  -1.57500003E-02  -2.24160958E-05
  -1.56999994E-02  -2.31793929E-05
  -1.56500004E-02  -2.39552082E-05
  -1.55999996E-02  -2.47462940E-05
  -1.55499997E-02  -2.55600899E-05
  -1.54999997E-02  -2.64057162E-05
  -1.54499998E-02  -2.72899542E-05
  -1.53999999E-02  -2.82141664E-05
  -1.53500000E-02  -2.91740525E-05
  -1.53000001E-02  -3.01617129E-05
  -1.52500002E-02  -3.11688855E-05
  -1.52000003E-02  -3.21911575E-05
  -1.51500003E-02  -3.32298805E-05
  -1.51000004E-02  -3.42915664E-05
  -1.50499996E-02  -3.53854921E-05
  -1.49999997E-02  -3.65196465E-05
  -1.49499997E-02  -3.76969620E-05
  -1.48999998E-02  -3.89139386E-05
  -1.48499999E-02  -4.01622601E-05
  -1.48000000E-02  -4.14325623E-05
  -1.47500001E-02  -4.27187188E-05
  -1.47000002E-02  -4.40209551E-05
  -1.46500003E-02  -4.53452885E-05
  -1.46000003E-02  -4.67007594E-05
  -1.45500004E-02  -4.80953895E-05
  -1.44999996E-02  -4.95331333E-05
  -1.44499997E-02  -5.10130376E-05
  -1.43999998E-02  -5.25283685E-05
  -1.43499998E-02  -5.40693072E-05
  -1.42999999E-02  -5.56277118E-05
  -1.42500000E-02  -5.72011377E-05
  -1.42000001E-02  -5.87944087E-05
  -1.41500002E-02  -6.04171619E-05
  -1.41000003E-02  -6.20792125E-05
  -1.40500003E-02  -6.37862249E-05
  -1.40000004E-02  -6.55375625E-05
  -1.39499996E-02  -6.73269387E-05
  -1.38999997E-02  -6.91455207E-05
  -1.38499998E-02  -7.09850356E-05
  -1.37999998E-02  -7.28414961E-05
  -1.37499999E-02  -7.47183440E-05
  -1.37000000E-02  -7.66239536E-05
  -1.36500001E-02  -7.85673692E-05
  -1.36000002E-02  -8.05564778E-05
  -1.35500003E-02  -8.25943862E-05
  -1.35000004E-02  -8.46767944E-05
  -1.34500004E-02  -8.67949711E-05
  -1.33999996E-02  -8.89397052E-05
  -1.33499997E-02  -9.11056777E-05
  -1.32999998E-02  -9.32948897E-05
  -1.32499998E-02  -9.55162832E-05
  -1.31999999E-02  -9.77810851E-05
  -1.31500000E-02  -1.00097102E-04
  -1.31000001E-02  -1.02466016E-04
  -1.30500002E-02  -1.04884508E-04
  -1.30000003E-02  -1.07347340E-04
  -1.29500004E-02  -1.09847599E-04
  -1.29000004E-02  -1.12378351E-04
  -1.28499996E-02  -1.14938681E-04
  -1.27999997E-02  -1.17535456E-04
  -1.27499998E-02  -1.20181154E-04
  -1.26999998E-02  -1.22888101E-04
  -1.26499999E-02  -1.25661594E-04
  -1.26000000E-02  -1.28498577E-04
  -1.25500001E-02  -1.31389868E-04
  -1.25000002E-02  -1.34327332E-04
  -1.24500003E-02  -1.37307754E-04
  -1.24000004E-02  -1.40331787E-04
  -1.23500004E-02  -1.43404555E-04
  -1.22999996E-02  -1.46534177E-04
  -1.22499997E-02  -1.49731874E-04
  -1.21999998E-02  -1.53009591E-04
  -1.21499998E-02  -1.56372131E-04
  -1.20999999E-02  -1.59814139E-04
  -1.20500000E-02  -1.63324716E-04
  -1.20000001E-02  -1.66895974E-04
  -1.19500002E-02  -1.70526531E-04
  -1.19000003E-02  -1.74221976E-04
  -1.18500004E-02  -1.77990762E-04
  -1.18000004E-02  -1.81840602E-04
  -1.17499996E-02  -1.85778626E-04
  -1.16999997E-02  -1.89808765E-04
  -1.16499998E-02  -1.93931017E-04
  -1.15999999E-02  -1.98141206E-04
  -1.15499999E-02  -2.02433759E-04
  -1.15000000E-02  -2.06807919E-04
  -1.14500001E-02  -2.11269769E-04
  -1.14000002E-02  -2.15831373E-04
  -1.13500003E-02  -2.20508853E-04
  -1.13000004E-02  -2.25313808E-04
  -1.12500004E-02  -2.30248261E-04
  -1.11999996E-02  -2.35306012E-04
  -1.11499997E-02  -2.40474241E-04
  -1.10999998E-02  -2.45741947E-04
  -1.10499999E-02  -2.51105492E-04
  -1.09999999E-02  -2.56564002E-04
  -1.09500000E-02  -2.62120477E-04
  -1.09000001E-02  -2.67786003E-04
  -1.08500002E-02  -2.73576734E-04
  -1.08000003E-02  -2.79506407E-04
  -1.07500004E-02  -2.85580667E-04
  -1.07000005E-02  -2.91801174E-04
  -1.06499996E-02  -2.98168423E-04
  -1.05999997E-02  -3.04683985E-04
  -1.05499998E-02  -3.11352545E-04
  -1.04999999E-02  -3.18180100E-04
  -1.04499999E-02  -3.25174187E-04
  -1.04000000E-02  -3.32340540E-04
  -1.03500001E-02  -3.39680555E-04
  -1.03000002E-02  -3.47189693E-04
  -1.02500003E-02  -3.54854099E-04
  -1.02000004E-02  -3.62658524E-04
  -1.01500005E-02  -3.70595779E-04
  -1.00999996E-02  -3.78669123E-04
  -1.00499997E-02  -3.86887521E-04
  -9.99999978E-03  -3.95265990E-04
  -9.94999986E-03  -4.03822050E-04
  -9.89999995E-03  -4.12570225E-04
  -9.85000003E-03  -4.21524921E-04
  -9.80000012E-03  -4.30690503E-04
  -9.75000020E-03  -4.40060103E-04
  -9.70000029E-03  -4.49630927E-04
  -9.65000037E-03  -4.59406525E-04
  -9.60000046E-03  -4.69390507E-04
  -9.54999961E-03  -4.79589653E-04
  -9.49999969E-03  -4.90014558E-04
  -9.44999978E-03  -5.00669819E-04
  -9.39999986E-03  -5.11556631E-04
  -9.34999995E-03  -5.22673654E-04
  -9.30000003E-03  -5.34014602E-04
  -9.25000012E-03  -5.45569928E-04
  -9.20000020E-03  -5.57327410E-04
  -9.15000029E-03  -5.69290423E-04
  -9.10000037E-03  -5.81475440E-04
  -9.05000046E-03  -5.93894976E-04
  -8.99999961E-03  -6.06555783E-04
  -8.94999970E-03  -6.19453960E-04
  -8.89999978E-03  -6.32588344E-04
  -8.84999987E-03  -6.45966153E-04
  -8.79999995E-03  -6.59595768E-04
  -8.75000004E-03  -6.73479342E-04
  -8.70000012E-03  -6.87614665E-04
  -8.65000021E-03  -7.02008896E-04
  -8.60000029E-03  -7.16682815E-04
  -8.55000038E-03  -7.31666980E-04
  -8.50000046E-03  -7.46976002E-04
  -8.44999962E-03  -7.62598997E-04
  -8.39999970E-03  -7.78514950E-04
  -8.34999979E-03  -7.94713502E-04
  -8.29999987E-03  -8.11201753E-04
  -8.24999996E-03  -8.27989599E-04
  -8.20000004E-03  -8.45076633E-04
  -8.15000013E-03  -8.62458081E-04
  -8.10000021E-03  -8.80132488E-04
  -8.05000030E-03  -8.98112950E-04
  -8.00000038E-03  -9.16413323E-04
  -7.95000046E-03  -9.35027841E-04
  -7.89999962E-03  -9.53937124E-04
  -7.84999970E-03  -9.73132206E-04
  -7.79999979E-03  -9.92625137E-04
  -7.74999987E-03  -1.01243390E-03
  -7.69999996E-03  -1.03256467E-03
  -7.65000004E-03  -1.05302013E-03
  -7.60000013E-03  -1.07380969E-03
  -7.55000021E-03  -1.09494757E-03
  -7.49999983E-03  -1.11644494E-03
  -7.44999992E-03  -1.13829877E-03
  -7.40000000E-03  -1.16050255E-03
  -7.35000009E-03  -1.18304754E-03
  -7.30000017E-03  -1.20593875E-03
  -7.24999979E-03  -1.22921180E-03
  -7.19999988E-03  -1.25289080E-03
  -7.14999996E-03  -1.27696234E-03
  -7.10000005E-03  -1.30140607E-03
  -7.05000013E-03  -1.32621150E-03
  -7.00000022E-03  -1.35138258E-03
  -6.94999984E-03  -1.37692632E-03
  -6.89999992E-03  -1.40283757E-03
  -6.85000001E-03  -1.42909691E-03
  -6.80000009E-03  -1.45569816E-03
  -6.75000018E-03  -1.48265564E-03
  -6.69999979E-03  -1.50999718E-03
  -6.64999988E-03  -1.53774861E-03
  -6.59999996E-03  -1.56589295E-03
  -6.55000005E-03  -1.59439072E-03
  -6.50000013E-03  -1.62323355E-03
  -6.45000022E-03  -1.65245775E-03
  -6.39999984E-03  -1.68209779E-03
  -6.34999992E-03  -1.71214319E-03
  -6.30000001E-03  -1.74256880E-03
  -6.25000009E-03  -1.77339010E-03
  -6.20000018E-03  -1.80465193E-03
  -6.14999980E-03  -1.83637755E-03
  -6.09999988E-03  -1.86854333E-03
  -6.04999997E-03  -1.90110831E-03
  -6.00000005E-03  -1.93406257E-03
  -5.95000014E-03  -1.96742848E-03
  -5.90000022E-03  -2.00124038E-03
  -5.84999984E-03  -2.03550095E-03
  -5.79999993E-03  -2.07017874E-03
  -5.75000001E-03  -2.10525189E-03
  -5.70000010E-03  -2.14074808E-03
  -5.65000018E-03  -2.17668293E-03
  -5.59999980E-03  -2.21303385E-03
  -5.54999989E-03  -2.24977033E-03
  -5.49999997E-03  -2.28689495E-03
  -5.45000006E-03  -2.32444005E-03
  -5.40000014E-03  -2.36242381E-03
  -5.35000023E-03  -2.40085041E-03
  -5.29999984E-03  -2.43971706E-03
  -5.24999993E-03  -2.47902679E-03
  -5.20000001E-03  -2.51878775E-03
  -5.15000010E-03  -2.55900738E-03
  -5.10000018E-03  -2.59969197E-03
  -5.04999980E-03  -2.64084665E-03
  -4.99999989E-03  -2.68248934E-03
  -4.94999997E-03  -2.72463099E-03
  -4.90000006E-03  -2.76725972E-03
  -4.85000014E-03  -2.81037670E-03
  -4.80000023E-03  -2.85401032E-03
  -4.74999985E-03  -2.89816014E-03
  -4.69999993E-03  -2.94280564E-03
  -4.65000002E-03  -2.98791169E-03
  -4.60000010E-03  -3.03344219E-03
  -4.55000019E-03  -3.07942694E-03
  -4.49999981E-03  -3.12590040E-03
  -4.44999989E-03  -3.17287026E-03
  -4.39999998E-03  -3.22035025E-03
  -4.35000006E-03  -3.26831173E-03
  -4.30000015E-03  -3.31672328E-03
  -4.25000023E-03  -3.36561236E-03
  -4.19999985E-03  -3.41502856E-03
  -4.14999994E-03  -3.46502266E-03
  -4.10000002E-03  -3.51558859E-03
  -4.05000011E-03  -3.56666441E-03
  -4.00000019E-03  -3.61825339E-03
  -3.94999981E-03  -3.67041631E-03
  -3.89999989E-03  -3.72321019E-03
  -3.84999998E-03  -3.77665134E-03
  -3.80000006E-03  -3.83066898E-03
  -3.74999992E-03  -3.88519419E-03
  -3.70000000E-03  -3.94022744E-03
  -3.65000009E-03  -3.99585767E-03
  -3.59999994E-03  -4.05215379E-03
  -3.55000002E-03  -4.10904922E-03
  -3.50000011E-03  -4.16647503E-03
  -3.44999996E-03  -4.22442146E-03
  -3.40000005E-03  -4.28294111E-03
  -3.34999990E-03  -4.34211176E-03
  -3.29999998E-03  -4.40191804E-03
  -3.25000007E-03  -4.46227705E-03
  -3.19999992E-03  -4.52315761E-03
  -3.15000000E-03  -4.58460674E-03
  -3.10000009E-03  -4.64671571E-03
  -3.04999994E-03  -4.70954413E-03
  -3.00000003E-03  -4.77303052E-03
  -2.95000011E-03  -4.83711762E-03
  -2.89999996E-03  -4.90179332E-03
  -2.85000005E-03  -4.96711861E-03
  -2.79999990E-03  -5.03316242E-03
  -2.74999999E-03  -5.09994337E-03
  -2.70000007E-03  -5.16739162E-03
  -2.64999992E-03  -5.23542659E-03
  -2.60000001E-03  -5.30414749E-03
  -2.55000009E-03  -5.37360646E-03
  -2.49999994E-03  -5.44371270E-03
  -2.45000003E-03  -5.51453186E-03
  -2.40000011E-03  -5.58612775E-03
  -2.34999997E-03  -5.65844588E-03
  -2.30000005E-03  -5.73142013E-03
  -2.24999990E-03  -5.80500811E-03
  -2.19999999E-03  -5.87924197E-03
  -2.15000007E-03  -5.95419388E-03
  -2.09999993E-03  -6.02991180E-03
  -2.05000001E-03  -6.10627281E-03
  -2.00000009E-03  -6.18326059E-03
  -1.94999995E-03  -6.26095477E-03
  -1.90000003E-03  -6.33939495E-03
  -1.85000000E-03  -6.41860813E-03
  -1.79999997E-03  -6.49855565E-03
  -1.75000005E-03  -6.57918723E-03
  -1.70000002E-03  -6.66050753E-03
  -1.64999999E-03  -6.74256729E-03
  -1.59999996E-03  -6.82540145E-03
  -1.55000004E-03  -6.90909522E-03
  -1.50000001E-03  -6.99365465E-03
  -1.44999998E-03  -7.07897078E-03
  -1.39999995E-03  -7.16495747E-03
  -1.35000004E-03  -7.25168781E-03
  -1.30000000E-03  -7.33928010E-03
  -1.24999997E-03  -7.42764724E-03
  -1.20000006E-03  -7.51669146E-03
  -1.15000003E-03  -7.60643976E-03
  -1.09999999E-03  -7.69695546E-03
  -1.04999996E-03  -7.78825488E-03
  -1.00000005E-03  -7.88032077E-03
  -9.50000016E-04  -7.97311217E-03
  -8.99999985E-04  -8.06662440E-03
  -8.50000011E-04  -8.16091150E-03
  -7.99999980E-04  -8.25596973E-03
  -7.50000007E-04  -8.35178141E-03
  -6.99999975E-04  -8.44839215E-03
  -6.50000002E-04  -8.54582898E-03
  -6.00000028E-04  -8.64405930E-03
  -5.49999997E-04  -8.74313805E-03
  -5.00000024E-04  -8.84307176E-03
  -4.49999992E-04  -8.94371606E-03
  -3.99999990E-04  -9.04509146E-03
  -3.49999988E-04  -9.14731994E-03
  -3.00000014E-04  -9.25044902E-03
  -2.50000012E-04  -9.35443677E-03
  -1.99999995E-04  -9.45917703E-03
  -1.50000007E-04  -9.56467725E-03
  -9.99999975E-05  -9.67098866E-03
  -4.99999987E-05  -9.77812894E-03
   0.00000000      -9.88610554E-03
   4.99999987E-05  -9.99486819E-03
   9.99999975E-05  -1.01044578E-02
   1.50000007E-04  -1.02148838E-02
   1.99999995E-04  -1.03260260E-02
   2.50000012E-04  -1.04377810E-02
   3.00000014E-04  -1.05502345E-02
   3.49999988E-04  -1.06636193E-02
   3.99999990E-04  -1.07781021E-02
   4.49999992E-04  -1.08935628E-02
   5.00000024E-04  -1.10095404E-02
   5.49999997E-04  -1.11260144E-02
   6.00000028E-04  -1.12433843E-02
   6.50000002E-04  -1.13619706E-02
   6.99999975E-04  -1.14815319E-02
   7.50000007E-04  -1.16016362E-02
   7.99999980E-04  -1.17223822E-02
   8.50000011E-04  -1.18441153E-02
   8.99999985E-04  -1.19670229E-02
   9.50000016E-04  -1.20908218E-02
   1.00000005E-03  -1.22152399E-02
   1.04999996E-03  -1.23403883E-02
   1.09999999E-03  -1.24663981E-02
   1.15000003E-03  -1.25933494E-02
   1.20000006E-03  -1.27211567E-02
   1.24999997E-03  -1.28496652E-02
   1.30000000E-03  -1.29789561E-02
   1.35000004E-03  -1.31089725E-02
   1.39999995E-03  -1.32398270E-02
   1.44999998E-03  -1.33716818E-02
   1.50000001E-03  -1.35044362E-02
   1.55000004E-03  -1.36379329E-02
   1.59999996E-03  -1.37720918E-02
   1.64999999E-03  -1.39070312E-02
   1.70000002E-03  -1.40429921E-02
   1.75000005E-03  -1.41800558E-02
   1.79999997E-03  -1.43180750E-02
   1.85000000E-03  -1.44567061E-02
   1.90000003E-03  -1.45959267E-02
   1.94999995E-03  -1.47361998E-02
   2.00000009E-03  -1.48777142E-02
   2.05000001E-03  -1.50201712E-02
   2.09999993E-03  -1.51632596E-02
   2.15000007E-03  -1.53070251E-02
   2.19999999E-03  -1.54516473E-02
   2.24999990E-03  -1.55973444E-02
   2.30000005E-03  -1.57442093E-02
   2.34999997E-03  -1.58920176E-02
   2.40000011E-03  -1.60404164E-02
   2.45000003E-03  -1.61892362E-02
   2.49999994E-03  -1.63389239E-02
   2.55000009E-03  -1.64900348E-02
   2.60000001E-03  -1.66422799E-02
   2.64999992E-03  -1.67951752E-02
   2.70000007E-03  -1.69486143E-02
   2.74999999E-03  -1.71028636E-02
   2.79999990E-03  -1.72583740E-02