  -3.99999991E-02   0.00000000    
  -3.99499983E-02   0.00000000    
  -3.99000011E-02   0.00000000    
  -3.98500003E-02   0.00000000    
  -3.97999994E-02   0.00000000    
  -3.97499986E-02  -8.24700355E-24
  -3.97000015E-02  -4.24567116E-23
  -3.96500006E-02  -1.64867948E-25
  -3.95999998E-02   8.76233675E-22
  -3.95499989E-02   5.19380931E-21
  -3.95000018E-02   1.90598149E-20
  -3.94500010E-02   5.31000742E-20
  -3.94000001E-02   1.20995935E-19
  -3.93499993E-02   2.33985278E-19
  -3.92999984E-02   3.91721590E-19
  -3.92500013E-02   5.72946134E-19
  -3.92000005E-02   7.31760728E-19
  -3.91499996E-02   8.04629549E-19
  -3.90999988E-02   7.28483852E-19
  -3.90500017E-02   4.62891615E-19
  -3.90000008E-02   3.14822881E-21
  -3.89500000E-02  -6.28878847E-19
  -3.88999991E-02  -1.42077111E-18
  -3.88499983E-02  -2.42227538E-18
  -3.88000011E-02  -3.79076237E-18
  -3.87500003E-02  -5.80170833E-18
  -3.86999995E-02  -8.80819967E-18
  -3.86499986E-02  -1.31583053E-17
  -3.86000015E-02  -1.91066016E-17
  -3.85500006E-02  -2.67710073E-17
  -3.84999998E-02  -3.61760923E-17
  -3.84499989E-02  -4.73869604E-17
  -3.84000018E-02  -6.06861056E-17
  -3.83500010E-02  -7.67044383E-17
  -3.83000001E-02  -9.64139951E-17
  -3.82499993E-02  -1.20938001E-16
  -3.81999984E-02  -1.51219535E-16
  -3.81500013E-02  -1.87676124E-16
  -3.81000005E-02  -2.30004332E-16
  -3.80499996E-02  -2.77259295E-16
  -3.79999988E-02  -3.28222197E-16
  -3.79500017E-02  -3.81933112E-16
  -3.79000008E-02  -4.38165803E-16
  -3.78500000E-02  -4.97612692E-16
  -3.77999991E-02  -5.61647060E-16
  -3.77499983E-02  -6.31708490E-16
  -3.77000012E-02  -7.08539937E-16
  -3.76500003E-02  -7.91603429E-16
  -3.75999995E-02  -8.78947190E-16
  -3.75499986E-02  -9.67605334E-16
  -3.75000015E-02  -1.05435443E-15
  -3.74500006E-02  -1.13647025E-15
  -3.73999998E-02  -1.21209928E-15
  -3.73499990E-02  -1.28003333E-15
  -3.73000018E-02  -1.33894278E-15
  -3.72500010E-02  -1.38639113E-15
  -3.72000001E-02  -1.41807122E-15
  -3.71499993E-02  -1.42764280E-15
  -3.70999984E-02  -1.40730935E-15
  -3.70500013E-02  -1.34897303E-15
  -3.70000005E-02  -1.24556311E-15
  -3.69499996E-02  -1.09207111E-15
  -3.68999988E-02  -8.85959882E-16
  -3.68500017E-02  -6.26864044E-16
  -3.68000008E-02  -3.15741298E-16
  -3.67500000E-02   4.62574486E-17
  -3.66999991E-02   4.58933833E-16
  -3.66499983E-02   9.24009184E-16
  -3.66000012E-02   1.44573955E-15
  -3.65500003E-02   2.03098087E-15
  -3.64999995E-02   2.68849930E-15
  -3.64499986E-02   3.42745487E-15
  -3.64000015E-02   4.25526271E-15
  -3.63500006E-02   5.17542255E-15
  -3.62999998E-02   6.18613657E-15
  -3.62499990E-02   7.28045401E-15
  -3.62000018E-02   8.44813043E-15
  -3.61500010E-02   9.67851609E-15
  -3.61000001E-02   1.09629331E-14
  -3.60499993E-02   1.22948264E-14
  -3.59999985E-02   1.36666640E-14
  -3.59500013E-02   1.50642811E-14
  -3.59000005E-02   1.64612434E-14
  -3.58499996E-02   1.78168535E-14
  -3.57999988E-02   1.90806979E-14
  -3.57500017E-02   2.02040279E-14
  -3.57000008E-02   2.11544513E-14
  -3.56500000E-02   2.19275451E-14
  -3.55999991E-02   2.25484389E-14
  -3.55499983E-02   2.30595216E-14
  -3.55000012E-02   2.34963111E-14
  -3.54500003E-02   2.38600050E-14
  -3.53999995E-02   2.40990242E-14
  -3.53499986E-02   2.41103236E-14
  -3.53000015E-02   2.37639938E-14
  -3.52500007E-02   2.29439779E-14
  -3.51999998E-02   2.15884964E-14
  -3.51499990E-02   1.97108819E-14
  -3.51000018E-02   1.73878059E-14
  -3.50500010E-02   1.47158320E-14
  -3.50000001E-02   1.17531344E-14
  -3.49499993E-02   8.47354735E-15
  -3.48999985E-02   4.75844602E-15
  -3.48500013E-02   4.37174112E-16
  -3.48000005E-02  -4.63604087E-15
  -3.47499996E-02  -1.05013061E-14
  -3.46999988E-02  -1.70486726E-14
  -3.46500017E-02  -2.40388781E-14
  -3.46000008E-02  -3.11899656E-14
  -3.45500000E-02  -3.82974190E-14
  -3.44999991E-02  -4.53332948E-14
  -3.44499983E-02  -5.24714583E-14
  -3.44000012E-02  -6.00143917E-14
  -3.43500003E-02  -6.82425443E-14
  -3.42999995E-02  -7.72486662E-14
  -3.42499986E-02  -8.68367878E-14
  -3.42000015E-02  -9.65452761E-14
  -3.41500007E-02  -1.05800927E-13
  -3.40999998E-02  -1.14146756E-13
  -3.40499990E-02  -1.21441729E-13
  -3.40000018E-02  -1.27929487E-13
  -3.39500010E-02  -1.34123222E-13
  -3.39000002E-02  -1.40537836E-13
  -3.38499993E-02  -1.47379274E-13
  -3.37999985E-02  -1.54338714E-13
  -3.37500013E-02  -1.60607245E-13
  -3.37000005E-02  -1.65134602E-13
  -3.36499996E-02  -1.67040128E-13
  -3.35999988E-02  -1.65996611E-13
  -3.35500017E-02  -1.62399486E-13
  -3.35000008E-02  -1.57213191E-13
  -3.34500000E-02  -1.51530522E-13
  -3.33999991E-02  -1.46024116E-13
  -3.33499983E-02  -1.40542566E-13
  -3.33000012E-02  -1.34063266E-13
  -3.32500003E-02  -1.25065404E-13
  -3.31999995E-02  -1.12189616E-13
  -3.31499986E-02  -9.48966112E-14
  -3.31000015E-02  -7.38053688E-14
  -3.30500007E-02  -5.05113021E-14
  -3.29999998E-02  -2.69155036E-14
  -3.29499990E-02  -4.33681165E-15
  -3.29000019E-02   1.71861884E-14
  -3.28500010E-02   3.90439329E-14
  -3.28000002E-02   6.35230258E-14
  -3.27499993E-02   9.27752206E-14
  -3.26999985E-02   1.27732040E-13
  -3.26500013E-02   1.67481534E-13
  -3.26000005E-02   2.09454375E-13
  -3.25499997E-02   2.50411616E-13
  -3.24999988E-02   2.87838845E-13
  -3.24500017E-02   3.21116099E-13
  -3.24000008E-02   3.51878710E-13
  -3.23500000E-02   3.83315585E-13
  -3.22999991E-02   4.18640166E-13
  -3.22499983E-02   4.59389579E-13
  -3.22000012E-02   5.04355347E-13
  -3.21500003E-02   5.49721455E-13
  -3.20999995E-02   5.90463117E-13
  -3.20499986E-02   6.22456513E-13
  -3.20000015E-02   6.44358861E-13
  -3.19500007E-02   6.58339323E-13
  -3.18999998E-02   6.69205088E-13
  -3.18499990E-02   6.82193614E-13
  -3.18000019E-02   7.00362132E-13
  -3.17500010E-02   7.22780885E-13
  -3.17000002E-02   7.44459995E-13
  -3.16499993E-02   7.58192500E-13
  -3.15999985E-02   7.57604428E-13
  -3.15500014E-02   7.40063121E-13
  -3.15000005E-02   7.08058395E-13
  -3.14499997E-02   6.68276957E-13
  -3.13999988E-02   6.28631099E-13
  -3.13500017E-02   5.94490657E-13
  -3.13000008E-02   5.65850643E-13
  -3.12500000E-02   5.36856150E-13
  -3.11999992E-02   4.98096139E-13
  -3.11500002E-02   4.40793750E-13
  -3.10999993E-02   3.61047943E-13
  -3.10500003E-02   2.62115199E-13
  -3.09999995E-02   1.53494703E-13
  -3.09500005E-02   4.70031559E-14
  -3.08999997E-02  -4.85304851E-14
  -3.08500007E-02  -1.31543404E-13
  -3.07999998E-02  -2.08889316E-13
  -3.07500008E-02  -2.93085272E-13
  -3.07000000E-02  -3.96669568E-13
  -3.06499992E-02  -5.26125747E-13
  -3.06000002E-02  -6.78208683E-13
  -3.05499993E-02  -8.40574301E-13
  -3.05000003E-02  -9.96715839E-13
  -3.04499995E-02  -1.13317287E-12
  -3.04000005E-02  -1.24576738E-12
  -3.03499997E-02  -1.34185631E-12
  -3.03000007E-02  -1.43726415E-12
  -3.02499998E-02  -1.54897937E-12
  -3.02000009E-02  -1.68677149E-12
  -3.01500000E-02  -1.84760085E-12
  -3.00999992E-02  -2.01564286E-12
  -3.00500002E-02  -2.16828573E-12
  -2.99999993E-02  -2.28568358E-12
  -2.99500003E-02  -2.35961706E-12
  -2.98999995E-02  -2.39747154E-12
  -2.98500005E-02  -2.41917228E-12
  -2.97999997E-02  -2.44808947E-12
  -2.97500007E-02  -2.49980939E-12
  -2.96999998E-02  -2.57390637E-12
  -2.96500009E-02  -2.65275432E-12
  -2.96000000E-02  -2.70833854E-12
  -2.95499992E-02  -2.71435847E-12
  -2.95000002E-02  -2.65825686E-12
  -2.94499993E-02  -2.54754681E-12
  -2.94000003E-02  -2.40715260E-12
  -2.93499995E-02  -2.26850027E-12
  -2.93000005E-02  -2.15499753E-12
  -2.92499997E-02  -2.07048766E-12
  -2.92000007E-02  -1.99624345E-12
  -2.91499998E-02  -1.89836970E-12
  -2.91000009E-02  -1.74273042E-12
  -2.90500000E-02  -1.51084516E-12
  -2.89999992E-02  -1.20939294E-12
  -2.89500002E-02  -8.68559673E-13
  -2.88999993E-02  -5.29417439E-13
  -2.88500004E-02  -2.25647707E-13
  -2.87999995E-02   3.21688002E-14
  -2.87500005E-02   2.62250481E-13
  -2.86999997E-02   5.04144469E-13
  -2.86500007E-02   8.00900741E-13
  -2.85999998E-02   1.17866567E-12
  -2.85500009E-02   1.63305307E-12
  -2.85000000E-02   2.12895673E-12
  -2.84499992E-02   2.61454530E-12
  -2.84000002E-02   3.04362850E-12
  -2.83499993E-02   3.39642160E-12
  -2.83000004E-02   3.68901350E-12
  -2.82499995E-02   3.96662564E-12
  -2.82000005E-02   4.28304354E-12
  -2.81499997E-02   4.67510405E-12
  -2.81000007E-02   5.14381419E-12
  -2.80499998E-02   5.65111499E-12
  -2.80000009E-02   6.13445883E-12
  -2.79500000E-02   6.53323532E-12
  -2.78999992E-02   6.81535514E-12
  -2.78500002E-02   6.99173055E-12
  -2.77999993E-02   7.11150409E-12
  -2.77500004E-02   7.23945426E-12
  -2.76999995E-02   7.42529128E-12
  -2.76500005E-02   7.67872311E-12
  -2.75999997E-02   7.96200172E-12
  -2.75500007E-02   8.20411013E-12
  -2.74999999E-02   8.33090021E-12
  -2.74500009E-02   8.29793179E-12
  -2.74000000E-02   8.11102054E-12
  -2.73499992E-02   7.82457085E-12
  -2.73000002E-02   7.51764883E-12
  -2.72499993E-02   7.25795899E-12
  -2.72000004E-02   7.06983474E-12
  -2.71499995E-02   6.92108437E-12
  -2.71000005E-02   6.73539740E-12
  -2.70499997E-02   6.42551854E-12
  -2.70000007E-02   5.93271265E-12
  -2.69499999E-02   5.25464394E-12
  -2.69000009E-02   4.44852011E-12
  -2.68500000E-02   3.60722867E-12
  -2.67999992E-02   2.81850476E-12
  -2.67500002E-02   2.12524876E-12
  -2.66999993E-02   1.50519159E-12
  -2.66500004E-02   8.79828166E-13
  -2.65999995E-02   1.49481339E-13
  -2.65500005E-02  -7.60672124E-13
  -2.64999997E-02  -1.86426352E-12
  -2.64500007E-02  -3.10393985E-12
  -2.63999999E-02  -4.37338186E-12
  -2.63500009E-02  -5.56206340E-12
  -2.63000000E-02  -6.60307052E-12
  -2.62499992E-02  -7.50234163E-12
  -2.62000002E-02  -8.33553886E-12
  -2.61499994E-02  -9.21308342E-12
  -2.61000004E-02  -1.02283676E-11
  -2.60499995E-02  -1.14121950E-11
  -2.60000005E-02  -1.27142819E-11
  -2.59499997E-02  -1.40209034E-11
  -2.59000007E-02  -1.52016438E-11
  -2.58499999E-02  -1.61648021E-11
  -2.58000009E-02  -1.68966247E-11
  -2.57500000E-02  -1.74662108E-11
  -2.56999992E-02  -1.79930550E-11
  -2.56500002E-02  -1.85909899E-11
  -2.55999994E-02  -1.93133426E-11
  -2.55500004E-02  -2.01240725E-11
  -2.54999995E-02  -2.09085596E-11
  -2.54500005E-02  -2.15201260E-11
  -2.53999997E-02  -2.18421670E-11
  -2.53500007E-02  -2.18383037E-11
  -2.52999999E-02  -2.15677285E-11
  -2.52500009E-02  -2.11581620E-11
  -2.52000000E-02  -2.07476276E-11
  -2.51499992E-02  -2.04206565E-11
  -2.51000002E-02  -2.01673990E-11
  -2.50499994E-02  -1.98845766E-11
  -2.50000004E-02  -1.94187114E-11
  -2.49499995E-02  -1.86331835E-11
  -2.49000005E-02  -1.74695831E-11
  -2.48499997E-02  -1.59757711E-11
  -2.48000007E-02  -1.42874610E-11
  -2.47499999E-02  -1.25705531E-11
  -2.47000009E-02  -1.09492198E-11
  -2.46500000E-02  -9.45147866E-12
  -2.45999992E-02  -7.99686966E-12
  -2.45500002E-02  -6.43248432E-12
  -2.44999994E-02  -4.60225694E-12
  -2.44500004E-02  -2.41928591E-12
  -2.43999995E-02   9.08737197E-14
  -2.43500005E-02   2.79571873E-12
  -2.42999997E-02   5.50853937E-12
  -2.42500007E-02   8.06585441E-12
  -2.41999999E-02   1.03956488E-11
  -2.41500009E-02   1.25460206E-11
  -2.41000000E-02   1.46608455E-11
  -2.40499992E-02   1.69122980E-11
  -2.40000002E-02   1.94193255E-11
  -2.39499994E-02   2.21879078E-11
  -2.39000004E-02   2.50999135E-11
  -2.38499995E-02   2.79563924E-11
  -2.38000005E-02   3.05572581E-11
  -2.37499997E-02   3.27828598E-11
  -2.37000007E-02   3.46415813E-11
  -2.36499999E-02   3.62618963E-11
  -2.36000009E-02   3.78314047E-11
  -2.35500000E-02   3.95086810E-11
  -2.34999992E-02   4.13463326E-11
  -2.34500002E-02   4.32593510E-11
  -2.33999994E-02   4.50535685E-11
  -2.33500004E-02   4.65029681E-11
  -2.32999995E-02   4.74427962E-11
  -2.32500006E-02   4.78379489E-11
  -2.31999997E-02   4.77960622E-11
  -2.31500007E-02   4.75184961E-11
  -2.30999999E-02   4.72093545E-11
  -2.30500009E-02   4.69817310E-11
  -2.30000000E-02   4.68023086E-11
  -2.29499992E-02   4.64995785E-11
  -2.29000002E-02   4.58335210E-11
  -2.28499994E-02   4.45977665E-11
  -2.28000004E-02   4.27101687E-11
  -2.27499995E-02   4.02518227E-11
  -2.27000006E-02   3.74362416E-11
  -2.26499997E-02   3.45204525E-11
  -2.26000007E-02   3.16955906E-11
  -2.25499999E-02   2.90044620E-11
  -2.25000009E-02   2.63228224E-11
  -2.24500000E-02   2.34143139E-11
  -2.23999992E-02   2.00367240E-11
  -2.23500002E-02   1.60543245E-11
  -2.22999994E-02   1.15070774E-11
  -2.22500004E-02   6.60510622E-12
  -2.21999995E-02   1.64876283E-12
  -2.21500006E-02  -3.09264355E-12
  -2.20999997E-02  -7.49137558E-12
  -2.20500007E-02  -1.16121340E-11
  -2.19999999E-02  -1.56792149E-11
  -2.19500009E-02  -1.99719928E-11
  -2.19000001E-02  -2.46927045E-11
  -2.18499992E-02  -2.98640002E-11
  -2.18000002E-02  -3.53023374E-11
  -2.17499994E-02  -4.06812951E-11
  -2.17000004E-02  -4.56596184E-11
  -2.16499995E-02  -5.00195128E-11
  -2.16000006E-02  -5.37543898E-11
  -2.15499997E-02  -5.70658486E-11
  -2.15000007E-02  -6.02683597E-11
  -2.14499999E-02  -6.36411340E-11
  -2.14000009E-02  -6.72911865E-11
  -2.13500001E-02  -7.10887113E-11
  -2.12999992E-02  -7.47059914E-11
  -2.12500002E-02  -7.77459902E-11
  -2.11999994E-02  -7.99064773E-11
  -2.11500004E-02  -8.11081896E-11
  -2.10999995E-02  -8.15288045E-11
  -2.10500006E-02  -8.15245371E-11
  -2.09999997E-02  -8.14706844E-11
  -2.09500007E-02  -8.15893325E-11
  -2.08999999E-02  -8.18405135E-11
  -2.08500009E-02  -8.19275134E-11
  -2.08000001E-02  -8.14177198E-11
  -2.07499992E-02  -7.99289593E-11
  -2.07000002E-02  -7.73005548E-11
  -2.06499994E-02  -7.36722003E-11
  -2.06000004E-02  -6.94326055E-11
  -2.05499995E-02  -6.50566823E-11
  -2.05000006E-02  -6.09003958E-11
  -2.04499997E-02  -5.70438384E-11
  -2.04000007E-02  -5.32541337E-11
  -2.03499999E-02  -4.90888025E-11
  -2.03000009E-02  -4.40977220E-11
  -2.02500001E-02  -3.80364698E-11
  -2.01999992E-02  -3.09958205E-11
  -2.01500002E-02  -2.33865826E-11
  -2.00999994E-02  -1.57820475E-11
  -2.00500004E-02  -8.68405001E-12
  -1.99999996E-02  -2.31501949E-12
  -1.99500006E-02   3.47008923E-12
  -1.98999997E-02   9.10902343E-12
  -1.98500007E-02   1.51234858E-11
  -1.97999999E-02   2.18662987E-11
  -1.97500009E-02   2.93369010E-11
  -1.97000001E-02   3.71501996E-11
  -1.96499992E-02   4.46773556E-11
  -1.96000002E-02   5.13002800E-11
  -1.95499994E-02   5.66686802E-11
  -1.95000004E-02   6.08442324E-11
  -1.94499996E-02   6.42637610E-11
  -1.94000006E-02   6.75329931E-11
  -1.93499997E-02   7.11391016E-11
  -1.93000007E-02   7.52093110E-11
  -1.92499999E-02   7.94256744E-11
  -1.92000009E-02   8.31389610E-11
  -1.91500001E-02   8.56359220E-11
  -1.90999992E-02   8.64439492E-11
  -1.90500002E-02   8.55371329E-11
  -1.89999994E-02   8.33484393E-11
  -1.89500004E-02   8.05777042E-11
  -1.88999996E-02   7.78767537E-11
  -1.88500006E-02   7.55505797E-11
  -1.87999997E-02   7.34095978E-11
  -1.87500007E-02   7.08434839E-11
  -1.86999999E-02   6.70888206E-11
  -1.86500009E-02   6.15746551E-11
  -1.86000001E-02   5.41922930E-11
  -1.85499992E-02   4.53658569E-11
  -1.85000002E-02   3.58872237E-11
  -1.84499994E-02   2.65842296E-11
  -1.84000004E-02   1.79678269E-11
  -1.83499996E-02   1.00167201E-11
  -1.83000006E-02   2.19950729E-12
  -1.82499997E-02  -6.27038005E-12
  -1.82000007E-02  -1.60568607E-11
  -1.81499999E-02  -2.73680696E-11
  -1.81000009E-02  -3.98189502E-11
  -1.80500001E-02  -5.25556022E-11
  -1.79999992E-02  -6.45907147E-11
  -1.79500002E-02  -7.52032672E-11
  -1.78999994E-02  -8.42238917E-11
  -1.78500004E-02  -9.20752918E-11
  -1.77999996E-02  -9.95450597E-11
  -1.77500006E-02  -1.07388508E-10
  -1.76999997E-02  -1.15937732E-10
  -1.76500008E-02  -1.24893498E-10
  -1.75999999E-02  -1.33397571E-10
  -1.75500009E-02  -1.40358156E-10
  -1.75000001E-02  -1.44887075E-10
  -1.74499992E-02  -1.46653689E-10
  -1.74000002E-02  -1.45995466E-10
  -1.73499994E-02  -1.43731263E-10
  -1.73000004E-02  -1.40756878E-10
  -1.72499996E-02  -1.37601847E-10
  -1.72000006E-02  -1.34146097E-10
  -1.71499997E-02  -1.29627531E-10
  -1.71000008E-02  -1.22941601E-10
  -1.70499999E-02  -1.13102763E-10
  -1.70000009E-02  -9.96632707E-11
  -1.69500001E-02  -8.29002908E-11
  -1.68999992E-02  -6.36841413E-11
  -1.68500002E-02  -4.30829435E-11
  -1.67999994E-02  -2.18777357E-11
  -1.67500004E-02  -2.05531867E-13
  -1.66999996E-02   2.25071004E-11
  -1.66500006E-02   4.72857274E-11
  -1.65999997E-02   7.51364942E-11
  -1.65500008E-02   1.06569926E-10
  -1.64999999E-02   1.41333473E-10
  -1.64500009E-02   1.78475679E-10
  -1.64000001E-02   2.16716173E-10
  -1.63499992E-02   2.54959359E-10
  -1.63000003E-02   2.92722818E-10
  -1.62499994E-02   3.30286826E-10
  -1.62000004E-02   3.68494790E-10
  -1.61499996E-02   4.08291262E-10
  -1.61000006E-02   4.50201071E-10
  -1.60499997E-02   4.93983576E-10
  -1.60000008E-02   5.38618150E-10
  -1.59499999E-02   5.82631055E-10
  -1.59000009E-02   6.24620022E-10
  -1.58500001E-02   6.63743061E-10
  -1.57999992E-02   6.99951597E-10
  -1.57500003E-02   7.33861916E-10
  -1.56999994E-02   7.66318176E-10
  -1.56500004E-02   7.97841071E-10
  -1.55999996E-02   8.28208169E-10
  -1.55499997E-02   8.56355542E-10
  -1.54999997E-02   8.80648166E-10
  -1.54499998E-02   8.99399888E-10
  -1.53999999E-02   9.11415277E-10
  -1.53500000E-02   9.16308307E-10
  -1.53000001E-02   9.14457177E-10
  -1.52500002E-02   9.06611619E-10
  -1.52000003E-02   8.93327301E-10
  -1.51500003E-02   8.74480044E-10
  -1.51000004E-02   8.49077308E-10
  -1.50499996E-02   8.15455481E-10
  -1.49999997E-02   7.71776199E-10
  -1.49499997E-02   7.16602777E-10
  -1.48999998E-02   6.49300114E-10
  -1.48499999E-02   5.70078318E-10
  -1.48000000E-02   4.79659090E-10
  -1.47500001E-02   3.78712423E-10
  -1.47000002E-02   2.67313865E-10
  -1.46500003E-02   1.44665530E-10
  -1.46000003E-02   9.20741434E-12
  -1.45500004E-02  -1.40928880E-10
  -1.44999996E-02  -3.07323361E-10
  -1.44499997E-02  -4.90793794E-10
  -1.43999998E-02  -6.91255719E-10
  -1.43499998E-02  -9.07979081E-10
  -1.42999999E-02  -1.14012877E-09
  -1.42500000E-02  -1.38734746E-09
  -1.42000001E-02  -1.65012182E-09
  -1.41500002E-02  -1.92976635E-09
  -1.41000003E-02  -2.22803087E-09
  -1.40500003E-02  -2.54650590E-09
  -1.40000004E-02  -2.88608915E-09
  -1.39499996E-02  -3.24675131E-09
  -1.38999997E-02  -3.62770836E-09
  -1.38499998E-02  -4.02792111E-09
  -1.37999998E-02  -4.44670345E-09
  -1.37499999E-02  -4.88416818E-09
  -1.37000000E-02  -5.34130828E-09
  -1.36500001E-02  -5.81968251E-09
  -1.36000002E-02  -6.32083630E-09
  -1.35500003E-02  -6.84572443E-09
  -1.35000004E-02  -7.39438644E-09
  -1.34500004E-02  -7.96602073E-09
  -1.33999996E-02  -8.55942872E-09
  -1.33499997E-02  -9.17363341E-09
  -1.32999998E-02  -9.80838877E-09
  -1.32499998E-02  -1.04643627E-08
  -1.31999999E-02  -1.11429079E-08
  -1.31500000E-02  -1.18455219E-08
  -1.31000001E-02  -1.25732340E-08
  -1.30500002E-02  -1.33262033E-08
  -1.30000003E-02  -1.41036933E-08
  -1.29500004E-02  -1.49044439E-08
  -1.29000004E-02  -1.57272879E-08
  -1.28499996E-02  -1.65717022E-08
  -1.27999997E-02  -1.74381150E-08
  -1.27499998E-02  -1.83277500E-08
  -1.26999998E-02  -1.92421581E-08
  -1.26499999E-02  -2.01825774E-08
  -1.26000000E-02  -2.11494697E-08
  -1.25500001E-02  -2.21423768E-08
  -1.25000002E-02  -2.31602062E-08
  -1.24500003E-02  -2.42018103E-08
  -1.24000004E-02  -2.52665942E-08
  -1.23500004E-02  -2.63548721E-08
  -1.22999996E-02  -2.74678520E-08
  -1.22499997E-02  -2.86072126E-08
  -1.21999998E-02  -2.97744887E-08
  -1.21499998E-02  -3.09705506E-08
  -1.20999999E-02  -3.21953628E-08
  -1.20500000E-02  -3.34482060E-08
  -1.20000001E-02  -3.47281777E-08
  -1.19500002E-02  -3.60348196E-08
  -1.19000003E-02  -3.73685793E-08
  -1.18500004E-02  -3.87308461E-08
  -1.18000004E-02  -4.01236235E-08
  -1.17499996E-02  -4.15489296E-08
  -1.16999997E-02  -4.30081961E-08
  -1.16499998E-02  -4.45019701E-08
  -1.15999999E-02  -4.60300029E-08
  -1.15499999E-02  -4.75917332E-08
  -1.15000000E-02  -4.91869088E-08
  -1.14500001E-02  -5.08161229E-08
  -1.14000002E-02  -5.24809813E-08
  -1.13500003E-02  -5.41838610E-08
  -1.13000004E-02  -5.59273374E-08
  -1.12500004E-02  -5.77136099E-08
  -1.11999996E-02  -5.95440390E-08
  -1.11499997E-02  -6.14191933E-08
  -1.10999998E-02  -6.33392077E-08
  -1.10499999E-02  -6.53043841E-08
  -1.09999999E-02  -6.73157246E-08
  -1.09500000E-02  -6.93752114E-08
  -1.09000001E-02  -7.14856014E-08
  -1.08500002E-02  -7.36499288E-08
  -1.08000003E-02  -7.58709149E-08
  -1.07500004E-02  -7.81504781E-08
  -1.07000005E-02  -8.04896843E-08
  -1.06499996E-02  -8.28890805E-08
  -1.05999997E-02  -8.53492779E-08
  -1.05499998E-02  -8.78715838E-08
  -1.04999999E-02  -9.04582933E-08
  -1.04499999E-02  -9.31126536E-08
  -1.04000000E-02  -9.58383950E-08
  -1.03500001E-02  -9.86390845E-08
  -1.03000002E-02  -1.01517600E-07
  -1.02500003E-02  -1.04475930E-07
  -1.02000004E-02  -1.07515447E-07
  -1.01500005E-02  -1.10637373E-07
  -1.00999996E-02  -1.13843434E-07
  -1.00499997E-02  -1.17136246E-07
  -9.99999978E-03  -1.20519303E-07
  -9.94999986E-03  -1.23996628E-07
  -9.89999995E-03  -1.27572193E-07
  -9.85000003E-03  -1.31249308E-07
  -9.80000012E-03  -1.35030447E-07
  -9.75000020E-03  -1.38917386E-07
  -9.70000029E-03  -1.42911688E-07
  -9.65000037E-03  -1.47015328E-07
  -9.60000046E-03  -1.51231134E-07
  -9.54999961E-03  -1.55562887E-07
  -9.49999969E-03  -1.60015020E-07
  -9.44999978E-03  -1.64592066E-07
  -9.39999986E-03  -1.69297977E-07
  -9.34999995E-03  -1.74136019E-07
  -9.30000003E-03  -1.79108667E-07
  -9.25000012E-03  -1.84218166E-07
  -9.20000020E-03  -1.89467102E-07
  -9.15000029E-03  -1.94858885E-07
  -9.10000037E-03  -2.00397864E-07
  -9.05000046E-03  -2.06089098E-07
  -8.99999961E-03  -2.11937845E-07
  -8.94999970E-03  -2.17948923E-07
  -8.89999978E-03  -2.24126310E-07
  -8.84999987E-03  -2.30473233E-07
  -8.79999995E-03  -2.36992491E-07
  -8.75000004E-03  -2.43687111E-07
  -8.70000012E-03  -2.50560817E-07
  -8.65000021E-03  -2.57618268E-07
  -8.60000029E-03  -2.64864838E-07
  -8.55000038E-03  -2.72306238E-07
  -8.50000046E-03  -2.79947869E-07
  -8.44999962E-03  -2.87794506E-07
  -8.39999970E-03  -2.95850185E-07
  -8.34999979E-03  -3.04118601E-07
  -8.29999987E-03  -3.12603561E-07
  -8.24999996E-03  -3.21309670E-07
  -8.20000004E-03  -3.30242472E-07
  -8.15000013E-03  -3.39408359E-07
  -8.10000021E-03  -3.48814126E-07
  -8.05000030E-03  -3.58466480E-07
  -8.00000038E-03  -3.68371502E-07
  -7.95000046E-03  -3.78534651E-07
  -7.89999962E-03  -3.88960927E-07
  -7.84999970E-03  -3.99655534E-07
  -7.79999979E-03  -4.10624239E-07
  -7.74999987E-03  -4.21873750E-07
  -7.69999996E-03  -4.33411685E-07
  -7.65000004E-03  -4.45245945E-07
  -7.60000013E-03  -4.57384431E-07
  -7.55000021E-03  -4.69834475E-07
  -7.49999983E-03  -4.82602729E-07
  -7.44999992E-03  -4.95695417E-07
  -7.40000000E-03  -5.09118991E-07
  -7.35000009E-03  -5.22880214E-07
  -7.30000017E-03  -5.36987102E-07
  -7.24999979E-03  -5.51448409E-07
  -7.19999988E-03  -5.66273400E-07
  -7.14999996E-03  -5.81471568E-07
  -7.10000005E-03  -5.97051951E-07
  -7.05000013E-03  -6.13023076E-07
  -7.00000022E-03  -6.29393071E-07
  -6.94999984E-03  -6.46170122E-07
  -6.89999992E-03  -6.63363153E-07
  -6.85000001E-03  -6.80981827E-07
  -6.80000009E-03  -6.99036718E-07
  -6.75000018E-03  -7.17539137E-07
  -6.69999979E-03  -7.36500454E-07
  -6.64999988E-03  -7.55931637E-07
  -6.59999996E-03  -7.75843148E-07
  -6.55000005E-03  -7.96245217E-07
  -6.50000013E-03  -8.17147907E-07
  -6.45000022E-03  -8.38561959E-07
  -6.39999984E-03  -8.60498858E-07
  -6.34999992E-03  -8.82970880E-07
  -6.30000001E-03  -9.05991044E-07
  -6.25000009E-03  -9.29572309E-07
  -6.20000018E-03  -9.53727522E-07
  -6.14999980E-03  -9.78469075E-07
  -6.09999988E-03  -1.00380907E-06
  -6.04999997E-03  -1.02975969E-06
  -6.00000005E-03  -1.05633364E-06
  -5.95000014E-03  -1.08354436E-06
  -5.90000022E-03  -1.11140616E-06
  -5.84999984E-03  -1.13993428E-06
  -5.79999993E-03  -1.16914396E-06
  -5.75000001E-03  -1.19905019E-06
  -5.70000010E-03  -1.22966765E-06
  -5.65000018E-03  -1.26101099E-06
  -5.59999980E-03  -1.29309490E-06
  -5.54999989E-03  -1.32593448E-06
  -5.49999997E-03  -1.35954542E-06
  -5.45000006E-03  -1.39394479E-06
  -5.40000014E-03  -1.42914973E-06
  -5.35000023E-03  -1.46517766E-06
  -5.29999984E-03  -1.50204608E-06
  -5.24999993E-03  -1.53977169E-06
  -5.20000001E-03  -1.57837133E-06
  -5.15000010E-03  -1.61786204E-06
  -5.10000018E-03  -1.65826066E-06
  -5.04999980E-03  -1.69958582E-06
  -4.99999989E-03  -1.74185584E-06
  -4.94999997E-03  -1.78509038E-06
  -4.90000006E-03  -1.82930876E-06
  -4.85000014E-03  -1.87453065E-06
  -4.80000023E-03  -1.92077573E-06
  -4.74999985E-03  -1.96806309E-06
  -4.69999993E-03  -2.01641251E-06
  -4.65000002E-03  -2.06584423E-06
  -4.60000010E-03  -2.11637962E-06
  -4.55000019E-03  -2.16804006E-06
  -4.49999981E-03  -2.22084805E-06
  -4.44999989E-03  -2.27482610E-06
  -4.39999998E-03  -2.32999628E-06
  -4.35000006E-03  -2.38638131E-06
  -4.30000015E-03  -2.44400303E-06
  -4.25000023E-03  -2.50288440E-06
  -4.19999985E-03  -2.56304838E-06
  -4.14999994E-03  -2.62451908E-06
  -4.10000002E-03  -2.68732083E-06
  -4.05000011E-03  -2.75147863E-06
  -4.00000019E-03  -2.81701773E-06
  -3.94999981E-03  -2.88396313E-06
  -3.89999989E-03  -2.95233986E-06
  -3.84999998E-03  -3.02217290E-06
  -3.80000006E-03  -3.09348820E-06
  -3.74999992E-03  -3.16631235E-06
  -3.70000000E-03  -3.24067219E-06
  -3.65000009E-03  -3.31659612E-06
  -3.59999994E-03  -3.39411258E-06
  -3.55000002E-03  -3.47324999E-06
  -3.50000011E-03  -3.55403654E-06
  -3.44999996E-03  -3.63650065E-06
  -3.40000005E-03  -3.72067097E-06
  -3.34999990E-03  -3.80657730E-06
  -3.29999998E-03  -3.89424940E-06
  -3.25000007E-03  -3.98371913E-06
  -3.19999992E-03  -4.07501875E-06
  -3.15000000E-03  -4.16818011E-06
  -3.10000009E-03  -4.26323550E-06
  -3.04999994E-03  -4.36021583E-06
  -3.00000003E-03  -4.45915384E-06
  -2.95000011E-03  -4.56008138E-06
  -2.89999996E-03  -4.66303209E-06
  -2.85000005E-03  -4.76804007E-06
  -2.79999990E-03  -4.87514126E-06
  -2.74999999E-03  -4.98437112E-06
  -2.70000007E-03  -5.09576603E-06
  -2.64999992E-03  -5.20936055E-06
  -2.60000001E-03  -5.32519016E-06
  -2.55000009E-03  -5.44329032E-06
  -2.49999994E-03  -5.56369696E-06
  -2.45000003E-03  -5.68644737E-06
  -2.40000011E-03  -5.81157974E-06
  -2.34999997E-03  -5.93913410E-06
  -2.30000005E-03  -6.06915000E-06
  -2.24999990E-03  -6.20166793E-06
  -2.19999999E-03  -6.33672789E-06
  -2.15000007E-03  -6.47436946E-06
  -2.09999993E-03  -6.61463264E-06
  -2.05000001E-03  -6.75755746E-06
  -2.00000009E-03  -6.90318439E-06
  -1.94999995E-03  -7.05155753E-06
  -1.90000003E-03  -7.20272010E-06
  -1.85000000E-03  -7.35671802E-06
  -1.79999997E-03  -7.51359403E-06
  -1.75000005E-03  -7.67339225E-06
  -1.70000002E-03  -7.83615633E-06
  -1.64999999E-03  -8.00192720E-06
  -1.59999996E-03  -8.17075124E-06
  -1.55000004E-03  -8.34267212E-06
  -1.50000001E-03  -8.51773621E-06
  -1.44999998E-03  -8.69599171E-06
  -1.39999995E-03  -8.87748956E-06
  -1.35000004E-03  -9.06227524E-06
  -1.30000000E-03  -9.25039876E-06
  -1.24999997E-03  -9.44190560E-06
  -1.20000006E-03  -9.63684397E-06
  -1.15000003E-03  -9.83526024E-06
  -1.09999999E-03  -1.00372026E-05
  -1.04999996E-03  -1.02427230E-05
  -1.00000005E-03  -1.04518749E-05
  -9.50000016E-04  -1.06647112E-05
  -8.99999985E-04  -1.08812847E-05
  -8.50000011E-04  -1.11016461E-05
  -7.99999980E-04  -1.13258466E-05
  -7.50000007E-04  -1.15539351E-05
  -6.99999975E-04  -1.17859609E-05
  -6.50000002E-04  -1.20219765E-05
  -6.00000028E-04  -1.22620359E-05
  -5.49999997E-04  -1.25061952E-05
  -5.00000024E-04  -1.27545118E-05
  -4.49999992E-04  -1.30070421E-05
  -3.99999990E-04  -1.32638434E-05
  -3.49999988E-04  -1.35249657E-05
  -3.00000014E-04  -1.37904617E-05
  -2.50000012E-04  -1.40603815E-05
  -1.99999995E-04  -1.43347806E-05
  -1.50000007E-04  -1.46137154E-05
  -9.99999975E-05  -1.48972467E-05
  -4.99999987E-05  -1.51854356E-05
   0.00000000      -1.54783411E-05
   4.99999987E-05  -1.57760223E-05
   9.99999975E-05  -1.60785330E-05
   1.50000007E-04  -1.63859240E-05
   1.99999995E-04  -1.66982536E-05
   2.50000012E-04  -1.70155727E-05
   3.00000014E-04  -1.73379449E-05
   3.49999988E-04  -1.76654303E-05
   3.99999990E-04  -1.79980925E-05
   4.49999992E-04  -1.83359934E-05
   5.00000024E-04  -1.86791931E-05
   5.49999997E-04  -1.90277442E-05
   6.00000028E-04  -1.93817068E-05
   6.50000002E-04  -1.97411318E-05
   6.99999975E-04  -2.01060757E-05
   7.50000007E-04  -2.04765965E-05
   7.99999980E-04  -2.08527599E-05
   8.50000011E-04  -2.12346240E-05
   8.99999985E-04  -2.16222543E-05
   9.50000016E-04  -2.20157126E-05
   1.00000005E-03  -2.24150517E-05
   1.04999996E-03  -2.28203280E-05
   1.09999999E-03  -2.32315942E-05
   1.15000003E-03  -2.36489013E-05
   1.20000006E-03  -2.40723111E-05
   1.24999997E-03  -2.45018855E-05
   1.30000000E-03  -2.49376862E-05
   1.35000004E-03  -2.53797753E-05
   1.39999995E-03  -2.58282143E-05
   1.44999998E-03  -2.62830581E-05
   1.50000001E-03  -2.67443556E-05
   1.55000004E-03  -2.72121542E-05
   1.59999996E-03  -2.76865103E-05
   1.64999999E-03  -2.81674747E-05
   1.70000002E-03  -2.86551094E-05
   1.75000005E-03  -2.91494744E-05
   1.79999997E-03  -2.96506314E-05
   1.85000000E-03  -3.01586369E-05
   1.90000003E-03  -3.06735383E-05
   1.94999995E-03  -3.11953845E-05
   2.00000009E-03  -3.17242084E-05
   2.05000001E-03  -3.22600681E-05
   2.09999993E-03  -3.28030037E-05
   2.15000007E-03  -3.33530770E-05
   2.19999999E-03  -3.39103390E-05
   2.24999990E-03  -3.44748514E-05
   2.30000005E-03  -3.50466689E-05
   2.34999997E-03  -3.56258279E-05
   2.40000011E-03  -3.62123719E-05
   2.45000003E-03  -3.68063338E-05
   2.49999994E-03  -3.74077463E-05
   2.55000009E-03  -3.80166566E-05
   2.60000001E-03  -3.86331049E-05
   2.64999992E-03  -3.92571455E-05
   2.70000007E-03  -3.98888260E-05
   2.74999999E-03  -4.05281899E-05
   2.79999990E-03  -4.11752771E-05