  -3.99999991E-02   0.00000000    
  -3.99499983E-02   0.00000000    
  -3.99000011E-02   0.00000000    
  -3.98500003E-02   1.46889792E-18
  -3.97999994E-02   4.05812741E-18
  -3.97499986E-02  -1.10335744E-17
  -3.97000015E-02  -1.10519092E-16
  -3.96500006E-02  -4.29973935E-16
  -3.95999998E-02  -1.15099686E-15
  -3.95499989E-02  -2.41696299E-15
  -3.95000018E-02  -4.21913083E-15
  -3.94500010E-02  -6.32941389E-15
  -3.94000001E-02  -8.35157545E-15
  -3.93499993E-02  -9.90024306E-15
  -3.92999984E-02  -1.08342239E-14
  -3.92500013E-02  -1.14191468E-14
  -3.92000005E-02  -1.23044521E-14
  -3.91499996E-02  -1.42710550E-14
  -3.90999988E-02  -1.78176057E-14
  -3.90500017E-02  -2.27649676E-14
  -3.90000008E-02  -2.81059169E-14
  -3.89500000E-02  -3.22500341E-14
  -3.88999991E-02  -3.36148481E-14
  -3.88499983E-02  -3.12945877E-14
  -3.88000011E-02  -2.54428707E-14
  -3.87500003E-02  -1.71186799E-14
  -3.86999995E-02  -7.61190732E-15
  -3.86499986E-02   2.46318430E-15
  -3.86000015E-02   1.38808583E-14
  -3.85500006E-02   2.89501157E-14
  -3.84999998E-02   5.09432381E-14
  -3.84499989E-02   8.29773126E-14
  -3.84000018E-02   1.26823655E-13
  -3.83500010E-02   1.82244790E-13
  -3.83000001E-02   2.47274423E-13
  -3.82499993E-02   3.19392651E-13
  -3.81999984E-02   3.97049527E-13
  -3.81500013E-02   4.80767661E-13
  -3.81000005E-02   5.73264635E-13
  -3.80499996E-02   6.78546791E-13
  -3.79999988E-02   8.00430739E-13
  -3.79500017E-02   9.41189726E-13
  -3.79000008E-02   1.10093206E-12
  -3.78500000E-02   1.27797382E-12
  -3.77999991E-02   1.47000587E-12
  -3.77499983E-02   1.67544451E-12
  -3.77000012E-02   1.89420203E-12
  -3.76500003E-02   2.12738637E-12
  -3.75999995E-02   2.37606354E-12
  -3.75499986E-02   2.63983410E-12
  -3.75000015E-02   2.91611939E-12
  -3.74500006E-02   3.20059300E-12
  -3.73999998E-02   3.48842071E-12
  -3.73499990E-02   3.77543266E-12
  -3.73000018E-02   4.05843805E-12
  -3.72500010E-02   4.33447592E-12
  -3.72000001E-02   4.59953039E-12
  -3.71499993E-02   4.84767565E-12
  -3.70999984E-02   5.07154648E-12
  -3.70500013E-02   5.26440957E-12
  -3.70000005E-02   5.42309427E-12
  -3.69499996E-02   5.55010768E-12
  -3.68999988E-02   5.65303143E-12
  -3.68500017E-02   5.74031664E-12
  -3.68000008E-02   5.81459143E-12
  -3.67500000E-02   5.86658066E-12
  -3.66999991E-02   5.87332093E-12
  -3.66499983E-02   5.80285516E-12
  -3.66000012E-02   5.62453079E-12
  -3.65500003E-02   5.32085010E-12
  -3.64999995E-02   4.89529554E-12
  -3.64499986E-02   4.37154132E-12
  -3.64000015E-02   3.78292666E-12
  -3.63500006E-02   3.15573457E-12
  -3.62999998E-02   2.49366760E-12
  -3.62499990E-02   1.77181056E-12
  -3.62000018E-02   9.45022055E-13
  -3.61500010E-02  -3.09414156E-14
  -3.61000001E-02  -1.17436757E-12
  -3.60499993E-02  -2.46105697E-12
  -3.59999985E-02  -3.82641878E-12
  -3.59500013E-02  -5.18828947E-12
  -3.59000005E-02  -6.48232726E-12
  -3.58499996E-02  -7.69427490E-12
  -3.57999988E-02  -8.87253378E-12
  -3.57500017E-02  -1.01116988E-11
  -3.57000008E-02  -1.15105304E-11
  -3.56500000E-02  -1.31210078E-11
  -3.55999991E-02  -1.49121566E-11
  -3.55499983E-02  -1.67686108E-11
  -3.55000012E-02  -1.85295928E-11
  -3.54500003E-02  -2.00545761E-11
  -3.53999995E-02  -2.12868022E-11
  -3.53499986E-02  -2.22830712E-11
  -3.53000015E-02  -2.31909561E-11
  -3.52500007E-02  -2.41781196E-11
  -3.51999998E-02  -2.53424139E-11
  -3.51499990E-02  -2.66444002E-11
  -3.51000018E-02  -2.78981976E-11
  -3.50500010E-02  -2.88328268E-11
  -3.50000001E-02  -2.92035597E-11
  -3.49499993E-02  -2.89057805E-11
  -3.48999985E-02  -2.80367483E-11
  -3.48500013E-02  -2.68691163E-11
  -3.48000005E-02  -2.57386387E-11
  -3.47499996E-02  -2.48901837E-11
  -3.46999988E-02  -2.43511235E-11
  -3.46500017E-02  -2.38952625E-11
  -3.46000008E-02  -2.31236627E-11
  -3.45500000E-02  -2.16355579E-11
  -3.44999991E-02  -1.92169562E-11
  -3.44499983E-02  -1.59588870E-11
  -3.44000012E-02  -1.22420459E-11
  -3.43500003E-02  -8.58206908E-12
  -3.42999995E-02  -5.39579275E-12
  -3.42499986E-02  -2.79275171E-12
  -3.42000015E-02  -4.94317152E-13
  -3.41500007E-02   2.06841749E-12
  -3.40999998E-02   5.50758657E-12
  -3.40499990E-02   1.01859857E-11
  -3.40000018E-02   1.60137893E-11
  -3.39500010E-02   2.24391061E-11
  -3.39000002E-02   2.86542855E-11
  -3.38499993E-02   3.39396913E-11
  -3.37999985E-02   3.79948469E-11
  -3.37500013E-02   4.10997660E-11
  -3.37000005E-02   4.40161588E-11
  -3.36499996E-02   4.76535859E-11
  -3.35999988E-02   5.26390667E-11
  -3.35500017E-02   5.89859619E-11
  -3.35000008E-02   6.60269409E-11
  -3.34500000E-02   7.26640692E-11
  -3.33999991E-02   7.78431486E-11
  -3.33499983E-02   8.10458992E-11
  -3.33000012E-02   8.25688823E-11
  -3.32500003E-02   8.34403657E-11
  -3.31999995E-02   8.49851856E-11
  -3.31499986E-02   8.82140888E-11
  -3.31000015E-02   9.33102831E-11
  -3.30500007E-02   9.94612240E-11
  -3.29999998E-02   1.05140584E-10
  -3.29499990E-02   1.08742293E-10
  -3.29000019E-02   1.09296523E-10
  -3.28500010E-02   1.06939797E-10
  -3.28000002E-02   1.02903679E-10
  -3.27499993E-02   9.89952217E-11
  -3.26999985E-02   9.67781341E-11
  -3.26500013E-02   9.68173458E-11
  -3.26000005E-02   9.83438053E-11
  -3.25499997E-02   9.95235283E-11
  -3.24999988E-02   9.82442599E-11
  -3.24500017E-02   9.30856919E-11
  -3.24000008E-02   8.40315456E-11
  -3.23500000E-02   7.25735375E-11
  -3.22999991E-02   6.11189710E-11
  -3.22499983E-02   5.19327567E-11
  -3.22000012E-02   4.60768680E-11
  -3.21500003E-02   4.28403389E-11
  -3.20999995E-02   3.99554417E-11
  -3.20499986E-02   3.45479964E-11
  -3.20000015E-02   2.44256559E-11
  -3.19500007E-02   9.12761793E-12
  -3.18999998E-02  -9.76385726E-12
  -3.18499990E-02  -2.92356937E-11
  -3.18000019E-02  -4.61478217E-11
  -3.17500010E-02  -5.86622487E-11
  -3.17000002E-02  -6.71413827E-11
  -3.16499993E-02  -7.40692854E-11
  -3.15999985E-02  -8.29784297E-11
  -3.15500014E-02  -9.68251521E-11
  -3.15000005E-02  -1.16537377E-10
  -3.14499997E-02  -1.40418122E-10
  -3.13999988E-02  -1.64729091E-10
  -3.13500017E-02  -1.85249469E-10
  -3.13000008E-02  -1.99142772E-10
  -3.12500000E-02  -2.06286557E-10
  -3.11999992E-02  -2.09423590E-10
  -3.11500002E-02  -2.13004031E-10
  -3.10999993E-02  -2.21184612E-10
  -3.10500003E-02  -2.35863634E-10
  -3.09999995E-02  -2.55656996E-10
  -3.09500005E-02  -2.76331458E-10
  -3.08999997E-02  -2.92565833E-10
  -3.08500007E-02  -3.00292263E-10
  -3.07999998E-02  -2.98568031E-10
  -3.07500008E-02  -2.90095170E-10
  -3.07000000E-02  -2.80087065E-10
  -3.06499992E-02  -2.73928852E-10
  -3.06000002E-02  -2.74654660E-10
  -3.05499993E-02  -2.81395157E-10
  -3.05000003E-02  -2.89554797E-10
  -3.04499995E-02  -2.92717101E-10
  -3.04000005E-02  -2.85480917E-10
  -3.03499997E-02  -2.65968414E-10
  -3.03000007E-02  -2.36840131E-10
  -3.02499998E-02  -2.04286546E-10
  -3.02000009E-02  -1.75371356E-10
  -3.01500000E-02  -1.54873267E-10
  -3.00999992E-02  -1.43051362E-10
  -3.00500002E-02  -1.35394806E-10
  -2.99999993E-02  -1.24550620E-10
  -2.99500003E-02  -1.03633414E-10
  -2.98999995E-02  -6.94550736E-11
  -2.98500005E-02  -2.41911959E-11
  -2.97999997E-02   2.53417582E-11
  -2.97500007E-02   7.05624725E-11
  -2.96999998E-02   1.04922744E-10
  -2.96500009E-02   1.26925026E-10
  -2.96000000E-02   1.40947545E-10
  -2.95499992E-02   1.55412544E-10
  -2.95000002E-02   1.79030388E-10
  -2.94499993E-02   2.16760207E-10
  -2.94000003E-02   2.67319306E-10
  -2.93499995E-02   3.23435223E-10
  -2.93000005E-02   3.74826753E-10
  -2.92499997E-02   4.12655410E-10
  -2.92000007E-02   4.33473479E-10
  -2.91499998E-02   4.40855602E-10
  -2.91000009E-02   4.43893033E-10
  -2.90500000E-02   4.53131255E-10
  -2.89999992E-02   4.75715745E-10
  -2.89500002E-02   5.11933218E-10
  -2.88999993E-02   5.54771840E-10
  -2.88500004E-02   5.92804139E-10
  -2.87999995E-02   6.15190399E-10
  -2.87500005E-02   6.16594109E-10
  -2.86999997E-02   5.99768180E-10
  -2.86500007E-02   5.74554737E-10
  -2.85999998E-02   5.53637247E-10
  -2.85500009E-02   5.46866219E-10
  -2.85000000E-02   5.56692414E-10
  -2.84499992E-02   5.76813208E-10
  -2.84000002E-02   5.94748861E-10
  -2.83499993E-02   5.97299987E-10
  -2.83000004E-02   5.76497905E-10
  -2.82499995E-02   5.33362965E-10
  -2.82000005E-02   4.77702211E-10
  -2.81499997E-02   4.23922786E-10
  -2.81000007E-02   3.84647980E-10
  -2.80499998E-02   3.64973218E-10
  -2.80000009E-02   3.59989094E-10
  -2.79500000E-02   3.56792568E-10
  -2.78999992E-02   3.40202644E-10
  -2.78500002E-02   2.99691660E-10
  -2.77999993E-02   2.34421038E-10
  -2.77500004E-02   1.54038032E-10
  -2.76999995E-02   7.47480966E-11
  -2.76500005E-02   1.23040328E-11
  -2.75999997E-02  -2.50012545E-11
  -2.75500007E-02  -4.01677094E-11
  -2.74999999E-02  -4.63257037E-11
  -2.74500009E-02  -6.09696668E-11
  -2.74000000E-02  -9.80743750E-11
  -2.73499992E-02  -1.61602676E-10
  -2.73000002E-02  -2.43374376E-10
  -2.72499993E-02  -3.26369709E-10
  -2.72000004E-02  -3.92106736E-10
  -2.71499995E-02  -4.28856672E-10
  -2.71000005E-02  -4.36998909E-10
  -2.70499997E-02  -4.29021652E-10
  -2.70000007E-02  -4.24033864E-10
  -2.69499999E-02  -4.39136699E-10
  -2.69000009E-02  -4.81482743E-10
  -2.68500000E-02  -5.44632339E-10
  -2.67999992E-02  -6.10963780E-10
  -2.67500002E-02  -6.59195420E-10
  -2.66999993E-02  -6.73745892E-10
  -2.66500004E-02  -6.51750987E-10
  -2.65999995E-02  -6.04514105E-10
  -2.65500005E-02  -5.52611179E-10
  -2.64999997E-02  -5.16718890E-10
  -2.64500007E-02  -5.08211973E-10
  -2.63999999E-02  -5.23773469E-10
  -2.63500009E-02  -5.46540813E-10
  -2.63000000E-02  -5.53411483E-10
  -2.62499992E-02  -5.25342603E-10
  -2.62000002E-02  -4.56052557E-10
  -2.61499994E-02  -3.55158292E-10
  -2.61000004E-02  -2.44208015E-10
  -2.60499995E-02  -1.47249810E-10
  -2.60000005E-02  -8.00788186E-11
  -2.59499997E-02  -4.29938758E-11
  -2.59000007E-02  -2.04098249E-11
  -2.58499999E-02   1.23501652E-11
  -2.58000009E-02   7.79961373E-11
  -2.57500000E-02   1.86845789E-10
  -2.56999992E-02   3.31742883E-10
  -2.56500002E-02   4.90719687E-10
  -2.55999994E-02   6.36349196E-10
  -2.55500004E-02   7.47702400E-10
  -2.54999995E-02   8.19563750E-10
  -2.54500005E-02   8.64698035E-10
  -2.53999997E-02   9.08017994E-10
  -2.53500007E-02   9.75134973E-10
  -2.52999999E-02   1.08035914E-09
  -2.52500009E-02   1.21956045E-09
  -2.52000000E-02   1.37120404E-09
  -2.51499992E-02   1.50524870E-09
  -2.51000002E-02   1.59604019E-09
  -2.50499994E-02   1.63345903E-09
  -2.50000004E-02   1.62726488E-09
  -2.49499995E-02   1.60255742E-09
  -2.49000005E-02   1.58824820E-09
  -2.48499997E-02   1.60361646E-09
  -2.48000007E-02   1.64897695E-09
  -2.47499999E-02   1.70473569E-09
  -2.47000009E-02   1.73938697E-09
  -2.46500000E-02   1.72299186E-09
  -2.45999992E-02   1.64014247E-09
  -2.45500002E-02   1.49655843E-09
  -2.44999994E-02   1.31623945E-09
  -2.44500004E-02   1.13032239E-09
  -2.43999995E-02   9.62548263E-10
  -2.43500005E-02   8.17851620E-10
  -2.42999997E-02   6.79288126E-10
  -2.42500007E-02   5.14814968E-10
  -2.41999999E-02   2.91025926E-10
  -2.41500009E-02  -1.22528940E-11
  -2.41000000E-02  -3.93079042E-10
  -2.40499992E-02  -8.28315305E-10
  -2.40000002E-02  -1.28409317E-09
  -2.39499994E-02  -1.73123171E-09
  -2.39000004E-02  -2.15873763E-09
  -2.38499995E-02  -2.57927280E-09
  -2.38000005E-02  -3.02402214E-09
  -2.37499997E-02  -3.52913765E-09
  -2.37000007E-02  -4.11976453E-09
  -2.36499999E-02  -4.79883111E-09
  -2.36000009E-02  -5.54571855E-09
  -2.35500000E-02  -6.32553832E-09
  -2.34999992E-02  -7.10495174E-09
  -2.34500002E-02  -7.86748089E-09
  -2.33999994E-02  -8.62136584E-09
  -2.33500004E-02  -9.39634415E-09
  -2.32999995E-02  -1.02306590E-08
  -2.32500006E-02  -1.11540501E-08
  -2.31999997E-02  -1.21743469E-08
  -2.31500007E-02  -1.32737723E-08
  -2.30999999E-02  -1.44167256E-08
  -2.30500009E-02  -1.55656714E-08
  -2.30000000E-02  -1.66980527E-08
  -2.29499992E-02  -1.78165962E-08
  -2.29000002E-02  -1.89483220E-08
  -2.28499994E-02  -2.01325658E-08
  -2.28000004E-02  -2.14033467E-08
  -2.27499995E-02  -2.27739854E-08
  -2.27000006E-02  -2.42309532E-08
  -2.26499997E-02  -2.57398014E-08
  -2.26000007E-02  -2.72606488E-08
  -2.25499999E-02  -2.87662498E-08
  -2.25000009E-02  -3.02545367E-08
  -2.24500000E-02  -3.17498952E-08
  -2.23999992E-02  -3.32924799E-08
  -2.23500002E-02  -3.49203013E-08
  -2.22999994E-02  -3.66521036E-08
  -2.22500004E-02  -3.84787882E-08
  -2.21999995E-02  -4.03673539E-08
  -2.21500006E-02  -4.22756479E-08
  -2.20999997E-02  -4.41713297E-08
  -2.20500007E-02  -4.60465870E-08
  -2.19999999E-02  -4.79218087E-08
  -2.19500009E-02  -4.98365722E-08
  -2.19000001E-02  -5.18318792E-08
  -2.18499992E-02  -5.39316893E-08
  -2.18000002E-02  -5.61320093E-08
  -2.17499994E-02  -5.84026942E-08
  -2.17000004E-02  -6.07010833E-08
  -2.16499995E-02  -6.29914609E-08
  -2.16000006E-02  -6.52615810E-08
  -2.15499997E-02  -6.75287026E-08
  -2.15000007E-02  -6.98323603E-08
  -2.14499999E-02  -7.22170412E-08
  -2.14000009E-02  -7.47125739E-08
  -2.13500001E-02  -7.73210687E-08
  -2.12999992E-02  -8.00163562E-08
  -2.12500002E-02  -8.27562729E-08
  -2.11999994E-02  -8.55022293E-08
  -2.11500004E-02  -8.82372220E-08
  -2.10999995E-02  -9.09742539E-08
  -2.10500006E-02  -9.37511118E-08
  -2.09999997E-02  -9.66139666E-08
  -2.09500007E-02  -9.95971874E-08
  -2.08999999E-02  -1.02708455E-07
  -2.08500009E-02  -1.05926084E-07
  -2.08000001E-02  -1.09209651E-07
  -2.07499992E-02  -1.12519430E-07
  -2.07000002E-02  -1.15835526E-07
  -2.06499994E-02  -1.19168220E-07
  -2.06000004E-02  -1.22554724E-07
  -2.05499995E-02  -1.26043702E-07
  -2.05000006E-02  -1.29674575E-07
  -2.04499997E-02  -1.33461029E-07
  -2.04000007E-02  -1.37386181E-07
  -2.03499999E-02  -1.41411505E-07
  -2.03000009E-02  -1.45495775E-07
  -2.02500001E-02  -1.49615204E-07
  -2.01999992E-02  -1.53775645E-07
  -2.01500002E-02  -1.58011446E-07
  -2.00999994E-02  -1.62371222E-07
  -2.00500004E-02  -1.66897181E-07
  -1.99999996E-02  -1.71607397E-07
  -1.99500006E-02  -1.76489038E-07
  -1.98999997E-02  -1.81505740E-07
  -1.98500007E-02  -1.86615893E-07
  -1.97999999E-02  -1.91793248E-07
  -1.97500009E-02  -1.97040819E-07
  -1.97000001E-02  -2.02391433E-07
  -1.96499992E-02  -2.07894729E-07
  -1.96000002E-02  -2.13596621E-07
  -1.95499994E-02  -2.19520203E-07
  -1.95000004E-02  -2.25657374E-07
  -1.94499996E-02  -2.31974326E-07
  -1.94000006E-02  -2.38428981E-07
  -1.93499997E-02  -2.44992236E-07
  -1.93000007E-02  -2.51662982E-07
  -1.92499999E-02  -2.58470777E-07
  -1.92000009E-02  -2.65463996E-07
  -1.91500001E-02  -2.72689846E-07
  -1.90999992E-02  -2.80174703E-07
  -1.90500002E-02  -2.87913991E-07
  -1.89999994E-02  -2.95876447E-07
  -1.89500004E-02  -3.04020659E-07
  -1.88999996E-02  -3.12316331E-07
  -1.88500006E-02  -3.20760620E-07
  -1.87999997E-02  -3.29382061E-07
  -1.87500007E-02  -3.38230052E-07
  -1.86999999E-02  -3.47354927E-07
  -1.86500009E-02  -3.56787638E-07
  -1.86000001E-02  -3.66528468E-07
  -1.85499992E-02  -3.76549451E-07
  -1.85000002E-02  -3.86810456E-07
  -1.84499994E-02  -3.97280274E-07
  -1.84000004E-02  -4.07954190E-07
  -1.83499996E-02  -4.18859230E-07
  -1.83000006E-02  -4.30044793E-07
  -1.82499997E-02  -4.41563060E-07
  -1.82000007E-02  -4.53448394E-07
  -1.81499999E-02  -4.65704545E-07
  -1.81000009E-02  -4.78306390E-07
  -1.80500001E-02  -4.91214678E-07
  -1.79999992E-02  -5.04398145E-07
  -1.79500002E-02  -5.17851163E-07
  -1.78999994E-02  -5.31600790E-07
  -1.78500004E-02  -5.45698072E-07
  -1.77999996E-02  -5.60199055E-07
  -1.77500006E-02  -5.75143019E-07
  -1.76999997E-02  -5.90539116E-07
  -1.76500008E-02  -6.06366257E-07
  -1.75999999E-02  -6.22587663E-07
  -1.75500009E-02  -6.39172470E-07
  -1.75000001E-02  -6.56114537E-07
  -1.74499992E-02  -6.73440411E-07
  -1.74000002E-02  -6.91201706E-07
  -1.73499994E-02  -7.09456287E-07
  -1.73000004E-02  -7.28246334E-07
  -1.72499996E-02  -7.47583613E-07
  -1.72000006E-02  -7.67449023E-07
  -1.71499997E-02  -7.87806471E-07
  -1.71000008E-02  -8.08624577E-07
  -1.70499999E-02  -8.29897147E-07
  -1.70000009E-02  -8.51651464E-07
  -1.69500001E-02  -8.73941985E-07
  -1.68999992E-02  -8.96831239E-07
  -1.68500002E-02  -9.20367199E-07
  -1.67999994E-02  -9.44567716E-07
  -1.67500004E-02  -9.69418352E-07
  -1.66999996E-02  -9.94886250E-07
  -1.66500006E-02  -1.02094180E-06
  -1.65999997E-02  -1.04757953E-06
  -1.65500008E-02  -1.07482811E-06
  -1.64999999E-02  -1.10274470E-06
  -1.64500009E-02  -1.13139515E-06
  -1.64000001E-02  -1.16083163E-06
  -1.63499992E-02  -1.19107528E-06
  -1.63000003E-02  -1.22211350E-06
  -1.62499994E-02  -1.25391375E-06
  -1.62000004E-02  -1.28644569E-06
  -1.61499996E-02  -1.31970353E-06
  -1.61000006E-02  -1.35371704E-06
  -1.60499997E-02  -1.38854671E-06
  -1.60000008E-02  -1.42426427E-06
  -1.59499999E-02  -1.46092952E-06
  -1.59000009E-02  -1.49857010E-06
  -1.58500001E-02  -1.53717929E-06
  -1.57999992E-02  -1.57672719E-06
  -1.57500003E-02  -1.61718481E-06
  -1.56999994E-02  -1.65854658E-06
  -1.56500004E-02  -1.70084343E-06
  -1.55999996E-02  -1.74413788E-06
  -1.55499997E-02  -1.78850541E-06
  -1.54999997E-02  -1.83400971E-06
  -1.54499998E-02  -1.88068168E-06
  -1.53999999E-02  -1.92851621E-06
  -1.53500000E-02  -1.97748273E-06
  -1.53000001E-02  -2.02755041E-06
  -1.52500002E-02  -2.07871221E-06
  -1.52000003E-02  -2.13099815E-06
  -1.51500003E-02  -2.18447462E-06
  -1.51000004E-02  -2.23922211E-06
  -1.50499996E-02  -2.29531111E-06
  -1.49999997E-02  -2.35278003E-06
  -1.49499997E-02  -2.41162797E-06
  -1.48999998E-02  -2.47182697E-06
  -1.48499999E-02  -2.53334611E-06
  -1.48000000E-02  -2.59617764E-06
  -1.47500001E-02  -2.66035249E-06
  -1.47000002E-02  -2.72593866E-06
  -1.46500003E-02  -2.79302230E-06
  -1.46000003E-02  -2.86167892E-06
  -1.45500004E-02  -2.93195194E-06
  -1.44999996E-02  -3.00384386E-06
  -1.44499997E-02  -3.07732580E-06
  -1.43999998E-02  -3.15236503E-06
  -1.43499998E-02  -3.22895130E-06
  -1.42999999E-02  -3.30711464E-06
  -1.42500000E-02  -3.38692507E-06
  -1.42000001E-02  -3.46847355E-06
  -1.41500002E-02  -3.55184466E-06
  -1.41000003E-02  -3.63708909E-06
  -1.40500003E-02  -3.72421573E-06
  -1.40000004E-02  -3.81320001E-06
  -1.39499996E-02  -3.90401010E-06
  -1.38999997E-02  -3.99663531E-06
  -1.38499998E-02  -4.09110771E-06
  -1.37999998E-02  -4.18749960E-06
  -1.37499999E-02  -4.28590874E-06
  -1.37000000E-02  -4.38642655E-06
  -1.36500001E-02  -4.48911123E-06
  -1.36000002E-02  -4.59397643E-06
  -1.35500003E-02  -4.70099985E-06
  -1.35000004E-02  -4.81014831E-06
  -1.34500004E-02  -4.92141044E-06
  -1.33999996E-02  -5.03481488E-06
  -1.33499997E-02  -5.15043757E-06
  -1.32999998E-02  -5.26838130E-06
  -1.32499998E-02  -5.38874428E-06
  -1.31999999E-02  -5.51159292E-06
  -1.31500000E-02  -5.63694812E-06
  -1.31000001E-02  -5.76479079E-06
  -1.30500002E-02  -5.89509182E-06
  -1.30000003E-02  -6.02783848E-06
  -1.29500004E-02  -6.16306215E-06
  -1.29000004E-02  -6.30084332E-06
  -1.28499996E-02  -6.44129022E-06
  -1.27999997E-02  -6.58451108E-06
  -1.27499998E-02  -6.73058184E-06
  -1.26999998E-02  -6.87952843E-06
  -1.26499999E-02  -7.03133492E-06
  -1.26000000E-02  -7.18596903E-06
  -1.25500001E-02  -7.34341575E-06
  -1.25000002E-02  -7.50370282E-06
  -1.24500003E-02  -7.66690937E-06
  -1.24000004E-02  -7.83314681E-06
  -1.23500004E-02  -8.00252838E-06
  -1.22999996E-02  -8.17513956E-06
  -1.22499997E-02  -8.35101582E-06
  -1.21999998E-02  -8.53014717E-06
  -1.21499998E-02  -8.71250722E-06
  -1.20999999E-02  -8.89808598E-06
  -1.20500000E-02  -9.08691527E-06
  -1.20000001E-02  -9.27907786E-06
  -1.19500002E-02  -9.47469380E-06
  -1.19000003E-02  -9.67388587E-06
  -1.18500004E-02  -9.87674593E-06
  -1.18000004E-02  -1.00833149E-05
  -1.17499996E-02  -1.02935855E-05
  -1.16999997E-02  -1.05075305E-05
  -1.16499998E-02  -1.07251344E-05
  -1.15999999E-02  -1.09464245E-05
  -1.15499999E-02  -1.11714826E-05
  -1.15000000E-02  -1.14004333E-05
  -1.14500001E-02  -1.16334077E-05
  -1.14000002E-02  -1.18705111E-05
  -1.13500003E-02  -1.21117982E-05
  -1.13000004E-02  -1.23572709E-05
  -1.12500004E-02  -1.26069081E-05
  -1.11999996E-02  -1.28606998E-05
  -1.11499997E-02  -1.31186780E-05
  -1.10999998E-02  -1.33809272E-05
  -1.10499999E-02  -1.36475710E-05
  -1.09999999E-02  -1.39187468E-05
  -1.09500000E-02  -1.41945575E-05
  -1.09000001E-02  -1.44750575E-05
  -1.08500002E-02  -1.47602486E-05
  -1.08000003E-02  -1.50501055E-05
  -1.07500004E-02  -1.53446126E-05
  -1.07000005E-02  -1.56437945E-05
  -1.06499996E-02  -1.59477404E-05
  -1.05999997E-02  -1.62565793E-05
  -1.05499998E-02  -1.65704550E-05
  -1.04999999E-02  -1.68894840E-05
  -1.04499999E-02  -1.72137370E-05
  -1.04000000E-02  -1.75432215E-05
  -1.03500001E-02  -1.78779155E-05
  -1.03000002E-02  -1.82178046E-05
  -1.02500003E-02  -1.85629142E-05
  -1.02000004E-02  -1.89133243E-05
  -1.01500005E-02  -1.92691696E-05
  -1.00999996E-02  -1.96305882E-05
  -1.00499997E-02  -1.99977039E-05
  -9.99999978E-03  -2.03705804E-05
  -9.94999986E-03  -2.07492212E-05
  -9.89999995E-03  -2.11335955E-05
  -9.85000003E-03  -2.15236778E-05
  -9.80000012E-03  -2.19194881E-05
  -9.75000020E-03  -2.23211027E-05
  -9.70000029E-03  -2.27286509E-05
  -9.65000037E-03  -2.31422819E-05
  -9.60000046E-03  -2.35621137E-05
  -9.54999961E-03  -2.39882174E-05
  -9.49999969E-03  -2.44206003E-05
  -9.44999978E-03  -2.48592369E-05
  -9.39999986E-03  -2.53040980E-05
  -9.34999995E-03  -2.57552056E-05
  -9.30000003E-03  -2.62126414E-05
  -9.25000012E-03  -2.66765364E-05
  -9.20000020E-03  -2.71470453E-05
  -9.15000029E-03  -2.76242899E-05
  -9.10000037E-03  -2.81083358E-05
  -9.05000046E-03  -2.85991846E-05
  -8.99999961E-03  -2.90967891E-05
  -8.94999970E-03  -2.96011094E-05
  -8.89999978E-03  -3.01121436E-05
  -8.84999987E-03  -3.06299553E-05
  -8.79999995E-03  -3.11546646E-05
  -8.75000004E-03  -3.16864025E-05
  -8.70000012E-03  -3.22252963E-05
  -8.65000021E-03  -3.27713969E-05
  -8.60000029E-03  -3.33247044E-05
  -8.55000038E-03  -3.38851569E-05
  -8.50000046E-03  -3.44526998E-05
  -8.44999962E-03  -3.50273222E-05
  -8.39999970E-03  -3.56090859E-05
  -8.34999979E-03  -3.61981038E-05
  -8.29999987E-03  -3.67945286E-05
  -8.24999996E-03  -3.73984803E-05
  -8.20000004E-03  -3.80100173E-05
  -8.15000013E-03  -3.86291213E-05
  -8.10000021E-03  -3.92557158E-05
  -8.05000030E-03  -3.98897282E-05
  -8.00000038E-03  -4.05311184E-05
  -7.95000046E-03  -4.11799228E-05
  -7.89999962E-03  -4.18362397E-05
  -7.84999970E-03  -4.25002072E-05
  -7.79999979E-03  -4.31719236E-05
  -7.74999987E-03  -4.38514217E-05
  -7.69999996E-03  -4.45386468E-05
  -7.65000004E-03  -4.52335044E-05
  -7.60000013E-03  -4.59358744E-05
  -7.55000021E-03  -4.66456913E-05
  -7.49999983E-03  -4.73629589E-05
  -7.44999992E-03  -4.80877752E-05
  -7.40000000E-03  -4.88202677E-05
  -7.35000009E-03  -4.95605382E-05
  -7.30000017E-03  -5.03086158E-05
  -7.24999979E-03  -5.10644386E-05
  -7.19999988E-03  -5.18278794E-05
  -7.14999996E-03  -5.25987962E-05
  -7.10000005E-03  -5.33770835E-05
  -7.05000013E-03  -5.41627196E-05
  -7.00000022E-03  -5.49557808E-05
  -6.94999984E-03  -5.57563690E-05
  -6.89999992E-03  -5.65645678E-05
  -6.85000001E-03  -5.73803954E-05
  -6.80000009E-03  -5.82037574E-05
  -6.75000018E-03  -5.90344862E-05
  -6.69999979E-03  -5.98723855E-05
  -6.64999988E-03  -6.07172988E-05
  -6.59999996E-03  -6.15691679E-05
  -6.55000005E-03  -6.24280365E-05
  -6.50000013E-03  -6.32939773E-05
  -6.45000022E-03  -6.41670704E-05
  -6.39999984E-03  -6.50472939E-05
  -6.34999992E-03  -6.59345387E-05
  -6.30000001E-03  -6.68285793E-05
  -6.25000009E-03  -6.77291682E-05
  -6.20000018E-03  -6.86361091E-05
  -6.14999980E-03  -6.95492927E-05
  -6.09999988E-03  -7.04687263E-05
  -6.04999997E-03  -7.13944537E-05
  -6.00000005E-03  -7.23265402E-05
  -5.95000014E-03  -7.32649569E-05
  -5.90000022E-03  -7.42095363E-05
  -5.84999984E-03  -7.51600237E-05
  -5.79999993E-03  -7.61161282E-05
  -5.75000001E-03  -7.70775732E-05
  -5.70000010E-03  -7.80441915E-05
  -5.65000018E-03  -7.90159174E-05
  -5.59999980E-03  -7.99927875E-05
  -5.54999989E-03  -8.09748162E-05
  -5.49999997E-03  -8.19619527E-05
  -5.45000006E-03  -8.29540077E-05
  -5.40000014E-03  -8.39506611E-05
  -5.35000023E-03  -8.49515272E-05
  -5.29999984E-03  -8.59562861E-05
  -5.24999993E-03  -8.69646829E-05
  -5.20000001E-03  -8.79765867E-05
  -5.15000010E-03  -8.89919902E-05
  -5.10000018E-03  -9.00108862E-05
  -5.04999980E-03  -9.10331801E-05
  -4.99999989E-03  -9.20586608E-05
  -4.94999997E-03  -9.30869573E-05
  -4.90000006E-03  -9.41176113E-05
  -4.85000014E-03  -9.51502079E-05
  -4.80000023E-03  -9.61844344E-05
  -4.74999985E-03  -9.72201015E-05
  -4.69999993E-03  -9.82571510E-05
  -4.65000002E-03  -9.92955538E-05
  -4.60000010E-03  -1.00335179E-04
  -4.55000019E-03  -1.01375765E-04
  -4.49999981E-03  -1.02416889E-04
  -4.44999989E-03  -1.03458027E-04
  -4.39999998E-03  -1.04498642E-04
  -4.35000006E-03  -1.05538325E-04
  -4.30000015E-03  -1.06576808E-04
  -4.25000023E-03  -1.07613938E-04
  -4.19999985E-03  -1.08649649E-04
  -4.14999994E-03  -1.09683780E-04
  -4.10000002E-03  -1.10716021E-04
  -4.05000011E-03  -1.11745881E-04
  -4.00000019E-03  -1.12772752E-04
  -3.94999981E-03  -1.13795999E-04
  -3.89999989E-03  -1.14815084E-04
  -3.84999998E-03  -1.15829629E-04
  -3.80000006E-03  -1.16839423E-04
  -3.74999992E-03  -1.17844364E-04
  -3.70000000E-03  -1.18844277E-04
  -3.65000009E-03  -1.19838835E-04
  -3.59999994E-03  -1.20827499E-04
  -3.55000002E-03  -1.21809564E-04
  -3.50000011E-03  -1.22784288E-04
  -3.44999996E-03  -1.23751001E-04
  -3.40000005E-03  -1.24709215E-04
  -3.34999990E-03  -1.25658626E-04
  -3.29999998E-03  -1.26599043E-04
  -3.25000007E-03  -1.27530264E-04
  -3.19999992E-03  -1.28451909E-04
  -3.15000000E-03  -1.29363354E-04
  -3.10000009E-03  -1.30263870E-04
  -3.04999994E-03  -1.31152541E-04
  -3.00000003E-03  -1.32028537E-04
  -2.95000011E-03  -1.32891248E-04
  -2.89999996E-03  -1.33740279E-04
  -2.85000005E-03  -1.34575341E-04
  -2.79999990E-03  -1.35396200E-04
  -2.74999999E-03  -1.36202463E-04
  -2.70000007E-03  -1.36993476E-04
  -2.64999992E-03  -1.37768395E-04
  -2.60000001E-03  -1.38526200E-04
  -2.55000009E-03  -1.39265991E-04
  -2.49999994E-03  -1.39986951E-04
  -2.45000003E-03  -1.40688571E-04
  -2.40000011E-03  -1.41370489E-04
  -2.34999997E-03  -1.42032397E-04
  -2.30000005E-03  -1.42673904E-04
  -2.24999990E-03  -1.43294354E-04
  -2.19999999E-03  -1.43892772E-04
  -2.15000007E-03  -1.44468097E-04
  -2.09999993E-03  -1.45019178E-04
  -2.05000001E-03  -1.45545084E-04
  -2.00000009E-03  -1.46045073E-04
  -1.94999995E-03  -1.46518709E-04
  -1.90000003E-03  -1.46965627E-04
  -1.85000000E-03  -1.47385392E-04
  -1.79999997E-03  -1.47777289E-04
  -1.75000005E-03  -1.48140374E-04
  -1.70000002E-03  -1.48473366E-04
  -1.64999999E-03  -1.48775012E-04
  -1.59999996E-03  -1.49044208E-04
  -1.55000004E-03  -1.49280051E-04
  -1.50000001E-03  -1.49482017E-04
  -1.44999998E-03  -1.49649684E-04
  -1.39999995E-03  -1.49782572E-04
  -1.35000004E-03  -1.49880027E-04
  -1.30000000E-03  -1.49940970E-04
  -1.24999997E-03  -1.49964093E-04
  -1.20000006E-03  -1.49947955E-04
  -1.15000003E-03  -1.49891261E-04
  -1.09999999E-03  -1.49792992E-04
  -1.04999996E-03  -1.49652449E-04
  -1.00000005E-03  -1.49469139E-04
  -9.50000016E-04  -1.49242551E-04
  -8.99999985E-04  -1.48971943E-04
  -8.50000011E-04  -1.48656240E-04
  -7.99999980E-04  -1.48294028E-04
  -7.50000007E-04  -1.47883751E-04
  -6.99999975E-04  -1.47423911E-04
  -6.50000002E-04  -1.46913328E-04
  -6.00000028E-04  -1.46351129E-04
  -5.49999997E-04  -1.45736733E-04
  -5.00000024E-04  -1.45069615E-04
  -4.49999992E-04  -1.44349018E-04
  -3.99999990E-04  -1.43573867E-04
  -3.49999988E-04  -1.42742691E-04
  -3.00000014E-04  -1.41853801E-04
  -2.50000012E-04  -1.40905613E-04
  -1.99999995E-04  -1.39896772E-04
  -1.50000007E-04  -1.38826246E-04
  -9.99999975E-05  -1.37693351E-04
  -4.99999987E-05  -1.36497532E-04
   0.00000000      -1.35238035E-04
   4.99999987E-05  -1.33913738E-04
   9.99999975E-05  -1.32523142E-04
   1.50000007E-04  -1.31064517E-04
   1.99999995E-04  -1.29536056E-04
   2.50000012E-04  -1.27936248E-04
   3.00000014E-04  -1.26263913E-04
   3.49999988E-04  -1.24518279E-04
   3.99999990E-04  -1.22698708E-04
   4.49999992E-04  -1.20804427E-04
   5.00000024E-04  -1.18834345E-04
   5.49999997E-04  -1.16786978E-04
   6.00000028E-04  -1.14660514E-04
   6.50000002E-04  -1.12453054E-04
   6.99999975E-04  -1.10162924E-04
   7.50000007E-04  -1.07788816E-04
   7.99999980E-04  -1.05329789E-04
   8.50000011E-04  -1.02785183E-04
   8.99999985E-04  -1.00154248E-04
   9.50000016E-04  -9.74359718E-05
   1.00000005E-03  -9.46288856E-05
   1.04999996E-03  -9.17311627E-05
   1.09999999E-03  -8.87408532E-05
   1.15000003E-03  -8.56561091E-05
   1.20000006E-03  -8.24754970E-05
   1.24999997E-03  -7.91979692E-05
   1.30000000E-03  -7.58227907E-05
   1.35000004E-03  -7.23492558E-05
   1.39999995E-03  -6.87763822E-05
   1.44999998E-03  -6.51027513E-05
   1.50000001E-03  -6.13265365E-05
   1.55000004E-03  -5.74457190E-05
   1.59999996E-03  -5.34583560E-05
   1.64999999E-03  -4.93628650E-05
   1.70000002E-03  -4.51581072E-05
   1.75000005E-03  -4.08432970E-05
   1.79999997E-03  -3.64177504E-05
   1.85000000E-03  -3.18805724E-05
   1.90000003E-03  -2.72304442E-05
   1.94999995E-03  -2.24656233E-05
   2.00000009E-03  -1.75840942E-05
   2.05000001E-03  -1.25838651E-05
   2.09999993E-03  -7.46325759E-06
   2.15000007E-03  -2.22106723E-06
   2.19999999E-03   3.14353360E-06
   2.24999990E-03   8.63120022E-06
   2.30000005E-03   1.42427225E-05
   2.34999997E-03   1.99792830E-05
   2.40000011E-03   2.58425225E-05
   2.45000003E-03   3.18344173E-05
   2.49999994E-03   3.79570010E-05
   2.55000009E-03   4.42120327E-05
   2.60000001E-03   5.06008073E-05
   2.64999992E-03   5.71241762E-05
   2.70000007E-03   6.37827179E-05
   2.74999999E-03   7.05770944E-05
   2.79999990E-03   7.75082954E-05