  -3.99999991E-02   0.00000000    
  -3.99499983E-02   0.00000000    
  -3.99000011E-02   0.00000000    
  -3.98500003E-02   0.00000000    
  -3.97999994E-02   0.00000000    
  -3.97499986E-02   2.37752990E-23
  -3.97000015E-02   2.10041436E-22
  -3.96500006E-02   9.63250814E-22
  -3.95999998E-02   3.00794597E-21
  -3.95499989E-02   7.04051143E-21
  -3.95000018E-02   1.27192283E-20
  -3.94500010E-02   1.71337927E-20
  -3.94000001E-02   1.35655601E-20
  -3.93499993E-02  -8.12058798E-21
  -3.92999984E-02  -5.83053571E-20
  -3.92500013E-02  -1.41794112E-19
  -3.92000005E-02  -2.51529158E-19
  -3.91499996E-02  -3.65731316E-19
  -3.90999988E-02  -4.52238563E-19
  -3.90500017E-02  -4.80938266E-19
  -3.90000008E-02  -4.40292058E-19
  -3.89500000E-02  -3.49545305E-19
  -3.88999991E-02  -2.57522056E-19
  -3.88499983E-02  -2.23763548E-19
  -3.88000011E-02  -2.86926827E-19
  -3.87500003E-02  -4.34416594E-19
  -3.86999995E-02  -5.90659483E-19
  -3.86499986E-02  -6.35715288E-19
  -3.86000015E-02  -4.51974123E-19
  -3.85500006E-02   1.96888567E-20
  -3.84999998E-02   7.43173442E-19
  -3.84499989E-02   1.59545035E-18
  -3.84000018E-02   2.42702092E-18
  -3.83500010E-02   3.15436786E-18
  -3.83000001E-02   3.84138830E-18
  -3.82499993E-02   4.72252590E-18
  -3.81999984E-02   6.14136275E-18
  -3.81500013E-02   8.41834200E-18
  -3.81000005E-02   1.17016419E-17
  -3.80499996E-02   1.58740162E-17
  -3.79999988E-02   2.05721489E-17
  -3.79500017E-02   2.53267996E-17
  -3.79000008E-02   2.97721460E-17
  -3.78500000E-02   3.38299996E-17
  -3.77999991E-02   3.77734508E-17
  -3.77499983E-02   4.21214198E-17
  -3.77000012E-02   4.73940014E-17
  -3.76500003E-02   5.38324180E-17
  -3.75999995E-02   6.12176387E-17
  -3.75499986E-02   6.88873433E-17
  -3.75000015E-02   7.59618221E-17
  -3.74500006E-02   8.16866795E-17
  -3.73999998E-02   8.57356625E-17
  -3.73499990E-02   8.83256708E-17
  -3.73000018E-02   9.00780099E-17
  -3.72500010E-02   9.16774331E-17
  -3.72000001E-02   9.34777024E-17
  -3.71499993E-02   9.52312922E-17
  -3.70999984E-02   9.60658976E-17
  -3.70500013E-02   9.47166800E-17
  -3.70000005E-02   8.99065056E-17
  -3.69499996E-02   8.07050676E-17
  -3.68999988E-02   6.67231675E-17
  -3.68500017E-02   4.80925654E-17
  -3.68000008E-02   2.52894739E-17
  -3.67500000E-02  -1.08186177E-18
  -3.66999991E-02  -3.04496632E-17
  -3.66499983E-02  -6.23594722E-17
  -3.66000012E-02  -9.65349950E-17
  -3.65500003E-02  -1.32975795E-16
  -3.64999995E-02  -1.72086469E-16
  -3.64499986E-02  -2.14735068E-16
  -3.64000015E-02  -2.62088352E-16
  -3.63500006E-02  -3.15136623E-16
  -3.62999998E-02  -3.73998769E-16
  -3.62499990E-02  -4.37310114E-16
  -3.62000018E-02  -5.02101914E-16
  -3.61500010E-02  -5.64464397E-16
  -3.61000001E-02  -6.20928566E-16
  -3.60499993E-02  -6.70045995E-16
  -3.59999985E-02  -7.13340761E-16
  -3.59500013E-02  -7.54890744E-16
  -3.59000005E-02  -7.99346898E-16
  -3.58499996E-02  -8.49023951E-16
  -3.57999988E-02  -9.01405474E-16
  -3.57500017E-02  -9.48556622E-16
  -3.57000008E-02  -9.79295342E-16
  -3.56500000E-02  -9.83694937E-16
  -3.55999991E-02  -9.58111048E-16
  -3.55499983E-02  -9.08181209E-16
  -3.55000012E-02  -8.47693527E-16
  -3.54500003E-02  -7.92907065E-16
  -3.53999995E-02  -7.54226882E-16
  -3.53499986E-02  -7.28974660E-16
  -3.53000015E-02  -6.99280755E-16
  -3.52500007E-02  -6.37348512E-16
  -3.51999998E-02  -5.17007682E-16
  -3.51499990E-02  -3.27009484E-16
  -3.51000018E-02  -7.96896339E-17
  -3.50500010E-02   1.90283556E-16
  -3.50000001E-02   4.38364299E-16
  -3.49499993E-02   6.29661635E-16
  -3.48999985E-02   7.57101183E-16
  -3.48500013E-02   8.48936389E-16
  -3.48000005E-02   9.60030848E-16
  -3.47499996E-02   1.14849960E-15
  -3.46999988E-02   1.44688834E-15
  -3.46500017E-02   1.84132384E-15
  -3.46000008E-02   2.27028589E-15
  -3.45500000E-02   2.64672787E-15
  -3.44999991E-02   2.89624769E-15
  -3.44499983E-02   2.99487345E-15
  -3.44000012E-02   2.98770734E-15
  -3.43500003E-02   2.97630543E-15
  -3.42999995E-02   3.07634807E-15
  -3.42499986E-02   3.36208256E-15
  -3.42000015E-02   3.82297733E-15
  -3.41500007E-02   4.35568482E-15
  -3.40999998E-02   4.80030597E-15
  -3.40499990E-02   5.00939308E-15
  -3.40000018E-02   4.92041736E-15
  -3.39500010E-02   4.59667882E-15
  -3.39000002E-02   4.21239226E-15
  -3.38499993E-02   3.98177949E-15
  -3.37999985E-02   4.05945410E-15
  -3.37500013E-02   4.45697980E-15
  -3.37000005E-02   5.01846438E-15
  -3.36499996E-02   5.47468565E-15
  -3.35999988E-02   5.55944442E-15
  -3.35500017E-02   5.13937707E-15
  -3.35000008E-02   4.29580340E-15
  -3.34500000E-02   3.31285767E-15
  -3.33999991E-02   2.56605921E-15
  -3.33499983E-02   2.35308866E-15
  -3.33000012E-02   2.74159810E-15
  -3.32500003E-02   3.50952410E-15
  -3.31999995E-02   4.21753375E-15
  -3.31499986E-02   4.39402831E-15
  -3.31000015E-02   3.75657799E-15
  -3.30500007E-02   2.36752104E-15
  -3.29999998E-02   6.41689979E-16
  -3.29499990E-02  -8.13672555E-16
  -3.29000019E-02  -1.46828047E-15
  -3.28500010E-02  -1.13008319E-15
  -3.28000002E-02  -7.24103784E-17
  -3.27499993E-02   1.04802465E-15
  -3.26999985E-02   1.46483104E-15
  -3.26500013E-02   6.56175248E-16
  -3.26000005E-02  -1.38167400E-15
  -3.25499997E-02  -4.08052066E-15
  -3.24999988E-02  -6.51408359E-15
  -3.24500017E-02  -7.80420582E-15
  -3.24000008E-02  -7.54469780E-15
  -3.23500000E-02  -6.04238534E-15
  -3.22999991E-02  -4.24258813E-15
  -3.22499983E-02  -3.34389634E-15
  -3.22000012E-02  -4.25567437E-15
  -3.21500003E-02  -7.14127040E-15
  -3.20999995E-02  -1.12719867E-14
  -3.20499986E-02  -1.52900374E-14
  -3.20000015E-02  -1.77932671E-14
  -3.19500007E-02  -1.79934091E-14
  -3.18999998E-02  -1.61421000E-14
  -3.18499990E-02  -1.35015087E-14
  -3.18000019E-02  -1.18325946E-14
  -3.17500010E-02  -1.26004748E-14
  -3.17000002E-02  -1.62482942E-14
  -3.16499993E-02  -2.18893642E-14
  -3.15999985E-02  -2.75999553E-14
  -3.15500014E-02  -3.12266252E-14
  -3.15000005E-02  -3.13714136E-14
  -3.14499997E-02  -2.81053985E-14
  -3.13999988E-02  -2.30515866E-14
  -3.13500017E-02  -1.87454795E-14
  -3.13000008E-02  -1.75147897E-14
  -3.12500000E-02  -2.03659484E-14
  -3.11999992E-02  -2.64015257E-14
  -3.11500002E-02  -3.30848054E-14
  -3.10999993E-02  -3.72944202E-14
  -3.10500003E-02  -3.67358799E-14
  -3.09999995E-02  -3.10751994E-14
  -3.09500005E-02  -2.22409846E-14
  -3.08999997E-02  -1.36894551E-14
  -3.08500007E-02  -8.89775331E-15
  -3.07999998E-02  -9.73356138E-15
  -3.07500008E-02  -1.54557594E-14
  -3.07000000E-02  -2.28616293E-14
  -3.06499992E-02  -2.75970212E-14
  -3.06000002E-02  -2.61024299E-14
  -3.05499993E-02  -1.73314935E-14
  -3.05000003E-02  -3.42219480E-15
  -3.04499995E-02   1.10681550E-14
  -3.04000005E-02   2.11095688E-14
  -3.03499997E-02   2.35028112E-14
  -3.03000007E-02   1.84900347E-14
  -3.02499998E-02   9.87319052E-15
  -3.02000009E-02   3.48177086E-15
  -3.01500000E-02   4.59057764E-15
  -3.00999992E-02   1.54190405E-14
  -3.00500002E-02   3.38825037E-14
  -2.99999993E-02   5.42615947E-14
  -2.99500003E-02   6.96069314E-14
  -2.98999995E-02   7.48765064E-14
  -2.98500005E-02   6.93953494E-14
  -2.97999997E-02   5.74498673E-14
  -2.97500007E-02   4.66185013E-14
  -2.96999998E-02   4.44664447E-14
  -2.96500009E-02   5.50324929E-14
  -2.96000000E-02   7.67236481E-14
  -2.95499992E-02   1.02682775E-13
  -2.95000002E-02   1.23614728E-13
  -2.94499993E-02   1.31915908E-13
  -2.94000003E-02   1.25277122E-13
  -2.93499995E-02   1.08060350E-13
  -2.93000005E-02   8.96773636E-14
  -2.92499997E-02   8.05383998E-14
  -2.92000007E-02   8.72974314E-14
  -2.91499998E-02   1.09548621E-13
  -2.91000009E-02   1.39586124E-13
  -2.90500000E-02   1.65518044E-13
  -2.89999992E-02   1.76493748E-13
  -2.89500002E-02   1.67754902E-13
  -2.88999993E-02   1.43170415E-13
  -2.88500004E-02   1.13940649E-13
  -2.87999995E-02   9.38493329E-14
  -2.87500005E-02   9.30534539E-14
  -2.86999997E-02   1.13188464E-13
  -2.86500007E-02   1.46115013E-13
  -2.85999998E-02   1.77086414E-13
  -2.85500009E-02   1.91124040E-13
  -2.85000000E-02   1.79845003E-13
  -2.84499992E-02   1.45628355E-13
  -2.84000002E-02   1.01061120E-13
  -2.83499993E-02   6.36649682E-14
  -2.83000004E-02   4.80728941E-14
  -2.82499995E-02   5.91132842E-14
  -2.82000005E-02   8.90249449E-14
  -2.81499997E-02   1.20300390E-13
  -2.81000007E-02   1.33149893E-13
  -2.80499998E-02   1.14405921E-13
  -2.80000009E-02   6.38618661E-14
  -2.79500000E-02  -4.99218265E-15
  -2.78999992E-02  -7.04616283E-14
  -2.78500002E-02  -1.12172011E-13
  -2.77999993E-02  -1.20471721E-13
  -2.77500004E-02  -1.01404874E-13
  -2.76999995E-02  -7.47569798E-14
  -2.76500005E-02  -6.57202496E-14
  -2.75999997E-02  -9.36696602E-14
  -2.75500007E-02  -1.63033432E-13
  -2.74999999E-02  -2.60529147E-13
  -2.74500009E-02  -3.60335378E-13
  -2.74000000E-02  -4.35221520E-13
  -2.73499992E-02  -4.68842088E-13
  -2.73000002E-02  -4.63640628E-13
  -2.72499993E-02  -4.40546417E-13
  -2.72000004E-02  -4.30212045E-13
  -2.71499995E-02  -4.59384484E-13
  -2.71000005E-02  -5.38392573E-13
  -2.70499997E-02  -6.55504134E-13
  -2.70000007E-02  -7.81044988E-13
  -2.69499999E-02  -8.79858632E-13
  -2.69000009E-02  -9.26821662E-13
  -2.68500000E-02  -9.18495857E-13
  -2.67999992E-02  -8.75440074E-13
  -2.67500002E-02  -8.33707994E-13
  -2.66999993E-02  -8.28908502E-13
  -2.66500004E-02  -8.79744032E-13
  -2.65999995E-02  -9.78488341E-13
  -2.65500005E-02  -1.09304254E-12
  -2.64999997E-02  -1.18015428E-12
  -2.64500007E-02  -1.20429025E-12
  -2.63999999E-02  -1.15383961E-12
  -2.63500009E-02  -1.04717537E-12
  -2.63000000E-02  -9.25374577E-13
  -2.62499992E-02  -8.34321653E-13
  -2.62000002E-02  -8.03855355E-13
  -2.61499994E-02  -8.33297515E-13
  -2.61000004E-02  -8.90209130E-13
  -2.60499995E-02  -9.23514412E-13
  -2.60000005E-02  -8.85665510E-13
  -2.59499997E-02  -7.54191414E-13
  -2.59000007E-02  -5.42843439E-13
  -2.58499999E-02  -2.96847426E-13
  -2.58000009E-02  -7.37437658E-14
  -2.57500000E-02   8.21106624E-14
  -2.56999992E-02   1.60095299E-13
  -2.56500002E-02   1.89417926E-13
  -2.55999994E-02   2.27383460E-13
  -2.55500004E-02   3.34408011E-13
  -2.54999995E-02   5.46539051E-13
  -2.54500005E-02   8.57814362E-13
  -2.53999997E-02   1.22084916E-12
  -2.53500007E-02   1.56613416E-12
  -2.52999999E-02   1.83208093E-12
  -2.52500009E-02   1.99266732E-12
  -2.52000000E-02   2.07007957E-12
  -2.51499992E-02   2.12603242E-12
  -2.51000002E-02   2.23483146E-12
  -2.50499994E-02   2.44961885E-12
  -2.50000004E-02   2.77679702E-12
  -2.49499995E-02   3.17050769E-12
  -2.49000005E-02   3.55047350E-12
  -2.48499997E-02   3.83606428E-12
  -2.48000007E-02   3.98184133E-12
  -2.47499999E-02   3.99858749E-12
  -2.47000009E-02   3.94974938E-12
  -2.46500000E-02   3.92394364E-12
  -2.45999992E-02   3.99502046E-12
  -2.45500002E-02   4.18723996E-12
  -2.44999994E-02   4.46150191E-12
  -2.44500004E-02   4.72967585E-12
  -2.43999995E-02   4.89165609E-12
  -2.43500005E-02   4.87929662E-12
  -2.42999997E-02   4.68765868E-12
  -2.42500007E-02   4.37898676E-12
  -2.41999999E-02   4.05656975E-12
  -2.41500009E-02   3.81915289E-12
  -2.41000000E-02   3.71573172E-12
  -2.40499992E-02   3.72115880E-12
  -2.40000002E-02   3.74436376E-12
  -2.39499994E-02   3.66671363E-12
  -2.39000004E-02   3.39433971E-12
  -2.38499995E-02   2.90135082E-12
  -2.38000005E-02   2.24409857E-12
  -2.37499997E-02   1.53898346E-12
  -2.37000007E-02   9.12467909E-13
  -2.36499999E-02   4.44827308E-13
  -2.36000009E-02   1.32787295E-13
  -2.35500000E-02  -1.11394875E-13
  -2.34999992E-02  -4.22650657E-13
  -2.34500002E-02  -9.23038664E-13
  -2.33999994E-02  -1.66516117E-12
  -2.33500004E-02  -2.60470660E-12
  -2.32999995E-02  -3.61556098E-12
  -2.32500006E-02  -4.54220299E-12
  -2.31999997E-02  -5.26710706E-12
  -2.31500007E-02  -5.76329089E-12
  -2.30999999E-02  -6.10778962E-12
  -2.30500009E-02  -6.44860857E-12
  -2.30000000E-02  -6.93841208E-12
  -2.29499992E-02  -7.66369954E-12
  -2.29000002E-02  -8.60125773E-12
  -2.28499994E-02  -9.62249811E-12
  -2.28000004E-02  -1.05454040E-11
  -2.27499995E-02  -1.12123253E-11
  -2.27000006E-02  -1.15594556E-11
  -2.26499997E-02  -1.16463722E-11
  -2.26000007E-02  -1.16309531E-11
  -2.25499999E-02  -1.16991260E-11
  -2.25000009E-02  -1.19795892E-11
  -2.24500000E-02  -1.24814690E-11
  -2.23999992E-02  -1.30838153E-11
  -2.23500002E-02  -1.35834555E-11
  -2.22999994E-02  -1.37816121E-11
  -2.22500004E-02  -1.35715536E-11
  -2.21999995E-02  -1.29878278E-11
  -2.21500006E-02  -1.21936124E-11
  -2.20999997E-02  -1.14098600E-11
  -2.20500007E-02  -1.08162854E-11
  -2.19999999E-02  -1.04679182E-11
  -2.19500009E-02  -1.02653788E-11
  -2.19000001E-02  -9.99404726E-12
  -2.18499992E-02  -9.41672088E-12
  -2.18000002E-02  -8.37974135E-12
  -2.17499994E-02  -6.88520508E-12
  -2.17000004E-02  -5.09562358E-12
  -2.16499995E-02  -3.26678550E-12
  -2.16000006E-02  -1.63681492E-12
  -2.15499997E-02  -3.20037426E-13
  -2.15000007E-02   7.46349976E-13
  -2.14499999E-02   1.77710797E-12
  -2.14000009E-02   3.04417711E-12
  -2.13500001E-02   4.75283571E-12
  -2.12999992E-02   6.94369909E-12
  -2.12500002E-02   9.46552038E-12
  -2.11999994E-02   1.20332121E-11
  -2.11500004E-02   1.43475379E-11
  -2.10999995E-02   1.62244315E-11
  -2.10500006E-02   1.76759527E-11
  -2.09999997E-02   1.89049817E-11
  -2.09500007E-02   2.02134750E-11
  -2.08999999E-02   2.18630600E-11
  -2.08500009E-02   2.39494223E-11
  -2.08000001E-02   2.63474936E-11
  -2.07499992E-02   2.87542525E-11
  -2.07000002E-02   3.08127621E-11
  -2.06499994E-02   3.22639485E-11
  -2.06000004E-02   3.30586253E-11
  -2.05499995E-02   3.33781405E-11
  -2.05000006E-02   3.35518766E-11
  -2.04499997E-02   3.39057289E-11
  -2.04000007E-02   3.46080421E-11
  -2.03499999E-02   3.55822594E-11
  -2.03000009E-02   3.65275865E-11
  -2.02500001E-02   3.70414463E-11
  -2.01999992E-02   3.67914171E-11
  -2.01500002E-02   3.56606862E-11
  -2.00999994E-02   3.38008163E-11
  -2.00500004E-02   3.15655904E-11
  -1.99999996E-02   2.93525482E-11
  -1.99500006E-02   2.74210515E-11
  -1.98999997E-02   2.57682764E-11
  -1.98500007E-02   2.41204886E-11
  -1.97999999E-02   2.20467151E-11
  -1.97500009E-02   1.91469028E-11
  -1.97000001E-02   1.52319407E-11
  -1.96499992E-02   1.04143222E-11
  -1.96000002E-02   5.06640129E-12
  -1.95499994E-02  -3.38374348E-13
  -1.95000004E-02  -5.43279137E-12
  -1.94499996E-02  -1.01196803E-11
  -1.94000006E-02  -1.46173611E-11
  -1.93499997E-02  -1.93632731E-11
  -1.93000007E-02  -2.48155142E-11
  -1.92499999E-02  -3.12390357E-11
  -1.92000009E-02  -3.85722357E-11
  -1.91500001E-02  -4.64359592E-11
  -1.90999992E-02  -5.42843895E-11
  -1.90500002E-02  -6.16333651E-11
  -1.89999994E-02  -6.82654211E-11
  -1.89500004E-02  -7.43187109E-11
  -1.88999996E-02  -8.02170066E-11
  -1.88500006E-02  -8.64685476E-11
  -1.87999997E-02  -9.34209168E-11
  -1.87500007E-02  -1.01081248E-10
  -1.86999999E-02  -1.09084124E-10
  -1.86500009E-02  -1.16825022E-10
  -1.86000001E-02  -1.23703381E-10
  -1.85499992E-02  -1.29368433E-10
  -1.85000002E-02  -1.33857564E-10
  -1.84499994E-02  -1.37562475E-10
  -1.84000004E-02  -1.41034587E-10
  -1.83499996E-02  -1.44713422E-10
  -1.83000006E-02  -1.48698470E-10
  -1.82499997E-02  -1.52667989E-10
  -1.82000007E-02  -1.55984656E-10
  -1.81499999E-02  -1.57944893E-10
  -1.81000009E-02  -1.58062896E-10
  -1.80500001E-02  -1.56262933E-10
  -1.79999992E-02  -1.52891325E-10
  -1.79500002E-02  -1.48538973E-10
  -1.78999994E-02  -1.43750262E-10
  -1.78500004E-02  -1.38746306E-10
  -1.77999996E-02  -1.33287742E-10
  -1.77500006E-02  -1.26741215E-10
  -1.76999997E-02  -1.18324406E-10
  -1.76500008E-02  -1.07423355E-10
  -1.75999999E-02  -9.38410530E-11
  -1.75500009E-02  -7.78646939E-11
  -1.75000001E-02  -6.01172515E-11
  -1.74499992E-02  -4.12561096E-11
  -1.74000002E-02  -2.16507177E-11
  -1.73499994E-02  -1.18361787E-12
  -1.73000004E-02   2.07332242E-11
  -1.72499996E-02   4.49297717E-11
  -1.72000006E-02   7.21350826E-11
  -1.71499997E-02   1.02672149E-10
  -1.71000008E-02   1.36327685E-10
  -1.70499999E-02   1.72458881E-10
  -1.70000009E-02   2.10293713E-10
  -1.69500001E-02   2.49294169E-10
  -1.68999992E-02   2.89419905E-10
  -1.68500002E-02   3.31173033E-10
  -1.67999994E-02   3.75399128E-10
  -1.67500004E-02   4.22928942E-10
  -1.66999996E-02   4.74219275E-10
  -1.66500006E-02   5.29153388E-10
  -1.65999997E-02   5.87093374E-10
  -1.65500008E-02   6.47166654E-10
  -1.64999999E-02   7.08661296E-10
  -1.64500009E-02   7.71355868E-10
  -1.64000001E-02   8.35634173E-10
  -1.63499992E-02   9.02330100E-10
  -1.63000003E-02   9.72365966E-10
  -1.62499994E-02   1.04634534E-09
  -1.62000004E-02   1.12427867E-09
  -1.61499996E-02   1.20557053E-09
  -1.61000006E-02   1.28927669E-09
  -1.60499997E-02   1.37452183E-09
  -1.60000008E-02   1.46089341E-09
  -1.59499999E-02   1.54863333E-09
  -1.59000009E-02   1.63854164E-09
  -1.58500001E-02   1.73162640E-09
  -1.57999992E-02   1.82865545E-09
  -1.57500003E-02   1.92980809E-09
  -1.56999994E-02   2.03458339E-09
  -1.56500004E-02   2.14201523E-09
  -1.55999996E-02   2.25109575E-09
  -1.55499997E-02   2.36122899E-09
  -1.54999997E-02   2.47250509E-09
  -1.54499998E-02   2.58567523E-09
  -1.53999999E-02   2.70182898E-09
  -1.53500000E-02   2.82191737E-09
  -1.53000001E-02   2.94633051E-09
  -1.52500002E-02   3.07472137E-09
  -1.52000003E-02   3.20615867E-09
  -1.51500003E-02   3.33954397E-09
  -1.51000004E-02   3.47411366E-09
  -1.50499996E-02   3.60980024E-09
  -1.49999997E-02   3.74728959E-09
  -1.49499997E-02   3.88774302E-09
  -1.48999998E-02   4.03230560E-09
  -1.48499999E-02   4.18161550E-09
  -1.48000000E-02   4.33553682E-09
  -1.47500001E-02   4.49323334E-09
  -1.47000002E-02   4.65356553E-09
  -1.46500003E-02   4.81562612E-09
  -1.46000003E-02   4.97918817E-09
  -1.45500004E-02   5.14485343E-09
  -1.44999996E-02   5.31383693E-09
  -1.44499997E-02   5.48747847E-09
  -1.43999998E-02   5.66668845E-09
  -1.43499998E-02   5.85158899E-09
  -1.42999999E-02   6.04149708E-09
  -1.42500000E-02   6.23527718E-09
  -1.42000001E-02   6.43190257E-09
  -1.41500002E-02   6.63097799E-09
  -1.41000003E-02   6.83299328E-09
  -1.40500003E-02   7.03918346E-09
  -1.40000004E-02   7.25106286E-09
  -1.39499996E-02   7.46982298E-09
  -1.38999997E-02   7.69587682E-09
  -1.38499998E-02   7.92874477E-09
  -1.37999998E-02   8.16734325E-09
  -1.37499999E-02   8.41054870E-09
  -1.37000000E-02   8.65779093E-09
  -1.36500001E-02   8.90941632E-09
  -1.36000002E-02   9.16663812E-09
  -1.35500003E-02   9.43110745E-09
  -1.35000004E-02   9.70428804E-09
  -1.34500004E-02   9.98690375E-09
  -1.33999996E-02   1.02787174E-08
  -1.33499997E-02   1.05787370E-08
  -1.32999998E-02   1.08857678E-08
  -1.32499998E-02   1.11990612E-08
  -1.31999999E-02   1.15187806E-08
  -1.31500000E-02   1.18460584E-08
  -1.31000001E-02   1.21826362E-08
  -1.30500002E-02   1.25302204E-08
  -1.30000003E-02   1.28898492E-08
  -1.29500004E-02   1.32615590E-08
  -1.29000004E-02   1.36444918E-08
  -1.28499996E-02   1.40374095E-08
  -1.27999997E-02   1.44393857E-08
  -1.27499998E-02   1.48503707E-08
  -1.26999998E-02   1.52713699E-08
  -1.26499999E-02   1.57041598E-08
  -1.26000000E-02   1.61506577E-08
  -1.25500001E-02   1.66122138E-08
  -1.25000002E-02   1.70891692E-08
  -1.24500003E-02   1.75808399E-08
  -1.24000004E-02   1.80859843E-08
  -1.23500004E-02   1.86035081E-08
  -1.22999996E-02   1.91331289E-08
  -1.22499997E-02   1.96756780E-08
  -1.21999998E-02   2.02329140E-08
  -1.21499998E-02   2.08069260E-08
  -1.20999999E-02   2.13993783E-08
  -1.20500000E-02   2.20109406E-08
  -1.20000001E-02   2.26411672E-08
  -1.19500002E-02   2.32888642E-08
  -1.19000003E-02   2.39528131E-08
  -1.18500004E-02   2.46324934E-08
  -1.18000004E-02   2.53285357E-08
  -1.17499996E-02   2.60426383E-08
  -1.16999997E-02   2.67770233E-08
  -1.16499998E-02   2.75336518E-08
  -1.15999999E-02   2.83135577E-08
  -1.15499999E-02   2.91165811E-08
  -1.15000000E-02   2.99416527E-08
  -1.14500001E-02   3.07874757E-08
  -1.14000002E-02   3.16533324E-08
  -1.13500003E-02   3.25396385E-08
  -1.13000004E-02   3.34480106E-08
  -1.12500004E-02   3.43807756E-08
  -1.11999996E-02   3.53402072E-08
  -1.11499997E-02   3.63277302E-08
  -1.10999998E-02   3.73435576E-08
  -1.10499999E-02   3.83868155E-08
  -1.09999999E-02   3.94562143E-08
  -1.09500000E-02   4.05508587E-08
  -1.09000001E-02   4.16709547E-08
  -1.08500002E-02   4.28179838E-08
  -1.08000003E-02   4.39943584E-08
  -1.07500004E-02   4.52026292E-08
  -1.07000005E-02   4.64446615E-08
  -1.06499996E-02   4.77210875E-08
  -1.05999997E-02   4.90313425E-08
  -1.05499998E-02   5.03742292E-08
  -1.04999999E-02   5.17487670E-08
  -1.04499999E-02   5.31549809E-08
  -1.04000000E-02   5.45942349E-08
  -1.03500001E-02   5.60690090E-08
  -1.03000002E-02   5.75821311E-08
  -1.02500003E-02   5.91359104E-08
  -1.02000004E-02   6.07314803E-08
  -1.01500005E-02   6.23686560E-08
  -1.00999996E-02   6.40464108E-08
  -1.00499997E-02   6.57637287E-08
  -9.99999978E-03   6.75204817E-08
  -9.94999986E-03   6.93178777E-08
  -9.89999995E-03   7.11584178E-08
  -9.85000003E-03   7.30451859E-08
  -9.80000012E-03   7.49809459E-08
  -9.75000020E-03   7.69673534E-08
  -9.70000029E-03   7.90046784E-08
  -9.65000037E-03   8.10921819E-08
  -9.60000046E-03   8.32288976E-08
  -9.54999961E-03   8.54145767E-08
  -9.49999969E-03   8.76502995E-08
  -9.44999978E-03   8.99385739E-08
  -9.39999986E-03   9.22826899E-08
  -9.34999995E-03   9.46858592E-08
  -9.30000003E-03   9.71503340E-08
  -9.25000012E-03   9.96769316E-08
  -9.20000020E-03   1.02265290E-07
  -9.15000029E-03   1.04914541E-07
  -9.10000037E-03   1.07624366E-07
  -9.05000046E-03   1.10395739E-07
  -8.99999961E-03   1.13231074E-07
  -8.94999970E-03   1.16133855E-07
  -8.89999978E-03   1.19107682E-07
  -8.84999987E-03   1.22155356E-07
  -8.79999995E-03   1.25278277E-07
  -8.75000004E-03   1.28476515E-07
  -8.70000012E-03   1.31749402E-07
  -8.65000021E-03   1.35096599E-07
  -8.60000029E-03   1.38518914E-07
  -8.55000038E-03   1.42018720E-07
  -8.50000046E-03   1.45599643E-07
  -8.44999962E-03   1.49265645E-07
  -8.39999970E-03   1.53020139E-07
  -8.34999979E-03   1.56865170E-07
  -8.29999987E-03   1.60801321E-07
  -8.24999996E-03   1.64828222E-07
  -8.20000004E-03   1.68945604E-07
  -8.15000013E-03   1.73154206E-07
  -8.10000021E-03   1.77456315E-07
  -8.05000030E-03   1.81855597E-07
  -8.00000038E-03   1.86356374E-07
  -7.95000046E-03   1.90962595E-07
  -7.89999962E-03   1.95676918E-07
  -7.84999970E-03   2.00500551E-07
  -7.79999979E-03   2.05433508E-07
  -7.74999987E-03   2.10475577E-07
  -7.69999996E-03   2.15627452E-07
  -7.65000004E-03   2.20891252E-07
  -7.60000013E-03   2.26270657E-07
  -7.55000021E-03   2.31770201E-07
  -7.49999983E-03   2.37394431E-07
  -7.44999992E-03   2.43146673E-07
  -7.40000000E-03   2.49028830E-07
  -7.35000009E-03   2.55041385E-07
  -7.30000017E-03   2.61184482E-07
  -7.24999979E-03   2.67458688E-07
  -7.19999988E-03   2.73866164E-07
  -7.14999996E-03   2.80410518E-07
  -7.10000005E-03   2.87096611E-07
  -7.05000013E-03   2.93929418E-07
  -7.00000022E-03   3.00913030E-07
  -6.94999984E-03   3.08050062E-07
  -6.89999992E-03   3.15341595E-07
  -6.85000001E-03   3.22788054E-07
  -6.80000009E-03   3.30390122E-07
  -6.75000018E-03   3.38149732E-07
  -6.69999979E-03   3.46070607E-07
  -6.64999988E-03   3.54157720E-07
  -6.59999996E-03   3.62416415E-07
  -6.55000005E-03   3.70851581E-07
  -6.50000013E-03   3.79466513E-07
  -6.45000022E-03   3.88263089E-07
  -6.39999984E-03   3.97242076E-07
  -6.34999992E-03   4.06404354E-07
  -6.30000001E-03   4.15751941E-07
  -6.25000009E-03   4.25288391E-07
  -6.20000018E-03   4.35018876E-07
  -6.14999980E-03   4.44949251E-07
  -6.09999988E-03   4.55085001E-07
  -6.04999997E-03   4.65430361E-07
  -6.00000005E-03   4.75987918E-07
  -5.95000014E-03   4.86759063E-07
  -5.90000022E-03   4.97744963E-07
  -5.84999984E-03   5.08947608E-07
  -5.79999993E-03   5.20370634E-07
  -5.75000001E-03   5.32019158E-07
  -5.70000010E-03   5.43899375E-07
  -5.65000018E-03   5.56017483E-07
  -5.59999980E-03   5.68378482E-07
  -5.54999989E-03   5.80985841E-07
  -5.49999997E-03   5.93841435E-07
  -5.45000006E-03   6.06946969E-07
  -5.40000014E-03   6.20304490E-07
  -5.35000023E-03   6.33917466E-07
  -5.29999984E-03   6.47791182E-07
  -5.24999993E-03   6.61932177E-07
  -5.20000001E-03   6.76346986E-07
  -5.15000010E-03   6.91041521E-07
  -5.10000018E-03   7.06020160E-07
  -5.04999980E-03   7.21285630E-07
  -4.99999989E-03   7.36840093E-07
  -4.94999997E-03   7.52685594E-07
  -4.90000006E-03   7.68825714E-07
  -4.85000014E-03   7.85265854E-07
  -4.80000023E-03   8.02012437E-07
  -4.74999985E-03   8.19072682E-07
  -4.69999993E-03   8.36453296E-07
  -4.65000002E-03   8.54159339E-07
  -4.60000010E-03   8.72194391E-07
  -4.55000019E-03   8.90561125E-07
  -4.49999981E-03   9.09261814E-07
  -4.44999989E-03   9.28299983E-07
  -4.39999998E-03   9.47680746E-07
  -4.35000006E-03   9.67410756E-07
  -4.30000015E-03   9.87497629E-07
  -4.25000023E-03   1.00794853E-06
  -4.19999985E-03   1.02876936E-06
  -4.14999994E-03   1.04996468E-06
  -4.10000002E-03   1.07153755E-06
  -4.05000011E-03   1.09349071E-06
  -4.00000019E-03   1.11582744E-06
  -3.94999981E-03   1.13855299E-06
  -3.89999989E-03   1.16167382E-06
  -3.84999998E-03   1.18519756E-06
  -3.80000006E-03   1.20913205E-06
  -3.74999992E-03   1.23348411E-06
  -3.70000000E-03   1.25825875E-06
  -3.65000009E-03   1.28345982E-06
  -3.59999994E-03   1.30909052E-06
  -3.55000002E-03   1.33515414E-06
  -3.50000011E-03   1.36165545E-06
  -3.44999996E-03   1.38860082E-06
  -3.40000005E-03   1.41599787E-06
  -3.34999990E-03   1.44385444E-06
  -3.29999998E-03   1.47217816E-06
  -3.25000007E-03   1.50097492E-06
  -3.19999992E-03   1.53024905E-06
  -3.15000000E-03   1.56000397E-06
  -3.10000009E-03   1.59024296E-06
  -3.04999994E-03   1.62097058E-06
  -3.00000003E-03   1.65219262E-06
  -2.95000011E-03   1.68391671E-06
  -2.89999996E-03   1.71615090E-06
  -2.85000005E-03   1.74890317E-06
  -2.79999990E-03   1.78217999E-06
  -2.74999999E-03   1.81598648E-06
  -2.70000007E-03   1.85032650E-06
  -2.64999992E-03   1.88520323E-06
  -2.60000001E-03   1.92062066E-06
  -2.55000009E-03   1.95658390E-06
  -2.49999994E-03   1.99310057E-06
  -2.45000003E-03   2.03017839E-06
  -2.40000011E-03   2.06782556E-06
  -2.34999997E-03   2.10604912E-06
  -2.30000005E-03   2.14485499E-06
  -2.24999990E-03   2.18424680E-06
  -2.19999999E-03   2.22422773E-06
  -2.15000007E-03   2.26480142E-06
  -2.09999993E-03   2.30597266E-06
  -2.05000001E-03   2.34774757E-06
  -2.00000009E-03   2.39013411E-06
  -1.94999995E-03   2.43314025E-06
  -1.90000003E-03   2.47677372E-06
  -1.85000000E-03   2.52104019E-06
  -1.79999997E-03   2.56594399E-06
  -1.75000005E-03   2.61148807E-06
  -1.70000002E-03   2.65767540E-06
  -1.64999999E-03   2.70450982E-06
  -1.59999996E-03   2.75199727E-06
  -1.55000004E-03   2.80014456E-06
  -1.50000001E-03   2.84895964E-06
  -1.44999998E-03   2.89844979E-06
  -1.39999995E-03   2.94862116E-06
  -1.35000004E-03   2.99947851E-06
  -1.30000000E-03   3.05102412E-06
  -1.24999997E-03   3.10326095E-06
  -1.20000006E-03   3.15619172E-06
  -1.15000003E-03   3.20982053E-06
  -1.09999999E-03   3.26415329E-06
  -1.04999996E-03   3.31919796E-06
  -1.00000005E-03   3.37496067E-06
  -9.50000016E-04   3.43144779E-06
  -8.99999985E-04   3.48866411E-06
  -8.50000011E-04   3.54661233E-06
  -7.99999980E-04   3.60529361E-06
  -7.50000007E-04   3.66470954E-06
  -6.99999975E-04   3.72486329E-06
  -6.50000002E-04   3.78575942E-06
  -6.00000028E-04   3.84740406E-06
  -5.49999997E-04   3.90980358E-06
  -5.00000024E-04   3.97296390E-06
  -4.49999992E-04   4.03688910E-06
  -3.99999990E-04   4.10158191E-06
  -3.49999988E-04   4.16704324E-06
  -3.00000014E-04   4.23327219E-06
  -2.50000012E-04   4.30027103E-06
  -1.99999995E-04   4.36804157E-06
  -1.50000007E-04   4.43658928E-06
  -9.99999975E-05   4.50591824E-06
  -4.99999987E-05   4.57603437E-06
   0.00000000       4.64694176E-06
   4.99999987E-05   4.71864178E-06
   9.99999975E-05   4.79113442E-06
   1.50000007E-04   4.86441741E-06
   1.99999995E-04   4.93849075E-06
   2.50000012E-04   5.01335398E-06
   3.00000014E-04   5.08901076E-06
   3.49999988E-04   5.16546379E-06
   3.99999990E-04   5.24271763E-06
   4.49999992E-04   5.32077502E-06
   5.00000024E-04   5.39963685E-06
   5.49999997E-04   5.47930131E-06
   6.00000028E-04   5.55976567E-06
   6.50000002E-04   5.64102629E-06
   6.99999975E-04   5.72308090E-06
   7.50000007E-04   5.80593041E-06
   7.99999980E-04   5.88957664E-06
   8.50000011E-04   5.97402095E-06
   8.99999985E-04   6.05926516E-06
   9.50000016E-04   6.14530927E-06
   1.00000005E-03   6.23214919E-06
   1.04999996E-03   6.31977991E-06
   1.09999999E-03   6.40819644E-06
   1.15000003E-03   6.49739377E-06
   1.20000006E-03   6.58736917E-06
   1.24999997E-03   6.67812037E-06
   1.30000000E-03   6.76964873E-06
   1.35000004E-03   6.86195199E-06
   1.39999995E-03   6.95502922E-06
   1.44999998E-03   7.04887543E-06
   1.50000001E-03   7.14348380E-06
   1.55000004E-03   7.23884568E-06
   1.59999996E-03   7.33495335E-06
   1.64999999E-03   7.43180090E-06
   1.70000002E-03   7.52938240E-06
   1.75000005E-03   7.62769423E-06
   1.79999997E-03   7.72673411E-06
   1.85000000E-03   7.82649749E-06
   1.90000003E-03   7.92697756E-06
   1.94999995E-03   8.02816612E-06
   2.00000009E-03   8.13005317E-06
   2.05000001E-03   8.23262690E-06
   2.09999993E-03   8.33587637E-06
   2.15000007E-03   8.43978887E-06
   2.19999999E-03   8.54436166E-06
   2.24999990E-03   8.64958474E-06
   2.30000005E-03   8.75545447E-06
   2.34999997E-03   8.86196176E-06
   2.40000011E-03   8.96909478E-06
   2.45000003E-03   9.07684080E-06
   2.49999994E-03   9.18518344E-06
   2.55000009E-03   9.29410726E-06
   2.60000001E-03   9.40359769E-06
   2.64999992E-03   9.51364291E-06
   2.70000007E-03   9.62423292E-06
   2.74999999E-03   9.73535862E-06
   2.79999990E-03   9.84700819E-06