  -3.99999991E-02   0.00000000    
  -3.99499983E-02   0.00000000    
  -3.99000011E-02   0.00000000    
  -3.98500003E-02   0.00000000    
  -3.97999994E-02   6.89156064E-17
  -3.97499986E-02   5.29924141E-16
  -3.97000015E-02   2.05185706E-15
  -3.96500006E-02   5.40490834E-15
  -3.95999998E-02   1.11487112E-14
  -3.95499989E-02   1.98281892E-14
  -3.95000018E-02   3.24652516E-14
  -3.94500010E-02   5.00483342E-14
  -3.94000001E-02   7.13836813E-14
  -3.93499993E-02   9.12595805E-14
  -3.92999984E-02   1.02206384E-13
  -3.92500013E-02   1.00215998E-13
  -3.92000005E-02   8.97132574E-14
  -3.91499996E-02   8.20304721E-14
  -3.90999988E-02   8.73686296E-14
  -3.90500017E-02   1.07137308E-13
  -3.90000008E-02   1.33305381E-13
  -3.89500000E-02   1.53592240E-13
  -3.88999991E-02   1.55435587E-13
  -3.88499983E-02   1.25548145E-13
  -3.88000011E-02   5.05908961E-14
  -3.87500003E-02  -7.48421372E-14
  -3.86999995E-02  -2.37767976E-13
  -3.86499986E-02  -4.08300618E-13
  -3.86000015E-02  -5.60243800E-13
  -3.85500006E-02  -6.97529274E-13
  -3.84999998E-02  -8.62126668E-13
  -3.84499989E-02  -1.11302081E-12
  -3.84000018E-02  -1.49264965E-12
  -3.83500010E-02  -2.00783314E-12
  -3.83000001E-02  -2.63484200E-12
  -3.82499993E-02  -3.33381261E-12
  -3.81999984E-02  -4.05545302E-12
  -3.81500013E-02  -4.74373275E-12
  -3.81000005E-02  -5.35194979E-12
  -3.80499996E-02  -5.87364575E-12
  -3.79999988E-02  -6.36116810E-12
  -3.79500017E-02  -6.90275441E-12
  -3.79000008E-02  -7.56560700E-12
  -3.78500000E-02  -8.35055202E-12
  -3.77999991E-02  -9.19773892E-12
  -3.77499983E-02  -1.00338600E-11
  -3.77000012E-02  -1.08122192E-11
  -3.76500003E-02  -1.15115452E-11
  -3.75999995E-02  -1.21098773E-11
  -3.75499986E-02  -1.25755812E-11
  -3.75000015E-02  -1.28883397E-11
  -3.74500006E-02  -1.30569635E-11
  -3.73999998E-02  -1.30980903E-11
  -3.73499990E-02  -1.29875390E-11
  -3.73000018E-02  -1.26352193E-11
  -3.72500010E-02  -1.19125603E-11
  -3.72000001E-02  -1.07018084E-11
  -3.71499993E-02  -8.91270304E-12
  -3.70999984E-02  -6.45916914E-12
  -3.70500013E-02  -3.25195058E-12
  -3.70000005E-02   7.41336896E-13
  -3.69499996E-02   5.39738263E-12
  -3.68999988E-02   1.03989924E-11
  -3.68500017E-02   1.53303342E-11
  -3.68000008E-02   1.98697014E-11
  -3.67500000E-02   2.39606824E-11
  -3.66999991E-02   2.78625439E-11
  -3.66499983E-02   3.20707072E-11
  -3.66000012E-02   3.71604934E-11
  -3.65500003E-02   4.36004080E-11
  -3.64999995E-02   5.15605197E-11
  -3.64499986E-02   6.07703887E-11
  -3.64000015E-02   7.05347517E-11
  -3.63500006E-02   7.99890640E-11
  -3.62999998E-02   8.85250900E-11
  -3.62499990E-02   9.61454458E-11
  -3.62000018E-02   1.03485005E-10
  -3.61500010E-02   1.11423953E-10
  -3.61000001E-02   1.20483568E-10
  -3.60499993E-02   1.30341030E-10
  -3.59999985E-02   1.39732226E-10
  -3.59500013E-02   1.46814311E-10
  -3.59000005E-02   1.49868715E-10
  -3.58499996E-02   1.48102003E-10
  -3.57999988E-02   1.42223164E-10
  -3.57500017E-02   1.34460845E-10
  -3.57000008E-02   1.27824737E-10
  -3.56500000E-02   1.24760882E-10
  -3.55999991E-02   1.25769478E-10
  -3.55499983E-02   1.28743197E-10
  -3.55000012E-02   1.29525432E-10
  -3.54500003E-02   1.23578162E-10
  -3.53999995E-02   1.08034158E-10
  -3.53499986E-02   8.31596320E-11
  -3.53000015E-02   5.24960665E-11
  -3.52500007E-02   2.15100802E-11
  -3.51999998E-02  -4.79141249E-12
  -3.51499990E-02  -2.43384878E-11
  -3.51000018E-02  -3.94374047E-11
  -3.50500010E-02  -5.62989273E-11
  -3.50000001E-02  -8.25374352E-11
  -3.49499993E-02  -1.23547020E-10
  -3.48999985E-02  -1.79441545E-10
  -3.48500013E-02  -2.44224363E-10
  -3.48000005E-02  -3.07891712E-10
  -3.47499996E-02  -3.60720842E-10
  -3.46999988E-02  -3.97822164E-10
  -3.46500017E-02  -4.21775642E-10
  -3.46000008E-02  -4.41942316E-10
  -3.45500000E-02  -4.70479933E-10
  -3.44999991E-02  -5.16591492E-10
  -3.44499983E-02  -5.81511561E-10
  -3.44000012E-02  -6.56726062E-10
  -3.43500003E-02  -7.26737948E-10
  -3.42999995E-02  -7.75651710E-10
  -3.42499986E-02  -7.94801391E-10
  -3.42000015E-02  -7.87705734E-10
  -3.41500007E-02  -7.69525998E-10
  -3.40999998E-02  -7.60689844E-10
  -3.40499990E-02  -7.77246933E-10
  -3.40000018E-02  -8.22353241E-10
  -3.39500010E-02  -8.83070506E-10
  -3.39000002E-02  -9.34469835E-10
  -3.38499993E-02  -9.49794021E-10
  -3.37999985E-02  -9.12535103E-10
  -3.37500013E-02  -8.24966540E-10
  -3.37000005E-02  -7.08711090E-10
  -3.36499996E-02  -5.96185268E-10
  -3.35999988E-02  -5.16028165E-10
  -3.35500017E-02  -4.78969087E-10
  -3.35000008E-02  -4.71067518E-10
  -3.34500000E-02  -4.58290489E-10
  -3.33999991E-02  -4.01163297E-10
  -3.33499983E-02  -2.73237016E-10
  -3.33000012E-02  -7.48554482E-11
  -3.32500003E-02   1.64636277E-10
  -3.31999995E-02   3.98126782E-10
  -3.31499986E-02   5.81218240E-10
  -3.31000015E-02   6.93139657E-10
  -3.30500007E-02   7.48300921E-10
  -3.29999998E-02   7.92188870E-10
  -3.29499990E-02   8.82128426E-10
  -3.29000019E-02   1.06079456E-09
  -3.28500010E-02   1.33459332E-09
  -3.28000002E-02   1.66767633E-09
  -3.27499993E-02   1.99561900E-09
  -3.26999985E-02   2.25353380E-09
  -3.26500013E-02   2.40612485E-09
  -3.26000005E-02   2.46556953E-09
  -3.25499997E-02   2.48802379E-09
  -3.24999988E-02   2.54898791E-09
  -3.24500017E-02   2.70763811E-09
  -3.24000008E-02   2.97613045E-09
  -3.23500000E-02   3.30879080E-09
  -3.22999991E-02   3.61796082E-09
  -3.22499983E-02   3.81115894E-09
  -3.22000012E-02   3.83353571E-09
  -3.21500003E-02   3.69574127E-09
  -3.20999995E-02   3.47286955E-09
  -3.20499986E-02   3.27304117E-09
  -3.20000015E-02   3.18855720E-09
  -3.19500007E-02   3.25151306E-09
  -3.18999998E-02   3.41486217E-09
  -3.18499990E-02   3.56913032E-09
  -3.18000019E-02   3.58908481E-09
  -3.17500010E-02   3.39057626E-09
  -3.17000002E-02   2.97177905E-09
  -3.16499993E-02   2.41861309E-09
  -3.15999985E-02   1.86948057E-09
  -3.15500014E-02   1.45338797E-09
  -3.15000005E-02   1.22900157E-09
  -3.14499997E-02   1.15344301E-09
  -3.13999988E-02   1.09717690E-09
  -3.13500017E-02   9.00395314E-10
  -3.13000008E-02   4.46478826E-10
  -3.12500000E-02  -2.80926199E-10
  -3.11999992E-02  -1.18441201E-09
  -3.11500002E-02  -2.09124962E-09
  -3.10999993E-02  -2.82850321E-09
  -3.10500003E-02  -3.30193783E-09
  -3.09999995E-02  -3.54234442E-09
  -3.09500005E-02  -3.69594799E-09
  -3.08999997E-02  -3.96032185E-09
  -3.08500007E-02  -4.49298465E-09
  -3.07999998E-02  -5.33430100E-09
  -3.07500008E-02  -6.38155218E-09
  -3.07000000E-02  -7.42864659E-09
  -3.06499992E-02  -8.25571700E-09
  -3.06000002E-02  -8.72893224E-09
  -3.05499993E-02  -8.86470364E-09
  -3.05000003E-02  -8.82710527E-09
  -3.04499995E-02  -8.85678375E-09
  -3.04000005E-02  -9.16109055E-09
  -3.03499997E-02  -9.81425430E-09
  -3.03000007E-02  -1.07142242E-08
  -3.02499998E-02  -1.16190053E-08
  -3.02000009E-02  -1.22493864E-08
  -3.01500000E-02  -1.24133592E-08
  -3.00999992E-02  -1.20954953E-08
  -3.00500002E-02  -1.14685230E-08
  -2.99999993E-02  -1.08189582E-08
  -2.99500003E-02  -1.04181845E-08
  -2.98999995E-02  -1.03964206E-08
  -2.98500005E-02  -1.06773053E-08
  -2.97999997E-02  -1.10049294E-08
  -2.97500007E-02  -1.10540483E-08
  -2.96999998E-02  -1.05762057E-08
  -2.96500009E-02  -9.51627488E-09
  -2.96000000E-02  -8.04481548E-09
  -2.95499992E-02  -6.48824816E-09
  -2.95000002E-02  -5.18533438E-09
  -2.94499993E-02  -4.33365432E-09
  -2.94000003E-02  -3.89629751E-09
  -2.93499995E-02  -3.61320018E-09
  -2.93000005E-02  -3.11476067E-09
  -2.92499997E-02  -2.08815742E-09
  -2.92000007E-02  -4.21948892E-10
  -2.91499998E-02   1.73703507E-09
  -2.91000009E-02   4.04247524E-09
  -2.90500000E-02   6.09938322E-09
  -2.89999992E-02   7.64097052E-09
  -2.89500002E-02   8.65171046E-09
  -2.88999993E-02   9.37854772E-09
  -2.88500004E-02   1.02216875E-08
  -2.87999995E-02   1.15516636E-08
  -2.87500005E-02   1.35346623E-08
  -2.86999997E-02   1.60463536E-08
  -2.86500007E-02   1.87153777E-08
  -2.85999998E-02   2.10796145E-08
  -2.85500009E-02   2.27872050E-08
  -2.85000000E-02   2.37526869E-08
  -2.84499992E-02   2.41974050E-08
  -2.84000002E-02   2.45532696E-08
  -2.83499993E-02   2.52696122E-08
  -2.83000004E-02   2.66076050E-08
  -2.82499995E-02   2.85143287E-08
  -2.82000005E-02   3.06352170E-08
  -2.81499997E-02   3.24624914E-08
  -2.81000007E-02   3.35551036E-08
  -2.80499998E-02   3.37323556E-08
  -2.80000009E-02   3.31540448E-08
  -2.79500000E-02   3.22497193E-08
  -2.78999992E-02   3.15268487E-08
  -2.78500002E-02   3.13418340E-08
  -2.77999993E-02   3.17342383E-08
  -2.77500004E-02   3.23991927E-08
  -2.76999995E-02   3.28127854E-08
  -2.76500005E-02   3.24576206E-08
  -2.75999997E-02   3.10500567E-08
  -2.75500007E-02   2.86678592E-08
  -2.74999999E-02   2.57194159E-08
  -2.74500009E-02   2.27665158E-08
  -2.74000000E-02   2.02778114E-08
  -2.73499992E-02   1.84212183E-08
  -2.73000002E-02   1.69880998E-08
  -2.72499993E-02   1.54836108E-08
  -2.72000004E-02   1.33447164E-08
  -2.71499995E-02   1.01918811E-08
  -2.71000005E-02   6.00407324E-09
  -2.70499997E-02   1.13911147E-09
  -2.70000007E-02  -3.81281495E-09
  -2.69499999E-02  -8.28093594E-09
  -2.69000009E-02  -1.19611281E-08
  -2.68500000E-02  -1.49493644E-08
  -2.67999992E-02  -1.76998949E-08
  -2.67500002E-02  -2.08236521E-08
  -2.66999993E-02  -2.48138292E-08
  -2.66500004E-02  -2.98181995E-08
  -2.65999995E-02  -3.55579211E-08
  -2.65500005E-02  -4.14302121E-08
  -2.64999997E-02  -4.67539607E-08
  -2.64500007E-02  -5.10543465E-08
  -2.63999999E-02  -5.42634382E-08
  -2.63500009E-02  -5.67474459E-08
  -2.63000000E-02  -5.91447993E-08
  -2.62499992E-02  -6.20811136E-08
  -2.62000002E-02  -6.58827588E-08
  -2.61499994E-02  -7.04148775E-08
  -2.61000004E-02  -7.51176543E-08
  -2.60499995E-02  -7.92286485E-08
  -2.60000005E-02  -8.20980119E-08
  -2.59499997E-02  -8.34618135E-08
  -2.59000007E-02  -8.35546885E-08
  -2.58499999E-02  -8.30093398E-08
  -2.58000009E-02  -8.25820479E-08
  -2.57500000E-02  -8.28177420E-08
  -2.56999992E-02  -8.37981986E-08
  -2.56500002E-02  -8.50864410E-08
  -2.55999994E-02  -8.58975255E-08
  -2.55500004E-02  -8.54274234E-08
  -2.54999995E-02  -8.31990263E-08
  -2.54500005E-02  -7.92748125E-08
  -2.53999997E-02  -7.42386845E-08
  -2.53500007E-02  -6.89491912E-08
  -2.52999999E-02  -6.41676650E-08
  -2.52500009E-02  -6.02197261E-08
  -2.52000000E-02  -5.68396707E-08
  -2.51499992E-02  -5.32717905E-08
  -2.51000002E-02  -4.85943872E-08
  -2.50499994E-02  -4.21316777E-08
  -2.50000004E-02  -3.37728672E-08
  -2.49499995E-02  -2.40536178E-08
  -2.49000005E-02  -1.39535699E-08
  -2.48499997E-02  -4.48969262E-09
  -2.48000007E-02   3.72046371E-09
  -2.47499999E-02   1.07328546E-08
  -2.47000009E-02   1.72607582E-08
  -2.46500000E-02   2.43657752E-08
  -2.45999992E-02   3.29819123E-08
  -2.45500002E-02   4.34769198E-08
  -2.44999994E-02   5.54481510E-08
  -2.44500004E-02   6.78535628E-08
  -2.43999995E-02   7.94334909E-08
  -2.43500005E-02   8.92455532E-08
  -2.42999997E-02   9.70772831E-08
  -2.42500007E-02   1.03546490E-07
  -2.41999999E-02   1.09831802E-07
  -2.41500009E-02   1.17140743E-07
  -2.41000000E-02   1.26144215E-07
  -2.40499992E-02   1.36629950E-07
  -2.40000002E-02   1.47539723E-07
  -2.39499994E-02   1.57387205E-07
  -2.39000004E-02   1.64882834E-07
  -2.38499995E-02   1.69493148E-07
  -2.38000005E-02   1.71681378E-07
  -2.37499997E-02   1.72709861E-07
  -2.37000007E-02   1.74077300E-07
  -2.36499999E-02   1.76831080E-07
  -2.36000009E-02   1.81061466E-07
  -2.35500000E-02   1.85814770E-07
  -2.34999992E-02   1.89478399E-07
  -2.34500002E-02   1.90478289E-07
  -2.33999994E-02   1.87982721E-07
  -2.33500004E-02   1.82291998E-07
  -2.32999995E-02   1.74725756E-07
  -2.32500006E-02   1.67047773E-07
  -2.31999997E-02   1.60673395E-07
  -2.31500007E-02   1.56009563E-07
  -2.30999999E-02   1.52234279E-07
  -2.30500009E-02   1.47631454E-07
  -2.30000000E-02   1.40348789E-07
  -2.29499992E-02   1.29246516E-07
  -2.29000002E-02   1.14450124E-07
  -2.28499994E-02   9.73432108E-08
  -2.28000004E-02   7.99885100E-08
  -2.27499995E-02   6.42246718E-08
  -2.27000006E-02   5.08407823E-08
  -2.26499997E-02   3.92084551E-08
  -2.26000007E-02   2.75522360E-08
  -2.25499999E-02   1.37539011E-08
  -2.25000009E-02  -3.65823061E-09
  -2.24500000E-02  -2.47824357E-08
  -2.23999992E-02  -4.82200306E-08
  -2.23500002E-02  -7.16280368E-08
  -2.22999994E-02  -9.27182171E-08
  -2.22500004E-02  -1.10257908E-07
  -2.21999995E-02  -1.24614900E-07
  -2.21500006E-02  -1.37586184E-07
  -2.20999997E-02  -1.51567932E-07
  -2.20500007E-02  -1.68433019E-07
  -2.19999999E-02  -1.88623090E-07
  -2.19500009E-02  -2.10872571E-07
  -2.19000001E-02  -2.32703769E-07
  -2.18499992E-02  -2.51484693E-07
  -2.18000002E-02  -2.65580326E-07
  -2.17499994E-02  -2.75073745E-07
  -2.17000004E-02  -2.81717064E-07
  -2.16499995E-02  -2.88116013E-07
  -2.16000006E-02  -2.96505647E-07
  -2.15499997E-02  -3.07671854E-07
  -2.15000007E-02  -3.20518780E-07
  -2.14499999E-02  -3.32493585E-07
  -2.14000009E-02  -3.40690718E-07
  -2.13500001E-02  -3.43140954E-07
  -2.12999992E-02  -3.39698261E-07
  -2.12500002E-02  -3.32112705E-07
  -2.11999994E-02  -3.23238595E-07
  -2.11500004E-02  -3.15726936E-07
  -2.10999995E-02  -3.10790028E-07
  -2.10500006E-02  -3.07606371E-07
  -2.09999997E-02  -3.03654531E-07
  -2.09500007E-02  -2.95840380E-07
  -2.08999999E-02  -2.81912406E-07
  -2.08500009E-02  -2.61519887E-07
  -2.08000001E-02  -2.36421002E-07
  -2.07499992E-02  -2.09727176E-07
  -2.07000002E-02  -1.84519749E-07
  -2.06499994E-02  -1.62461603E-07
  -2.06000004E-02  -1.43040552E-07
  -2.05499995E-02  -1.23801641E-07
  -2.05000006E-02  -1.01478250E-07
  -2.04499997E-02  -7.35183363E-08
  -2.04000007E-02  -3.93140169E-08
  -2.03499999E-02  -5.67425329E-10
  -2.03000009E-02   3.93881123E-08
  -2.02500001E-02   7.70210349E-08
  -2.01999992E-02   1.10141265E-07
  -2.01500002E-02   1.38837009E-07
  -2.00999994E-02   1.65376889E-07
  -2.00500004E-02   1.93110836E-07
  -1.99999996E-02   2.24865943E-07
  -1.99500006E-02   2.61564480E-07
  -1.98999997E-02   3.01699771E-07
  -1.98500007E-02   3.41915381E-07
  -1.97999999E-02   3.78434464E-07
  -1.97500009E-02   4.08697105E-07
  -1.97000001E-02   4.32453959E-07
  -1.96499992E-02   4.51808774E-07
  -1.96000002E-02   4.70175877E-07
  -1.95499994E-02   4.90626121E-07
  -1.95000004E-02   5.14374790E-07
  -1.94499996E-02   5.40110364E-07
  -1.94000006E-02   5.64481752E-07
  -1.93499997E-02   5.83527424E-07
  -1.93000007E-02   5.94396624E-07
  -1.92499999E-02   5.96577138E-07
  -1.92000009E-02   5.92068488E-07
  -1.91500001E-02   5.84406109E-07
  -1.90999992E-02   5.76972354E-07
  -1.90500002E-02   5.71363159E-07
  -1.89999994E-02   5.66564268E-07
  -1.89500004E-02   5.59324235E-07
  -1.88999996E-02   5.45563637E-07
  -1.88500006E-02   5.22184109E-07
  -1.87999997E-02   4.88449757E-07
  -1.87500007E-02   4.46303034E-07
  -1.86999999E-02   3.99465250E-07
  -1.86500009E-02   3.51723202E-07
  -1.86000001E-02   3.05180095E-07
  -1.85499992E-02   2.59268120E-07
  -1.85000002E-02   2.10979607E-07
  -1.84499994E-02   1.56218178E-07
  -1.84000004E-02   9.16584568E-08
  -1.83499996E-02   1.62752940E-08
  -1.83000006E-02  -6.81653347E-08
  -1.82499997E-02  -1.57882710E-07
  -1.82000007E-02  -2.48776502E-07
  -1.81499999E-02  -3.38268649E-07
  -1.81000009E-02  -4.26447741E-07
  -1.80500001E-02  -5.15990791E-07
  -1.79999992E-02  -6.10900884E-07
  -1.79500002E-02  -7.14623411E-07
  -1.78999994E-02  -8.28394207E-07
  -1.78500004E-02  -9.50596188E-07
  -1.77999996E-02  -1.07741334E-06
  -1.77500006E-02  -1.20447999E-06
  -1.76999997E-02  -1.32877631E-06
  -1.76500008E-02  -1.44992407E-06
  -1.75999999E-02  -1.57027796E-06
  -1.75500009E-02  -1.69376108E-06
  -1.75000001E-02  -1.82396991E-06
  -1.74499992E-02  -1.96242127E-06
  -1.74000002E-02  -2.10775192E-06
  -1.73499994E-02  -2.25623262E-06
  -1.73000004E-02  -2.40336931E-06
  -1.72499996E-02  -2.54586507E-06
  -1.72000006E-02  -2.68304962E-06
  -1.71499997E-02  -2.81711891E-06
  -1.71000008E-02  -2.95207474E-06
  -1.70499999E-02  -3.09182838E-06
  -1.70000009E-02  -3.23831910E-06
  -1.69500001E-02  -3.39050553E-06
  -1.68999992E-02  -3.54472172E-06
  -1.68500002E-02  -3.69625582E-06
  -1.67999994E-02  -3.84140185E-06
  -1.67500004E-02  -3.97904978E-06
  -1.66999996E-02  -4.11111023E-06
  -1.66500006E-02  -4.24162090E-06
  -1.65999997E-02  -4.37490007E-06
  -1.65500008E-02  -4.51353844E-06
  -1.64999999E-02  -4.65716084E-06
  -1.64500009E-02  -4.80254766E-06
  -1.64000001E-02  -4.94508095E-06
  -1.63499992E-02  -5.08083986E-06
  -1.63000003E-02  -5.20838148E-06
  -1.62499994E-02  -5.32938975E-06
  -1.62000004E-02  -5.44793375E-06
  -1.61499996E-02  -5.56865098E-06
  -1.61000006E-02  -5.69468148E-06
  -1.60499997E-02  -5.82629127E-06
  -1.60000008E-02  -5.96073505E-06
  -1.59499999E-02  -6.09350309E-06
  -1.59000009E-02  -6.22041534E-06
  -1.58500001E-02  -6.33968284E-06
  -1.57999992E-02  -6.45278897E-06
  -1.57500003E-02  -6.56383691E-06
  -1.56999994E-02  -6.67779523E-06
  -1.56500004E-02  -6.79835057E-06
  -1.55999996E-02  -6.92636740E-06
  -1.55499997E-02  -7.05960974E-06
  -1.54999997E-02  -7.19373611E-06
  -1.54499998E-02  -7.32432318E-06
  -1.53999999E-02  -7.44913905E-06
  -1.53500000E-02  -7.56930604E-06
  -1.53000001E-02  -7.68892733E-06
  -1.52500002E-02  -7.81341168E-06
  -1.52000003E-02  -7.94714288E-06
  -1.51500003E-02  -8.09162975E-06
  -1.51000004E-02  -8.24496237E-06
  -1.50499996E-02  -8.40277244E-06
  -1.49999997E-02  -8.56033239E-06
  -1.49499997E-02  -8.71478369E-06
  -1.48999998E-02  -8.86659836E-06
  -1.48499999E-02  -9.01955718E-06
  -1.48000000E-02  -9.17928355E-06
  -1.47500001E-02  -9.35093340E-06
  -1.47000002E-02  -9.53692324E-06
  -1.46500003E-02  -9.73594160E-06
  -1.46000003E-02  -9.94362472E-06
  -1.45500004E-02  -1.01547294E-05
  -1.44999996E-02  -1.03656384E-05
  -1.44499997E-02  -1.05761974E-05
  -1.43999998E-02  -1.07898877E-05
  -1.43499998E-02  -1.10123055E-05
  -1.42999999E-02  -1.12489170E-05
  -1.42500000E-02  -1.15028706E-05
  -1.42000001E-02  -1.17737054E-05
  -1.41500002E-02  -1.20574987E-05
  -1.41000003E-02  -1.23487098E-05
  -1.40500003E-02  -1.26428704E-05
  -1.40000004E-02  -1.29387181E-05
  -1.39499996E-02  -1.32392133E-05
  -1.38999997E-02  -1.35503515E-05
  -1.38499998E-02  -1.38781670E-05
  -1.37999998E-02  -1.42262697E-05
  -1.37499999E-02  -1.45944114E-05
  -1.37000000E-02  -1.49787102E-05
  -1.36500001E-02  -1.53736564E-05
  -1.36000002E-02  -1.57744616E-05
  -1.35500003E-02  -1.61792177E-05
  -1.35000004E-02  -1.65900292E-05
  -1.34500004E-02  -1.70125386E-05
  -1.33999996E-02  -1.74537836E-05
  -1.33499997E-02  -1.79187373E-05
  -1.32999998E-02  -1.84079963E-05
  -1.32499998E-02  -1.89176990E-05
  -1.31999999E-02  -1.94415024E-05
  -1.31500000E-02  -1.99735859E-05
  -1.31000001E-02  -2.05114011E-05
  -1.30500002E-02  -2.10568651E-05
  -1.30000003E-02  -2.16155859E-05
  -1.29500004E-02  -2.21946484E-05
  -1.29000004E-02  -2.27998535E-05
  -1.28499996E-02  -2.34334038E-05
  -1.27999997E-02  -2.40927548E-05
  -1.27499998E-02  -2.47715252E-05
  -1.26999998E-02  -2.54624356E-05
  -1.26499999E-02  -2.61614114E-05
  -1.26000000E-02  -2.68698914E-05
  -1.25500001E-02  -2.75937109E-05
  -1.25000002E-02  -2.83404770E-05
  -1.24500003E-02  -2.91167380E-05
  -1.24000004E-02  -2.99254807E-05
  -1.23500004E-02  -3.07653463E-05
  -1.22999996E-02  -3.16312216E-05
  -1.22499997E-02  -3.25165747E-05
  -1.21999998E-02  -3.34167598E-05
  -1.21499998E-02  -3.43317079E-05
  -1.20999999E-02  -3.52668649E-05
  -1.20500000E-02  -3.62303072E-05
  -1.20000001E-02  -3.72288487E-05
  -1.19500002E-02  -3.82653234E-05
  -1.19000003E-02  -3.93375994E-05
  -1.18500004E-02  -4.04398088E-05
  -1.18000004E-02  -4.15646318E-05
  -1.17499996E-02  -4.27069135E-05
  -1.16999997E-02  -4.38666975E-05
  -1.16499998E-02  -4.50497537E-05
  -1.15999999E-02  -4.62661774E-05
  -1.15499999E-02  -4.75264096E-05
  -1.15000000E-02  -4.88372680E-05
  -1.14500001E-02  -5.01992654E-05
  -1.14000002E-02  -5.16065847E-05
  -1.13500003E-02  -5.30510333E-05
  -1.13000004E-02  -5.45257790E-05
  -1.12500004E-02  -5.60272747E-05
  -1.11999996E-02  -5.75573067E-05
  -1.11499997E-02  -5.91220487E-05
  -1.10999998E-02  -6.07289294E-05
  -1.10499999E-02  -6.23838278E-05
  -1.09999999E-02  -6.40878570E-05
  -1.09500000E-02  -6.58371282E-05
  -1.09000001E-02  -6.76253330E-05
  -1.08500002E-02  -6.94475602E-05
  -1.08000003E-02  -7.13046247E-05
  -1.07500004E-02  -7.32036424E-05
  -1.07000005E-02  -7.51552216E-05
  -1.06499996E-02  -7.71701525E-05
  -1.05999997E-02  -7.92557476E-05
  -1.05499998E-02  -8.14127998E-05
  -1.04999999E-02  -8.36351028E-05
  -1.04499999E-02  -8.59122301E-05
  -1.04000000E-02  -8.82328895E-05
  -1.03500001E-02  -9.05888664E-05
  -1.03000002E-02  -9.29795497E-05
  -1.02500003E-02  -9.54125426E-05
  -1.02000004E-02  -9.78988974E-05
  -1.01500005E-02  -1.00447294E-04
  -1.00999996E-02  -1.03061364E-04
  -1.00499997E-02  -1.05740022E-04
  -9.99999978E-03  -1.08478613E-04
  -9.94999986E-03  -1.11271962E-04
  -9.89999995E-03  -1.14118200E-04
  -9.85000003E-03  -1.17019954E-04
  -9.80000012E-03  -1.19983619E-04
  -9.75000020E-03  -1.23018865E-04
  -9.70000029E-03  -1.26134226E-04
  -9.65000037E-03  -1.29332941E-04
  -9.60000046E-03  -1.32611371E-04
  -9.54999961E-03  -1.35960858E-04
  -9.49999969E-03  -1.39371521E-04
  -9.44999978E-03  -1.42836681E-04
  -9.39999986E-03  -1.46355524E-04
  -9.34999995E-03  -1.49934058E-04
  -9.30000003E-03  -1.53584144E-04
  -9.25000012E-03  -1.57315124E-04
  -9.20000020E-03  -1.61129457E-04
  -9.15000029E-03  -1.65024248E-04
  -9.10000037E-03  -1.68993109E-04
  -9.05000046E-03  -1.73028646E-04
  -8.99999961E-03  -1.77124981E-04
  -8.94999970E-03  -1.81280353E-04
  -8.89999978E-03  -1.85500219E-04
  -8.84999987E-03  -1.89796963E-04
  -8.79999995E-03  -1.94185210E-04
  -8.75000004E-03  -1.98673544E-04
  -8.70000012E-03  -2.03261559E-04
  -8.65000021E-03  -2.07942809E-04
  -8.60000029E-03  -2.12709871E-04
  -8.55000038E-03  -2.17558787E-04
  -8.50000046E-03  -2.22487884E-04
  -8.44999962E-03  -2.27498240E-04
  -8.39999970E-03  -2.32598017E-04
  -8.34999979E-03  -2.37797722E-04
  -8.29999987E-03  -2.43104223E-04
  -8.24999996E-03  -2.48517288E-04
  -8.20000004E-03  -2.54027400E-04
  -8.15000013E-03  -2.59624561E-04
  -8.10000021E-03  -2.65307142E-04
  -8.05000030E-03  -2.71075289E-04
  -8.00000038E-03  -2.76929233E-04
  -7.95000046E-03  -2.82877154E-04
  -7.89999962E-03  -2.88930547E-04
  -7.84999970E-03  -2.95101432E-04
  -7.79999979E-03  -3.01395543E-04
  -7.74999987E-03  -3.07807612E-04
  -7.69999996E-03  -3.14327626E-04
  -7.65000004E-03  -3.20951338E-04
  -7.60000013E-03  -3.27680551E-04
  -7.55000021E-03  -3.34524346E-04
  -7.49999983E-03  -3.41493520E-04
  -7.44999992E-03  -3.48595408E-04
  -7.40000000E-03  -3.55837925E-04
  -7.35000009E-03  -3.63227009E-04
  -7.30000017E-03  -3.70760215E-04
  -7.24999979E-03  -3.78429395E-04
  -7.19999988E-03  -3.86226602E-04
  -7.14999996E-03  -3.94145580E-04
  -7.10000005E-03  -4.02189413E-04
  -7.05000013E-03  -4.10367735E-04
  -7.00000022E-03  -4.18692041E-04
  -6.94999984E-03  -4.27171326E-04
  -6.89999992E-03  -4.35806141E-04
  -6.85000001E-03  -4.44591453E-04
  -6.80000009E-03  -4.53526940E-04
  -6.75000018E-03  -4.62613447E-04
  -6.69999979E-03  -4.71851497E-04
  -6.64999988E-03  -4.81242663E-04
  -6.59999996E-03  -4.90790466E-04
  -6.55000005E-03  -5.00503578E-04
  -6.50000013E-03  -5.10399637E-04
  -6.45000022E-03  -5.20492613E-04
  -6.39999984E-03  -5.30777208E-04
  -6.34999992E-03  -5.41244168E-04
  -6.30000001E-03  -5.51886798E-04
  -6.25000009E-03  -5.62708999E-04
  -6.20000018E-03  -5.73725847E-04
  -6.14999980E-03  -5.84943278E-04
  -6.09999988E-03  -5.96359605E-04
  -6.04999997E-03  -6.07974071E-04
  -6.00000005E-03  -6.19795290E-04
  -5.95000014E-03  -6.31836709E-04
  -5.90000022E-03  -6.44097396E-04
  -5.84999984E-03  -6.56561344E-04
  -5.79999993E-03  -6.69211440E-04
  -5.75000001E-03  -6.82058570E-04
  -5.70000010E-03  -6.95130846E-04
  -5.65000018E-03  -7.08443637E-04
  -5.59999980E-03  -7.21992459E-04
  -5.54999989E-03  -7.35764683E-04
  -5.49999997E-03  -7.49767234E-04
  -5.45000006E-03  -7.64018565E-04
  -5.40000014E-03  -7.78517860E-04
  -5.35000023E-03  -7.93254469E-04
  -5.29999984E-03  -8.08226585E-04
  -5.24999993E-03  -8.23446782E-04
  -5.20000001E-03  -8.38931184E-04
  -5.15000010E-03  -8.54692131E-04
  -5.10000018E-03  -8.70737014E-04
  -5.04999980E-03  -8.87061993E-04
  -4.99999989E-03  -9.03659733E-04
  -4.94999997E-03  -9.20527906E-04
  -4.90000006E-03  -9.37678560E-04
  -4.85000014E-03  -9.55111405E-04
  -4.80000023E-03  -9.72820679E-04
  -4.74999985E-03  -9.90809640E-04
  -4.69999993E-03  -1.00908987E-03
  -4.65000002E-03  -1.02767278E-03
  -4.60000010E-03  -1.04655547E-03
  -4.55000019E-03  -1.06573116E-03
  -4.49999981E-03  -1.08518219E-03
  -4.44999989E-03  -1.10490993E-03
  -4.39999998E-03  -1.12494559E-03
  -4.35000006E-03  -1.14531396E-03
  -4.30000015E-03  -1.16602262E-03
  -4.25000023E-03  -1.18705991E-03
  -4.19999985E-03  -1.20841654E-03
  -4.14999994E-03  -1.23010611E-03
  -4.10000002E-03  -1.25214655E-03
  -4.05000011E-03  -1.27454079E-03
  -4.00000019E-03  -1.29728066E-03
  -3.94999981E-03  -1.32035231E-03
  -3.89999989E-03  -1.34375400E-03
  -3.84999998E-03  -1.36750832E-03
  -3.80000006E-03  -1.39164517E-03
  -3.74999992E-03  -1.41616829E-03
  -3.70000000E-03  -1.44103973E-03
  -3.65000009E-03  -1.46621710E-03
  -3.59999994E-03  -1.49171043E-03
  -3.55000002E-03  -1.51757034E-03
  -3.50000011E-03  -1.54382107E-03
  -3.44999996E-03  -1.57044095E-03
  -3.40000005E-03  -1.59739563E-03
  -3.34999990E-03  -1.62470376E-03
  -3.29999998E-03  -1.65241631E-03
  -3.25000007E-03  -1.68055005E-03
  -3.19999992E-03  -1.70906808E-03
  -3.15000000E-03  -1.73792487E-03
  -3.10000009E-03  -1.76712731E-03
  -3.04999994E-03  -1.79671729E-03
  -3.00000003E-03  -1.82674301E-03
  -2.95000011E-03  -1.85720343E-03
  -2.89999996E-03  -1.88804569E-03
  -2.85000005E-03  -1.91924744E-03
  -2.79999990E-03  -1.95083627E-03
  -2.74999999E-03  -1.98284467E-03
  -2.70000007E-03  -2.01526447E-03
  -2.64999992E-03  -2.04805122E-03
  -2.60000001E-03  -2.08116439E-03
  -2.55000009E-03  -2.11464311E-03
  -2.49999994E-03  -2.14857794E-03
  -2.45000003E-03  -2.18299520E-03
  -2.40000011E-03  -2.21782317E-03
  -2.34999997E-03  -2.25297059E-03
  -2.30000005E-03  -2.28844606E-03
  -2.24999990E-03  -2.32432224E-03
  -2.19999999E-03  -2.36064126E-03
  -2.15000007E-03  -2.39737332E-03
  -2.09999993E-03  -2.43445067E-03
  -2.05000001E-03  -2.47184280E-03
  -2.00000009E-03  -2.50964356E-03
  -1.94999995E-03  -2.54796259E-03
  -1.90000003E-03  -2.58675707E-03
  -1.85000000E-03  -2.62588752E-03
  -1.79999997E-03  -2.66529224E-03
  -1.75000005E-03  -2.70503247E-03
  -1.70000002E-03  -2.74520274E-03
  -1.64999999E-03  -2.78585823E-03
  -1.59999996E-03  -2.82694842E-03
  -1.55000004E-03  -2.86841323E-03
  -1.50000001E-03  -2.91024847E-03
  -1.44999998E-03  -2.95247510E-03
  -1.39999995E-03  -2.99514038E-03
  -1.35000004E-03  -3.03821010E-03
  -1.30000000E-03  -3.08157480E-03
  -1.24999997E-03  -3.12518049E-03
  -1.20000006E-03  -3.16912937E-03
  -1.15000003E-03  -3.21355346E-03
  -1.09999999E-03  -3.25844483E-03
  -1.04999996E-03  -3.30373761E-03
  -1.00000005E-03  -3.34935240E-03
  -9.50000016E-04  -3.39525868E-03
  -8.99999985E-04  -3.44150234E-03
  -8.50000011E-04  -3.48812318E-03
  -7.99999980E-04  -3.53513006E-03
  -7.50000007E-04  -3.58247710E-03
  -6.99999975E-04  -3.63015896E-03
  -6.50000002E-04  -3.67825571E-03
  -6.00000028E-04  -3.72681511E-03
  -5.49999997E-04  -3.77580826E-03
  -5.00000024E-04  -3.82512831E-03
  -4.49999992E-04  -3.87466699E-03
  -3.99999990E-04  -3.92446620E-03
  -3.49999988E-04  -3.97468172E-03
  -3.00000014E-04  -4.02530795E-03
  -2.50000012E-04  -4.07621684E-03
  -1.99999995E-04  -4.12741723E-03
  -1.50000007E-04  -4.17901855E-03
  -9.99999975E-05  -4.23100824E-03
  -4.99999987E-05  -4.28331597E-03
   0.00000000      -4.33591567E-03
   4.99999987E-05  -4.38879756E-03
   9.99999975E-05  -4.44196817E-03
   1.50000007E-04  -4.49541444E-03
   1.99999995E-04  -4.54919226E-03
   2.50000012E-04  -4.60338499E-03
   3.00000014E-04  -4.65798797E-03
   3.49999988E-04  -4.71293787E-03
   3.99999990E-04  -4.76816343E-03
   4.49999992E-04  -4.82362602E-03
   5.00000024E-04  -4.87936009E-03
   5.49999997E-04  -4.93543921E-03
   6.00000028E-04  -4.99186059E-03
   6.50000002E-04  -5.04853250E-03
   6.99999975E-04  -5.10547031E-03
   7.50000007E-04  -5.16279694E-03
   7.99999980E-04  -5.22053009E-03
   8.50000011E-04  -5.27856266E-03
   8.99999985E-04  -5.33679547E-03
   9.50000016E-04  -5.39523596E-03
   1.00000005E-03  -5.45388786E-03
   1.04999996E-03  -5.51278936E-03
   1.09999999E-03  -5.57203265E-03
   1.15000003E-03  -5.63161075E-03
   1.20000006E-03  -5.69147803E-03
   1.24999997E-03  -5.75164426E-03
   1.30000000E-03  -5.81208849E-03
   1.35000004E-03  -5.87278605E-03
   1.39999995E-03  -5.93371876E-03
   1.44999998E-03  -5.99478837E-03
   1.50000001E-03  -6.05603214E-03
   1.55000004E-03  -6.11758232E-03
   1.59999996E-03  -6.17948314E-03
   1.64999999E-03  -6.24172483E-03
   1.70000002E-03  -6.30426919E-03
   1.75000005E-03  -6.36702077E-03
   1.79999997E-03  -6.42994465E-03
   1.85000000E-03  -6.49307342E-03
   1.90000003E-03  -6.55638473E-03
   1.94999995E-03  -6.61991024E-03
   2.00000009E-03  -6.68367930E-03
   2.05000001E-03  -6.74768770E-03
   2.09999993E-03  -6.81199506E-03
   2.15000007E-03  -6.87659113E-03
   2.19999999E-03  -6.94144890E-03
   2.24999990E-03  -7.00643007E-03
   2.30000005E-03  -7.07137492E-03
   2.34999997E-03  -7.13641290E-03
   2.40000011E-03  -7.20175449E-03
   2.45000003E-03  -7.26748211E-03
   2.49999994E-03  -7.33345794E-03
   2.55000009E-03  -7.39943888E-03
   2.60000001E-03  -7.46551435E-03
   2.64999992E-03  -7.53191346E-03
   2.70000007E-03  -7.59863621E-03
   2.74999999E-03  -7.66559830E-03
   2.79999990E-03  -7.73261255E-03