  -3.99999991E-02   0.00000000    
  -3.99499983E-02   0.00000000    
  -3.99000011E-02   0.00000000    
  -3.98500003E-02   3.68662411E-20
  -3.97999994E-02   2.11783595E-19
  -3.97499986E-02   6.38641697E-19
  -3.97000015E-02   1.27691913E-18
  -3.96500006E-02   1.70434930E-18
  -3.95999998E-02   9.67551198E-19
  -3.95499989E-02  -2.37385285E-18
  -3.95000018E-02  -1.00395267E-17
  -3.94500010E-02  -2.38365626E-17
  -3.94000001E-02  -4.56534182E-17
  -3.93499993E-02  -7.76065681E-17
  -3.92999984E-02  -1.22076652E-16
  -3.92500013E-02  -1.81355723E-16
  -3.92000005E-02  -2.56920604E-16
  -3.91499996E-02  -3.48780136E-16
  -3.90999988E-02  -4.55582282E-16
  -3.90500017E-02  -5.75946670E-16
  -3.90000008E-02  -7.10812738E-16
  -3.89500000E-02  -8.65777680E-16
  -3.88999991E-02  -1.05194440E-15
  -3.88499983E-02  -1.28412958E-15
  -3.88000011E-02  -1.57646511E-15
  -3.87500003E-02  -1.93700003E-15
  -3.86999995E-02  -2.36399781E-15
  -3.86499986E-02  -2.84642246E-15
  -3.86000015E-02  -3.36937700E-15
  -3.85500006E-02  -3.92267184E-15
  -3.84999998E-02  -4.50856368E-15
  -3.84499989E-02  -5.14428520E-15
  -3.84000018E-02  -5.85688089E-15
  -3.83500010E-02  -6.67138015E-15
  -3.83000001E-02  -7.59695041E-15
  -3.82499993E-02  -8.61743623E-15
  -3.81999984E-02  -9.69143589E-15
  -3.81500013E-02  -1.07630342E-14
  -3.81000005E-02  -1.17793187E-14
  -3.80499996E-02  -1.27072747E-14
  -3.79999988E-02  -1.35425948E-14
  -3.79500017E-02  -1.43063306E-14
  -3.79000008E-02  -1.50307064E-14
  -3.78500000E-02  -1.57400694E-14
  -3.77999991E-02  -1.64348498E-14
  -3.77499983E-02  -1.70848155E-14
  -3.77000012E-02  -1.76338165E-14
  -3.76500003E-02  -1.80136718E-14
  -3.75999995E-02  -1.81618247E-14
  -3.75499986E-02  -1.80369364E-14
  -3.75000015E-02  -1.76283379E-14
  -3.74500006E-02  -1.69573540E-14
  -3.73999998E-02  -1.60700683E-14
  -3.73499990E-02  -1.50216092E-14
  -3.73000018E-02  -1.38532882E-14
  -3.72500010E-02  -1.25671229E-14
  -3.72000001E-02  -1.11070558E-14
  -3.71499993E-02  -9.35945233E-15
  -3.70999984E-02  -7.18290800E-15
  -3.70500013E-02  -4.46693963E-15
  -3.70000005E-02  -1.20308907E-15
  -3.69499996E-02   2.46236289E-15
  -3.68999988E-02   6.22818964E-15
  -3.68500017E-02   9.71043907E-15
  -3.68000008E-02   1.25764343E-14
  -3.67500000E-02   1.46937618E-14
  -3.66999991E-02   1.62239420E-14
  -3.66499983E-02   1.75968029E-14
  -3.66000012E-02   1.93441827E-14
  -3.65500003E-02   2.18382543E-14
  -3.64999995E-02   2.50412755E-14
  -3.64499986E-02   2.83952617E-14
  -3.64000015E-02   3.09405686E-14
  -3.63500006E-02   3.16576091E-14
  -3.62999998E-02   2.99126805E-14
  -3.62499990E-02   2.58114012E-14
  -3.62000018E-02   2.02682753E-14
  -3.61500010E-02   1.47035331E-14
  -3.61000001E-02   1.04460897E-14
  -3.60499993E-02   8.08273567E-15
  -3.59999985E-02   7.06504972E-15
  -3.59500013E-02   5.81349967E-15
  -3.59000005E-02   2.35241188E-15
  -3.58499996E-02  -4.74964747E-15
  -3.57999988E-02  -1.55496648E-14
  -3.57500017E-02  -2.84393751E-14
  -3.57000008E-02  -4.06240424E-14
  -3.56500000E-02  -4.92556232E-14
  -3.55999991E-02  -5.27622752E-14
  -3.55499983E-02  -5.17473129E-14
  -3.55000012E-02  -4.89464460E-14
  -3.54500003E-02  -4.81191354E-14
  -3.53999995E-02  -5.22573521E-14
  -3.53499986E-02  -6.18902173E-14
  -3.53000015E-02  -7.43319658E-14
  -3.52500007E-02  -8.43815916E-14
  -3.51999998E-02  -8.63443025E-14
  -3.51499990E-02  -7.65809738E-14
  -3.51000018E-02  -5.54256890E-14
  -3.50500010E-02  -2.74629528E-14
  -3.50000001E-02   1.81846737E-16
  -3.49499993E-02   2.09688512E-14
  -3.48999985E-02   3.21606552E-14
  -3.48500013E-02   3.65932362E-14
  -3.48000005E-02   4.19712245E-14
  -3.47499996E-02   5.77244619E-14
  -3.46999988E-02   9.06417207E-14
  -3.46500017E-02   1.41230506E-13
  -3.46000008E-02   2.02630881E-13
  -3.45500000E-02   2.62895445E-13
  -3.44999991E-02   3.09926428E-13
  -3.44499983E-02   3.37010476E-13
  -3.44000012E-02   3.46382889E-13
  -3.43500003E-02   3.48916534E-13
  -3.42999995E-02   3.59676834E-13
  -3.42499986E-02   3.91023043E-13
  -3.42000015E-02   4.46276696E-13
  -3.41500007E-02   5.17014437E-13
  -3.40999998E-02   5.85627683E-13
  -3.40499990E-02   6.32452586E-13
  -3.40000018E-02   6.44535857E-13
  -3.39500010E-02   6.22043541E-13
  -3.39000002E-02   5.79061701E-13
  -3.38499993E-02   5.37894328E-13
  -3.37999985E-02   5.18964971E-13
  -3.37500013E-02   5.30706121E-13
  -3.37000005E-02   5.64224774E-13
  -3.36499996E-02   5.95705072E-13
  -3.35999988E-02   5.96119074E-13
  -3.35500017E-02   5.44322888E-13
  -3.35000008E-02   4.37670354E-13
  -3.34500000E-02   2.94930503E-13
  -3.33999991E-02   1.49468938E-13
  -3.33499983E-02   3.50613263E-14
  -3.33000012E-02  -2.96248621E-14
  -3.32500003E-02  -5.07137362E-14
  -3.31999995E-02  -5.79526729E-14
  -3.31499986E-02  -9.23577079E-14
  -3.31000015E-02  -1.87555307E-13
  -3.30500007E-02  -3.53044091E-13
  -3.29999998E-02  -5.67349336E-13
  -3.29499990E-02  -7.85042062E-13
  -3.29000019E-02  -9.55424216E-13
  -3.28500010E-02  -1.04506616E-12
  -3.28000002E-02  -1.05399500E-12
  -3.27499993E-02  -1.01752547E-12
  -3.26999985E-02  -9.91826955E-13
  -3.26500013E-02  -1.02875575E-12
  -3.26000005E-02  -1.15087573E-12
  -3.25499997E-02  -1.33828506E-12
  -3.24999988E-02  -1.53419595E-12
  -3.24500017E-02  -1.66799289E-12
  -3.24000008E-02  -1.68629780E-12
  -3.23500000E-02  -1.57821651E-12
  -3.22999991E-02  -1.38271133E-12
  -3.22499983E-02  -1.17351940E-12
  -3.22000012E-02  -1.02714007E-12
  -3.21500003E-02  -9.87606264E-13
  -3.20999995E-02  -1.04413396E-12
  -3.20499986E-02  -1.13280728E-12
  -3.20000015E-02  -1.16304091E-12
  -3.19500007E-02  -1.05814251E-12
  -3.18999998E-02  -7.92109705E-13
  -3.18499990E-02  -4.05425910E-13
  -3.18000019E-02   8.73935561E-15
  -3.17500010E-02   3.43387618E-13
  -3.17000002E-02   5.25232147E-13
  -3.16499993E-02   5.49559692E-13
  -3.15999985E-02   4.85616972E-13
  -3.15500014E-02   4.48302311E-13
  -3.15000005E-02   5.47204317E-13
  -3.14499997E-02   8.35093767E-13
  -3.13999988E-02   1.27950244E-12
  -3.13500017E-02   1.77176069E-12
  -3.13000008E-02   2.17147155E-12
  -3.12500000E-02   2.36802114E-12
  -3.11999992E-02   2.33188447E-12
  -3.11500002E-02   2.13167656E-12
  -3.10999993E-02   1.90728423E-12
  -3.10500003E-02   1.80901550E-12
  -3.09999995E-02   1.92879697E-12
  -3.09500005E-02   2.25447373E-12
  -3.08999997E-02   2.66934196E-12
  -3.08500007E-02   2.99952446E-12
  -3.07999998E-02   3.09006770E-12
  -3.07500008E-02   2.87654167E-12
  -3.07000000E-02   2.41927680E-12
  -3.06499992E-02   1.88277085E-12
  -3.06000002E-02   1.46691990E-12
  -3.05499993E-02   1.31901814E-12
  -3.05000003E-02   1.46563024E-12
  -3.04499995E-02   1.79627493E-12
  -3.04000005E-02   2.10878949E-12
  -3.03499997E-02   2.19863711E-12
  -3.03000007E-02   1.95357966E-12
  -3.02499998E-02   1.41090004E-12
  -3.02000009E-02   7.49396151E-13
  -3.01500000E-02   2.16758957E-13
  -3.00999992E-02   2.23529725E-14
  -3.00500002E-02   2.42517838E-13
  -2.99999993E-02   7.81957723E-13
  -2.99500003E-02   1.41126954E-12
  -2.98999995E-02   1.86698552E-12
  -2.98500005E-02   1.97152429E-12
  -2.97999997E-02   1.71952524E-12
  -2.97500007E-02   1.28994330E-12
  -2.96999998E-02   9.75151492E-13
  -2.96500009E-02   1.05554010E-12
  -2.96000000E-02   1.67400902E-12
  -2.95499992E-02   2.76712399E-12
  -2.95000002E-02   4.08646467E-12
  -2.94499993E-02   5.30428782E-12
  -2.94000003E-02   6.15922504E-12
  -2.93499995E-02   6.57778302E-12
  -2.93000005E-02   6.71570612E-12
  -2.92499997E-02   6.89717597E-12
  -2.92000007E-02   7.47510387E-12
  -2.91499998E-02   8.67235190E-12
  -2.91000009E-02   1.04747617E-11
  -2.90500000E-02   1.26263175E-11
  -2.89999992E-02   1.47327237E-11
  -2.89500002E-02   1.64310093E-11
  -2.88999993E-02   1.75513944E-11
  -2.88500004E-02   1.81982016E-11
  -2.87999995E-02   1.87103302E-11
  -2.87500005E-02   1.95144751E-11
  -2.86999997E-02   2.09331233E-11
  -2.86500007E-02   2.30320086E-11
  -2.85999998E-02   2.55771411E-11
  -2.85500009E-02   2.81247785E-11
  -2.85000000E-02   3.02087348E-11
  -2.84499992E-02   3.15443713E-11
  -2.84000002E-02   3.21580852E-11
  -2.83499993E-02   3.23814378E-11
  -2.83000004E-02   3.27076526E-11
  -2.82499995E-02   3.35700391E-11
  -2.82000005E-02   3.51392249E-11
  -2.81499997E-02   3.72309163E-11
  -2.81000007E-02   3.93696915E-11
  -2.80499998E-02   4.09856177E-11
  -2.80000009E-02   4.16601614E-11
  -2.79500000E-02   4.13127380E-11
  -2.78999992E-02   4.02421117E-11
  -2.78500002E-02   3.89992032E-11
  -2.77999993E-02   3.81425308E-11
  -2.77500004E-02   3.79821417E-11
  -2.76999995E-02   3.84265120E-11
  -2.76500005E-02   3.90045600E-11
  -2.75999997E-02   3.90588083E-11
  -2.75500007E-02   3.80288474E-11
  -2.74999999E-02   3.57009630E-11
  -2.74500009E-02   3.23109595E-11
  -2.74000000E-02   2.84492239E-11
  -2.73499992E-02   2.48041258E-11
  -2.73000002E-02   2.18534132E-11
  -2.72499993E-02   1.96402374E-11
  -2.72000004E-02   1.77368554E-11
  -2.71499995E-02   1.54183680E-11
  -2.71000005E-02   1.19755230E-11
  -2.70499997E-02   7.03109706E-12
  -2.70000007E-02   7.18554231E-13
  -2.69499999E-02  -6.36114121E-12
  -2.69000009E-02  -1.33920028E-11
  -2.68500000E-02  -1.96982482E-11
  -2.67999992E-02  -2.50465239E-11
  -2.67500002E-02  -2.97583798E-11
  -2.66999993E-02  -3.45770218E-11
  -2.66500004E-02  -4.03405608E-11
  -2.65999995E-02  -4.76021410E-11
  -2.65500005E-02  -5.63651556E-11
  -2.64999997E-02  -6.60551960E-11
  -2.64500007E-02  -7.57481994E-11
  -2.63999999E-02  -8.45601436E-11
  -2.63500009E-02  -9.20287804E-11
  -2.63000000E-02  -9.83166118E-11
  -2.62499992E-02  -1.04139239E-10
  -2.62000002E-02  -1.10443356E-10
  -2.61499994E-02  -1.17971202E-10
  -2.61000004E-02  -1.26902683E-10
  -2.60499995E-02  -1.36737427E-10
  -2.60000005E-02  -1.46475623E-10
  -2.59499997E-02  -1.55025548E-10
  -2.59000007E-02  -1.61661434E-10
  -2.58499999E-02  -1.66329089E-10
  -2.58000009E-02  -1.69658398E-10
  -2.57500000E-02  -1.72669476E-10
  -2.56999992E-02  -1.76295534E-10
  -2.56500002E-02  -1.80930756E-10
  -2.55999994E-02  -1.86205579E-10
  -2.55500004E-02  -1.91095931E-10
  -2.54999995E-02  -1.94326319E-10
  -2.54500005E-02  -1.94894878E-10
  -2.53999997E-02  -1.92489177E-10
  -2.53500007E-02  -1.87604751E-10
  -2.52999999E-02  -1.81306095E-10
  -2.52500009E-02  -1.74727594E-10
  -2.52000000E-02  -1.68530634E-10
  -2.51499992E-02  -1.62557662E-10
  -2.51000002E-02  -1.55842186E-10
  -2.50499994E-02  -1.46978971E-10
  -2.50000004E-02  -1.34698058E-10
  -2.49499995E-02  -1.18391755E-10
  -2.49000005E-02  -9.83590501E-11
  -2.48499997E-02  -7.56517349E-11
  -2.48000007E-02  -5.15819921E-11
  -2.47499999E-02  -2.71028824E-11
  -2.47000009E-02  -2.33503776E-12
  -2.46500000E-02   2.35465120E-11
  -2.45999992E-02   5.20067010E-11
  -2.45500002E-02   8.45527814E-11
  -2.44999994E-02   1.22104216E-10
  -2.44500004E-02   1.64609729E-10
  -2.43999995E-02   2.11087259E-10
  -2.43500005E-02   2.60077848E-10
  -2.42999997E-02   3.10320353E-10
  -2.42500007E-02   3.61351199E-10
  -2.41999999E-02   4.13760970E-10
  -2.41500009E-02   4.68986627E-10
  -2.41000000E-02   5.28722566E-10
  -2.40499992E-02   5.94204463E-10
  -2.40000002E-02   6.65682676E-10
  -2.39499994E-02   7.42322703E-10
  -2.39000004E-02   8.22585444E-10
  -2.38499995E-02   9.04927633E-10
  -2.38000005E-02   9.88517046E-10
  -2.37499997E-02   1.07364495E-09
  -2.37000007E-02   1.16164600E-09
  -2.36499999E-02   1.25435295E-09
  -2.36000009E-02   1.35331824E-09
  -2.35500000E-02   1.45914514E-09
  -2.34999992E-02   1.57122670E-09
  -2.34500002E-02   1.68801684E-09
  -2.33999994E-02   1.80772119E-09
  -2.33500004E-02   1.92911043E-09
  -2.32999995E-02   2.05209538E-09
  -2.32500006E-02   2.17780660E-09
  -2.31999997E-02   2.30813280E-09
  -2.31500007E-02   2.44491649E-09
  -2.30999999E-02   2.58915422E-09
  -2.30500009E-02   2.74056156E-09
  -2.30000000E-02   2.89769564E-09
  -2.29499992E-02   3.05859515E-09
  -2.29000002E-02   3.22165938E-09
  -2.28499994E-02   3.38638007E-09
  -2.28000004E-02   3.55360297E-09
  -2.27499995E-02   3.72519149E-09
  -2.27000006E-02   3.90323684E-09
  -2.26499997E-02   4.08915479E-09
  -2.26000007E-02   4.28306901E-09
  -2.25499999E-02   4.48375825E-09
  -2.25000009E-02   4.68919792E-09
  -2.24500000E-02   4.89746466E-09
  -2.23999992E-02   5.10761122E-09
  -2.23500002E-02   5.32011901E-09
  -2.22999994E-02   5.53672796E-09
  -2.22500004E-02   5.75970782E-09
  -2.21999995E-02   5.99088823E-09
  -2.21500006E-02   6.23087182E-09
  -2.20999997E-02   6.47878196E-09
  -2.20500007E-02   6.73266554E-09
  -2.19999999E-02   6.99037628E-09
  -2.19500009E-02   7.25055971E-09
  -2.19000001E-02   7.51330109E-09
  -2.18499992E-02   7.78014630E-09
  -2.18000002E-02   8.05348499E-09
  -2.17499994E-02   8.33555358E-09
  -2.17000004E-02   8.62750049E-09
  -2.16499995E-02   8.92891805E-09
  -2.16000006E-02   9.23806898E-09
  -2.15499997E-02   9.55269819E-09
  -2.15000007E-02   9.87108617E-09
  -2.14499999E-02   1.01928839E-08
  -2.14000009E-02   1.05193525E-08
  -2.13500001E-02   1.08529088E-08
  -2.12999992E-02   1.11961462E-08
  -2.12500002E-02   1.15507888E-08
  -2.11999994E-02   1.19170078E-08
  -2.11500004E-02   1.22934347E-08
  -2.10999995E-02   1.26778463E-08
  -2.10500006E-02   1.30682407E-08
  -2.09999997E-02   1.34638345E-08
  -2.09500007E-02   1.38655354E-08
  -2.08999999E-02   1.42756731E-08
  -2.08500009E-02   1.46971253E-08
  -2.08000001E-02   1.51321835E-08
  -2.07499992E-02   1.55816799E-08
  -2.07000002E-02   1.60447602E-08
  -2.06499994E-02   1.65193832E-08
  -2.06000004E-02   1.70033729E-08
  -2.05499995E-02   1.74955215E-08
  -2.05000006E-02   1.79962996E-08
  -2.04499997E-02   1.85078228E-08
  -2.04000007E-02   1.90331111E-08
  -2.03499999E-02   1.95749461E-08
  -2.03000009E-02   2.01348342E-08
  -2.02500001E-02   2.07125286E-08
  -2.01999992E-02   2.13063167E-08
  -2.01500002E-02   2.19139675E-08
  -2.00999994E-02   2.25339125E-08
  -2.00500004E-02   2.31661463E-08
  -1.99999996E-02   2.38124631E-08
  -1.99500006E-02   2.44759022E-08
  -1.98999997E-02   2.51596504E-08
  -1.98500007E-02   2.58658837E-08
  -1.97999999E-02   2.65950479E-08
  -1.97500009E-02   2.73458980E-08
  -1.97000001E-02   2.81162791E-08
  -1.96499992E-02   2.89043260E-08
  -1.96000002E-02   2.97095362E-08
  -1.95499994E-02   3.05332613E-08
  -1.95000004E-02   3.13784021E-08
  -1.94499996E-02   3.22484119E-08
  -1.94000006E-02   3.31460868E-08
  -1.93499997E-02   3.40726061E-08
  -1.93000007E-02   3.50273233E-08
  -1.92499999E-02   3.60083057E-08
  -1.92000009E-02   3.70135105E-08
  -1.91500001E-02   3.80419571E-08
  -1.90999992E-02   3.90944805E-08
  -1.90500002E-02   4.01737097E-08
  -1.89999994E-02   4.12832364E-08
  -1.89500004E-02   4.24263966E-08
  -1.88999996E-02   4.36051444E-08
  -1.88500006E-02   4.48195543E-08
  -1.87999997E-02   4.60681058E-08
  -1.87500007E-02   4.73487241E-08
  -1.86999999E-02   4.86600236E-08
  -1.86500009E-02   5.00022779E-08
  -1.86000001E-02   5.13776932E-08
  -1.85499992E-02   5.27898223E-08
  -1.85000002E-02   5.42424026E-08
  -1.84499994E-02   5.57381199E-08
  -1.84000004E-02   5.72778553E-08
  -1.83499996E-02   5.88606568E-08
  -1.83000006E-02   6.04846022E-08
  -1.82499997E-02   6.21480254E-08
  -1.82000007E-02   6.38506847E-08
  -1.81499999E-02   6.55942785E-08
  -1.81000009E-02   6.73821958E-08
  -1.80500001E-02   6.92184727E-08
  -1.79999992E-02   7.11064914E-08
  -1.79500002E-02   7.30479996E-08
  -1.78999994E-02   7.50427986E-08
  -1.78500004E-02   7.70893180E-08
  -1.77999996E-02   7.91858099E-08
  -1.77500006E-02   8.13315708E-08
  -1.76999997E-02   8.35277945E-08
  -1.76500008E-02   8.57775788E-08
  -1.75999999E-02   8.80851161E-08
  -1.75500009E-02   9.04544351E-08
  -1.75000001E-02   9.28881789E-08
  -1.74499992E-02   9.53870440E-08
  -1.74000002E-02   9.79500570E-08
  -1.73499994E-02   1.00575569E-07
  -1.73000004E-02   1.03262565E-07
  -1.72499996E-02   1.06011747E-07
  -1.72000006E-02   1.08825859E-07
  -1.71499997E-02   1.11709149E-07
  -1.71000008E-02   1.14666207E-07
  -1.70499999E-02   1.17700644E-07
  -1.70000009E-02   1.20814235E-07
  -1.69500001E-02   1.24006817E-07
  -1.68999992E-02   1.27277133E-07
  -1.68500002E-02   1.30624045E-07
  -1.67999994E-02   1.34047880E-07
  -1.67500004E-02   1.37550941E-07
  -1.66999996E-02   1.41137434E-07
  -1.66500006E-02   1.44812375E-07
  -1.65999997E-02   1.48580270E-07
  -1.65500008E-02   1.52443988E-07
  -1.64999999E-02   1.56404454E-07
  -1.64500009E-02   1.60460985E-07
  -1.64000001E-02   1.64612615E-07
  -1.63499992E-02   1.68859316E-07
  -1.63000003E-02   1.73203034E-07
  -1.62499994E-02   1.77647763E-07
  -1.62000004E-02   1.82198818E-07
  -1.61499996E-02   1.86861513E-07
  -1.61000006E-02   1.91639913E-07
  -1.60499997E-02   1.96536092E-07
  -1.60000008E-02   2.01550222E-07
  -1.59499999E-02   2.06681676E-07
  -1.59000009E-02   2.11930299E-07
  -1.58500001E-02   2.17297639E-07
  -1.57999992E-02   2.22787435E-07
  -1.57500003E-02   2.28405071E-07
  -1.56999994E-02   2.34156545E-07
  -1.56500004E-02   2.40047029E-07
  -1.55999996E-02   2.46079821E-07
  -1.55499997E-02   2.52256086E-07
  -1.54999997E-02   2.58575767E-07
  -1.54499998E-02   2.65038693E-07
  -1.53999999E-02   2.71646030E-07
  -1.53500000E-02   2.78401103E-07
  -1.53000001E-02   2.85309341E-07
  -1.52500002E-02   2.92377166E-07
  -1.52000003E-02   2.99610861E-07
  -1.51500003E-02   3.07014886E-07
  -1.51000004E-02   3.14591659E-07
  -1.50499996E-02   3.22341833E-07
  -1.49999997E-02   3.30265351E-07
  -1.49499997E-02   3.38363122E-07
  -1.48999998E-02   3.46638046E-07
  -1.48499999E-02   3.55095267E-07
  -1.48000000E-02   3.63741606E-07
  -1.47500001E-02   3.72584083E-07
  -1.47000002E-02   3.81628467E-07
  -1.46500003E-02   3.90878427E-07
  -1.46000003E-02   4.00335438E-07
  -1.45500004E-02   4.09999956E-07
  -1.44999996E-02   4.19872606E-07
  -1.44499997E-02   4.29955861E-07
  -1.43999998E-02   4.40254581E-07
  -1.43499998E-02   4.50775673E-07
  -1.42999999E-02   4.61526753E-07
  -1.42500000E-02   4.72514785E-07
  -1.42000001E-02   4.83744600E-07
  -1.41500002E-02   4.95218899E-07
  -1.41000003E-02   5.06938648E-07
  -1.40500003E-02   5.18904585E-07
  -1.40000004E-02   5.31118758E-07
  -1.39499996E-02   5.43585656E-07
  -1.38999997E-02   5.56311988E-07
  -1.38499998E-02   5.69305882E-07
  -1.37999998E-02   5.82575240E-07
  -1.37499999E-02   5.96126426E-07
  -1.37000000E-02   6.09963138E-07
  -1.36500001E-02   6.24087193E-07
  -1.36000002E-02   6.38499444E-07
  -1.35500003E-02   6.53201710E-07
  -1.35000004E-02   6.68197970E-07
  -1.34500004E-02   6.83494761E-07
  -1.33999996E-02   6.99100553E-07
  -1.33499997E-02   7.15024214E-07
  -1.32999998E-02   7.31273246E-07
  -1.32499998E-02   7.47852823E-07
  -1.31999999E-02   7.64765559E-07
  -1.31500000E-02   7.82012933E-07
  -1.31000001E-02   7.99596535E-07
  -1.30500002E-02   8.17520004E-07
  -1.30000003E-02   8.35789592E-07
  -1.29500004E-02   8.54413940E-07
  -1.29000004E-02   8.73402598E-07
  -1.28499996E-02   8.92764433E-07
  -1.27999997E-02   9.12505925E-07
  -1.27499998E-02   9.32631110E-07
  -1.26999998E-02   9.53141921E-07
  -1.26499999E-02   9.74040063E-07
  -1.26000000E-02   9.95328946E-07
  -1.25500001E-02   1.01701426E-06
  -1.25000002E-02   1.03910509E-06
  -1.24500003E-02   1.06161133E-06
  -1.24000004E-02   1.08454310E-06
  -1.23500004E-02   1.10790791E-06
  -1.22999996E-02   1.13171143E-06
  -1.22499997E-02   1.15595628E-06
  -1.21999998E-02   1.18064497E-06
  -1.21499998E-02   1.20578034E-06
  -1.20999999E-02   1.23136840E-06
  -1.20500000E-02   1.25741769E-06
  -1.20000001E-02   1.28393913E-06
  -1.19500002E-02   1.31094350E-06
  -1.19000003E-02   1.33844003E-06
  -1.18500004E-02   1.36643541E-06
  -1.18000004E-02   1.39493352E-06
  -1.17499996E-02   1.42393696E-06
  -1.16999997E-02   1.45344859E-06
  -1.16499998E-02   1.48347374E-06
  -1.15999999E-02   1.51402082E-06
  -1.15499999E-02   1.54510076E-06
  -1.15000000E-02   1.57672559E-06
  -1.14500001E-02   1.60890602E-06
  -1.14000002E-02   1.64165010E-06
  -1.13500003E-02   1.67496296E-06
  -1.13000004E-02   1.70884800E-06
  -1.12500004E-02   1.74330853E-06
  -1.11999996E-02   1.77834920E-06
  -1.11499997E-02   1.81397843E-06
  -1.10999998E-02   1.85020701E-06
  -1.10499999E-02   1.88704723E-06
  -1.09999999E-02   1.92451080E-06
  -1.09500000E-02   1.96260680E-06
  -1.09000001E-02   2.00134173E-06
  -1.08500002E-02   2.04071875E-06
  -1.08000003E-02   2.08074084E-06
  -1.07500004E-02   2.12141299E-06
  -1.07000005E-02   2.16274248E-06
  -1.06499996E-02   2.20474021E-06
  -1.05999997E-02   2.24741916E-06
  -1.05499998E-02   2.29079160E-06
  -1.04999999E-02   2.33486867E-06
  -1.04499999E-02   2.37965719E-06
  -1.04000000E-02   2.42516148E-06
  -1.03500001E-02   2.47138496E-06
  -1.03000002E-02   2.51833148E-06
  -1.02500003E-02   2.56600788E-06
  -1.02000004E-02   2.61442460E-06
  -1.01500005E-02   2.66359393E-06
  -1.00999996E-02   2.71352860E-06
  -1.00499997E-02   2.76423998E-06
  -9.99999978E-03   2.81573625E-06
  -9.94999986E-03   2.86802197E-06
  -9.89999995E-03   2.92110008E-06
  -9.85000003E-03   2.97497400E-06
  -9.80000012E-03   3.02964918E-06
  -9.75000020E-03   3.08513495E-06
  -9.70000029E-03   3.14144290E-06
  -9.65000037E-03   3.19858668E-06
  -9.60000046E-03   3.25657743E-06
  -9.54999961E-03   3.31542378E-06
  -9.49999969E-03   3.37513097E-06
  -9.44999978E-03   3.43570241E-06
  -9.39999986E-03   3.49713991E-06
  -9.34999995E-03   3.55944871E-06
  -9.30000003E-03   3.62263631E-06
  -9.25000012E-03   3.68671385E-06
  -9.20000020E-03   3.75169429E-06
  -9.15000029E-03   3.81758946E-06
  -9.10000037E-03   3.88440867E-06
  -9.05000046E-03   3.95215602E-06
  -8.99999961E-03   4.02083379E-06
  -8.94999970E-03   4.09044333E-06
  -8.89999978E-03   4.16098646E-06
  -8.84999987E-03   4.23247002E-06
  -8.79999995E-03   4.30490263E-06
  -8.75000004E-03   4.37829567E-06
  -8.70000012E-03   4.45266096E-06
  -8.65000021E-03   4.52800759E-06
  -8.60000029E-03   4.60433921E-06
  -8.55000038E-03   4.68165717E-06
  -8.50000046E-03   4.75996194E-06
  -8.44999962E-03   4.83925305E-06
  -8.39999970E-03   4.91953506E-06
  -8.34999979E-03   5.00081569E-06
  -8.29999987E-03   5.08310541E-06
  -8.24999996E-03   5.16641421E-06
  -8.20000004E-03   5.25074984E-06
  -8.15000013E-03   5.33611637E-06
  -8.10000021E-03   5.42251428E-06
  -8.05000030E-03   5.50994082E-06
  -8.00000038E-03   5.59839418E-06
  -7.95000046E-03   5.68787664E-06
  -7.89999962E-03   5.77839091E-06
  -7.84999970E-03   5.86994565E-06
  -7.79999979E-03   5.96254904E-06
  -7.74999987E-03   6.05620789E-06
  -7.69999996E-03   6.15092358E-06
  -7.65000004E-03   6.24669474E-06
  -7.60000013E-03   6.34351636E-06
  -7.55000021E-03   6.44138436E-06
  -7.49999983E-03   6.54029463E-06
  -7.44999992E-03   6.64024947E-06
  -7.40000000E-03   6.74125340E-06
  -7.35000009E-03   6.84331235E-06
  -7.30000017E-03   6.94643131E-06
  -7.24999979E-03   7.05061075E-06
  -7.19999988E-03   7.15584702E-06
  -7.14999996E-03   7.26213284E-06
  -7.10000005E-03   7.36945867E-06
  -7.05000013E-03   7.47781814E-06
  -7.00000022E-03   7.58720898E-06
  -6.94999984E-03   7.69763028E-06
  -6.89999992E-03   7.80908522E-06
  -6.85000001E-03   7.92157607E-06
  -6.80000009E-03   8.03510102E-06
  -6.75000018E-03   8.14965369E-06
  -6.69999979E-03   8.26522046E-06
  -6.64999988E-03   8.38179130E-06
  -6.59999996E-03   8.49935259E-06
  -6.55000005E-03   8.61789522E-06
  -6.50000013E-03   8.73741647E-06
  -6.45000022E-03   8.85791178E-06
  -6.39999984E-03   8.97938116E-06
  -6.34999992E-03   9.10181916E-06
  -6.30000001E-03   9.22521485E-06
  -6.25000009E-03   9.34955278E-06
  -6.20000018E-03   9.47481385E-06
  -6.14999980E-03   9.60098077E-06
  -6.09999988E-03   9.72803900E-06
  -6.04999997E-03   9.85597762E-06
  -6.00000005E-03   9.98479118E-06
  -5.95000014E-03   1.01144715E-05
  -5.90000022E-03   1.02450113E-05
  -5.84999984E-03   1.03763941E-05
  -5.79999993E-03   1.05085983E-05
  -5.75000001E-03   1.06416019E-05
  -5.70000010E-03   1.07753785E-05
  -5.65000018E-03   1.09099065E-05
  -5.59999980E-03   1.10451674E-05
  -5.54999989E-03   1.11811496E-05
  -5.49999997E-03   1.13178394E-05
  -5.45000006E-03   1.14552222E-05
  -5.40000014E-03   1.15932771E-05
  -5.35000023E-03   1.17319787E-05
  -5.29999984E-03   1.18712933E-05
  -5.24999993E-03   1.20111890E-05
  -5.20000001E-03   1.21516368E-05
  -5.15000010E-03   1.22926094E-05
  -5.10000018E-03   1.24340868E-05
  -5.04999980E-03   1.25760507E-05
  -4.99999989E-03   1.27184785E-05
  -4.94999997E-03   1.28613456E-05
  -4.90000006E-03   1.30046174E-05
  -4.85000014E-03   1.31482548E-05
  -4.80000023E-03   1.32922169E-05
  -4.74999985E-03   1.34364655E-05
  -4.69999993E-03   1.35809651E-05
  -4.65000002E-03   1.37256866E-05
  -4.60000010E-03   1.38706018E-05
  -4.55000019E-03   1.40156835E-05
  -4.49999981E-03   1.41608962E-05
  -4.44999989E-03   1.43061980E-05
  -4.39999998E-03   1.44515434E-05
  -4.35000006E-03   1.45968816E-05
  -4.30000015E-03   1.47421615E-05
  -4.25000023E-03   1.48873423E-05
  -4.19999985E-03   1.50323804E-05
  -4.14999994E-03   1.51772383E-05
  -4.10000002E-03   1.53218825E-05
  -4.05000011E-03   1.54662703E-05
  -4.00000019E-03   1.56103506E-05
  -3.94999981E-03   1.57540671E-05
  -3.89999989E-03   1.58973598E-05
  -3.84999998E-03   1.60401669E-05
  -3.80000006E-03   1.61824337E-05
  -3.74999992E-03   1.63241075E-05
  -3.70000000E-03   1.64651428E-05
  -3.65000009E-03   1.66054961E-05
  -3.59999994E-03   1.67451144E-05
  -3.55000002E-03   1.68839379E-05
  -3.50000011E-03   1.70219027E-05
  -3.44999996E-03   1.71589345E-05
  -3.40000005E-03   1.72949622E-05
  -3.34999990E-03   1.74299166E-05
  -3.29999998E-03   1.75637342E-05
  -3.25000007E-03   1.76963604E-05
  -3.19999992E-03   1.78277332E-05
  -3.15000000E-03   1.79577946E-05
  -3.10000009E-03   1.80864754E-05
  -3.04999994E-03   1.82136991E-05
  -3.00000003E-03   1.83393822E-05
  -2.95000011E-03   1.84634373E-05
  -2.89999996E-03   1.85857843E-05
  -2.85000005E-03   1.87063451E-05
  -2.79999990E-03   1.88250506E-05
  -2.74999999E-03   1.89418315E-05
  -2.70000007E-03   1.90566188E-05
  -2.64999992E-03   1.91693325E-05
  -2.60000001E-03   1.92798889E-05
  -2.55000009E-03   1.93881897E-05
  -2.49999994E-03   1.94941349E-05
  -2.45000003E-03   1.95976245E-05
  -2.40000011E-03   1.96985711E-05
  -2.34999997E-03   1.97968875E-05
  -2.30000005E-03   1.98924990E-05
  -2.24999990E-03   1.99853221E-05
  -2.19999999E-03   2.00752711E-05
  -2.15000007E-03   2.01622461E-05
  -2.09999993E-03   2.02461379E-05
  -2.05000001E-03   2.03268301E-05
  -2.00000009E-03   2.04042099E-05
  -1.94999995E-03   2.04781718E-05
  -1.90000003E-03   2.05486158E-05
  -1.85000000E-03   2.06154491E-05
  -1.79999997E-03   2.06785808E-05
  -1.75000005E-03   2.07379144E-05
  -1.70000002E-03   2.07933390E-05
  -1.64999999E-03   2.08447309E-05
  -1.59999996E-03   2.08919628E-05
  -1.55000004E-03   2.09349055E-05
  -1.50000001E-03   2.09734371E-05
  -1.44999998E-03   2.10074413E-05
  -1.39999995E-03   2.10368125E-05
  -1.35000004E-03   2.10614526E-05
  -1.30000000E-03   2.10812468E-05
  -1.24999997E-03   2.10960789E-05
  -1.20000006E-03   2.11058159E-05
  -1.15000003E-03   2.11103143E-05
  -1.09999999E-03   2.11094302E-05
  -1.04999996E-03   2.11030219E-05
  -1.00000005E-03   2.10909639E-05
  -9.50000016E-04   2.10731305E-05
  -8.99999985E-04   2.10494109E-05
  -8.50000011E-04   2.10196813E-05
  -7.99999980E-04   2.09838163E-05
  -7.50000007E-04   2.09416685E-05
  -6.99999975E-04   2.08930851E-05
  -6.50000002E-04   2.08379024E-05
  -6.00000028E-04   2.07759676E-05
  -5.49999997E-04   2.07071316E-05
  -5.00000024E-04   2.06312634E-05
  -4.49999992E-04   2.05482302E-05
  -3.99999990E-04   2.04579082E-05
  -3.49999988E-04   2.03601594E-05
  -3.00000014E-04   2.02548290E-05
  -2.50000012E-04   2.01417533E-05
  -1.99999995E-04   2.00207596E-05
  -1.50000007E-04   1.98916714E-05
  -9.99999975E-05   1.97543268E-05
  -4.99999987E-05   1.96085821E-05
   0.00000000       1.94542936E-05
   4.99999987E-05   1.92913285E-05
   9.99999975E-05   1.91195377E-05
   1.50000007E-04   1.89387629E-05
   1.99999995E-04   1.87488295E-05
   2.50000012E-04   1.85495519E-05
   3.00000014E-04   1.83407428E-05
   3.49999988E-04   1.81222222E-05
   3.99999990E-04   1.78938299E-05
   4.49999992E-04   1.76554113E-05
   5.00000024E-04   1.74068227E-05
   5.49999997E-04   1.71479169E-05
   6.00000028E-04   1.68785282E-05
   6.50000002E-04   1.65984766E-05
   6.99999975E-04   1.63075638E-05
   7.50000007E-04   1.60055915E-05
   7.99999980E-04   1.56923688E-05
   8.50000011E-04   1.53677211E-05
   8.99999985E-04   1.50314863E-05
   9.50000016E-04   1.46835173E-05
   1.00000005E-03   1.43236584E-05
   1.04999996E-03   1.39517415E-05
   1.09999999E-03   1.35675818E-05
   1.15000003E-03   1.31709785E-05
   1.20000006E-03   1.27617241E-05
   1.24999997E-03   1.23396203E-05
   1.30000000E-03   1.19044780E-05
   1.35000004E-03   1.14561280E-05
   1.39999995E-03   1.09944112E-05
   1.44999998E-03   1.05191712E-05
   1.50000001E-03   1.00302423E-05
   1.55000004E-03   9.52744176E-06
   1.59999996E-03   9.01056865E-06
   1.64999999E-03   8.47941192E-06
   1.70000002E-03   7.93376148E-06
   1.75000005E-03   7.37341861E-06
   1.79999997E-03   6.79820823E-06
   1.85000000E-03   6.20796618E-06
   1.90000003E-03   5.60253784E-06
   1.94999995E-03   4.98176132E-06
   2.00000009E-03   4.34546064E-06
   2.05000001E-03   3.69343661E-06
   2.09999993E-03   3.02548005E-06
   2.15000007E-03   2.34137747E-06
   2.19999999E-03   1.64092751E-06
   2.24999990E-03   9.23947653E-07
   2.30000005E-03   1.90274463E-07
   2.34999997E-03  -5.60244814E-07
   2.40000011E-03  -1.32776574E-06
   2.45000003E-03  -2.11245629E-06
   2.49999994E-03  -2.91450488E-06
   2.55000009E-03  -3.73411672E-06
   2.60000001E-03  -4.57150327E-06
   2.64999992E-03  -5.42686621E-06
   2.70000007E-03  -6.30039040E-06
   2.74999999E-03  -7.19223908E-06
   2.79999990E-03  -8.10255915E-06