  -3.99999991E-02   0.00000000    
  -3.99499983E-02   0.00000000    
  -3.99000011E-02   0.00000000    
  -3.98500003E-02   0.00000000    
  -3.97999994E-02   9.23269635E-19
  -3.97499986E-02   1.05932629E-17
  -3.97000015E-02   6.33557086E-17
  -3.96500006E-02   2.61832866E-16
  -3.95999998E-02   8.36394796E-16
  -3.95499989E-02   2.19095893E-15
  -3.95000018E-02   4.87742196E-15
  -3.94500010E-02   9.44426320E-15
  -3.94000001E-02   1.61627032E-14
  -3.93499993E-02   2.47402264E-14
  -3.92999984E-02   3.42309426E-14
  -3.92500013E-02   4.33550663E-14
  -3.92000005E-02   5.12761051E-14
  -3.91499996E-02   5.85799990E-14
  -3.90999988E-02   6.79098366E-14
  -3.90500017E-02   8.36597637E-14
  -3.90000008E-02   1.10473113E-13
  -3.89500000E-02   1.50950257E-13
  -3.88999991E-02   2.03629458E-13
  -3.88499983E-02   2.62527223E-13
  -3.88000011E-02   3.19036627E-13
  -3.87500003E-02   3.65864050E-13
  -3.86999995E-02   4.01412437E-13
  -3.86499986E-02   4.32275445E-13
  -3.86000015E-02   4.71863705E-13
  -3.85500006E-02   5.34757622E-13
  -3.84999998E-02   6.28638580E-13
  -3.84499989E-02   7.47517499E-13
  -3.84000018E-02   8.70264906E-13
  -3.83500010E-02   9.66566345E-13
  -3.83000001E-02   1.00889956E-12
  -3.82499993E-02   9.85606345E-13
  -3.81999984E-02   9.08587929E-13
  -3.81500013E-02   8.10791972E-13
  -3.81000005E-02   7.33090021E-13
  -3.80499996E-02   7.05385620E-13
  -3.79999988E-02   7.30266975E-13
  -3.79500017E-02   7.77277006E-13
  -3.79000008E-02   7.91651521E-13
  -3.78500000E-02   7.14822190E-13
  -3.77999991E-02   5.08037731E-13
  -3.77499983E-02   1.68176671E-13
  -3.77000012E-02  -2.72238585E-13
  -3.76500003E-02  -7.61624867E-13
  -3.75999995E-02  -1.25520113E-12
  -3.75499986E-02  -1.73800611E-12
  -3.75000015E-02  -2.23411827E-12
  -3.74500006E-02  -2.79774316E-12
  -3.73999998E-02  -3.49039591E-12
  -3.73499990E-02  -4.35449506E-12
  -3.73000018E-02  -5.39439283E-12
  -3.72500010E-02  -6.57148858E-12
  -3.72000001E-02  -7.81341832E-12
  -3.71499993E-02  -9.03195747E-12
  -3.70999984E-02  -1.01427564E-11
  -3.70500013E-02  -1.10823390E-11
  -3.70000005E-02  -1.18214891E-11
  -3.69499996E-02  -1.23760776E-11
  -3.68999988E-02  -1.28141629E-11
  -3.68500017E-02  -1.32532908E-11
  -3.68000008E-02  -1.38386941E-11
  -3.67500000E-02  -1.46972365E-11
  -3.66999991E-02  -1.58746818E-11
  -3.66499983E-02  -1.72801183E-11
  -3.66000012E-02  -1.86705772E-11
  -3.65500003E-02  -1.97009128E-11
  -3.64999995E-02  -2.00373659E-11
  -3.64499986E-02  -1.94972684E-11
  -3.64000015E-02  -1.81506424E-11
  -3.63500006E-02  -1.63202819E-11
  -3.62999998E-02  -1.44531652E-11
  -3.62499990E-02  -1.28973733E-11
  -3.62000018E-02  -1.16790631E-11
  -3.61500010E-02  -1.03995970E-11
  -3.61000001E-02  -8.33968398E-12
  -3.60499993E-02  -4.76798722E-12
  -3.59999985E-02   6.59527879E-13
  -3.59500013E-02   7.60055040E-12
  -3.59000005E-02   1.50115302E-11
  -3.58499996E-02   2.14933592E-11
  -3.57999988E-02   2.59022370E-11
  -3.57500017E-02   2.79710404E-11
  -3.57000008E-02   2.86265386E-11
  -3.56500000E-02   2.97780238E-11
  -3.55999991E-02   3.35761627E-11
  -3.55499983E-02   4.14088902E-11
  -3.55000012E-02   5.30851821E-11
  -3.54500003E-02   6.66475208E-11
  -3.53999995E-02   7.90180213E-11
  -3.53499986E-02   8.73001255E-11
  -3.53000015E-02   9.01972316E-11
  -3.52500007E-02   8.88588716E-11
  -3.51999998E-02   8.66383423E-11
  -3.51499990E-02   8.77067793E-11
  -3.51000018E-02   9.50319684E-11
  -3.50500010E-02   1.08627968E-10
  -3.50000001E-02   1.24989269E-10
  -3.49499993E-02   1.38177109E-10
  -3.48999985E-02   1.42279299E-10
  -3.48500013E-02   1.34244754E-10
  -3.48000005E-02   1.15759347E-10
  -3.47499996E-02   9.31047114E-11
  -3.46999988E-02   7.47801612E-11
  -3.46500017E-02   6.77330275E-11
  -3.46000008E-02   7.38394276E-11
  -3.45500000E-02   8.83764104E-11
  -3.44999991E-02   1.01482635E-10
  -3.44499983E-02   1.02276861E-10
  -3.44000012E-02   8.39682421E-11
  -3.43500003E-02   4.76022451E-11
  -3.42999995E-02   2.45926998E-12
  -3.42499986E-02  -3.74913607E-11
  -3.42000015E-02  -5.98342348E-11
  -3.41500007E-02  -5.99377284E-11
  -3.40999998E-02  -4.41419991E-11
  -3.40499990E-02  -2.79937150E-11
  -3.40000018E-02  -2.97956382E-11
  -3.39500010E-02  -6.20430027E-11
  -3.39000002E-02  -1.24639146E-10
  -3.38499993E-02  -2.03366324E-10
  -3.37999985E-02  -2.74940626E-10
  -3.37500013E-02  -3.16954130E-10
  -3.37000005E-02  -3.18472165E-10
  -3.36499996E-02  -2.86283608E-10
  -3.35999988E-02  -2.43357362E-10
  -3.35500017E-02  -2.19434096E-10
  -3.35000008E-02  -2.37446451E-10
  -3.34500000E-02  -3.01837805E-10
  -3.33999991E-02  -3.94557748E-10
  -3.33499983E-02  -4.81417184E-10
  -3.33000012E-02  -5.26790611E-10
  -3.32500003E-02  -5.10459952E-10
  -3.31999995E-02  -4.38764608E-10
  -3.31499986E-02  -3.44181572E-10
  -3.31000015E-02  -2.72418865E-10
  -3.30500007E-02  -2.61968058E-10
  -3.29999998E-02  -3.25116462E-10
  -3.29499990E-02  -4.39560111E-10
  -3.29000019E-02  -5.55566870E-10
  -3.28500010E-02  -6.16710960E-10
  -3.28000002E-02  -5.85589688E-10
  -3.27499993E-02  -4.62817173E-10
  -3.26999985E-02  -2.89753777E-10
  -3.26500013E-02  -1.32311676E-10
  -3.26000005E-02  -5.19039915E-11
  -3.25499997E-02  -7.61947241E-11
  -3.24999988E-02  -1.83445342E-10
  -3.24500017E-02  -3.08955611E-10
  -3.24000008E-02  -3.72340409E-10
  -3.23500000E-02  -3.14438309E-10
  -3.22999991E-02  -1.27197627E-10
  -3.22499983E-02   1.38132936E-10
  -3.22000012E-02   3.90108501E-10
  -3.21500003E-02   5.36656275E-10
  -3.20999995E-02   5.28099953E-10
  -3.20499986E-02   3.83681587E-10
  -3.20000015E-02   1.87851762E-10
  -3.19500007E-02   5.57709885E-11
  -3.18999998E-02   8.18851098E-11
  -3.18499990E-02   2.94407165E-10
  -3.18000019E-02   6.37435105E-10
  -3.17500010E-02   9.91048243E-10
  -3.17000002E-02   1.22266686E-09
  -3.16499993E-02   1.24784660E-09
  -3.15999985E-02   1.07272846E-09
  -3.15500014E-02   7.97029387E-10
  -3.15000005E-02   5.73466108E-10
  -3.14499997E-02   5.39611800E-10
  -3.13999988E-02   7.52172991E-10
  -3.13500017E-02   1.15457022E-09
  -3.13000008E-02   1.59520952E-09
  -3.12500000E-02   1.89132066E-09
  -3.11999992E-02   1.91162486E-09
  -3.11500002E-02   1.64057212E-09
  -3.10999993E-02   1.19305721E-09
  -3.10500003E-02   7.69604047E-10
  -3.09999995E-02   5.69062408E-10
  -3.09500005E-02   6.96680602E-10
  -3.08999997E-02   1.10989407E-09
  -3.08500007E-02   1.62924330E-09
  -3.07999998E-02   2.01324113E-09
  -3.07500008E-02   2.06625161E-09
  -3.07000000E-02   1.73130343E-09
  -3.06499992E-02   1.12395571E-09
  -3.06000002E-02   4.88132534E-10
  -3.05499993E-02   8.99662775E-11
  -3.05000003E-02   9.53411933E-11
  -3.04499995E-02   4.86979235E-10
  -3.04000005E-02   1.06172371E-09
  -3.03499997E-02   1.51378998E-09
  -3.03000007E-02   1.57027136E-09
  -3.02499998E-02   1.11914011E-09
  -3.02000009E-02   2.70187178E-10
  -3.01500000E-02  -6.82893297E-10
  -3.00999992E-02  -1.38709044E-09
  -3.00500002E-02  -1.58849867E-09
  -2.99999993E-02  -1.25333932E-09
  -2.99500003E-02  -5.93900651E-10
  -2.98999995E-02   1.73742028E-11
  -2.98500005E-02   2.11726220E-10
  -2.97999997E-02  -2.05709588E-10
  -2.97500007E-02  -1.15737897E-09
  -2.96999998E-02  -2.31534925E-09
  -2.96500009E-02  -3.23968186E-09
  -2.96000000E-02  -3.57512264E-09
  -2.95499992E-02  -3.21845395E-09
  -2.95000002E-02  -2.37813347E-09
  -2.94499993E-02  -1.49362178E-09
  -2.94000003E-02  -1.04477171E-09
  -2.93499995E-02  -1.33356515E-09
  -2.93000005E-02  -2.33704500E-09
  -2.92499997E-02  -3.70213926E-09
  -2.92000007E-02  -4.89120433E-09
  -2.91499998E-02  -5.41843503E-09
  -2.91000009E-02  -5.07296205E-09
  -2.90500000E-02  -4.02599554E-09
  -2.89999992E-02  -2.76802270E-09
  -2.89500002E-02  -1.89756144E-09
  -2.88999993E-02  -1.85183113E-09
  -2.88500004E-02  -2.70008371E-09
  -2.87999995E-02  -4.09672296E-09
  -2.87500005E-02  -5.42225198E-09
  -2.86999997E-02  -6.05530914E-09
  -2.86500007E-02  -5.65675462E-09
  -2.85999998E-02  -4.33643921E-09
  -2.85500009E-02  -2.62166977E-09
  -2.85000000E-02  -1.23377963E-09
  -2.84499992E-02  -7.67129749E-10
  -2.84000002E-02  -1.41311618E-09
  -2.83499993E-02  -2.85681279E-09
  -2.83000004E-02  -4.40005365E-09
  -2.82499995E-02  -5.26353761E-09
  -2.82000005E-02  -4.93715291E-09
  -2.81499997E-02  -3.42083828E-09
  -2.81000007E-02  -1.24232524E-09
  -2.80499998E-02   7.64403429E-10
  -2.80000009E-02   1.82769233E-09
  -2.79500000E-02   1.59130642E-09
  -2.78999992E-02   2.90741292E-10
  -2.78500002E-02  -1.33374256E-09
  -2.77999993E-02  -2.35704722E-09
  -2.77500004E-02  -2.08468798E-09
  -2.76999995E-02  -3.78090392E-10
  -2.76500005E-02   2.26135444E-09
  -2.75999997E-02   4.89605112E-09
  -2.75500007E-02   6.56109611E-09
  -2.74999999E-02   6.69961198E-09
  -2.74500009E-02   5.42780887E-09
  -2.74000000E-02   3.50392826E-09
  -2.73499992E-02   2.00548622E-09
  -2.73000002E-02   1.85179794E-09
  -2.72499993E-02   3.38331851E-09
  -2.72000004E-02   6.19014839E-09
  -2.71499995E-02   9.27505095E-09
  -2.71000005E-02   1.14871588E-08
  -2.70499997E-02   1.20379076E-08
  -2.70000007E-02   1.08677458E-08
  -2.69499999E-02   8.69298500E-09
  -2.69000009E-02   6.70211930E-09
  -2.68500000E-02   6.02906880E-09
  -2.67999992E-02   7.23559790E-09
  -2.67500002E-02   1.00378053E-08
  -2.66999993E-02   1.34076723E-08
  -2.66500004E-02   1.60143490E-08
  -2.65999995E-02   1.68149636E-08
  -2.65500005E-02   1.55316400E-08
  -2.64999997E-02   1.27956783E-08
  -2.64500007E-02   9.88467708E-09
  -2.63999999E-02   8.16064905E-09
  -2.63500009E-02   8.45547632E-09
  -2.63000000E-02   1.06803801E-08
  -2.62499992E-02   1.38417908E-08
  -2.62000002E-02   1.64667657E-08
  -2.61499994E-02   1.72557009E-08
  -2.61000004E-02   1.56726028E-08
  -2.60499995E-02   1.22042003E-08
  -2.60000005E-02   8.16257462E-09
  -2.59499997E-02   5.10956211E-09
  -2.59000007E-02   4.15438750E-09
  -2.58499999E-02   5.43947154E-09
  -2.58000009E-02   8.05157274E-09
  -2.57500000E-02   1.04085300E-08
  -2.56999992E-02   1.09576890E-08
  -2.56500002E-02   8.87730600E-09
  -2.55999994E-02   4.46387283E-09
  -2.55500004E-02  -9.76560388E-10
  -2.54999995E-02  -5.69461944E-09
  -2.54500005E-02  -8.27501534E-09
  -2.53999997E-02  -8.27803071E-09
  -2.53500007E-02  -6.45229692E-09
  -2.52999999E-02  -4.41416637E-09
  -2.52500009E-02  -3.92843891E-09
  -2.52000000E-02  -6.10826634E-09
  -2.51499992E-02  -1.08949605E-08
  -2.51000002E-02  -1.70584897E-08
  -2.50499994E-02  -2.27280097E-08
  -2.50000004E-02  -2.62220841E-08
  -2.49499995E-02  -2.68079337E-08
  -2.49000005E-02  -2.50446188E-08
  -2.48499997E-02  -2.25475656E-08
  -2.48000007E-02  -2.12711058E-08
  -2.47499999E-02  -2.26260113E-08
  -2.47000009E-02  -2.68289870E-08
  -2.46500000E-02  -3.27824381E-08
  -2.45999992E-02  -3.85470358E-08
  -2.45500002E-02  -4.22015916E-08
  -2.44999994E-02  -4.27059703E-08
  -2.44500004E-02  -4.03758627E-08
  -2.43999995E-02  -3.67486059E-08
  -2.43500005E-02  -3.38929951E-08
  -2.42999997E-02  -3.34694121E-08
  -2.42500007E-02  -3.59641206E-08
  -2.41999999E-02  -4.04481959E-08
  -2.41500009E-02  -4.49773125E-08
  -2.41000000E-02  -4.74584390E-08
  -2.40499992E-02  -4.65947565E-08
  -2.40000002E-02  -4.24798010E-08
  -2.39499994E-02  -3.65665080E-08
  -2.39000004E-02  -3.10185762E-08
  -2.38499995E-02  -2.77330816E-08
  -2.38000005E-02  -2.74762719E-08
  -2.37499997E-02  -2.95271221E-08
  -2.37000007E-02  -3.19954374E-08
  -2.36499999E-02  -3.26749294E-08
  -2.36000009E-02  -3.00460172E-08
  -2.35500000E-02  -2.39715714E-08
  -2.34999992E-02  -1.57656679E-08
  -2.34500002E-02  -7.59998731E-09
  -2.33999994E-02  -1.51576363E-09
  -2.33500004E-02   1.50825485E-09
  -2.32999995E-02   2.00392747E-09
  -2.32500006E-02   1.76951309E-09
  -2.31999997E-02   3.04199443E-09
  -2.31500007E-02   7.46336415E-09
  -2.30999999E-02   1.53153721E-08
  -2.30500009E-02   2.53763535E-08
  -2.30000000E-02   3.54683678E-08
  -2.29499992E-02   4.34447429E-08
  -2.29000002E-02   4.81635958E-08
  -2.28499994E-02   4.99975989E-08
  -2.28000004E-02   5.06433686E-08
  -2.27499995E-02   5.23175245E-08
  -2.27000006E-02   5.67119649E-08
  -2.26499997E-02   6.41935927E-08
  -2.26000007E-02   7.36212442E-08
  -2.25499999E-02   8.28665563E-08
  -2.25000009E-02   8.97964938E-08
  -2.24500000E-02   9.32584712E-08
  -2.23999992E-02   9.36061397E-08
  -2.23500002E-02   9.25179933E-08
  -2.22999994E-02   9.21919678E-08
  -2.22500004E-02   9.42934619E-08
  -2.21999995E-02   9.91524089E-08
  -2.21500006E-02   1.05589770E-07
  -2.20999997E-02   1.11457744E-07
  -2.20500007E-02   1.14640414E-07
  -2.19999999E-02   1.14041775E-07
  -2.19500009E-02   1.10090518E-07
  -2.19000001E-02   1.04518335E-07
  -2.18499992E-02   9.95138478E-08
  -2.18000002E-02   9.66535225E-08
  -2.17499994E-02   9.61221858E-08
  -2.17000004E-02   9.66016955E-08
  -2.16499995E-02   9.58889217E-08
  -2.16000006E-02   9.19528631E-08
  -2.15499997E-02   8.39242631E-08
  -2.15000007E-02   7.25360039E-08
  -2.14499999E-02   5.97907288E-08
  -2.14000009E-02   4.80035425E-08
  -2.13500001E-02   3.86751395E-08
  -2.12999992E-02   3.17425908E-08
  -2.12500002E-02   2.55834554E-08
  -2.11999994E-02   1.77896204E-08
  -2.11500004E-02   6.35099484E-09
  -2.10999995E-02  -9.32154087E-09
  -2.10500006E-02  -2.80421233E-08
  -2.09999997E-02  -4.73608424E-08
  -2.09500007E-02  -6.47161968E-08
  -2.08999999E-02  -7.86829020E-08
  -2.08500009E-02  -8.97022190E-08
  -2.08000001E-02  -9.99132439E-08
  -2.07499992E-02  -1.12130579E-07
  -2.07000002E-02  -1.28436014E-07
  -2.06499994E-02  -1.49061876E-07
  -2.06000004E-02  -1.72129532E-07
  -2.05499995E-02  -1.94413602E-07
  -2.05000006E-02  -2.12806668E-07
  -2.04499997E-02  -2.25800221E-07
  -2.04000007E-02  -2.34257584E-07
  -2.03499999E-02  -2.41063901E-07
  -2.03000009E-02  -2.49767027E-07
  -2.02500001E-02  -2.62820492E-07
  -2.01999992E-02  -2.80265510E-07
  -2.01500002E-02  -2.99518717E-07
  -2.00999994E-02  -3.16428697E-07
  -2.00500004E-02  -3.27157750E-07
  -1.99999996E-02  -3.30020612E-07
  -1.99500006E-02  -3.26385873E-07
  -1.98999997E-02  -3.20151059E-07
  -1.98500007E-02  -3.15963945E-07
  -1.97999999E-02  -3.16977349E-07
  -1.97500009E-02  -3.23193206E-07
  -1.97000001E-02  -3.31224982E-07
  -1.96499992E-02  -3.35673604E-07
  -1.96000002E-02  -3.31548506E-07
  -1.95499994E-02  -3.16635095E-07
  -1.95000004E-02  -2.92674713E-07
  -1.94499996E-02  -2.64729067E-07
  -1.94000006E-02  -2.38932813E-07
  -1.93499997E-02  -2.19616794E-07
  -1.93000007E-02  -2.07135457E-07
  -1.92499999E-02  -1.97468140E-07
  -1.92000009E-02  -1.83879862E-07
  -1.91500001E-02  -1.59967712E-07
  -1.90999992E-02  -1.22723520E-07
  -1.90500002E-02  -7.41661310E-08
  -1.89999994E-02  -2.06982254E-08
  -1.89500004E-02   2.96320621E-08
  -1.88999996E-02   7.07853971E-08
  -1.88500006E-02   1.01630746E-07
  -1.87999997E-02   1.26690040E-07
  -1.87500007E-02   1.54266743E-07
  -1.86999999E-02   1.92703126E-07
  -1.86500009E-02   2.46423355E-07
  -1.86000001E-02   3.13601703E-07
  -1.85499992E-02   3.86623100E-07
  -1.85000002E-02   4.55257918E-07
  -1.84499994E-02   5.11200994E-07
  -1.84000004E-02   5.51925098E-07
  -1.83499996E-02   5.82021016E-07
  -1.83000006E-02   6.11283099E-07
  -1.82499997E-02   6.50279901E-07
  -1.82000007E-02   7.05349009E-07
  -1.81499999E-02   7.75315073E-07
  -1.81000009E-02   8.51533855E-07
  -1.80500001E-02   9.21393507E-07
  -1.79999992E-02   9.73805300E-07
  -1.79500002E-02   1.00423506E-06
  -1.78999994E-02   1.01692888E-06
  -1.78500004E-02   1.02318063E-06
  -1.77999996E-02   1.03627485E-06
  -1.77500006E-02   1.06529546E-06
  -1.76999997E-02   1.11060569E-06
  -1.76500008E-02   1.16315528E-06
  -1.75999999E-02   1.20809443E-06
  -1.75500009E-02   1.23119707E-06
  -1.75000001E-02   1.22526205E-06
  -1.74499992E-02   1.19354115E-06
  -1.74000002E-02   1.14850025E-06
  -1.73499994E-02   1.10629412E-06
  -1.73000004E-02   1.07932590E-06
  -1.72499996E-02   1.07023766E-06
  -1.72000006E-02   1.07013818E-06
  -1.71499997E-02   1.06205357E-06
  -1.71000008E-02   1.02821787E-06
  -1.70499999E-02   9.58010673E-07
  -1.70000009E-02   8.52932033E-07
  -1.69500001E-02   7.26228222E-07
  -1.68999992E-02   5.97150063E-07
  -1.68500002E-02   4.82267694E-07
  -1.67999994E-02   3.87707729E-07
  -1.67500004E-02   3.05891859E-07
  -1.66999996E-02   2.18430429E-07
  -1.66500006E-02   1.04058962E-07
  -1.65999997E-02  -5.18374463E-08
  -1.65500008E-02  -2.50384147E-07
  -1.64999999E-02  -4.78294226E-07
  -1.64500009E-02  -7.13470001E-07
  -1.64000001E-02  -9.34785760E-07
  -1.63499992E-02  -1.13177509E-06
  -1.63000003E-02  -1.30976707E-06
  -1.62499994E-02  -1.48798301E-06
  -1.62000004E-02  -1.69126179E-06
  -1.61499996E-02  -1.93894630E-06
  -1.61000006E-02  -2.23589541E-06
  -1.60499997E-02  -2.56977501E-06
  -1.60000008E-02  -2.91605465E-06
  -1.59499999E-02  -3.24868302E-06
  -1.59000009E-02  -3.55177713E-06
  -1.58500001E-02  -3.82702228E-06
  -1.57999992E-02  -4.09331278E-06
  -1.57500003E-02  -4.37858944E-06
  -1.56999994E-02  -4.70729492E-06
  -1.56500004E-02  -5.08905532E-06
  -1.55999996E-02  -5.51373932E-06
  -1.55499997E-02  -5.95534357E-06
  -1.54999997E-02  -6.38317397E-06
  -1.54499998E-02  -6.77547177E-06
  -1.53999999E-02  -7.12937435E-06
  -1.53500000E-02  -7.46261412E-06
  -1.53000001E-02  -7.80594746E-06
  -1.52500002E-02  -8.18946955E-06
  -1.52000003E-02  -8.62884099E-06
  -1.51500003E-02  -9.11766529E-06
  -1.51000004E-02  -9.62964896E-06
  -1.50499996E-02  -1.01297928E-05
  -1.49999997E-02  -1.05898107E-05
  -1.49499997E-02  -1.10009005E-05
  -1.48999998E-02  -1.13780789E-05
  -1.48499999E-02  -1.17538757E-05
  -1.48000000E-02  -1.21639296E-05
  -1.47500001E-02  -1.26308269E-05
  -1.47000002E-02  -1.31534634E-05
  -1.46500003E-02  -1.37068309E-05
  -1.46000003E-02  -1.42526114E-05
  -1.45500004E-02  -1.47560386E-05
  -1.44999996E-02  -1.52016082E-05
  -1.44499997E-02  -1.56004862E-05
  -1.43999998E-02  -1.59860738E-05
  -1.43499998E-02  -1.63994791E-05
  -1.42999999E-02  -1.68711758E-05
  -1.42500000E-02  -1.74070210E-05
  -1.42000001E-02  -1.79850613E-05
  -1.41500002E-02  -1.85648551E-05
  -1.41000003E-02  -1.91052659E-05
  -1.40500003E-02  -1.95830471E-05
  -1.40000004E-02  -2.00037921E-05
  -1.39499996E-02  -2.04000953E-05
  -1.38999997E-02  -2.08175661E-05
  -1.38499998E-02  -2.12947034E-05
  -1.37999998E-02  -2.18455716E-05
  -1.37499999E-02  -2.24530995E-05
  -1.37000000E-02  -2.30762471E-05
  -1.36500001E-02  -2.36682354E-05
  -1.36000002E-02  -2.41976886E-05
  -1.35500003E-02  -2.46633153E-05
  -1.35000004E-02  -2.50954017E-05
  -1.34500004E-02  -2.55431751E-05
  -1.33999996E-02  -2.60533743E-05
  -1.33499997E-02  -2.66494808E-05
  -1.32999998E-02  -2.73210735E-05
  -1.32499998E-02  -2.80282493E-05
  -1.31999999E-02  -2.87193616E-05
  -1.31500000E-02  -2.93543999E-05
  -1.31000001E-02  -2.99235726E-05
  -1.30500002E-02  -3.04527039E-05
  -1.30000003E-02  -3.09927091E-05
  -1.29500004E-02  -3.15975994E-05
  -1.29000004E-02  -3.23007516E-05
  -1.28499996E-02  -3.30999283E-05
  -1.27999997E-02  -3.39581675E-05
  -1.27499998E-02  -3.48202557E-05
  -1.26999998E-02  -3.56376768E-05
  -1.26499999E-02  -3.63910658E-05
  -1.26000000E-02  -3.70999551E-05
  -1.25500001E-02  -3.78153090E-05
  -1.25000002E-02  -3.85975945E-05
  -1.24500003E-02  -3.94904200E-05
  -1.24000004E-02  -4.05014398E-05
  -1.23500004E-02  -4.15988397E-05
  -1.22999996E-02  -4.27255727E-05
  -1.22499997E-02  -4.38252464E-05
  -1.21999998E-02  -4.48680548E-05
  -1.21499998E-02  -4.58650757E-05
  -1.20999999E-02  -4.68645048E-05
  -1.20500000E-02  -4.79311348E-05
  -1.20000001E-02  -4.91181381E-05
  -1.19500002E-02  -5.04434720E-05
  -1.19000003E-02  -5.18817287E-05
  -1.18500004E-02  -5.33756720E-05
  -1.18000004E-02  -5.48619682E-05
  -1.17499996E-02  -5.63000103E-05
  -1.16999997E-02  -5.76911407E-05
  -1.16499998E-02  -5.90792588E-05
  -1.15999999E-02  -6.05322493E-05
  -1.15499999E-02  -6.21125728E-05
  -1.15000000E-02  -6.38499478E-05
  -1.14500001E-02  -6.57280179E-05
  -1.14000002E-02  -6.76917261E-05
  -1.13500003E-02  -6.96722491E-05
  -1.13000004E-02  -7.16181457E-05
  -1.12500004E-02  -7.35190624E-05
  -1.11999996E-02  -7.54113207E-05
  -1.11499997E-02  -7.73627980E-05
  -1.10999998E-02  -7.94431835E-05
  -1.10499999E-02  -8.16930988E-05
  -1.09999999E-02  -8.41061992E-05
  -1.09500000E-02  -8.66319606E-05
  -1.09000001E-02  -8.91983946E-05
  -1.08500002E-02  -9.17448342E-05
  -1.08000003E-02  -9.42497572E-05
  -1.07500004E-02  -9.67416636E-05
  -1.07000005E-02  -9.92873465E-05
  -1.06499996E-02  -1.01963160E-04
  -1.05999997E-02  -1.04821636E-04
  -1.05499998E-02  -1.07868080E-04
  -1.04999999E-02  -1.11058624E-04
  -1.04499999E-02  -1.14320086E-04
  -1.04000000E-02  -1.17583200E-04
  -1.03500001E-02  -1.20814228E-04
  -1.03000002E-02  -1.24030732E-04
  -1.02500003E-02  -1.27294974E-04
  -1.02000004E-02  -1.30686793E-04
  -1.01500005E-02  -1.34268790E-04
  -1.00999996E-02  -1.38058516E-04
  -1.00499997E-02  -1.42020857E-04
  -9.99999978E-03  -1.46084421E-04
  -9.94999986E-03  -1.50173582E-04
  -9.89999995E-03  -1.54243564E-04
  -9.85000003E-03  -1.58301264E-04
  -9.80000012E-03  -1.62403405E-04
  -9.75000020E-03  -1.66632512E-04
  -9.70000029E-03  -1.71060747E-04
  -9.65000037E-03  -1.75719237E-04
  -9.60000046E-03  -1.80584422E-04
  -9.54999961E-03  -1.85589364E-04
  -9.49999969E-03  -1.90654915E-04
  -9.44999978E-03  -1.95726199E-04
  -9.39999986E-03  -2.00798648E-04
  -9.34999995E-03  -2.05921417E-04
  -9.30000003E-03  -2.11176492E-04
  -9.25000012E-03  -2.16642919E-04
  -9.20000020E-03  -2.22362942E-04
  -9.15000029E-03  -2.28323115E-04
  -9.10000037E-03  -2.34461477E-04
  -9.05000046E-03  -2.40696580E-04
  -8.99999961E-03  -2.46964861E-04
  -8.94999970E-03  -2.53249891E-04
  -8.89999978E-03  -2.59591179E-04
  -8.84999987E-03  -2.66068149E-04
  -8.79999995E-03  -2.72765930E-04
  -8.75000004E-03  -2.79738684E-04
  -8.70000012E-03  -2.86986877E-04
  -8.65000021E-03  -2.94458499E-04
  -8.60000029E-03  -3.02074273E-04
  -8.55000038E-03  -3.09764670E-04
  -8.50000046E-03  -3.17502767E-04
  -8.44999962E-03  -3.25318950E-04
  -8.39999970E-03  -3.33288976E-04
  -8.34999979E-03  -3.41501407E-04
  -8.29999987E-03  -3.50019225E-04
  -8.24999996E-03  -3.58854188E-04
  -8.20000004E-03  -3.67963308E-04
  -8.15000013E-03  -3.77269724E-04
  -8.10000021E-03  -3.86698666E-04
  -8.05000030E-03  -3.96212883E-04
  -8.00000038E-03  -4.05830797E-04
  -7.95000046E-03  -4.15619463E-04
  -7.89999962E-03  -4.25667211E-04
  -7.84999970E-03  -4.36045055E-04
  -7.79999979E-03  -4.46775346E-04
  -7.74999987E-03  -4.57824819E-04
  -7.69999996E-03  -4.69121878E-04
  -7.65000004E-03  -4.80590475E-04
  -7.60000013E-03  -4.92186809E-04
  -7.55000021E-03  -5.03920368E-04
  -7.49999983E-03  -5.15852997E-04
  -7.44999992E-03  -5.28072589E-04
  -7.40000000E-03  -5.40656794E-04
  -7.35000009E-03  -5.53639024E-04
  -7.30000017E-03  -5.66994888E-04
  -7.24999979E-03  -5.80658088E-04
  -7.19999988E-03  -5.94552199E-04
  -7.14999996E-03  -6.08628034E-04
  -7.10000005E-03  -6.22886349E-04
  -7.05000013E-03  -6.37380988E-04
  -7.00000022E-03  -6.52196235E-04
  -6.94999984E-03  -6.67410728E-04
  -6.89999992E-03  -6.83064223E-04
  -6.85000001E-03  -6.99141470E-04
  -6.80000009E-03  -7.15582690E-04
  -6.75000018E-03  -7.32313667E-04
  -6.69999979E-03  -7.49280560E-04
  -6.64999988E-03  -7.66476500E-04
  -6.59999996E-03  -7.83947704E-04
  -6.55000005E-03  -8.01772636E-04
  -6.50000013E-03  -8.20029818E-04
  -6.45000022E-03  -8.38765758E-04
  -6.39999984E-03  -8.57975974E-04
  -6.34999992E-03  -8.77609360E-04
  -6.30000001E-03  -8.97596881E-04
  -6.25000009E-03  -9.17884172E-04
  -6.20000018E-03  -9.38457786E-04
  -6.14999980E-03  -9.59356781E-04
  -6.09999988E-03  -9.80657525E-04
  -6.04999997E-03  -1.00243918E-03
  -6.00000005E-03  -1.02474855E-03
  -5.95000014E-03  -1.04758737E-03
  -5.90000022E-03  -1.07091560E-03
  -5.84999984E-03  -1.09467027E-03
  -5.79999993E-03  -1.11879536E-03
  -5.75000001E-03  -1.14327273E-03
  -5.70000010E-03  -1.16813346E-03
  -5.65000018E-03  -1.19344529E-03
  -5.59999980E-03  -1.21928588E-03
  -5.54999989E-03  -1.24570623E-03
  -5.49999997E-03  -1.27271248E-03
  -5.45000006E-03  -1.30026869E-03
  -5.40000014E-03  -1.32831640E-03
  -5.35000023E-03  -1.35680416E-03
  -5.29999984E-03  -1.38571451E-03
  -5.24999993E-03  -1.41507655E-03
  -5.20000001E-03  -1.44495314E-03
  -5.15000010E-03  -1.47541612E-03
  -5.10000018E-03  -1.50651811E-03
  -5.04999980E-03  -1.53827365E-03
  -4.99999989E-03  -1.57065375E-03
  -4.94999997E-03  -1.60360360E-03
  -4.90000006E-03  -1.63707579E-03
  -4.85000014E-03  -1.67105265E-03
  -4.80000023E-03  -1.70555827E-03
  -4.74999985E-03  -1.74065540E-03
  -4.69999993E-03  -1.77641388E-03
  -4.65000002E-03  -1.81288202E-03
  -4.60000010E-03  -1.85007218E-03
  -4.55000019E-03  -1.88796199E-03
  -4.49999981E-03  -1.92650186E-03
  -4.44999989E-03  -1.96564314E-03
  -4.39999998E-03  -2.00536964E-03
  -4.35000006E-03  -2.04570242E-03
  -4.30000015E-03  -2.08669715E-03
  -4.25000023E-03  -2.12842622E-03
  -4.19999985E-03  -2.17094156E-03
  -4.14999994E-03  -2.21425807E-03
  -4.10000002E-03  -2.25835480E-03
  -4.05000011E-03  -2.30318191E-03
  -4.00000019E-03  -2.34869192E-03
  -3.94999981E-03  -2.39486713E-03
  -3.89999989E-03  -2.44173291E-03
  -3.84999998E-03  -2.48935167E-03
  -3.80000006E-03  -2.53779534E-03
  -3.74999992E-03  -2.58711679E-03
  -3.70000000E-03  -2.63733068E-03
  -3.65000009E-03  -2.68840953E-03
  -3.59999994E-03  -2.74030259E-03
  -3.55000002E-03  -2.79296841E-03
  -3.50000011E-03  -2.84639420E-03
  -3.44999996E-03  -2.90059764E-03
  -3.40000005E-03  -2.95563275E-03
  -3.34999990E-03  -3.01156729E-03
  -3.29999998E-03  -3.06845922E-03
  -3.25000007E-03  -3.12632998E-03
  -3.19999992E-03  -3.18514928E-03
  -3.15000000E-03  -3.24487104E-03
  -3.10000009E-03  -3.30544962E-03
  -3.04999994E-03  -3.36685730E-03
  -3.00000003E-03  -3.42911202E-03
  -2.95000011E-03  -3.49227083E-03
  -2.89999996E-03  -3.55640939E-03
  -2.85000005E-03  -3.62159288E-03
  -2.79999990E-03  -3.68784741E-03
  -2.74999999E-03  -3.75514175E-03
  -2.70000007E-03  -3.82342259E-03
  -2.64999992E-03  -3.89262964E-03
  -2.60000001E-03  -3.96273611E-03
  -2.55000009E-03  -4.03376855E-03
  -2.49999994E-03  -4.10578912E-03
  -2.45000003E-03  -4.17887885E-03
  -2.40000011E-03  -4.25309967E-03
  -2.34999997E-03  -4.32847161E-03
  -2.30000005E-03  -4.40496206E-03
  -2.24999990E-03  -4.48249793E-03
  -2.19999999E-03  -4.56101261E-03
  -2.15000007E-03  -4.64048516E-03
  -2.09999993E-03  -4.72093420E-03
  -2.05000001E-03  -4.80242399E-03
  -2.00000009E-03  -4.88504209E-03
  -1.94999995E-03  -4.96885600E-03
  -1.90000003E-03  -5.05389692E-03
  -1.85000000E-03  -5.14012715E-03
  -1.79999997E-03  -5.22745727E-03
  -1.75000005E-03  -5.31582022E-03
  -1.70000002E-03  -5.40518435E-03
  -1.64999999E-03  -5.49556548E-03
  -1.59999996E-03  -5.58704091E-03
  -1.55000004E-03  -5.67969540E-03
  -1.50000001E-03  -5.77359879E-03
  -1.44999998E-03  -5.86878695E-03
  -1.39999995E-03  -5.96522028E-03
  -1.35000004E-03  -6.06280798E-03
  -1.30000000E-03  -6.16146158E-03
  -1.24999997E-03  -6.26112800E-03
  -1.20000006E-03  -6.36182539E-03
  -1.15000003E-03  -6.46362500E-03
  -1.09999999E-03  -6.56662229E-03
  -1.04999996E-03  -6.67093042E-03
  -1.00000005E-03  -6.77658990E-03
  -9.50000016E-04  -6.88353833E-03
  -8.99999985E-04  -6.99166767E-03
  -8.50000011E-04  -7.10085593E-03
  -7.99999980E-04  -7.21102580E-03
  -7.50000007E-04  -7.32220011E-03
  -6.99999975E-04  -7.43448082E-03
  -6.50000002E-04  -7.54799135E-03
  -6.00000028E-04  -7.66281784E-03
  -5.49999997E-04  -7.77899660E-03
  -5.00000024E-04  -7.89647177E-03
  -4.49999992E-04  -8.01510923E-03
  -3.99999990E-04  -8.13479908E-03
  -3.49999988E-04  -8.25548545E-03
  -3.00000014E-04  -8.37715529E-03
  -2.50000012E-04  -8.49988312E-03
  -1.99999995E-04  -8.62380210E-03
  -1.50000007E-04  -8.74901842E-03
  -9.99999975E-05  -8.87556933E-03
  -4.99999987E-05  -9.00339894E-03
   0.00000000      -9.13238060E-03
   4.99999987E-05  -9.26236343E-03
   9.99999975E-05  -9.39328410E-03
   1.50000007E-04  -9.52513888E-03
   1.99999995E-04  -9.65797994E-03
   2.50000012E-04  -9.79193859E-03
   3.00000014E-04  -9.92712192E-03
   3.49999988E-04  -1.00635625E-02
   3.99999990E-04  -1.02012018E-02
   4.49999992E-04  -1.03399120E-02
   5.00000024E-04  -1.04795583E-02
   5.49999997E-04  -1.06200539E-02
   6.00000028E-04  -1.07613895E-02
   6.50000002E-04  -1.09036136E-02
   6.99999975E-04  -1.10468110E-02
   7.50000007E-04  -1.11910747E-02
   7.99999980E-04  -1.13365017E-02
   8.50000011E-04  -1.14830798E-02
   8.99999985E-04  -1.16306720E-02
   9.50000016E-04  -1.17790950E-02
   1.00000005E-03  -1.19282184E-02
   1.04999996E-03  -1.20779946E-02
   1.09999999E-03  -1.22284451E-02
   1.15000003E-03  -1.23796882E-02
   1.20000006E-03  -1.25318822E-02
   1.24999997E-03  -1.26851248E-02
   1.30000000E-03  -1.28393900E-02
   1.35000004E-03  -1.29945222E-02
   1.39999995E-03  -1.31502831E-02
   1.44999998E-03  -1.33065134E-02
   1.50000001E-03  -1.34631526E-02
   1.55000004E-03  -1.36202499E-02
   1.59999996E-03  -1.37779452E-02
   1.64999999E-03  -1.39363697E-02
   1.70000002E-03  -1.40956035E-02
   1.75000005E-03  -1.42556140E-02
   1.79999997E-03  -1.44162513E-02
   1.85000000E-03  -1.45772975E-02
   1.90000003E-03  -1.47385942E-02
   1.94999995E-03  -1.49000501E-02
   2.00000009E-03  -1.50616644E-02
   2.05000001E-03  -1.52235776E-02
   2.09999993E-03  -1.53859360E-02
   2.15000007E-03  -1.55488243E-02
   2.19999999E-03  -1.57122202E-02
   2.24999990E-03  -1.58759747E-02
   2.30000005E-03  -1.60398968E-02
   2.34999997E-03  -1.62037462E-02
   2.40000011E-03  -1.63673796E-02
   2.45000003E-03  -1.65308136E-02
   2.49999994E-03  -1.66941322E-02
   2.55000009E-03  -1.68575030E-02
   2.60000001E-03  -1.70210432E-02
   2.64999992E-03  -1.71847567E-02
   2.70000007E-03  -1.73485018E-02
   2.74999999E-03  -1.75120421E-02
   2.79999990E-03  -1.76751483E-02