  -3.99999991E-02   0.00000000    
  -3.99499983E-02   0.00000000    
  -3.99000011E-02  -9.07885149E-13
  -3.98500003E-02  -4.40887821E-12
  -3.97999994E-02  -1.04615266E-11
  -3.97499986E-02  -1.67769965E-11
  -3.97000015E-02  -2.24081014E-11
  -3.96500006E-02  -3.06703864E-11
  -3.95999998E-02  -4.58518605E-11
  -3.95499989E-02  -6.66123892E-11
  -3.95000018E-02  -8.54418203E-11
  -3.94500010E-02  -9.72264838E-11
  -3.94000001E-02  -1.07203538E-10
  -3.93499993E-02  -1.26848088E-10
  -3.92999984E-02  -1.60551558E-10
  -3.92500013E-02  -1.99233588E-10
  -3.92000005E-02  -2.30555186E-10
  -3.91499996E-02  -2.54765986E-10
  -3.90999988E-02  -2.86260848E-10
  -3.90500017E-02  -3.37199851E-10
  -3.90000008E-02  -4.02437444E-10
  -3.89500000E-02  -4.64996680E-10
  -3.88999991E-02  -5.16234111E-10
  -3.88499983E-02  -5.65437475E-10
  -3.88000011E-02  -6.25897556E-10
  -3.87500003E-02  -6.94850677E-10
  -3.86999995E-02  -7.54405594E-10
  -3.86499986E-02  -7.94863841E-10
  -3.86000015E-02  -8.31477498E-10
  -3.85500006E-02  -8.90431950E-10
  -3.84999998E-02  -9.77073422E-10
  -3.84499989E-02  -1.06388265E-09
  -3.84000018E-02  -1.11480003E-09
  -3.83500010E-02  -1.11928111E-09
  -3.83000001E-02  -1.09690979E-09
  -3.82499993E-02  -1.06863085E-09
  -3.81999984E-02  -1.03130149E-09
  -3.81500013E-02  -9.67375735E-10
  -3.81000005E-02  -8.76004991E-10
  -3.80499996E-02  -7.82702514E-10
  -3.79999988E-02  -7.10543568E-10
  -3.79500017E-02  -6.46096898E-10
  -3.79000008E-02  -5.44258694E-10
  -3.78500000E-02  -3.70970865E-10
  -3.77999991E-02  -1.35269726E-10
  -3.77499983E-02   1.27574853E-10
  -3.77000012E-02   4.01811306E-10
  -3.76500003E-02   7.10436765E-10
  -3.75999995E-02   1.08473941E-09
  -3.75499986E-02   1.52267055E-09
  -3.75000015E-02   1.98953409E-09
  -3.74500006E-02   2.46245890E-09
  -3.73999998E-02   2.96431146E-09
  -3.73499990E-02   3.54301100E-09
  -3.73000018E-02   4.21760893E-09
  -3.72500010E-02   4.95314811E-09
  -3.72000001E-02   5.69157699E-09
  -3.71499993E-02   6.39831965E-09
  -3.70999984E-02   7.06783787E-09
  -3.70500013E-02   7.68766117E-09
  -3.70000005E-02   8.21807689E-09
  -3.69499996E-02   8.62859917E-09
  -3.68999988E-02   8.95783003E-09
  -3.68500017E-02   9.32178867E-09
  -3.68000008E-02   9.84314230E-09
  -3.67500000E-02   1.05596865E-08
  -3.66999991E-02   1.13955938E-08
  -3.66499983E-02   1.22142332E-08
  -3.66000012E-02   1.28926612E-08
  -3.65500003E-02   1.33540565E-08
  -3.64999995E-02   1.35601539E-08
  -3.64499986E-02   1.35120768E-08
  -3.64000015E-02   1.32759110E-08
  -3.63500006E-02   1.29853710E-08
  -3.62999998E-02   1.27716460E-08
  -3.62499990E-02   1.26492541E-08
  -3.62000018E-02   1.24589246E-08
  -3.61500010E-02   1.19403749E-08
  -3.61000001E-02   1.08949072E-08
  -3.60499993E-02   9.31551902E-09
  -3.59999985E-02   7.39413331E-09
  -3.59500013E-02   5.42103917E-09
  -3.59000005E-02   3.65903174E-09
  -3.58499996E-02   2.25050711E-09
  -3.57999988E-02   1.15863497E-09
  -3.57500017E-02   1.38140221E-10
  -3.57000008E-02  -1.22492638E-09
  -3.56500000E-02  -3.35840955E-09
  -3.55999991E-02  -6.47034426E-09
  -3.55499983E-02  -1.03761435E-08
  -3.55000012E-02  -1.45317642E-08
  -3.54500003E-02  -1.82885778E-08
  -3.53999995E-02  -2.12247731E-08
  -3.53499986E-02  -2.33582167E-08
  -3.53000015E-02  -2.51365968E-08
  -3.52500007E-02  -2.72386647E-08
  -3.51999998E-02  -3.02916519E-08
  -3.51499990E-02  -3.45999176E-08
  -3.51000018E-02  -3.99612681E-08
  -3.50500010E-02  -4.56550033E-08
  -3.50000001E-02  -5.06693070E-08
  -3.49499993E-02  -5.41326415E-08
  -3.48999985E-02  -5.57587647E-08
  -3.48500013E-02  -5.60422464E-08
  -3.48000005E-02  -5.60521123E-08
  -3.47499996E-02  -5.69100642E-08
  -3.46999988E-02  -5.92310982E-08
  -3.46500017E-02  -6.28123118E-08
  -3.46000008E-02  -6.67003377E-08
  -3.45500000E-02  -6.95828533E-08
  -3.44999991E-02  -7.03375278E-08
  -3.44499983E-02  -6.85370978E-08
  -3.44000012E-02  -6.47097878E-08
  -3.43500003E-02  -6.01961716E-08
  -3.42999995E-02  -5.65823868E-08
  -3.42499986E-02  -5.49162102E-08
  -3.42000015E-02  -5.50948513E-08
  -3.41500007E-02  -5.57880107E-08
  -3.40999998E-02  -5.49917871E-08
  -3.40499990E-02  -5.09554603E-08
  -3.40000018E-02  -4.30161364E-08
  -3.39500010E-02  -3.19417097E-08
  -3.39000002E-02  -1.96368308E-08
  -3.38499993E-02  -8.34652081E-09
  -3.37999985E-02   3.20210664E-10
  -3.37500013E-02   6.15902662E-09
  -3.37000005E-02   1.05834612E-08
  -3.36499996E-02   1.61051084E-08
  -3.35999988E-02   2.52133141E-08
  -3.35500017E-02   3.91290769E-08
  -3.35000008E-02   5.70632643E-08
  -3.34500000E-02   7.64188997E-08
  -3.33999991E-02   9.38986275E-08
  -3.33499983E-02   1.06993795E-07
  -3.33000012E-02   1.15141873E-07
  -3.32500003E-02   1.20020914E-07
  -3.31999995E-02   1.24859895E-07
  -3.31499986E-02   1.33058009E-07
  -3.31000015E-02   1.46665499E-07
  -3.30500007E-02   1.65349689E-07
  -3.29999998E-02   1.86340259E-07
  -3.29499990E-02   2.05491432E-07
  -3.29000019E-02   2.19082750E-07
  -3.28500010E-02   2.25544980E-07
  -3.28000002E-02   2.26232700E-07
  -3.27499993E-02   2.24797446E-07
  -3.26999985E-02   2.25433496E-07
  -3.26500013E-02   2.30847064E-07
  -3.26000005E-02   2.40911191E-07
  -3.25499997E-02   2.52604025E-07
  -3.24999988E-02   2.61242036E-07
  -3.24500017E-02   2.62491824E-07
  -3.24000008E-02   2.54340392E-07
  -3.23500000E-02   2.38167544E-07
  -3.22999991E-02   2.18347807E-07
  -3.22499983E-02   2.00403818E-07
  -3.22000012E-02   1.88455033E-07
  -3.21500003E-02   1.83172389E-07
  -3.20999995E-02   1.81305055E-07
  -3.20499986E-02   1.77080437E-07
  -3.20000015E-02   1.64828506E-07
  -3.19500007E-02   1.41583428E-07
  -3.18999998E-02   1.08481530E-07
  -3.18499990E-02   7.03692606E-08
  -3.18000019E-02   3.37961126E-08
  -3.17500010E-02   4.19685975E-09
  -3.17000002E-02  -1.65860818E-08
  -3.16499993E-02  -3.13242161E-08
  -3.15999985E-02  -4.63601069E-08
  -3.15500014E-02  -6.87912163E-08
  -3.15000005E-02  -1.03105428E-07
  -3.14499997E-02  -1.48897215E-07
  -3.13999988E-02  -2.00833483E-07
  -3.13500017E-02  -2.50909181E-07
  -3.13000008E-02  -2.91911931E-07
  -3.12500000E-02  -3.20505052E-07
  -3.11999992E-02  -3.38606299E-07
  -3.11500002E-02  -3.52522704E-07
  -3.10999993E-02  -3.70191458E-07
  -3.10500003E-02  -3.97613235E-07
  -3.09999995E-02  -4.35966598E-07
  -3.09500005E-02  -4.80762480E-07
  -3.08999997E-02  -5.23610709E-07
  -3.08500007E-02  -5.55932218E-07
  -3.07999998E-02  -5.72893555E-07
  -3.07500008E-02  -5.75636420E-07
  -3.07000000E-02  -5.70714576E-07
  -3.06499992E-02  -5.67050449E-07
  -3.06000002E-02  -5.71870544E-07
  -3.05499993E-02  -5.87424438E-07
  -3.05000003E-02  -6.09849678E-07
  -3.04499995E-02  -6.30644877E-07
  -3.04000005E-02  -6.40214409E-07
  -3.03499997E-02  -6.32085573E-07
  -3.03000007E-02  -6.05958689E-07
  -3.02499998E-02  -5.68068003E-07
  -3.02000009E-02  -5.28477472E-07
  -3.01500000E-02  -4.96465702E-07
  -3.00999992E-02  -4.76199347E-07
  -3.00500002E-02  -4.64774189E-07
  -2.99999993E-02  -4.53505152E-07
  -2.99500003E-02  -4.31796309E-07
  -2.98999995E-02  -3.91816997E-07
  -2.98500005E-02  -3.32017038E-07
  -2.97999997E-02  -2.58055536E-07
  -2.97500007E-02  -1.80684808E-07
  -2.96999998E-02  -1.11317846E-07
  -2.96500009E-02  -5.70557788E-08
  -2.96000000E-02  -1.74107999E-08
  -2.95499992E-02   1.56194204E-08
  -2.95000002E-02   5.39979084E-08
  -2.94499993E-02   1.08218046E-07
  -2.94000003E-02   1.82566694E-07
  -2.93499995E-02   2.73221275E-07
  -2.93000005E-02   3.69903319E-07
  -2.92499997E-02   4.60227881E-07
  -2.92000007E-02   5.34855701E-07
  -2.91499998E-02   5.91370110E-07
  -2.91000009E-02   6.35280230E-07
  -2.90500000E-02   6.77612604E-07
  -2.89999992E-02   7.29924409E-07
  -2.89500002E-02   7.98848703E-07
  -2.88999993E-02   8.82731570E-07
  -2.88500004E-02   9.72061230E-07
  -2.87999995E-02   1.05356366E-06
  -2.87500005E-02   1.11601469E-06
  -2.86999997E-02   1.15506464E-06
  -2.86500007E-02   1.17497200E-06
  -2.85999998E-02   1.18663854E-06
  -2.85500009E-02   1.20286654E-06
  -2.85000000E-02   1.23277255E-06
  -2.84499992E-02   1.27761791E-06
  -2.84000002E-02   1.32987032E-06
  -2.83499993E-02   1.37613347E-06
  -2.83000004E-02   1.40289012E-06
  -2.82499995E-02   1.40254588E-06
  -2.82000005E-02   1.37691654E-06
  -2.81499997E-02   1.33643005E-06
  -2.81000007E-02   1.29541172E-06
  -2.80499998E-02   1.26567579E-06
  -2.80000009E-02   1.25128179E-06
  -2.79500000E-02   1.24665337E-06
  -2.78999992E-02   1.23875463E-06
  -2.78500002E-02   1.21244989E-06
  -2.77999993E-02   1.15696491E-06
  -2.77500004E-02   1.07079620E-06
  -2.76999995E-02   9.62846570E-07
  -2.76500005E-02   8.48988350E-07
  -2.75999997E-02   7.45333978E-07
  -2.75500007E-02   6.61212027E-07
  -2.74999999E-02   5.95119729E-07
  -2.74500009E-02   5.35516904E-07
  -2.74000000E-02   4.66030372E-07
  -2.73499992E-02   3.72681768E-07
  -2.73000002E-02   2.50005854E-07
  -2.72499993E-02   1.03602147E-07
  -2.72000004E-02  -5.18808960E-08
  -2.71499995E-02  -1.98643932E-07
  -2.71000005E-02  -3.23216142E-07
  -2.70499997E-02  -4.22341714E-07
  -2.70000007E-02  -5.04521552E-07
  -2.69499999E-02  -5.86221461E-07
  -2.69000009E-02  -6.84305803E-07
  -2.68500000E-02  -8.08178925E-07
  -2.67999992E-02  -9.55261839E-07
  -2.67500002E-02  -1.11186671E-06
  -2.66999993E-02  -1.25895417E-06
  -2.66500004E-02  -1.38015275E-06
  -2.65999995E-02  -1.46865239E-06
  -2.65500005E-02  -1.53010262E-06
  -2.64999997E-02  -1.58022385E-06
  -2.64500007E-02  -1.63788252E-06
  -2.63999999E-02  -1.71639783E-06
  -2.63500009E-02  -1.81692474E-06
  -2.63000000E-02  -1.92715675E-06
  -2.62499992E-02  -2.02629553E-06
  -2.62000002E-02  -2.09417180E-06
  -2.61499994E-02  -2.12030136E-06
  -2.61000004E-02  -2.10868598E-06
  -2.60499995E-02  -2.07623680E-06
  -2.60000005E-02  -2.04559478E-06
  -2.59499997E-02  -2.03544118E-06
  -2.59000007E-02  -2.05232845E-06
  -2.58499999E-02  -2.08745860E-06
  -2.58000009E-02  -2.11999327E-06
  -2.57500000E-02  -2.12585837E-06
  -2.56999992E-02  -2.08845813E-06
  -2.56500002E-02  -2.00646332E-06
  -2.55999994E-02  -1.89485786E-06
  -2.55500004E-02  -1.77851246E-06
  -2.54999995E-02  -1.68116674E-06
  -2.54500005E-02  -1.61495234E-06
  -2.53999997E-02  -1.57517786E-06
  -2.53500007E-02  -1.54254758E-06
  -2.52999999E-02  -1.49173025E-06
  -2.52500009E-02  -1.40260750E-06
  -2.52000000E-02  -1.26953023E-06
  -2.51499992E-02  -1.10454823E-06
  -2.51000002E-02  -9.32918852E-07
  -2.50499994E-02  -7.82462166E-07
  -2.50000004E-02  -6.71299915E-07
  -2.49499995E-02  -5.99717225E-07
  -2.49000005E-02  -5.50185121E-07
  -2.48499997E-02  -4.95651705E-07
  -2.48000007E-02  -4.12169868E-07
  -2.47499999E-02  -2.89986559E-07
  -2.47000009E-02  -1.38144486E-07
  -2.46500000E-02   1.92463681E-08
  -2.45999992E-02   1.53350314E-07
  -2.45500002E-02   2.43135020E-07
  -2.44999994E-02   2.84762166E-07
  -2.44500004E-02   2.93635111E-07
  -2.43999995E-02   2.97668777E-07
  -2.43500005E-02   3.24397575E-07
  -2.42999997E-02   3.87741835E-07
  -2.42500007E-02   4.80813128E-07
  -2.41999999E-02   5.78409413E-07
  -2.41500009E-02   6.48085859E-07
  -2.41000000E-02   6.64586423E-07
  -2.40499992E-02   6.20995706E-07
  -2.40000002E-02   5.31782803E-07
  -2.39499994E-02   4.26560604E-07
  -2.39000004E-02   3.37244700E-07
  -2.38499995E-02   2.83930689E-07
  -2.38000005E-02   2.65566797E-07
  -2.37499997E-02   2.59788322E-07
  -2.37000007E-02   2.32459811E-07
  -2.36499999E-02   1.53032929E-07
  -2.36000009E-02   8.56769855E-09
  -2.35500000E-02  -1.90318772E-07
  -2.34999992E-02  -4.14374625E-07
  -2.34500002E-02  -6.29013186E-07
  -2.33999994E-02  -8.09711480E-07
  -2.33500004E-02  -9.52596565E-07
  -2.32999995E-02  -1.07576113E-06
  -2.32500006E-02  -1.21106939E-06
  -2.31999997E-02  -1.38989788E-06
  -2.31500007E-02  -1.62883634E-06
  -2.30999999E-02  -1.92176117E-06
  -2.30500009E-02  -2.24210362E-06
  -2.30000000E-02  -2.55471923E-06
  -2.29499992E-02  -2.83204827E-06
  -2.29000002E-02  -3.06673314E-06
  -2.28499994E-02  -3.27462635E-06
  -2.28000004E-02  -3.48692220E-06
  -2.27499995E-02  -3.73528678E-06
  -2.27000006E-02  -4.03712011E-06
  -2.26499997E-02  -4.38749157E-06
  -2.26000007E-02  -4.76099012E-06
  -2.25499999E-02  -5.12263114E-06
  -2.25000009E-02  -5.44314798E-06
  -2.24500000E-02  -5.71217197E-06
  -2.23999992E-02  -5.94320545E-06
  -2.23500002E-02  -6.16765419E-06
  -2.22999994E-02  -6.42033228E-06
  -2.22500004E-02  -6.72306260E-06
  -2.21999995E-02  -7.07432218E-06
  -2.21500006E-02  -7.45002899E-06
  -2.20999997E-02  -7.81475228E-06
  -2.20500007E-02  -8.13767383E-06
  -2.19999999E-02  -8.40617668E-06
  -2.19500009E-02  -8.63122477E-06
  -2.19000001E-02  -8.84236579E-06
  -2.18499992E-02  -9.07468620E-06
  -2.18000002E-02  -9.35319986E-06
  -2.17499994E-02  -9.68134009E-06
  -2.17000004E-02  -1.00390025E-05
  -2.16499995E-02  -1.03916173E-05
  -2.16000006E-02  -1.07062415E-05
  -2.15499997E-02  -1.09668072E-05
  -2.15000007E-02  -1.11811878E-05
  -2.14499999E-02  -1.13772439E-05
  -2.14000009E-02  -1.15900120E-05
  -2.13500001E-02  -1.18463504E-05
  -2.12999992E-02  -1.21540461E-05
  -2.12500002E-02  -1.24993694E-05
  -2.11999994E-02  -1.28541114E-05
  -2.11500004E-02  -1.31891029E-05
  -2.10999995E-02  -1.34881393E-05
  -2.10500006E-02  -1.37560846E-05
  -2.09999997E-02  -1.40171169E-05
  -2.09500007E-02  -1.43034358E-05
  -2.08999999E-02  -1.46399971E-05
  -2.08500009E-02  -1.50330116E-05
  -2.08000001E-02  -1.54678328E-05
  -2.07499992E-02  -1.59166739E-05
  -2.07000002E-02  -1.63520035E-05
  -2.06499994E-02  -1.67596427E-05
  -2.06000004E-02  -1.71455613E-05
  -2.05499995E-02  -1.75337409E-05
  -2.05000006E-02  -1.79561575E-05
  -2.04499997E-02  -1.84391247E-05
  -2.04000007E-02  -1.89916864E-05
  -2.03499999E-02  -1.96014444E-05
  -2.03000009E-02  -2.02405245E-05
  -2.02500001E-02  -2.08791280E-05
  -2.01999992E-02  -2.14999782E-05
  -2.01500002E-02  -2.21061346E-05
  -2.00999994E-02  -2.27191340E-05
  -2.00500004E-02  -2.33688152E-05
  -1.99999996E-02  -2.40800400E-05
  -1.99500006E-02  -2.48621382E-05
  -1.98999997E-02  -2.57051743E-05
  -1.98500007E-02  -2.65845320E-05
  -1.97999999E-02  -2.74720787E-05
  -1.97500009E-02  -2.83490699E-05
  -1.97000001E-02  -2.92141904E-05
  -1.96499992E-02  -3.00837200E-05
  -1.96000002E-02  -3.09839124E-05
  -1.95499994E-02  -3.19381106E-05
  -1.95000004E-02  -3.29551694E-05
  -1.94499996E-02  -3.40257138E-05
  -1.94000006E-02  -3.51271592E-05
  -1.93499997E-02  -3.62349529E-05
  -1.93000007E-02  -3.73335133E-05
  -1.92499999E-02  -3.84222840E-05
  -1.92000009E-02  -3.95152638E-05
  -1.91500001E-02  -4.06342515E-05
  -1.90999992E-02  -4.17983356E-05
  -1.90500002E-02  -4.30143264E-05
  -1.89999994E-02  -4.42731616E-05
  -1.89500004E-02  -4.55528534E-05
  -1.88999996E-02  -4.68289254E-05
  -1.88500006E-02  -4.80867639E-05
  -1.87999997E-02  -4.93283333E-05
  -1.87500007E-02  -5.05699973E-05
  -1.86999999E-02  -5.18341403E-05
  -1.86500009E-02  -5.31381338E-05
  -1.86000001E-02  -5.44857103E-05
  -1.85499992E-02  -5.58659303E-05
  -1.85000002E-02  -5.72574318E-05
  -1.84499994E-02  -5.86369788E-05
  -1.84000004E-02  -5.99892301E-05
  -1.83499996E-02  -6.13143420E-05
  -1.83000006E-02  -6.26291658E-05
  -1.82499997E-02  -6.39592035E-05
  -1.82000007E-02  -6.53268362E-05
  -1.81499999E-02  -6.67410495E-05
  -1.81000009E-02  -6.81931924E-05
  -1.80500001E-02  -6.96630523E-05
  -1.79999992E-02  -7.11292159E-05
  -1.79500002E-02  -7.25780992E-05
  -1.78999994E-02  -7.40094183E-05
  -1.78500004E-02  -7.54353459E-05
  -1.77999996E-02  -7.68758400E-05
  -1.77500006E-02  -7.83511496E-05
  -1.76999997E-02  -7.98717083E-05
  -1.76500008E-02  -8.14331070E-05
  -1.75999999E-02  -8.30191202E-05
  -1.75500009E-02  -8.46124531E-05
  -1.75000001E-02  -8.62063680E-05
  -1.74499992E-02  -8.78079445E-05
  -1.74000002E-02  -8.94349068E-05
  -1.73499994E-02  -9.11092138E-05
  -1.73000004E-02  -9.28491136E-05
  -1.72499996E-02  -9.46623331E-05
  -1.72000006E-02  -9.65424624E-05
  -1.71499997E-02  -9.84726430E-05
  -1.71000008E-02  -1.00435056E-04
  -1.70499999E-02  -1.02421611E-04
  -1.70000009E-02  -1.04439998E-04
  -1.69500001E-02  -1.06512176E-04
  -1.68999992E-02  -1.08666143E-04
  -1.68500002E-02  -1.10924091E-04
  -1.67999994E-02  -1.13294358E-04
  -1.67500004E-02  -1.15771101E-04
  -1.66999996E-02  -1.18339260E-04
  -1.66500006E-02  -1.20982935E-04
  -1.65999997E-02  -1.23693928E-04
  -1.65500008E-02  -1.26477273E-04
  -1.64999999E-02  -1.29354768E-04
  -1.64500009E-02  -1.32356785E-04
  -1.64000001E-02  -1.35510156E-04
  -1.63499992E-02  -1.38827163E-04
  -1.63000003E-02  -1.42301084E-04
  -1.62499994E-02  -1.45915372E-04
  -1.62000004E-02  -1.49652522E-04
  -1.61499996E-02  -1.53500150E-04
  -1.61000006E-02  -1.57459755E-04
  -1.60499997E-02  -1.61549891E-04
  -1.60000008E-02  -1.65797945E-04
  -1.59499999E-02  -1.70228872E-04
  -1.59000009E-02  -1.74855144E-04
  -1.58500001E-02  -1.79674098E-04
  -1.57999992E-02  -1.84671080E-04
  -1.57500003E-02  -1.89828497E-04
  -1.56999994E-02  -1.95137487E-04
  -1.56500004E-02  -2.00603725E-04
  -1.55999996E-02  -2.06245095E-04
  -1.55499997E-02  -2.12083789E-04
  -1.54999997E-02  -2.18139554E-04
  -1.54499998E-02  -2.24422489E-04
  -1.53999999E-02  -2.30926307E-04
  -1.53500000E-02  -2.37630404E-04
  -1.53000001E-02  -2.44510011E-04
  -1.52500002E-02  -2.51550868E-04
  -1.52000003E-02  -2.58757529E-04
  -1.51500003E-02  -2.66154209E-04
  -1.51000004E-02  -2.73771264E-04
  -1.50499996E-02  -2.81629240E-04
  -1.49999997E-02  -2.89735122E-04
  -1.49499997E-02  -2.98081810E-04
  -1.48999998E-02  -3.06647911E-04
  -1.48499999E-02  -3.15405749E-04
  -1.48000000E-02  -3.24332388E-04
  -1.47500001E-02  -3.33422970E-04
  -1.47000002E-02  -3.42694751E-04
  -1.46500003E-02  -3.52178700E-04
  -1.46000003E-02  -3.61904618E-04
  -1.45500004E-02  -3.71883914E-04
  -1.44999996E-02  -3.82108730E-04
  -1.44499997E-02  -3.92562506E-04
  -1.43999998E-02  -4.03222861E-04
  -1.43499998E-02  -4.14070993E-04
  -1.42999999E-02  -4.25102015E-04
  -1.42500000E-02  -4.36326518E-04
  -1.42000001E-02  -4.47764498E-04
  -1.41500002E-02  -4.59439994E-04
  -1.41000003E-02  -4.71370440E-04
  -1.40500003E-02  -4.83554177E-04
  -1.40000004E-02  -4.95969842E-04
  -1.39499996E-02  -5.08586469E-04
  -1.38999997E-02  -5.21385111E-04
  -1.38499998E-02  -5.34365361E-04
  -1.37999998E-02  -5.47550851E-04
  -1.37499999E-02  -5.60976332E-04
  -1.37000000E-02  -5.74658450E-04
  -1.36500001E-02  -5.88596275E-04
  -1.36000002E-02  -6.02787128E-04
  -1.35500003E-02  -6.17225596E-04
  -1.35000004E-02  -6.31895033E-04
  -1.34500004E-02  -6.46775065E-04
  -1.33999996E-02  -6.61852770E-04
  -1.33499997E-02  -6.77141012E-04
  -1.32999998E-02  -6.92683505E-04
  -1.32499998E-02  -7.08525593E-04
  -1.31999999E-02  -7.24680664E-04
  -1.31500000E-02  -7.41130381E-04
  -1.31000001E-02  -7.57840462E-04
  -1.30500002E-02  -7.74782558E-04
  -1.30000003E-02  -7.91948871E-04
  -1.29500004E-02  -8.09342018E-04
  -1.29000004E-02  -8.26967473E-04
  -1.28499996E-02  -8.44851485E-04
  -1.27999997E-02  -8.63041612E-04
  -1.27499998E-02  -8.81584245E-04
  -1.26999998E-02  -9.00496496E-04
  -1.26499999E-02  -9.19763930E-04
  -1.26000000E-02  -9.39355814E-04
  -1.25500001E-02  -9.59238911E-04
  -1.25000002E-02  -9.79408505E-04
  -1.24500003E-02  -9.99888638E-04
  -1.24000004E-02  -1.02069345E-03
  -1.23500004E-02  -1.04182365E-03
  -1.22999996E-02  -1.06327108E-03
  -1.22499997E-02  -1.08503771E-03
  -1.21999998E-02  -1.10714172E-03
  -1.21499998E-02  -1.12958334E-03
  -1.20999999E-02  -1.15235720E-03
  -1.20500000E-02  -1.17547414E-03
  -1.20000001E-02  -1.19898876E-03
  -1.19500002E-02  -1.22297986E-03
  -1.19000003E-02  -1.24749611E-03
  -1.18500004E-02  -1.27253565E-03
  -1.18000004E-02  -1.29807054E-03
  -1.17499996E-02  -1.32405898E-03
  -1.16999997E-02  -1.35043683E-03
  -1.16499998E-02  -1.37713633E-03
  -1.15999999E-02  -1.40409695E-03
  -1.15499999E-02  -1.43130717E-03
  -1.15000000E-02  -1.45881635E-03
  -1.14500001E-02  -1.48669910E-03
  -1.14000002E-02  -1.51500874E-03
  -1.13500003E-02  -1.54378114E-03
  -1.13000004E-02  -1.57307368E-03
  -1.12500004E-02  -1.60294538E-03
  -1.11999996E-02  -1.63343491E-03
  -1.11499997E-02  -1.66456448E-03
  -1.10999998E-02  -1.69635029E-03
  -1.10499999E-02  -1.72880897E-03
  -1.09999999E-02  -1.76192680E-03
  -1.09500000E-02  -1.79563230E-03
  -1.09000001E-02  -1.82981545E-03
  -1.08500002E-02  -1.86436460E-03
  -1.08000003E-02  -1.89920305E-03
  -1.07500004E-02  -1.93426688E-03
  -1.07000005E-02  -1.96953677E-03
  -1.06499996E-02  -2.00508279E-03
  -1.05999997E-02  -2.04105396E-03
  -1.05499998E-02  -2.07760604E-03
  -1.04999999E-02  -2.11486057E-03
  -1.04499999E-02  -2.15289742E-03
  -1.04000000E-02  -2.19174195E-03
  -1.03500001E-02  -2.23140279E-03
  -1.03000002E-02  -2.27187388E-03
  -1.02500003E-02  -2.31312029E-03
  -1.02000004E-02  -2.35506054E-03
  -1.01500005E-02  -2.39762408E-03
  -1.00999996E-02  -2.44080205E-03
  -1.00499997E-02  -2.48458795E-03
  -9.99999978E-03  -2.52894755E-03
  -9.94999986E-03  -2.57381145E-03
  -9.89999995E-03  -2.61907186E-03
  -9.85000003E-03  -2.66471342E-03
  -9.80000012E-03  -2.71085859E-03
  -9.75000020E-03  -2.75767758E-03
  -9.70000029E-03  -2.80525442E-03
  -9.65000037E-03  -2.85356212E-03
  -9.60000046E-03  -2.90262653E-03
  -9.54999961E-03  -2.95255240E-03
  -9.49999969E-03  -3.00341286E-03
  -9.44999978E-03  -3.05513362E-03
  -9.39999986E-03  -3.10754264E-03
  -9.34999995E-03  -3.16055142E-03
  -9.30000003E-03  -3.21427360E-03
  -9.25000012E-03  -3.26891639E-03
  -9.20000020E-03  -3.32457409E-03
  -9.15000029E-03  -3.38121946E-03
  -9.10000037E-03  -3.43877310E-03
  -9.05000046E-03  -3.49724200E-03
  -8.99999961E-03  -3.55669926E-03
  -8.94999970E-03  -3.61710461E-03
  -8.89999978E-03  -3.67831998E-03
  -8.84999987E-03  -3.74023407E-03
  -8.79999995E-03  -3.80287832E-03
  -8.75000004E-03  -3.86642781E-03
  -8.70000012E-03  -3.93103063E-03
  -8.65000021E-03  -3.99665954E-03
  -8.60000029E-03  -4.06317832E-03
  -8.55000038E-03  -4.13051201E-03
  -8.50000046E-03  -4.19875327E-03
  -8.44999962E-03  -4.26807161E-03
  -8.39999970E-03  -4.33851872E-03
  -8.34999979E-03  -4.41002287E-03
  -8.29999987E-03  -4.48257895E-03
  -8.24999996E-03  -4.55633644E-03
  -8.20000004E-03  -4.63147042E-03
  -8.15000013E-03  -4.70797904E-03
  -8.10000021E-03  -4.78566345E-03
  -8.05000030E-03  -4.86432342E-03
  -8.00000038E-03  -4.94396733E-03
  -7.95000046E-03  -5.02482336E-03
  -7.89999962E-03  -5.10704424E-03
  -7.84999970E-03  -5.19061787E-03
  -7.79999979E-03  -5.27549116E-03
  -7.74999987E-03  -5.36168320E-03
  -7.69999996E-03  -5.44923358E-03
  -7.65000004E-03  -5.53810084E-03
  -7.60000013E-03  -5.62816486E-03
  -7.55000021E-03  -5.71920490E-03
  -7.49999983E-03  -5.81113854E-03
  -7.44999992E-03  -5.90417022E-03
  -7.40000000E-03  -5.99853694E-03
  -7.35000009E-03  -6.09439891E-03
  -7.30000017E-03  -6.19168719E-03
  -7.24999979E-03  -6.29032170E-03
  -7.19999988E-03  -6.39038440E-03
  -7.14999996E-03  -6.49193162E-03
  -7.10000005E-03  -6.59494800E-03
  -7.05000013E-03  -6.69931481E-03
  -7.00000022E-03  -6.80495612E-03
  -6.94999984E-03  -6.91200746E-03
  -6.89999992E-03  -7.02074450E-03
  -6.85000001E-03  -7.13127060E-03
  -6.80000009E-03  -7.24346470E-03
  -6.75000018E-03  -7.35708838E-03
  -6.69999979E-03  -7.47193862E-03
  -6.64999988E-03  -7.58806756E-03
  -6.59999996E-03  -7.70562142E-03
  -6.55000005E-03  -7.82464352E-03
  -6.50000013E-03  -7.94508029E-03
  -6.45000022E-03  -8.06694850E-03
  -6.39999984E-03  -8.19035992E-03
  -6.34999992E-03  -8.31545703E-03
  -6.30000001E-03  -8.44219606E-03
  -6.25000009E-03  -8.57028551E-03
  -6.20000018E-03  -8.69947951E-03
  -6.14999980E-03  -8.82979855E-03
  -6.09999988E-03  -8.96150712E-03
  -6.04999997E-03  -9.09483898E-03
  -6.00000005E-03  -9.22996458E-03
  -5.95000014E-03  -9.36694816E-03
  -5.90000022E-03  -9.50579718E-03
  -5.84999984E-03  -9.64647625E-03
  -5.79999993E-03  -9.78884660E-03
  -5.75000001E-03  -9.93269216E-03
  -5.70000010E-03  -1.00777969E-02
  -5.65000018E-03  -1.02241775E-02
  -5.59999980E-03  -1.03721702E-02
  -5.54999989E-03  -1.05219828E-02
  -5.49999997E-03  -1.06736263E-02
  -5.45000006E-03  -1.08270440E-02
  -5.40000014E-03  -1.09821307E-02
  -5.35000023E-03  -1.11388694E-02
  -5.29999984E-03  -1.12972027E-02
  -5.24999993E-03  -1.14568872E-02
  -5.20000001E-03  -1.16177155E-02
  -5.15000010E-03  -1.17797693E-02
  -5.10000018E-03  -1.19433450E-02
  -5.04999980E-03  -1.21088764E-02
  -4.99999989E-03  -1.22766066E-02
  -4.94999997E-03  -1.24462899E-02
  -4.90000006E-03  -1.26175545E-02
  -4.85000014E-03  -1.27902171E-02
  -4.80000023E-03  -1.29643045E-02
  -4.74999985E-03  -1.31400414E-02
  -4.69999993E-03  -1.33177033E-02
  -4.65000002E-03  -1.34973647E-02
  -4.60000010E-03  -1.36788646E-02
  -4.55000019E-03  -1.38623472E-02
  -4.49999981E-03  -1.40480641E-02
  -4.44999989E-03  -1.42359631E-02
  -4.39999998E-03  -1.44255105E-02
  -4.35000006E-03  -1.46160349E-02
  -4.30000015E-03  -1.48075130E-02
  -4.25000023E-03  -1.50003694E-02
  -4.19999985E-03  -1.51951509E-02
  -4.14999994E-03  -1.53921852E-02
  -4.10000002E-03  -1.55913420E-02
  -4.05000011E-03  -1.57924071E-02
  -4.00000019E-03  -1.59952473E-02
  -3.94999981E-03  -1.61998067E-02
  -3.89999989E-03  -1.64060928E-02
  -3.84999998E-03  -1.66138709E-02
  -3.80000006E-03  -1.68229677E-02
  -3.74999992E-03  -1.70335844E-02
  -3.70000000E-03  -1.72462668E-02
  -3.65000009E-03  -1.74617209E-02
  -3.59999994E-03  -1.76798813E-02
  -3.55000002E-03  -1.78999361E-02
  -3.50000011E-03  -1.81212779E-02
  -3.44999996E-03  -1.83438938E-02
  -3.40000005E-03  -1.85681432E-02
  -3.34999990E-03  -1.87942144E-02
  -3.29999998E-03  -1.90218836E-02
  -3.25000007E-03  -1.92510132E-02
  -3.19999992E-03  -1.94821060E-02
  -3.15000000E-03  -1.97158437E-02
  -3.10000009E-03  -1.99519470E-02
  -3.04999994E-03  -2.01895833E-02
  -3.00000003E-03  -2.04282310E-02
  -2.95000011E-03  -2.06678361E-02
  -2.89999996E-03  -2.09088810E-02
  -2.85000005E-03  -2.11517848E-02
  -2.79999990E-03  -2.13967320E-02
  -2.74999999E-03  -2.16439217E-02
  -2.70000007E-03  -2.18932107E-02
  -2.64999992E-03  -2.21444983E-02
  -2.60000001E-03  -2.23976746E-02
  -2.55000009E-03  -2.26522181E-02
  -2.49999994E-03  -2.29074974E-02
  -2.45000003E-03  -2.31633000E-02
  -2.40000011E-03  -2.34204307E-02
  -2.34999997E-03  -2.36798655E-02
  -2.30000005E-03  -2.39418130E-02
  -2.24999990E-03  -2.42058840E-02
  -2.19999999E-03  -2.44718455E-02
  -2.15000007E-03  -2.47395132E-02
  -2.09999993E-03  -2.50086337E-02
  -2.05000001E-03  -2.52789855E-02
  -2.00000009E-03  -2.55499203E-02
  -1.94999995E-03  -2.58213598E-02
  -1.90000003E-03  -2.60939933E-02
  -1.85000000E-03  -2.63686795E-02
  -1.79999997E-03  -2.66458318E-02
  -1.75000005E-03  -2.69247815E-02
  -1.70000002E-03  -2.72047482E-02
  -1.64999999E-03  -2.74853017E-02
  -1.59999996E-03  -2.77660899E-02
  -1.55000004E-03  -2.80475337E-02
  -1.50000001E-03  -2.83300951E-02
  -1.44999998E-03  -2.86137573E-02
  -1.39999995E-03  -2.88988519E-02
  -1.35000004E-03  -2.91859545E-02
  -1.30000000E-03  -2.94750687E-02
  -1.24999997E-03  -2.97654252E-02
  -1.20000006E-03  -3.00563741E-02
  -1.15000003E-03  -3.03476453E-02
  -1.09999999E-03  -3.06393653E-02
  -1.04999996E-03  -3.09314691E-02
  -1.00000005E-03  -3.12239472E-02
  -9.50000016E-04  -3.15173194E-02
  -8.99999985E-04  -3.18121724E-02
  -8.50000011E-04  -3.21088247E-02
  -7.99999980E-04  -3.24066840E-02
  -7.50000007E-04  -3.27044241E-02
  -6.99999975E-04  -3.30011994E-02
  -6.50000002E-04  -3.32974978E-02
  -6.00000028E-04  -3.35938297E-02
  -5.49999997E-04  -3.38901430E-02
  -5.00000024E-04  -3.41866240E-02
  -4.49999992E-04  -3.44839357E-02
  -3.99999990E-04  -3.47828083E-02
  -3.49999988E-04  -3.50828059E-02
  -3.00000014E-04  -3.53827588E-02
  -2.50000012E-04  -3.56815867E-02
  -1.99999995E-04  -3.59791853E-02
  -1.50000007E-04  -3.62761728E-02
  -9.99999975E-05  -3.65728959E-02
  -4.99999987E-05  -3.68698500E-02
   0.00000000      -3.71671133E-02
   4.99999987E-05  -3.74642387E-02
   9.99999975E-05  -3.77610996E-02
   1.50000007E-04  -3.80574167E-02
   1.99999995E-04  -3.83523516E-02
   2.50000012E-04  -3.86453792E-02
   3.00000014E-04  -3.89364511E-02
   3.49999988E-04  -3.92259285E-02
   3.99999990E-04  -3.95147353E-02
   4.49999992E-04  -3.98028828E-02
   5.00000024E-04  -4.00902070E-02
   5.49999997E-04  -4.03767116E-02
   6.00000028E-04  -4.06619310E-02
   6.50000002E-04  -4.09448296E-02
   6.99999975E-04  -4.12242115E-02
   7.50000007E-04  -4.15010676E-02
   7.99999980E-04  -4.17763107E-02
   8.50000011E-04  -4.20501158E-02
   8.99999985E-04  -4.23219129E-02
   9.50000016E-04  -4.25906032E-02
   1.00000005E-03  -4.28572930E-02
   1.04999996E-03  -4.31231372E-02
   1.09999999E-03  -4.33863141E-02
   1.15000003E-03  -4.36447151E-02
   1.20000006E-03  -4.38976325E-02
   1.24999997E-03  -4.41455506E-02
   1.30000000E-03  -4.43909951E-02
   1.35000004E-03  -4.46357764E-02
   1.39999995E-03  -4.48784158E-02
   1.44999998E-03  -4.51153107E-02
   1.50000001E-03  -4.53454740E-02
   1.55000004E-03  -4.55717072E-02
   1.59999996E-03  -4.57957983E-02
   1.64999999E-03  -4.60160151E-02
   1.70000002E-03  -4.62282524E-02
   1.75000005E-03  -4.64313328E-02
   1.79999997E-03  -4.66299392E-02
   1.85000000E-03  -4.68280353E-02
   1.90000003E-03  -4.70237397E-02
   1.94999995E-03  -4.72114608E-02
   2.00000009E-03  -4.73885536E-02
   2.05000001E-03  -4.75580022E-02
   2.09999993E-03  -4.77241352E-02
   2.15000007E-03  -4.78871129E-02
   2.19999999E-03  -4.80423495E-02
   2.24999990E-03  -4.81870025E-02
   2.30000005E-03  -4.83226366E-02
   2.34999997E-03  -4.84533012E-02
   2.40000011E-03  -4.85811271E-02
   2.45000003E-03  -4.87016402E-02
   2.49999994E-03  -4.88086045E-02
   2.55000009E-03  -4.89011407E-02
   2.60000001E-03  -4.89852615E-02
   2.64999992E-03  -4.90663275E-02
   2.70000007E-03  -4.91414741E-02
   2.74999999E-03  -4.92039435E-02
   2.79999990E-03  -4.92512994E-02