  -3.99999991E-02   0.00000000    
  -3.99499983E-02   0.00000000    
  -3.99000011E-02   0.00000000    
  -3.98500003E-02   0.00000000    
  -3.97999994E-02   0.00000000    
  -3.97499986E-02  -3.88432383E-21
  -3.97000015E-02  -2.98651266E-20
  -3.96500006E-02  -1.19492405E-19
  -3.95999998E-02  -3.34239878E-19
  -3.95499989E-02  -7.46755858E-19
  -3.95000018E-02  -1.44825884E-18
  -3.94500010E-02  -2.56728180E-18
  -3.94000001E-02  -4.24803525E-18
  -3.93499993E-02  -6.54764409E-18
  -3.92999984E-02  -9.31077558E-18
  -3.92500013E-02  -1.21668350E-17
  -3.92000005E-02  -1.47295473E-17
  -3.91499996E-02  -1.68779074E-17
  -3.90999988E-02  -1.88711695E-17
  -3.90500017E-02  -2.11728078E-17
  -3.90000008E-02  -2.41250468E-17
  -3.89500000E-02  -2.77280454E-17
  -3.88999991E-02  -3.16059194E-17
  -3.88499983E-02  -3.50174074E-17
  -3.88000011E-02  -3.68094711E-17
  -3.87500003E-02  -3.54772107E-17
  -3.86999995E-02  -2.95745325E-17
  -3.86499986E-02  -1.83649779E-17
  -3.86000015E-02  -2.14049858E-18
  -3.85500006E-02   1.83121889E-17
  -3.84999998E-02   4.29192455E-17
  -3.84499989E-02   7.33264776E-17
  -3.84000018E-02   1.12910617E-16
  -3.83500010E-02   1.65832600E-16
  -3.83000001E-02   2.35887797E-16
  -3.82499993E-02   3.25786686E-16
  -3.81999984E-02   4.36826961E-16
  -3.81500013E-02   5.68626876E-16
  -3.81000005E-02   7.19053045E-16
  -3.80499996E-02   8.84952601E-16
  -3.79999988E-02   1.06387995E-15
  -3.79500017E-02   1.25587648E-15
  -3.79000008E-02   1.46383027E-15
  -3.78500000E-02   1.69189177E-15
  -3.77999991E-02   1.94309422E-15
  -3.77499983E-02   2.21798267E-15
  -3.77000012E-02   2.51495559E-15
  -3.76500003E-02   2.83136560E-15
  -3.75999995E-02   3.16403906E-15
  -3.75499986E-02   3.50902986E-15
  -3.75000015E-02   3.86157958E-15
  -3.74500006E-02   4.21688068E-15
  -3.73999998E-02   4.57085702E-15
  -3.73499990E-02   4.91959785E-15
  -3.73000018E-02   5.25733318E-15
  -3.72500010E-02   5.57449366E-15
  -3.72000001E-02   5.85740605E-15
  -3.71499993E-02   6.08942955E-15
  -3.70999984E-02   6.25188793E-15
  -3.70500013E-02   6.32399923E-15
  -3.70000005E-02   6.28321544E-15
  -3.69499996E-02   6.10817778E-15
  -3.68999988E-02   5.78432235E-15
  -3.68500017E-02   5.30886455E-15
  -3.68000008E-02   4.69103533E-15
  -3.67500000E-02   3.94616726E-15
  -3.66999991E-02   3.08618318E-15
  -3.66499983E-02   2.11082410E-15
  -3.66000012E-02   1.00286689E-15
  -3.65500003E-02  -2.71362278E-16
  -3.64999995E-02  -1.75577415E-15
  -3.64499986E-02  -3.49295635E-15
  -3.64000015E-02  -5.51003318E-15
  -3.63500006E-02  -7.80830631E-15
  -3.62999998E-02  -1.03639724E-14
  -3.62499990E-02  -1.31423379E-14
  -3.62000018E-02  -1.61189912E-14
  -3.61500010E-02  -1.92952276E-14
  -3.61000001E-02  -2.26966358E-14
  -3.60499993E-02  -2.63530568E-14
  -3.59999985E-02  -3.02686715E-14
  -3.59500013E-02  -3.43966358E-14
  -3.59000005E-02  -3.86315634E-14
  -3.58499996E-02  -4.28269345E-14
  -3.57999988E-02  -4.68354840E-14
  -3.57500017E-02  -5.05599963E-14
  -3.57000008E-02  -5.39925770E-14
  -3.56500000E-02  -5.72192237E-14
  -3.55999991E-02  -6.03775385E-14
  -3.55499983E-02  -6.35785912E-14
  -3.55000012E-02  -6.68262036E-14
  -3.54500003E-02  -6.99743201E-14
  -3.53999995E-02  -7.27489629E-14
  -3.53499986E-02  -7.48314239E-14
  -3.53000015E-02  -7.59692737E-14
  -3.52500007E-02  -7.60666961E-14
  -3.51999998E-02  -7.52105084E-14
  -3.51499990E-02  -7.36124012E-14
  -3.51000018E-02  -7.14832856E-14
  -3.50500010E-02  -6.88900502E-14
  -3.50000001E-02  -6.56627598E-14
  -3.49499993E-02  -6.14077270E-14
  -3.48999985E-02  -5.56370169E-14
  -3.48500013E-02  -4.79663814E-14
  -3.48000005E-02  -3.82907275E-14
  -3.47499996E-02  -2.68472412E-14
  -3.46999988E-02  -1.41232173E-14
  -3.46500017E-02  -6.38609162E-16
  -3.46000008E-02   1.33036858E-14
  -3.45500000E-02   2.77830534E-14
  -3.44999991E-02   4.32540221E-14
  -3.44499983E-02   6.03500133E-14
  -3.44000012E-02   7.95691231E-14
  -3.43500003E-02   1.00979893E-13
  -3.42999995E-02   1.24094758E-13
  -3.42499986E-02   1.47996646E-13
  -3.42000015E-02   1.71688496E-13
  -3.41500007E-02   1.94518541E-13
  -3.40999998E-02   2.16478053E-13
  -3.40499990E-02   2.38209707E-13
  -3.40000018E-02   2.60690937E-13
  -3.39500010E-02   2.84711707E-13
  -3.39000002E-02   3.10375911E-13
  -3.38499993E-02   3.36864732E-13
  -3.37999985E-02   3.62601496E-13
  -3.37500013E-02   3.85782904E-13
  -3.37000005E-02   4.05065331E-13
  -3.36499996E-02   4.20098255E-13
  -3.35999988E-02   4.31634248E-13
  -3.35500017E-02   4.41120041E-13
  -3.35000008E-02   4.49917745E-13
  -3.34500000E-02   4.58498961E-13
  -3.33999991E-02   4.66000502E-13
  -3.33499983E-02   4.70386696E-13
  -3.33000012E-02   4.69191634E-13
  -3.32500003E-02   4.60534497E-13
  -3.31999995E-02   4.43948995E-13
  -3.31499986E-02   4.20620732E-13
  -3.31000015E-02   3.92870686E-13
  -3.30500007E-02   3.63063854E-13
  -3.29999998E-02   3.32411182E-13
  -3.29499990E-02   3.00225529E-13
  -3.29000019E-02   2.64028762E-13
  -3.28500010E-02   2.20531045E-13
  -3.28000002E-02   1.67085692E-13
  -3.27499993E-02   1.02960250E-13
  -3.26999985E-02   2.98036098E-14
  -3.26500013E-02  -4.89675405E-14
  -3.26000005E-02  -1.29641144E-13
  -3.25499997E-02  -2.09897543E-13
  -3.24999988E-02  -2.89922220E-13
  -3.24500017E-02  -3.72370835E-13
  -3.24000008E-02  -4.61113732E-13
  -3.23500000E-02  -5.59258748E-13
  -3.22999991E-02  -6.67336466E-13
  -3.22499983E-02  -7.82528881E-13
  -3.22000012E-02  -8.99398340E-13
  -3.21500003E-02  -1.01189207E-12
  -3.20999995E-02  -1.11576904E-12
  -3.20499986E-02  -1.21033164E-12
  -3.20000015E-02  -1.29859762E-12
  -3.19500007E-02  -1.38573506E-12
  -3.18999998E-02  -1.47638260E-12
  -3.18499990E-02  -1.57204241E-12
  -3.18000019E-02  -1.66976448E-12
  -3.17500010E-02  -1.76281721E-12
  -3.17000002E-02  -1.84315562E-12
  -3.16499993E-02  -1.90464788E-12
  -3.15999985E-02  -1.94559971E-12
  -3.15500014E-02  -1.96934157E-12
  -3.15000005E-02  -1.98249750E-12
  -3.14499997E-02  -1.99161022E-12
  -3.13999988E-02  -1.99963180E-12
  -3.13500017E-02  -2.00392719E-12
  -3.13000008E-02  -1.99681959E-12
  -3.12500000E-02  -1.96855704E-12
  -3.11999992E-02  -1.91143997E-12
  -3.11500002E-02  -1.82324750E-12
  -3.10999993E-02  -1.70832825E-12
  -3.10500003E-02  -1.57572544E-12
  -3.09999995E-02  -1.43505357E-12
  -3.09500005E-02  -1.29193466E-12
  -3.08999997E-02  -1.14510853E-12
  -3.08500007E-02  -9.86671031E-13
  -3.07999998E-02  -8.05495265E-13
  -3.07500008E-02  -5.92388226E-13
  -3.07000000E-02  -3.44652556E-13
  -3.06499992E-02  -6.78810713E-14
  -3.06000002E-02   2.25980977E-13
  -3.05499993E-02   5.23572722E-13
  -3.05000003E-02   8.15890324E-13
  -3.04499995E-02   1.10224449E-12
  -3.04000005E-02   1.39047183E-12
  -3.03499997E-02   1.69311808E-12
  -3.03000007E-02   2.02116167E-12
  -3.02499998E-02   2.37807191E-12
  -3.02000009E-02   2.75698128E-12
  -3.01500000E-02   3.14243315E-12
  -3.00999992E-02   3.51610668E-12
  -3.00500002E-02   3.86403669E-12
  -2.99999993E-02   4.18204707E-12
  -2.99500003E-02   4.47683427E-12
  -2.98999995E-02   4.76204146E-12
  -2.98500005E-02   5.05098133E-12
  -2.97999997E-02   5.34923278E-12
  -2.97500007E-02   5.65053993E-12
  -2.96999998E-02   5.93802221E-12
  -2.96500009E-02   6.19034338E-12
  -2.96000000E-02   6.39019610E-12
  -2.95499992E-02   6.53126858E-12
  -2.95000002E-02   6.62043077E-12
  -2.94499993E-02   6.67395479E-12
  -2.94000003E-02   6.70933144E-12
  -2.93499995E-02   6.73630943E-12
  -2.93000005E-02   6.75127489E-12
  -2.92499997E-02   6.73765644E-12
  -2.92000007E-02   6.67234107E-12
  -2.91499998E-02   6.53532220E-12
  -2.91000009E-02   6.31825278E-12
  -2.90500000E-02   6.02795895E-12
  -2.89999992E-02   5.68316054E-12
  -2.89500002E-02   5.30570813E-12
  -2.88999993E-02   4.91021199E-12
  -2.88500004E-02   4.49680571E-12
  -2.87999995E-02   4.05049735E-12
  -2.87500005E-02   3.54761815E-12
  -2.86999997E-02   2.96662022E-12
  -2.86500007E-02   2.29838848E-12
  -2.85999998E-02   1.55134271E-12
  -2.85500009E-02   7.48864620E-13
  -2.85000000E-02  -7.99741472E-14
  -2.84499992E-02  -9.12341275E-13
  -2.84000002E-02  -1.74089942E-12
  -2.83499993E-02  -2.57613310E-12
  -2.83000004E-02  -3.44053128E-12
  -2.82499995E-02  -4.35705855E-12
  -2.82000005E-02  -5.33702162E-12
  -2.81499997E-02  -6.37280029E-12
  -2.81000007E-02  -7.43885075E-12
  -2.80499998E-02  -8.50068366E-12
  -2.80000009E-02  -9.52787502E-12
  -2.79500000E-02  -1.05053232E-11
  -2.78999992E-02  -1.14376130E-11
  -2.78500002E-02  -1.23444718E-11
  -2.77999993E-02  -1.32492168E-11
  -2.77500004E-02  -1.41653156E-11
  -2.76999995E-02  -1.50870670E-11
  -2.76500005E-02  -1.59886722E-11
  -2.75999997E-02  -1.68322873E-11
  -2.75500007E-02  -1.75815994E-11
  -2.74999999E-02  -1.82149313E-11
  -2.74500009E-02  -1.87319812E-11
  -2.74000000E-02  -1.91511286E-11
  -2.73499992E-02  -1.94984150E-11
  -2.73000002E-02  -1.97930804E-11
  -2.72499993E-02  -2.00361151E-11
  -2.72000004E-02  -2.02069941E-11
  -2.71499995E-02  -2.02701363E-11
  -2.71000005E-02  -2.01883562E-11
  -2.70499997E-02  -1.99373955E-11
  -2.70000007E-02  -1.95151170E-11
  -2.69499999E-02  -1.89411889E-11
  -2.69000009E-02  -1.82472631E-11
  -2.68500000E-02  -1.74619312E-11
  -2.67999992E-02  -1.65970449E-11
  -2.67500002E-02  -1.56415783E-11
  -2.66999993E-02  -1.45658346E-11
  -2.66500004E-02  -1.33343085E-11
  -2.65999995E-02  -1.19216043E-11
  -2.65500005E-02  -1.03244930E-11
  -2.64999997E-02  -8.56477736E-12
  -2.64500007E-02  -6.68161707E-12
  -2.63999999E-02  -4.71654313E-12
  -2.63500009E-02  -2.69761665E-12
  -2.63000000E-02  -6.29640871E-13
  -2.62499992E-02   1.50524677E-12
  -2.62000002E-02   3.73669325E-12
  -2.61499994E-02   6.08958110E-12
  -2.61000004E-02   8.56899968E-12
  -2.60499995E-02   1.11532979E-11
  -2.60000005E-02   1.37983704E-11
  -2.59499997E-02   1.64514131E-11
  -2.59000007E-02   1.90683441E-11
  -2.58499999E-02   2.16273839E-11
  -2.58000009E-02   2.41328901E-11
  -2.57500000E-02   2.66076865E-11
  -2.56999992E-02   2.90770828E-11
  -2.56500002E-02   3.15513553E-11
  -2.55999994E-02   3.40143053E-11
  -2.55500004E-02   3.64230313E-11
  -2.54999995E-02   3.87192084E-11
  -2.54500005E-02   4.08472561E-11
  -2.53999997E-02   4.27716508E-11
  -2.53500007E-02   4.44858178E-11
  -2.52999999E-02   4.60085997E-11
  -2.52500009E-02   4.73696325E-11
  -2.52000000E-02   4.85898058E-11
  -2.51499992E-02   4.96653413E-11
  -2.51000002E-02   5.05624813E-11
  -2.50499994E-02   5.12255446E-11
  -2.50000004E-02   5.15953287E-11
  -2.49499995E-02   5.16301377E-11
  -2.49000005E-02   5.13204826E-11
  -2.48499997E-02   5.06905802E-11
  -2.48000007E-02   4.97857207E-11
  -2.47499999E-02   4.86503962E-11
  -2.47000009E-02   4.73066239E-11
  -2.46500000E-02   4.57419519E-11
  -2.45999992E-02   4.39127623E-11
  -2.45500002E-02   4.17619966E-11
  -2.44999994E-02   3.92440316E-11
  -2.44500004E-02   3.63460616E-11
  -2.43999995E-02   3.30964527E-11
  -2.43500005E-02   2.95558647E-11
  -2.42999997E-02   2.57944291E-11
  -2.42500007E-02   2.18644859E-11
  -2.41999999E-02   1.77808497E-11
  -2.41500009E-02   1.35177746E-11
  -2.41000000E-02   9.02460658E-12
  -2.40499992E-02   4.25399126E-12
  -2.40000002E-02  -8.09578478E-13
  -2.39499994E-02  -6.13355373E-12
  -2.39000004E-02  -1.16412401E-11
  -2.38499995E-02  -1.72347952E-11
  -2.38000005E-02  -2.28278993E-11
  -2.37499997E-02  -2.83739022E-11
  -2.37000007E-02  -3.38766688E-11
  -2.36499999E-02  -3.93787052E-11
  -2.36000009E-02  -4.49309097E-11
  -2.35500000E-02  -5.05570030E-11
  -2.34999992E-02  -5.62286918E-11
  -2.34500002E-02  -6.18632159E-11
  -2.33999994E-02  -6.73453793E-11
  -2.33500004E-02  -7.25650859E-11
  -2.32999995E-02  -7.74538350E-11
  -2.32500006E-02  -8.20036608E-11
  -2.31999997E-02  -8.62593469E-11
  -2.31500007E-02  -9.02863201E-11
  -2.30999999E-02  -9.41281220E-11
  -2.30500009E-02  -9.77722556E-11
  -2.30000000E-02  -1.01140742E-10
  -2.29499992E-02  -1.04110588E-10
  -2.29000002E-02  -1.06556236E-10
  -2.28499994E-02  -1.08395598E-10
  -2.28000004E-02  -1.09618613E-10
  -2.27499995E-02  -1.10284740E-10
  -2.27000006E-02  -1.10489423E-10
  -2.26499997E-02  -1.10313723E-10
  -2.26000007E-02  -1.09779748E-10
  -2.25499999E-02  -1.08832429E-10
  -2.25000009E-02  -1.07357082E-10
  -2.24500000E-02  -1.05226106E-10
  -2.23999992E-02  -1.02354535E-10
  -2.23500002E-02  -9.87393639E-11
  -2.22999994E-02  -9.44641726E-11
  -2.22500004E-02  -8.96654972E-11
  -2.21999995E-02  -8.44753018E-11
  -2.21500006E-02  -7.89649526E-11
  -2.20999997E-02  -7.31165961E-11
  -2.20500007E-02  -6.68359049E-11
  -2.19999999E-02  -6.00015870E-11
  -2.19500009E-02  -5.25299561E-11
  -2.19000001E-02  -4.44252482E-11
  -2.18499992E-02  -3.57922719E-11
  -2.18000002E-02  -2.68042984E-11
  -2.17499994E-02  -1.76398254E-11
  -2.17000004E-02  -8.41617227E-12
  -2.16499995E-02   8.49327065E-13
  -2.16000006E-02   1.02320314E-11
  -2.15499997E-02   1.98485013E-11
  -2.15000007E-02   2.97834639E-11
  -2.14499999E-02   4.00286262E-11
  -2.14000009E-02   5.04619992E-11
  -2.13500001E-02   6.08787118E-11
  -2.12999992E-02   7.10604908E-11
  -2.12500002E-02   8.08529632E-11
  -2.11999994E-02   9.02152589E-11
  -2.11500004E-02   9.92185570E-11
  -2.10999995E-02   1.07992747E-10
  -2.10500006E-02   1.16644736E-10
  -2.09999997E-02   1.25185487E-10
  -2.09500007E-02   1.33499933E-10
  -2.08999999E-02   1.41374870E-10
  -2.08500009E-02   1.48573834E-10
  -2.08000001E-02   1.54925475E-10
  -2.07499992E-02   1.60384941E-10
  -2.07000002E-02   1.65039302E-10
  -2.06499994E-02   1.69053355E-10
  -2.06000004E-02   1.72579243E-10
  -2.05499995E-02   1.75671519E-10
  -2.05000006E-02   1.78246473E-10
  -2.04499997E-02   1.80106374E-10
  -2.04000007E-02   1.81018367E-10
  -2.03499999E-02   1.80813656E-10
  -2.03000009E-02   1.79461265E-10
  -2.02500001E-02   1.77082002E-10
  -2.01999992E-02   1.73894940E-10
  -2.01500002E-02   1.70119585E-10
  -2.00999994E-02   1.65878339E-10
  -2.00500004E-02   1.61144278E-10
  -1.99999996E-02   1.55759128E-10
  -1.99500006E-02   1.49514540E-10
  -1.98999997E-02   1.42259787E-10
  -1.98500007E-02   1.33986669E-10
  -1.97999999E-02   1.24851823E-10
  -1.97500009E-02   1.15124660E-10
  -1.97000001E-02   1.05083858E-10
  -1.96499992E-02   9.49090667E-11
  -1.96000002E-02   8.46182291E-11
  -1.95499994E-02   7.40804293E-11
  -1.95000004E-02   6.30996366E-11
  -1.94499996E-02   5.15318552E-11
  -1.94000006E-02   3.93817375E-11
  -1.93499997E-02   2.68332613E-11
  -1.93000007E-02   1.41989103E-11
  -1.92499999E-02   1.80932960E-12
  -1.92000009E-02  -1.01067505E-11
  -1.91500001E-02  -2.14972207E-11
  -1.90999992E-02  -3.24804489E-11
  -1.90500002E-02  -4.32600171E-11
  -1.89999994E-02  -5.39984307E-11
  -1.89500004E-02  -6.47078988E-11
  -1.88999996E-02  -7.52091930E-11
  -1.88500006E-02  -8.51790791E-11
  -1.87999997E-02  -9.42662823E-11
  -1.87500007E-02  -1.02223729E-10
  -1.86999999E-02  -1.08996284E-10
  -1.86500009E-02  -1.14723279E-10
  -1.86000001E-02  -1.19653162E-10
  -1.85499992E-02  -1.24008900E-10
  -1.85000002E-02  -1.27865440E-10
  -1.84499994E-02  -1.31096384E-10
  -1.84000004E-02  -1.33415320E-10
  -1.83499996E-02  -1.34494388E-10
  -1.83000006E-02  -1.34106504E-10
  -1.82499997E-02  -1.32226258E-10
  -1.82000007E-02  -1.29042027E-10
  -1.81499999E-02  -1.24872807E-10
  -1.81000009E-02  -1.20027321E-10
  -1.80500001E-02  -1.14669413E-10
  -1.79999992E-02  -1.08752708E-10
  -1.79500002E-02  -1.02055149E-10
  -1.78999994E-02  -9.42998596E-11
  -1.78500004E-02  -8.53072613E-11
  -1.77999996E-02  -7.51085305E-11
  -1.77500006E-02  -6.39672620E-11
  -1.76999997E-02  -5.22988979E-11
  -1.76500008E-02  -4.05231543E-11
  -1.75999999E-02  -2.89164023E-11
  -1.75500009E-02  -1.75324564E-11
  -1.75000001E-02  -6.22816772E-12
  -1.74499992E-02   5.21485155E-12
  -1.74000002E-02   1.69292653E-11
  -1.73499994E-02   2.88339561E-11
  -1.73000004E-02   4.06006270E-11
  -1.72499996E-02   5.17301028E-11
  -1.72000006E-02   6.17062582E-11
  -1.71499997E-02   7.01570677E-11
  -1.71000008E-02   7.69495023E-11
  -1.70499999E-02   8.21734417E-11
  -1.70000009E-02   8.60216204E-11
  -1.69500001E-02   8.86177035E-11
  -1.68999992E-02   8.98717489E-11
  -1.68500002E-02   8.94295540E-11
  -1.67999994E-02   8.67419817E-11
  -1.67500004E-02   8.12224177E-11
  -1.66999996E-02   7.24222626E-11
  -1.66500006E-02   6.01446878E-11
  -1.65999997E-02   4.44447187E-11
  -1.65500008E-02   2.55149148E-11
  -1.64999999E-02   3.50728387E-12
  -1.64500009E-02  -2.16280101E-11
  -1.64000001E-02  -5.02101208E-11
  -1.63499992E-02  -8.27731564E-11
  -1.63000003E-02  -1.19908222E-10
  -1.62499994E-02  -1.62077060E-10
  -1.62000004E-02  -2.09480600E-10
  -1.61499996E-02  -2.62043248E-10
  -1.61000006E-02  -3.19521604E-10
  -1.60499997E-02  -3.81687987E-10
  -1.60000008E-02  -4.48504983E-10
  -1.59499999E-02  -5.20214927E-10
  -1.59000009E-02  -5.97298988E-10
  -1.58500001E-02  -6.80322410E-10
  -1.57999992E-02  -7.69733999E-10
  -1.57500003E-02  -8.65714056E-10
  -1.56999994E-02  -9.68138236E-10
  -1.56500004E-02  -1.07667719E-09
  -1.55999996E-02  -1.19098986E-09
  -1.55499997E-02  -1.31091471E-09
  -1.54999997E-02  -1.43657752E-09
  -1.54499998E-02  -1.56837276E-09
  -1.53999999E-02  -1.70681680E-09
  -1.53500000E-02  -1.85233640E-09
  -1.53000001E-02  -2.00509387E-09
  -1.52500002E-02  -2.16492602E-09
  -1.52000003E-02  -2.33142794E-09
  -1.51500003E-02  -2.50414955E-09
  -1.51000004E-02  -2.68280553E-09
  -1.50499996E-02  -2.86741786E-09
  -1.49999997E-02  -3.05831316E-09
  -1.49499997E-02  -3.25598526E-09
  -1.48999998E-02  -3.46087670E-09
  -1.48499999E-02  -3.67318420E-09
  -1.48000000E-02  -3.89276611E-09
  -1.47500001E-02  -4.11920276E-09
  -1.47000002E-02  -4.35198233E-09
  -1.46500003E-02  -4.59073624E-09
  -1.46000003E-02  -4.83540363E-09
  -1.45500004E-02  -5.08627318E-09
  -1.44999996E-02  -5.34384936E-09
  -1.44499997E-02  -5.60863667E-09
  -1.43999998E-02  -5.88090865E-09
  -1.43499998E-02  -6.16059470E-09
  -1.42999999E-02  -6.44731823E-09
  -1.42500000E-02  -6.74057565E-09
  -1.42000001E-02  -7.03997260E-09
  -1.41500002E-02  -7.34542471E-09
  -1.41000003E-02  -7.65723041E-09
  -1.40500003E-02  -7.97596122E-09
  -1.40000004E-02  -8.30223801E-09
  -1.39499996E-02  -8.63649241E-09
  -1.38999997E-02  -8.97879993E-09
  -1.38499998E-02  -9.32889854E-09
  -1.37999998E-02  -9.68634595E-09
  -1.37499999E-02  -1.00507842E-08
  -1.37000000E-02  -1.04221591E-08
  -1.36500001E-02  -1.08008260E-08
  -1.36000002E-02  -1.11874794E-08
  -1.35500003E-02  -1.15829177E-08
  -1.35000004E-02  -1.19877654E-08
  -1.34500004E-02  -1.24022970E-08
  -1.33999996E-02  -1.28264102E-08
  -1.33499997E-02  -1.32597560E-08
  -1.32999998E-02  -1.37020155E-08
  -1.32499998E-02  -1.41531640E-08
  -1.31999999E-02  -1.46136081E-08
  -1.31500000E-02  -1.50841668E-08
  -1.31000001E-02  -1.55658348E-08
  -1.30500002E-02  -1.60594844E-08
  -1.30000003E-02  -1.65656395E-08
  -1.29500004E-02  -1.70843890E-08
  -1.29000004E-02  -1.76155233E-08
  -1.28499996E-02  -1.81587918E-08
  -1.27999997E-02  -1.87142071E-08
  -1.27499998E-02  -1.92822025E-08
  -1.26999998E-02  -1.98636485E-08
  -1.26499999E-02  -2.04596819E-08
  -1.26000000E-02  -2.10713864E-08
  -1.25500001E-02  -2.16995009E-08
  -1.25000002E-02  -2.23443184E-08
  -1.24500003E-02  -2.30057449E-08
  -1.24000004E-02  -2.36835938E-08
  -1.23500004E-02  -2.43778917E-08
  -1.22999996E-02  -2.50890952E-08
  -1.22499997E-02  -2.58181476E-08
  -1.21999998E-02  -2.65662727E-08
  -1.21499998E-02  -2.73346643E-08
  -1.20999999E-02  -2.81241892E-08
  -1.20500000E-02  -2.89352418E-08
  -1.20000001E-02  -2.97677811E-08
  -1.19500002E-02  -3.06215853E-08
  -1.19000003E-02  -3.14966115E-08
  -1.18500004E-02  -3.23933058E-08
  -1.18000004E-02  -3.33126771E-08
  -1.17499996E-02  -3.42561499E-08
  -1.16999997E-02  -3.52252272E-08
  -1.16499998E-02  -3.62211026E-08
  -1.15999999E-02  -3.72444511E-08
  -1.15499999E-02  -3.82953864E-08
  -1.15000000E-02  -3.93737594E-08
  -1.14500001E-02  -4.04794491E-08
  -1.14000002E-02  -4.16127079E-08
  -1.13500003E-02  -4.27743458E-08
  -1.13000004E-02  -4.39655778E-08
  -1.12500004E-02  -4.51878357E-08
  -1.11999996E-02  -4.64423202E-08
  -1.11499997E-02  -4.77297561E-08
  -1.10999998E-02  -4.90503744E-08
  -1.10499999E-02  -5.04041537E-08
  -1.09999999E-02  -5.17911971E-08
  -1.09500000E-02  -5.32120481E-08
  -1.09000001E-02  -5.46678933E-08
  -1.08500002E-02  -5.61604452E-08
  -1.08000003E-02  -5.76916328E-08
  -1.07500004E-02  -5.92631721E-08
  -1.07000005E-02  -6.08762321E-08
  -1.06499996E-02  -6.25312708E-08
  -1.05999997E-02  -6.42282174E-08
  -1.05499998E-02  -6.59669297E-08
  -1.04999999E-02  -6.77477061E-08
  -1.04499999E-02  -6.95714419E-08
  -1.04000000E-02  -7.14396862E-08
  -1.03500001E-02  -7.33543430E-08
  -1.03000002E-02  -7.53172671E-08
  -1.02500003E-02  -7.73300215E-08
  -1.02000004E-02  -7.93935584E-08
  -1.01500005E-02  -8.15083538E-08
  -1.00999996E-02  -8.36748342E-08
  -1.00499997E-02  -8.58937810E-08
  -9.99999978E-03  -8.81666296E-08
  -9.94999986E-03  -9.04955613E-08
  -9.89999995E-03  -9.28831412E-08
  -9.85000003E-03  -9.53318278E-08
  -9.80000012E-03  -9.78436532E-08
  -9.75000020E-03  -1.00420102E-07
  -9.70000029E-03  -1.03062085E-07
  -9.65000037E-03  -1.05770312E-07
  -9.60000046E-03  -1.08545819E-07
  -9.54999961E-03  -1.11390285E-07
  -9.49999969E-03  -1.14306125E-07
  -9.44999978E-03  -1.17296359E-07
  -9.39999986E-03  -1.20363993E-07
  -9.34999995E-03  -1.23511626E-07
  -9.30000003E-03  -1.26741142E-07
  -9.25000012E-03  -1.30053792E-07
  -9.20000020E-03  -1.33450598E-07
  -9.15000029E-03  -1.36932812E-07
  -9.10000037E-03  -1.40502351E-07
  -9.05000046E-03  -1.44162044E-07
  -8.99999961E-03  -1.47915230E-07
  -8.94999970E-03  -1.51765505E-07
  -8.89999978E-03  -1.55716279E-07
  -8.84999987E-03  -1.59770323E-07
  -8.79999995E-03  -1.63929784E-07
  -8.75000004E-03  -1.68196465E-07
  -8.70000012E-03  -1.72572257E-07
  -8.65000021E-03  -1.77059661E-07
  -8.60000029E-03  -1.81662102E-07
  -8.55000038E-03  -1.86383645E-07
  -8.50000046E-03  -1.91228651E-07
  -8.44999962E-03  -1.96201015E-07
  -8.39999970E-03  -2.01303962E-07
  -8.34999979E-03  -2.06540150E-07
  -8.29999987E-03  -2.11911839E-07
  -8.24999996E-03  -2.17421260E-07
  -8.20000004E-03  -2.23071154E-07
  -8.15000013E-03  -2.28865076E-07
  -8.10000021E-03  -2.34807302E-07
  -8.05000030E-03  -2.40902381E-07
  -8.00000038E-03  -2.47154759E-07
  -7.95000046E-03  -2.53568260E-07
  -7.89999962E-03  -2.60145754E-07
  -7.84999970E-03  -2.66889771E-07
  -7.79999979E-03  -2.73803010E-07
  -7.74999987E-03  -2.80888486E-07
  -7.69999996E-03  -2.88150176E-07
  -7.65000004E-03  -2.95592827E-07
  -7.60000013E-03  -3.03221583E-07
  -7.55000021E-03  -3.11041646E-07
  -7.49999983E-03  -3.19057506E-07
  -7.44999992E-03  -3.27272915E-07
  -7.40000000E-03  -3.35690828E-07
  -7.35000009E-03  -3.44314373E-07
  -7.30000017E-03  -3.53147101E-07
  -7.24999979E-03  -3.62193362E-07
  -7.19999988E-03  -3.71458185E-07
  -7.14999996E-03  -3.80947000E-07
  -7.10000005E-03  -3.90665235E-07
  -7.05000013E-03  -4.00617807E-07
  -7.00000022E-03  -4.10808838E-07
  -6.94999984E-03  -4.21241907E-07
  -6.89999992E-03  -4.31920199E-07
  -6.85000001E-03  -4.42847210E-07
  -6.80000009E-03  -4.54027514E-07
  -6.75000018E-03  -4.65466456E-07
  -6.69999979E-03  -4.77169863E-07
  -6.64999988E-03  -4.89143304E-07
  -6.59999996E-03  -5.01392151E-07
  -6.55000005E-03  -5.13920895E-07
  -6.50000013E-03  -5.26733572E-07
  -6.45000022E-03  -5.39834048E-07
  -6.39999984E-03  -5.53226187E-07
  -6.34999992E-03  -5.66915105E-07
  -6.30000001E-03  -5.80906885E-07
  -6.25000009E-03  -5.95207723E-07
  -6.20000018E-03  -6.09824099E-07
  -6.14999980E-03  -6.24762038E-07
  -6.09999988E-03  -6.40026940E-07
  -6.04999997E-03  -6.55623296E-07
  -6.00000005E-03  -6.71555824E-07
  -5.95000014E-03  -6.87829186E-07
  -5.90000022E-03  -7.04448667E-07
  -5.84999984E-03  -7.21420463E-07
  -5.79999993E-03  -7.38751510E-07
  -5.75000001E-03  -7.56449140E-07
  -5.70000010E-03  -7.74519776E-07
  -5.65000018E-03  -7.92968876E-07
  -5.59999980E-03  -8.11801442E-07
  -5.54999989E-03  -8.31022192E-07
  -5.49999997E-03  -8.50636866E-07
  -5.45000006E-03  -8.70651547E-07
  -5.40000014E-03  -8.91072432E-07
  -5.35000023E-03  -9.11906852E-07
  -5.29999984E-03  -9.33162823E-07
  -5.24999993E-03  -9.54848133E-07
  -5.20000001E-03  -9.76969545E-07
  -5.15000010E-03  -9.99533768E-07
  -5.10000018E-03  -1.02254626E-06
  -5.04999980E-03  -1.04601349E-06
  -4.99999989E-03  -1.06994264E-06
  -4.94999997E-03  -1.09434166E-06
  -4.90000006E-03  -1.11921929E-06
  -4.85000014E-03  -1.14458430E-06
  -4.80000023E-03  -1.17044488E-06
  -4.74999985E-03  -1.19680817E-06
  -4.69999993E-03  -1.22368158E-06
  -4.65000002E-03  -1.25107249E-06
  -4.60000010E-03  -1.27898761E-06
  -4.55000019E-03  -1.30743433E-06
  -4.49999981E-03  -1.33642106E-06
  -4.44999989E-03  -1.36595781E-06
  -4.39999998E-03  -1.39605413E-06
  -4.35000006E-03  -1.42671945E-06
  -4.30000015E-03  -1.45796207E-06
  -4.25000023E-03  -1.48978995E-06
  -4.19999985E-03  -1.52221128E-06
  -4.14999994E-03  -1.55523469E-06
  -4.10000002E-03  -1.58886917E-06
  -4.05000011E-03  -1.62312426E-06
  -4.00000019E-03  -1.65801043E-06
  -3.94999981E-03  -1.69353848E-06
  -3.89999989E-03  -1.72971943E-06
  -3.84999998E-03  -1.76656397E-06
  -3.80000006E-03  -1.80408142E-06
  -3.74999992E-03  -1.84228065E-06
  -3.70000000E-03  -1.88117076E-06
  -3.65000009E-03  -1.92076254E-06
  -3.59999994E-03  -1.96106839E-06
  -3.55000002E-03  -2.00209979E-06
  -3.50000011E-03  -2.04386856E-06
  -3.44999996E-03  -2.08638608E-06
  -3.40000005E-03  -2.12966461E-06
  -3.34999990E-03  -2.17371394E-06
  -3.29999998E-03  -2.21854521E-06
  -3.25000007E-03  -2.26416819E-06
  -3.19999992E-03  -2.31059403E-06
  -3.15000000E-03  -2.35783455E-06
  -3.10000009E-03  -2.40590361E-06
  -3.04999994E-03  -2.45481488E-06
  -3.00000003E-03  -2.50458061E-06
  -2.95000011E-03  -2.55521354E-06
  -2.89999996E-03  -2.60672527E-06
  -2.85000005E-03  -2.65912763E-06
  -2.79999990E-03  -2.71243402E-06
  -2.74999999E-03  -2.76665787E-06
  -2.70000007E-03  -2.82181213E-06
  -2.64999992E-03  -2.87791181E-06
  -2.60000001E-03  -2.93497283E-06
  -2.55000009E-03  -2.99301109E-06
  -2.49999994E-03  -3.05204094E-06
  -2.45000003E-03  -3.11207486E-06
  -2.40000011E-03  -3.17312538E-06
  -2.34999997E-03  -3.23520612E-06
  -2.30000005E-03  -3.29833301E-06
  -2.24999990E-03  -3.36251992E-06
  -2.19999999E-03  -3.42778276E-06
  -2.15000007E-03  -3.49413676E-06
  -2.09999993E-03  -3.56159785E-06
  -2.05000001E-03  -3.63018262E-06
  -2.00000009E-03  -3.69990607E-06
  -1.94999995E-03  -3.77078049E-06
  -1.90000003E-03  -3.84281975E-06
  -1.85000000E-03  -3.91603862E-06
  -1.79999997E-03  -3.99045621E-06
  -1.75000005E-03  -4.06609070E-06
  -1.70000002E-03  -4.14295982E-06
  -1.64999999E-03  -4.22107996E-06
  -1.59999996E-03  -4.30046839E-06
  -1.55000004E-03  -4.38114012E-06
  -1.50000001E-03  -4.46311060E-06
  -1.44999998E-03  -4.54639530E-06
  -1.39999995E-03  -4.63101151E-06
  -1.35000004E-03  -4.71697695E-06
  -1.30000000E-03  -4.80430754E-06
  -1.24999997E-03  -4.89302511E-06
  -1.20000006E-03  -4.98314921E-06
  -1.15000003E-03  -5.07469576E-06
  -1.09999999E-03  -5.16767932E-06
  -1.04999996E-03  -5.26211443E-06
  -1.00000005E-03  -5.35801837E-06
  -9.50000016E-04  -5.45540934E-06
  -8.99999985E-04  -5.55430643E-06
  -8.50000011E-04  -5.65472556E-06
  -7.99999980E-04  -5.75668400E-06
  -7.50000007E-04  -5.86020451E-06
  -6.99999975E-04  -5.96530526E-06
  -6.50000002E-04  -6.07200309E-06
  -6.00000028E-04  -6.18030981E-06
  -5.49999997E-04  -6.29024271E-06
  -5.00000024E-04  -6.40181543E-06
  -4.49999992E-04  -6.51505070E-06
  -3.99999990E-04  -6.62996854E-06
  -3.49999988E-04  -6.74658759E-06
  -3.00000014E-04  -6.86492649E-06
  -2.50000012E-04  -6.98500162E-06
  -1.99999995E-04  -7.10682889E-06
  -1.50000007E-04  -7.23042922E-06
  -9.99999975E-05  -7.35581716E-06
  -4.99999987E-05  -7.48300590E-06
   0.00000000      -7.61200727E-06
   4.99999987E-05  -7.74284308E-06
   9.99999975E-05  -7.87553654E-06
   1.50000007E-04  -8.01010992E-06
   1.99999995E-04  -8.14657506E-06
   2.50000012E-04  -8.28493921E-06
   3.00000014E-04  -8.42521695E-06
   3.49999988E-04  -8.56742827E-06
   3.99999990E-04  -8.71158863E-06
   4.49999992E-04  -8.85771078E-06
   5.00000024E-04  -9.00580926E-06
   5.49999997E-04  -9.15589862E-06
   6.00000028E-04  -9.30800070E-06
   6.50000002E-04  -9.46213368E-06
   6.99999975E-04  -9.61831120E-06
   7.50000007E-04  -9.77654418E-06
   7.99999980E-04  -9.93684080E-06
   8.50000011E-04  -1.00992183E-05
   8.99999985E-04  -1.02636932E-05
   9.50000016E-04  -1.04302799E-05
   1.00000005E-03  -1.05989902E-05
   1.04999996E-03  -1.07698406E-05
   1.09999999E-03  -1.09428502E-05
   1.15000003E-03  -1.11180289E-05
   1.20000006E-03  -1.12953830E-05
   1.24999997E-03  -1.14749182E-05
   1.30000000E-03  -1.16566507E-05
   1.35000004E-03  -1.18405915E-05
   1.39999995E-03  -1.20267532E-05
   1.44999998E-03  -1.22151478E-05
   1.50000001E-03  -1.24057869E-05
   1.55000004E-03  -1.25986835E-05
   1.59999996E-03  -1.27938438E-05
   1.64999999E-03  -1.29912778E-05
   1.70000002E-03  -1.31909883E-05
   1.75000005E-03  -1.33929889E-05
   1.79999997E-03  -1.35972850E-05
   1.85000000E-03  -1.38038904E-05
   1.90000003E-03  -1.40128177E-05
   1.94999995E-03  -1.42240751E-05
   2.00000009E-03  -1.44376700E-05
   2.05000001E-03  -1.46536104E-05
   2.09999993E-03  -1.48719037E-05
   2.15000007E-03  -1.50925489E-05
   2.19999999E-03  -1.53155524E-05
   2.24999990E-03  -1.55409216E-05
   2.30000005E-03  -1.57686609E-05
   2.34999997E-03  -1.59987776E-05
   2.40000011E-03  -1.62312863E-05
   2.45000003E-03  -1.64661942E-05
   2.49999994E-03  -1.67034959E-05
   2.55000009E-03  -1.69431878E-05
   2.60000001E-03  -1.71852789E-05
   2.64999992E-03  -1.74297784E-05
   2.70000007E-03  -1.76766898E-05
   2.74999999E-03  -1.79260023E-05
   2.79999990E-03  -1.81777214E-05