  -3.99999991E-02   0.00000000    
  -3.99499983E-02   0.00000000    
  -3.99000011E-02   3.61042407E-14
  -3.98500003E-02   1.95733390E-13
  -3.97999994E-02   5.62337069E-13
  -3.97499986E-02   1.21224493E-12
  -3.97000015E-02   2.32063067E-12
  -3.96500006E-02   4.24678999E-12
  -3.95999998E-02   7.45976544E-12
  -3.95499989E-02   1.23752293E-11
  -3.95000018E-02   1.92840847E-11
  -3.94500010E-02   2.83676971E-11
  -3.94000001E-02   3.96052253E-11
  -3.93499993E-02   5.25692094E-11
  -3.92999984E-02   6.64940741E-11
  -3.92500013E-02   8.09459721E-11
  -3.92000005E-02   9.67351615E-11
  -3.91499996E-02   1.16147737E-10
  -3.90999988E-02   1.41997497E-10
  -3.90500017E-02   1.76152537E-10
  -3.90000008E-02   2.18770779E-10
  -3.89500000E-02   2.68711248E-10
  -3.88999991E-02   3.24356819E-10
  -3.88499983E-02   3.83943877E-10
  -3.88000011E-02   4.45620568E-10
  -3.87500003E-02   5.08219467E-10
  -3.86999995E-02   5.72790204E-10
  -3.86499986E-02   6.43278542E-10
  -3.86000015E-02   7.24735660E-10
  -3.85500006E-02   8.19772306E-10
  -3.84999998E-02   9.26217159E-10
  -3.84499989E-02   1.03819442E-09
  -3.84000018E-02   1.14949339E-09
  -3.83500010E-02   1.25586719E-09
  -3.83000001E-02   1.35451039E-09
  -3.82499993E-02   1.44260637E-09
  -3.81999984E-02   1.51796975E-09
  -3.81500013E-02   1.58178781E-09
  -3.81000005E-02   1.63998481E-09
  -3.80499996E-02   1.70044712E-09
  -3.79999988E-02   1.76787884E-09
  -3.79500017E-02   1.84102900E-09
  -3.79000008E-02   1.91442884E-09
  -3.78500000E-02   1.98156003E-09
  -3.77999991E-02   2.03512118E-09
  -3.77499983E-02   2.06473327E-09
  -3.77000012E-02   2.05724260E-09
  -3.76500003E-02   2.00286121E-09
  -3.75999995E-02   1.90284744E-09
  -3.75499986E-02   1.77003601E-09
  -3.75000015E-02   1.61882652E-09
  -3.74500006E-02   1.45166235E-09
  -3.73999998E-02   1.25326549E-09
  -3.73499990E-02   9.97348315E-10
  -3.73000018E-02   6.60187516E-10
  -3.72500010E-02   2.32073374E-10
  -3.72000001E-02  -2.76758089E-10
  -3.71499993E-02  -8.33850156E-10
  -3.70999984E-02  -1.38663703E-09
  -3.70500013E-02  -1.87521576E-09
  -3.70000005E-02  -2.25916130E-09
  -3.69499996E-02  -2.54803090E-09
  -3.68999988E-02  -2.81365509E-09
  -3.68500017E-02  -3.16830140E-09
  -3.68000008E-02  -3.71539977E-09
  -3.67500000E-02  -4.49992843E-09
  -3.66999991E-02  -5.48573764E-09
  -3.66499983E-02  -6.56856525E-09
  -3.66000012E-02  -7.61457475E-09
  -3.65500003E-02  -8.50831938E-09
  -3.64999995E-02  -9.19697030E-09
  -3.64499986E-02  -9.71732383E-09
  -3.64000015E-02  -1.01883968E-08
  -3.63500006E-02  -1.07590230E-08
  -3.62999998E-02  -1.15253664E-08
  -3.62499990E-02  -1.24620341E-08
  -3.62000018E-02  -1.34141267E-08
  -3.61500010E-02  -1.41645495E-08
  -3.61000001E-02  -1.45426799E-08
  -3.60499993E-02  -1.45146366E-08
  -3.59999985E-02  -1.42091388E-08
  -3.59500013E-02  -1.38695633E-08
  -3.59000005E-02  -1.37542306E-08
  -3.58499996E-02  -1.40207472E-08
  -3.57999988E-02  -1.46352201E-08
  -3.57500017E-02  -1.53499684E-08
  -3.57000008E-02  -1.57801274E-08
  -3.56500000E-02  -1.55673003E-08
  -3.55999991E-02  -1.45608468E-08
  -3.55499983E-02  -1.29169218E-08
  -3.55000012E-02  -1.10469021E-08
  -3.54500003E-02  -9.42964729E-09
  -3.53999995E-02  -8.37978664E-09
  -3.53499986E-02  -7.88571697E-09
  -3.53000015E-02  -7.59127516E-09
  -3.52500007E-02  -6.92772595E-09
  -3.51999998E-02  -5.34701305E-09
  -3.51499990E-02  -2.57107868E-09
  -3.51000018E-02   1.24512556E-09
  -3.50500010E-02   5.52620572E-09
  -3.50000001E-02   9.49324086E-09
  -3.49499993E-02   1.25108048E-08
  -3.48999985E-02   1.44006096E-08
  -3.48500013E-02   1.55522795E-08
  -3.48000005E-02   1.67592749E-08
  -3.47499996E-02   1.88533598E-08
  -3.46999988E-02   2.23132925E-08
  -3.46500017E-02   2.70281522E-08
  -3.46000008E-02   3.23175904E-08
  -3.45500000E-02   3.72030620E-08
  -3.44999991E-02   4.08281728E-08
  -3.44499983E-02   4.28607940E-08
  -3.44000012E-02   4.36922498E-08
  -3.43500003E-02   4.43086066E-08
  -3.42999995E-02   4.58511913E-08
  -3.42499986E-02   4.90531917E-08
  -3.42000015E-02   5.38325686E-08
  -3.41500007E-02   5.92627138E-08
  -3.40999998E-02   6.39529674E-08
  -3.40499990E-02   6.66622029E-08
  -3.40000018E-02   6.68597622E-08
  -3.39500010E-02   6.49812364E-08
  -3.39000002E-02   6.22635170E-08
  -3.38499993E-02   6.02145533E-08
  -3.37999985E-02   5.99235648E-08
  -3.37500013E-02   6.15048705E-08
  -3.37000005E-02   6.39499902E-08
  -3.36499996E-02   6.55093899E-08
  -3.35999988E-02   6.44733618E-08
  -3.35500017E-02   5.99979941E-08
  -3.35000008E-02   5.25653014E-08
  -3.34500000E-02   4.38298606E-08
  -3.33999991E-02   3.59082293E-08
  -3.33499983E-02   3.04344283E-08
  -3.33000012E-02   2.78048446E-08
  -3.32500003E-02   2.69451679E-08
  -3.31999995E-02   2.57123833E-08
  -3.31499986E-02   2.17874572E-08
  -3.31000015E-02   1.37031275E-08
  -3.30500007E-02   1.55696545E-09
  -3.29999998E-02  -1.29468383E-08
  -3.29499990E-02  -2.72002225E-08
  -3.29000019E-02  -3.88522849E-08
  -3.28500010E-02  -4.68862247E-08
  -3.28000002E-02  -5.20858414E-08
  -3.27499993E-02  -5.66600775E-08
  -3.26999985E-02  -6.32006802E-08
  -3.26500013E-02  -7.34548280E-08
  -3.26000005E-02  -8.74632633E-08
  -3.25499997E-02  -1.03445181E-07
  -3.24999988E-02  -1.18498747E-07
  -3.24500017E-02  -1.29846953E-07
  -3.24000008E-02  -1.36104518E-07
  -3.23500000E-02  -1.37983278E-07
  -3.22999991E-02  -1.38056890E-07
  -3.22499983E-02  -1.39627730E-07
  -3.22000012E-02  -1.45191422E-07
  -3.21500003E-02  -1.55225692E-07
  -3.20999995E-02  -1.67893390E-07
  -3.20499986E-02  -1.79810030E-07
  -3.20000015E-02  -1.87523639E-07
  -3.19500007E-02  -1.89041742E-07
  -3.18999998E-02  -1.84736564E-07
  -3.18499990E-02  -1.77229978E-07
  -3.18000019E-02  -1.70277090E-07
  -3.17500010E-02  -1.67090050E-07
  -3.17000002E-02  -1.68818048E-07
  -3.16499993E-02  -1.73894918E-07
  -3.15999985E-02  -1.78620908E-07
  -3.15500014E-02  -1.78773234E-07
  -3.15000005E-02  -1.71523254E-07
  -3.14499997E-02  -1.56760166E-07
  -3.13999988E-02  -1.37196110E-07
  -3.13500017E-02  -1.17210973E-07
  -3.13000008E-02  -1.00966993E-07
  -3.12500000E-02  -9.06167728E-08
  -3.11999992E-02  -8.53681783E-08
  -3.11500002E-02  -8.18070518E-08
  -3.10999993E-02  -7.53744871E-08
  -3.10500003E-02  -6.24042826E-08
  -3.09999995E-02  -4.18330721E-08
  -3.09500005E-02  -1.57789177E-08
  -3.08999997E-02   1.13385443E-08
  -3.08500007E-02   3.47695490E-08
  -3.07999998E-02   5.15808267E-08
  -3.07500008E-02   6.19699279E-08
  -3.07000000E-02   6.91508930E-08
  -3.06499992E-02   7.78941640E-08
  -3.06000002E-02   9.23927601E-08
  -3.05499993E-02   1.14375645E-07
  -3.05000003E-02   1.42262991E-07
  -3.04499995E-02   1.71739956E-07
  -3.04000005E-02   1.97559046E-07
  -3.03499997E-02   2.15836380E-07
  -3.03000007E-02   2.25818198E-07
  -3.02499998E-02   2.30258323E-07
  -3.02000009E-02   2.34167672E-07
  -3.01500000E-02   2.42491637E-07
  -3.00999992E-02   2.57806732E-07
  -3.00500002E-02   2.79101158E-07
  -2.99999993E-02   3.02163471E-07
  -2.99500003E-02   3.21369868E-07
  -2.98999995E-02   3.32090252E-07
  -2.98500005E-02   3.32714421E-07
  -2.97999997E-02   3.25451452E-07
  -2.97500007E-02   3.15512125E-07
  -2.96999998E-02   3.08930765E-07
  -2.96500009E-02   3.09913815E-07
  -2.96000000E-02   3.18906359E-07
  -2.95499992E-02   3.32309554E-07
  -2.95000002E-02   3.44016712E-07
  -2.94499993E-02   3.48060979E-07
  -2.94000003E-02   3.41158909E-07
  -2.93499995E-02   3.24041110E-07
  -2.93000005E-02   3.01062300E-07
  -2.92499997E-02   2.78313593E-07
  -2.92000007E-02   2.61028504E-07
  -2.91499998E-02   2.51329197E-07
  -2.91000009E-02   2.47260658E-07
  -2.90500000E-02   2.43594940E-07
  -2.89999992E-02   2.34144252E-07
  -2.89500002E-02   2.14593314E-07
  -2.88999993E-02   1.84532766E-07
  -2.88500004E-02   1.47715795E-07
  -2.87999995E-02   1.10424594E-07
  -2.87500005E-02   7.87265719E-08
  -2.86999997E-02   5.58758408E-08
  -2.86500007E-02   4.09623659E-08
  -2.85999998E-02   2.93121580E-08
  -2.85500009E-02   1.44603005E-08
  -2.85000000E-02  -9.07589648E-09
  -2.84499992E-02  -4.33436433E-08
  -2.84000002E-02  -8.59022862E-08
  -2.83499993E-02  -1.30740659E-07
  -2.83000004E-02  -1.70861540E-07
  -2.82499995E-02  -2.01391970E-07
  -2.82000005E-02  -2.21751009E-07
  -2.81499997E-02  -2.35859574E-07
  -2.81000007E-02  -2.50330373E-07
  -2.80499998E-02  -2.71493377E-07
  -2.80000009E-02  -3.02561801E-07
  -2.79500000E-02  -3.42101060E-07
  -2.78999992E-02  -3.84414477E-07
  -2.78500002E-02  -4.21746080E-07
  -2.77999993E-02  -4.47482904E-07
  -2.77500004E-02  -4.59048579E-07
  -2.76999995E-02  -4.59171702E-07
  -2.76500005E-02  -4.54827330E-07
  -2.75999997E-02  -4.54224960E-07
  -2.75500007E-02  -4.63193999E-07
  -2.74999999E-02  -4.82627229E-07
  -2.74500009E-02  -5.08107917E-07
  -2.74000000E-02  -5.31814692E-07
  -2.73499992E-02  -5.45826765E-07
  -2.73000002E-02  -5.45447506E-07
  -2.72499993E-02  -5.31220167E-07
  -2.72000004E-02  -5.08797314E-07
  -2.71499995E-02  -4.86622753E-07
  -2.71000005E-02  -4.72300314E-07
  -2.70499997E-02  -4.69198199E-07
  -2.70000007E-02  -4.74871598E-07
  -2.69499999E-02  -4.82122744E-07
  -2.69000009E-02  -4.82251778E-07
  -2.68500000E-02  -4.68978129E-07
  -2.67999992E-02  -4.41232089E-07
  -2.67500002E-02  -4.03615985E-07
  -2.66999993E-02  -3.64430491E-07
  -2.66500004E-02  -3.32156986E-07
  -2.65999995E-02  -3.11846208E-07
  -2.65500005E-02  -3.02914117E-07
  -2.64999997E-02  -2.99347448E-07
  -2.64500007E-02  -2.92370174E-07
  -2.63999999E-02  -2.74521256E-07
  -2.63500009E-02  -2.43308477E-07
  -2.63000000E-02  -2.02658583E-07
  -2.62499992E-02  -1.61401744E-07
  -2.62000002E-02  -1.29456268E-07
  -2.61499994E-02  -1.13487282E-07
  -2.61000004E-02  -1.13995270E-07
  -2.60499995E-02  -1.25082451E-07
  -2.60000005E-02  -1.36943981E-07
  -2.59499997E-02  -1.40045103E-07
  -2.59000007E-02  -1.29293511E-07
  -2.58499999E-02  -1.06444816E-07
  -2.58000009E-02  -7.96262185E-08
  -2.57500000E-02  -6.00015824E-08
  -2.56999992E-02  -5.69346916E-08
  -2.56500002E-02  -7.38487600E-08
  -2.55999994E-02  -1.06747031E-07
  -2.55500004E-02  -1.46106970E-07
  -2.54999995E-02  -1.81243621E-07
  -2.54500005E-02  -2.05106872E-07
  -2.53999997E-02  -2.17401919E-07
  -2.53500007E-02  -2.24761337E-07
  -2.52999999E-02  -2.37961672E-07
  -2.52500009E-02  -2.67347104E-07
  -2.52000000E-02  -3.18334799E-07
  -2.51499992E-02  -3.88932136E-07
  -2.51000002E-02  -4.70447219E-07
  -2.50499994E-02  -5.51243431E-07
  -2.50000004E-02  -6.21923675E-07
  -2.49499995E-02  -6.79519587E-07
  -2.49000005E-02  -7.28700968E-07
  -2.48499997E-02  -7.79496133E-07
  -2.48000007E-02  -8.42699876E-07
  -2.47499999E-02  -9.25112204E-07
  -2.47000009E-02  -1.02668230E-06
  -2.46500000E-02  -1.14068462E-06
  -2.45999992E-02  -1.25675911E-06
  -2.45500002E-02  -1.36553297E-06
  -2.44999994E-02  -1.46289699E-06
  -2.44500004E-02  -1.55202974E-06
  -2.43999995E-02  -1.64209860E-06
  -2.43500005E-02  -1.74405682E-06
  -2.42999997E-02  -1.86546856E-06
  -2.42500007E-02  -2.00688828E-06
  -2.41999999E-02  -2.16152125E-06
  -2.41500009E-02  -2.31826721E-06
  -2.41000000E-02  -2.46663376E-06
  -2.40499992E-02  -2.60123988E-06
  -2.40000002E-02  -2.72408079E-06
  -2.39499994E-02  -2.84370549E-06
  -2.39000004E-02  -2.97164593E-06
  -2.38499995E-02  -3.11748818E-06
  -2.38000005E-02  -3.28463466E-06
  -2.37499997E-02  -3.46866887E-06
  -2.37000007E-02  -3.65920755E-06
  -2.36499999E-02  -3.84458008E-06
  -2.36000009E-02  -4.01704028E-06
  -2.35500000E-02  -4.17605952E-06
  -2.34999992E-02  -4.32823344E-06
  -2.34500002E-02  -4.48408082E-06
  -2.33999994E-02  -4.65344010E-06
  -2.33500004E-02  -4.84143993E-06
  -2.32999995E-02  -5.04652553E-06
  -2.32500006E-02  -5.26125132E-06
  -2.31999997E-02  -5.47555919E-06
  -2.31500007E-02  -5.68118730E-06
  -2.30999999E-02  -5.87534942E-06
  -2.30500009E-02  -6.06198546E-06
  -2.30000000E-02  -6.24977338E-06
  -2.29499992E-02  -6.44791908E-06
  -2.29000002E-02  -6.66196138E-06
  -2.28499994E-02  -6.89158196E-06
  -2.28000004E-02  -7.13125701E-06
  -2.27499995E-02  -7.37308756E-06
  -2.27000006E-02  -7.61037472E-06
  -2.26499997E-02  -7.84053918E-06
  -2.26000007E-02  -8.06623120E-06
  -2.25499999E-02  -8.29437340E-06
  -2.25000009E-02  -8.53331676E-06
  -2.24500000E-02  -8.78911760E-06
  -2.23999992E-02  -9.06291007E-06
  -2.23500002E-02  -9.35055141E-06
  -2.22999994E-02  -9.64480296E-06
  -2.22500004E-02  -9.93895264E-06
  -2.21999995E-02  -1.02298609E-05
  -2.21500006E-02  -1.05191393E-05
  -2.20999997E-02  -1.08121531E-05
  -2.20500007E-02  -1.11156924E-05
  -2.19999999E-02  -1.14352661E-05
  -2.19500009E-02  -1.17730378E-05
  -2.19000001E-02  -1.21270596E-05
  -2.18499992E-02  -1.24920707E-05
  -2.18000002E-02  -1.28618949E-05
  -2.17499994E-02  -1.32323848E-05
  -2.17000004E-02  -1.36033577E-05
  -2.16499995E-02  -1.39786816E-05
  -2.16000006E-02  -1.43646539E-05
  -2.15499997E-02  -1.47673054E-05
  -2.15000007E-02  -1.51902041E-05
  -2.14499999E-02  -1.56337719E-05
  -2.14000009E-02  -1.60955660E-05
  -2.13500001E-02  -1.65713009E-05
  -2.12999992E-02  -1.70562780E-05
  -2.12500002E-02  -1.75468704E-05
  -2.11999994E-02  -1.80416537E-05
  -2.11500004E-02  -1.85418248E-05
  -2.10999995E-02  -1.90504888E-05
  -2.10500006E-02  -1.95709399E-05
  -2.09999997E-02  -2.01053481E-05
  -2.09500007E-02  -2.06545483E-05
  -2.08999999E-02  -2.12182003E-05
  -2.08500009E-02  -2.17952838E-05
  -2.08000001E-02  -2.23843526E-05
  -2.07499992E-02  -2.29836987E-05
  -2.07000002E-02  -2.35919670E-05
  -2.06499994E-02  -2.42089936E-05
  -2.06000004E-02  -2.48360793E-05
  -2.05499995E-02  -2.54751703E-05
  -2.05000006E-02  -2.61278692E-05
  -2.04499997E-02  -2.67947689E-05
  -2.04000007E-02  -2.74751928E-05
  -2.03499999E-02  -2.81670982E-05
  -2.03000009E-02  -2.88677620E-05
  -2.02500001E-02  -2.95748014E-05
  -2.01999992E-02  -3.02868793E-05
  -2.01500002E-02  -3.10042487E-05
  -2.00999994E-02  -3.17294034E-05
  -2.00500004E-02  -3.24665198E-05
  -1.99999996E-02  -3.32194177E-05
  -1.99500006E-02  -3.39897524E-05
  -1.98999997E-02  -3.47759742E-05
  -1.98500007E-02  -3.55737029E-05
  -1.97999999E-02  -3.63779545E-05
  -1.97500009E-02  -3.71857059E-05
  -1.97000001E-02  -3.79973244E-05
  -1.96499992E-02  -3.88165790E-05
  -1.96000002E-02  -3.96499199E-05
  -1.95499994E-02  -4.05045321E-05
  -1.95000004E-02  -4.13854541E-05
  -1.94499996E-02  -4.22933263E-05
  -1.94000006E-02  -4.32231063E-05
  -1.93499997E-02  -4.41661359E-05
  -1.93000007E-02  -4.51146989E-05
  -1.92499999E-02  -4.60662886E-05
  -1.92000009E-02  -4.70250561E-05
  -1.91500001E-02  -4.80000926E-05
  -1.90999992E-02  -4.90024831E-05
  -1.90500002E-02  -5.00413043E-05
  -1.89999994E-02  -5.11203871E-05
  -1.89500004E-02  -5.22368064E-05
  -1.88999996E-02  -5.33815000E-05
  -1.88500006E-02  -5.45434450E-05
  -1.87999997E-02  -5.57159365E-05
  -1.87500007E-02  -5.69001495E-05
  -1.86999999E-02  -5.81053537E-05
  -1.86500009E-02  -5.93461264E-05
  -1.86000001E-02  -6.06360009E-05
  -1.85499992E-02  -6.19827842E-05
  -1.85000002E-02  -6.33865639E-05
  -1.84499994E-02  -6.48400019E-05
  -1.84000004E-02  -6.63322353E-05
  -1.83499996E-02  -6.78547731E-05
  -1.83000006E-02  -6.94069677E-05
  -1.82499997E-02  -7.09965534E-05
  -1.82000007E-02  -7.26366925E-05
  -1.81499999E-02  -7.43420824E-05
  -1.81000009E-02  -7.61228002E-05
  -1.80500001E-02  -7.79793409E-05
  -1.79999992E-02  -7.99034024E-05
  -1.79500002E-02  -8.18827684E-05
  -1.78999994E-02  -8.39081549E-05
  -1.78500004E-02  -8.59792126E-05
  -1.77999996E-02  -8.81066226E-05
  -1.77500006E-02  -9.03096006E-05
  -1.76999997E-02  -9.26077846E-05
  -1.76500008E-02  -9.50137255E-05
  -1.75999999E-02  -9.75288713E-05
  -1.75500009E-02  -1.00144141E-04
  -1.75000001E-02  -1.02844548E-04
  -1.74499992E-02  -1.05615385E-04
  -1.74000002E-02  -1.08449742E-04
  -1.73499994E-02  -1.11353082E-04
  -1.73000004E-02  -1.14343580E-04
  -1.72499996E-02  -1.17446645E-04
  -1.72000006E-02  -1.20682926E-04
  -1.71499997E-02  -1.24058308E-04
  -1.71000008E-02  -1.27563821E-04
  -1.70499999E-02  -1.31181427E-04
  -1.70000009E-02  -1.34895730E-04
  -1.69500001E-02  -1.38700343E-04
  -1.68999992E-02  -1.42598874E-04
  -1.68500002E-02  -1.46605831E-04
  -1.67999994E-02  -1.50744367E-04
  -1.67500004E-02  -1.55037429E-04
  -1.66999996E-02  -1.59497184E-04
  -1.66500006E-02  -1.64120254E-04
  -1.65999997E-02  -1.68887767E-04
  -1.65500008E-02  -1.73775930E-04
  -1.64999999E-02  -1.78770220E-04
  -1.64500009E-02  -1.83872951E-04
  -1.64000001E-02  -1.89102357E-04
  -1.63499992E-02  -1.94480686E-04
  -1.63000003E-02  -2.00026407E-04
  -1.62499994E-02  -2.05751669E-04
  -1.62000004E-02  -2.11656137E-04
  -1.61499996E-02  -2.17727225E-04
  -1.61000006E-02  -2.23944764E-04
  -1.60499997E-02  -2.30291334E-04
  -1.60000008E-02  -2.36763735E-04
  -1.59499999E-02  -2.43377639E-04
  -1.59000009E-02  -2.50160869E-04
  -1.58500001E-02  -2.57138978E-04
  -1.57999992E-02  -2.64324277E-04
  -1.57500003E-02  -2.71710043E-04
  -1.56999994E-02  -2.79276981E-04
  -1.56500004E-02  -2.87003029E-04
  -1.55999996E-02  -2.94870872E-04
  -1.55499997E-02  -3.02873610E-04
  -1.54999997E-02  -3.11022188E-04
  -1.54499998E-02  -3.19342798E-04
  -1.53999999E-02  -3.27867136E-04
  -1.53500000E-02  -3.36619240E-04
  -1.53000001E-02  -3.45602079E-04
  -1.52500002E-02  -3.54796211E-04
  -1.52000003E-02  -3.64170963E-04
  -1.51500003E-02  -3.73703078E-04
  -1.51000004E-02  -3.83384788E-04
  -1.50499996E-02  -3.93226335E-04
  -1.49999997E-02  -4.03249607E-04
  -1.49499997E-02  -4.13483067E-04
  -1.48999998E-02  -4.23954509E-04
  -1.48499999E-02  -4.34671558E-04
  -1.48000000E-02  -4.45623416E-04
  -1.47500001E-02  -4.56786569E-04
  -1.47000002E-02  -4.68134123E-04
  -1.46500003E-02  -4.79651411E-04
  -1.46000003E-02  -4.91344719E-04
  -1.45500004E-02  -5.03239164E-04
  -1.44999996E-02  -5.15365100E-04
  -1.44499997E-02  -5.27747499E-04
  -1.43999998E-02  -5.40393637E-04
  -1.43499998E-02  -5.53292339E-04
  -1.42999999E-02  -5.66420495E-04
  -1.42500000E-02  -5.79748827E-04
  -1.42000001E-02  -5.93260105E-04
  -1.41500002E-02  -6.06962014E-04
  -1.41000003E-02  -6.20881387E-04
  -1.40500003E-02  -6.35054545E-04
  -1.40000004E-02  -6.49511989E-04
  -1.39499996E-02  -6.64261403E-04
  -1.38999997E-02  -6.79292541E-04
  -1.38499998E-02  -6.94581191E-04
  -1.37999998E-02  -7.10095861E-04
  -1.37499999E-02  -7.25823513E-04
  -1.37000000E-02  -7.41772878E-04
  -1.36500001E-02  -7.57962174E-04
  -1.36000002E-02  -7.74421787E-04
  -1.35500003E-02  -7.91193335E-04
  -1.35000004E-02  -8.08300159E-04
  -1.34500004E-02  -8.25730909E-04
  -1.33999996E-02  -8.43452581E-04
  -1.33499997E-02  -8.61425360E-04
  -1.32999998E-02  -8.79629340E-04
  -1.32499998E-02  -8.98071332E-04
  -1.31999999E-02  -9.16775316E-04
  -1.31500000E-02  -9.35780699E-04
  -1.31000001E-02  -9.55127703E-04
  -1.30500002E-02  -9.74845316E-04
  -1.30000003E-02  -9.94940521E-04
  -1.29500004E-02  -1.01538748E-03
  -1.29000004E-02  -1.03614852E-03
  -1.28499996E-02  -1.05720537E-03
  -1.27999997E-02  -1.07855513E-03
  -1.27499998E-02  -1.10021443E-03
  -1.26999998E-02  -1.12222275E-03
  -1.26499999E-02  -1.14460487E-03
  -1.26000000E-02  -1.16736116E-03
  -1.25500001E-02  -1.19049673E-03
  -1.25000002E-02  -1.21401041E-03
  -1.24500003E-02  -1.23788882E-03
  -1.24000004E-02  -1.26211427E-03
  -1.23500004E-02  -1.28667918E-03
  -1.22999996E-02  -1.31161476E-03
  -1.22499997E-02  -1.33698538E-03
  -1.21999998E-02  -1.36285659E-03
  -1.21499998E-02  -1.38924748E-03
  -1.20999999E-02  -1.41613069E-03
  -1.20500000E-02  -1.44345558E-03
  -1.20000001E-02  -1.47116499E-03
  -1.19500002E-02  -1.49922876E-03
  -1.19000003E-02  -1.52764679E-03
  -1.18500004E-02  -1.55642885E-03
  -1.18000004E-02  -1.58560893E-03
  -1.17499996E-02  -1.61523942E-03
  -1.16999997E-02  -1.64538017E-03
  -1.16499998E-02  -1.67609798E-03
  -1.15999999E-02  -1.70743035E-03
  -1.15499999E-02  -1.73936097E-03
  -1.15000000E-02  -1.77184097E-03
  -1.14500001E-02  -1.80486077E-03
  -1.14000002E-02  -1.83847116E-03
  -1.13500003E-02  -1.87270844E-03
  -1.13000004E-02  -1.90755981E-03
  -1.12500004E-02  -1.94298767E-03
  -1.11999996E-02  -1.97895034E-03
  -1.11499997E-02  -2.01541861E-03
  -1.10999998E-02  -2.05236208E-03
  -1.10499999E-02  -2.08974420E-03
  -1.09999999E-02  -2.12754053E-03
  -1.09500000E-02  -2.16579926E-03
  -1.09000001E-02  -2.20465101E-03
  -1.08500002E-02  -2.24424107E-03
  -1.08000003E-02  -2.28468631E-03
  -1.07500004E-02  -2.32603727E-03
  -1.07000005E-02  -2.36827880E-03
  -1.06499996E-02  -2.41138018E-03
  -1.05999997E-02  -2.45530717E-03
  -1.05499998E-02  -2.50002020E-03
  -1.04999999E-02  -2.54545477E-03
  -1.04499999E-02  -2.59155082E-03
  -1.04000000E-02  -2.63830414E-03
  -1.03500001E-02  -2.68574338E-03
  -1.03000002E-02  -2.73388927E-03
  -1.02500003E-02  -2.78273108E-03
  -1.02000004E-02  -2.83225114E-03
  -1.01500005E-02  -2.88243336E-03
  -1.00999996E-02  -2.93330313E-03
  -1.00499997E-02  -2.98495917E-03
  -9.99999978E-03  -3.03753582E-03
  -9.94999986E-03  -3.09112086E-03
  -9.89999995E-03  -3.14574735E-03
  -9.85000003E-03  -3.20143159E-03
  -9.80000012E-03  -3.25817126E-03
  -9.75000020E-03  -3.31594795E-03
  -9.70000029E-03  -3.37472837E-03
  -9.65000037E-03  -3.43443174E-03
  -9.60000046E-03  -3.49496980E-03
  -9.54999961E-03  -3.55637772E-03
  -9.49999969E-03  -3.61880567E-03
  -9.44999978E-03  -3.68235051E-03
  -9.39999986E-03  -3.74699081E-03
  -9.34999995E-03  -3.81266745E-03
  -9.30000003E-03  -3.87935573E-03
  -9.25000012E-03  -3.94707778E-03
  -9.20000020E-03  -4.01581405E-03
  -9.15000029E-03  -4.08549327E-03
  -9.10000037E-03  -4.15608007E-03
  -9.05000046E-03  -4.22764989E-03
  -8.99999961E-03  -4.30036336E-03
  -8.94999970E-03  -4.37428942E-03
  -8.89999978E-03  -4.44941362E-03
  -8.84999987E-03  -4.52571828E-03
  -8.79999995E-03  -4.60318336E-03
  -8.75000004E-03  -4.68183775E-03
  -8.70000012E-03  -4.76170005E-03
  -8.65000021E-03  -4.84279310E-03
  -8.60000029E-03  -4.92520025E-03
  -8.55000038E-03  -5.00896946E-03
  -8.50000046E-03  -5.09404624E-03
  -8.44999962E-03  -5.18042361E-03
  -8.39999970E-03  -5.26816817E-03
  -8.34999979E-03  -5.35725290E-03
  -8.29999987E-03  -5.44753531E-03
  -8.24999996E-03  -5.53889154E-03
  -8.20000004E-03  -5.63137978E-03
  -8.15000013E-03  -5.72518678E-03
  -8.10000021E-03  -5.82045317E-03
  -8.05000030E-03  -5.91715612E-03
  -8.00000038E-03  -6.01521647E-03
  -7.95000046E-03  -6.11461839E-03
  -7.89999962E-03  -6.21539354E-03
  -7.84999970E-03  -6.31751632E-03
  -7.79999979E-03  -6.42089639E-03
  -7.74999987E-03  -6.52551791E-03
  -7.69999996E-03  -6.63144747E-03
  -7.65000004E-03  -6.73879869E-03
  -7.60000013E-03  -6.84768613E-03
  -7.55000021E-03  -6.95816055E-03
  -7.49999983E-03  -7.07026757E-03
  -7.44999992E-03  -7.18397647E-03
  -7.40000000E-03  -7.29916943E-03
  -7.35000009E-03  -7.41581758E-03
  -7.30000017E-03  -7.53394607E-03
  -7.24999979E-03  -7.65354279E-03
  -7.19999988E-03  -7.77466409E-03
  -7.14999996E-03  -7.89741985E-03
  -7.10000005E-03  -8.02185852E-03
  -7.05000013E-03  -8.14791396E-03
  -7.00000022E-03  -8.27552844E-03
  -6.94999984E-03  -8.40461347E-03
  -6.89999992E-03  -8.53510574E-03
  -6.85000001E-03  -8.66706017E-03
  -6.80000009E-03  -8.80049821E-03
  -6.75000018E-03  -8.93544964E-03
  -6.69999979E-03  -9.07203462E-03
  -6.64999988E-03  -9.21032671E-03
  -6.59999996E-03  -9.35032591E-03
  -6.55000005E-03  -9.49203316E-03
  -6.50000013E-03  -9.63533670E-03
  -6.45000022E-03  -9.78016015E-03
  -6.39999984E-03  -9.92652867E-03
  -6.34999992E-03  -1.00744637E-02
  -6.30000001E-03  -1.02240844E-02
  -6.25000009E-03  -1.03755100E-02
  -6.20000018E-03  -1.05288168E-02
  -6.14999980E-03  -1.06841996E-02
  -6.09999988E-03  -1.08416490E-02
  -6.04999997E-03  -1.10008474E-02
  -6.00000005E-03  -1.11615006E-02
  -5.95000014E-03  -1.13235628E-02
  -5.90000022E-03  -1.14873340E-02
  -5.84999984E-03  -1.16529614E-02
  -5.79999993E-03  -1.18203713E-02
  -5.75000001E-03  -1.19894901E-02
  -5.70000010E-03  -1.21602435E-02
  -5.65000018E-03  -1.23327607E-02
  -5.59999980E-03  -1.25072645E-02
  -5.54999989E-03  -1.26836970E-02
  -5.49999997E-03  -1.28617091E-02
  -5.45000006E-03  -1.30409990E-02
  -5.40000014E-03  -1.32216997E-02
  -5.35000023E-03  -1.34043908E-02
  -5.29999984E-03  -1.35893663E-02
  -5.24999993E-03  -1.37765333E-02
  -5.20000001E-03  -1.39654772E-02
  -5.15000010E-03  -1.41559895E-02
  -5.10000018E-03  -1.43484268E-02
  -5.04999980E-03  -1.45429745E-02
  -4.99999989E-03  -1.47396000E-02
  -4.94999997E-03  -1.49380239E-02
  -4.90000006E-03  -1.51379434E-02
  -4.85000014E-03  -1.53396465E-02
  -4.80000023E-03  -1.55435251E-02
  -4.74999985E-03  -1.57497618E-02
  -4.69999993E-03  -1.59581192E-02
  -4.65000002E-03  -1.61678232E-02
  -4.60000010E-03  -1.63785536E-02
  -4.55000019E-03  -1.65907443E-02
  -4.49999981E-03  -1.68049745E-02
  -4.44999989E-03  -1.70214288E-02
  -4.39999998E-03  -1.72397066E-02
  -4.35000006E-03  -1.74593814E-02
  -4.30000015E-03  -1.76808350E-02
  -4.25000023E-03  -1.79047827E-02
  -4.19999985E-03  -1.81312729E-02
  -4.14999994E-03  -1.83595680E-02
  -4.10000002E-03  -1.85888261E-02
  -4.05000011E-03  -1.88192893E-02
  -4.00000019E-03  -1.90519448E-02
  -3.94999981E-03  -1.92871932E-02
  -3.89999989E-03  -1.95245612E-02
  -3.84999998E-03  -1.97634641E-02
  -3.80000006E-03  -2.00040527E-02
  -3.74999992E-03  -2.02465393E-02
  -3.70000000E-03  -2.04909574E-02
  -3.65000009E-03  -2.07372550E-02
  -3.59999994E-03  -2.09849682E-02
  -3.55000002E-03  -2.12337095E-02
  -3.50000011E-03  -2.14838181E-02
  -3.44999996E-03  -2.17361432E-02
  -3.40000005E-03  -2.19909046E-02
  -3.34999990E-03  -2.22475827E-02
  -3.29999998E-03  -2.25054715E-02
  -3.25000007E-03  -2.27643698E-02
  -3.19999992E-03  -2.30248012E-02
  -3.15000000E-03  -2.32872032E-02
  -3.10000009E-03  -2.35513076E-02
  -3.04999994E-03  -2.38166116E-02
  -3.00000003E-03  -2.40831804E-02
  -2.95000011E-03  -2.43515875E-02
  -2.89999996E-03  -2.46222969E-02
  -2.85000005E-03  -2.48949025E-02
  -2.79999990E-03  -2.51687430E-02
  -2.74999999E-03  -2.54433211E-02
  -2.70000007E-03  -2.57188398E-02
  -2.64999992E-03  -2.59958990E-02
  -2.60000001E-03  -2.62745991E-02
  -2.55000009E-03  -2.65546907E-02
  -2.49999994E-03  -2.68359259E-02
  -2.45000003E-03  -2.71184817E-02
  -2.40000011E-03  -2.74026729E-02
  -2.34999997E-03  -2.76884846E-02
  -2.30000005E-03  -2.79751774E-02
  -2.24999990E-03  -2.82622203E-02
  -2.19999999E-03  -2.85496563E-02
  -2.15000007E-03  -2.88377870E-02
  -2.09999993E-03  -2.91270614E-02
  -2.05000001E-03  -2.94174757E-02
  -2.00000009E-03  -2.97089741E-02
  -1.94999995E-03  -3.00016161E-02
  -1.90000003E-03  -3.02947666E-02
  -1.85000000E-03  -3.05879172E-02
  -1.79999997E-03  -3.08814812E-02
  -1.75000005E-03  -3.11762318E-02
  -1.70000002E-03  -3.14718932E-02
  -1.64999999E-03  -3.17674614E-02
  -1.59999996E-03  -3.20629925E-02
  -1.55000004E-03  -3.23591456E-02
  -1.50000001E-03  -3.26563492E-02
  -1.44999998E-03  -3.29545066E-02
  -1.39999995E-03  -3.32526155E-02
  -1.35000004E-03  -3.35497260E-02
  -1.30000000E-03  -3.38457599E-02
  -1.24999997E-03  -3.41414437E-02
  -1.20000006E-03  -3.44378091E-02
  -1.15000003E-03  -3.47346812E-02
  -1.09999999E-03  -3.50306593E-02
  -1.04999996E-03  -3.53249498E-02
  -1.00000005E-03  -3.56186070E-02
  -9.50000016E-04  -3.59128043E-02
  -8.99999985E-04  -3.62068936E-02
  -8.50000011E-04  -3.64996083E-02
  -7.99999980E-04  -3.67898457E-02
  -7.50000007E-04  -3.70779485E-02
  -6.99999975E-04  -3.73657681E-02
  -6.50000002E-04  -3.76540311E-02
  -6.00000028E-04  -3.79415415E-02
  -5.49999997E-04  -3.82269472E-02
  -5.00000024E-04  -3.85096855E-02
  -4.49999992E-04  -3.87903564E-02
  -3.99999990E-04  -3.90698351E-02
  -3.49999988E-04  -3.93476523E-02
  -3.00000014E-04  -3.96229997E-02
  -2.50000012E-04  -3.98954079E-02
  -1.99999995E-04  -4.01652940E-02
  -1.50000007E-04  -4.04333435E-02
  -9.99999975E-05  -4.06996533E-02
  -4.99999987E-05  -4.09635901E-02
   0.00000000      -4.12235036E-02
   4.99999987E-05  -4.14790101E-02
   9.99999975E-05  -4.17309999E-02
   1.50000007E-04  -4.19801436E-02
   1.99999995E-04  -4.22264487E-02
   2.50000012E-04  -4.24686112E-02
   3.00000014E-04  -4.27062213E-02
   3.49999988E-04  -4.29400392E-02
   3.99999990E-04  -4.31703664E-02
   4.49999992E-04  -4.33967337E-02
   5.00000024E-04  -4.36181203E-02
   5.49999997E-04  -4.38336246E-02
   6.00000028E-04  -4.40431572E-02
   6.50000002E-04  -4.42479700E-02
   6.99999975E-04  -4.44488041E-02
   7.50000007E-04  -4.46449593E-02
   7.99999980E-04  -4.48353961E-02
   8.50000011E-04  -4.50192057E-02
   8.99999985E-04  -4.51962277E-02
   9.50000016E-04  -4.53664437E-02
   1.00000005E-03  -4.55306619E-02
   1.04999996E-03  -4.56887893E-02
   1.09999999E-03  -4.58391979E-02
   1.15000003E-03  -4.59817685E-02
   1.20000006E-03  -4.61167656E-02
   1.24999997E-03  -4.62442338E-02
   1.30000000E-03  -4.63641956E-02
   1.35000004E-03  -4.64764871E-02
   1.39999995E-03  -4.65800911E-02
   1.44999998E-03  -4.66736667E-02
   1.50000001E-03  -4.67569232E-02
   1.55000004E-03  -4.68314774E-02
   1.59999996E-03  -4.68987711E-02
   1.64999999E-03  -4.69576456E-02
   1.70000002E-03  -4.70055975E-02
   1.75000005E-03  -4.70411442E-02
   1.79999997E-03  -4.70661446E-02
   1.85000000E-03  -4.70828339E-02
   1.90000003E-03  -4.70898189E-02
   1.94999995E-03  -4.70841862E-02
   2.00000009E-03  -4.70640361E-02
   2.05000001E-03  -4.70312461E-02
   2.09999993E-03  -4.69891131E-02
   2.15000007E-03  -4.69367951E-02
   2.19999999E-03  -4.68701608E-02
   2.24999990E-03  -4.67874594E-02
   2.30000005E-03  -4.66904044E-02
   2.34999997E-03  -4.65809777E-02
   2.40000011E-03  -4.64596003E-02
   2.45000003E-03  -4.63231876E-02
   2.49999994E-03  -4.61688228E-02
   2.55000009E-03  -4.59974520E-02
   2.60000001E-03  -4.58131246E-02
   2.64999992E-03  -4.56174985E-02
   2.70000007E-03  -4.54060659E-02
   2.74999999E-03  -4.51743901E-02
   2.79999990E-03  -4.49228957E-02