  -3.99999991E-02   0.00000000    
  -3.99499983E-02   0.00000000    
  -3.99000011E-02   0.00000000    
  -3.98500003E-02   0.00000000    
  -3.97999994E-02  -4.22140304E-19
  -3.97499986E-02  -3.41726550E-18
  -3.97000015E-02  -1.47893839E-17
  -3.96500006E-02  -4.49803579E-17
  -3.95999998E-02  -1.06920751E-16
  -3.95499989E-02  -2.09931941E-16
  -3.95000018E-02  -3.52068609E-16
  -3.94500010E-02  -5.16036400E-16
  -3.94000001E-02  -6.73426133E-16
  -3.93499993E-02  -7.97862367E-16
  -3.92999984E-02  -8.81948757E-16
  -3.92500013E-02  -9.49004173E-16
  -3.92000005E-02  -1.05097318E-15
  -3.91499996E-02  -1.24910593E-15
  -3.90999988E-02  -1.58257624E-15
  -3.90500017E-02  -2.03866791E-15
  -3.90000008E-02  -2.54143427E-15
  -3.89500000E-02  -2.96977417E-15
  -3.88999991E-02  -3.20142709E-15
  -3.88499983E-02  -3.16369368E-15
  -3.88000011E-02  -2.86455870E-15
  -3.87500003E-02  -2.38495065E-15
  -3.86999995E-02  -1.83106987E-15
  -3.86499986E-02  -1.26572059E-15
  -3.86000015E-02  -6.49662359E-16
  -3.85500006E-02   1.77211005E-16
  -3.84999998E-02   1.45987854E-15
  -3.84499989E-02   3.44655504E-15
  -3.84000018E-02   6.29485240E-15
  -3.83500010E-02   1.00106860E-14
  -3.83000001E-02   1.44537990E-14
  -3.82499993E-02   1.94121080E-14
  -3.81999984E-02   2.47111461E-14
  -3.81500013E-02   3.03062188E-14
  -3.81000005E-02   3.63145013E-14
  -3.80499996E-02   4.29753990E-14
  -3.79999988E-02   5.05611449E-14
  -3.79500017E-02   5.92794856E-14
  -3.79000008E-02   6.92097136E-14
  -3.78500000E-02   8.02957893E-14
  -3.77999991E-02   9.23924836E-14
  -3.77499983E-02   1.05334049E-13
  -3.77000012E-02   1.18983206E-13
  -3.76500003E-02   1.33232103E-13
  -3.75999995E-02   1.47960786E-13
  -3.75499986E-02   1.62990647E-13
  -3.75000015E-02   1.78073200E-13
  -3.74500006E-02   1.92923328E-13
  -3.73999998E-02   2.07263799E-13
  -3.73499990E-02   2.20829052E-13
  -3.73000018E-02   2.33301198E-13
  -3.72500010E-02   2.44204044E-13
  -3.72000001E-02   2.52829604E-13
  -3.71499993E-02   2.58280376E-13
  -3.70999984E-02   2.59668914E-13
  -3.70500013E-02   2.56433763E-13
  -3.70000005E-02   2.48638404E-13
  -3.69499996E-02   2.37068367E-13
  -3.68999988E-02   2.22977154E-13
  -3.68500017E-02   2.07476126E-13
  -3.68000008E-02   1.90768083E-13
  -3.67500000E-02   1.71583125E-13
  -3.66999991E-02   1.47175742E-13
  -3.66499983E-02   1.14037604E-13
  -3.66000012E-02   6.91427709E-14
  -3.65500003E-02   1.12289176E-14
  -3.64999995E-02  -5.84997477E-14
  -3.64499986E-02  -1.36692320E-13
  -3.64000015E-02  -2.19217263E-13
  -3.63500006E-02  -3.03082890E-13
  -3.62999998E-02  -3.88048860E-13
  -3.62499990E-02  -4.77053510E-13
  -3.62000018E-02  -5.75017735E-13
  -3.61500010E-02  -6.86339278E-13
  -3.61000001E-02  -8.12127817E-13
  -3.60499993E-02  -9.48559916E-13
  -3.59999985E-02  -1.08740111E-12
  -3.59500013E-02  -1.21881628E-12
  -3.59000005E-02  -1.33545432E-12
  -3.58499996E-02  -1.43599022E-12
  -3.57999988E-02  -1.52628387E-12
  -3.57500017E-02  -1.61719596E-12
  -3.57000008E-02  -1.71959051E-12
  -3.56500000E-02  -1.83852000E-12
  -3.55999991E-02  -1.96930102E-12
  -3.55499983E-02  -2.09768227E-12
  -3.55000012E-02  -2.20461258E-12
  -3.54500003E-02  -2.27393430E-12
  -3.53999995E-02  -2.29963856E-12
  -3.53499986E-02  -2.28908364E-12
  -3.53000015E-02  -2.26007667E-12
  -3.52500007E-02  -2.23245250E-12
  -3.51999998E-02  -2.21754841E-12
  -3.51499990E-02  -2.21045166E-12
  -3.51000018E-02  -2.18917094E-12
  -3.50500010E-02  -2.12208137E-12
  -3.50000001E-02  -1.98114854E-12
  -3.49499993E-02  -1.75532418E-12
  -3.48999985E-02  -1.45769594E-12
  -3.48500013E-02  -1.12218546E-12
  -3.48000005E-02  -7.90108593E-13
  -3.47499996E-02  -4.91825927E-13
  -3.46999988E-02  -2.31666601E-13
  -3.46500017E-02   1.63486693E-14
  -3.46000008E-02   2.98801213E-13
  -3.45500000E-02   6.62330054E-13
  -3.44999991E-02   1.13089410E-12
  -3.44499983E-02   1.69142575E-12
  -3.44000012E-02   2.29556326E-12
  -3.43500003E-02   2.87826642E-12
  -3.42999995E-02   3.38614922E-12
  -3.42499986E-02   3.80297877E-12
  -3.42000015E-02   4.15986299E-12
  -3.41500007E-02   4.52371734E-12
  -3.40999998E-02   4.96733861E-12
  -3.40499990E-02   5.53350725E-12
  -3.40000018E-02   6.20959751E-12
  -3.39500010E-02   6.92575424E-12
  -3.39000002E-02   7.57975366E-12
  -3.38499993E-02   8.07931239E-12
  -3.37999985E-02   8.38351957E-12
  -3.37500013E-02   8.52380753E-12
  -3.37000005E-02   8.59279054E-12
  -3.36499996E-02   8.70343294E-12
  -3.35999988E-02   8.93526659E-12
  -3.35500017E-02   9.29196303E-12
  -3.35000008E-02   9.69127643E-12
  -3.34500000E-02   9.99488686E-12
  -3.33999991E-02   1.00674278E-11
  -3.33499983E-02   9.83931426E-12
  -3.33000012E-02   9.34403770E-12
  -3.32500003E-02   8.71020703E-12
  -3.31999995E-02   8.10829182E-12
  -3.31499986E-02   7.67329429E-12
  -3.31000015E-02   7.43763471E-12
  -3.30500007E-02   7.30649742E-12
  -3.29999998E-02   7.09056642E-12
  -3.29499990E-02   6.58539195E-12
  -3.29000019E-02   5.66399965E-12
  -3.28500010E-02   4.34064677E-12
  -3.28000002E-02   2.77398438E-12
  -3.27499993E-02   1.20385266E-12
  -3.26999985E-02  -1.53499080E-13
  -3.26500013E-02  -1.20582277E-12
  -3.26000005E-02  -2.03381561E-12
  -3.25499997E-02  -2.86223020E-12
  -3.24999988E-02  -3.96132129E-12
  -3.24500017E-02  -5.51986842E-12
  -3.24000008E-02  -7.54711918E-12
  -3.23500000E-02  -9.85143911E-12
  -3.22999991E-02  -1.21109355E-11
  -3.22499983E-02  -1.40094958E-11
  -3.22000012E-02  -1.53794269E-11
  -3.21500003E-02  -1.62848623E-11
  -3.20999995E-02  -1.70033675E-11
  -3.20499986E-02  -1.79076164E-11
  -3.20000015E-02  -1.92955721E-11
  -3.19500007E-02  -2.12445027E-11
  -3.18999998E-02  -2.35578293E-11
  -3.18499990E-02  -2.58349783E-11
  -3.18000019E-02  -2.76392902E-11
  -3.17500010E-02  -2.86921355E-11
  -3.17000002E-02  -2.90049235E-11
  -3.16499993E-02  -2.88842908E-11
  -3.15999985E-02  -2.88006442E-11
  -3.15500014E-02  -2.91729731E-11
  -3.15000005E-02  -3.01647353E-11
  -3.14499997E-02  -3.15859700E-11
  -3.13999988E-02  -3.29532859E-11
  -3.13500017E-02  -3.36891626E-11
  -3.13000008E-02  -3.33768048E-11
  -3.12500000E-02  -3.19562363E-11
  -3.11999992E-02  -2.97681671E-11
  -3.11500002E-02  -2.74170599E-11
  -3.10999993E-02  -2.55065066E-11
  -3.10500003E-02  -2.43616256E-11
  -3.09999995E-02  -2.38651841E-11
  -3.09500005E-02  -2.34884993E-11
  -3.08999997E-02  -2.25128961E-11
  -3.08500007E-02  -2.03496907E-11
  -3.07999998E-02  -1.68167980E-11
  -3.07500008E-02  -1.22429358E-11
  -3.07000000E-02  -7.34318682E-12
  -3.06499992E-02  -2.91196733E-12
  -3.06000002E-02   5.34488903E-13
  -3.05499993E-02   3.00439274E-12
  -3.05000003E-02   5.04703397E-12
  -3.04499995E-02   7.52096822E-12
  -3.04000005E-02   1.12080865E-11
  -3.03499997E-02   1.64428818E-11
  -3.03000007E-02   2.29272729E-11
  -3.02499998E-02   2.98243825E-11
  -3.02000009E-02   3.61012782E-11
  -3.01500000E-02   4.09755077E-11
  -3.00999992E-02   4.42663718E-11
  -3.00500002E-02   4.64864987E-11
  -2.99999993E-02   4.86208677E-11
  -2.99500003E-02   5.16809096E-11
  -2.98999995E-02   5.62277482E-11
  -2.98500005E-02   6.20811111E-11
  -2.97999997E-02   6.83547108E-11
  -2.97500007E-02   7.38159325E-11
  -2.96999998E-02   7.74193418E-11
  -2.96500009E-02   7.87782964E-11
  -2.96000000E-02   7.83566823E-11
  -2.95499992E-02   7.72821113E-11
  -2.95000002E-02   7.68495198E-11
  -2.94499993E-02   7.79285803E-11
  -2.94000003E-02   8.05403660E-11
  -2.93499995E-02   8.38024303E-11
  -2.93000005E-02   8.62819607E-11
  -2.92499997E-02   8.66126199E-11
  -2.92000007E-02   8.41056738E-11
  -2.91499998E-02   7.90782093E-11
  -2.91000009E-02   7.27395297E-11
  -2.90500000E-02   6.66710576E-11
  -2.89999992E-02   6.21211138E-11
  -2.89500002E-02   5.94277405E-11
  -2.88999993E-02   5.78360138E-11
  -2.88500004E-02   5.58069563E-11
  -2.87999995E-02   5.16954778E-11
  -2.87500005E-02   4.45031373E-11
  -2.86999997E-02   3.43671029E-11
  -2.86500007E-02   2.25542553E-11
  -2.85999998E-02   1.09455908E-11
  -2.85500009E-02   1.22611144E-12
  -2.85000000E-02  -5.86375740E-12
  -2.84499992E-02  -1.08750509E-11
  -2.84000002E-02  -1.54253537E-11
  -2.83499993E-02  -2.14847359E-11
  -2.83000004E-02  -3.04789631E-11
  -2.82499995E-02  -4.26087950E-11
  -2.82000005E-02  -5.66995929E-11
  -2.81499997E-02  -7.06658274E-11
  -2.81000007E-02  -8.24000937E-11
  -2.80499998E-02  -9.06986153E-11
  -2.80000009E-02  -9.58065710E-11
  -2.79500000E-02  -9.93253951E-11
  -2.78999992E-02  -1.03504191E-10
  -2.78500002E-02  -1.10216218E-10
  -2.77999993E-02  -1.20072799E-10
  -2.77500004E-02  -1.32078723E-10
  -2.76999995E-02  -1.44002144E-10
  -2.76500005E-02  -1.53314264E-10
  -2.75999997E-02  -1.58293864E-10
  -2.75500007E-02  -1.58804775E-10
  -2.74999999E-02  -1.56387112E-10
  -2.74500009E-02  -1.53601215E-10
  -2.74000000E-02  -1.52897653E-10
  -2.73499992E-02  -1.55507315E-10
  -2.73000002E-02  -1.60850583E-10
  -2.72499993E-02  -1.66745256E-10
  -2.72000004E-02  -1.70341435E-10
  -2.71499995E-02  -1.69383244E-10
  -2.71000005E-02  -1.63239325E-10
  -2.70499997E-02  -1.53232954E-10
  -2.70000007E-02  -1.42104439E-10
  -2.69499999E-02  -1.32823946E-10
  -2.69000009E-02  -1.27270458E-10
  -2.68500000E-02  -1.25366453E-10
  -2.67999992E-02  -1.25068761E-10
  -2.67500002E-02  -1.23242805E-10
  -2.66999993E-02  -1.17051091E-10
  -2.66500004E-02  -1.05247179E-10
  -2.65999995E-02  -8.87927509E-11
  -2.65500005E-02  -7.05041858E-11
  -2.64999997E-02  -5.38627545E-11
  -2.64500007E-02  -4.15003067E-11
  -2.63999999E-02  -3.40308129E-11
  -2.63500009E-02  -2.97591118E-11
  -2.63000000E-02  -2.54183081E-11
  -2.62499992E-02  -1.76298767E-11
  -2.62000002E-02  -4.44926951E-12
  -2.61499994E-02   1.36936833E-11
  -2.61000004E-02   3.40958164E-11
  -2.60499995E-02   5.29030673E-11
  -2.60000005E-02   6.67762304E-11
  -2.59499997E-02   7.43674011E-11
  -2.59000007E-02   7.69416891E-11
  -2.58499999E-02   7.78459935E-11
  -2.58000009E-02   8.10353729E-11
  -2.57500000E-02   8.92940583E-11
  -2.56999992E-02   1.02939428E-10
  -2.56500002E-02   1.19599081E-10
  -2.55999994E-02   1.35184919E-10
  -2.55500004E-02   1.45655696E-10
  -2.54999995E-02   1.48798016E-10
  -2.54500005E-02   1.45231258E-10
  -2.53999997E-02   1.38170891E-10
  -2.53500007E-02   1.32029998E-10
  -2.52999999E-02   1.30459865E-10
  -2.52500009E-02   1.34693409E-10
  -2.52000000E-02   1.42938689E-10
  -2.51499992E-02   1.51115842E-10
  -2.51000002E-02   1.54637025E-10
  -2.50499994E-02   1.50456383E-10
  -2.50000004E-02   1.38480810E-10
  -2.49499995E-02   1.21698443E-10
  -2.49000005E-02   1.04941222E-10
  -2.48499997E-02   9.28058949E-11
  -2.48000007E-02   8.76434064E-11
  -2.47499999E-02   8.85142931E-11
  -2.47000009E-02   9.15940379E-11
  -2.46500000E-02   9.18743900E-11
  -2.45999992E-02   8.54260065E-11
  -2.45500002E-02   7.12232426E-11
  -2.44999994E-02   5.17090641E-11
  -2.44500004E-02   3.18247650E-11
  -2.43999995E-02   1.69095103E-11
  -2.43500005E-02   1.03863255E-11
  -2.42999997E-02   1.22635244E-11
  -2.42500007E-02   1.91351639E-11
  -2.41999999E-02   2.57074067E-11
  -2.41500009E-02   2.71977683E-11
  -2.41000000E-02   2.15515192E-11
  -2.40499992E-02   1.04830354E-11
  -2.40000002E-02  -1.14409589E-12
  -2.39499994E-02  -7.35277724E-12
  -2.39000004E-02  -3.62215032E-12
  -2.38499995E-02   1.11430379E-11
  -2.38000005E-02   3.41292654E-11
  -2.37499997E-02   5.98566335E-11
  -2.37000007E-02   8.26203064E-11
  -2.36499999E-02   9.90622168E-11
  -2.36000009E-02   1.09728879E-10
  -2.35500000E-02   1.18904372E-10
  -2.34999992E-02   1.32765784E-10
  -2.34500002E-02   1.56655924E-10
  -2.33999994E-02   1.92674682E-10
  -2.33500004E-02   2.38666836E-10
  -2.32999995E-02   2.89078345E-10
  -2.32500006E-02   3.37327610E-10
  -2.31999997E-02   3.78658660E-10
  -2.31500007E-02   4.12212625E-10
  -2.30999999E-02   4.41382986E-10
  -2.30500009E-02   4.72271777E-10
  -2.30000000E-02   5.10904818E-10
  -2.29499992E-02   5.60428370E-10
  -2.29000002E-02   6.19532092E-10
  -2.28499994E-02   6.82816526E-10
  -2.28000004E-02   7.42965578E-10
  -2.27499995E-02   7.93781818E-10
  -2.27000006E-02   8.32743929E-10
  -2.26499997E-02   8.61942517E-10
  -2.26000007E-02   8.86957563E-10
  -2.25499999E-02   9.14155251E-10
  -2.25000009E-02   9.47584566E-10
  -2.24500000E-02   9.86854154E-10
  -2.23999992E-02   1.02694742E-09
  -2.23500002E-02   1.06008002E-09
  -2.22999994E-02   1.07880316E-09
  -2.22500004E-02   1.07898379E-09
  -2.21999995E-02   1.06133857E-09
  -2.21500006E-02   1.03082209E-09
  -2.20999997E-02   9.94120342E-10
  -2.20500007E-02   9.56339785E-10
  -2.19999999E-02   9.18361498E-10
  -2.19500009E-02   8.76039075E-10
  -2.19000001E-02   8.21616664E-10
  -2.18499992E-02   7.46762596E-10
  -2.18000002E-02   6.45881404E-10
  -2.17499994E-02   5.18239174E-10
  -2.17000004E-02   3.67944425E-10
  -2.16499995E-02   2.01775166E-10
  -2.16000006E-02   2.57956191E-11
  -2.15499997E-02  -1.57739197E-10
  -2.15000007E-02  -3.51816160E-10
  -2.14499999E-02  -5.63775970E-10
  -2.14000009E-02  -8.02482580E-10
  -2.13500001E-02  -1.07478060E-09
  -2.12999992E-02  -1.38281442E-09
  -2.12500002E-02  -1.72339476E-09
  -2.11999994E-02  -2.08971240E-09
  -2.11500004E-02  -2.47466225E-09
  -2.10999995E-02  -2.87429724E-09
  -2.10500006E-02  -3.28989946E-09
  -2.09999997E-02  -3.72772524E-09
  -2.09500007E-02  -4.19654311E-09
  -2.08999999E-02  -4.70401496E-09
  -2.08500009E-02  -5.25354871E-09
  -2.08000001E-02  -5.84300430E-09
  -2.07499992E-02  -6.46584786E-09
  -2.07000002E-02  -7.11424031E-09
  -2.06499994E-02  -7.78271669E-09
  -2.06000004E-02  -8.47082582E-09
  -2.05499995E-02  -9.18352594E-09
  -2.05000006E-02  -9.92918725E-09
  -2.04499997E-02  -1.07160458E-08
  -2.04000007E-02  -1.15486793E-08
  -2.03499999E-02  -1.24260726E-08
  -2.03000009E-02  -1.33421203E-08
  -2.02500001E-02  -1.42883838E-08
  -2.01999992E-02  -1.52578519E-08
  -2.01500002E-02  -1.62480838E-08
  -2.00999994E-02  -1.72623000E-08
  -2.00500004E-02  -1.83079933E-08
  -1.99999996E-02  -1.93935907E-08
  -1.99500006E-02  -2.05247250E-08
  -1.98999997E-02  -2.17017107E-08
  -1.98500007E-02  -2.29193642E-08
  -1.97999999E-02  -2.41692515E-08
  -1.97500009E-02  -2.54434092E-08
  -1.97000001E-02  -2.67378368E-08
  -1.96499992E-02  -2.80542558E-08
  -1.96000002E-02  -2.93993612E-08
  -1.95499994E-02  -3.07818517E-08
  -1.95000004E-02  -3.22085718E-08
  -1.94499996E-02  -3.36815091E-08
  -1.94000006E-02  -3.51968801E-08
  -1.93499997E-02  -3.67468012E-08
  -1.93000007E-02  -3.83228027E-08
  -1.92499999E-02  -3.99195415E-08
  -1.92000009E-02  -4.15372057E-08
  -1.91500001E-02  -4.31814797E-08
  -1.90999992E-02  -4.48610855E-08
  -1.90500002E-02  -4.65840344E-08
  -1.89999994E-02  -4.83542166E-08
  -1.89500004E-02  -5.01698203E-08
  -1.88999996E-02  -5.20243617E-08
  -1.88500006E-02  -5.39097407E-08
  -1.87999997E-02  -5.58200988E-08
  -1.87500007E-02  -5.77546828E-08
  -1.86999999E-02  -5.97185092E-08
  -1.86500009E-02  -6.17205345E-08
  -1.86000001E-02  -6.37700737E-08
  -1.85499992E-02  -6.58732020E-08
  -1.85000002E-02  -6.80305305E-08
  -1.84499994E-02  -7.02375189E-08
  -1.84000004E-02  -7.24870191E-08
  -1.83499996E-02  -7.47730624E-08
  -1.83000006E-02  -7.70941497E-08
  -1.82499997E-02  -7.94545088E-08
  -1.82000007E-02  -8.18630141E-08
  -1.81499999E-02  -8.43299972E-08
  -1.81000009E-02  -8.68635226E-08
  -1.80500001E-02  -8.94666954E-08
  -1.79999992E-02  -9.21372418E-08
  -1.79500002E-02  -9.48694989E-08
  -1.78999994E-02  -9.76579457E-08
  -1.78500004E-02  -1.00500642E-07
  -1.77999996E-02  -1.03401291E-07
  -1.77500006E-02  -1.06368638E-07
  -1.76999997E-02  -1.09413911E-07
  -1.76500008E-02  -1.12547077E-07
  -1.75999999E-02  -1.15773766E-07
  -1.75500009E-02  -1.19094160E-07
  -1.75000001E-02  -1.22504332E-07
  -1.74499992E-02  -1.25999293E-07
  -1.74000002E-02  -1.29576648E-07
  -1.73499994E-02  -1.33239070E-07
  -1.73000004E-02  -1.36994487E-07
  -1.72499996E-02  -1.40854127E-07
  -1.72000006E-02  -1.44829059E-07
  -1.71499997E-02  -1.48926858E-07
  -1.71000008E-02  -1.53149955E-07
  -1.70499999E-02  -1.57496146E-07
  -1.70000009E-02  -1.61961268E-07
  -1.69500001E-02  -1.66542733E-07
  -1.68999992E-02  -1.71242363E-07
  -1.68500002E-02  -1.76067275E-07
  -1.67999994E-02  -1.81028540E-07
  -1.67500004E-02  -1.86138095E-07
  -1.66999996E-02  -1.91405391E-07
  -1.66500006E-02  -1.96835046E-07
  -1.65999997E-02  -2.02426776E-07
  -1.65500008E-02  -2.08177482E-07
  -1.64999999E-02  -2.14084451E-07
  -1.64500009E-02  -2.20148465E-07
  -1.64000001E-02  -2.26375278E-07
  -1.63499992E-02  -2.32775093E-07
  -1.63000003E-02  -2.39359849E-07
  -1.62499994E-02  -2.46139990E-07
  -1.62000004E-02  -2.53121954E-07
  -1.61499996E-02  -2.60307303E-07
  -1.61000006E-02  -2.67694162E-07
  -1.60499997E-02  -2.75280001E-07
  -1.60000008E-02  -2.83065049E-07
  -1.59499999E-02  -2.91054135E-07
  -1.59000009E-02  -2.99256811E-07
  -1.58500001E-02  -3.07685241E-07
  -1.57999992E-02  -3.16351162E-07
  -1.57500003E-02  -3.25263017E-07
  -1.56999994E-02  -3.34424556E-07
  -1.56500004E-02  -3.43835524E-07
  -1.55999996E-02  -3.53494073E-07
  -1.55499997E-02  -3.63400005E-07
  -1.54999997E-02  -3.73557100E-07
  -1.54499998E-02  -3.83973884E-07
  -1.53999999E-02  -3.94662266E-07
  -1.53500000E-02  -4.05634779E-07
  -1.53000001E-02  -4.16901685E-07
  -1.52500002E-02  -4.28468979E-07
  -1.52000003E-02  -4.40338539E-07
  -1.51500003E-02  -4.52509994E-07
  -1.51000004E-02  -4.64983657E-07
  -1.50499996E-02  -4.77763308E-07
  -1.49999997E-02  -4.90857246E-07
  -1.49499997E-02  -5.04277693E-07
  -1.48999998E-02  -5.18038689E-07
  -1.48499999E-02  -5.32152796E-07
  -1.48000000E-02  -5.46628939E-07
  -1.47500001E-02  -5.61472007E-07
  -1.47000002E-02  -5.76683988E-07
  -1.46500003E-02  -5.92266645E-07
  -1.46000003E-02  -6.08224241E-07
  -1.45500004E-02  -6.24565189E-07
  -1.44999996E-02  -6.41302222E-07
  -1.44499997E-02  -6.58450574E-07
  -1.43999998E-02  -6.76025081E-07
  -1.43499998E-02  -6.94037908E-07
  -1.42999999E-02  -7.12497410E-07
  -1.42500000E-02  -7.31408647E-07
  -1.42000001E-02  -7.50775598E-07
  -1.41500002E-02  -7.70604004E-07
  -1.41000003E-02  -7.90903300E-07
  -1.40500003E-02  -8.11687471E-07
  -1.40000004E-02  -8.32973797E-07
  -1.39499996E-02  -8.54780069E-07
  -1.38999997E-02  -8.77122375E-07
  -1.38499998E-02  -9.00013447E-07
  -1.37999998E-02  -9.23462096E-07
  -1.37499999E-02  -9.47475201E-07
  -1.37000000E-02  -9.72060661E-07
  -1.36500001E-02  -9.97229336E-07
  -1.36000002E-02  -1.02299634E-06
  -1.35500003E-02  -1.04938078E-06
  -1.35000004E-02  -1.07640335E-06
  -1.34500004E-02  -1.10408371E-06
  -1.33999996E-02  -1.13243846E-06
  -1.33499997E-02  -1.16148055E-06
  -1.32999998E-02  -1.19122046E-06
  -1.32499998E-02  -1.22166830E-06
  -1.31999999E-02  -1.25283680E-06
  -1.31500000E-02  -1.28474267E-06
  -1.31000001E-02  -1.31740694E-06
  -1.30500002E-02  -1.35085281E-06
  -1.30000003E-02  -1.38510404E-06
  -1.29500004E-02  -1.42018143E-06
  -1.29000004E-02  -1.45610272E-06
  -1.28499996E-02  -1.49288223E-06
  -1.27999997E-02  -1.53053304E-06
  -1.27499998E-02  -1.56907015E-06
  -1.26999998E-02  -1.60851130E-06
  -1.26499999E-02  -1.64887877E-06
  -1.26000000E-02  -1.69019802E-06
  -1.25500001E-02  -1.73249509E-06
  -1.25000002E-02  -1.77579511E-06
  -1.24500003E-02  -1.82011945E-06
  -1.24000004E-02  -1.86548584E-06
  -1.23500004E-02  -1.91191043E-06
  -1.22999996E-02  -1.95940970E-06
  -1.22499997E-02  -2.00800332E-06
  -1.21999998E-02  -2.05771516E-06
  -1.21499998E-02  -2.10857320E-06
  -1.20999999E-02  -2.16060766E-06
  -1.20500000E-02  -2.21384812E-06
  -1.20000001E-02  -2.26832003E-06
  -1.19500002E-02  -2.32404545E-06
  -1.19000003E-02  -2.38104394E-06
  -1.18500004E-02  -2.43933346E-06
  -1.18000004E-02  -2.49893469E-06
  -1.17499996E-02  -2.55987334E-06
  -1.16999997E-02  -2.62217895E-06
  -1.16499998E-02  -2.68588337E-06
  -1.15999999E-02  -2.75102002E-06
  -1.15499999E-02  -2.81761868E-06
  -1.15000000E-02  -2.88570573E-06
  -1.14500001E-02  -2.95530390E-06
  -1.14000002E-02  -3.02643502E-06
  -1.13500003E-02  -3.09912207E-06
  -1.13000004E-02  -3.17339277E-06
  -1.12500004E-02  -3.24927896E-06
  -1.11999996E-02  -3.32681725E-06
  -1.11499997E-02  -3.40604379E-06
  -1.10999998E-02  -3.48699314E-06
  -1.10499999E-02  -3.56969599E-06
  -1.09999999E-02  -3.65417827E-06
  -1.09500000E-02  -3.74046385E-06
  -1.09000001E-02  -3.82857661E-06
  -1.08500002E-02  -3.91854610E-06
  -1.08000003E-02  -4.01040688E-06
  -1.07500004E-02  -4.10419671E-06
  -1.07000005E-02  -4.19995740E-06
  -1.06499996E-02  -4.29772854E-06
  -1.05999997E-02  -4.39754695E-06
  -1.05499998E-02  -4.49944264E-06
  -1.04999999E-02  -4.60344427E-06
  -1.04499999E-02  -4.70957912E-06
  -1.04000000E-02  -4.81787856E-06
  -1.03500001E-02  -4.92837944E-06
  -1.03000002E-02  -5.04112404E-06
  -1.02500003E-02  -5.15615648E-06
  -1.02000004E-02  -5.27352267E-06
  -1.01500005E-02  -5.39326311E-06
  -1.00999996E-02  -5.51541416E-06
  -1.00499997E-02  -5.64000629E-06
  -9.99999978E-03  -5.76707043E-06
  -9.94999986E-03  -5.89663978E-06
  -9.89999995E-03  -6.02875298E-06
  -9.85000003E-03  -6.16345596E-06
  -9.80000012E-03  -6.30079830E-06
  -9.75000020E-03  -6.44083093E-06
  -9.70000029E-03  -6.58359932E-06
  -9.65000037E-03  -6.72914621E-06
  -9.60000046E-03  -6.87750708E-06
  -9.54999961E-03  -7.02871466E-06
  -9.49999969E-03  -7.18280580E-06
  -9.44999978E-03  -7.33982324E-06
  -9.39999986E-03  -7.49981700E-06
  -9.34999995E-03  -7.66284120E-06
  -9.30000003E-03  -7.82895131E-06
  -9.25000012E-03  -7.99820191E-06
  -9.20000020E-03  -8.17064029E-06
  -9.15000029E-03  -8.34630464E-06
  -9.10000037E-03  -8.52523408E-06
  -9.05000046E-03  -8.70746499E-06
  -8.99999961E-03  -8.89304283E-06
  -8.94999970E-03  -9.08201673E-06
  -8.89999978E-03  -9.27444489E-06
  -8.84999987E-03  -9.47038916E-06
  -8.79999995E-03  -9.66990592E-06
  -8.75000004E-03  -9.87304884E-06
  -8.70000012E-03  -1.00798607E-05
  -8.65000021E-03  -1.02903841E-05
  -8.60000029E-03  -1.05046574E-05
  -8.55000038E-03  -1.07227297E-05
  -8.50000046E-03  -1.09446537E-05
  -8.44999962E-03  -1.11704903E-05
  -8.39999970E-03  -1.14003042E-05
  -8.34999979E-03  -1.16341616E-05
  -8.29999987E-03  -1.18721191E-05
  -8.24999996E-03  -1.21142275E-05
  -8.20000004E-03  -1.23605305E-05
  -8.15000013E-03  -1.26110690E-05
  -8.10000021E-03  -1.28658894E-05
  -8.05000030E-03  -1.31250463E-05
  -8.00000038E-03  -1.33886069E-05
  -7.95000046E-03  -1.36566350E-05
  -7.89999962E-03  -1.39291997E-05
  -7.84999970E-03  -1.42063591E-05
  -7.79999979E-03  -1.44881687E-05
  -7.74999987E-03  -1.47746705E-05
  -7.69999996E-03  -1.50659080E-05
  -7.65000004E-03  -1.53619276E-05
  -7.60000013E-03  -1.56627848E-05
  -7.55000021E-03  -1.59685405E-05
  -7.49999983E-03  -1.62792694E-05
  -7.44999992E-03  -1.65950423E-05
  -7.40000000E-03  -1.69159302E-05
  -7.35000009E-03  -1.72419859E-05
  -7.30000017E-03  -1.75732621E-05
  -7.24999979E-03  -1.79097988E-05
  -7.19999988E-03  -1.82516414E-05
  -7.14999996E-03  -1.85988429E-05
  -7.10000005E-03  -1.89514685E-05
  -7.05000013E-03  -1.93095875E-05
  -7.00000022E-03  -1.96732799E-05
  -6.94999984E-03  -2.00426093E-05
  -6.89999992E-03  -2.04176395E-05
  -6.85000001E-03  -2.07984158E-05
  -6.80000009E-03  -2.11849801E-05
  -6.75000018E-03  -2.15773744E-05
  -6.69999979E-03  -2.19756530E-05
  -6.64999988E-03  -2.23798743E-05
  -6.59999996E-03  -2.27901128E-05
  -6.55000005E-03  -2.32064413E-05
  -6.50000013E-03  -2.36289288E-05
  -6.45000022E-03  -2.40576428E-05
  -6.39999984E-03  -2.44926268E-05
  -6.34999992E-03  -2.49339264E-05
  -6.30000001E-03  -2.53815797E-05
  -6.25000009E-03  -2.58356358E-05
  -6.20000018E-03  -2.62961494E-05
  -6.14999980E-03  -2.67631895E-05
  -6.09999988E-03  -2.72368325E-05
  -6.04999997E-03  -2.77171548E-05
  -6.00000005E-03  -2.82042129E-05
  -5.95000014E-03  -2.86980576E-05
  -5.90000022E-03  -2.91987326E-05
  -5.84999984E-03  -2.97062579E-05
  -5.79999993E-03  -3.02206809E-05
  -5.75000001E-03  -3.07420451E-05
  -5.70000010E-03  -3.12704215E-05
  -5.65000018E-03  -3.18058701E-05
  -5.59999980E-03  -3.23484637E-05
  -5.54999989E-03  -3.28982751E-05
  -5.49999997E-03  -3.34553442E-05
  -5.45000006E-03  -3.40197039E-05
  -5.40000014E-03  -3.45913759E-05
  -5.35000023E-03  -3.51703966E-05
  -5.29999984E-03  -3.57567915E-05
  -5.24999993E-03  -3.63506224E-05
  -5.20000001E-03  -3.69519512E-05
  -5.15000010E-03  -3.75608397E-05
  -5.10000018E-03  -3.81773534E-05
  -5.04999980E-03  -3.88015396E-05
  -4.99999989E-03  -3.94334202E-05
  -4.94999997E-03  -4.00730169E-05
  -4.90000006E-03  -4.07203333E-05
  -4.85000014E-03  -4.13753914E-05
  -4.80000023E-03  -4.20382348E-05
  -4.74999985E-03  -4.27089108E-05
  -4.69999993E-03  -4.33874775E-05
  -4.65000002E-03  -4.40739823E-05
  -4.60000010E-03  -4.47684688E-05
  -4.55000019E-03  -4.54709516E-05
  -4.49999981E-03  -4.61814307E-05
  -4.44999989E-03  -4.68998987E-05
  -4.39999998E-03  -4.76263594E-05
  -4.35000006E-03  -4.83608310E-05
  -4.30000015E-03  -4.91033425E-05
  -4.25000023E-03  -4.98539448E-05
  -4.19999985E-03  -5.06126780E-05
  -4.14999994E-03  -5.13795640E-05
  -4.10000002E-03  -5.21546099E-05
  -4.05000011E-03  -5.29377903E-05
  -4.00000019E-03  -5.37290798E-05
  -3.94999981E-03  -5.45284674E-05
  -3.89999989E-03  -5.53359423E-05
  -3.84999998E-03  -5.61515044E-05
  -3.80000006E-03  -5.69751755E-05
  -3.74999992E-03  -5.78069848E-05
  -3.70000000E-03  -5.86469505E-05
  -3.65000009E-03  -5.94950507E-05
  -3.59999994E-03  -6.03512599E-05
  -3.55000002E-03  -6.12155200E-05
  -3.50000011E-03  -6.20877690E-05
  -3.44999996E-03  -6.29679780E-05
  -3.40000005E-03  -6.38561105E-05
  -3.34999990E-03  -6.47521665E-05
  -3.29999998E-03  -6.56561460E-05
  -3.25000007E-03  -6.65680345E-05
  -3.19999992E-03  -6.74878029E-05
  -3.15000000E-03  -6.84154002E-05
  -3.10000009E-03  -6.93507463E-05
  -3.04999994E-03  -7.02937541E-05
  -3.00000003E-03  -7.12443216E-05
  -2.95000011E-03  -7.22023906E-05
  -2.89999996E-03  -7.31679393E-05
  -2.85000005E-03  -7.41409312E-05
  -2.79999990E-03  -7.51213374E-05
  -2.74999999E-03  -7.61090996E-05
  -2.70000007E-03  -7.71041377E-05
  -2.64999992E-03  -7.81063209E-05
  -2.60000001E-03  -7.91155326E-05
  -2.55000009E-03  -8.01316419E-05
  -2.49999994E-03  -8.11545397E-05
  -2.45000003E-03  -8.21841531E-05
  -2.40000011E-03  -8.32204023E-05
  -2.34999997E-03  -8.42632289E-05
  -2.30000005E-03  -8.53125675E-05
  -2.24999990E-03  -8.63683017E-05
  -2.19999999E-03  -8.74302714E-05
  -2.15000007E-03  -8.84983165E-05
  -2.09999993E-03  -8.95722333E-05
  -2.05000001E-03  -9.06518690E-05
  -2.00000009E-03  -9.17370708E-05
  -1.94999995E-03  -9.28277514E-05
  -1.90000003E-03  -9.39237943E-05
  -1.85000000E-03  -9.50251124E-05
  -1.79999997E-03  -9.61315600E-05
  -1.75000005E-03  -9.72429407E-05
  -1.70000002E-03  -9.83590362E-05
  -1.64999999E-03  -9.94795919E-05
  -1.59999996E-03  -1.00604389E-04
  -1.55000004E-03  -1.01733225E-04
  -1.50000001E-03  -1.02865939E-04
  -1.44999998E-03  -1.04002414E-04
  -1.39999995E-03  -1.05142492E-04
  -1.35000004E-03  -1.06285996E-04
  -1.30000000E-03  -1.07432686E-04
  -1.24999997E-03  -1.08582302E-04
  -1.20000006E-03  -1.09734530E-04
  -1.15000003E-03  -1.10889101E-04
  -1.09999999E-03  -1.12045724E-04
  -1.04999996E-03  -1.13204202E-04
  -1.00000005E-03  -1.14364302E-04
  -9.50000016E-04  -1.15525843E-04
  -8.99999985E-04  -1.16688614E-04
  -8.50000011E-04  -1.17852331E-04
  -7.99999980E-04  -1.19016695E-04
  -7.50000007E-04  -1.20181328E-04
  -6.99999975E-04  -1.21345860E-04
  -6.50000002E-04  -1.22509970E-04
  -6.00000028E-04  -1.23673308E-04
  -5.49999997E-04  -1.24835657E-04
  -5.00000024E-04  -1.25996768E-04
  -4.49999992E-04  -1.27156367E-04
  -3.99999990E-04  -1.28314176E-04
  -3.49999988E-04  -1.29469801E-04
  -3.00000014E-04  -1.30622822E-04
  -2.50000012E-04  -1.31772773E-04
  -1.99999995E-04  -1.32919246E-04
  -1.50000007E-04  -1.34061847E-04
  -9.99999975E-05  -1.35200244E-04
  -4.99999987E-05  -1.36334129E-04
   0.00000000      -1.37463212E-04
   4.99999987E-05  -1.38587115E-04
   9.99999975E-05  -1.39705429E-04
   1.50000007E-04  -1.40817661E-04
   1.99999995E-04  -1.41923272E-04
   2.50000012E-04  -1.43021738E-04
   3.00000014E-04  -1.44112593E-04
   3.49999988E-04  -1.45195445E-04
   3.99999990E-04  -1.46269915E-04
   4.49999992E-04  -1.47335653E-04
   5.00000024E-04  -1.48392239E-04
   5.49999997E-04  -1.49439191E-04
   6.00000028E-04  -1.50475942E-04
   6.50000002E-04  -1.51501896E-04
   6.99999975E-04  -1.52516441E-04
   7.50000007E-04  -1.53519024E-04
   7.99999980E-04  -1.54509165E-04
   8.50000011E-04  -1.55486414E-04
   8.99999985E-04  -1.56450333E-04
   9.50000016E-04  -1.57400456E-04
   1.00000005E-03  -1.58336261E-04
   1.04999996E-03  -1.59257092E-04
   1.09999999E-03  -1.60162323E-04
   1.15000003E-03  -1.61051241E-04
   1.20000006E-03  -1.61923206E-04
   1.24999997E-03  -1.62777636E-04
   1.30000000E-03  -1.63614008E-04
   1.35000004E-03  -1.64431811E-04
   1.39999995E-03  -1.65230478E-04
   1.44999998E-03  -1.66009413E-04
   1.50000001E-03  -1.66768004E-04
   1.55000004E-03  -1.67505466E-04
   1.59999996E-03  -1.68221057E-04
   1.64999999E-03  -1.68914034E-04
   1.70000002E-03  -1.69583684E-04
   1.75000005E-03  -1.70229410E-04
   1.79999997E-03  -1.70850646E-04
   1.85000000E-03  -1.71446780E-04
   1.90000003E-03  -1.72017186E-04
   1.94999995E-03  -1.72561151E-04
   2.00000009E-03  -1.73077889E-04
   2.05000001E-03  -1.73566499E-04
   2.09999993E-03  -1.74026194E-04
   2.15000007E-03  -1.74456130E-04
   2.19999999E-03  -1.74855653E-04
   2.24999990E-03  -1.75224108E-04
   2.30000005E-03  -1.75560839E-04
   2.34999997E-03  -1.75865163E-04
   2.40000011E-03  -1.76136309E-04
   2.45000003E-03  -1.76373404E-04
   2.49999994E-03  -1.76575559E-04
   2.55000009E-03  -1.76741829E-04
   2.60000001E-03  -1.76871341E-04
   2.64999992E-03  -1.76963309E-04
   2.70000007E-03  -1.77016991E-04
   2.74999999E-03  -1.77031718E-04
   2.79999990E-03  -1.77006717E-04