  -3.99999991E-02   0.00000000    
  -3.99499983E-02   0.00000000    
  -3.99000011E-02   0.00000000    
  -3.98500003E-02   0.00000000    
  -3.97999994E-02   1.00529938E-18
  -3.97499986E-02   8.89594037E-18
  -3.97000015E-02   3.98835323E-17
  -3.96500006E-02   1.19189024E-16
  -3.95999998E-02   2.60284410E-16
  -3.95499989E-02   4.19963197E-16
  -3.95000018E-02   4.47311058E-16
  -3.94500010E-02   7.07765841E-17
  -3.94000001E-02  -1.02643167E-15
  -3.93499993E-02  -3.02721401E-15
  -3.92999984E-02  -5.75611446E-15
  -3.92500013E-02  -8.54447450E-15
  -3.92000005E-02  -1.03391705E-14
  -3.91499996E-02  -1.01218946E-14
  -3.90999988E-02  -7.52195412E-15
  -3.90500017E-02  -3.31402678E-15
  -3.90000008E-02   5.69981335E-16
  -3.89500000E-02   1.72008209E-15
  -3.88999991E-02  -1.54140049E-15
  -3.88499983E-02  -8.96390065E-15
  -3.88000011E-02  -1.78954548E-14
  -3.87500003E-02  -2.40169348E-14
  -3.86999995E-02  -2.31976574E-14
  -3.86499986E-02  -1.37218084E-14
  -3.86000015E-02   2.26634295E-15
  -3.85500006E-02   1.91031866E-14
  -3.84999998E-02   2.99921255E-14
  -3.84499989E-02   3.06183369E-14
  -3.84000018E-02   2.22868412E-14
  -3.83500010E-02   1.27347321E-14
  -3.83000001E-02   1.36377700E-14
  -3.82499993E-02   3.54507276E-14
  -3.81999984E-02   8.18161050E-14
  -3.81500013E-02   1.46429838E-13
  -3.81000005E-02   2.14434224E-13
  -3.80499996E-02   2.68348332E-13
  -3.79999988E-02   2.96187418E-13
  -3.79500017E-02   2.97969440E-13
  -3.79000008E-02   2.87113866E-13
  -3.78500000E-02   2.85359247E-13
  -3.77999991E-02   3.12921699E-13
  -3.77499983E-02   3.78246018E-13
  -3.77000012E-02   4.72446247E-13
  -3.76500003E-02   5.71735367E-13
  -3.75999995E-02   6.47411974E-13
  -3.75499986E-02   6.79063630E-13
  -3.75000015E-02   6.64651439E-13
  -3.74500006E-02   6.22291173E-13
  -3.73999998E-02   5.82439316E-13
  -3.73499990E-02   5.73893851E-13
  -3.73000018E-02   6.10145452E-13
  -3.72500010E-02   6.82532047E-13
  -3.72000001E-02   7.63404802E-13
  -3.71499993E-02   8.17678444E-13
  -3.70999984E-02   8.17120297E-13
  -3.70500013E-02   7.50599723E-13
  -3.70000005E-02   6.25899126E-13
  -3.69499996E-02   4.63361283E-13
  -3.68999988E-02   2.85983341E-13
  -3.68500017E-02   1.11928885E-13
  -3.68000008E-02  -4.70447859E-14
  -3.67500000E-02  -1.82485252E-13
  -3.66999991E-02  -2.86427484E-13
  -3.66499983E-02  -3.53699573E-13
  -3.66000012E-02  -3.89896584E-13
  -3.65500003E-02  -4.19725344E-13
  -3.64999995E-02  -4.87166351E-13
  -3.64499986E-02  -6.41302712E-13
  -3.64000015E-02  -9.09665897E-13
  -3.63500006E-02  -1.27077125E-12
  -3.62999998E-02  -1.64320684E-12
  -3.62499990E-02  -1.90510888E-12
  -3.62000018E-02  -1.94418852E-12
  -3.61500010E-02  -1.71990471E-12
  -3.61000001E-02  -1.30586449E-12
  -3.60499993E-02  -8.81928211E-13
  -3.59999985E-02  -6.65472343E-13
  -3.59500013E-02  -8.03095817E-13
  -3.59000005E-02  -1.27222766E-12
  -3.58499996E-02  -1.84942621E-12
  -3.57999988E-02  -2.17959808E-12
  -3.57500017E-02  -1.93347660E-12
  -3.57000008E-02  -9.89806869E-13
  -3.56500000E-02   4.49501764E-13
  -3.55999991E-02   1.88826168E-12
  -3.55499983E-02   2.72657591E-12
  -3.55000012E-02   2.54886520E-12
  -3.54500003E-02   1.37941438E-12
  -3.53999995E-02  -2.35423172E-13
  -3.53499986E-02  -1.39789894E-12
  -3.53000015E-02  -1.24639448E-12
  -3.52500007E-02   5.95950264E-13
  -3.51999998E-02   3.72906003E-12
  -3.51499990E-02   7.01876014E-12
  -3.51000018E-02   9.01540387E-12
  -3.50500010E-02   8.60585301E-12
  -3.50000001E-02   5.61336871E-12
  -3.49499993E-02   1.03651755E-12
  -3.48999985E-02  -3.25301374E-12
  -3.48500013E-02  -5.29292625E-12
  -3.48000005E-02  -3.98216789E-12
  -3.47499996E-02   2.43607001E-13
  -3.46999988E-02   5.39127163E-12
  -3.46500017E-02   8.65492313E-12
  -3.46000008E-02   7.67310434E-12
  -3.45500000E-02   1.75353644E-12
  -3.44999991E-02  -7.54342422E-12
  -3.44499983E-02  -1.68421735E-11
  -3.44000012E-02  -2.23399233E-11
  -3.43500003E-02  -2.15971182E-11
  -3.42999995E-02  -1.49079655E-11
  -3.42499986E-02  -5.52244058E-12
  -3.42000015E-02   1.54391842E-12
  -3.41500007E-02   1.71885011E-12
  -3.40999998E-02  -6.84391909E-12
  -3.40499990E-02  -2.20122514E-11
  -3.40000018E-02  -3.81958527E-11
  -3.39500010E-02  -4.86098002E-11
  -3.39000002E-02  -4.83973833E-11
  -3.38499993E-02  -3.71999827E-11
  -3.37999985E-02  -1.98583476E-11
  -3.37500013E-02  -4.67886537E-12
  -3.37000005E-02   1.86558153E-13
  -3.36499996E-02  -9.28226072E-12
  -3.35999988E-02  -3.05221057E-11
  -3.35500017E-02  -5.48244054E-11
  -3.35000008E-02  -7.07870706E-11
  -3.34500000E-02  -6.94620056E-11
  -3.33999991E-02  -4.89119578E-11
  -3.33499983E-02  -1.59185703E-11
  -3.33000012E-02   1.62941691E-11
  -3.32500003E-02   3.36646856E-11
  -3.31999995E-02   2.79006193E-11
  -3.31499986E-02   1.03306686E-12
  -3.31000015E-02  -3.44744545E-11
  -3.30500007E-02  -6.05757874E-11
  -3.29999998E-02  -6.16456122E-11
  -3.29499990E-02  -3.21407276E-11
  -3.29000019E-02   1.97648859E-11
  -3.28500010E-02   7.47012105E-11
  -3.28000002E-02   1.10184119E-10
  -3.27499993E-02   1.10953559E-10
  -3.26999985E-02   7.68708222E-11
  -3.26500013E-02   2.43910274E-11
  -3.26000005E-02  -1.96935506E-11
  -3.25499997E-02  -2.99921268E-11
  -3.24999988E-02   5.32269931E-12
  -3.24500017E-02   7.76522111E-11
  -3.24000008E-02   1.60136904E-10
  -3.23500000E-02   2.18635943E-10
  -3.22999991E-02   2.27114397E-10
  -3.22499983E-02   1.80556917E-10
  -3.22000012E-02   9.90961202E-11
  -3.21500003E-02   2.06498360E-11
  -3.20999995E-02  -1.54408621E-11
  -3.20499986E-02   1.31802277E-11
  -3.20000015E-02   9.99345190E-11
  -3.19500007E-02   2.09984946E-10
  -3.18999998E-02   2.94263641E-10
  -3.18499990E-02   3.11345033E-10
  -3.18000019E-02   2.47516591E-10
  -3.17500010E-02   1.25466929E-10
  -3.17000002E-02  -3.40383689E-12
  -3.16499993E-02  -8.07487063E-11
  -3.15999985E-02  -6.80202075E-11
  -3.15500014E-02   3.39424634E-11
  -3.15000005E-02   1.82211538E-10
  -3.14499997E-02   3.08515047E-10
  -3.13999988E-02   3.49078516E-10
  -3.13500017E-02   2.74610251E-10
  -3.13000008E-02   1.06443049E-10
  -3.12500000E-02  -8.97151936E-11
  -3.11999992E-02  -2.31138442E-10
  -3.11500002E-02  -2.55319654E-10
  -3.10999993E-02  -1.50448168E-10
  -3.10500003E-02   3.55396650E-11
  -3.09999995E-02   2.13054505E-10
  -3.09500005E-02   2.89566982E-10
  -3.08999997E-02   2.12364709E-10
  -3.08500007E-02  -4.23775294E-12
  -3.07999998E-02  -2.80930890E-10
  -3.07500008E-02  -5.05712916E-10
  -3.07000000E-02  -5.83499360E-10
  -3.06499992E-02  -4.81181817E-10
  -3.06000002E-02  -2.46955345E-10
  -3.05499993E-02   6.71340197E-12
  -3.05000003E-02   1.50936805E-10
  -3.04499995E-02   9.89049398E-11
  -3.04000005E-02  -1.51346283E-10
  -3.03499997E-02  -5.10656128E-10
  -3.03000007E-02  -8.34122493E-10
  -3.02499998E-02  -9.84378024E-10
  -3.02000009E-02  -8.95250707E-10
  -3.01500000E-02  -6.06449224E-10
  -3.00999992E-02  -2.51515031E-10
  -3.00500002E-02  -1.78843626E-12
  -2.99999993E-02   1.04050050E-11
  -2.99500003E-02  -2.44814918E-10
  -2.98999995E-02  -6.74839851E-10
  -2.98500005E-02  -1.09968379E-09
  -2.97999997E-02  -1.32930422E-09
  -2.97500007E-02  -1.25002220E-09
  -2.96999998E-02  -8.80855444E-10
  -2.96500009E-02  -3.72191722E-10
  -2.96000000E-02   5.58322139E-11
  -2.95499992E-02   2.10343590E-10
  -2.95000002E-02   1.56173199E-11
  -2.94499993E-02  -4.45750353E-10
  -2.94000003E-02  -9.61889013E-10
  -2.93499995E-02  -1.28141464E-09
  -2.93000005E-02  -1.22607557E-09
  -2.92499997E-02  -7.75970677E-10
  -2.92000007E-02  -8.69311151E-11
  -2.91499998E-02   5.71429071E-10
  -2.91000009E-02   9.32809496E-10
  -2.90500000E-02   8.55830073E-10
  -2.89999992E-02   3.94868943E-10
  -2.89500002E-02  -2.14779278E-10
  -2.88999993E-02  -6.54992838E-10
  -2.88500004E-02  -6.65623889E-10
  -2.87999995E-02  -1.65979896E-10
  -2.87500005E-02   6.99297509E-10
  -2.86999997E-02   1.61455516E-09
  -2.86500007E-02   2.22781149E-09
  -2.85999998E-02   2.30840591E-09
  -2.85500009E-02   1.85702398E-09
  -2.85000000E-02   1.11580367E-09
  -2.84499992E-02   4.69200623E-10
  -2.84000002E-02   2.75514250E-10
  -2.83499993E-02   7.02357950E-10
  -2.83000004E-02   1.64097558E-09
  -2.82499995E-02   2.74196932E-09
  -2.82000005E-02   3.56183949E-09
  -2.81499997E-02   3.75896425E-09
  -2.81000007E-02   3.25241234E-09
  -2.80499998E-02   2.26991115E-09
  -2.80000009E-02   1.25821542E-09
  -2.79500000E-02   6.90277724E-10
  -2.78999992E-02   8.51904214E-10
  -2.78500002E-02   1.70354109E-09
  -2.77999993E-02   2.88304647E-09
  -2.77500004E-02   3.85440613E-09
  -2.76999995E-02   4.14156354E-09
  -2.76500005E-02   3.54541818E-09
  -2.75999997E-02   2.24525465E-09
  -2.75500007E-02   7.33845817E-10
  -2.74999999E-02  -3.91568444E-10
  -2.74500009E-02  -6.94204916E-10
  -2.74000000E-02  -1.01378246E-10
  -2.73499992E-02   1.04758879E-09
  -2.73000002E-02   2.13731322E-09
  -2.72499993E-02   2.54254218E-09
  -2.72000004E-02   1.91001615E-09
  -2.71499995E-02   3.29650751E-10
  -2.71000005E-02  -1.68663161E-09
  -2.70499997E-02  -3.41676820E-09
  -2.70000007E-02  -4.24352997E-09
  -2.69499999E-02  -3.93503230E-09
  -2.69000009E-02  -2.76320833E-09
  -2.68500000E-02  -1.40046164E-09
  -2.67999992E-02  -6.32137231E-10
  -2.67500002E-02  -1.00679021E-09
  -2.66999993E-02  -2.57902966E-09
  -2.66500004E-02  -4.86415974E-09
  -2.65999995E-02  -7.03331260E-09
  -2.65500005E-02  -8.27076629E-09
  -2.64999997E-02  -8.13921730E-09
  -2.64500007E-02  -6.78923051E-09
  -2.63999999E-02  -4.91277774E-09
  -2.63500009E-02  -3.45187123E-09
  -2.63000000E-02  -3.18371440E-09
  -2.62499992E-02  -4.36390124E-09
  -2.62000002E-02  -6.59005295E-09
  -2.61499994E-02  -8.95552521E-09
  -2.61000004E-02  -1.04352527E-08
  -2.60499995E-02  -1.03394440E-08
  -2.60000005E-02  -8.63423288E-09
  -2.59499997E-02  -5.98051875E-09
  -2.59000007E-02  -3.46306450E-09
  -2.58499999E-02  -2.11977791E-09
  -2.58000009E-02  -2.47475618E-09
  -2.57500000E-02  -4.28449631E-09
  -2.56999992E-02  -6.61884059E-09
  -2.56500002E-02  -8.25263946E-09
  -2.55999994E-02  -8.20402235E-09
  -2.55500004E-02  -6.18348528E-09
  -2.54999995E-02  -2.74941980E-09
  -2.54500005E-02   9.10181985E-10
  -2.53999997E-02   3.48552720E-09
  -2.53500007E-02   4.12536982E-09
  -2.52999999E-02   2.83268653E-09
  -2.52500009E-02   4.91999386E-10
  -2.52000000E-02  -1.49688684E-09
  -2.51499992E-02  -1.82869675E-09
  -2.51000002E-02   1.18273780E-10
  -2.50499994E-02   3.97814093E-09
  -2.50000004E-02   8.52436077E-09
  -2.49499995E-02   1.21856818E-08
  -2.49000005E-02   1.37337119E-08
  -2.48499997E-02   1.28404283E-08
  -2.48000007E-02   1.02518323E-08
  -2.47499999E-02   7.48710871E-09
  -2.47000009E-02   6.18183993E-09
  -2.46500000E-02   7.35708294E-09
  -2.45999992E-02   1.09387628E-08
  -2.45500002E-02   1.57507252E-08
  -2.44999994E-02   2.00003392E-08
  -2.44500004E-02   2.20558807E-08
  -2.43999995E-02   2.11776854E-08
  -2.43500005E-02   1.78747435E-08
  -2.42999997E-02   1.37150149E-08
  -2.42500007E-02   1.06565139E-08
  -2.41999999E-02   1.01826512E-08
  -2.41500009E-02   1.26220092E-08
  -2.41000000E-02   1.69625061E-08
  -2.40499992E-02   2.12587867E-08
  -2.40000002E-02   2.34696405E-08
  -2.39499994E-02   2.23647962E-08
  -2.39000004E-02   1.80981026E-08
  -2.38499995E-02   1.21806281E-08
  -2.38000005E-02   6.84702872E-09
  -2.37499997E-02   4.07951406E-09
  -2.37000007E-02   4.71496175E-09
  -2.36499999E-02   8.03660427E-09
  -2.36000009E-02   1.20474075E-08
  -2.35500000E-02   1.43237537E-08
  -2.34999992E-02   1.30856632E-08
  -2.34500002E-02   8.01217492E-09
  -2.33999994E-02   4.30302211E-10
  -2.33500004E-02  -7.22526261E-09
  -2.32999995E-02  -1.24618724E-08
  -2.32500006E-02  -1.38343914E-08
  -2.31999997E-02  -1.16146488E-08
  -2.31500007E-02  -7.71364750E-09
  -2.30999999E-02  -4.87006657E-09
  -2.30500009E-02  -5.44643530E-09
  -2.30000000E-02  -1.03591038E-08
  -2.29499992E-02  -1.86231990E-08
  -2.29000002E-02  -2.77325594E-08
  -2.28499994E-02  -3.47281137E-08
  -2.28000004E-02  -3.74968820E-08
  -2.27499995E-02  -3.57284726E-08
  -2.27000006E-02  -3.10932506E-08
  -2.26499997E-02  -2.65418372E-08
  -2.26000007E-02  -2.50151224E-08
  -2.25499999E-02  -2.81244628E-08
  -2.25000009E-02  -3.53897427E-08
  -2.24500000E-02  -4.43895765E-08
  -2.23999992E-02  -5.17803471E-08
  -2.23500002E-02  -5.47521957E-08
  -2.22999994E-02  -5.22841432E-08
  -2.22500004E-02  -4.56343265E-08
  -2.21999995E-02  -3.78277285E-08
  -2.21500006E-02  -3.23448432E-08
  -2.20999997E-02  -3.15758690E-08
  -2.20500007E-02  -3.57233105E-08
  -2.19999999E-02  -4.26527187E-08
  -2.19500009E-02  -4.87808194E-08
  -2.19000001E-02  -5.06305149E-08
  -2.18499992E-02  -4.63762504E-08
  -2.18000002E-02  -3.66916879E-08
  -2.17499994E-02  -2.45061411E-08
  -2.17000004E-02  -1.37530094E-08
  -2.16499995E-02  -7.64400543E-09
  -2.16000006E-02  -7.22614901E-09
  -2.15499997E-02  -1.08696572E-08
  -2.15000007E-02  -1.49353454E-08
  -2.14499999E-02  -1.53508406E-08
  -2.14000009E-02  -9.41480760E-09
  -2.13500001E-02   2.96775871E-09
  -2.12999992E-02   1.91802343E-08
  -2.12500002E-02   3.49898244E-08
  -2.11999994E-02   4.63821159E-08
  -2.11500004E-02   5.13352703E-08
  -2.10999995E-02   5.07444220E-08
  -2.10500006E-02   4.80685181E-08
  -2.09999997E-02   4.78306248E-08
  -2.09500007E-02   5.36146345E-08
  -2.08999999E-02   6.64377282E-08
  -2.08500009E-02   8.42283185E-08
  -2.08000001E-02   1.02662852E-07
  -2.07499992E-02   1.17016448E-07
  -2.07000002E-02   1.24225835E-07
  -2.06499994E-02   1.24253503E-07
  -2.06000004E-02   1.20135326E-07
  -2.05499995E-02   1.16666087E-07
  -2.05000006E-02   1.18280830E-07
  -2.04499997E-02   1.27056467E-07
  -2.04000007E-02   1.41721515E-07
  -2.03499999E-02   1.58130931E-07
  -2.03000009E-02   1.71021455E-07
  -2.02500001E-02   1.76292474E-07
  -2.01999992E-02   1.72811241E-07
  -2.01500002E-02   1.62934896E-07
  -2.00999994E-02   1.51496607E-07
  -2.00500004E-02   1.43678449E-07
  -1.99999996E-02   1.42694290E-07
  -1.99500006E-02   1.48304750E-07
  -1.98999997E-02   1.56835227E-07
  -1.98500007E-02   1.62713320E-07
  -1.97999999E-02   1.60870840E-07
  -1.97500009E-02   1.48961860E-07
  -1.97000001E-02   1.28413916E-07
  -1.96499992E-02   1.03829905E-07
  -1.96000002E-02   8.09792837E-08
  -1.95499994E-02   6.42447091E-08
  -1.95000004E-02   5.46435928E-08
  -1.94499996E-02   4.93074346E-08
  -1.94000006E-02   4.26696154E-08
  -1.93499997E-02   2.88624182E-08
  -1.93000007E-02   4.28337721E-09
  -1.92499999E-02  -3.07998533E-08
  -1.92000009E-02  -7.23274383E-08
  -1.91500001E-02  -1.14197285E-07
  -1.90999992E-02  -1.50938320E-07
  -1.90500002E-02  -1.80141072E-07
  -1.89999994E-02  -2.03570309E-07
  -1.89500004E-02  -2.26451562E-07
  -1.88999996E-02  -2.55221380E-07
  -1.88500006E-02  -2.94712493E-07
  -1.87999997E-02  -3.46006885E-07
  -1.87500007E-02  -4.05910527E-07
  -1.86999999E-02  -4.68302062E-07
  -1.86500009E-02  -5.26785868E-07
  -1.86000001E-02  -5.77496451E-07
  -1.85499992E-02  -6.20822277E-07
  -1.85000002E-02  -6.61277227E-07
  -1.84499994E-02  -7.05553077E-07
  -1.84000004E-02  -7.59587863E-07
  -1.83499996E-02  -8.25929305E-07
  -1.83000006E-02  -9.02555939E-07
  -1.82499997E-02  -9.83692416E-07
  -1.82000007E-02  -1.06228424E-06
  -1.81499999E-02  -1.13306271E-06
  -1.81000009E-02  -1.19485992E-06
  -1.80500001E-02  -1.25114695E-06
  -1.79999992E-02  -1.30853948E-06
  -1.79500002E-02  -1.37390361E-06
  -1.78999994E-02  -1.45131821E-06
  -1.78500004E-02  -1.54022746E-06
  -1.77999996E-02  -1.63560662E-06
  -1.77500006E-02  -1.73009141E-06
  -1.76999997E-02  -1.81715791E-06
  -1.76500008E-02  -1.89396690E-06
  -1.75999999E-02  -1.96262158E-06
  -1.75500009E-02  -2.02926913E-06
  -1.75000001E-02  -2.10142139E-06
  -1.74499992E-02  -2.18464834E-06
  -1.74000002E-02  -2.28008912E-06
  -1.73499994E-02  -2.38388407E-06
  -1.73000004E-02  -2.48879383E-06
  -1.72499996E-02  -2.58731848E-06
  -1.72000006E-02  -2.67496262E-06
  -1.71499997E-02  -2.75221919E-06
  -1.71000008E-02  -2.82438646E-06
  -1.70499999E-02  -2.89928221E-06
  -1.70000009E-02  -2.98383043E-06
  -1.69500001E-02  -3.08100994E-06
  -1.68999992E-02  -3.18851062E-06
  -1.68500002E-02  -3.29969362E-06
  -1.67999994E-02  -3.40645761E-06
  -1.67500004E-02  -3.50277628E-06
  -1.66999996E-02  -3.58736088E-06
  -1.66500006E-02  -3.66427594E-06
  -1.65999997E-02  -3.74121487E-06
  -1.65500008E-02  -3.82617554E-06
  -1.64999999E-02  -3.92397669E-06
  -1.64500009E-02  -4.03414333E-06
  -1.64000001E-02  -4.15109071E-06
  -1.63499992E-02  -4.26655333E-06
  -1.63000003E-02  -4.37320750E-06
  -1.62499994E-02  -4.46792365E-06
  -1.62000004E-02  -4.55320787E-06
  -1.61499996E-02  -4.63619199E-06
  -1.61000006E-02  -4.72560168E-06
  -1.60499997E-02  -4.82799487E-06
  -1.60000008E-02  -4.94493133E-06
  -1.59499999E-02  -5.07230470E-06
  -1.59000009E-02  -5.20215190E-06
  -1.58500001E-02  -5.32616787E-06
  -1.57999992E-02  -5.43939586E-06
  -1.57500003E-02  -5.54248709E-06
  -1.56999994E-02  -5.64152515E-06
  -1.56500004E-02  -5.74548176E-06
  -1.55999996E-02  -5.86238912E-06
  -1.55499997E-02  -5.99590112E-06
  -1.54999997E-02  -6.14373585E-06
  -1.54499998E-02  -6.29871147E-06
  -1.53999999E-02  -6.45194314E-06
  -1.53500000E-02  -6.59679108E-06
  -1.53000001E-02  -6.73187424E-06
  -1.52500002E-02  -6.86179828E-06
  -1.52000003E-02  -6.99527800E-06
  -1.51500003E-02  -7.14145608E-06
  -1.51000004E-02  -7.30600277E-06
  -1.50499996E-02  -7.48872571E-06
  -1.49999997E-02  -7.68371683E-06
  -1.49499997E-02  -7.88198486E-06
  -1.48999998E-02  -8.07548804E-06
  -1.48499999E-02  -8.26074574E-06
  -1.48000000E-02  -8.44048645E-06
  -1.47500001E-02  -8.62259913E-06
  -1.47000002E-02  -8.81681717E-06
  -1.46500003E-02  -9.03059208E-06
  -1.46000003E-02  -9.26592202E-06
  -1.45500004E-02  -9.51854872E-06
  -1.44999996E-02  -9.77989021E-06
  -1.44499997E-02  -1.00408834E-05
  -1.43999998E-02  -1.02960430E-05
  -1.43499998E-02  -1.05459731E-05
  -1.42999999E-02  -1.07972592E-05
  -1.42500000E-02  -1.10597293E-05
  -1.42000001E-02  -1.13422875E-05
  -1.41500002E-02  -1.16491256E-05
  -1.41000003E-02  -1.19779697E-05
  -1.40500003E-02  -1.23211621E-05
  -1.40000004E-02  -1.26690811E-05
  -1.39499996E-02  -1.30144599E-05
  -1.38999997E-02  -1.33556687E-05
  -1.38499998E-02  -1.36975332E-05
  -1.37999998E-02  -1.40493748E-05
  -1.37499999E-02  -1.44210808E-05
  -1.37000000E-02  -1.48188719E-05
  -1.36500001E-02  -1.52426792E-05
  -1.36000002E-02  -1.56862516E-05
  -1.35500003E-02  -1.61399621E-05
  -1.35000004E-02  -1.65950878E-05
  -1.34500004E-02  -1.70477251E-05
  -1.33999996E-02  -1.75006171E-05
  -1.33499997E-02  -1.79620911E-05
  -1.32999998E-02  -1.84425298E-05
  -1.32499998E-02  -1.89499478E-05
  -1.31999999E-02  -1.94866261E-05
  -1.31500000E-02  -2.00481827E-05
  -1.31000001E-02  -2.06255881E-05
  -1.30500002E-02  -2.12091963E-05
  -1.30000003E-02  -2.17930301E-05
  -1.29500004E-02  -2.23775405E-05
  -1.29000004E-02  -2.29695361E-05
  -1.28499996E-02  -2.35793304E-05
  -1.27999997E-02  -2.42163660E-05
  -1.27499998E-02  -2.48851848E-05
  -1.26999998E-02  -2.55835876E-05
  -1.26499999E-02  -2.63036854E-05
  -1.26000000E-02  -2.70354249E-05
  -1.25500001E-02  -2.77711479E-05
  -1.25000002E-02  -2.85090355E-05
  -1.24500003E-02  -2.92540444E-05
  -1.24000004E-02  -3.00159154E-05
  -1.23500004E-02  -3.08050840E-05
  -1.22999996E-02  -3.16282240E-05
  -1.22499997E-02  -3.24854700E-05
  -1.21999998E-02  -3.33705248E-05
  -1.21499998E-02  -3.42735257E-05
  -1.20999999E-02  -3.51854833E-05
  -1.20500000E-02  -3.61023849E-05
  -1.20000001E-02  -3.70271628E-05
  -1.19500002E-02  -3.79686098E-05
  -1.19000003E-02  -3.89377128E-05
  -1.18500004E-02  -3.99430464E-05
  -1.18000004E-02  -4.09872409E-05
  -1.17499996E-02  -4.20660290E-05
  -1.16999997E-02  -4.31703011E-05
  -1.16499998E-02  -4.42902601E-05
  -1.15999999E-02  -4.54199580E-05
  -1.15499999E-02  -4.65600751E-05
  -1.15000000E-02  -4.77177709E-05
  -1.14500001E-02  -4.89038030E-05
  -1.14000002E-02  -5.01280265E-05
  -1.13500003E-02  -5.13953564E-05
  -1.13000004E-02  -5.27037773E-05
  -1.12500004E-02  -5.40454894E-05
  -1.11999996E-02  -5.54106300E-05
  -1.11499997E-02  -5.67918978E-05
  -1.10999998E-02  -5.81880086E-05
  -1.10499999E-02  -5.96044993E-05
  -1.09999999E-02  -6.10517091E-05
  -1.09500000E-02  -6.25405592E-05
  -1.09000001E-02  -6.40781291E-05
  -1.08500002E-02  -6.56647535E-05
  -1.08000003E-02  -6.72942333E-05
  -1.07500004E-02  -6.89568187E-05
  -1.07000005E-02  -7.06435530E-05
  -1.06499996E-02  -7.23507183E-05
  -1.05999997E-02  -7.40817995E-05
  -1.05499998E-02  -7.58459719E-05
  -1.04999999E-02  -7.76544912E-05
  -1.04499999E-02  -7.95160959E-05
  -1.04000000E-02  -8.14335217E-05
  -1.03500001E-02  -8.34025850E-05
  -1.03000002E-02  -8.54143655E-05
  -1.02500003E-02  -8.74596881E-05
  -1.02000004E-02  -8.95335397E-05
  -1.01500005E-02  -9.16375211E-05
  -1.00999996E-02  -9.37795412E-05
  -1.00499997E-02  -9.59709287E-05
  -9.99999978E-03  -9.82217316E-05
  -9.94999986E-03  -1.00536708E-04
  -9.89999995E-03  -1.02913684E-04
  -9.85000003E-03  -1.05344880E-04
  -9.80000012E-03  -1.07820619E-04
  -9.75000020E-03  -1.10334324E-04
  -9.70000029E-03  -1.12885631E-04
  -9.65000037E-03  -1.15480820E-04
  -9.60000046E-03  -1.18130542E-04
  -9.54999961E-03  -1.20845252E-04
  -9.49999969E-03  -1.23631005E-04
  -9.44999978E-03  -1.26487081E-04
  -9.39999986E-03  -1.29407039E-04
  -9.34999995E-03  -1.32381829E-04
  -9.30000003E-03  -1.35403898E-04
  -9.25000012E-03  -1.38471136E-04
  -9.20000020E-03  -1.41588593E-04
  -9.15000029E-03  -1.44766382E-04
  -9.10000037E-03  -1.48015693E-04
  -9.05000046E-03  -1.51344531E-04
  -8.99999961E-03  -1.54754758E-04
  -8.94999970E-03  -1.58241615E-04
  -8.89999978E-03  -1.61796430E-04
  -8.84999987E-03  -1.65411271E-04
  -8.79999995E-03  -1.69082748E-04
  -8.75000004E-03  -1.72813961E-04
  -8.70000012E-03  -1.76613656E-04
  -8.65000021E-03  -1.80492658E-04
  -8.60000029E-03  -1.84459728E-04
  -8.55000038E-03  -1.88517966E-04
  -8.50000046E-03  -1.92663865E-04
  -8.44999962E-03  -1.96889116E-04
  -8.39999970E-03  -2.01185001E-04
  -8.34999979E-03  -2.05546763E-04
  -8.29999987E-03  -2.09975842E-04
  -8.24999996E-03  -2.14480053E-04
  -8.20000004E-03  -2.19070265E-04
  -8.15000013E-03  -2.23755764E-04
  -8.10000021E-03  -2.28541292E-04
  -8.05000030E-03  -2.33425220E-04
  -8.00000038E-03  -2.38400928E-04
  -7.95000046E-03  -2.43460352E-04
  -7.89999962E-03  -2.48598488E-04
  -7.84999970E-03  -2.53816164E-04
  -7.79999979E-03  -2.59120134E-04
  -7.74999987E-03  -2.64521368E-04
  -7.69999996E-03  -2.70030228E-04
  -7.65000004E-03  -2.75652332E-04
  -7.60000013E-03  -2.81386892E-04
  -7.55000021E-03  -2.87227391E-04
  -7.49999983E-03  -2.93165125E-04
  -7.44999992E-03  -2.99194129E-04
  -7.40000000E-03  -3.05314286E-04
  -7.35000009E-03  -3.11531243E-04
  -7.30000017E-03  -3.17855040E-04
  -7.24999979E-03  -3.24295601E-04
  -7.19999988E-03  -3.30858544E-04
  -7.14999996E-03  -3.37543373E-04
  -7.10000005E-03  -3.44344793E-04
  -7.05000013E-03  -3.51255556E-04
  -7.00000022E-03  -3.58270278E-04
  -6.94999984E-03  -3.65388027E-04
  -6.89999992E-03  -3.72614682E-04
  -6.85000001E-03  -3.79960402E-04
  -6.80000009E-03  -3.87434586E-04
  -6.75000018E-03  -3.95043811E-04
  -6.69999979E-03  -4.02789388E-04
  -6.64999988E-03  -4.10666718E-04
  -6.59999996E-03  -4.18667914E-04
  -6.55000005E-03  -4.26787039E-04
  -6.50000013E-03  -4.35023976E-04
  -6.45000022E-03  -4.43384168E-04
  -6.39999984E-03  -4.51876840E-04
  -6.34999992E-03  -4.60512150E-04
  -6.30000001E-03  -4.69296530E-04
  -6.25000009E-03  -4.78230271E-04
  -6.20000018E-03  -4.87307319E-04
  -6.14999980E-03  -4.96519031E-04
  -6.09999988E-03  -5.05859673E-04
  -6.04999997E-03  -5.15328080E-04
  -6.00000005E-03  -5.24929317E-04
  -5.95000014E-03  -5.34673221E-04
  -5.90000022E-03  -5.44570386E-04
  -5.84999984E-03  -5.54628379E-04
  -5.79999993E-03  -5.64848131E-04
  -5.75000001E-03  -5.75223996E-04
  -5.70000010E-03  -5.85747533E-04
  -5.65000018E-03  -5.96411817E-04
  -5.59999980E-03  -6.07214693E-04
  -5.54999989E-03  -6.18162274E-04
  -5.49999997E-03  -6.29264861E-04
  -5.45000006E-03  -6.40533341E-04
  -5.40000014E-03  -6.51976268E-04
  -5.35000023E-03  -6.63595740E-04
  -5.29999984E-03  -6.75386400E-04
  -5.24999993E-03  -6.87336375E-04
  -5.20000001E-03  -6.99435885E-04
  -5.15000010E-03  -7.11682835E-04
  -5.10000018E-03  -7.24081008E-04
  -5.04999980E-03  -7.36640475E-04
  -4.99999989E-03  -7.49373634E-04
  -4.94999997E-03  -7.62289681E-04
  -4.90000006E-03  -7.75391003E-04
  -4.85000014E-03  -7.88671197E-04
  -4.80000023E-03  -8.02120368E-04
  -4.74999985E-03  -8.15728039E-04
  -4.69999993E-03  -8.29486933E-04
  -4.65000002E-03  -8.43400310E-04
  -4.60000010E-03  -8.57479812E-04
  -4.55000019E-03  -8.71739641E-04
  -4.49999981E-03  -8.86191207E-04
  -4.44999989E-03  -9.00838233E-04
  -4.39999998E-03  -9.15675890E-04
  -4.35000006E-03  -9.30691604E-04
  -4.30000015E-03  -9.45871347E-04
  -4.25000023E-03  -9.61206621E-04
  -4.19999985E-03  -9.76698357E-04
  -4.14999994E-03  -9.92356916E-04
  -4.10000002E-03  -1.00819825E-03
  -4.05000011E-03  -1.02423492E-03
  -4.00000019E-03  -1.04047230E-03
  -3.94999981E-03  -1.05690595E-03
  -3.89999989E-03  -1.07352308E-03
  -3.84999998E-03  -1.09030656E-03
  -3.80000006E-03  -1.10724266E-03
  -3.74999992E-03  -1.12432952E-03
  -3.70000000E-03  -1.14157610E-03
  -3.65000009E-03  -1.15899940E-03
  -3.59999994E-03  -1.17661618E-03
  -3.55000002E-03  -1.19443552E-03
  -3.50000011E-03  -1.21245382E-03
  -3.44999996E-03  -1.23065547E-03
  -3.40000005E-03  -1.24902080E-03
  -3.34999990E-03  -1.26753352E-03
  -3.29999998E-03  -1.28618837E-03
  -3.25000007E-03  -1.30499480E-03
  -3.19999992E-03  -1.32397248E-03
  -3.15000000E-03  -1.34313921E-03
  -3.10000009E-03  -1.36250537E-03
  -3.04999994E-03  -1.38207036E-03
  -3.00000003E-03  -1.40181743E-03
  -2.95000011E-03  -1.42172375E-03
  -2.89999996E-03  -1.44177082E-03
  -2.85000005E-03  -1.46194652E-03
  -2.79999990E-03  -1.48225331E-03
  -2.74999999E-03  -1.50271028E-03
  -2.70000007E-03  -1.52334280E-03
  -2.64999992E-03  -1.54416577E-03
  -2.60000001E-03  -1.56517688E-03
  -2.55000009E-03  -1.58636225E-03
  -2.49999994E-03  -1.60769699E-03
  -2.45000003E-03  -1.62915420E-03
  -2.40000011E-03  -1.65071827E-03
  -2.34999997E-03  -1.67238771E-03
  -2.30000005E-03  -1.69417530E-03
  -2.24999990E-03  -1.71611016E-03
  -2.19999999E-03  -1.73821591E-03
  -2.15000007E-03  -1.76049711E-03
  -2.09999993E-03  -1.78294361E-03
  -2.05000001E-03  -1.80553133E-03
  -2.00000009E-03  -1.82822754E-03
  -1.94999995E-03  -1.85100746E-03
  -1.90000003E-03  -1.87386107E-03
  -1.85000000E-03  -1.89679756E-03
  -1.79999997E-03  -1.91984430E-03
  -1.75000005E-03  -1.94303354E-03
  -1.70000002E-03  -1.96637935E-03
  -1.64999999E-03  -1.98986894E-03
  -1.59999996E-03  -2.01347331E-03
  -1.55000004E-03  -2.03715707E-03
  -1.50000001E-03  -2.06088857E-03
  -1.44999998E-03  -2.08465243E-03
  -1.39999995E-03  -2.10845424E-03
  -1.35000004E-03  -2.13231868E-03
  -1.30000000E-03  -2.15627742E-03
  -1.24999997E-03  -2.18034862E-03
  -1.20000006E-03  -2.20452971E-03
  -1.15000003E-03  -2.22879485E-03
  -1.09999999E-03  -2.25310982E-03
  -1.04999996E-03  -2.27743760E-03
  -1.00000005E-03  -2.30175024E-03
  -9.50000016E-04  -2.32604588E-03
  -8.99999985E-04  -2.35034898E-03
  -8.50000011E-04  -2.37469119E-03
  -7.99999980E-04  -2.39909743E-03
  -7.50000007E-04  -2.42357352E-03
  -6.99999975E-04  -2.44809943E-03
  -6.50000002E-04  -2.47263419E-03
  -6.00000028E-04  -2.49713287E-03
  -5.49999997E-04  -2.52156029E-03
  -5.00000024E-04  -2.54590623E-03
  -4.49999992E-04  -2.57018581E-03
  -3.99999990E-04  -2.59442953E-03
  -3.49999988E-04  -2.61866557E-03
  -3.00000014E-04  -2.64290371E-03
  -2.50000012E-04  -2.66712857E-03
  -1.99999995E-04  -2.69130431E-03
  -1.50000007E-04  -2.71538901E-03
  -9.99999975E-05  -2.73934472E-03
  -4.99999987E-05  -2.76315748E-03
   0.00000000      -2.78682914E-03
   4.99999987E-05  -2.81037763E-03
   9.99999975E-05  -2.83382740E-03
   1.50000007E-04  -2.85720010E-03
   1.99999995E-04  -2.88049877E-03
   2.50000012E-04  -2.90368940E-03
   3.00000014E-04  -2.92672403E-03
   3.49999988E-04  -2.94955517E-03
   3.99999990E-04  -2.97214719E-03
   4.49999992E-04  -2.99449661E-03
   5.00000024E-04  -3.01662739E-03
   5.49999997E-04  -3.03857541E-03
   6.00000028E-04  -3.06036347E-03
   6.50000002E-04  -3.08198878E-03
   6.99999975E-04  -3.10342456E-03
   7.50000007E-04  -3.12462333E-03
   7.99999980E-04  -3.14552872E-03
   8.50000011E-04  -3.16609116E-03
   8.99999985E-04  -3.18629621E-03
   9.50000016E-04  -3.20616551E-03
   1.00000005E-03  -3.22573539E-03
   1.04999996E-03  -3.24504473E-03
   1.09999999E-03  -3.26410052E-03
   1.15000003E-03  -3.28287645E-03
   1.20000006E-03  -3.30132316E-03
   1.24999997E-03  -3.31936893E-03
   1.30000000E-03  -3.33694997E-03
   1.35000004E-03  -3.35403997E-03
   1.39999995E-03  -3.37065849E-03
   1.44999998E-03  -3.38685769E-03
   1.50000001E-03  -3.40268668E-03
   1.55000004E-03  -3.41816759E-03
   1.59999996E-03  -3.43328016E-03
   1.64999999E-03  -3.44795478E-03
   1.70000002E-03  -3.46210785E-03
   1.75000005E-03  -3.47566744E-03
   1.79999997E-03  -3.48859862E-03
   1.85000000E-03  -3.50091490E-03
   1.90000003E-03  -3.51266051E-03
   1.94999995E-03  -3.52388341E-03
   2.00000009E-03  -3.53462319E-03
   2.05000001E-03  -3.54488473E-03
   2.09999993E-03  -3.55459796E-03
   2.15000007E-03  -3.56366206E-03
   2.19999999E-03  -3.57199344E-03
   2.24999990E-03  -3.57954414E-03
   2.30000005E-03  -3.58631555E-03
   2.34999997E-03  -3.59234517E-03
   2.40000011E-03  -3.59770516E-03
   2.45000003E-03  -3.60244652E-03
   2.49999994E-03  -3.60656995E-03
   2.55000009E-03  -3.61001282E-03
   2.60000001E-03  -3.61267361E-03
   2.64999992E-03  -3.61445383E-03
   2.70000007E-03  -3.61529016E-03
   2.74999999E-03  -3.61519097E-03
   2.79999990E-03  -3.61420005E-03