  -3.99999991E-02   0.00000000    
  -3.99499983E-02   0.00000000    
  -3.99000011E-02  -1.45988500E-15
  -3.98500003E-02  -8.17081608E-15
  -3.97999994E-02  -2.20948460E-14
  -3.97499986E-02  -3.50743909E-14
  -3.97000015E-02  -2.29586264E-14
  -3.96500006E-02   4.89757398E-14
  -3.95999998E-02   2.06571156E-13
  -3.95499989E-02   4.43076050E-13
  -3.95000018E-02   7.09348162E-13
  -3.94500010E-02   9.30750919E-13
  -3.94000001E-02   1.04599695E-12
  -3.93499993E-02   1.04646034E-12
  -3.92999984E-02   9.91307839E-13
  -3.92500013E-02   9.86225099E-13
  -3.92000005E-02   1.13318881E-12
  -3.91499996E-02   1.47500534E-12
  -3.90999988E-02   1.96413979E-12
  -3.90500017E-02   2.47717081E-12
  -3.90000008E-02   2.87432318E-12
  -3.89500000E-02   3.07593707E-12
  -3.88999991E-02   3.11117321E-12
  -3.88499983E-02   3.10437570E-12
  -3.88000011E-02   3.20050800E-12
  -3.87500003E-02   3.47097156E-12
  -3.86999995E-02   3.85681678E-12
  -3.86499986E-02   4.18613495E-12
  -3.86000015E-02   4.25966640E-12
  -3.85500006E-02   3.95960695E-12
  -3.84999998E-02   3.32146810E-12
  -3.84499989E-02   2.52354344E-12
  -3.84000018E-02   1.78755014E-12
  -3.83500010E-02   1.23357108E-12
  -3.83000001E-02   7.69270986E-13
  -3.82499993E-02   9.03693488E-14
  -3.81999984E-02  -1.18462683E-12
  -3.81500013E-02  -3.30393612E-12
  -3.81000005E-02  -6.21260378E-12
  -3.80499996E-02  -9.53000612E-12
  -3.79999988E-02  -1.27049152E-11
  -3.79500017E-02  -1.52802285E-11
  -3.79000008E-02  -1.71370088E-11
  -3.78500000E-02  -1.85909656E-11
  -3.77999991E-02  -2.02780796E-11
  -3.77499983E-02  -2.28617490E-11
  -3.77000012E-02  -2.66849858E-11
  -3.76500003E-02  -3.15378730E-11
  -3.75999995E-02  -3.66776332E-11
  -3.75499986E-02  -4.11230459E-11
  -3.75000015E-02  -4.40970177E-11
  -3.74500006E-02  -4.53981332E-11
  -3.73999998E-02  -4.55074173E-11
  -3.73499990E-02  -4.53707939E-11
  -3.73000018E-02  -4.59591878E-11
  -3.72500010E-02  -4.78069494E-11
  -3.72000001E-02  -5.07268012E-11
  -3.71499993E-02  -5.38159274E-11
  -3.70999984E-02  -5.57501476E-11
  -3.70500013E-02  -5.52524866E-11
  -3.70000005E-02  -5.15521306E-11
  -3.69499996E-02  -4.46517961E-11
  -3.68999988E-02  -3.53062336E-11
  -3.68500017E-02  -2.47440107E-11
  -3.68000008E-02  -1.42633908E-11
  -3.67500000E-02  -4.84412814E-12
  -3.66999991E-02   3.14199448E-12
  -3.66499983E-02   1.00939960E-11
  -3.66000012E-02   1.71864068E-11
  -3.65500003E-02   2.61486909E-11
  -3.64999995E-02   3.87671770E-11
  -3.64499986E-02   5.61712413E-11
  -3.64000015E-02   7.81328058E-11
  -3.63500006E-02   1.02717244E-10
  -3.62999998E-02   1.26579136E-10
  -3.62499990E-02   1.45982199E-10
  -3.62000018E-02   1.58297833E-10
  -3.61500010E-02   1.63419972E-10
  -3.61000001E-02   1.64377401E-10
  -3.60499993E-02   1.66580222E-10
  -3.59999985E-02   1.75661263E-10
  -3.59500013E-02   1.94618599E-10
  -3.59000005E-02   2.21565030E-10
  -3.58499996E-02   2.49429810E-10
  -3.57999988E-02   2.68249645E-10
  -3.57500017E-02   2.69456957E-10
  -3.57000008E-02   2.50394872E-10
  -3.56500000E-02   2.16801813E-10
  -3.55999991E-02   1.81585857E-10
  -3.55499983E-02   1.59744537E-10
  -3.55000012E-02   1.61197528E-10
  -3.54500003E-02   1.84719684E-10
  -3.53999995E-02   2.16266408E-10
  -3.53499986E-02   2.33428638E-10
  -3.53000015E-02   2.14975496E-10
  -3.52500007E-02   1.51637161E-10
  -3.51999998E-02   5.29308715E-11
  -3.51499990E-02  -5.40846014E-11
  -3.51000018E-02  -1.34870171E-10
  -3.50500010E-02  -1.62744568E-10
  -3.50000001E-02  -1.32793498E-10
  -3.49499993E-02  -6.73202813E-11
  -3.48999985E-02  -8.89133385E-12
  -3.48500013E-02  -2.50353622E-12
  -3.48000005E-02  -7.39548978E-11
  -3.47499996E-02  -2.14423632E-10
  -3.46999988E-02  -3.79697163E-10
  -3.46500017E-02  -5.06516495E-10
  -3.46000008E-02  -5.40429534E-10
  -3.45500000E-02  -4.63117017E-10
  -3.44999991E-02  -3.05811237E-10
  -3.44499983E-02  -1.40498210E-10
  -3.44000012E-02  -5.03691984E-11
  -3.43500003E-02  -9.12361228E-11
  -3.42999995E-02  -2.61417721E-10
  -3.42499986E-02  -4.95625041E-10
  -3.42000015E-02  -6.88666124E-10
  -3.41500007E-02  -7.41101569E-10
  -3.40999998E-02  -6.07455086E-10
  -3.40499990E-02  -3.24063582E-10
  -3.40000018E-02  -8.37069021E-13
  -3.39500010E-02   2.23144989E-10
  -3.39000002E-02   2.42806442E-10
  -3.38499993E-02   4.06713725E-11
  -3.37999985E-02  -2.95873936E-10
  -3.37500013E-02  -6.05757333E-10
  -3.37000005E-02  -7.23957172E-10
  -3.36499996E-02  -5.60431312E-10
  -3.35999988E-02  -1.51457916E-10
  -3.35500017E-02   3.43974044E-10
  -3.35000008E-02   7.06629366E-10
  -3.34500000E-02   7.54531215E-10
  -3.33999991E-02   4.32560765E-10
  -3.33499983E-02  -1.49282642E-10
  -3.33000012E-02  -7.52155338E-10
  -3.32500003E-02  -1.10906806E-09
  -3.31999995E-02  -1.04828779E-09
  -3.31499986E-02  -5.83072535E-10
  -3.31000015E-02   7.78038328E-11
  -3.30500007E-02   6.10864859E-10
  -3.29999998E-02   7.20087601E-10
  -3.29499990E-02   2.78767787E-10
  -3.29000019E-02  -5.95814509E-10
  -3.28500010E-02  -1.57595248E-09
  -3.28000002E-02  -2.25879448E-09
  -3.27499993E-02  -2.34830111E-09
  -3.26999985E-02  -1.80216442E-09
  -3.26500013E-02  -8.71672901E-10
  -3.26000005E-02  -7.03049684E-12
  -3.25499997E-02   3.38269190E-10
  -3.24999988E-02  -7.97310343E-11
  -3.24500017E-02  -1.16384036E-09
  -3.24000008E-02  -2.49329712E-09
  -3.23500000E-02  -3.49381257E-09
  -3.22999991E-02  -3.69218967E-09
  -3.22499983E-02  -2.94287439E-09
  -3.22000012E-02  -1.51845148E-09
  -3.21500003E-02  -1.17193755E-11
  -3.20999995E-02   9.18727483E-10
  -3.20499986E-02   8.51904547E-10
  -3.20000015E-02  -1.81386586E-10
  -3.19500007E-02  -1.68003877E-09
  -3.18999998E-02  -2.87234481E-09
  -3.18499990E-02  -3.05618020E-09
  -3.18000019E-02  -1.93093119E-09
  -3.17500010E-02   2.34011283E-10
  -3.17000002E-02   2.68390443E-09
  -3.16499993E-02   4.49441773E-09
  -3.15999985E-02   4.98745090E-09
  -3.15500014E-02   4.06058032E-09
  -3.15000005E-02   2.27140307E-09
  -3.14499997E-02   6.21419138E-10
  -3.13999988E-02   1.19994181E-10
  -3.13500017E-02   1.31625710E-09
  -3.13000008E-02   4.01374223E-09
  -3.12500000E-02   7.31151317E-09
  -3.11999992E-02   9.97327021E-09
  -3.11500002E-02   1.09741665E-08
  -3.10999993E-02   9.98354377E-09
  -3.10500003E-02   7.55664065E-09
  -3.09999995E-02   4.92907049E-09
  -3.09500005E-02   3.48502893E-09
  -3.08999997E-02   4.12507228E-09
  -3.08500007E-02   6.81911771E-09
  -3.07999998E-02   1.05616440E-08
  -3.07500008E-02   1.37732661E-08
  -3.07000000E-02   1.49896149E-08
  -3.06499992E-02   1.35369653E-08
  -3.06000002E-02   9.88309967E-09
  -3.05499993E-02   5.48394752E-09
  -3.05000003E-02   2.16855645E-09
  -3.04499995E-02   1.31967548E-09
  -3.04000005E-02   3.21518812E-09
  -3.03499997E-02   6.84150825E-09
  -3.03000007E-02   1.02899289E-08
  -3.02499998E-02   1.15851062E-08
  -3.02000009E-02   9.58841628E-09
  -3.01500000E-02   4.56572202E-09
  -3.00999992E-02  -1.85843974E-09
  -3.00500002E-02  -7.37125472E-09
  -2.99999993E-02  -9.99169014E-09
  -2.99500003E-02  -8.99086405E-09
  -2.98999995E-02  -5.28610045E-09
  -2.98500005E-02  -1.10155018E-09
  -2.97999997E-02   9.86321469E-10
  -2.97500007E-02  -7.87384824E-10
  -2.96999998E-02  -6.52443832E-09
  -2.96500009E-02  -1.45287844E-08
  -2.96000000E-02  -2.19854286E-08
  -2.95499992E-02  -2.61825885E-08
  -2.95000002E-02  -2.57455657E-08
  -2.94499993E-02  -2.13199769E-08
  -2.94000003E-02  -1.53664033E-08
  -2.93499995E-02  -1.11180594E-08
  -2.93000005E-02  -1.11373559E-08
  -2.92499997E-02  -1.61105387E-08
  -2.92000007E-02  -2.44407001E-08
  -2.91499998E-02  -3.28614966E-08
  -2.91000009E-02  -3.78390297E-08
  -2.90500000E-02  -3.71599711E-08
  -2.89999992E-02  -3.09920622E-08
  -2.89500002E-02  -2.19111431E-08
  -2.88999993E-02  -1.38364076E-08
  -2.88500004E-02  -1.03093019E-08
  -2.87999995E-02  -1.28690365E-08
  -2.87500005E-02  -2.02666595E-08
  -2.86999997E-02  -2.89108772E-08
  -2.86500007E-02  -3.43961517E-08
  -2.85999998E-02  -3.34657138E-08
  -2.85500009E-02  -2.55371084E-08
  -2.85000000E-02  -1.30797462E-08
  -2.84499992E-02  -6.25163088E-10
  -2.84000002E-02   7.19810123E-09
  -2.83499993E-02   7.75433584E-09
  -2.83000004E-02   1.67283742E-09
  -2.82499995E-02  -7.30786276E-09
  -2.82000005E-02  -1.39117846E-08
  -2.81499997E-02  -1.36589815E-08
  -2.81000007E-02  -4.93454744E-09
  -2.80499998E-02   1.01547100E-08
  -2.80000009E-02   2.65728168E-08
  -2.79500000E-02   3.85037211E-08
  -2.78999992E-02   4.19383923E-08
  -2.78500002E-02   3.65466875E-08
  -2.77999993E-02   2.59592063E-08
  -2.77500004E-02   1.62694835E-08
  -2.76999995E-02   1.33645468E-08
  -2.76500005E-02   2.02453254E-08
  -2.75999997E-02   3.55478136E-08
  -2.75500007E-02   5.39795977E-08
  -2.74999999E-02   6.85480472E-08
  -2.74500009E-02   7.36417576E-08
  -2.74000000E-02   6.76056402E-08
  -2.73499992E-02   5.36273745E-08
  -2.73000002E-02   3.84712777E-08
  -2.72499993E-02   2.95506499E-08
  -2.72000004E-02   3.15982263E-08
  -2.71499995E-02   4.44223716E-08
  -2.71000005E-02   6.28014618E-08
  -2.70499997E-02   7.86423797E-08
  -2.70000007E-02   8.45124077E-08
  -2.69499999E-02   7.70019071E-08
  -2.69000009E-02   5.83959796E-08
  -2.68500000E-02   3.58409586E-08
  -2.67999992E-02   1.82925088E-08
  -2.67500002E-02   1.25425448E-08
  -2.66999993E-02   2.00832364E-08
  -2.66500004E-02   3.62510058E-08
  -2.65999995E-02   5.21157482E-08
  -2.65500005E-02   5.83590243E-08
  -2.64999997E-02   4.94625034E-08
  -2.64500007E-02   2.63301754E-08
  -2.63999999E-02  -3.89086408E-09
  -2.63500009E-02  -3.08059960E-08
  -2.63000000E-02  -4.53316673E-08
  -2.62499992E-02  -4.38169110E-08
  -2.62000002E-02  -2.98563592E-08
  -2.61499994E-02  -1.29007409E-08
  -2.61000004E-02  -4.18295265E-09
  -2.60499995E-02  -1.17047314E-08
  -2.60000005E-02  -3.65101513E-08
  -2.59499997E-02  -7.19659710E-08
  -2.59000007E-02  -1.06471795E-07
  -2.58499999E-02  -1.28492502E-07
  -2.58000009E-02  -1.31723127E-07
  -2.57500000E-02  -1.18066040E-07
  -2.56999992E-02  -9.70098171E-08
  -2.56500002E-02  -8.15731269E-08
  -2.55999994E-02  -8.25289987E-08
  -2.55500004E-02  -1.03453296E-07
  -2.54999995E-02  -1.38851874E-07
  -2.54500005E-02  -1.76306983E-07
  -2.53999997E-02  -2.01804767E-07
  -2.53500007E-02  -2.05947416E-07
  -2.52999999E-02  -1.88284048E-07
  -2.52500009E-02  -1.57754641E-07
  -2.52000000E-02  -1.28928065E-07
  -2.51499992E-02  -1.15596627E-07
  -2.51000002E-02  -1.24526778E-07
  -2.50499994E-02  -1.52179638E-07
  -2.50000004E-02  -1.85965618E-07
  -2.49499995E-02  -2.09604451E-07
  -2.49000005E-02  -2.10303725E-07
  -2.48499997E-02  -1.84582944E-07
  -2.48000007E-02  -1.40085405E-07
  -2.47499999E-02  -9.24456103E-08
  -2.47000009E-02  -5.84766582E-08
  -2.46500000E-02  -4.86331402E-08
  -2.45999992E-02  -6.21162357E-08
  -2.45500002E-02  -8.68977068E-08
  -2.44999994E-02  -1.04792058E-07
  -2.44500004E-02  -9.94410527E-08
  -2.43999995E-02  -6.37051016E-08
  -2.43500005E-02  -3.12335779E-09
  -2.42999997E-02   6.62215740E-08
  -2.42500007E-02   1.24630517E-07
  -2.41999999E-02   1.57525619E-07
  -2.41500009E-02   1.62123058E-07
  -2.41000000E-02   1.48985663E-07
  -2.40499992E-02   1.37618997E-07
  -2.40000002E-02   1.47928716E-07
  -2.39499994E-02   1.91267688E-07
  -2.39000004E-02   2.65083969E-07
  -2.38499995E-02   3.53670572E-07
  -2.38000005E-02   4.34842548E-07
  -2.37499997E-02   4.89697925E-07
  -2.37000007E-02   5.11158419E-07
  -2.36499999E-02   5.07423522E-07
  -2.36000009E-02   4.98652867E-07
  -2.35500000E-02   5.08193068E-07
  -2.34999992E-02   5.52149800E-07
  -2.34500002E-02   6.31943863E-07
  -2.33999994E-02   7.33269928E-07
  -2.33500004E-02   8.32085561E-07
  -2.32999995E-02   9.05116622E-07
  -2.32500006E-02   9.40274958E-07
  -2.31999997E-02   9.42311146E-07
  -2.31500007E-02   9.31049328E-07
  -2.30999999E-02   9.32817784E-07
  -2.30500009E-02   9.68759650E-07
  -2.30000000E-02   1.04519518E-06
  -2.29499992E-02   1.15040848E-06
  -2.29000002E-02   1.25945439E-06
  -2.28499994E-02   1.34501295E-06
  -2.28000004E-02   1.38956307E-06
  -2.27499995E-02   1.39344172E-06
  -2.27000006E-02   1.37507971E-06
  -2.26499997E-02   1.36313122E-06
  -2.26000007E-02   1.38384644E-06
  -2.25499999E-02   1.44924581E-06
  -2.25000009E-02   1.55141652E-06
  -2.24500000E-02   1.66562472E-06
  -2.23999992E-02   1.76104197E-06
  -2.23500002E-02   1.81443488E-06
  -2.22999994E-02   1.82074609E-06
  -2.22500004E-02   1.79575181E-06
  -2.21999995E-02   1.76943763E-06
  -2.21500006E-02   1.77286836E-06
  -2.20999997E-02   1.82430233E-06
  -2.20500007E-02   1.92076391E-06
  -2.19999999E-02   2.03896570E-06
  -2.19500009E-02   2.14535567E-06
  -2.19000001E-02   2.21097412E-06
  -2.18499992E-02   2.22455583E-06
  -2.18000002E-02   2.19796766E-06
  -2.17499994E-02   2.16139460E-06
  -2.17000004E-02   2.15022510E-06
  -2.16499995E-02   2.18935361E-06
  -2.16000006E-02   2.28188264E-06
  -2.15499997E-02   2.40736540E-06
  -2.15000007E-02   2.53056737E-06
  -2.14499999E-02   2.61701916E-06
  -2.14000009E-02   2.64851133E-06
  -2.13500001E-02   2.63160064E-06
  -2.12999992E-02   2.59518697E-06
  -2.12500002E-02   2.57804027E-06
  -2.11999994E-02   2.61169021E-06
  -2.11500004E-02   2.70625151E-06
  -2.10999995E-02   2.84558155E-06
  -2.10500006E-02   2.99410112E-06
  -2.09999997E-02   3.11243866E-06
  -2.09500007E-02   3.17503736E-06
  -2.08999999E-02   3.18188245E-06
  -2.08500009E-02   3.15900547E-06
  -2.08000001E-02   3.14733734E-06
  -2.07499992E-02   3.18471916E-06
  -2.07000002E-02   3.28899500E-06
  -2.06499994E-02   3.44977411E-06
  -2.06000004E-02   3.63269123E-06
  -2.05499995E-02   3.79444441E-06
  -2.05000006E-02   3.90207515E-06
  -2.04499997E-02   3.94791732E-06
  -2.04000007E-02   3.95346615E-06
  -2.03499999E-02   3.96026371E-06
  -2.03000009E-02   4.01167335E-06
  -2.02500001E-02   4.13357111E-06
  -2.01999992E-02   4.32254137E-06
  -2.01500002E-02   4.54699830E-06
  -2.00999994E-02   4.76091645E-06
  -2.00500004E-02   4.92421168E-06
  -1.99999996E-02   5.02076955E-06
  -1.99500006E-02   5.06602100E-06
  -1.98999997E-02   5.10052678E-06
  -1.98500007E-02   5.17224726E-06
  -1.97999999E-02   5.31525302E-06
  -1.97500009E-02   5.53434302E-06
  -1.97000001E-02   5.80252390E-06
  -1.96499992E-02   6.07264246E-06
  -1.96000002E-02   6.29818715E-06
  -1.95499994E-02   6.45407317E-06
  -1.95000004E-02   6.54814357E-06
  -1.94499996E-02   6.61812055E-06
  -1.94000006E-02   6.71516000E-06
  -1.93499997E-02   6.88120645E-06
  -1.93000007E-02   7.13017653E-06
  -1.92499999E-02   7.44139879E-06
  -1.92000009E-02   7.76841171E-06
  -1.91500001E-02   8.05938635E-06
  -1.90999992E-02   8.28019165E-06
  -1.90500002E-02   8.42984264E-06
  -1.89999994E-02   8.54135487E-06
  -1.89500004E-02   8.66745177E-06
  -1.88999996E-02   8.85731242E-06
  -1.88500006E-02   9.13462554E-06
  -1.87999997E-02   9.48679372E-06
  -1.87500007E-02   9.87018666E-06
  -1.86999999E-02   1.02292825E-05
  -1.86500009E-02   1.05213330E-05
  -1.86000001E-02   1.07356218E-05
  -1.85499992E-02   1.08986478E-05
  -1.85000002E-02   1.10627425E-05
  -1.84499994E-02   1.12830721E-05
  -1.84000004E-02   1.15931462E-05
  -1.83499996E-02   1.19897159E-05
  -1.83000006E-02   1.24339049E-05
  -1.82499997E-02   1.28682441E-05
  -1.82000007E-02   1.32421701E-05
  -1.81499999E-02   1.35347073E-05
  -1.81000009E-02   1.37641791E-05
  -1.80500001E-02   1.39805707E-05
  -1.79999992E-02   1.42436575E-05
  -1.79500002E-02   1.45965541E-05
  -1.78999994E-02   1.50464984E-05
  -1.78500004E-02   1.55614016E-05
  -1.77999996E-02   1.60838645E-05
  -1.77500006E-02   1.65566580E-05
  -1.76999997E-02   1.69483301E-05
  -1.76500008E-02   1.72675464E-05
  -1.75999999E-02   1.75597743E-05
  -1.75500009E-02   1.78874980E-05
  -1.75000001E-02   1.83026932E-05
  -1.74499992E-02   1.88237500E-05
  -1.74000002E-02   1.94271161E-05
  -1.73499994E-02   2.00575887E-05
  -1.73000004E-02   2.06527511E-05
  -1.72499996E-02   2.11708302E-05
  -1.72000006E-02   2.16096068E-05
  -1.71499997E-02   2.20078618E-05
  -1.71000008E-02   2.24285923E-05
  -1.70499999E-02   2.29313428E-05
  -1.70000009E-02   2.35458465E-05
  -1.69500001E-02   2.42587412E-05
  -1.68999992E-02   2.50193916E-05
  -1.68500002E-02   2.57622705E-05
  -1.67999994E-02   2.64361897E-05
  -1.67500004E-02   2.70273449E-05
  -1.66999996E-02   2.75658749E-05
  -1.66500006E-02   2.81129105E-05
  -1.65999997E-02   2.87337843E-05
  -1.65500008E-02   2.94691908E-05
  -1.64999999E-02   3.03171018E-05
  -1.64500009E-02   3.12335724E-05
  -1.64000001E-02   3.21520893E-05
  -1.63499992E-02   3.30132461E-05
  -1.63000003E-02   3.37913625E-05
  -1.62499994E-02   3.45062072E-05
  -1.62000004E-02   3.52147072E-05
  -1.61499996E-02   3.59860533E-05
  -1.61000006E-02   3.68711699E-05
  -1.60499997E-02   3.78801014E-05
  -1.60000008E-02   3.89775378E-05
  -1.59499999E-02   4.00983954E-05
  -1.59000009E-02   4.11767178E-05
  -1.58500001E-02   4.21751611E-05
  -1.57999992E-02   4.31019544E-05
  -1.57500003E-02   4.40076401E-05
  -1.56999994E-02   4.49630461E-05
  -1.56500004E-02   4.60281117E-05
  -1.55999996E-02   4.72253596E-05
  -1.55499997E-02   4.85298879E-05
  -1.54999997E-02   4.98802874E-05
  -1.54499998E-02   5.12059487E-05
  -1.53999999E-02   5.24585339E-05
  -1.53500000E-02   5.36337066E-05
  -1.53000001E-02   5.47734016E-05
  -1.52500002E-02   5.59475811E-05
  -1.52000003E-02   5.72235331E-05
  -1.51500003E-02   5.86360366E-05
  -1.51000004E-02   6.01720567E-05
  -1.50499996E-02   6.17765327E-05
  -1.49999997E-02   6.33768068E-05
  -1.49499997E-02   6.49150097E-05
  -1.48999998E-02   6.63739484E-05
  -1.48499999E-02   6.77851349E-05
  -1.48000000E-02   6.92150352E-05
  -1.47500001E-02   7.07359723E-05
  -1.47000002E-02   7.23943085E-05
  -1.46500003E-02   7.41898984E-05
  -1.46000003E-02   7.60762050E-05
  -1.45500004E-02   7.79810798E-05
  -1.44999996E-02   7.98389010E-05
  -1.44499997E-02   8.16198226E-05
  -1.43999998E-02   8.33433151E-05
  -1.43499998E-02   8.50701035E-05
  -1.42999999E-02   8.68753705E-05
  -1.42500000E-02   8.88156865E-05
  -1.42000001E-02   9.09042210E-05
  -1.41500002E-02   9.31049944E-05
  -1.41000003E-02   9.53488852E-05
  -1.40500003E-02   9.75645235E-05
  -1.40000004E-02   9.97102179E-05
  -1.39499996E-02   1.01792764E-04
  -1.38999997E-02   1.03864659E-04
  -1.38499998E-02   1.06001418E-04
  -1.37999998E-02   1.08268352E-04
  -1.37499999E-02   1.10691937E-04
  -1.37000000E-02   1.13248367E-04
  -1.36500001E-02   1.15873976E-04
  -1.36000002E-02   1.18493983E-04
  -1.35500003E-02   1.21055797E-04
  -1.35000004E-02   1.23552469E-04
  -1.34500004E-02   1.26026251E-04
  -1.33999996E-02   1.28550280E-04
  -1.33499997E-02   1.31196532E-04
  -1.32999998E-02   1.34004207E-04
  -1.32499998E-02   1.36962844E-04
  -1.31999999E-02   1.40017088E-04
  -1.31500000E-02   1.43091384E-04
  -1.31000001E-02   1.46123843E-04
  -1.30500002E-02   1.49093976E-04
  -1.30000003E-02   1.52031876E-04
  -1.29500004E-02   1.55005473E-04
  -1.29000004E-02   1.58090741E-04
  -1.28499996E-02   1.61338263E-04
  -1.27999997E-02   1.64751473E-04
  -1.27499998E-02   1.68285347E-04
  -1.26999998E-02   1.71866486E-04
  -1.26499999E-02   1.75426176E-04
  -1.26000000E-02   1.78930728E-04
  -1.25500001E-02   1.82397096E-04
  -1.25000002E-02   1.85885612E-04
  -1.24500003E-02   1.89473358E-04
  -1.24000004E-02   1.93220592E-04
  -1.23500004E-02   1.97144356E-04
  -1.22999996E-02   2.01211515E-04
  -1.22499997E-02   2.05353121E-04
  -1.21999998E-02   2.09495047E-04
  -1.21499998E-02   2.13591615E-04
  -1.20999999E-02   2.17645997E-04
  -1.20500000E-02   2.21708717E-04
  -1.20000001E-02   2.25856027E-04
  -1.19500002E-02   2.30156656E-04
  -1.19000003E-02   2.34641921E-04
  -1.18500004E-02   2.39292072E-04
  -1.18000004E-02   2.44045194E-04
  -1.17499996E-02   2.48825061E-04
  -1.16999997E-02   2.53574894E-04
  -1.16499998E-02   2.58282787E-04
  -1.15999999E-02   2.62987160E-04
  -1.15499999E-02   2.67759780E-04
  -1.15000000E-02   2.72673962E-04
  -1.14500001E-02   2.77772488E-04
  -1.14000002E-02   2.83049594E-04
  -1.13500003E-02   2.88453681E-04
  -1.13000004E-02   2.93909921E-04
  -1.12500004E-02   2.99353298E-04
  -1.11999996E-02   3.04758491E-04
  -1.11499997E-02   3.10151256E-04
  -1.10999998E-02   3.15597077E-04
  -1.10499999E-02   3.21172993E-04
  -1.09999999E-02   3.26934358E-04
  -1.09500000E-02   3.32890224E-04
  -1.09000001E-02   3.38999409E-04
  -1.08500002E-02   3.45188833E-04
  -1.08000003E-02   3.51386232E-04
  -1.07500004E-02   3.57551413E-04
  -1.07000005E-02   3.63693893E-04
  -1.06499996E-02   3.69869813E-04
  -1.05999997E-02   3.76155949E-04
  -1.05499998E-02   3.82617000E-04
  -1.04999999E-02   3.89277819E-04
  -1.04499999E-02   3.96111485E-04
  -1.04000000E-02   4.03052458E-04
  -1.03500001E-02   4.10025445E-04
  -1.03000002E-02   4.16978932E-04
  -1.02500003E-02   4.23907972E-04
  -1.02000004E-02   4.30855784E-04
  -1.01500005E-02   4.37896320E-04
  -1.00999996E-02   4.45101468E-04
  -1.00499997E-02   4.52509237E-04
  -9.99999978E-03   4.60108189E-04
  -9.94999986E-03   4.67841834E-04
  -9.89999995E-03   4.75633657E-04
  -9.85000003E-03   4.83421434E-04
  -9.80000012E-03   4.91183368E-04
  -9.75000020E-03   4.98948968E-04
  -9.70000029E-03   5.06785640E-04
  -9.65000037E-03   5.14768588E-04
  -9.60000046E-03   5.22950140E-04
  -9.54999961E-03   5.31333906E-04
  -9.49999969E-03   5.39873028E-04
  -9.44999978E-03   5.48493525E-04
  -9.39999986E-03   5.57124615E-04
  -9.34999995E-03   5.65729570E-04
  -9.30000003E-03   5.74322883E-04
  -9.25000012E-03   5.82963810E-04
  -9.20000020E-03   5.91731106E-04
  -9.15000029E-03   6.00687228E-04
  -9.10000037E-03   6.09852956E-04
  -9.05000046E-03   6.19198370E-04
  -8.99999961E-03   6.28654263E-04
  -8.94999970E-03   6.38143742E-04
  -8.89999978E-03   6.47615467E-04
  -8.84999987E-03   6.57066237E-04
  -8.79999995E-03   6.66543085E-04
  -8.75000004E-03   6.76121155E-04
  -8.70000012E-03   6.85869891E-04
  -8.65000021E-03   6.95823168E-04
  -8.60000029E-03   7.05964747E-04
  -8.55000038E-03   7.16233568E-04
  -8.50000046E-03   7.26550876E-04
  -8.44999962E-03   7.36855378E-04
  -8.39999970E-03   7.47126585E-04
  -8.34999979E-03   7.57394941E-04
  -8.29999987E-03   7.67729769E-04
  -8.24999996E-03   7.78207090E-04
  -8.20000004E-03   7.88876496E-04
  -8.15000013E-03   7.99737929E-04
  -8.10000021E-03   8.10742669E-04
  -8.05000030E-03   8.21815454E-04
  -8.00000038E-03   8.32884398E-04
  -7.95000046E-03   8.43912014E-04
  -7.89999962E-03   8.54912098E-04
  -7.84999970E-03   8.65944312E-04
  -7.79999979E-03   8.77088169E-04
  -7.74999987E-03   8.88406124E-04
  -7.69999996E-03   8.99915933E-04
  -7.65000004E-03   9.11582203E-04
  -7.60000013E-03   9.23328742E-04
  -7.55000021E-03   9.35070915E-04
  -7.49999983E-03   9.46751796E-04
  -7.44999992E-03   9.58366843E-04
  -7.40000000E-03   9.69965709E-04
  -7.35000009E-03   9.81627498E-04
  -7.30000017E-03   9.93426773E-04
  -7.24999979E-03   1.00540079E-03
  -7.19999988E-03   1.01753022E-03
  -7.14999996E-03   1.02974847E-03
  -7.10000005E-03   1.04196696E-03
  -7.05000013E-03   1.05411280E-03
  -7.00000022E-03   1.06615969E-03
  -6.94999984E-03   1.07814046E-03
  -6.89999992E-03   1.09013217E-03
  -6.85000001E-03   1.10221968E-03
  -6.80000009E-03   1.11445750E-03
  -6.75000018E-03   1.12684339E-03
  -6.69999979E-03   1.13932241E-03
  -6.64999988E-03   1.15180376E-03
  -6.59999996E-03   1.16419548E-03
  -6.55000005E-03   1.17645040E-03
  -6.50000013E-03   1.18858379E-03
  -6.45000022E-03   1.20066490E-03
  -6.39999984E-03   1.21278316E-03
  -6.34999992E-03   1.22500898E-03
  -6.30000001E-03   1.23736274E-03
  -6.25000009E-03   1.24979881E-03
  -6.20000018E-03   1.26222661E-03
  -6.14999980E-03   1.27454672E-03
  -6.09999988E-03   1.28669082E-03
  -6.04999997E-03   1.29865203E-03
  -6.00000005E-03   1.31048670E-03
  -5.95000014E-03   1.32228434E-03
  -5.90000022E-03   1.33413100E-03
  -5.84999984E-03   1.34607055E-03
  -5.79999993E-03   1.35807961E-03
  -5.75000001E-03   1.37007528E-03
  -5.70000010E-03   1.38194952E-03
  -5.65000018E-03   1.39361445E-03
  -5.59999980E-03   1.40503480E-03
  -5.54999989E-03   1.41624629E-03
  -5.49999997E-03   1.42733927E-03
  -5.45000006E-03   1.43841212E-03
  -5.40000014E-03   1.44952652E-03
  -5.35000023E-03   1.46068051E-03
  -5.29999984E-03   1.47180539E-03
  -5.24999993E-03   1.48278731E-03
  -5.20000001E-03   1.49351486E-03
  -5.15000010E-03   1.50392775E-03
  -5.10000018E-03   1.51404040E-03
  -5.04999980E-03   1.52393186E-03
  -4.99999989E-03   1.53370923E-03
  -4.94999997E-03   1.54346053E-03
  -4.90000006E-03   1.55321264E-03
  -4.85000014E-03   1.56290934E-03
  -4.80000023E-03   1.57243444E-03
  -4.74999985E-03   1.58166443E-03
  -4.69999993E-03   1.59051490E-03
  -4.65000002E-03   1.59897550E-03
  -4.60000010E-03   1.60711049E-03
  -4.55000019E-03   1.61502673E-03
  -4.49999981E-03   1.62282947E-03
  -4.44999989E-03   1.63056958E-03
  -4.39999998E-03   1.63821352E-03
  -4.35000006E-03   1.64565386E-03
  -4.30000015E-03   1.65275706E-03
  -4.25000023E-03   1.65941310E-03
  -4.19999985E-03   1.66557496E-03
  -4.14999994E-03   1.67128746E-03
  -4.10000002E-03   1.67665700E-03
  -4.05000011E-03   1.68180058E-03
  -4.00000019E-03   1.68679969E-03
  -3.94999981E-03   1.69165363E-03
  -3.89999989E-03   1.69627124E-03
  -3.84999998E-03   1.70050666E-03
  -3.80000006E-03   1.70421682E-03
  -3.74999992E-03   1.70732313E-03
  -3.70000000E-03   1.70983770E-03
  -3.65000009E-03   1.71185867E-03
  -3.59999994E-03   1.71353051E-03
  -3.55000002E-03   1.71496742E-03
  -3.50000011E-03   1.71620108E-03
  -3.44999996E-03   1.71715522E-03
  -3.40000005E-03   1.71767501E-03
  -3.34999990E-03   1.71759422E-03
  -3.29999998E-03   1.71679596E-03
  -3.25000007E-03   1.71526393E-03
  -3.19999992E-03   1.71308150E-03
  -3.15000000E-03   1.71039836E-03
  -3.10000009E-03   1.70736143E-03
  -3.04999994E-03   1.70404080E-03
  -3.00000003E-03   1.70038326E-03
  -2.95000011E-03   1.69623503E-03
  -2.89999996E-03   1.69141183E-03
  -2.85000005E-03   1.68575742E-03
  -2.79999990E-03   1.67921535E-03
  -2.74999999E-03   1.67185115E-03
  -2.70000007E-03   1.66381337E-03
  -2.64999992E-03   1.65527011E-03
  -2.60000001E-03   1.64633326E-03
  -2.55000009E-03   1.63699244E-03
  -2.49999994E-03   1.62711518E-03
  -2.45000003E-03   1.61649752E-03
  -2.40000011E-03   1.60494051E-03
  -2.34999997E-03   1.59233995E-03
  -2.30000005E-03   1.57873309E-03
  -2.24999990E-03   1.56427093E-03
  -2.19999999E-03   1.54914288E-03
  -2.15000007E-03   1.53349969E-03
  -2.09999993E-03   1.51737127E-03
  -2.05000001E-03   1.50064670E-03
  -2.00000009E-03   1.48311432E-03
  -1.94999995E-03   1.46454573E-03
  -1.90000003E-03   1.44479144E-03
  -1.85000000E-03   1.42383587E-03
  -1.79999997E-03   1.40181347E-03
  -1.75000005E-03   1.37894100E-03
  -1.70000002E-03   1.35541125E-03
  -1.64999999E-03   1.33130664E-03
  -1.59999996E-03   1.30654802E-03
  -1.55000004E-03   1.28091662E-03
  -1.50000001E-03   1.25415379E-03
  -1.44999998E-03   1.22605567E-03
  -1.39999995E-03   1.19655661E-03
  -1.35000004E-03   1.16576662E-03
  -1.30000000E-03   1.13392260E-03
  -1.24999997E-03   1.10126508E-03
  -1.20000006E-03   1.06792443E-03
  -1.15000003E-03   1.03386736E-03
  -1.09999999E-03   9.98893054E-04
  -1.04999996E-03   9.62712220E-04
  -1.00000005E-03   9.25069500E-04
  -9.50000016E-04   8.85843474E-04
  -8.99999985E-04   8.45099858E-04
  -8.50000011E-04   8.03071773E-04
  -7.99999980E-04   7.60048279E-04
  -7.50000007E-04   7.16228853E-04
  -6.99999975E-04   6.71628572E-04
  -6.50000002E-04   6.26064895E-04
  -6.00000028E-04   5.79217740E-04
  -5.49999997E-04   5.30773716E-04
  -5.00000024E-04   4.80555376E-04
  -4.49999992E-04   4.28593252E-04
  -3.99999990E-04   3.75112635E-04
  -3.49999988E-04   3.20433988E-04
  -3.00000014E-04   2.64822011E-04
  -2.50000012E-04   2.08361802E-04
  -1.99999995E-04   1.50904190E-04
  -1.50000007E-04   9.21196333E-05
  -9.99999975E-05   3.16489313E-05
  -4.99999987E-05  -3.07527444E-05
   0.00000000      -9.51162947E-05
   4.99999987E-05  -1.61243093E-04
   9.99999975E-05  -2.28789737E-04
   1.50000007E-04  -2.97436723E-04
   1.99999995E-04  -3.67022789E-04
   2.50000012E-04  -4.37632290E-04
   3.00000014E-04  -5.09574893E-04
   3.49999988E-04  -5.83261310E-04
   3.99999990E-04  -6.59034471E-04
   4.49999992E-04  -7.36999500E-04
   5.00000024E-04  -8.16985732E-04
   5.49999997E-04  -8.98632396E-04
   6.00000028E-04  -9.81545891E-04
   6.50000002E-04  -1.06547761E-03
   6.99999975E-04  -1.15044648E-03
   7.50000007E-04  -1.23674818E-03
   7.99999980E-04  -1.32482778E-03
   8.50000011E-04  -1.41509017E-03
   8.99999985E-04  -1.50772231E-03
   9.50000016E-04  -1.60261383E-03
   1.00000005E-03  -1.69941713E-03
   1.04999996E-03  -1.79768133E-03
   1.09999999E-03  -1.89706159E-03
   1.15000003E-03  -1.99749693E-03
   1.20000006E-03  -2.09923461E-03
   1.24999997E-03  -2.20273039E-03
   1.30000000E-03  -2.30846624E-03
   1.35000004E-03  -2.41672387E-03
   1.39999995E-03  -2.52745603E-03
   1.44999998E-03  -2.64033303E-03
   1.50000001E-03  -2.75487523E-03
   1.55000004E-03  -2.87065282E-03
   1.59999996E-03  -2.98750540E-03
   1.64999999E-03  -3.10561201E-03
   1.70000002E-03  -3.22543201E-03
   1.75000005E-03  -3.34750721E-03
   1.79999997E-03  -3.47220968E-03
   1.85000000E-03  -3.59958922E-03
   1.90000003E-03  -3.72934807E-03
   1.94999995E-03  -3.86097236E-03
   2.00000009E-03  -3.99395870E-03
   2.05000001E-03  -4.12803004E-03
   2.09999993E-03  -4.26326739E-03
   2.15000007E-03  -4.40009637E-03
   2.19999999E-03  -4.53909207E-03
   2.24999990E-03  -4.68073133E-03
   2.30000005E-03  -4.82519297E-03
   2.34999997E-03  -4.97225439E-03
   2.40000011E-03  -5.12139313E-03
   2.45000003E-03  -5.27203130E-03
   2.49999994E-03  -5.42377867E-03
   2.55000009E-03  -5.57660917E-03
   2.60000001E-03  -5.73087623E-03
   2.64999992E-03  -5.88717312E-03
   2.70000007E-03  -6.04606885E-03
   2.74999999E-03  -6.20785449E-03
   2.79999990E-03  -6.37241267E-03