  -3.99999991E-02   0.00000000    
  -3.99499983E-02   0.00000000    
  -3.99000011E-02   0.00000000    
  -3.98500003E-02   3.24824190E-18
  -3.97999994E-02   1.81164383E-17
  -3.97499986E-02   5.18538119E-17
  -3.97000015E-02   9.36728575E-17
  -3.96500006E-02   9.55047714E-17
  -3.95999998E-02  -3.14412740E-17
  -3.95499989E-02  -3.89234986E-16
  -3.95000018E-02  -1.03919179E-15
  -3.94500010E-02  -1.94923753E-15
  -3.94000001E-02  -2.97934352E-15
  -3.93499993E-02  -3.92567118E-15
  -3.92999984E-02  -4.61179667E-15
  -3.92500013E-02  -4.98615897E-15
  -3.92000005E-02  -5.17463439E-15
  -3.91499996E-02  -5.45134184E-15
  -3.90999988E-02  -6.12556609E-15
  -3.90500017E-02  -7.38644663E-15
  -3.90000008E-02  -9.17963147E-15
  -3.89500000E-02  -1.11883345E-14
  -3.88999991E-02  -1.29453841E-14
  -3.88499983E-02  -1.40318089E-14
  -3.88000011E-02  -1.42628761E-14
  -3.87500003E-02  -1.37611683E-14
  -3.86999995E-02  -1.28715643E-14
  -3.86499986E-02  -1.19535729E-14
  -3.86000015E-02  -1.11490178E-14
  -3.85500006E-02  -1.02391206E-14
  -3.84999998E-02  -8.66883080E-15
  -3.84499989E-02  -5.74114993E-15
  -3.84000018E-02  -8.98141857E-16
  -3.83500010E-02   6.05045206E-15
  -3.83000001E-02   1.48767717E-14
  -3.82499993E-02   2.50990042E-14
  -3.81999984E-02   3.62751313E-14
  -3.81500013E-02   4.82627888E-14
  -3.81000005E-02   6.12993204E-14
  -3.80499996E-02   7.58595796E-14
  -3.79999988E-02   9.23734694E-14
  -3.79500017E-02   1.10959060E-13
  -3.79000008E-02   1.31316941E-13
  -3.78500000E-02   1.52849331E-13
  -3.77999991E-02   1.74950495E-13
  -3.77499983E-02   1.97314075E-13
  -3.77000012E-02   2.20069758E-13
  -3.76500003E-02   2.43633754E-13
  -3.75999995E-02   2.68320170E-13
  -3.75499986E-02   2.93925203E-13
  -3.75000015E-02   3.19551053E-13
  -3.74500006E-02   3.43820594E-13
  -3.73999998E-02   3.65404023E-13
  -3.73499990E-02   3.83574710E-13
  -3.73000018E-02   3.98462730E-13
  -3.72500010E-02   4.10815018E-13
  -3.72000001E-02   4.21326873E-13
  -3.71499993E-02   4.29857538E-13
  -3.70999984E-02   4.34960228E-13
  -3.70500013E-02   4.34070694E-13
  -3.70000005E-02   4.24404273E-13
  -3.69499996E-02   4.04216320E-13
  -3.68999988E-02   3.73785069E-13
  -3.68500017E-02   3.35489232E-13
  -3.68000008E-02   2.92745781E-13
  -3.67500000E-02   2.48181873E-13
  -3.66999991E-02   2.01913532E-13
  -3.66499983E-02   1.50887644E-13
  -3.66000012E-02   8.98218471E-14
  -3.65500003E-02   1.35252569E-14
  -3.64999995E-02  -8.03542752E-14
  -3.64499986E-02  -1.89474860E-13
  -3.64000015E-02  -3.06926793E-13
  -3.63500006E-02  -4.23620991E-13
  -3.62999998E-02  -5.32121710E-13
  -3.62499990E-02  -6.30225798E-13
  -3.62000018E-02  -7.22436271E-13
  -3.61500010E-02  -8.18272696E-13
  -3.61000001E-02  -9.27826284E-13
  -3.60499993E-02  -1.05642133E-12
  -3.59999985E-02  -1.20091816E-12
  -3.59500013E-02  -1.34966886E-12
  -3.59000005E-02  -1.48657356E-12
  -3.58499996E-02  -1.59774592E-12
  -3.57999988E-02  -1.67786087E-12
  -3.57500017E-02  -1.73307137E-12
  -3.57000008E-02  -1.77866131E-12
  -3.56500000E-02  -1.83195624E-12
  -3.55999991E-02  -1.90341731E-12
  -3.55499983E-02  -1.99010686E-12
  -3.55000012E-02  -2.07503893E-12
  -3.54500003E-02  -2.13340196E-12
  -3.53999995E-02  -2.14336817E-12
  -3.53499986E-02  -2.09671473E-12
  -3.53000015E-02  -2.00410456E-12
  -3.52500007E-02  -1.89194320E-12
  -3.51999998E-02  -1.79145837E-12
  -3.51499990E-02  -1.72443722E-12
  -3.51000018E-02  -1.69209872E-12
  -3.50500010E-02  -1.67276295E-12
  -3.50000001E-02  -1.63033855E-12
  -3.49499993E-02  -1.53064714E-12
  -3.48999985E-02  -1.35850847E-12
  -3.48500013E-02  -1.12743864E-12
  -3.48000005E-02  -8.76600170E-13
  -3.47499996E-02  -6.55280734E-13
  -3.46999988E-02  -5.01169744E-13
  -3.46500017E-02  -4.22191768E-13
  -3.46000008E-02  -3.90805552E-13
  -3.45500000E-02  -3.54550916E-13
  -3.44999991E-02  -2.59294241E-13
  -3.44499983E-02  -7.53241463E-14
  -3.44000012E-02   1.85762606E-13
  -3.43500003E-02   4.72157903E-13
  -3.42999995E-02   7.11950084E-13
  -3.42499986E-02   8.44359088E-13
  -3.42000015E-02   8.48307644E-13
  -3.41500007E-02   7.54705814E-13
  -3.40999998E-02   6.35480600E-13
  -3.40499990E-02   5.72794904E-13
  -3.40000018E-02   6.21442784E-13
  -3.39500010E-02   7.81518079E-13
  -3.39000002E-02   9.94877358E-13
  -3.38499993E-02   1.16876647E-12
  -3.37999985E-02   1.21752304E-12
  -3.37500013E-02   1.10413707E-12
  -3.37000005E-02   8.62182667E-13
  -3.36499996E-02   5.86422349E-13
  -3.35999988E-02   3.94254643E-13
  -3.35500017E-02   3.74004538E-13
  -3.35000008E-02   5.43319784E-13
  -3.34500000E-02   8.37745942E-13
  -3.33999991E-02   1.13678641E-12
  -3.33499983E-02   1.31774312E-12
  -3.33000012E-02   1.31408328E-12
  -3.32500003E-02   1.15148180E-12
  -3.31999995E-02   9.43322785E-13
  -3.31499986E-02   8.45111741E-13
  -3.31000015E-02   9.86304137E-13
  -3.30500007E-02   1.40975729E-12
  -3.29999998E-02   2.04739004E-12
  -3.29499990E-02   2.74559173E-12
  -3.29000019E-02   3.33163943E-12
  -3.28500010E-02   3.69280171E-12
  -3.28000002E-02   3.83224442E-12
  -3.27499993E-02   3.87448363E-12
  -3.26999985E-02   4.01488565E-12
  -3.26500013E-02   4.43324110E-12
  -3.26000005E-02   5.20915082E-12
  -3.25499997E-02   6.27829039E-12
  -3.24999988E-02   7.45199215E-12
  -3.24500017E-02   8.49466331E-12
  -3.24000008E-02   9.22662467E-12
  -3.23500000E-02   9.60644498E-12
  -3.22999991E-02   9.75382275E-12
  -3.22499983E-02   9.89939207E-12
  -3.22000012E-02   1.02807476E-11
  -3.21500003E-02   1.10297474E-11
  -3.20999995E-02   1.21024623E-11
  -3.20499986E-02   1.32861196E-11
  -3.20000015E-02   1.42837773E-11
  -3.19500007E-02   1.48417858E-11
  -3.18999998E-02   1.48637665E-11
  -3.18499990E-02   1.44582107E-11
  -3.18000019E-02   1.38946563E-11
  -3.17500010E-02   1.34841409E-11
  -3.17000002E-02   1.34350482E-11
  -3.16499993E-02   1.37492621E-11
  -3.15999985E-02   1.42081208E-11
  -3.15500014E-02   1.44588421E-11
  -3.15000005E-02   1.41665750E-11
  -3.14499997E-02   1.31655789E-11
  -3.13999988E-02   1.15404084E-11
  -3.13500017E-02   9.59687538E-12
  -3.13000008E-02   7.73114558E-12
  -3.12500000E-02   6.25226520E-12
  -3.11999992E-02   5.23711586E-12
  -3.11500002E-02   4.48552393E-12
  -3.10999993E-02   3.60045912E-12
  -3.10500003E-02   2.16231677E-12
  -3.09999995E-02  -7.80631324E-14
  -3.09500005E-02  -3.07477156E-12
  -3.08999997E-02  -6.49032651E-12
  -3.08500007E-02  -9.83118101E-12
  -3.07999998E-02  -1.26591758E-11
  -3.07500008E-02  -1.47859867E-11
  -3.07000000E-02  -1.63615736E-11
  -3.06499992E-02  -1.78122326E-11
  -3.06000002E-02  -1.96504445E-11
  -3.05499993E-02  -2.22377637E-11
  -3.05000003E-02  -2.56065655E-11
  -3.04499995E-02  -2.94238071E-11
  -3.04000005E-02  -3.31187716E-11
  -3.03499997E-02  -3.61231427E-11
  -3.03000007E-02  -3.81188414E-11
  -3.02499998E-02  -3.91815434E-11
  -3.02000009E-02  -3.97508484E-11
  -3.01500000E-02  -4.04343017E-11
  -3.00999992E-02  -4.17279440E-11
  -3.00500002E-02  -4.37771104E-11
  -2.99999993E-02  -4.62873073E-11
  -2.99500003E-02  -4.86310853E-11
  -2.98999995E-02  -5.01095727E-11
  -2.98500005E-02  -5.02560528E-11
  -2.97999997E-02  -4.90458195E-11
  -2.97500007E-02  -4.69142329E-11
  -2.96999998E-02  -4.45682068E-11
  -2.96500009E-02  -4.26692605E-11
  -2.96000000E-02  -4.15272296E-11
  -2.95499992E-02  -4.09434986E-11
  -2.95000002E-02  -4.02799287E-11
  -2.94499993E-02  -3.87299047E-11
  -2.94000003E-02  -3.56758408E-11
  -2.93499995E-02  -3.09745667E-11
  -2.93000005E-02  -2.50391964E-11
  -2.92499997E-02  -1.86739010E-11
  -2.92000007E-02  -1.27278847E-11
  -2.91499998E-02  -7.71876747E-12
  -2.91000009E-02  -3.59427982E-12
  -2.90500000E-02   2.55711820E-13
  -2.89999992E-02   4.73403044E-12
  -2.89500002E-02   1.06292718E-11
  -2.88999993E-02   1.82459048E-11
  -2.88500004E-02   2.72392664E-11
  -2.87999995E-02   3.67360482E-11
  -2.87500005E-02   4.56947501E-11
  -2.86999997E-02   5.33511742E-11
  -2.86500007E-02   5.95510100E-11
  -2.85999998E-02   6.48166104E-11
  -2.85500009E-02   7.01100011E-11
  -2.85000000E-02   7.63898458E-11
  -2.84499992E-02   8.41556200E-11
  -2.84000002E-02   9.31838981E-11
  -2.83499993E-02   1.02581062E-10
  -2.83000004E-02   1.11138244E-10
  -2.82499995E-02   1.17837601E-10
  -2.82000005E-02   1.22286833E-10
  -2.81499997E-02   1.24884547E-10
  -2.81000007E-02   1.26635077E-10
  -2.80499998E-02   1.28686145E-10
  -2.80000009E-02   1.31789746E-10
  -2.79500000E-02   1.35926548E-10
  -2.78999992E-02   1.40267159E-10
  -2.78500002E-02   1.43496895E-10
  -2.77999993E-02   1.44368378E-10
  -2.77500004E-02   1.42239900E-10
  -2.76999995E-02   1.37357417E-10
  -2.76500005E-02   1.30746747E-10
  -2.75999997E-02   1.23754409E-10
  -2.75500007E-02   1.17434132E-10
  -2.74999999E-02   1.12051021E-10
  -2.74500009E-02   1.06929458E-10
  -2.74000000E-02   1.00722181E-10
  -2.73499992E-02   9.19910814E-11
  -2.73000002E-02   7.98473440E-11
  -2.72499993E-02   6.43656239E-11
  -2.72000004E-02   4.65805762E-11
  -2.71499995E-02   2.80573290E-11
  -2.71000005E-02   1.02174207E-11
  -2.70499997E-02  -6.28296850E-12
  -2.70000007E-02  -2.18426405E-11
  -2.69499999E-02  -3.77344614E-11
  -2.69000009E-02  -5.55236343E-11
  -2.68500000E-02  -7.63362915E-11
  -2.67999992E-02  -1.00302947E-10
  -2.67500002E-02  -1.26430019E-10
  -2.66999993E-02  -1.52967139E-10
  -2.66500004E-02  -1.78117507E-10
  -2.65999995E-02  -2.00780725E-10
  -2.65500005E-02  -2.20996194E-10
  -2.64999997E-02  -2.39881642E-10
  -2.64500007E-02  -2.59082505E-10
  -2.63999999E-02  -2.79968354E-10
  -2.63500009E-02  -3.02930764E-10
  -2.63000000E-02  -3.27098709E-10
  -2.62499992E-02  -3.50609458E-10
  -2.62000002E-02  -3.71324554E-10
  -2.61499994E-02  -3.87680804E-10
  -2.61000004E-02  -3.99297956E-10
  -2.60499995E-02  -4.07065909E-10
  -2.60000005E-02  -4.12662376E-10
  -2.59499997E-02  -4.17704371E-10
  -2.59000007E-02  -4.22908097E-10
  -2.58499999E-02  -4.27632957E-10
  -2.58000009E-02  -4.30021241E-10
  -2.57500000E-02  -4.27686081E-10
  -2.56999992E-02  -4.18648866E-10
  -2.56500002E-02  -4.02111927E-10
  -2.55999994E-02  -3.78718640E-10
  -2.55500004E-02  -3.50172530E-10
  -2.54999995E-02  -3.18375326E-10
  -2.54500005E-02  -2.84459900E-10
  -2.53999997E-02  -2.48149251E-10
  -2.53500007E-02  -2.07734177E-10
  -2.52999999E-02  -1.60692515E-10
  -2.52500009E-02  -1.04685233E-10
  -2.52000000E-02  -3.84899126E-11
  -2.51499992E-02   3.75457894E-11
  -2.51000002E-02   1.21741395E-10
  -2.50499994E-02   2.11920204E-10
  -2.50000004E-02   3.06478370E-10
  -2.49499995E-02   4.05214001E-10
  -2.49000005E-02   5.09539355E-10
  -2.48499997E-02   6.21973362E-10
  -2.48000007E-02   7.45124351E-10
  -2.47499999E-02   8.80614526E-10
  -2.47000009E-02   1.02841913E-09
  -2.46500000E-02   1.18693100E-09
  -2.45999992E-02   1.35372369E-09
  -2.45500002E-02   1.52669033E-09
  -2.44999994E-02   1.70505554E-09
  -2.44500004E-02   1.88980009E-09
  -2.43999995E-02   2.08330797E-09
  -2.43500005E-02   2.28837393E-09
  -2.42999997E-02   2.50701349E-09
  -2.42500007E-02   2.73959544E-09
  -2.41999999E-02   2.98469693E-09
  -2.41500009E-02   3.23975002E-09
  -2.41000000E-02   3.50221208E-09
  -2.40499992E-02   3.77072684E-09
  -2.40000002E-02   4.04577660E-09
  -2.39499994E-02   4.32951852E-09
  -2.39000004E-02   4.62486449E-09
  -2.38499995E-02   4.93420682E-09
  -2.38000005E-02   5.25836397E-09
  -2.37499997E-02   5.59620528E-09
  -2.37000007E-02   5.94514216E-09
  -2.36499999E-02   6.30227426E-09
  -2.36000009E-02   6.66568933E-09
  -2.35500000E-02   7.03533276E-09
  -2.34999992E-02   7.41306971E-09
  -2.34500002E-02   7.80188003E-09
  -2.33999994E-02   8.20454993E-09
  -2.33500004E-02   8.62244498E-09
  -2.32999995E-02   9.05488839E-09
  -2.32500006E-02   9.49945900E-09
  -2.31999997E-02   9.95306593E-09
  -2.31500007E-02   1.04133342E-08
  -2.30999999E-02   1.08796980E-08
  -2.30500009E-02   1.13536931E-08
  -2.30000000E-02   1.18383241E-08
  -2.29499992E-02   1.23367805E-08
  -2.29000002E-02   1.28510491E-08
  -2.28499994E-02   1.33810643E-08
  -2.28000004E-02   1.39247645E-08
  -2.27499995E-02   1.44790437E-08
  -2.27000006E-02   1.50411861E-08
  -2.26499997E-02   1.56101372E-08
  -2.26000007E-02   1.61870659E-08
  -2.25499999E-02   1.67749299E-08
  -2.25000009E-02   1.73772765E-08
  -2.24500000E-02   1.79967437E-08
  -2.23999992E-02   1.86339975E-08
  -2.23500002E-02   1.92875191E-08
  -2.22999994E-02   1.99543972E-08
  -2.22500004E-02   2.06317274E-08
  -2.21999995E-02   2.13180620E-08
  -2.21500006E-02   2.20141967E-08
  -2.20999997E-02   2.27229950E-08
  -2.20500007E-02   2.34482957E-08
  -2.19999999E-02   2.41934011E-08
  -2.19500009E-02   2.49597747E-08
  -2.19000001E-02   2.57465853E-08
  -2.18499992E-02   2.65512714E-08
  -2.18000002E-02   2.73708824E-08
  -2.17499994E-02   2.82036172E-08
  -2.17000004E-02   2.90498647E-08
  -2.16499995E-02   2.99122895E-08
  -2.16000006E-02   3.07949186E-08
  -2.15499997E-02   3.17016280E-08
  -2.15000007E-02   3.26346878E-08
  -2.14499999E-02   3.35940378E-08
  -2.14000009E-02   3.45776101E-08
  -2.13500001E-02   3.55825449E-08
  -2.12999992E-02   3.66067674E-08
  -2.12500002E-02   3.76502634E-08
  -2.11999994E-02   3.87154167E-08
  -2.11500004E-02   3.98063236E-08
  -2.10999995E-02   4.09273611E-08
  -2.10500006E-02   4.20815702E-08
  -2.09999997E-02   4.32697611E-08
  -2.09500007E-02   4.44904877E-08
  -2.08999999E-02   4.57410998E-08
  -2.08500009E-02   4.70193484E-08
  -2.08000001E-02   4.83247753E-08
  -2.07499992E-02   4.96593913E-08
  -2.07000002E-02   5.10272109E-08
  -2.06499994E-02   5.24329344E-08
  -2.06000004E-02   5.38803384E-08
  -2.05499995E-02   5.53710926E-08
  -2.05000006E-02   5.69044971E-08
  -2.04499997E-02   5.84782960E-08
  -2.04000007E-02   6.00902226E-08
  -2.03499999E-02   6.17394846E-08
  -2.03000009E-02   6.34277129E-08
  -2.02500001E-02   6.51587584E-08
  -2.01999992E-02   6.69375595E-08
  -2.01500002E-02   6.87685642E-08
  -2.00999994E-02   7.06543091E-08
  -2.00500004E-02   7.25949505E-08
  -1.99999996E-02   7.45887974E-08
  -1.99500006E-02   7.66336896E-08
  -1.98999997E-02   7.87286254E-08
  -1.98500007E-02   8.08748553E-08
  -1.97999999E-02   8.30760101E-08
  -1.97500009E-02   8.53371560E-08
  -1.97000001E-02   8.76632953E-08
  -1.96499992E-02   9.00578740E-08
  -1.96000002E-02   9.25219652E-08
  -1.95499994E-02   9.50545953E-08
  -1.95000004E-02   9.76539454E-08
  -1.94499996E-02   1.00318928E-07
  -1.94000006E-02   1.03050517E-07
  -1.93499997E-02   1.05852081E-07
  -1.93000007E-02   1.08728756E-07
  -1.92499999E-02   1.11686056E-07
  -1.92000009E-02   1.14728266E-07
  -1.91500001E-02   1.17857503E-07
  -1.90999992E-02   1.21073668E-07
  -1.90500002E-02   1.24375461E-07
  -1.89999994E-02   1.27761894E-07
  -1.89500004E-02   1.31233733E-07
  -1.88999996E-02   1.34794078E-07
  -1.88500006E-02   1.38448101E-07
  -1.87999997E-02   1.42201685E-07
  -1.87500007E-02   1.46059961E-07
  -1.86999999E-02   1.50026068E-07
  -1.86500009E-02   1.54100917E-07
  -1.86000001E-02   1.58283967E-07
  -1.85499992E-02   1.62574551E-07
  -1.85000002E-02   1.66973379E-07
  -1.84499994E-02   1.71483350E-07
  -1.84000004E-02   1.76109609E-07
  -1.83499996E-02   1.80858336E-07
  -1.83000006E-02   1.85735416E-07
  -1.82499997E-02   1.90745027E-07
  -1.82000007E-02   1.95889243E-07
  -1.81499999E-02   2.01168376E-07
  -1.81000009E-02   2.06582328E-07
  -1.80500001E-02   2.12131923E-07
  -1.79999992E-02   2.17820030E-07
  -1.79500002E-02   2.23651668E-07
  -1.78999994E-02   2.29633301E-07
  -1.78500004E-02   2.35771424E-07
  -1.77999996E-02   2.42071280E-07
  -1.77500006E-02   2.48536054E-07
  -1.76999997E-02   2.55167066E-07
  -1.76500008E-02   2.61964942E-07
  -1.75999999E-02   2.68930819E-07
  -1.75500009E-02   2.76067482E-07
  -1.75000001E-02   2.83379990E-07
  -1.74499992E-02   2.90874965E-07
  -1.74000002E-02   2.98559456E-07
  -1.73499994E-02   3.06439688E-07
  -1.73000004E-02   3.14520065E-07
  -1.72499996E-02   3.22803089E-07
  -1.72000006E-02   3.31290266E-07
  -1.71499997E-02   3.39983103E-07
  -1.71000008E-02   3.48884726E-07
  -1.70499999E-02   3.58000108E-07
  -1.70000009E-02   3.67336071E-07
  -1.69500001E-02   3.76900090E-07
  -1.68999992E-02   3.86699270E-07
  -1.68500002E-02   3.96739125E-07
  -1.67999994E-02   4.07023407E-07
  -1.67500004E-02   4.17554560E-07
  -1.66999996E-02   4.28334971E-07
  -1.66500006E-02   4.39367994E-07
  -1.65999997E-02   4.50658689E-07
  -1.65500008E-02   4.62213990E-07
  -1.64999999E-02   4.74041769E-07
  -1.64500009E-02   4.86149872E-07
  -1.64000001E-02   4.98545035E-07
  -1.63499992E-02   5.11232258E-07
  -1.63000003E-02   5.24215352E-07
  -1.62499994E-02   5.37497556E-07
  -1.62000004E-02   5.51082735E-07
  -1.61499996E-02   5.64976233E-07
  -1.61000006E-02   5.79185155E-07
  -1.60499997E-02   5.93717800E-07
  -1.60000008E-02   6.08582582E-07
  -1.59499999E-02   6.23787230E-07
  -1.59000009E-02   6.39338282E-07
  -1.58500001E-02   6.55240854E-07
  -1.57999992E-02   6.71499265E-07
  -1.57500003E-02   6.88118178E-07
  -1.56999994E-02   7.05103275E-07
  -1.56500004E-02   7.22462062E-07
  -1.55999996E-02   7.40203177E-07
  -1.55499997E-02   7.58335773E-07
  -1.54999997E-02   7.76868717E-07
  -1.54499998E-02   7.95809683E-07
  -1.53999999E-02   8.15165436E-07
  -1.53500000E-02   8.34941432E-07
  -1.53000001E-02   8.55143469E-07
  -1.52500002E-02   8.75778028E-07
  -1.52000003E-02   8.96852896E-07
  -1.51500003E-02   9.18376998E-07
  -1.51000004E-02   9.40360280E-07
  -1.50499996E-02   9.62812578E-07
  -1.49999997E-02   9.85742986E-07
  -1.49499997E-02   1.00915986E-06
  -1.48999998E-02   1.03307013E-06
  -1.48499999E-02   1.05748097E-06
  -1.48000000E-02   1.08239976E-06
  -1.47500001E-02   1.10783458E-06
  -1.47000002E-02   1.13379531E-06
  -1.46500003E-02   1.16029253E-06
  -1.46000003E-02   1.18733669E-06
  -1.45500004E-02   1.21493861E-06
  -1.44999996E-02   1.24310770E-06
  -1.44499997E-02   1.27185308E-06
  -1.43999998E-02   1.30118258E-06
  -1.43499998E-02   1.33110495E-06
  -1.42999999E-02   1.36162942E-06
  -1.42500000E-02   1.39276597E-06
  -1.42000001E-02   1.42452609E-06
  -1.41500002E-02   1.45692138E-06
  -1.41000003E-02   1.48996389E-06
  -1.40500003E-02   1.52366465E-06
  -1.40000004E-02   1.55803411E-06
  -1.39499996E-02   1.59308217E-06
  -1.38999997E-02   1.62881827E-06
  -1.38499998E-02   1.66525274E-06
  -1.37999998E-02   1.70239662E-06
  -1.37499999E-02   1.74026184E-06
  -1.37000000E-02   1.77886125E-06
  -1.36500001E-02   1.81820781E-06
  -1.36000002E-02   1.85831414E-06
  -1.35500003E-02   1.89919206E-06
  -1.35000004E-02   1.94085328E-06
  -1.34500004E-02   1.98330872E-06
  -1.33999996E-02   2.02657020E-06
  -1.33499997E-02   2.07064909E-06
  -1.32999998E-02   2.11555812E-06
  -1.32499998E-02   2.16131116E-06
  -1.31999999E-02   2.20792185E-06
  -1.31500000E-02   2.25540452E-06
  -1.31000001E-02   2.30377282E-06
  -1.30500002E-02   2.35303946E-06
  -1.30000003E-02   2.40321810E-06
  -1.29500004E-02   2.45432102E-06
  -1.29000004E-02   2.50636072E-06
  -1.28499996E-02   2.55935061E-06
  -1.27999997E-02   2.61330479E-06
  -1.27499998E-02   2.66823781E-06
  -1.26999998E-02   2.72416514E-06
  -1.26499999E-02   2.78110201E-06
  -1.26000000E-02   2.83906388E-06
  -1.25500001E-02   2.89806508E-06
  -1.25000002E-02   2.95811924E-06
  -1.24500003E-02   3.01924001E-06
  -1.24000004E-02   3.08144172E-06
  -1.23500004E-02   3.14473800E-06
  -1.22999996E-02   3.20914501E-06
  -1.22499997E-02   3.27467887E-06
  -1.21999998E-02   3.34135643E-06
  -1.21499998E-02   3.40919382E-06
  -1.20999999E-02   3.47820765E-06
  -1.20500000E-02   3.54841245E-06
  -1.20000001E-02   3.61982234E-06
  -1.19500002E-02   3.69245163E-06
  -1.19000003E-02   3.76631510E-06
  -1.18500004E-02   3.84142868E-06
  -1.18000004E-02   3.91780986E-06
  -1.17499996E-02   3.99547662E-06
  -1.16999997E-02   4.07444713E-06
  -1.16499998E-02   4.15473824E-06
  -1.15999999E-02   4.23636584E-06
  -1.15499999E-02   4.31934495E-06
  -1.15000000E-02   4.40369013E-06
  -1.14500001E-02   4.48941591E-06
  -1.14000002E-02   4.57653823E-06
  -1.13500003E-02   4.66507527E-06
  -1.13000004E-02   4.75504430E-06
  -1.12500004E-02   4.84646489E-06
  -1.11999996E-02   4.93935431E-06
  -1.11499997E-02   5.03373030E-06
  -1.10999998E-02   5.12960696E-06
  -1.10499999E-02   5.22700020E-06
  -1.09999999E-02   5.32592230E-06
  -1.09500000E-02   5.42639054E-06
  -1.09000001E-02   5.52842221E-06
  -1.08500002E-02   5.63203548E-06
  -1.08000003E-02   5.73724810E-06
  -1.07500004E-02   5.84408053E-06
  -1.07000005E-02   5.95254915E-06
  -1.06499996E-02   6.06266985E-06
  -1.05999997E-02   6.17445721E-06
  -1.05499998E-02   6.28792441E-06
  -1.04999999E-02   6.40308554E-06
  -1.04499999E-02   6.51995560E-06
  -1.04000000E-02   6.63855235E-06
  -1.03500001E-02   6.75889487E-06
  -1.03000002E-02   6.88100135E-06
  -1.02500003E-02   7.00488908E-06
  -1.02000004E-02   7.13057261E-06
  -1.01500005E-02   7.25806512E-06
  -1.00999996E-02   7.38737754E-06
  -1.00499997E-02   7.51852349E-06
  -9.99999978E-03   7.65151617E-06
  -9.94999986E-03   7.78637241E-06
  -9.89999995E-03   7.92310766E-06
  -9.85000003E-03   8.06174103E-06
  -9.80000012E-03   8.20228706E-06
  -9.75000020E-03   8.34476123E-06
  -9.70000029E-03   8.48917352E-06
  -9.65000037E-03   8.63553487E-06
  -9.60000046E-03   8.78385526E-06
  -9.54999961E-03   8.93414472E-06
  -9.49999969E-03   9.08641687E-06
  -9.44999978E-03   9.24068718E-06
  -9.39999986E-03   9.39697111E-06
  -9.34999995E-03   9.55528049E-06
  -9.30000003E-03   9.71562895E-06
  -9.25000012E-03   9.87802287E-06
  -9.20000020E-03   1.00424695E-05
  -9.15000029E-03   1.02089734E-05
  -9.10000037E-03   1.03775428E-05
  -9.05000046E-03   1.05481886E-05
  -8.99999961E-03   1.07209207E-05
  -8.94999970E-03   1.08957511E-05
  -8.89999978E-03   1.10726887E-05
  -8.84999987E-03   1.12517428E-05
  -8.79999995E-03   1.14329177E-05
  -8.75000004E-03   1.16162128E-05
  -8.70000012E-03   1.18016324E-05
  -8.65000021E-03   1.19891783E-05
  -8.60000029E-03   1.21788535E-05
  -8.55000038E-03   1.23706677E-05
  -8.50000046E-03   1.25646284E-05
  -8.44999962E-03   1.27607409E-05
  -8.39999970E-03   1.29590080E-05
  -8.34999979E-03   1.31594288E-05
  -8.29999987E-03   1.33620006E-05
  -8.24999996E-03   1.35667187E-05
  -8.20000004E-03   1.37735760E-05
  -8.15000013E-03   1.39825706E-05
  -8.10000021E-03   1.41937016E-05
  -8.05000030E-03   1.44069709E-05
  -8.00000038E-03   1.46223792E-05
  -7.95000046E-03   1.48399258E-05
  -7.89999962E-03   1.50596015E-05
  -7.84999970E-03   1.52813973E-05
  -7.79999979E-03   1.55052985E-05
  -7.74999987E-03   1.57312916E-05
  -7.69999996E-03   1.59593656E-05
  -7.65000004E-03   1.61895114E-05
  -7.60000013E-03   1.64217236E-05
  -7.55000021E-03   1.66559948E-05
  -7.49999983E-03   1.68923143E-05
  -7.44999992E-03   1.71306710E-05
  -7.40000000E-03   1.73710469E-05
  -7.35000009E-03   1.76134163E-05
  -7.30000017E-03   1.78577575E-05
  -7.24999979E-03   1.81040468E-05
  -7.19999988E-03   1.83522679E-05
  -7.14999996E-03   1.86024045E-05
  -7.10000005E-03   1.88544400E-05
  -7.05000013E-03   1.91083545E-05
  -7.00000022E-03   1.93641281E-05
  -6.94999984E-03   1.96217279E-05
  -6.89999992E-03   1.98811194E-05
  -6.85000001E-03   2.01422699E-05
  -6.80000009E-03   2.04051430E-05
  -6.75000018E-03   2.06697077E-05
  -6.69999979E-03   2.09359368E-05
  -6.64999988E-03   2.12038012E-05
  -6.59999996E-03   2.14732754E-05
  -6.55000005E-03   2.17443212E-05
  -6.50000013E-03   2.20168968E-05
  -6.45000022E-03   2.22909548E-05
  -6.39999984E-03   2.25664444E-05
  -6.34999992E-03   2.28433200E-05
  -6.30000001E-03   2.31215363E-05
  -6.25000009E-03   2.34010568E-05
  -6.20000018E-03   2.36818378E-05
  -6.14999980E-03   2.39638357E-05
  -6.09999988E-03   2.42470014E-05
  -6.04999997E-03   2.45312804E-05
  -6.00000005E-03   2.48166052E-05
  -5.95000014E-03   2.51029123E-05
  -5.90000022E-03   2.53901380E-05
  -5.84999984E-03   2.56782205E-05
  -5.79999993E-03   2.59671087E-05
  -5.75000001E-03   2.62567410E-05
  -5.70000010E-03   2.65470626E-05
  -5.65000018E-03   2.68380099E-05
  -5.59999980E-03   2.71295030E-05
  -5.54999989E-03   2.74214653E-05
  -5.49999997E-03   2.77138060E-05
  -5.45000006E-03   2.80064451E-05
  -5.40000014E-03   2.82993024E-05
  -5.35000023E-03   2.85923052E-05
  -5.29999984E-03   2.88853807E-05
  -5.24999993E-03   2.91784563E-05
  -5.20000001E-03   2.94714482E-05
  -5.15000010E-03   2.97642600E-05
  -5.10000018E-03   3.00567935E-05
  -5.04999980E-03   3.03489469E-05
  -4.99999989E-03   3.06406109E-05
  -4.94999997E-03   3.09316929E-05
  -4.90000006E-03   3.12220945E-05
  -4.85000014E-03   3.15117177E-05
  -4.80000023E-03   3.18004713E-05
  -4.74999985E-03   3.20882464E-05
  -4.69999993E-03   3.23749337E-05
  -4.65000002E-03   3.26604095E-05
  -4.60000010E-03   3.29445465E-05
  -4.55000019E-03   3.32272175E-05
  -4.49999981E-03   3.35082987E-05
  -4.44999989E-03   3.37876700E-05
  -4.39999998E-03   3.40652150E-05
  -4.35000006E-03   3.43408174E-05
  -4.30000015E-03   3.46143497E-05
  -4.25000023E-03   3.48856811E-05
  -4.19999985E-03   3.51546660E-05
  -4.14999994E-03   3.54211443E-05
  -4.10000002E-03   3.56849705E-05
  -4.05000011E-03   3.59459918E-05
  -4.00000019E-03   3.62040628E-05
  -3.94999981E-03   3.64590451E-05
  -3.89999989E-03   3.67107968E-05
  -3.84999998E-03   3.69591689E-05
  -3.80000006E-03   3.72040013E-05
  -3.74999992E-03   3.74451192E-05
  -3.70000000E-03   3.76823482E-05
  -3.65000009E-03   3.79155026E-05
  -3.59999994E-03   3.81444042E-05
  -3.55000002E-03   3.83688857E-05
  -3.50000011E-03   3.85887688E-05
  -3.44999996E-03   3.88038970E-05
  -3.40000005E-03   3.90140922E-05
  -3.34999990E-03   3.92191760E-05
  -3.29999998E-03   3.94189483E-05
  -3.25000007E-03   3.96131982E-05
  -3.19999992E-03   3.98017110E-05
  -3.15000000E-03   3.99842756E-05
  -3.10000009E-03   4.01606922E-05
  -3.04999994E-03   4.03307677E-05
  -3.00000003E-03   4.04943057E-05
  -2.95000011E-03   4.06511099E-05
  -2.89999996E-03   4.08009691E-05
  -2.85000005E-03   4.09436543E-05
  -2.79999990E-03   4.10789326E-05
  -2.74999999E-03   4.12065529E-05
  -2.70000007E-03   4.13262824E-05
  -2.64999992E-03   4.14378846E-05
  -2.60000001E-03   4.15411305E-05
  -2.55000009E-03   4.16358016E-05
  -2.49999994E-03   4.17216688E-05
  -2.45000003E-03   4.17984993E-05
  -2.40000011E-03   4.18660347E-05
  -2.34999997E-03   4.19240132E-05
  -2.30000005E-03   4.19721546E-05
  -2.24999990E-03   4.20101824E-05
  -2.19999999E-03   4.20378310E-05
  -2.15000007E-03   4.20548458E-05
  -2.09999993E-03   4.20609722E-05
  -2.05000001E-03   4.20559554E-05
  -2.00000009E-03   4.20395336E-05
  -1.94999995E-03   4.20114338E-05
  -1.90000003E-03   4.19713469E-05
  -1.85000000E-03   4.19189746E-05
  -1.79999997E-03   4.18540076E-05
  -1.75000005E-03   4.17761439E-05
  -1.70000002E-03   4.16850962E-05
  -1.64999999E-03   4.15805807E-05
  -1.59999996E-03   4.14623246E-05
  -1.55000004E-03   4.13300295E-05
  -1.50000001E-03   4.11833935E-05
  -1.44999998E-03   4.10220855E-05
  -1.39999995E-03   4.08457781E-05
  -1.35000004E-03   4.06541294E-05
  -1.30000000E-03   4.04468083E-05
  -1.24999997E-03   4.02234909E-05
  -1.20000006E-03   3.99838682E-05
  -1.15000003E-03   3.97276308E-05
  -1.09999999E-03   3.94544622E-05
  -1.04999996E-03   3.91640351E-05
  -1.00000005E-03   3.88560038E-05
  -9.50000016E-04   3.85299936E-05
  -8.99999985E-04   3.81856407E-05
  -8.50000011E-04   3.78225886E-05
  -7.99999980E-04   3.74404844E-05
  -7.50000007E-04   3.70389898E-05
  -6.99999975E-04   3.66177701E-05
  -6.50000002E-04   3.61764905E-05
  -6.00000028E-04   3.57147946E-05
  -5.49999997E-04   3.52323041E-05
  -5.00000024E-04   3.47286405E-05
  -4.49999992E-04   3.42034073E-05
  -3.99999990E-04   3.36562189E-05
  -3.49999988E-04   3.30866933E-05
  -3.00000014E-04   3.24944704E-05
  -2.50000012E-04   3.18791899E-05
  -1.99999995E-04   3.12404918E-05
  -1.50000007E-04   3.05780086E-05
  -9.99999975E-05   2.98913546E-05
  -4.99999987E-05   2.91801261E-05
   0.00000000       2.84439047E-05
   4.99999987E-05   2.76822830E-05
   9.99999975E-05   2.68948552E-05
   1.50000007E-04   2.60812267E-05
   1.99999995E-04   2.52410246E-05
   2.50000012E-04   2.43738814E-05
   3.00000014E-04   2.34794097E-05
   3.49999988E-04   2.25572130E-05
   3.99999990E-04   2.16068729E-05
   4.49999992E-04   2.06279637E-05
   5.00000024E-04   1.96200454E-05
   5.49999997E-04   1.85827030E-05
   6.00000028E-04   1.75155237E-05
   6.50000002E-04   1.64181220E-05
   6.99999975E-04   1.52901121E-05
   7.50000007E-04   1.41311120E-05
   7.99999980E-04   1.29407235E-05
   8.50000011E-04   1.17185327E-05
   8.99999985E-04   1.04641022E-05
   9.50000016E-04   9.17698708E-06
   1.00000005E-03   7.85673910E-06
   1.04999996E-03   6.50294487E-06
   1.09999999E-03   5.11519784E-06
   1.15000003E-03   3.69311397E-06
   1.20000006E-03   2.23630673E-06
   1.24999997E-03   7.44396061E-07
   1.30000000E-03  -7.83041685E-07
   1.35000004E-03  -2.34644040E-06
   1.39999995E-03  -3.94624340E-06
   1.44999998E-03  -5.58290958E-06
   1.50000001E-03  -7.25685504E-06
   1.55000004E-03  -8.96847268E-06
   1.59999996E-03  -1.07181595E-05
   1.64999999E-03  -1.25062761E-05
   1.70000002E-03  -1.43332145E-05
   1.75000005E-03  -1.61993703E-05
   1.79999997E-03  -1.81051564E-05
   1.85000000E-03  -2.00510167E-05
   1.90000003E-03  -2.20373895E-05
   1.94999995E-03  -2.40646878E-05
   2.00000009E-03  -2.61333189E-05
   2.05000001E-03  -2.82436449E-05
   2.09999993E-03  -3.03960278E-05
   2.15000007E-03  -3.25908259E-05
   2.19999999E-03  -3.48284193E-05
   2.24999990E-03  -3.71091919E-05
   2.30000005E-03  -3.94335511E-05
   2.34999997E-03  -4.18019190E-05
   2.40000011E-03  -4.42147211E-05
   2.45000003E-03  -4.66723359E-05
   2.49999994E-03  -4.91751234E-05
   2.55000009E-03  -5.17234002E-05
   2.60000001E-03  -5.43174719E-05
   2.64999992E-03  -5.69576841E-05
   2.70000007E-03  -5.96443788E-05
   2.74999999E-03  -6.23779488E-05
   2.79999990E-03  -6.51587907E-05