  -3.99999991E-02   0.00000000    
  -3.99499983E-02   0.00000000    
  -3.99000011E-02   0.00000000    
  -3.98500003E-02   0.00000000    
  -3.97999994E-02   1.06115659E-17
  -3.97499986E-02   1.19475691E-16
  -3.97000015E-02   7.02664334E-16
  -3.96500006E-02   2.86203348E-15
  -3.95999998E-02   9.03015726E-15
  -3.95499989E-02   2.34122990E-14
  -3.95000018E-02   5.16861639E-14
  -3.94500010E-02   9.94374193E-14
  -3.94000001E-02   1.69400979E-13
  -3.93499993E-02   2.58626047E-13
  -3.92999984E-02   3.57639862E-13
  -3.92500013E-02   4.53683613E-13
  -3.92000005E-02   5.38474755E-13
  -3.91499996E-02   6.17972091E-13
  -3.90999988E-02   7.18786033E-13
  -3.90500017E-02   8.85377329E-13
  -3.90000008E-02   1.16548026E-12
  -3.89500000E-02   1.58758271E-12
  -3.88999991E-02   2.14070276E-12
  -3.88499983E-02   2.76899142E-12
  -3.88000011E-02   3.38918347E-12
  -3.87500003E-02   3.92833379E-12
  -3.86999995E-02   4.36699114E-12
  -3.86499986E-02   4.76545669E-12
  -3.86000015E-02   5.25350857E-12
  -3.85500006E-02   5.97841611E-12
  -3.84999998E-02   7.02748536E-12
  -3.84499989E-02   8.35982759E-12
  -3.84000018E-02   9.78611289E-12
  -3.83500010E-02   1.10186730E-11
  -3.83000001E-02   1.17817110E-11
  -3.82499993E-02   1.19375959E-11
  -3.81999984E-02   1.15686575E-11
  -3.81500013E-02   1.09666061E-11
  -3.81000005E-02   1.05207830E-11
  -3.80499996E-02   1.05448931E-11
  -3.79999988E-02   1.11162919E-11
  -3.79500017E-02   1.20039499E-11
  -3.79000008E-02   1.27268803E-11
  -3.78500000E-02   1.27272455E-11
  -3.77999991E-02   1.15866258E-11
  -3.77499983E-02   9.18808432E-12
  -3.77000012E-02   5.74636085E-12
  -3.76500003E-02   1.68787196E-12
  -3.75999995E-02  -2.56635230E-12
  -3.75499986E-02  -6.81492753E-12
  -3.75000015E-02  -1.11902137E-11
  -3.74500006E-02  -1.61242721E-11
  -3.73999998E-02  -2.21873474E-11
  -3.73499990E-02  -2.98715011E-11
  -3.73000018E-02  -3.94040287E-11
  -3.72500010E-02  -5.06494777E-11
  -3.72000001E-02  -6.31156863E-11
  -3.71499993E-02  -7.60446706E-11
  -3.70999984E-02  -8.85584661E-11
  -3.70500013E-02  -9.98403166E-11
  -3.70000005E-02  -1.09343548E-10
  -3.69499996E-02  -1.17011331E-10
  -3.68999988E-02  -1.23451180E-10
  -3.68500017E-02  -1.29959973E-10
  -3.68000008E-02  -1.38282816E-10
  -3.67500000E-02  -1.50061477E-10
  -3.66999991E-02  -1.66083231E-10
  -3.66499983E-02  -1.85616550E-10
  -3.66000012E-02  -2.06206038E-10
  -3.65500003E-02  -2.24197313E-10
  -3.64999995E-02  -2.35966857E-10
  -3.64499986E-02  -2.39448100E-10
  -3.64000015E-02  -2.35265113E-10
  -3.63500006E-02  -2.26796817E-10
  -3.62999998E-02  -2.18870769E-10
  -3.62499990E-02  -2.15424623E-10
  -3.62000018E-02  -2.17102059E-10
  -3.61500010E-02  -2.20030563E-10
  -3.61000001E-02  -2.16712148E-10
  -3.60499993E-02  -1.99066943E-10
  -3.59999985E-02  -1.62538205E-10
  -3.59500013E-02  -1.09350785E-10
  -3.59000005E-02  -4.90244303E-11
  -3.58499996E-02   4.74240829E-12
  -3.57999988E-02   4.00121707E-11
  -3.57500017E-02   5.29426399E-11
  -3.57000008E-02   5.13905377E-11
  -3.56500000E-02   5.34243101E-11
  -3.55999991E-02   8.04978445E-11
  -3.55499983E-02   1.47675469E-10
  -3.55000012E-02   2.55222982E-10
  -3.54500003E-02   3.85979804E-10
  -3.53999995E-02   5.10817055E-10
  -3.53499986E-02   6.00839711E-10
  -3.53000015E-02   6.41391329E-10
  -3.52500007E-02   6.41202980E-10
  -3.51999998E-02   6.31371455E-10
  -3.51499990E-02   6.53072207E-10
  -3.51000018E-02   7.38335504E-10
  -3.50500010E-02   8.92314889E-10
  -3.50000001E-02   1.08601605E-09
  -3.49499993E-02   1.26464228E-09
  -3.48999985E-02   1.36979428E-09
  -3.48500013E-02   1.36670408E-09
  -3.48000005E-02   1.26394506E-09
  -3.47499996E-02   1.11496889E-09
  -3.46999988E-02   9.98222616E-10
  -3.46500017E-02   9.82622539E-10
  -3.46000008E-02   1.09320042E-09
  -3.45500000E-02   1.29357747E-09
  -3.44999991E-02   1.49585500E-09
  -3.44499983E-02   1.59650537E-09
  -3.44000012E-02   1.52405910E-09
  -3.43500003E-02   1.27693289E-09
  -3.42999995E-02   9.31929534E-10
  -3.42499986E-02   6.15836937E-10
  -3.42000015E-02   4.49543569E-10
  -3.41500007E-02   4.88512231E-10
  -3.40999998E-02   6.88004764E-10
  -3.40499990E-02   9.12746156E-10
  -3.40000018E-02   9.91464577E-10
  -3.39500010E-02   7.95091437E-10
  -3.39000002E-02   3.03609360E-10
  -3.38499993E-02  -3.71856296E-10
  -3.37999985E-02  -1.02718600E-09
  -3.37500013E-02  -1.45182988E-09
  -3.37000005E-02  -1.52747237E-09
  -3.36499996E-02  -1.29288169E-09
  -3.35999988E-02  -9.40480693E-10
  -3.35500017E-02  -7.39353523E-10
  -3.35000008E-02  -9.14068654E-10
  -3.34500000E-02  -1.53280422E-09
  -3.33999991E-02  -2.45911713E-09
  -3.33499983E-02  -3.39660056E-09
  -3.33000012E-02  -4.01413036E-09
  -3.32500003E-02  -4.09970058E-09
  -3.31999995E-02  -3.67226716E-09
  -3.31499986E-02  -2.99437275E-09
  -3.31000015E-02  -2.47025800E-09
  -3.30500007E-02  -2.46722265E-09
  -3.29999998E-02  -3.13792459E-09
  -3.29499990E-02  -4.32786251E-09
  -3.29000019E-02  -5.61941249E-09
  -3.28500010E-02  -6.50360921E-09
  -3.28000002E-02  -6.60958754E-09
  -3.27499993E-02  -5.88827609E-09
  -3.26999985E-02  -4.65981564E-09
  -3.26500013E-02  -3.49105944E-09
  -3.26000005E-02  -2.94712743E-09
  -3.25499997E-02  -3.32413386E-09
  -3.24999988E-02  -4.48777371E-09
  -3.24500017E-02  -5.90243188E-09
  -3.24000008E-02  -6.85219304E-09
  -3.23500000E-02  -6.76460266E-09
  -3.22999991E-02  -5.49250423E-09
  -3.22499983E-02  -3.41772699E-09
  -3.22000012E-02  -1.31383182E-09
  -3.21500003E-02  -1.38702288E-11
  -3.20999995E-02  -2.44892995E-11
  -3.20499986E-02  -1.26373156E-09
  -3.20000015E-02  -3.05501824E-09
  -3.19500007E-02  -4.39917125E-09
  -3.18999998E-02  -4.41728432E-09
  -3.18499990E-02  -2.76922463E-09
  -3.18000019E-02   1.50008853E-10
  -3.17500010E-02   3.34368377E-09
  -3.17000002E-02   5.63707303E-09
  -3.16499993E-02   6.21326546E-09
  -3.15999985E-02   5.01797626E-09
  -3.15500014E-02   2.83497648E-09
  -3.15000005E-02   9.74475278E-10
  -3.14499997E-02   6.94104829E-10
  -3.13999988E-02   2.60536526E-09
  -3.13500017E-02   6.34201180E-09
  -3.13000008E-02   1.06626761E-08
  -3.12500000E-02   1.39683536E-08
  -3.11999992E-02   1.50203388E-08
  -3.11500002E-02   1.35368774E-08
  -3.10999993E-02   1.03829016E-08
  -3.10500003E-02   7.23890015E-09
  -3.09999995E-02   5.87057247E-09
  -3.09500005E-02   7.31425986E-09
  -3.08999997E-02   1.13516343E-08
  -3.08500007E-02   1.65350400E-08
  -3.07999998E-02   2.07843858E-08
  -3.07500008E-02   2.23119816E-08
  -3.07000000E-02   2.04647748E-08
  -3.06499992E-02   1.60881140E-08
  -3.06000002E-02   1.12146461E-08
  -3.05499993E-02   8.18439805E-09
  -3.05000003E-02   8.57239435E-09
  -3.04499995E-02   1.24107835E-08
  -3.04000005E-02   1.80830817E-08
  -3.03499997E-02   2.29771810E-08
  -3.03000007E-02   2.46365843E-08
  -3.02499998E-02   2.19039791E-08
  -3.02000009E-02   1.55271991E-08
  -3.01500000E-02   7.91793475E-09
  -3.00999992E-02   2.12944973E-09
  -3.00500002E-02   4.84461082E-10
  -2.99999993E-02   3.46901130E-09
  -2.99500003E-02   9.41727851E-09
  -2.98999995E-02   1.51734341E-08
  -2.98500005E-02   1.74746404E-08
  -2.97999997E-02   1.44529260E-08
  -2.97500007E-02   6.56839694E-09
  -2.96999998E-02  -3.48527762E-09
  -2.96500009E-02  -1.19105330E-08
  -2.96000000E-02  -1.55005964E-08
  -2.95499992E-02  -1.31452262E-08
  -2.95000002E-02  -6.44410036E-09
  -2.94499993E-02   8.98127406E-10
  -2.94000003E-02   4.67504924E-09
  -2.93499995E-02   2.08952500E-09
  -2.93000005E-02  -6.89237512E-09
  -2.92499997E-02  -1.93931555E-08
  -2.92000007E-02  -3.08051327E-08
  -2.91499998E-02  -3.68189390E-08
  -2.91000009E-02  -3.54055132E-08
  -2.90500000E-02  -2.78392456E-08
  -2.89999992E-02  -1.82500912E-08
  -2.89500002E-02  -1.18459260E-08
  -2.88999993E-02  -1.25636141E-08
  -2.88500004E-02  -2.12026325E-08
  -2.87999995E-02  -3.49189193E-08
  -2.87500005E-02  -4.83695715E-08
  -2.86999997E-02  -5.60533095E-08
  -2.86500007E-02  -5.48233814E-08
  -2.85999998E-02  -4.54273135E-08
  -2.85500009E-02  -3.23265503E-08
  -2.85000000E-02  -2.18069633E-08
  -2.84499992E-02  -1.91754328E-08
  -2.84000002E-02  -2.62890865E-08
  -2.83499993E-02  -4.05619076E-08
  -2.83000004E-02  -5.59631097E-08
  -2.82499995E-02  -6.56298269E-08
  -2.82000005E-02  -6.49629328E-08
  -2.81499997E-02  -5.38092166E-08
  -2.81000007E-02  -3.66965054E-08
  -2.80499998E-02  -2.09394226E-08
  -2.80000009E-02  -1.34001921E-08
  -2.79500000E-02  -1.73343615E-08
  -2.78999992E-02  -3.07664045E-08
  -2.78500002E-02  -4.71952433E-08
  -2.77999993E-02  -5.83947646E-08
  -2.77500004E-02  -5.81079256E-08
  -2.76999995E-02  -4.49806272E-08
  -2.76500005E-02  -2.33674733E-08
  -2.75999997E-02  -1.56340385E-09
  -2.75500007E-02   1.18261649E-08
  -2.74999999E-02   1.17888312E-08
  -2.74500009E-02  -6.87521762E-10
  -2.74000000E-02  -1.88539175E-08
  -2.73499992E-02  -3.30700551E-08
  -2.73000002E-02  -3.50891085E-08
  -2.72499993E-02  -2.18548486E-08
  -2.72000004E-02   2.93468005E-09
  -2.71499995E-02   3.02843510E-08
  -2.71000005E-02   4.98180590E-08
  -2.70499997E-02   5.44526380E-08
  -2.70000007E-02   4.37265655E-08
  -2.69499999E-02   2.42232847E-08
  -2.69000009E-02   6.80036161E-09
  -2.68500000E-02   1.78088000E-09
  -2.67999992E-02   1.42288741E-08
  -2.67500002E-02   4.14617034E-08
  -2.66999993E-02   7.40039923E-08
  -2.66500004E-02   9.96603688E-08
  -2.65999995E-02   1.08955035E-07
  -2.65500005E-02   9.95083624E-08
  -2.64999997E-02   7.73274920E-08
  -2.64500007E-02   5.43276535E-08
  -2.63999999E-02   4.30932552E-08
  -2.63500009E-02   5.11739024E-08
  -2.63000000E-02   7.74925510E-08
  -2.62499992E-02   1.12562063E-07
  -2.62000002E-02   1.42527483E-07
  -2.61499994E-02   1.55313401E-07
  -2.61000004E-02   1.46147286E-07
  -2.60499995E-02   1.19931201E-07
  -2.60000005E-02   8.92905376E-08
  -2.59499997E-02   6.90576272E-08
  -2.59000007E-02   6.95896247E-08
  -2.58499999E-02   9.19202705E-08
  -2.58000009E-02   1.27000362E-07
  -2.57500000E-02   1.59490767E-07
  -2.56999992E-02   1.74518846E-07
  -2.56500002E-02   1.64418694E-07
  -2.55999994E-02   1.32397119E-07
  -2.55500004E-02   9.13762364E-08
  -2.54999995E-02   5.84018984E-08
  -2.54500005E-02   4.70303547E-08
  -2.53999997E-02   6.10897217E-08
  -2.53500007E-02   9.26833508E-08
  -2.52999999E-02   1.25456324E-07
  -2.52500009E-02   1.41786657E-07
  -2.52000000E-02   1.30745576E-07
  -2.51499992E-02   9.32370838E-08
  -2.51000002E-02   4.19097006E-08
  -2.50499994E-02  -4.25980806E-09
  -2.50000004E-02  -2.83966646E-08
  -2.49499995E-02  -2.34296351E-08
  -2.49000005E-02   4.44781012E-09
  -2.48499997E-02   3.82376371E-08
  -2.48000007E-02   5.75589354E-08
  -2.47499999E-02   4.77955062E-08
  -2.47000009E-02   6.86770241E-09
  -2.46500000E-02  -5.35015161E-08
  -2.45999992E-02  -1.12740167E-07
  -2.45500002E-02  -1.50511653E-07
  -2.44999994E-02  -1.55914734E-07
  -2.44500004E-02  -1.32631271E-07
  -2.43999995E-02  -9.75865433E-08
  -2.43500005E-02  -7.35690122E-08
  -2.42999997E-02  -7.90072505E-08
  -2.42500007E-02  -1.19470627E-07
  -2.41999999E-02  -1.84791077E-07
  -2.41500009E-02  -2.53250022E-07
  -2.41000000E-02  -3.01105132E-07
  -2.40499992E-02  -3.13266924E-07
  -2.40000002E-02  -2.90312471E-07
  -2.39499994E-02  -2.48567574E-07
  -2.39000004E-02  -2.13054165E-07
  -2.38499995E-02  -2.06330782E-07
  -2.38000005E-02  -2.38187752E-07
  -2.37499997E-02  -3.00888104E-07
  -2.37000007E-02  -3.72239441E-07
  -2.36499999E-02  -4.25283702E-07
  -2.36000009E-02  -4.40363124E-07
  -2.35500000E-02  -4.14145291E-07
  -2.34999992E-02  -3.61445359E-07
  -2.34500002E-02  -3.08858745E-07
  -2.33999994E-02  -2.82909127E-07
  -2.33500004E-02  -2.97966807E-07
  -2.32999995E-02  -3.49414734E-07
  -2.32500006E-02  -4.15279601E-07
  -2.31999997E-02  -4.65774320E-07
  -2.31500007E-02  -4.76596057E-07
  -2.30999999E-02  -4.40029055E-07
  -2.30500009E-02  -3.68766678E-07
  -2.30000000E-02  -2.90560934E-07
  -2.29499992E-02  -2.35931964E-07
  -2.29000002E-02  -2.24366360E-07
  -2.28499994E-02  -2.55235335E-07
  -2.28000004E-02  -3.07652613E-07
  -2.27499995E-02  -3.49522452E-07
  -2.27000006E-02  -3.51860507E-07
  -2.26499997E-02  -3.01993452E-07
  -2.26000007E-02  -2.09622087E-07
  -2.25499999E-02  -1.02848389E-07
  -2.25000009E-02  -1.57695084E-08
  -2.24500000E-02   2.68968456E-08
  -2.23999992E-02   2.12307842E-08
  -2.23500002E-02  -1.36955620E-08
  -2.22999994E-02  -4.40306813E-08
  -2.22500004E-02  -3.62393884E-08
  -2.21999995E-02   2.76382845E-08
  -2.21500006E-02   1.41492706E-07
  -2.20999997E-02   2.77407452E-07
  -2.20500007E-02   3.97857633E-07
  -2.19999999E-02   4.72492417E-07
  -2.19500009E-02   4.91964556E-07
  -2.19000001E-02   4.72466525E-07
  -2.18499992E-02   4.48738547E-07
  -2.18000002E-02   4.58512744E-07
  -2.17499994E-02   5.25307087E-07
  -2.17000004E-02   6.47362299E-07
  -2.16499995E-02   7.97865027E-07
  -2.16000006E-02   9.36562571E-07
  -2.15499997E-02   1.02769536E-06
  -2.15000007E-02   1.05620336E-06
  -2.14499999E-02   1.03480579E-06
  -2.14000009E-02   9.98567316E-07
  -2.13500001E-02   9.89198952E-07
  -2.12999992E-02   1.03605566E-06
  -2.12500002E-02   1.14241459E-06
  -2.11999994E-02   1.28337115E-06
  -2.11500004E-02   1.41650969E-06
  -2.10999995E-02   1.50071287E-06
  -2.10500006E-02   1.51468760E-06
  -2.09999997E-02   1.46677246E-06
  -2.09500007E-02   1.39141696E-06
  -2.08999999E-02   1.33371236E-06
  -2.08500009E-02   1.32882349E-06
  -2.08000001E-02   1.38560642E-06
  -2.07499992E-02   1.48194681E-06
  -2.07000002E-02   1.57413501E-06
  -2.06499994E-02   1.61624553E-06
  -2.06000004E-02   1.58084811E-06
  -2.05499995E-02   1.47163666E-06
  -2.05000006E-02   1.32208743E-06
  -2.04499997E-02   1.18052810E-06
  -2.04000007E-02   1.08820120E-06
  -2.03499999E-02   1.06020400E-06
  -2.03000009E-02   1.07803874E-06
  -2.02500001E-02   1.09734924E-06
  -2.01999992E-02   1.06755931E-06
  -2.01500002E-02   9.54648158E-07
  -2.00999994E-02   7.56726763E-07
  -2.00500004E-02   5.05205833E-07
  -1.99999996E-02   2.50805726E-07
  -1.99500006E-02   4.05602414E-08
  -1.98999997E-02  -1.03830686E-07
  -1.98500007E-02  -1.96399256E-07
  -1.97999999E-02  -2.81139108E-07
  -1.97500009E-02  -4.12453943E-07
  -1.97000001E-02  -6.30543582E-07
  -1.96499992E-02  -9.42877875E-07
  -1.96000002E-02  -1.32031346E-06
  -1.95499994E-02  -1.70984538E-06
  -1.95000004E-02  -2.05842207E-06
  -1.94499996E-02  -2.33712399E-06
  -1.94000006E-02  -2.55467603E-06
  -1.93499997E-02  -2.75396246E-06
  -1.93000007E-02  -2.99289741E-06
  -1.92499999E-02  -3.31815795E-06
  -1.92000009E-02  -3.74367005E-06
  -1.91500001E-02  -4.24373775E-06
  -1.90999992E-02  -4.76416517E-06
  -1.90500002E-02  -5.24655070E-06
  -1.89999994E-02  -5.65482833E-06
  -1.89500004E-02  -5.99196665E-06
  -1.88999996E-02  -6.29903889E-06
  -1.88500006E-02  -6.63684659E-06
  -1.87999997E-02  -7.05823140E-06
  -1.87500007E-02  -7.58361602E-06
  -1.86999999E-02  -8.19099205E-06
  -1.86500009E-02  -8.82514541E-06
  -1.86000001E-02  -9.42218321E-06
  -1.85499992E-02  -9.93837239E-06
  -1.85000002E-02  -1.03701659E-05
  -1.84499994E-02  -1.07561546E-05
  -1.84000004E-02  -1.11597683E-05
  -1.83499996E-02  -1.16403935E-05
  -1.83000006E-02  -1.22259462E-05
  -1.82499997E-02  -1.28994579E-05
  -1.82000007E-02  -1.36060125E-05
  -1.81499999E-02  -1.42771469E-05
  -1.81000009E-02  -1.48617792E-05
  -1.80500001E-02  -1.53496294E-05
  -1.79999992E-02  -1.57763043E-05
  -1.79500002E-02  -1.62074411E-05
  -1.78999994E-02  -1.67088801E-05
  -1.78500004E-02  -1.73163444E-05
  -1.77999996E-02  -1.80184470E-05
  -1.77500006E-02  -1.87610167E-05
  -1.76999997E-02  -1.94710701E-05
  -1.76500008E-02  -2.00897684E-05
  -1.75999999E-02  -2.05993438E-05
  -1.75500009E-02  -2.10316339E-05
  -1.75000001E-02  -2.14540742E-05
  -1.74499992E-02  -2.19392423E-05
  -1.74000002E-02  -2.25316526E-05
  -1.73499994E-02  -2.32269576E-05
  -1.73000004E-02  -2.39733254E-05
  -1.72499996E-02  -2.46945619E-05
  -1.72000006E-02  -2.53247836E-05
  -1.71499997E-02  -2.58389118E-05
  -1.71000008E-02  -2.62648973E-05
  -1.70499999E-02  -2.66718507E-05
  -1.70000009E-02  -2.71392164E-05
  -1.69500001E-02  -2.77207528E-05
  -1.68999992E-02  -2.84197704E-05
  -1.68500002E-02  -2.91871256E-05
  -1.67999994E-02  -2.99432213E-05
  -1.67500004E-02  -3.06142647E-05
  -1.66999996E-02  -3.11664044E-05
  -1.66500006E-02  -3.16221231E-05
  -1.65999997E-02  -3.20510953E-05
  -1.65500008E-02  -3.25393121E-05
  -1.64999999E-02  -3.31503907E-05
  -1.64500009E-02  -3.38966274E-05
  -1.64000001E-02  -3.47331188E-05
  -1.63499992E-02  -3.55780612E-05
  -1.63000003E-02  -3.63503532E-05
  -1.62499994E-02  -3.70073831E-05
  -1.62000004E-02  -3.75657655E-05
  -1.61499996E-02  -3.80952952E-05
  -1.61000006E-02  -3.86884603E-05
  -1.60499997E-02  -3.94191302E-05
  -1.60000008E-02  -4.03091908E-05
  -1.59499999E-02  -4.13184607E-05
  -1.59000009E-02  -4.23628444E-05
  -1.58500001E-02  -4.33528876E-05
  -1.57999992E-02  -4.42354030E-05
  -1.57500003E-02  -4.50190091E-05
  -1.56999994E-02  -4.57717506E-05
  -1.56500004E-02  -4.65916019E-05
  -1.55999996E-02  -4.75629240E-05
  -1.55499997E-02  -4.87184043E-05
  -1.54999997E-02  -5.00241877E-05
  -1.54499998E-02  -5.13953855E-05
  -1.53999999E-02  -5.27351694E-05
  -1.53500000E-02  -5.39798348E-05
  -1.53000001E-02  -5.51293779E-05
  -1.52500002E-02  -5.62494752E-05
  -1.52000003E-02  -5.74433616E-05
  -1.51500003E-02  -5.88059593E-05
  -1.51000004E-02  -6.03812259E-05
  -1.50499996E-02  -6.21422223E-05
  -1.49999997E-02  -6.40032304E-05
  -1.49499997E-02  -6.58588542E-05
  -1.48999998E-02  -6.76327400E-05
  -1.48499999E-02  -6.93136681E-05
  -1.48000000E-02  -7.09623782E-05
  -1.47500001E-02  -7.26855942E-05
  -1.47000002E-02  -7.45884463E-05
  -1.46500003E-02  -7.67273450E-05
  -1.46000003E-02  -7.90843042E-05
  -1.45500004E-02  -8.15747117E-05
  -1.44999996E-02  -8.40860012E-05
  -1.44499997E-02  -8.65294714E-05
  -1.43999998E-02  -8.88821305E-05
  -1.43499998E-02  -9.11988100E-05
  -1.42999999E-02  -9.35889620E-05
  -1.42500000E-02  -9.61682308E-05
  -1.42000001E-02  -9.90064873E-05
  -1.41500002E-02  -1.02095742E-04
  -1.41000003E-02  -1.05353494E-04
  -1.40500003E-02  -1.08660097E-04
  -1.40000004E-02  -1.11913323E-04
  -1.39499996E-02  -1.15075898E-04
  -1.38999997E-02  -1.18193937E-04
  -1.38499998E-02  -1.21377627E-04
  -1.37999998E-02  -1.24752070E-04
  -1.37499999E-02  -1.28400992E-04
  -1.37000000E-02  -1.32328423E-04
  -1.36500001E-02  -1.36456219E-04
  -1.36000002E-02  -1.40659657E-04
  -1.35500003E-02  -1.44824066E-04
  -1.35000004E-02  -1.48898122E-04
  -1.34500004E-02  -1.52918554E-04
  -1.33999996E-02  -1.56995331E-04
  -1.33499997E-02  -1.61263146E-04
  -1.32999998E-02  -1.65820806E-04
  -1.32499998E-02  -1.70686384E-04
  -1.31999999E-02  -1.75788373E-04
  -1.31500000E-02  -1.80998017E-04
  -1.31000001E-02  -1.86187972E-04
  -1.30500002E-02  -1.91290834E-04
  -1.30000003E-02  -1.96331239E-04
  -1.29500004E-02  -2.01416566E-04
  -1.29000004E-02  -2.06689525E-04
  -1.28499996E-02  -2.12263971E-04
  -1.27999997E-02  -2.18173329E-04
  -1.27499998E-02  -2.24355463E-04
  -1.26999998E-02  -2.30680394E-04
  -1.26499999E-02  -2.37009823E-04
  -1.26000000E-02  -2.43261296E-04
  -1.25500001E-02  -2.49447039E-04
  -1.25000002E-02  -2.55670835E-04
  -1.24500003E-02  -2.62083311E-04
  -1.24000004E-02  -2.68814561E-04
  -1.23500004E-02  -2.75915809E-04
  -1.22999996E-02  -2.83336907E-04
  -1.22499997E-02  -2.90948810E-04
  -1.21999998E-02  -2.98603118E-04
  -1.21499998E-02  -3.06201400E-04
  -1.20999999E-02  -3.13741650E-04
  -1.20500000E-02  -3.21321248E-04
  -1.20000001E-02  -3.29095434E-04
  -1.19500002E-02  -3.37208476E-04
  -1.19000003E-02  -3.45729059E-04
  -1.18500004E-02  -3.54620017E-04
  -1.18000004E-02  -3.63754894E-04
  -1.17499996E-02  -3.72976909E-04
  -1.16999997E-02  -3.82172613E-04
  -1.16499998E-02  -3.91324807E-04
  -1.15999999E-02  -4.00523248E-04
  -1.15499999E-02  -4.09927161E-04
  -1.15000000E-02  -4.19695309E-04
  -1.14500001E-02  -4.29916545E-04
  -1.14000002E-02  -4.40570642E-04
  -1.13500003E-02  -4.51538159E-04
  -1.13000004E-02  -4.62657859E-04
  -1.12500004E-02  -4.73801309E-04
  -1.11999996E-02  -4.84933989E-04
  -1.11499997E-02  -4.96133929E-04
  -1.10999998E-02  -5.07559336E-04
  -1.10499999E-02  -5.19379624E-04
  -1.09999999E-02  -5.31700556E-04
  -1.09500000E-02  -5.44517301E-04
  -1.09000001E-02  -5.57718507E-04
  -1.08500002E-02  -5.71138633E-04
  -1.08000003E-02  -5.84634894E-04
  -1.07500004E-02  -5.98155661E-04
  -1.07000005E-02  -6.11766998E-04
  -1.06499996E-02  -6.25626708E-04
  -1.05999997E-02  -6.39916223E-04
  -1.05499998E-02  -6.54761796E-04
  -1.04999999E-02  -6.70178968E-04
  -1.04499999E-02  -6.86068204E-04
  -1.04000000E-02  -7.02263555E-04
  -1.03500001E-02  -7.18609837E-04
  -1.03000002E-02  -7.35037087E-04
  -1.02500003E-02  -7.51596061E-04
  -1.02000004E-02  -7.68439320E-04
  -1.01500005E-02  -7.85755052E-04
  -1.00999996E-02  -8.03683826E-04
  -1.00499997E-02  -8.22257425E-04
  -9.99999978E-03  -8.41386383E-04
  -9.94999986E-03  -8.60903703E-04
  -9.89999995E-03  -8.80642736E-04
  -9.85000003E-03  -9.00516578E-04
  -9.80000012E-03  -9.20560327E-04
  -9.75000020E-03  -9.40918166E-04
  -9.70000029E-03  -9.61783575E-04
  -9.65000037E-03  -9.83312959E-04
  -9.60000046E-03  -1.00555865E-03
  -9.54999961E-03  -1.02844764E-03
  -9.49999969E-03  -1.05181767E-03
  -9.44999978E-03  -1.07549538E-03
  -9.39999986E-03  -1.09937694E-03
  -9.34999995E-03  -1.12348085E-03
  -9.30000003E-03  -1.14794436E-03
  -9.25000012E-03  -1.17296481E-03
  -9.20000020E-03  -1.19871378E-03
  -9.15000029E-03  -1.22526078E-03
  -9.10000037E-03  -1.25254516E-03
  -9.05000046E-03  -1.28040754E-03
  -8.99999961E-03  -1.30866375E-03
  -8.94999970E-03  -1.33719284E-03
  -8.89999978E-03  -1.36599632E-03
  -8.84999987E-03  -1.39519922E-03
  -8.79999995E-03  -1.42499933E-03
  -8.75000004E-03  -1.45557895E-03
  -8.70000012E-03  -1.48702296E-03
  -8.65000021E-03  -1.51928596E-03
  -8.60000029E-03  -1.55221659E-03
  -8.55000038E-03  -1.58562709E-03
  -8.50000046E-03  -1.61938532E-03
  -8.44999962E-03  -1.65347953E-03
  -8.39999970E-03  -1.68802647E-03
  -8.34999979E-03  -1.72322174E-03
  -8.29999987E-03  -1.75925705E-03
  -8.24999996E-03  -1.79623265E-03
  -8.20000004E-03  -1.83411653E-03
  -8.15000013E-03  -1.87276793E-03
  -8.10000021E-03  -1.91200164E-03
  -8.05000030E-03  -1.95167505E-03
  -8.00000038E-03  -1.99175975E-03
  -7.95000046E-03  -2.03235797E-03
  -7.89999962E-03  -2.07366142E-03
  -7.84999970E-03  -2.11586943E-03
  -7.79999979E-03  -2.15909816E-03
  -7.74999987E-03  -2.20333226E-03
  -7.69999996E-03  -2.24843831E-03
  -7.65000004E-03  -2.29422841E-03
  -7.60000013E-03  -2.34054937E-03
  -7.55000021E-03  -2.38735555E-03
  -7.49999983E-03  -2.43473449E-03
  -7.44999992E-03  -2.48287106E-03
  -7.40000000E-03  -2.53196713E-03
  -7.35000009E-03  -2.58215377E-03
  -7.30000017E-03  -2.63343658E-03
  -7.24999979E-03  -2.68569123E-03
  -7.19999988E-03  -2.73873098E-03
  -7.14999996E-03  -2.79239612E-03
  -7.10000005E-03  -2.84662517E-03
  -7.05000013E-03  -2.90149683E-03
  -7.00000022E-03  -2.95719085E-03
  -6.94999984E-03  -3.01391026E-03
  -6.89999992E-03  -3.07179918E-03
  -6.85000001E-03  -3.13087879E-03
  -6.80000009E-03  -3.19104246E-03
  -6.75000018E-03  -3.25210695E-03
  -6.69999979E-03  -3.31390346E-03
  -6.64999988E-03  -3.37636075E-03
  -6.59999996E-03  -3.43953609E-03
  -6.55000005E-03  -3.50359757E-03
  -6.50000013E-03  -3.56875104E-03
  -6.45000022E-03  -3.63514642E-03
  -6.39999984E-03  -3.70281236E-03
  -6.34999992E-03  -3.77164804E-03
  -6.30000001E-03  -3.84147326E-03
  -6.25000009E-03  -3.91211221E-03
  -6.20000018E-03  -3.98347527E-03
  -6.14999980E-03  -4.05560294E-03
  -6.09999988E-03  -4.12866101E-03
  -6.04999997E-03  -4.20286553E-03
  -6.00000005E-03  -4.27838182E-03
  -5.95000014E-03  -4.35524434E-03
  -5.90000022E-03  -4.43335809E-03
  -5.84999984E-03  -4.51254286E-03
  -5.79999993E-03  -4.59261285E-03
  -5.75000001E-03  -4.67347866E-03
  -5.70000010E-03  -4.75519663E-03
  -5.65000018E-03  -4.83792461E-03
  -5.59999980E-03  -4.92185960E-03
  -5.54999989E-03  -5.00716409E-03
  -5.49999997E-03  -5.09388978E-03
  -5.45000006E-03  -5.18194912E-03
  -5.40000014E-03  -5.27114281E-03
  -5.35000023E-03  -5.36127342E-03
  -5.29999984E-03  -5.45223895E-03
  -5.24999993E-03  -5.54407388E-03
  -5.20000001E-03  -5.63693605E-03
  -5.15000010E-03  -5.73103921E-03
  -5.10000018E-03  -5.82655007E-03
  -5.04999980E-03  -5.92350075E-03
  -4.99999989E-03  -6.02179905E-03
  -4.94999997E-03  -6.12126151E-03
  -4.90000006E-03  -6.22168835E-03
  -4.85000014E-03  -6.32297434E-03
  -4.80000023E-03  -6.42514694E-03
  -4.74999985E-03  -6.52836496E-03
  -4.69999993E-03  -6.63285283E-03
  -4.65000002E-03  -6.73879543E-03
  -4.60000010E-03  -6.84623979E-03
  -4.55000019E-03  -6.95508160E-03
  -4.49999981E-03  -7.06510898E-03
  -4.44999989E-03  -7.17611331E-03
  -4.39999998E-03  -7.28796842E-03
  -4.35000006E-03  -7.40069197E-03
  -4.30000015E-03  -7.51444977E-03
  -4.25000023E-03  -7.62946252E-03
  -4.19999985E-03  -7.74590811E-03
  -4.14999994E-03  -7.86384754E-03
  -4.10000002E-03  -7.98317324E-03
  -4.05000011E-03  -8.10366217E-03
  -4.00000019E-03  -8.22509360E-03
  -3.94999981E-03  -8.34733248E-03
  -3.89999989E-03  -8.47039558E-03
  -3.84999998E-03  -8.59443657E-03
  -3.80000006E-03  -8.71968083E-03
  -3.74999992E-03  -8.84632114E-03
  -3.70000000E-03  -8.97442829E-03
  -3.65000009E-03  -9.10391007E-03
  -3.59999994E-03  -9.23454575E-03
  -3.55000002E-03  -9.36608855E-03
  -3.50000011E-03  -9.49836709E-03
  -3.44999996E-03  -9.63138416E-03
  -3.40000005E-03  -9.76529997E-03
  -3.34999990E-03  -9.90036596E-03
  -3.29999998E-03  -1.00367945E-02
  -3.25000007E-03  -1.01746423E-02
  -3.19999992E-03  -1.03138210E-02
  -3.15000000E-03  -1.04540987E-02
  -3.10000009E-03  -1.05952015E-02
  -3.04999994E-03  -1.07369404E-02
  -3.00000003E-03  -1.08792912E-02
  -2.95000011E-03  -1.10224001E-02
  -2.89999996E-03  -1.11665102E-02
  -2.85000005E-03  -1.13118682E-02
  -2.79999990E-03  -1.14585683E-02
  -2.74999999E-03  -1.16065117E-02
  -2.70000007E-03  -1.17554329E-02
  -2.64999992E-03  -1.19050248E-02
  -2.60000001E-03  -1.20550767E-02
  -2.55000009E-03  -1.22055514E-02
  -2.49999994E-03  -1.23566287E-02
  -2.45000003E-03  -1.25085982E-02
  -2.40000011E-03  -1.26617020E-02
  -2.34999997E-03  -1.28160110E-02
  -2.30000005E-03  -1.29714021E-02
  -2.24999990E-03  -1.31276259E-02
  -2.19999999E-03  -1.32843573E-02
  -2.15000007E-03  -1.34413475E-02
  -2.09999993E-03  -1.35985613E-02
  -2.05000001E-03  -1.37561411E-02
  -2.00000009E-03  -1.39143849E-02
  -1.94999995E-03  -1.40735600E-02
  -1.90000003E-03  -1.42337419E-02
  -1.85000000E-03  -1.43948188E-02
  -1.79999997E-03  -1.45565039E-02
  -1.75000005E-03  -1.47184357E-02
  -1.70000002E-03  -1.48803284E-02
  -1.64999999E-03  -1.50420982E-02
  -1.59999996E-03  -1.52039025E-02
  -1.55000004E-03  -1.53660458E-02
  -1.50000001E-03  -1.55288335E-02
  -1.44999998E-03  -1.56923700E-02
  -1.39999995E-03  -1.58565510E-02
  -1.35000004E-03  -1.60210989E-02
  -1.30000000E-03  -1.61856040E-02
  -1.24999997E-03  -1.63497142E-02
  -1.20000006E-03  -1.65133085E-02
  -1.15000003E-03  -1.66765340E-02
  -1.09999999E-03  -1.68396924E-02
  -1.04999996E-03  -1.70030985E-02
  -1.00000005E-03  -1.71669070E-02
  -9.50000016E-04  -1.73310749E-02
  -8.99999985E-04  -1.74953099E-02
  -8.50000011E-04  -1.76591258E-02
  -7.99999980E-04  -1.78221129E-02
  -7.50000007E-04  -1.79840792E-02
  -6.99999975E-04  -1.81451216E-02
  -6.50000002E-04  -1.83055643E-02
  -6.00000028E-04  -1.84657518E-02
  -5.49999997E-04  -1.86258797E-02
  -5.00000024E-04  -1.87859386E-02
  -4.49999992E-04  -1.89456195E-02
  -3.99999990E-04  -1.91044081E-02
  -3.49999988E-04  -1.92618221E-02
  -3.00000014E-04  -1.94175877E-02
  -2.50000012E-04  -1.95717607E-02
  -1.99999995E-04  -1.97246633E-02
  -1.50000007E-04  -1.98767669E-02
  -9.99999975E-05  -2.00283732E-02
  -4.99999987E-05  -2.01794077E-02
   0.00000000      -2.03294866E-02
   4.99999987E-05  -2.04781163E-02
   9.99999975E-05  -2.06247307E-02
   1.50000007E-04  -2.07689796E-02
   1.99999995E-04  -2.09109001E-02
   2.50000012E-04  -2.10508592E-02
   3.00000014E-04  -2.11893376E-02
   3.49999988E-04  -2.13266537E-02
   3.99999990E-04  -2.14628819E-02
   4.49999992E-04  -2.15976816E-02
   5.00000024E-04  -2.17303336E-02
   5.49999997E-04  -2.18601488E-02
   6.00000028E-04  -2.19867099E-02
   6.50000002E-04  -2.21099965E-02
   6.99999975E-04  -2.22303849E-02
   7.50000007E-04  -2.23484505E-02
   7.99999980E-04  -2.24646199E-02
   8.50000011E-04  -2.25789677E-02
   8.99999985E-04  -2.26911288E-02
   9.50000016E-04  -2.28004493E-02
   1.00000005E-03  -2.29062047E-02
   1.04999996E-03  -2.30078381E-02
   1.09999999E-03  -2.31052469E-02
   1.15000003E-03  -2.31987853E-02
   1.20000006E-03  -2.32890584E-02
   1.24999997E-03  -2.33765822E-02
   1.30000000E-03  -2.34615356E-02
   1.35000004E-03  -2.35435721E-02
   1.39999995E-03  -2.36219931E-02
   1.44999998E-03  -2.36959215E-02
   1.50000001E-03  -2.37646624E-02
   1.55000004E-03  -2.38281302E-02
   1.59999996E-03  -2.38866545E-02
   1.64999999E-03  -2.39408351E-02
   1.70000002E-03  -2.39912346E-02
   1.75000005E-03  -2.40380690E-02
   1.79999997E-03  -2.40811240E-02
   1.85000000E-03  -2.41196994E-02
   1.90000003E-03  -2.41528116E-02
   1.94999995E-03  -2.41797566E-02
   2.00000009E-03  -2.42003817E-02
   2.05000001E-03  -2.42149159E-02
   2.09999993E-03  -2.42239423E-02
   2.15000007E-03  -2.42281146E-02
   2.19999999E-03  -2.42276657E-02
   2.24999990E-03  -2.42223684E-02
   2.30000005E-03  -2.42115408E-02
   2.34999997E-03  -2.41943486E-02
   2.40000011E-03  -2.41699778E-02
   2.45000003E-03  -2.41380166E-02
   2.49999994E-03  -2.40987297E-02
   2.55000009E-03  -2.40526963E-02
   2.60000001E-03  -2.40006056E-02
   2.64999992E-03  -2.39428561E-02
   2.70000007E-03  -2.38793530E-02
   2.74999999E-03  -2.38094237E-02
   2.79999990E-03  -2.37320215E-02