  -3.99999991E-02   0.00000000    
  -3.99499983E-02   0.00000000    
  -3.99000011E-02   3.24824226E-14
  -3.98500003E-02   1.81164383E-13
  -3.97999994E-02   4.86055749E-13
  -3.97499986E-02   7.55564231E-13
  -3.97000015E-02   4.36509634E-13
  -3.96500006E-02  -1.25114133E-12
  -3.95999998E-02  -4.84739766E-12
  -3.95499989E-02  -1.00775065E-11
  -3.95000018E-02  -1.56000265E-11
  -3.94500010E-02  -1.94015186E-11
  -3.94000001E-02  -1.97643360E-11
  -3.93499993E-02  -1.63245285E-11
  -3.92999984E-02  -1.06048746E-11
  -3.92500013E-02  -5.62837754E-12
  -3.92000005E-02  -4.65183057E-12
  -3.91499996E-02  -9.50931608E-12
  -3.90999988E-02  -1.93510451E-11
  -3.90500017E-02  -3.05406568E-11
  -3.90000008E-02  -3.80188762E-11
  -3.89500000E-02  -3.76575229E-11
  -3.88999991E-02  -2.84347372E-11
  -3.88499983E-02  -1.31749073E-11
  -3.88000011E-02   2.70640736E-12
  -3.87500003E-02   1.39131094E-11
  -3.86999995E-02   1.80759557E-11
  -3.86499986E-02   1.72254693E-11
  -3.86000015E-02   1.71445271E-11
  -3.85500006E-02   2.48018793E-11
  -3.84999998E-02   4.49797040E-11
  -3.84499989E-02   7.77068965E-11
  -3.84000018E-02   1.17916038E-10
  -3.83500010E-02   1.57749147E-10
  -3.83000001E-02   1.90485530E-10
  -3.82499993E-02   2.13983567E-10
  -3.81999984E-02   2.31637848E-10
  -3.81500013E-02   2.50241911E-10
  -3.81000005E-02   2.75967915E-10
  -3.80499996E-02   3.10741488E-10
  -3.79999988E-02   3.50994789E-10
  -3.79500017E-02   3.89434762E-10
  -3.79000008E-02   4.18902801E-10
  -3.78500000E-02   4.36335468E-10
  -3.77999991E-02   4.44647458E-10
  -3.77499983E-02   4.51192667E-10
  -3.77000012E-02   4.63196814E-10
  -3.76500003E-02   4.82504259E-10
  -3.75999995E-02   5.02914654E-10
  -3.75499986E-02   5.12308918E-10
  -3.75000015E-02   4.98953767E-10
  -3.74500006E-02   4.58529464E-10
  -3.73999998E-02   3.97540861E-10
  -3.73499990E-02   3.30586863E-10
  -3.73000018E-02   2.72403156E-10
  -3.72500010E-02   2.28641564E-10
  -3.72000001E-02   1.90425190E-10
  -3.71499993E-02   1.36333583E-10
  -3.70999984E-02   4.21316142E-11
  -3.70500013E-02  -1.05559790E-10
  -3.70000005E-02  -2.98543829E-10
  -3.69499996E-02  -5.06191866E-10
  -3.68999988E-02  -6.87270851E-10
  -3.68500017E-02  -8.10393086E-10
  -3.68000008E-02  -8.73073946E-10
  -3.67500000E-02  -9.08322750E-10
  -3.66999991E-02  -9.72942393E-10
  -3.66499983E-02  -1.12091691E-09
  -3.66000012E-02  -1.37362388E-09
  -3.65500003E-02  -1.70176129E-09
  -3.64999995E-02  -2.03000128E-09
  -3.64499986E-02  -2.26572539E-09
  -3.64000015E-02  -2.34146125E-09
  -3.63500006E-02  -2.25194885E-09
  -3.62999998E-02  -2.06604822E-09
  -3.62499990E-02  -1.90314609E-09
  -3.62000018E-02  -1.88046934E-09
  -3.61500010E-02  -2.05389972E-09
  -3.61000001E-02  -2.38148656E-09
  -3.60499993E-02  -2.73091949E-09
  -3.59999985E-02  -2.93247493E-09
  -3.59500013E-02  -2.85655433E-09
  -3.59000005E-02  -2.48077114E-09
  -3.58499996E-02  -1.91287275E-09
  -3.57999988E-02  -1.35325451E-09
  -3.57500017E-02  -1.00800457E-09
  -3.57000008E-02  -9.88849558E-10
  -3.56500000E-02  -1.24755939E-09
  -3.55999991E-02  -1.58150626E-09
  -3.55499983E-02  -1.71621617E-09
  -3.55000012E-02  -1.43295020E-09
  -3.54500003E-02  -6.83293200E-10
  -3.53999995E-02   3.66873115E-10
  -3.53499986E-02   1.39263734E-09
  -3.53000015E-02   2.04771644E-09
  -3.52500007E-02   2.12646190E-09
  -3.51999998E-02   1.67505898E-09
  -3.51499990E-02   9.93597093E-10
  -3.51000018E-02   5.16742427E-10
  -3.50500010E-02   6.17601081E-10
  -3.50000001E-02   1.42115819E-09
  -3.49499993E-02   2.71830047E-09
  -3.48999985E-02   4.03208400E-09
  -3.48500013E-02   4.81908291E-09
  -3.48000005E-02   4.72157913E-09
  -3.47499996E-02   3.75430398E-09
  -3.46999988E-02   2.33088904E-09
  -3.46500017E-02   1.10364162E-09
  -3.46000008E-02   6.76407708E-10
  -3.45500000E-02   1.31511224E-09
  -3.44999991E-02   2.79226819E-09
  -3.44499983E-02   4.45056925E-09
  -3.44000012E-02   5.47481971E-09
  -3.43500003E-02   5.26187272E-09
  -3.42999995E-02   3.72201314E-09
  -3.42499986E-02   1.36357858E-09
  -3.42000015E-02  -8.96532459E-10
  -3.41500007E-02  -2.12827223E-09
  -3.40999998E-02  -1.81911086E-09
  -3.40499990E-02  -1.40379181E-10
  -3.40000018E-02   2.08723039E-09
  -3.39500010E-02   3.73434528E-09
  -3.39000002E-02   3.87248411E-09
  -3.38499993E-02   2.22645502E-09
  -3.37999985E-02  -6.46295628E-10
  -3.37500013E-02  -3.55340268E-09
  -3.37000005E-02  -5.17714538E-09
  -3.36499996E-02  -4.67928185E-09
  -3.35999988E-02  -2.12417928E-09
  -3.35500017E-02   1.49065260E-09
  -3.35000008E-02   4.63741445E-09
  -3.34500000E-02   5.93466698E-09
  -3.33999991E-02   4.79997198E-09
  -3.33499983E-02   1.77296933E-09
  -3.33000012E-02  -1.66261238E-09
  -3.32500003E-02  -3.70760334E-09
  -3.31999995E-02  -3.06369885E-09
  -3.31499986E-02   4.29812214E-10
  -3.31000015E-02   5.64645397E-09
  -3.30500007E-02   1.06108580E-08
  -3.29999998E-02   1.33583447E-08
  -3.29499990E-02   1.28424960E-08
  -3.29000019E-02   9.47210310E-09
  -3.28500010E-02   5.00605424E-09
  -3.28000002E-02   1.81681836E-09
  -3.27499993E-02   1.82641158E-09
  -3.26999985E-02   5.58757485E-09
  -3.26500013E-02   1.19426478E-08
  -3.26000005E-02   1.84504927E-08
  -3.25499997E-02   2.24284147E-08
  -3.24999988E-02   2.21637322E-08
  -3.24500017E-02   1.77463324E-08
  -3.24000008E-02   1.11178142E-08
  -3.23500000E-02   5.27197574E-09
  -3.22999991E-02   2.92947178E-09
  -3.22499983E-02   5.26924504E-09
  -3.22000012E-02   1.13035510E-08
  -3.21500003E-02   1.82171469E-08
  -3.20999995E-02   2.25637251E-08
  -3.20499986E-02   2.18131504E-08
  -3.20000015E-02   1.55566546E-08
  -3.19500007E-02   5.79989745E-09
  -3.18999998E-02  -3.83575571E-09
  -3.18499990E-02  -9.69110925E-09
  -3.18000019E-02  -9.74068737E-09
  -3.17500010E-02  -4.59607463E-09
  -3.17000002E-02   2.65121147E-09
  -3.16499993E-02   7.73072184E-09
  -3.15999985E-02   7.09579417E-09
  -3.15500014E-02  -4.15461027E-10
  -3.15000005E-02  -1.29326310E-08
  -3.14499997E-02  -2.62616631E-08
  -3.13999988E-02  -3.56870373E-08
  -3.13500017E-02  -3.80926259E-08
  -3.13000008E-02  -3.34461028E-08
  -3.12500000E-02  -2.49403005E-08
  -3.11999992E-02  -1.76674142E-08
  -3.11500002E-02  -1.63665685E-08
  -3.10999993E-02  -2.32320669E-08
  -3.10500003E-02  -3.67852238E-08
  -3.09999995E-02  -5.23708863E-08
  -3.09500005E-02  -6.41226379E-08
  -3.08999997E-02  -6.75640948E-08
  -3.08500007E-02  -6.16884961E-08
  -3.07999998E-02  -4.95480492E-08
  -3.07500008E-02  -3.70239590E-08
  -3.07000000E-02  -3.02624663E-08
  -3.06499992E-02  -3.28887211E-08
  -3.06000002E-02  -4.42552981E-08
  -3.05499993E-02  -5.95611915E-08
  -3.05000003E-02  -7.18604340E-08
  -3.04499995E-02  -7.51220739E-08
  -3.04000005E-02  -6.69933371E-08
  -3.03499997E-02  -5.00006898E-08
  -3.03000007E-02  -3.05839976E-08
  -3.02499998E-02  -1.63200671E-08
  -3.02000009E-02  -1.25275958E-08
  -3.01500000E-02  -1.97709582E-08
  -3.00999992E-02  -3.34280799E-08
  -3.00500002E-02  -4.55936586E-08
  -2.99999993E-02  -4.85397962E-08
  -2.99500003E-02  -3.82226695E-08
  -2.98999995E-02  -1.62496825E-08
  -2.98500005E-02   1.06375193E-08
  -2.97999997E-02   3.34181607E-08
  -2.97500007E-02   4.47761224E-08
  -2.96999998E-02   4.24497273E-08
  -2.96500009E-02   3.04097689E-08
  -2.96000000E-02   1.72576193E-08
  -2.95499992E-02   1.24729871E-08
  -2.95000002E-02   2.21359713E-08
  -2.94499993E-02   4.60408849E-08
  -2.94000003E-02   7.75533664E-08
  -2.93499995E-02   1.06366450E-07
  -2.93000005E-02   1.23006643E-07
  -2.92499997E-02   1.23113111E-07
  -2.92000007E-02   1.09551316E-07
  -2.91499998E-02   9.13360338E-08
  -2.91000009E-02   7.97447726E-08
  -2.90500000E-02   8.32830978E-08
  -2.89999992E-02   1.03735594E-07
  -2.89500002E-02   1.35118711E-07
  -2.88999993E-02   1.66099966E-07
  -2.88500004E-02   1.84901452E-07
  -2.87999995E-02   1.84554850E-07
  -2.87500005E-02   1.66151253E-07
  -2.86999997E-02   1.38562598E-07
  -2.86500007E-02   1.14654384E-07
  -2.85999998E-02   1.05589940E-07
  -2.85500009E-02   1.15732334E-07
  -2.85000000E-02   1.40456180E-07
  -2.84499992E-02   1.67940527E-07
  -2.84000002E-02   1.84254418E-07
  -2.83499993E-02   1.79543505E-07
  -2.83000004E-02   1.52565477E-07
  -2.82499995E-02   1.11485818E-07
  -2.82000005E-02   7.04693193E-08
  -2.81499997E-02   4.34824905E-08
  -2.81000007E-02   3.80160046E-08
  -2.80499998E-02   5.15466176E-08
  -2.80000009E-02   7.24040419E-08
  -2.79500000E-02   8.47741219E-08
  -2.78999992E-02   7.57033760E-08
  -2.78500002E-02   4.10122496E-08
  -2.77999993E-02  -1.25697452E-08
  -2.77500004E-02  -7.01095573E-08
  -2.76999995E-02  -1.14931566E-07
  -2.76500005E-02  -1.36030039E-07
  -2.75999997E-02  -1.33126179E-07
  -2.75500007E-02  -1.17033814E-07
  -2.74999999E-02  -1.05046553E-07
  -2.74500009E-02  -1.13288266E-07
  -2.74000000E-02  -1.49383666E-07
  -2.73499992E-02  -2.08748176E-07
  -2.73000002E-02  -2.76254582E-07
  -2.72499993E-02  -3.32667895E-07
  -2.72000004E-02  -3.63083103E-07
  -2.71499995E-02  -3.63631472E-07
  -2.71000005E-02  -3.43402775E-07
  -2.70499997E-02  -3.20600691E-07
  -2.70000007E-02  -3.14515063E-07
  -2.69499999E-02  -3.36809819E-07
  -2.69000009E-02  -3.86018286E-07
  -2.68500000E-02  -4.47793582E-07
  -2.67999992E-02  -5.00937404E-07
  -2.67500002E-02  -5.26641657E-07
  -2.66999993E-02  -5.16874763E-07
  -2.66500004E-02  -4.78135860E-07
  -2.65999995E-02  -4.28787473E-07
  -2.65500005E-02  -3.91009877E-07
  -2.64999997E-02  -3.80863298E-07
  -2.64500007E-02  -4.00867918E-07
  -2.63999999E-02  -4.38483653E-07
  -2.63500009E-02  -4.71304219E-07
  -2.63000000E-02  -4.76787363E-07
  -2.62499992E-02  -4.42257885E-07
  -2.62000002E-02  -3.70712456E-07
  -2.61499994E-02  -2.79733030E-07
  -2.61000004E-02  -1.93850610E-07
  -2.60499995E-02  -1.33643539E-07
  -2.60000005E-02  -1.06383958E-07
  -2.59499997E-02  -1.02458557E-07
  -2.59000007E-02  -9.92864244E-08
  -2.58499999E-02  -7.11301240E-08
  -2.58000009E-02  -5.30525734E-10
  -2.57500000E-02   1.13724646E-07
  -2.56999992E-02   2.55742549E-07
  -2.56500002E-02   3.99303190E-07
  -2.55999994E-02   5.19395428E-07
  -2.55500004E-02   6.03433932E-07
  -2.54999995E-02   6.57126122E-07
  -2.54500005E-02   7.02260593E-07
  -2.53999997E-02   7.67258200E-07
  -2.53500007E-02   8.74569253E-07
  -2.52999999E-02   1.03049149E-06
  -2.52500009E-02   1.22202812E-06
  -2.52000000E-02   1.42231022E-06
  -2.51499992E-02   1.60231218E-06
  -2.51000002E-02   1.74374577E-06
  -2.50499994E-02   1.84737416E-06
  -2.50000004E-02   1.93294181E-06
  -2.49499995E-02   2.03061313E-06
  -2.49000005E-02   2.16759440E-06
  -2.48499997E-02   2.35584912E-06
  -2.48000007E-02   2.58640989E-06
  -2.47499999E-02   2.83294730E-06
  -2.47000009E-02   3.06316633E-06
  -2.46500000E-02   3.25304404E-06
  -2.45999992E-02   3.39759436E-06
  -2.45500002E-02   3.51332096E-06
  -2.44999994E-02   3.63109802E-06
  -2.44500004E-02   3.78252344E-06
  -2.43999995E-02   3.98574002E-06
  -2.43500005E-02   4.23705978E-06
  -2.42999997E-02   4.51221740E-06
  -2.42500007E-02   4.77683307E-06
  -2.41999999E-02   5.00155102E-06
  -2.41500009E-02   5.17515537E-06
  -2.41000000E-02   5.30975967E-06
  -2.40499992E-02   5.43564283E-06
  -2.40000002E-02   5.58792453E-06
  -2.39499994E-02   5.79088055E-06
  -2.39000004E-02   6.04687875E-06
  -2.38499995E-02   6.33499394E-06
  -2.38000005E-02   6.61998320E-06
  -2.37499997E-02   6.86777912E-06
  -2.37000007E-02   7.06068886E-06
  -2.36499999E-02   7.20546586E-06
  -2.36000009E-02   7.33058596E-06
  -2.35500000E-02   7.47381682E-06
  -2.34999992E-02   7.66547237E-06
  -2.34500002E-02   7.91480124E-06
  -2.33999994E-02   8.20564674E-06
  -2.33500004E-02   8.50337437E-06
  -2.32999995E-02   8.77014190E-06
  -2.32500006E-02   8.98177041E-06
  -2.31999997E-02   9.13874101E-06
  -2.31500007E-02   9.26631128E-06
  -2.30999999E-02   9.40357495E-06
  -2.30500009E-02   9.58626242E-06
  -2.30000000E-02   9.83088194E-06
  -2.29499992E-02   1.01272562E-05
  -2.29000002E-02   1.04428455E-05
  -2.28499994E-02   1.07371534E-05
  -2.28000004E-02   1.09797984E-05
  -2.27499995E-02   1.11642194E-05
  -2.27000006E-02   1.13109381E-05
  -2.26499997E-02   1.14587983E-05
  -2.26000007E-02   1.16479405E-05
  -2.25499999E-02   1.19021170E-05
  -2.25000009E-02   1.22181282E-05
  -2.24500000E-02   1.25671977E-05
  -2.23999992E-02   1.29077480E-05
  -2.23500002E-02   1.32039886E-05
  -2.22999994E-02   1.34420843E-05
  -2.22500004E-02   1.36366543E-05
  -2.21999995E-02   1.38246614E-05
  -2.21500006E-02   1.40492966E-05
  -2.20999997E-02   1.43410061E-05
  -2.20500007E-02   1.47040855E-05
  -2.19999999E-02   1.51147760E-05
  -2.19500009E-02   1.55318303E-05
  -2.19000001E-02   1.59149567E-05
  -2.18499992E-02   1.62429606E-05
  -2.18000002E-02   1.65234451E-05
  -2.17499994E-02   1.67898070E-05
  -2.17000004E-02   1.70867224E-05
  -2.16499995E-02   1.74505785E-05
  -2.16000006E-02   1.78934151E-05
  -2.15499997E-02   1.83976754E-05
  -2.15000007E-02   1.89240982E-05
  -2.14499999E-02   1.94292643E-05
  -2.14000009E-02   1.98850958E-05
  -2.13500001E-02   2.02915908E-05
  -2.12999992E-02   2.06771747E-05
  -2.12500002E-02   2.10864418E-05
  -2.11999994E-02   2.15606142E-05
  -2.11500004E-02   2.21194205E-05
  -2.10999995E-02   2.27524415E-05
  -2.10500006E-02   2.34240415E-05
  -2.09999997E-02   2.40891641E-05
  -2.09500007E-02   2.47133739E-05
  -2.08999999E-02   2.52885657E-05
  -2.08500009E-02   2.58367290E-05
  -2.08000001E-02   2.64004739E-05
  -2.07499992E-02   2.70243709E-05
  -2.07000002E-02   2.77353920E-05
  -2.06499994E-02   2.85312562E-05
  -2.06000004E-02   2.93815829E-05
  -2.05499995E-02   3.02415556E-05
  -2.05000006E-02   3.10720461E-05
  -2.04499997E-02   3.18572274E-05
  -2.04000007E-02   3.26118643E-05
  -2.03499999E-02   3.33749631E-05
  -2.03000009E-02   3.41927771E-05
  -2.02500001E-02   3.50985356E-05
  -2.01999992E-02   3.60980703E-05
  -2.01500002E-02   3.71674869E-05
  -2.00999994E-02   3.82638900E-05
  -2.00500004E-02   3.93448136E-05
  -1.99999996E-02   4.03873128E-05
  -1.99500006E-02   4.13982743E-05
  -1.98999997E-02   4.24117025E-05
  -1.98500007E-02   4.34738540E-05
  -1.97999999E-02   4.46230370E-05
  -1.97500009E-02   4.58729919E-05
  -1.97000001E-02   4.72072461E-05
  -1.96499992E-02   4.85866840E-05
  -1.96000002E-02   4.99672278E-05
  -1.95499994E-02   5.13197556E-05
  -1.95000004E-02   5.26433396E-05
  -1.94499996E-02   5.39657667E-05
  -1.94000006E-02   5.53314785E-05
  -1.93499997E-02   5.67824136E-05
  -1.93000007E-02   5.83398069E-05
  -1.92499999E-02   5.99951272E-05
  -1.92000009E-02   6.17144833E-05
  -1.91500001E-02   6.34540193E-05
  -1.90999992E-02   6.51795344E-05
  -1.90500002E-02   6.68822395E-05
  -1.89999994E-02   6.85826526E-05
  -1.89500004E-02   7.03218248E-05
  -1.88999996E-02   7.21437318E-05
  -1.88500006E-02   7.40760879E-05
  -1.87999997E-02   7.61185875E-05
  -1.87500007E-02   7.82437346E-05
  -1.86999999E-02   8.04096417E-05
  -1.86500009E-02   8.25791358E-05
  -1.86000001E-02   8.47363553E-05
  -1.85499992E-02   8.68939751E-05
  -1.85000002E-02   8.90880183E-05
  -1.84499994E-02   9.13624681E-05
  -1.84000004E-02   9.37499499E-05
  -1.83499996E-02   9.62580671E-05
  -1.83000006E-02   9.88669490E-05
  -1.82499997E-02   1.01538484E-04
  -1.82000007E-02   1.04233768E-04
  -1.81499999E-02   1.06930958E-04
  -1.81000009E-02   1.09635381E-04
  -1.80500001E-02   1.12376911E-04
  -1.79999992E-02   1.15197305E-04
  -1.79500002E-02   1.18132579E-04
  -1.78999994E-02   1.21197496E-04
  -1.78500004E-02   1.24379687E-04
  -1.77999996E-02   1.27646155E-04
  -1.77500006E-02   1.30958200E-04
  -1.76999997E-02   1.34289337E-04
  -1.76500008E-02   1.37637471E-04
  -1.75999999E-02   1.41025506E-04
  -1.75500009E-02   1.44491962E-04
  -1.75000001E-02   1.48074832E-04
  -1.74499992E-02   1.51794884E-04
  -1.74000002E-02   1.55647649E-04
  -1.73499994E-02   1.59606221E-04
  -1.73000004E-02   1.63634060E-04
  -1.72499996E-02   1.67701714E-04
  -1.72000006E-02   1.71799926E-04
  -1.71499997E-02   1.75944631E-04
  -1.71000008E-02   1.80169969E-04
  -1.70499999E-02   1.84513439E-04
  -1.70000009E-02   1.88999868E-04
  -1.69500001E-02   1.93632062E-04
  -1.68999992E-02   1.98390218E-04
  -1.68500002E-02   2.03241303E-04
  -1.67999994E-02   2.08154815E-04
  -1.67500004E-02   2.13116335E-04
  -1.66999996E-02   2.18134548E-04
  -1.66500006E-02   2.23237323E-04
  -1.65999997E-02   2.28459932E-04
  -1.65500008E-02   2.33830477E-04
  -1.64999999E-02   2.39358531E-04
  -1.64500009E-02   2.45032192E-04
  -1.64000001E-02   2.50823796E-04
  -1.63499992E-02   2.56703381E-04
  -1.63000003E-02   2.62652960E-04
  -1.62499994E-02   2.68673874E-04
  -1.62000004E-02   2.74787046E-04
  -1.61499996E-02   2.81024229E-04
  -1.61000006E-02   2.87414878E-04
  -1.60499997E-02   2.93973659E-04
  -1.60000008E-02   3.00695043E-04
  -1.59499999E-02   3.07558075E-04
  -1.59000009E-02   3.14536650E-04
  -1.58500001E-02   3.21610074E-04
  -1.57999992E-02   3.28773196E-04
  -1.57500003E-02   3.36040626E-04
  -1.56999994E-02   3.43439810E-04
  -1.56500004E-02   3.50999238E-04
  -1.55999996E-02   3.58737307E-04
  -1.55499997E-02   3.66655469E-04
  -1.54999997E-02   3.74739378E-04
  -1.54499998E-02   3.82966769E-04
  -1.53999999E-02   3.91316687E-04
  -1.53500000E-02   3.99780489E-04
  -1.53000001E-02   4.08366061E-04
  -1.52500002E-02   4.17094125E-04
  -1.52000003E-02   4.25990031E-04
  -1.51500003E-02   4.35074355E-04
  -1.51000004E-02   4.44355566E-04
  -1.50499996E-02   4.53827291E-04
  -1.49999997E-02   4.63472417E-04
  -1.49499997E-02   4.73271066E-04
  -1.48999998E-02   4.83211450E-04
  -1.48499999E-02   4.93294909E-04
  -1.48000000E-02   5.03535732E-04
  -1.47500001E-02   5.13956940E-04
  -1.47000002E-02   5.24579780E-04
  -1.46500003E-02   5.35414903E-04
  -1.46000003E-02   5.46462252E-04
  -1.45500004E-02   5.57710882E-04
  -1.44999996E-02   5.69143682E-04
  -1.44499997E-02   5.80747437E-04
  -1.43999998E-02   5.92519122E-04
  -1.43499998E-02   6.04467408E-04
  -1.42999999E-02   6.16609701E-04
  -1.42500000E-02   6.28966838E-04
  -1.42000001E-02   6.41554769E-04
  -1.41500002E-02   6.54378382E-04
  -1.41000003E-02   6.67432207E-04
  -1.40500003E-02   6.80701982E-04
  -1.40000004E-02   6.94173446E-04
  -1.39499996E-02   7.07839674E-04
  -1.38999997E-02   7.21704855E-04
  -1.38499998E-02   7.35782145E-04
  -1.37999998E-02   7.50090403E-04
  -1.37499999E-02   7.64646684E-04
  -1.37000000E-02   7.79459311E-04
  -1.36500001E-02   7.94527470E-04
  -1.36000002E-02   8.09841848E-04
  -1.35500003E-02   8.25390802E-04
  -1.35000004E-02   8.41167115E-04
  -1.34500004E-02   8.57168983E-04
  -1.33999996E-02   8.73402692E-04
  -1.33499997E-02   8.89881572E-04
  -1.32999998E-02   9.06621804E-04
  -1.32499998E-02   9.23637708E-04
  -1.31999999E-02   9.40934522E-04
  -1.31500000E-02   9.58508754E-04
  -1.31000001E-02   9.76351905E-04
  -1.30500002E-02   9.94456350E-04
  -1.30000003E-02   1.01281540E-03
  -1.29500004E-02   1.03142590E-03
  -1.29000004E-02   1.05029542E-03
  -1.28499996E-02   1.06943876E-03
  -1.27999997E-02   1.08887011E-03
  -1.27499998E-02   1.10860181E-03
  -1.26999998E-02   1.12864166E-03
  -1.26499999E-02   1.14898733E-03
  -1.26000000E-02   1.16962881E-03
  -1.25500001E-02   1.19055330E-03
  -1.25000002E-02   1.21175183E-03
  -1.24500003E-02   1.23322487E-03
  -1.24000004E-02   1.25497999E-03
  -1.23500004E-02   1.27703615E-03
  -1.22999996E-02   1.29941152E-03
  -1.22499997E-02   1.32211624E-03
  -1.21999998E-02   1.34515390E-03
  -1.21499998E-02   1.36851682E-03
  -1.20999999E-02   1.39218627E-03
  -1.20500000E-02   1.41614501E-03
  -1.20000001E-02   1.44038862E-03
  -1.19500002E-02   1.46492454E-03
  -1.19000003E-02   1.48976943E-03
  -1.18500004E-02   1.51494902E-03
  -1.18000004E-02   1.54048286E-03
  -1.17499996E-02   1.56637526E-03
  -1.16999997E-02   1.59261678E-03
  -1.16499998E-02   1.61918858E-03
  -1.15999999E-02   1.64607028E-03
  -1.15499999E-02   1.67324382E-03
  -1.15000000E-02   1.70070794E-03
  -1.14500001E-02   1.72848289E-03
  -1.14000002E-02   1.75659335E-03
  -1.13500003E-02   1.78506167E-03
  -1.13000004E-02   1.81389949E-03
  -1.12500004E-02   1.84310379E-03
  -1.11999996E-02   1.87265652E-03
  -1.11499997E-02   1.90252892E-03
  -1.10999998E-02   1.93269504E-03
  -1.10499999E-02   1.96314906E-03
  -1.09999999E-02   1.99390808E-03
  -1.09500000E-02   2.02499819E-03
  -1.09000001E-02   2.05644313E-03
  -1.08500002E-02   2.08826060E-03
  -1.08000003E-02   2.12045573E-03
  -1.07500004E-02   2.15301360E-03
  -1.07000005E-02   2.18590186E-03
  -1.06499996E-02   2.21908628E-03
  -1.05999997E-02   2.25254497E-03
  -1.05499998E-02   2.28627957E-03
  -1.04999999E-02   2.32030894E-03
  -1.04499999E-02   2.35466799E-03
  -1.04000000E-02   2.38939095E-03
  -1.03500001E-02   2.42448784E-03
  -1.03000002E-02   2.45994166E-03
  -1.02500003E-02   2.49571120E-03
  -1.02000004E-02   2.53175595E-03
  -1.01500005E-02   2.56805005E-03
  -1.00999996E-02   2.60458770E-03
  -1.00499997E-02   2.64138775E-03
  -9.99999978E-03   2.67848466E-03
  -9.94999986E-03   2.71591241E-03
  -9.89999995E-03   2.75368546E-03
  -9.85000003E-03   2.79179192E-03
  -9.80000012E-03   2.83019990E-03
  -9.75000020E-03   2.86886049E-03
  -9.70000029E-03   2.90773576E-03
  -9.65000037E-03   2.94681173E-03
  -9.60000046E-03   2.98609096E-03
  -9.54999961E-03   3.02561349E-03
  -9.49999969E-03   3.06542311E-03
  -9.44999978E-03   3.10553215E-03
  -9.39999986E-03   3.14592873E-03
  -9.34999995E-03   3.18657723E-03
  -9.30000003E-03   3.22741992E-03
  -9.25000012E-03   3.26840417E-03
  -9.20000020E-03   3.30950948E-03
  -9.15000029E-03   3.35074682E-03
  -9.10000037E-03   3.39215645E-03
  -9.05000046E-03   3.43377492E-03
  -8.99999961E-03   3.47562018E-03
  -8.94999970E-03   3.51768476E-03
  -8.89999978E-03   3.55992489E-03
  -8.84999987E-03   3.60227982E-03
  -8.79999995E-03   3.64469341E-03
  -8.75000004E-03   3.68714356E-03
  -8.70000012E-03   3.72963957E-03
  -8.65000021E-03   3.77221243E-03
  -8.60000029E-03   3.81489983E-03
  -8.55000038E-03   3.85773694E-03
  -8.50000046E-03   3.90071468E-03
  -8.44999962E-03   3.94378463E-03
  -8.39999970E-03   3.98688344E-03
  -8.34999979E-03   4.02993849E-03
  -8.29999987E-03   4.07289900E-03
  -8.24999996E-03   4.11574636E-03
  -8.20000004E-03   4.15850990E-03
  -8.15000013E-03   4.20124782E-03
  -8.10000021E-03   4.24400065E-03
  -8.05000030E-03   4.28677723E-03
  -8.00000038E-03   4.32954589E-03
  -7.95000046E-03   4.37222049E-03
  -7.89999962E-03   4.41471767E-03
  -7.84999970E-03   4.45697131E-03
  -7.79999979E-03   4.49894555E-03
  -7.74999987E-03   4.54066973E-03
  -7.69999996E-03   4.58219368E-03
  -7.65000004E-03   4.62357234E-03
  -7.60000013E-03   4.66482760E-03
  -7.55000021E-03   4.70592454E-03
  -7.49999983E-03   4.74678585E-03
  -7.44999992E-03   4.78732493E-03
  -7.40000000E-03   4.82745236E-03
  -7.35000009E-03   4.86711133E-03
  -7.30000017E-03   4.90631815E-03
  -7.24999979E-03   4.94512310E-03
  -7.19999988E-03   4.98357788E-03
  -7.14999996E-03   5.02171367E-03
  -7.10000005E-03   5.05950581E-03
  -7.05000013E-03   5.09687979E-03
  -7.00000022E-03   5.13371453E-03
  -6.94999984E-03   5.16990945E-03
  -6.89999992E-03   5.20541659E-03
  -6.85000001E-03   5.24021871E-03
  -6.80000009E-03   5.27436705E-03
  -6.75000018E-03   5.30793332E-03
  -6.69999979E-03   5.34094824E-03
  -6.64999988E-03   5.37339272E-03
  -6.59999996E-03   5.40519366E-03
  -6.55000005E-03   5.43621695E-03
  -6.50000013E-03   5.46633219E-03
  -6.45000022E-03   5.49547421E-03
  -6.39999984E-03   5.52364578E-03
  -6.34999992E-03   5.55091584E-03
  -6.30000001E-03   5.57736261E-03
  -6.25000009E-03   5.60300332E-03
  -6.20000018E-03   5.62779279E-03
  -6.14999980E-03   5.65165468E-03
  -6.09999988E-03   5.67444740E-03
  -6.04999997E-03   5.69602149E-03
  -6.00000005E-03   5.71630895E-03
  -5.95000014E-03   5.73531026E-03
  -5.90000022E-03   5.75307710E-03
  -5.84999984E-03   5.76968398E-03
  -5.79999993E-03   5.78517839E-03
  -5.75000001E-03   5.79953892E-03
  -5.70000010E-03   5.81267150E-03
  -5.65000018E-03   5.82440011E-03
  -5.59999980E-03   5.83455525E-03
  -5.54999989E-03   5.84302889E-03
  -5.49999997E-03   5.84981125E-03
  -5.45000006E-03   5.85497310E-03
  -5.40000014E-03   5.85860712E-03
  -5.35000023E-03   5.86079480E-03
  -5.29999984E-03   5.86151425E-03
  -5.24999993E-03   5.86065091E-03
  -5.20000001E-03   5.85802644E-03
  -5.15000010E-03   5.85346669E-03
  -5.10000018E-03   5.84686454E-03
  -5.04999980E-03   5.83818136E-03
  -4.99999989E-03   5.82747255E-03
  -4.94999997E-03   5.81481587E-03
  -4.90000006E-03   5.80024952E-03
  -4.85000014E-03   5.78377070E-03
  -4.80000023E-03   5.76528627E-03
  -4.74999985E-03   5.74463932E-03
  -4.69999993E-03   5.72164450E-03
  -4.65000002E-03   5.69614861E-03
  -4.60000010E-03   5.66809997E-03
  -4.55000019E-03   5.63752931E-03
  -4.49999981E-03   5.60452510E-03
  -4.44999989E-03   5.56916464E-03
  -4.39999998E-03   5.53146517E-03
  -4.35000006E-03   5.49135404E-03
  -4.30000015E-03   5.44865848E-03
  -4.25000023E-03   5.40315453E-03
  -4.19999985E-03   5.35465078E-03
  -4.14999994E-03   5.30307367E-03
  -4.10000002E-03   5.24846883E-03
  -4.05000011E-03   5.19094337E-03
  -4.00000019E-03   5.13056759E-03
  -3.94999981E-03   5.06734475E-03
  -3.89999989E-03   5.00122225E-03
  -3.84999998E-03   4.93201753E-03
  -3.80000006E-03   4.85948613E-03
  -3.74999992E-03   4.78345016E-03
  -3.70000000E-03   4.70381137E-03
  -3.65000009E-03   4.62057628E-03
  -3.59999994E-03   4.53381892E-03
  -3.55000002E-03   4.44364827E-03
  -3.50000011E-03   4.35014302E-03
  -3.44999996E-03   4.25326079E-03
  -3.40000005E-03   4.15280461E-03
  -3.34999990E-03   4.04852536E-03
  -3.29999998E-03   3.94019205E-03
  -3.25000007E-03   3.82761750E-03
  -3.19999992E-03   3.71079170E-03
  -3.15000000E-03   3.58983711E-03
  -3.10000009E-03   3.46491532E-03
  -3.04999994E-03   3.33613134E-03
  -3.00000003E-03   3.20343557E-03
  -2.95000011E-03   3.06663499E-03
  -2.89999996E-03   2.92545604E-03
  -2.85000005E-03   2.77964119E-03
  -2.79999990E-03   2.62901117E-03
  -2.74999999E-03   2.47352361E-03
  -2.70000007E-03   2.31328956E-03
  -2.64999992E-03   2.14846991E-03
  -2.60000001E-03   1.97917083E-03
  -2.55000009E-03   1.80539559E-03
  -2.49999994E-03   1.62698608E-03
  -2.45000003E-03   1.44367747E-03
  -2.40000011E-03   1.25515705E-03
  -2.34999997E-03   1.06118247E-03
  -2.30000005E-03   8.61694338E-04
  -2.24999990E-03   6.56778167E-04
  -2.19999999E-03   4.46619786E-04
  -2.15000007E-03   2.31371901E-04
  -2.09999993E-03   1.10842266E-05
  -2.05000001E-03  -2.14356071E-04
  -2.00000009E-03  -4.45226789E-04
  -1.94999995E-03  -6.81875506E-04
  -1.90000003E-03  -9.24564083E-04
  -1.85000000E-03  -1.17339240E-03
  -1.79999997E-03  -1.42830168E-03
  -1.75000005E-03  -1.68909656E-03
  -1.70000002E-03  -1.95559696E-03
  -1.64999999E-03  -2.22771149E-03
  -1.59999996E-03  -2.50552641E-03
  -1.55000004E-03  -2.78933020E-03
  -1.50000001E-03  -3.07944580E-03
  -1.44999998E-03  -3.37614259E-03
  -1.39999995E-03  -3.67957074E-03
  -1.35000004E-03  -3.98971280E-03
  -1.30000000E-03  -4.30639926E-03
  -1.24999997E-03  -4.62941779E-03
  -1.20000006E-03  -4.95862076E-03
  -1.15000003E-03  -5.29403426E-03
  -1.09999999E-03  -5.63590508E-03
  -1.04999996E-03  -5.98459784E-03
  -1.00000005E-03  -6.34044176E-03
  -9.50000016E-04  -6.70359889E-03
  -8.99999985E-04  -7.07403058E-03
  -8.50000011E-04  -7.45155476E-03
  -7.99999980E-04  -7.83596002E-03
  -7.50000007E-04  -8.22710991E-03
  -6.99999975E-04  -8.62499513E-03
  -6.50000002E-04  -9.02979914E-03
  -6.00000028E-04  -9.44185816E-03
  -5.49999997E-04  -9.86150466E-03
  -5.00000024E-04  -1.02889501E-02
  -4.49999992E-04  -1.07242148E-02
  -3.99999990E-04  -1.11671435E-02
  -3.49999988E-04  -1.16175003E-02
  -3.00000014E-04  -1.20750554E-02
  -2.50000012E-04  -1.25397658E-02
  -1.99999995E-04  -1.30117917E-02
  -1.50000007E-04  -1.34913763E-02
  -9.99999975E-05  -1.39788436E-02
  -4.99999987E-05  -1.44744916E-02
   0.00000000      -1.49784274E-02
   4.99999987E-05  -1.54905301E-02
   9.99999975E-05  -1.60105731E-02
   1.50000007E-04  -1.65382754E-02
   1.99999995E-04  -1.70734487E-02
   2.50000012E-04  -1.76161714E-02
   3.00000014E-04  -1.81666911E-02
   3.49999988E-04  -1.87253598E-02
   3.99999990E-04  -1.92924943E-02
   4.49999992E-04  -1.98682565E-02
   5.00000024E-04  -2.04525776E-02
   5.49999997E-04  -2.10452024E-02
   6.00000028E-04  -2.16458086E-02
   6.50000002E-04  -2.22541355E-02
   6.99999975E-04  -2.28701048E-02
   7.50000007E-04  -2.34938674E-02
   7.99999980E-04  -2.41257735E-02
   8.50000011E-04  -2.47662347E-02
   8.99999985E-04  -2.54155137E-02
   9.50000016E-04  -2.60736458E-02
   1.00000005E-03  -2.67404057E-02
   1.04999996E-03  -2.74154060E-02
   1.09999999E-03  -2.80982815E-02
   1.15000003E-03  -2.87888497E-02
   1.20000006E-03  -2.94871368E-02
   1.24999997E-03  -3.01934704E-02
   1.30000000E-03  -3.09083331E-02
   1.35000004E-03  -3.16320471E-02
   1.39999995E-03  -3.23647149E-02
   1.44999998E-03  -3.31060737E-02
   1.50000001E-03  -3.38556580E-02
   1.55000004E-03  -3.46130803E-02
   1.59999996E-03  -3.53780575E-02
   1.64999999E-03  -3.61505747E-02
   1.70000002E-03  -3.69309038E-02
   1.75000005E-03  -3.77194025E-02
   1.79999997E-03  -3.85164730E-02
   1.85000000E-03  -3.93222868E-02
   1.90000003E-03  -4.01366875E-02
   1.94999995E-03  -4.09592725E-02
   2.00000009E-03  -4.17895429E-02
   2.05000001E-03  -4.26271148E-02
   2.09999993E-03  -4.34718616E-02
   2.15000007E-03  -4.43239212E-02
   2.19999999E-03  -4.51835878E-02
   2.24999990E-03  -4.60512862E-02
   2.30000005E-03  -4.69273403E-02
   2.34999997E-03  -4.78117540E-02
   2.40000011E-03  -4.87041846E-02
   2.45000003E-03  -4.96040061E-02
   2.49999994E-03  -5.05105481E-02
   2.55000009E-03  -5.14234379E-02
   2.60000001E-03  -5.23428060E-02
   2.64999992E-03  -5.32690771E-02
   2.70000007E-03  -5.42026982E-02
   2.74999999E-03  -5.51441088E-02
   2.79999990E-03  -5.60933314E-02