  -3.99999991E-02   0.00000000    
  -3.99499983E-02   0.00000000    
  -3.99000011E-02   0.00000000    
  -3.98500003E-02   0.00000000    
  -3.97999994E-02   0.00000000    
  -3.97499986E-02   1.07782293E-22
  -3.97000015E-02   9.68626781E-22
  -3.96500006E-02   4.51460921E-21
  -3.95999998E-02   1.43436592E-20
  -3.95499989E-02   3.44225202E-20
  -3.95000018E-02   6.54276277E-20
  -3.94500010E-02   1.00577104E-19
  -3.94000001E-02   1.26063178E-19
  -3.93499993E-02   1.31997850E-19
  -3.92999984E-02   1.35189372E-19
  -3.92500013E-02   2.05562228E-19
  -3.92000005E-02   4.79146076E-19
  -3.91499996E-02   1.14050577E-18
  -3.90999988E-02   2.37167778E-18
  -3.90500017E-02   4.28974211E-18
  -3.90000008E-02   6.91746910E-18
  -3.89500000E-02   1.02324252E-17
  -3.88999991E-02   1.43082873E-17
  -3.88499983E-02   1.95052861E-17
  -3.88000011E-02   2.66136594E-17
  -3.87500003E-02   3.68431373E-17
  -3.86999995E-02   5.16072227E-17
  -3.86499986E-02   7.21615624E-17
  -3.86000015E-02   9.92714739E-17
  -3.85500006E-02   1.33133476E-16
  -3.84999998E-02   1.73706063E-16
  -3.84499989E-02   2.21416173E-16
  -3.84000018E-02   2.77969161E-16
  -3.83500010E-02   3.46827222E-16
  -3.83000001E-02   4.32954459E-16
  -3.82499993E-02   5.41703034E-16
  -3.81999984E-02   6.77152284E-16
  -3.81500013E-02   8.40604602E-16
  -3.81000005E-02   1.03005750E-15
  -3.80499996E-02   1.24117284E-15
  -3.79999988E-02   1.46961709E-15
  -3.79500017E-02   1.71392119E-15
  -3.79000008E-02   1.97755999E-15
  -3.78500000E-02   2.26907506E-15
  -3.77999991E-02   2.59978700E-15
  -3.77499983E-02   2.97974586E-15
  -3.77000012E-02   3.41352181E-15
  -3.76500003E-02   3.89778050E-15
  -3.75999995E-02   4.42200708E-15
  -3.75499986E-02   4.97236123E-15
  -3.75000015E-02   5.53710181E-15
  -3.74500006E-02   6.11099797E-15
  -3.73999998E-02   6.69631976E-15
  -3.73499990E-02   7.29936148E-15
  -3.73000018E-02   7.92350110E-15
  -3.72500010E-02   8.56160490E-15
  -3.72000001E-02   9.19121973E-15
  -3.71499993E-02   9.77512782E-15
  -3.70999984E-02   1.02676851E-14
  -3.70500013E-02   1.06247967E-14
  -3.70000005E-02   1.08136436E-14
  -3.69499996E-02   1.08181083E-14
  -3.68999988E-02   1.06374607E-14
  -3.68500017E-02   1.02786923E-14
  -3.68000008E-02   9.74538341E-15
  -3.67500000E-02   9.02744591E-15
  -3.66999991E-02   8.09546234E-15
  -3.66499983E-02   6.90143048E-15
  -3.66000012E-02   5.38525548E-15
  -3.65500003E-02   3.48434584E-15
  -3.64999995E-02   1.14302141E-15
  -3.64499986E-02  -1.68120381E-15
  -3.64000015E-02  -5.01606855E-15
  -3.63500006E-02  -8.87796238E-15
  -3.62999998E-02  -1.32791710E-14
  -3.62499990E-02  -1.82368294E-14
  -3.62000018E-02  -2.37805296E-14
  -3.61500010E-02  -2.99548458E-14
  -3.61000001E-02  -3.68132276E-14
  -3.60499993E-02  -4.44013926E-14
  -3.59999985E-02  -5.27322530E-14
  -3.59500013E-02  -6.17597539E-14
  -3.59000005E-02  -7.13632170E-14
  -3.58499996E-02  -8.13541874E-14
  -3.57999988E-02  -9.15120098E-14
  -3.57500017E-02  -1.01642104E-13
  -3.57000008E-02  -1.11637926E-13
  -3.56500000E-02  -1.21518748E-13
  -3.55999991E-02  -1.31418138E-13
  -3.55499983E-02  -1.41514391E-13
  -3.55000012E-02  -1.51919899E-13
  -3.54500003E-02  -1.62570695E-13
  -3.53999995E-02  -1.73168541E-13
  -3.53499986E-02  -1.83214568E-13
  -3.53000015E-02  -1.92137945E-13
  -3.52500007E-02  -1.99476733E-13
  -3.51999998E-02  -2.05032633E-13
  -3.51499990E-02  -2.08917492E-13
  -3.51000018E-02  -2.11446474E-13
  -3.50500010E-02  -2.12900417E-13
  -3.50000001E-02  -2.13251021E-13
  -3.49499993E-02  -2.11980878E-13
  -3.48999985E-02  -2.08110669E-13
  -3.48500013E-02  -2.00465065E-13
  -3.48000005E-02  -1.88096460E-13
  -3.47499996E-02  -1.70691667E-13
  -3.46999988E-02  -1.48759978E-13
  -3.46500017E-02  -1.23472575E-13
  -3.46000008E-02  -9.61689089E-14
  -3.45500000E-02  -6.77132165E-14
  -3.44999991E-02  -3.79880419E-14
  -3.44499983E-02  -5.79387731E-15
  -3.44000012E-02   3.07311820E-14
  -3.43500003E-02   7.32937406E-14
  -3.42999995E-02   1.22565857E-13
  -3.42499986E-02   1.77664049E-13
  -3.42000015E-02   2.36295738E-13
  -3.41500007E-02   2.95602925E-13
  -3.40999998E-02   3.53394451E-13
  -3.40499990E-02   4.09220238E-13
  -3.40000018E-02   4.64734317E-13
  -3.39500010E-02   5.23058213E-13
  -3.39000002E-02   5.87301366E-13
  -3.38499993E-02   6.58830249E-13
  -3.37999985E-02   7.36087948E-13
  -3.37500013E-02   8.14613459E-13
  -3.37000005E-02   8.88423558E-13
  -3.36499996E-02   9.52283933E-13
  -3.35999988E-02   1.00390529E-12
  -3.35500017E-02   1.04500631E-12
  -3.35000008E-02   1.08059416E-12
  -3.34500000E-02   1.11658729E-12
  -3.33999991E-02   1.15671697E-12
  -3.33499983E-02   1.20011032E-12
  -3.33000012E-02   1.24080347E-12
  -3.32500003E-02   1.26965528E-12
  -3.31999995E-02   1.27803638E-12
  -3.31499986E-02   1.26173421E-12
  -3.31000015E-02   1.22322541E-12
  -3.30500007E-02   1.17102747E-12
  -3.29999998E-02   1.11609311E-12
  -3.29499990E-02   1.06662216E-12
  -3.29000019E-02   1.02358855E-12
  -3.28500010E-02   9.79195999E-13
  -3.28000002E-02   9.19337414E-13
  -3.27499993E-02   8.29333184E-13
  -3.26999985E-02   7.00592253E-13
  -3.26500013E-02   5.35137147E-13
  -3.26000005E-02   3.45630290E-13
  -3.25499997E-02   1.50427888E-13
  -3.24999988E-02  -3.44907378E-14
  -3.24500017E-02  -2.03194801E-13
  -3.24000008E-02  -3.63379113E-13
  -3.23500000E-02  -5.33726926E-13
  -3.22999991E-02  -7.35684192E-13
  -3.22499983E-02  -9.82998513E-13
  -3.22000012E-02  -1.27377698E-12
  -3.21500003E-02  -1.58909854E-12
  -3.20999995E-02  -1.89950226E-12
  -3.20499986E-02  -2.17706669E-12
  -3.20000015E-02  -2.40791935E-12
  -3.19500007E-02  -2.59931399E-12
  -3.18999998E-02  -2.77742304E-12
  -3.18499990E-02  -2.97601440E-12
  -3.18000019E-02  -3.22050264E-12
  -3.17500010E-02  -3.51445826E-12
  -3.17000002E-02  -3.83514141E-12
  -3.16499993E-02  -4.14095537E-12
  -3.15999985E-02  -4.38836207E-12
  -3.15500014E-02  -4.55112380E-12
  -3.15000005E-02  -4.63301316E-12
  -3.14499997E-02  -4.66747561E-12
  -3.13999988E-02  -4.70328290E-12
  -3.13500017E-02  -4.78176916E-12
  -3.13000008E-02  -4.91565599E-12
  -3.12500000E-02  -5.07957175E-12
  -3.11999992E-02  -5.21772339E-12
  -3.11500002E-02  -5.26654415E-12
  -3.10999993E-02  -5.18295519E-12
  -3.10500003E-02  -4.96544602E-12
  -3.09999995E-02  -4.65754822E-12
  -3.09500005E-02  -4.33066777E-12
  -3.08999997E-02  -4.05268874E-12
  -3.08500007E-02  -3.85589564E-12
  -3.07999998E-02  -3.71916040E-12
  -3.07500008E-02  -3.57375891E-12
  -3.07000000E-02  -3.33187471E-12
  -3.06499992E-02  -2.92615650E-12
  -3.06000002E-02  -2.34266382E-12
  -3.05499993E-02  -1.63134187E-12
  -3.05000003E-02  -8.87500848E-13
  -3.04499995E-02  -2.10868730E-13
  -3.04000005E-02   3.40270211E-13
  -3.03499997E-02   7.78775698E-13
  -3.03000007E-02   1.18715573E-12
  -3.02499998E-02   1.68332774E-12
  -3.02000009E-02   2.36725028E-12
  -3.01500000E-02   3.27191030E-12
  -3.00999992E-02   4.34174832E-12
  -3.00500002E-02   5.45044045E-12
  -2.99999993E-02   6.45244752E-12
  -2.99500003E-02   7.24670454E-12
  -2.98999995E-02   7.82372951E-12
  -2.98500005E-02   8.27326142E-12
  -2.97999997E-02   8.74637775E-12
  -2.97500007E-02   9.38677001E-12
  -2.96999998E-02   1.02610993E-11
  -2.96500009E-02   1.13206987E-11
  -2.96000000E-02   1.24143465E-11
  -2.95499992E-02   1.33493884E-11
  -2.95000002E-02   1.39759307E-11
  -2.94499993E-02   1.42565066E-11
  -2.94000003E-02   1.42881184E-11
  -2.93499995E-02   1.42635287E-11
  -2.93000005E-02   1.43860245E-11
  -2.92499997E-02   1.47742513E-11
  -2.92000007E-02   1.54004431E-11
  -2.91499998E-02   1.60925509E-11
  -2.91000009E-02   1.66029673E-11
  -2.90500000E-02   1.67160071E-11
  -2.89999992E-02   1.63468475E-11
  -2.89500002E-02   1.55858521E-11
  -2.88999993E-02   1.46648908E-11
  -2.88500004E-02   1.38568861E-11
  -2.87999995E-02   1.33512385E-11
  -2.87500005E-02   1.31612273E-11
  -2.86999997E-02   1.31077892E-11
  -2.86500007E-02   1.28912636E-11
  -2.85999998E-02   1.22228000E-11
  -2.85500009E-02   1.09581415E-11
  -2.85000000E-02   9.17235211E-12
  -2.84499992E-02   7.13801154E-12
  -2.84000002E-02   5.21180104E-12
  -2.83499993E-02   3.67680669E-12
  -2.83000004E-02   2.61059360E-12
  -2.82499995E-02   1.84087706E-12
  -2.82000005E-02   1.01352130E-12
  -2.81499997E-02  -2.52697982E-13
  -2.81000007E-02  -2.19115416E-12
  -2.80499998E-02  -4.77136516E-12
  -2.80000009E-02  -7.69783889E-12
  -2.79500000E-02  -1.05297758E-11
  -2.78999992E-02  -1.28725381E-11
  -2.78500002E-02  -1.45566562E-11
  -2.77999993E-02  -1.57218648E-11
  -2.77500004E-02  -1.67632991E-11
  -2.76999995E-02  -1.81581139E-11
  -2.76500005E-02  -2.02462561E-11
  -2.75999997E-02  -2.30635771E-11
  -2.75500007E-02  -2.63058984E-11
  -2.74999999E-02  -2.94464800E-11
  -2.74500009E-02  -3.19601741E-11
  -2.74000000E-02  -3.35569073E-11
  -2.73499992E-02  -3.43184578E-11
  -2.73000002E-02  -3.46720812E-11
  -2.72499993E-02  -3.52060221E-11
  -2.72000004E-02  -3.64041575E-11
  -2.71499995E-02  -3.84172416E-11
  -2.71000005E-02  -4.09763404E-11
  -2.70499997E-02  -4.34937537E-11
  -2.70000007E-02  -4.53131352E-11
  -2.69499999E-02  -4.60011508E-11
  -2.69000009E-02  -4.55495953E-11
  -2.68500000E-02  -4.43924238E-11
  -2.67999992E-02  -4.32224673E-11
  -2.67500002E-02  -4.26831348E-11
  -2.66999993E-02  -4.30702557E-11
  -2.66500004E-02  -4.41798854E-11
  -2.65999995E-02  -4.53770736E-11
  -2.65500005E-02  -4.58629835E-11
  -2.64999997E-02  -4.50270481E-11
  -2.64500007E-02  -4.27276894E-11
  -2.63999999E-02  -3.93717732E-11
  -2.63500009E-02  -3.57491536E-11
  -2.63000000E-02  -3.26881751E-11
  -2.62499992E-02  -3.06815164E-11
  -2.62000002E-02  -2.96505979E-11
  -2.61499994E-02  -2.89604053E-11
  -2.61000004E-02  -2.76868858E-11
  -2.60499995E-02  -2.50251781E-11
  -2.60000005E-02  -2.06588722E-11
  -2.59499997E-02  -1.49220341E-11
  -2.59000007E-02  -8.67328431E-12
  -2.58499999E-02  -2.92882038E-12
  -2.58000009E-02   1.58823302E-12
  -2.57500000E-02   4.78140401E-12
  -2.56999992E-02   7.24262664E-12
  -2.56500002E-02   1.00048919E-11
  -2.55999994E-02   1.40867968E-11
  -2.55500004E-02   2.00273409E-11
  -2.54999995E-02   2.76203522E-11
  -2.54500005E-02   3.59748377E-11
  -2.53999997E-02   4.38847222E-11
  -2.53500007E-02   5.03514661E-11
  -2.52999999E-02   5.50290299E-11
  -2.52500009E-02   5.83883428E-11
  -2.52000000E-02   6.15182696E-11
  -2.51499992E-02   6.56413257E-11
  -2.51000002E-02   7.15532841E-11
  -2.50499994E-02   7.92367283E-11
  -2.50000004E-02   8.78281059E-11
  -2.49499995E-02   9.59643337E-11
  -2.49000005E-02   1.02364797E-10
  -2.48499997E-02   1.06394511E-10
  -2.48000007E-02   1.08354464E-10
  -2.47499999E-02   1.09360458E-10
  -2.47000009E-02   1.10852293E-10
  -2.46500000E-02   1.13942557E-10
  -2.45999992E-02   1.18892812E-10
  -2.45500002E-02   1.24956046E-10
  -2.44999994E-02   1.30666949E-10
  -2.44500004E-02   1.34462858E-10
  -2.43999995E-02   1.35366329E-10
  -2.43500005E-02   1.33424938E-10
  -2.42999997E-02   1.29703845E-10
  -2.42500007E-02   1.25822047E-10
  -2.41999999E-02   1.23227276E-10
  -2.41500009E-02   1.22527474E-10
  -2.41000000E-02   1.23180646E-10
  -2.40499992E-02   1.23692362E-10
  -2.40000002E-02   1.22246865E-10
  -2.39499994E-02   1.17501370E-10
  -2.39000004E-02   1.09192259E-10
  -2.38499995E-02   9.82767062E-11
  -2.38000005E-02   8.65334193E-11
  -2.37499997E-02   7.57867172E-11
  -2.37000007E-02   6.70909578E-11
  -2.36499999E-02   6.02392650E-11
  -2.36000009E-02   5.38251804E-11
  -2.35500000E-02   4.58441098E-11
  -2.34999992E-02   3.45798216E-11
  -2.34500002E-02   1.93868185E-11
  -2.33999994E-02   1.01587228E-12
  -2.33500004E-02  -1.86745792E-11
  -2.32999995E-02  -3.75079481E-11
  -2.32500006E-02  -5.39394293E-11
  -2.31999997E-02  -6.77455037E-11
  -2.31500007E-02  -8.01377437E-11
  -2.30999999E-02  -9.32352390E-11
  -2.30500009E-02  -1.09115057E-10
  -2.30000000E-02  -1.28854635E-10
  -2.29499992E-02  -1.51993695E-10
  -2.29000002E-02  -1.76666945E-10
  -2.28499994E-02  -2.00364891E-10
  -2.28000004E-02  -2.20998608E-10
  -2.27499995E-02  -2.37800446E-10
  -2.27000006E-02  -2.51654558E-10
  -2.26499997E-02  -2.64695987E-10
  -2.26000007E-02  -2.79340107E-10
  -2.25499999E-02  -2.97162517E-10
  -2.25000009E-02  -3.18126248E-10
  -2.24500000E-02  -3.40509815E-10
  -2.23999992E-02  -3.61585151E-10
  -2.23500002E-02  -3.78760412E-10
  -2.22999994E-02  -3.90688065E-10
  -2.22500004E-02  -3.97843147E-10
  -2.21999995E-02  -4.02300498E-10
  -2.21500006E-02  -4.06792627E-10
  -2.20999997E-02  -4.13451717E-10
  -2.20500007E-02  -4.22789831E-10
  -2.19999999E-02  -4.33378472E-10
  -2.19500009E-02  -4.42385989E-10
  -2.19000001E-02  -4.46752663E-10
  -2.18499992E-02  -4.44493414E-10
  -2.18000002E-02  -4.35550956E-10
  -2.17499994E-02  -4.21808727E-10
  -2.17000004E-02  -4.06240819E-10
  -2.16499995E-02  -3.91559590E-10
  -2.16000006E-02  -3.78954923E-10
  -2.15499997E-02  -3.67489039E-10
  -2.15000007E-02  -3.54431873E-10
  -2.14499999E-02  -3.36407402E-10
  -2.14000009E-02  -3.10856840E-10
  -2.13500001E-02  -2.77172840E-10
  -2.12999992E-02  -2.36992648E-10
  -2.12500002E-02  -1.93502089E-10
  -2.11999994E-02  -1.50040924E-10
  -2.11500004E-02  -1.08617615E-10
  -2.10999995E-02  -6.89941645E-11
  -2.10500006E-02  -2.87605061E-11
  -2.09999997E-02   1.56147543E-11
  -2.09500007E-02   6.72065112E-11
  -2.08999999E-02   1.27220720E-10
  -2.08500009E-02   1.94379901E-10
  -2.08000001E-02   2.65394817E-10
  -2.07499992E-02   3.36332157E-10
  -2.07000002E-02   4.04284384E-10
  -2.06499994E-02   4.68602712E-10
  -2.06000004E-02   5.31134692E-10
  -2.05499995E-02   5.95342720E-10
  -2.05000006E-02   6.64675093E-10
  -2.04499997E-02   7.40903117E-10
  -2.04000007E-02   8.23164426E-10
  -2.03499999E-02   9.08152054E-10
  -2.03000009E-02   9.91385529E-10
  -2.02500001E-02   1.06901676E-09
  -2.01999992E-02   1.13937548E-09
  -2.01500002E-02   1.20356325E-09
  -2.00999994E-02   1.26481381E-09
  -2.00500004E-02   1.32688682E-09
  -1.99999996E-02   1.39219269E-09
  -1.99500006E-02   1.46048063E-09
  -1.98999997E-02   1.52868285E-09
  -1.98500007E-02   1.59200142E-09
  -1.97999999E-02   1.64577274E-09
  -1.97500009E-02   1.68729297E-09
  -1.97000001E-02   1.71678816E-09
  -1.96499992E-02   1.73708670E-09
  -1.96000002E-02   1.75212034E-09
  -1.95499994E-02   1.76490378E-09
  -1.95000004E-02   1.77588722E-09
  -1.94499996E-02   1.78241999E-09
  -1.94000006E-02   1.77958071E-09
  -1.93499997E-02   1.76202564E-09
  -1.93000007E-02   1.72604586E-09
  -1.92499999E-02   1.67092429E-09
  -1.92000009E-02   1.59897873E-09
  -1.91500001E-02   1.51425605E-09
  -1.90999992E-02   1.42044376E-09
  -1.90500002E-02   1.31891642E-09
  -1.89999994E-02   1.20778976E-09
  -1.89500004E-02   1.08241582E-09
  -1.88999996E-02   9.37114164E-10
  -1.88500006E-02   7.67386321E-10
  -1.87999997E-02   5.71633296E-10
  -1.87500007E-02   3.51606244E-10
  -1.86999999E-02   1.11376984E-10
  -1.86500009E-02  -1.44729700E-10
  -1.86000001E-02  -4.14334039E-10
  -1.85499992E-02  -6.98352542E-10
  -1.85000002E-02  -1.00089226E-09
  -1.84499994E-02  -1.32771993E-09
  -1.84000004E-02  -1.68396941E-09
  -1.83499996E-02  -2.07209894E-09
  -1.83000006E-02  -2.49100562E-09
  -1.82499997E-02  -2.93669999E-09
  -1.82000007E-02  -3.40425665E-09
  -1.81499999E-02  -3.89018284E-09
  -1.81000009E-02  -4.39416059E-09
  -1.80500001E-02  -4.91937557E-09
  -1.79999992E-02  -5.47129320E-09
  -1.79500002E-02  -6.05539086E-09
  -1.78999994E-02  -6.67486555E-09
  -1.78500004E-02  -7.32932159E-09
  -1.77999996E-02  -8.01503575E-09
  -1.77500006E-02  -8.72668693E-09
  -1.76999997E-02  -9.45980361E-09
  -1.76500008E-02  -1.02128315E-08
  -1.75999999E-02  -1.09879252E-08
  -1.75500009E-02  -1.17900880E-08
  -1.75000001E-02  -1.26250326E-08
  -1.74499992E-02  -1.34967113E-08
  -1.74000002E-02  -1.44056038E-08
  -1.73499994E-02  -1.53485225E-08
  -1.73000004E-02  -1.63200262E-08
  -1.72499996E-02  -1.73148393E-08
  -1.72000006E-02  -1.83301836E-08
  -1.71499997E-02  -1.93670111E-08
  -1.71000008E-02  -2.04295905E-08
  -1.70499999E-02  -2.15236060E-08
  -1.70000009E-02  -2.26536336E-08
  -1.69500001E-02  -2.38210873E-08
  -1.68999992E-02  -2.50235637E-08
  -1.68500002E-02  -2.62558810E-08
  -1.67999994E-02  -2.75123391E-08
  -1.67500004E-02  -2.87892412E-08
  -1.66999996E-02  -3.00865217E-08
  -1.66500006E-02  -3.14078044E-08
  -1.65999997E-02  -3.27588161E-08
  -1.65500008E-02  -3.41449180E-08
  -1.64999999E-02  -3.55687639E-08
  -1.64500009E-02  -3.70291886E-08
  -1.64000001E-02  -3.85218009E-08
  -1.63499992E-02  -4.00409945E-08
  -1.63000003E-02  -4.15825028E-08
  -1.62499994E-02  -4.31454055E-08
  -1.62000004E-02  -4.47326656E-08
  -1.61499996E-02  -4.63499461E-08
  -1.61000006E-02  -4.80033115E-08
  -1.60499997E-02  -4.96967267E-08
  -1.60000008E-02  -5.14305469E-08
  -1.59499999E-02  -5.32016173E-08
  -1.59000009E-02  -5.50049535E-08
  -1.58500001E-02  -5.68362459E-08
  -1.57999992E-02  -5.86941020E-08
  -1.57500003E-02  -6.05810371E-08
  -1.56999994E-02  -6.25027781E-08
  -1.56500004E-02  -6.44661782E-08
  -1.55999996E-02  -6.64766944E-08
  -1.55499997E-02  -6.85365507E-08
  -1.54999997E-02  -7.06442975E-08
  -1.54499998E-02  -7.27960554E-08
  -1.53999999E-02  -7.49878950E-08
  -1.53500000E-02  -7.72181608E-08
  -1.53000001E-02  -7.94889274E-08
  -1.52500002E-02  -8.18057586E-08
  -1.52000003E-02  -8.41760439E-08
  -1.51500003E-02  -8.66065122E-08
  -1.51000004E-02  -8.91011851E-08
  -1.50499996E-02  -9.16604463E-08
  -1.49999997E-02  -9.42818872E-08
  -1.49499997E-02  -9.69623173E-08
  -1.48999998E-02  -9.97001948E-08
  -1.48499999E-02  -1.02497353E-07
  -1.48000000E-02  -1.05359270E-07
  -1.47500001E-02  -1.08293797E-07
  -1.47000002E-02  -1.11308886E-07
  -1.46500003E-02  -1.14410383E-07
  -1.46000003E-02  -1.17600706E-07
  -1.45500004E-02  -1.20879193E-07
  -1.44999996E-02  -1.24243726E-07
  -1.44499997E-02  -1.27693013E-07
  -1.43999998E-02  -1.31228617E-07
  -1.43499998E-02  -1.34855668E-07
  -1.42999999E-02  -1.38582010E-07
  -1.42500000E-02  -1.42416297E-07
  -1.42000001E-02  -1.46365750E-07
  -1.41500002E-02  -1.50434659E-07
  -1.41000003E-02  -1.54624018E-07
  -1.40500003E-02  -1.58932906E-07
  -1.40000004E-02  -1.63360539E-07
  -1.39499996E-02  -1.67908269E-07
  -1.38999997E-02  -1.72580798E-07
  -1.38499998E-02  -1.77385786E-07
  -1.37999998E-02  -1.82332400E-07
  -1.37499999E-02  -1.87429023E-07
  -1.37000000E-02  -1.92681668E-07
  -1.36500001E-02  -1.98093176E-07
  -1.36000002E-02  -2.03664015E-07
  -1.35500003E-02  -2.09394074E-07
  -1.35000004E-02  -2.15284672E-07
  -1.34500004E-02  -2.21339945E-07
  -1.33999996E-02  -2.27566986E-07
  -1.33499997E-02  -2.33974887E-07
  -1.32999998E-02  -2.40572689E-07
  -1.32499998E-02  -2.47367694E-07
  -1.31999999E-02  -2.54364380E-07
  -1.31500000E-02  -2.61564736E-07
  -1.31000001E-02  -2.68969472E-07
  -1.30500002E-02  -2.76580181E-07
  -1.30000003E-02  -2.84400642E-07
  -1.29500004E-02  -2.92437448E-07
  -1.29000004E-02  -3.00699554E-07
  -1.28499996E-02  -3.09196565E-07
  -1.27999997E-02  -3.17937094E-07
  -1.27499998E-02  -3.26927392E-07
  -1.26999998E-02  -3.36171098E-07
  -1.26499999E-02  -3.45670372E-07
  -1.26000000E-02  -3.55427318E-07
  -1.25500001E-02  -3.65445572E-07
  -1.25000002E-02  -3.75731332E-07
  -1.24500003E-02  -3.86293095E-07
  -1.24000004E-02  -3.97140781E-07
  -1.23500004E-02  -4.08283938E-07
  -1.22999996E-02  -4.19730412E-07
  -1.22499997E-02  -4.31485830E-07
  -1.21999998E-02  -4.43553859E-07
  -1.21499998E-02  -4.55937482E-07
  -1.20999999E-02  -4.68640764E-07
  -1.20500000E-02  -4.81669815E-07
  -1.20000001E-02  -4.95033021E-07
  -1.19500002E-02  -5.08740641E-07
  -1.19000003E-02  -5.22803475E-07
  -1.18500004E-02  -5.37231415E-07
  -1.18000004E-02  -5.52032475E-07
  -1.17499996E-02  -5.67212680E-07
  -1.16999997E-02  -5.82777204E-07
  -1.16499998E-02  -5.98731276E-07
  -1.15999999E-02  -6.15081490E-07
  -1.15499999E-02  -6.31836713E-07
  -1.15000000E-02  -6.49007859E-07
  -1.14500001E-02  -6.66606525E-07
  -1.14000002E-02  -6.84644647E-07
  -1.13500003E-02  -7.03132571E-07
  -1.13000004E-02  -7.22078937E-07
  -1.12500004E-02  -7.41491135E-07
  -1.11999996E-02  -7.61376043E-07
  -1.11499997E-02  -7.81741505E-07
  -1.10999998E-02  -8.02597242E-07
  -1.10499999E-02  -8.23954849E-07
  -1.09999999E-02  -8.45827913E-07
  -1.09500000E-02  -8.68230643E-07
  -1.09000001E-02  -8.91176796E-07
  -1.08500002E-02  -9.14678765E-07
  -1.08000003E-02  -9.38747519E-07
  -1.07500004E-02  -9.63392722E-07
  -1.07000005E-02  -9.88624379E-07
  -1.06499996E-02  -1.01445346E-06
  -1.05999997E-02  -1.04089258E-06
  -1.05499998E-02  -1.06795653E-06
  -1.04999999E-02  -1.09566145E-06
  -1.04499999E-02  -1.12402336E-06
  -1.04000000E-02  -1.15305807E-06
  -1.03500001E-02  -1.18277967E-06
  -1.03000002E-02  -1.21320068E-06
  -1.02500003E-02  -1.24433336E-06
  -1.02000004E-02  -1.27619057E-06
  -1.01500005E-02  -1.30878664E-06
  -1.00999996E-02  -1.34213826E-06
  -1.00499997E-02  -1.37626421E-06
  -9.99999978E-03  -1.41118426E-06
  -9.94999986E-03  -1.44691774E-06
  -9.89999995E-03  -1.48348340E-06
  -9.85000003E-03  -1.52089797E-06
  -9.80000012E-03  -1.55917746E-06
  -9.75000020E-03  -1.59833689E-06
  -9.70000029E-03  -1.63839286E-06
  -9.65000037E-03  -1.67936389E-06
  -9.60000046E-03  -1.72127045E-06
  -9.54999961E-03  -1.76413516E-06
  -9.49999969E-03  -1.80798088E-06
  -9.44999978E-03  -1.85283022E-06
  -9.39999986E-03  -1.89870320E-06
  -9.34999995E-03  -1.94561858E-06
  -9.30000003E-03  -1.99359374E-06
  -9.25000012E-03  -2.04264666E-06
  -9.20000020E-03  -2.09279733E-06
  -9.15000029E-03  -2.14406850E-06
  -9.10000037E-03  -2.19648541E-06
  -9.05000046E-03  -2.25007511E-06
  -8.99999961E-03  -2.30486421E-06
  -8.94999970E-03  -2.36087817E-06
  -8.89999978E-03  -2.41813950E-06
  -8.84999987E-03  -2.47666981E-06
  -8.79999995E-03  -2.53649000E-06
  -8.75000004E-03  -2.59762328E-06
  -8.70000012E-03  -2.66009488E-06
  -8.65000021E-03  -2.72393345E-06
  -8.60000029E-03  -2.78916968E-06
  -8.55000038E-03  -2.85583405E-06
  -8.50000046E-03  -2.92395612E-06
  -8.44999962E-03  -2.99356248E-06
  -8.39999970E-03  -3.06467746E-06
  -8.34999979E-03  -3.13732494E-06
  -8.29999987E-03  -3.21152879E-06
  -8.24999996E-03  -3.28731653E-06
  -8.20000004E-03  -3.36471840E-06
  -8.15000013E-03  -3.44376849E-06
  -8.10000021E-03  -3.52450115E-06
  -8.05000030E-03  -3.60695003E-06
  -8.00000038E-03  -3.69114696E-06
  -7.95000046E-03  -3.77712036E-06
  -7.89999962E-03  -3.86489683E-06
  -7.84999970E-03  -3.95450388E-06
  -7.79999979E-03  -4.04597222E-06
  -7.74999987E-03  -4.13933640E-06
  -7.69999996E-03  -4.23463371E-06
  -7.65000004E-03  -4.33190417E-06
  -7.60000013E-03  -4.43118734E-06
  -7.55000021E-03  -4.53252005E-06
  -7.49999983E-03  -4.63593506E-06
  -7.44999992E-03  -4.74146373E-06
  -7.40000000E-03  -4.84913608E-06
  -7.35000009E-03  -4.95898348E-06
  -7.30000017E-03  -5.07104414E-06
  -7.24999979E-03  -5.18535899E-06
  -7.19999988E-03  -5.30197258E-06
  -7.14999996E-03  -5.42092948E-06
  -7.10000005E-03  -5.54227063E-06
  -7.05000013E-03  -5.66603330E-06
  -7.00000022E-03  -5.79225298E-06
  -6.94999984E-03  -5.92096194E-06
  -6.89999992E-03  -6.05219611E-06
  -6.85000001E-03  -6.18599415E-06
  -6.80000009E-03  -6.32240244E-06
  -6.75000018E-03  -6.46147055E-06
  -6.69999979E-03  -6.60324804E-06
  -6.64999988E-03  -6.74778312E-06
  -6.59999996E-03  -6.89511808E-06
  -6.55000005E-03  -7.04529293E-06
  -6.50000013E-03  -7.19834497E-06
  -6.45000022E-03  -7.35431331E-06
  -6.39999984E-03  -7.51324114E-06
  -6.34999992E-03  -7.67517849E-06
  -6.30000001E-03  -7.84017811E-06
  -6.25000009E-03  -8.00829821E-06
  -6.20000018E-03  -8.17959153E-06
  -6.14999980E-03  -8.35410447E-06
  -6.09999988E-03  -8.53188158E-06
  -6.04999997E-03  -8.71296288E-06
  -6.00000005E-03  -8.89738840E-06
  -5.95000014E-03  -9.08520724E-06
  -5.90000022E-03  -9.27647034E-06
  -5.84999984E-03  -9.47123590E-06
  -5.79999993E-03  -9.66956304E-06
  -5.75000001E-03  -9.87150997E-06
  -5.70000010E-03  -1.00771294E-05
  -5.65000018E-03  -1.02864715E-05
  -5.59999980E-03  -1.04995797E-05
  -5.54999989E-03  -1.07164960E-05
  -5.49999997E-03  -1.09372695E-05
  -5.45000006E-03  -1.11619574E-05
  -5.40000014E-03  -1.13906199E-05
  -5.35000023E-03  -1.16233223E-05
  -5.29999984E-03  -1.18601283E-05
  -5.24999993E-03  -1.21010953E-05
  -5.20000001E-03  -1.23462742E-05
  -5.15000010E-03  -1.25957122E-05
  -5.10000018E-03  -1.28494576E-05
  -5.04999980E-03  -1.31075603E-05
  -4.99999989E-03  -1.33700760E-05
  -4.94999997E-03  -1.36370682E-05
  -4.90000006E-03  -1.39086042E-05
  -4.85000014E-03  -1.41847495E-05
  -4.80000023E-03  -1.44655669E-05
  -4.74999985E-03  -1.47511091E-05
  -4.69999993E-03  -1.50414244E-05
  -4.65000002E-03  -1.53365600E-05
  -4.60000010E-03  -1.56365641E-05
  -4.55000019E-03  -1.59414976E-05
  -4.49999981E-03  -1.62514261E-05
  -4.44999989E-03  -1.65664151E-05
  -4.39999998E-03  -1.68865354E-05
  -4.35000006E-03  -1.72118507E-05
  -4.30000015E-03  -1.75424175E-05
  -4.25000023E-03  -1.78782884E-05
  -4.19999985E-03  -1.82195090E-05
  -4.14999994E-03  -1.85661265E-05
  -4.10000002E-03  -1.89182010E-05
  -4.05000011E-03  -1.92757943E-05
  -4.00000019E-03  -1.96389792E-05
  -3.94999981E-03  -2.00078284E-05
  -3.89999989E-03  -2.03824075E-05
  -3.84999998E-03  -2.07627745E-05
  -3.80000006E-03  -2.11489751E-05
  -3.74999992E-03  -2.15410546E-05
  -3.70000000E-03  -2.19390586E-05
  -3.65000009E-03  -2.23430397E-05
  -3.59999994E-03  -2.27530618E-05
  -3.55000002E-03  -2.31691938E-05
  -3.50000011E-03  -2.35915086E-05
  -3.44999996E-03  -2.40200698E-05
  -3.40000005E-03  -2.44549374E-05
  -3.34999990E-03  -2.48961587E-05
  -3.29999998E-03  -2.53437738E-05
  -3.25000007E-03  -2.57978281E-05
  -3.19999992E-03  -2.62583671E-05
  -3.15000000E-03  -2.67254509E-05
  -3.10000009E-03  -2.71991485E-05
  -3.04999994E-03  -2.76795326E-05
  -3.00000003E-03  -2.81666689E-05
  -2.95000011E-03  -2.86606173E-05
  -2.89999996E-03  -2.91614197E-05
  -2.85000005E-03  -2.96691105E-05
  -2.79999990E-03  -3.01837299E-05
  -2.74999999E-03  -3.07053124E-05
  -2.70000007E-03  -3.12339143E-05
  -2.64999992E-03  -3.17695994E-05
  -2.60000001E-03  -3.23124368E-05
  -2.55000009E-03  -3.28624847E-05
  -2.49999994E-03  -3.34198048E-05
  -2.45000003E-03  -3.39844337E-05
  -2.40000011E-03  -3.45564076E-05
  -2.34999997E-03  -3.51357521E-05
  -2.30000005E-03  -3.57224962E-05
  -2.24999990E-03  -3.63166764E-05
  -2.19999999E-03  -3.69183581E-05
  -2.15000007E-03  -3.75275995E-05
  -2.09999993E-03  -3.81444661E-05
  -2.05000001E-03  -3.87690125E-05
  -2.00000009E-03  -3.94012750E-05
  -1.94999995E-03  -4.00412755E-05
  -1.90000003E-03  -4.06890249E-05
  -1.85000000E-03  -4.13445450E-05
  -1.79999997E-03  -4.20078613E-05
  -1.75000005E-03  -4.26790175E-05
  -1.70000002E-03  -4.33580717E-05
  -1.64999999E-03  -4.40450858E-05
  -1.59999996E-03  -4.47400998E-05
  -1.55000004E-03  -4.54431502E-05
  -1.50000001E-03  -4.61542404E-05
  -1.44999998E-03  -4.68733742E-05
  -1.39999995E-03  -4.76005480E-05
  -1.35000004E-03  -4.83357762E-05
  -1.30000000E-03  -4.90790881E-05
  -1.24999997E-03  -4.98305380E-05
  -1.20000006E-03  -5.05901626E-05
  -1.15000003E-03  -5.13580089E-05
  -1.09999999E-03  -5.21340917E-05
  -1.04999996E-03  -5.29183999E-05
  -1.00000005E-03  -5.37109227E-05
  -9.50000016E-04  -5.45116236E-05
  -8.99999985E-04  -5.53205027E-05
  -8.50000011E-04  -5.61375746E-05
  -7.99999980E-04  -5.69628646E-05
  -7.50000007E-04  -5.77964165E-05
  -6.99999975E-04  -5.86382521E-05
  -6.50000002E-04  -5.94883859E-05
  -6.00000028E-04  -6.03467852E-05
  -5.49999997E-04  -6.12134027E-05
  -5.00000024E-04  -6.20881983E-05
  -4.49999992E-04  -6.29711285E-05
  -3.99999990E-04  -6.38621859E-05
  -3.49999988E-04  -6.47613779E-05
  -3.00000014E-04  -6.56687334E-05
  -2.50000012E-04  -6.65842526E-05
  -1.99999995E-04  -6.75079136E-05
  -1.50000007E-04  -6.84396873E-05
  -9.99999975E-05  -6.93795082E-05
  -4.99999987E-05  -7.03272963E-05
   0.00000000      -7.12829642E-05
   4.99999987E-05  -7.22464683E-05
   9.99999975E-05  -7.32177941E-05
   1.50000007E-04  -7.41969343E-05
   1.99999995E-04  -7.51838888E-05
   2.50000012E-04  -7.61786068E-05
   3.00000014E-04  -7.71810373E-05
   3.49999988E-04  -7.81910785E-05
   3.99999990E-04  -7.92086212E-05
   4.49999992E-04  -8.02335562E-05
   5.00000024E-04  -8.12658182E-05
   5.49999997E-04  -8.23053342E-05
   6.00000028E-04  -8.33520608E-05
   6.50000002E-04  -8.44059759E-05
   6.99999975E-04  -8.54669997E-05
   7.50000007E-04  -8.65350521E-05
   7.99999980E-04  -8.76100094E-05
   8.50000011E-04  -8.86917260E-05
   8.99999985E-04  -8.97800346E-05
   9.50000016E-04  -9.08748189E-05
   1.00000005E-03  -9.19759623E-05
   1.04999996E-03  -9.30834140E-05
   1.09999999E-03  -9.41970793E-05
   1.15000003E-03  -9.53168928E-05
   1.20000006E-03  -9.64427236E-05
   1.24999997E-03  -9.75744188E-05
   1.30000000E-03  -9.87117819E-05
   1.35000004E-03  -9.98546166E-05
   1.39999995E-03  -1.01002741E-04
   1.44999998E-03  -1.02156017E-04
   1.50000001E-03  -1.03314313E-04
   1.55000004E-03  -1.04477520E-04
   1.59999996E-03  -1.05645529E-04
   1.64999999E-03  -1.06818188E-04
   1.70000002E-03  -1.07995293E-04
   1.75000005E-03  -1.09176603E-04
   1.79999997E-03  -1.10361863E-04
   1.85000000E-03  -1.11550857E-04
   1.90000003E-03  -1.12743379E-04
   1.94999995E-03  -1.13939248E-04
   2.00000009E-03  -1.15138319E-04
   2.05000001E-03  -1.16340452E-04
   2.09999993E-03  -1.17545445E-04
   2.15000007E-03  -1.18753058E-04
   2.19999999E-03  -1.19963013E-04
   2.24999990E-03  -1.21174991E-04
   2.30000005E-03  -1.22388694E-04
   2.34999997E-03  -1.23603852E-04
   2.40000011E-03  -1.24820275E-04
   2.45000003E-03  -1.26037732E-04
   2.49999994E-03  -1.27256048E-04
   2.55000009E-03  -1.28474989E-04
   2.60000001E-03  -1.29694279E-04
   2.64999992E-03  -1.30913540E-04
   2.70000007E-03  -1.32132453E-04
   2.74999999E-03  -1.33350637E-04
   2.79999990E-03  -1.34567788E-04