  -3.99999991E-02   0.00000000    
  -3.99499983E-02   0.00000000    
  -3.99000011E-02   0.00000000    
  -3.98500003E-02  -9.93838150E-18
  -3.97999994E-02  -7.59092465E-17
  -3.97499986E-02  -3.18531160E-16
  -3.97000015E-02  -9.59429243E-16
  -3.96500006E-02  -2.30605906E-15
  -3.95999998E-02  -4.68495448E-15
  -3.95499989E-02  -8.34535654E-15
  -3.95000018E-02  -1.33778181E-14
  -3.94500010E-02  -1.96973565E-14
  -3.94000001E-02  -2.71293557E-14
  -3.93499993E-02  -3.56043354E-14
  -3.92999984E-02  -4.54101952E-14
  -3.92500013E-02  -5.73877493E-14
  -3.92000005E-02  -7.29390032E-14
  -3.91499996E-02  -9.37872487E-14
  -3.90999988E-02  -1.21561344E-13
  -3.90500017E-02  -1.57387653E-13
  -3.90000008E-02  -2.01681784E-13
  -3.89500000E-02  -2.54235191E-13
  -3.88999991E-02  -3.14558248E-13
  -3.88499983E-02  -3.82347718E-13
  -3.88000011E-02  -4.57916962E-13
  -3.87500003E-02  -5.42443586E-13
  -3.86999995E-02  -6.37936535E-13
  -3.86499986E-02  -7.46904708E-13
  -3.86000015E-02  -8.71813472E-13
  -3.85500006E-02  -1.01449036E-12
  -3.84999998E-02  -1.17564422E-12
  -3.84499989E-02  -1.35460274E-12
  -3.84000018E-02  -1.54932631E-12
  -3.83500010E-02  -1.75675295E-12
  -3.83000001E-02  -1.97354004E-12
  -3.82499993E-02  -2.19716693E-12
  -3.81999984E-02  -2.42712577E-12
  -3.81500013E-02  -2.66568300E-12
  -3.81000005E-02  -2.91763315E-12
  -3.80499996E-02  -3.18876089E-12
  -3.79999988E-02  -3.48327617E-12
  -3.79500017E-02  -3.80107317E-12
  -3.79000008E-02  -4.13601098E-12
  -3.78500000E-02  -4.47622495E-12
  -3.77999991E-02  -4.80683071E-12
  -3.77499983E-02  -5.11431696E-12
  -3.77000012E-02  -5.39093379E-12
  -3.76500003E-02  -5.63697092E-12
  -3.75999995E-02  -5.85938633E-12
  -3.75499986E-02  -6.06677599E-12
  -3.75000015E-02  -6.26259634E-12
  -3.74500006E-02  -6.43983478E-12
  -3.73999998E-02  -6.58019689E-12
  -3.73499990E-02  -6.65912507E-12
  -3.73000018E-02  -6.65518465E-12
  -3.72500010E-02  -6.55986680E-12
  -3.72000001E-02  -6.38290983E-12
  -3.71499993E-02  -6.14956740E-12
  -3.70999984E-02  -5.88962473E-12
  -3.70500013E-02  -5.62201761E-12
  -3.70000005E-02  -5.34180339E-12
  -3.69499996E-02  -5.01629901E-12
  -3.68999988E-02  -4.59383920E-12
  -3.68500017E-02  -4.02303104E-12
  -3.68000008E-02  -3.27492677E-12
  -3.67500000E-02  -2.35804735E-12
  -3.66999991E-02  -1.31822797E-12
  -3.66499983E-02  -2.21566838E-13
  -3.66000012E-02   8.73378193E-13
  -3.65500003E-02   1.94213374E-12
  -3.64999995E-02   3.00680336E-12
  -3.64499986E-02   4.12698695E-12
  -3.64000015E-02   5.37111328E-12
  -3.63500006E-02   6.77979461E-12
  -3.62999998E-02   8.33797528E-12
  -3.62499990E-02   9.97031711E-12
  -3.62000018E-02   1.15647804E-11
  -3.61500010E-02   1.30163050E-11
  -3.61000001E-02   1.42719898E-11
  -3.60499993E-02   1.53565181E-11
  -3.59999985E-02   1.63638148E-11
  -3.59500013E-02   1.74156054E-11
  -3.59000005E-02   1.86033289E-11
  -3.58499996E-02   1.99390400E-11
  -3.57999988E-02   2.13389844E-11
  -3.57500017E-02   2.26501196E-11
  -3.57000008E-02   2.37105561E-11
  -3.56500000E-02   2.44183129E-11
  -3.55999991E-02   2.47767779E-11
  -3.55499983E-02   2.48938092E-11
  -3.55000012E-02   2.49314840E-11
  -3.54500003E-02   2.50267689E-11
  -3.53999995E-02   2.52187316E-11
  -3.53499986E-02   2.54175223E-11
  -3.53000015E-02   2.54330966E-11
  -3.52500007E-02   2.50546164E-11
  -3.51999998E-02   2.41469102E-11
  -3.51499990E-02   2.27199353E-11
  -3.51000018E-02   2.09368373E-11
  -3.50500010E-02   1.90523847E-11
  -3.50000001E-02   1.73054557E-11
  -3.49499993E-02   1.58122716E-11
  -3.48999985E-02   1.45098066E-11
  -3.48500013E-02   1.31787142E-11
  -3.48000005E-02   1.15398593E-11
  -3.47499996E-02   9.38370475E-12
  -3.46999988E-02   6.67417423E-12
  -3.46500017E-02   3.57713859E-12
  -3.46000008E-02   3.96348617E-13
  -3.45500000E-02  -2.55836975E-12
  -3.44999991E-02  -5.11298209E-12
  -3.44499983E-02  -7.31610605E-12
  -3.44000012E-02  -9.42769734E-12
  -3.43500003E-02  -1.18095082E-11
  -3.42999995E-02  -1.47623858E-11
  -3.42499986E-02  -1.83825333E-11
  -3.42000015E-02  -2.25036569E-11
  -3.41500007E-02  -2.67556411E-11
  -3.40999998E-02  -3.07180704E-11
  -3.40499990E-02  -3.41021621E-11
  -3.40000018E-02  -3.68790797E-11
  -3.39500010E-02  -3.92944045E-11
  -3.39000002E-02  -4.17587319E-11
  -3.38499993E-02  -4.46607161E-11
  -3.37999985E-02  -4.81858546E-11
  -3.37500013E-02  -5.22241972E-11
  -3.37000005E-02  -5.64121493E-11
  -3.36499996E-02  -6.02935410E-11
  -3.35999988E-02  -6.35295358E-11
  -3.35500017E-02  -6.60617047E-11
  -3.35000008E-02  -6.81508808E-11
  -3.34500000E-02  -7.02688255E-11
  -3.33999991E-02  -7.28872587E-11
  -3.33499983E-02  -7.62574379E-11
  -3.33000012E-02  -8.02804490E-11
  -3.32500003E-02  -8.45298762E-11
  -3.31999995E-02  -8.84205070E-11
  -3.31499986E-02  -9.14509232E-11
  -3.31000015E-02  -9.34123681E-11
  -3.30500007E-02  -9.44693559E-11
  -3.29999998E-02  -9.50731369E-11
  -3.29499990E-02  -9.57441765E-11
  -3.29000019E-02  -9.68201908E-11
  -3.28500010E-02  -9.82841447E-11
  -3.28000002E-02  -9.97521440E-11
  -3.27499993E-02  -1.00629373E-10
  -3.26999985E-02  -1.00365688E-10
  -3.26500013E-02  -9.86958640E-11
  -3.26000005E-02  -9.57549179E-11
  -3.25499997E-02  -9.20144377E-11
  -3.24999988E-02  -8.80652218E-11
  -3.24500017E-02  -8.43413187E-11
  -3.24000008E-02  -8.09084813E-11
  -3.23500000E-02  -7.74125208E-11
  -3.22999991E-02  -7.32130329E-11
  -3.22499983E-02  -6.76451256E-11
  -3.22000012E-02  -6.02937283E-11
  -3.21500003E-02  -5.11591672E-11
  -3.20999995E-02  -4.06412230E-11
  -3.20499986E-02  -2.93507163E-11
  -3.20000015E-02  -1.78347927E-11
  -3.19500007E-02  -6.33941641E-12
  -3.18999998E-02   5.28484244E-12
  -3.18499990E-02   1.74931961E-11
  -3.18000019E-02   3.08147709E-11
  -3.17500010E-02   4.55837208E-11
  -3.17000002E-02   6.17545459E-11
  -3.16499993E-02   7.88847598E-11
  -3.15999985E-02   9.62926891E-11
  -3.15500014E-02   1.13318792E-10
  -3.15000005E-02   1.29573671E-10
  -3.14499997E-02   1.45062698E-10
  -3.13999988E-02   1.60134309E-10
  -3.13500017E-02   1.75277987E-10
  -3.13000008E-02   1.90863700E-10
  -3.12500000E-02   2.06938258E-10
  -3.11999992E-02   2.23165736E-10
  -3.11500002E-02   2.38933817E-10
  -3.10999993E-02   2.53574495E-10
  -3.10500003E-02   2.66598799E-10
  -3.09999995E-02   2.77842499E-10
  -3.09500005E-02   2.87461527E-10
  -3.08999997E-02   2.95785674E-10
  -3.08500007E-02   3.03100656E-10
  -3.07999998E-02   3.09458154E-10
  -3.07500008E-02   3.14596488E-10
  -3.07000000E-02   3.18002180E-10
  -3.06499992E-02   3.19080345E-10
  -3.06000002E-02   3.17356363E-10
  -3.05499993E-02   3.12622872E-10
  -3.05000003E-02   3.04974407E-10
  -3.04499995E-02   2.94723773E-10
  -3.04000005E-02   2.82244117E-10
  -3.03499997E-02   2.67808331E-10
  -3.03000007E-02   2.51491411E-10
  -3.02499998E-02   2.33168596E-10
  -3.02000009E-02   2.12597509E-10
  -3.01500000E-02   1.89538996E-10
  -3.00999992E-02   1.63861938E-10
  -3.00500002E-02   1.35591302E-10
  -2.99999993E-02   1.04891616E-10
  -2.99500003E-02   7.20036530E-11
  -2.98999995E-02   3.71687299E-11
  -2.98500005E-02   5.71732440E-13
  -2.97999997E-02  -3.76818091E-11
  -2.97500007E-02  -7.75562461E-11
  -2.96999998E-02  -1.19057625E-10
  -2.96500009E-02  -1.62199670E-10
  -2.96000000E-02  -2.06969386E-10
  -2.95499992E-02  -2.53293331E-10
  -2.95000002E-02  -3.01002834E-10
  -2.94499993E-02  -3.49805296E-10
  -2.94000003E-02  -3.99277084E-10
  -2.93499995E-02  -4.48895171E-10
  -2.93000005E-02  -4.98113772E-10
  -2.92499997E-02  -5.46469592E-10
  -2.92000007E-02  -5.93678051E-10
  -2.91499998E-02  -6.39672038E-10
  -2.91000009E-02  -6.84552803E-10
  -2.90500000E-02  -7.28456073E-10
  -2.89999992E-02  -7.71380182E-10
  -2.89500002E-02  -8.13051904E-10
  -2.88999993E-02  -8.52899751E-10
  -2.88500004E-02  -8.90165774E-10
  -2.87999995E-02  -9.24122112E-10
  -2.87500005E-02  -9.54304968E-10
  -2.86999997E-02  -9.80653003E-10
  -2.86500007E-02  -1.00346953E-09
  -2.85999998E-02  -1.02319853E-09
  -2.85500009E-02  -1.04009767E-09
  -2.85000000E-02  -1.05394826E-09
  -2.84499992E-02  -1.06394771E-09
  -2.84000002E-02  -1.06885945E-09
  -2.83499993E-02  -1.06738429E-09
  -2.83000004E-02  -1.05860865E-09
  -2.82499995E-02  -1.04233089E-09
  -2.82000005E-02  -1.01910769E-09
  -2.81499997E-02  -9.89970772E-10
  -2.81000007E-02  -9.55915347E-10
  -2.80499998E-02  -9.17375675E-10
  -2.80000009E-02  -8.73926431E-10
  -2.79500000E-02  -8.24367796E-10
  -2.78999992E-02  -7.67186870E-10
  -2.78500002E-02  -7.01212033E-10
  -2.77999993E-02  -6.26172780E-10
  -2.77500004E-02  -5.42899503E-10
  -2.76999995E-02  -4.53040327E-10
  -2.76500005E-02  -3.58390789E-10
  -2.75999997E-02  -2.60118149E-10
  -2.75500007E-02  -1.58225516E-10
  -2.74999999E-02  -5.15261236E-11
  -2.74500009E-02   6.18245524E-11
  -2.74000000E-02   1.83440707E-10
  -2.73499992E-02   3.13840065E-10
  -2.73000002E-02   4.51991222E-10
  -2.72499993E-02   5.95513083E-10
  -2.72000004E-02   7.41467054E-10
  -2.71499995E-02   8.87422413E-10
  -2.71000005E-02   1.03231956E-09
  -2.70499997E-02   1.17672849E-09
  -2.70000007E-02   1.32234879E-09
  -2.69499999E-02   1.47093870E-09
  -2.69000009E-02   1.62313774E-09
  -2.68500000E-02   1.77770765E-09
  -2.67999992E-02   1.93157512E-09
  -2.67500002E-02   2.08069428E-09
  -2.66999993E-02   2.22138796E-09
  -2.66500004E-02   2.35158759E-09
  -2.65999995E-02   2.47138754E-09
  -2.65500005E-02   2.58263766E-09
  -2.64999997E-02   2.68770117E-09
  -2.64500007E-02   2.78790036E-09
  -2.63999999E-02   2.88234414E-09
  -2.63500009E-02   2.96769409E-09
  -2.63000000E-02   3.03901415E-09
  -2.62499992E-02   3.09137649E-09
  -2.62000002E-02   3.12153037E-09
  -2.61499994E-02   3.12888071E-09
  -2.61000004E-02   3.11529247E-09
  -2.60499995E-02   3.08377168E-09
  -2.60000005E-02   3.03655567E-09
  -2.59499997E-02   2.97347169E-09
  -2.59000007E-02   2.89130941E-09
  -2.58499999E-02   2.78456658E-09
  -2.58000009E-02   2.64727551E-09
  -2.57500000E-02   2.47513565E-09
  -2.56999992E-02   2.26701724E-09
  -2.56500002E-02   2.02509853E-09
  -2.55999994E-02   1.75355774E-09
  -2.55500004E-02   1.45631462E-09
  -2.54999995E-02   1.13483190E-09
  -2.54500005E-02   7.86960219E-10
  -2.53999997E-02   4.07383488E-10
  -2.53500007E-02  -1.04638138E-11
  -2.52999999E-02  -4.71832240E-10
  -2.52500009E-02  -9.78585324E-10
  -2.52000000E-02  -1.52857871E-09
  -2.51499992E-02  -2.11682294E-09
  -2.51000002E-02  -2.73796941E-09
  -2.50499994E-02  -3.38903283E-09
  -2.50000004E-02  -4.07112788E-09
  -2.49499995E-02  -4.78936846E-09
  -2.49000005E-02  -5.55095125E-09
  -2.48499997E-02  -6.36216191E-09
  -2.48000007E-02  -7.22566895E-09
  -2.47499999E-02  -8.13933010E-09
  -2.47000009E-02  -9.09708131E-09
  -2.46500000E-02  -1.00916235E-08
  -2.45999992E-02  -1.11176996E-08
  -2.45500002E-02  -1.21745662E-08
  -2.44999994E-02  -1.32664510E-08
  -2.44500004E-02  -1.44007650E-08
  -2.43999995E-02  -1.55848205E-08
  -2.43500005E-02  -1.68224492E-08
  -2.42999997E-02  -1.81121163E-08
  -2.42500007E-02  -1.94473770E-08
  -2.41999999E-02  -2.08195807E-08
  -2.41500009E-02  -2.22216663E-08
  -2.41000000E-02  -2.36513085E-08
  -2.40499992E-02  -2.51120600E-08
  -2.40000002E-02  -2.66117990E-08
  -2.39499994E-02  -2.81591870E-08
  -2.39000004E-02  -2.97596490E-08
  -2.38499995E-02  -3.14126645E-08
  -2.38000005E-02  -3.31116574E-08
  -2.37499997E-02  -3.48465896E-08
  -2.37000007E-02  -3.66082169E-08
  -2.36499999E-02  -3.83920593E-08
  -2.36000009E-02  -4.02003231E-08
  -2.35500000E-02  -4.20408774E-08
  -2.34999992E-02  -4.39236558E-08
  -2.34500002E-02  -4.58560123E-08
  -2.33999994E-02  -4.78392046E-08
  -2.33500004E-02  -4.98675270E-08
  -2.32999995E-02  -5.19306056E-08
  -2.32500006E-02  -5.40179350E-08
  -2.31999997E-02  -5.61235431E-08
  -2.31500007E-02  -5.82487942E-08
  -2.30999999E-02  -6.04019661E-08
  -2.30500009E-02  -6.25947010E-08
  -2.30000000E-02  -6.48368541E-08
  -2.29499992E-02  -6.71321274E-08
  -2.29000002E-02  -6.94763358E-08
  -2.28499994E-02  -7.18593256E-08
  -2.28000004E-02  -7.42695860E-08
  -2.27499995E-02  -7.66996777E-08
  -2.27000006E-02  -7.91499559E-08
  -2.26499997E-02  -8.16288406E-08
  -2.26000007E-02  -8.41496046E-08
  -2.25499999E-02  -8.67248104E-08
  -2.25000009E-02  -8.93611016E-08
  -2.24500000E-02  -9.20565881E-08
  -2.23999992E-02  -9.48021039E-08
  -2.23500002E-02  -9.75858470E-08
  -2.22999994E-02  -1.00399426E-07
  -2.22500004E-02  -1.03242513E-07
  -2.21999995E-02  -1.06124027E-07
  -2.21500006E-02  -1.09059243E-07
  -2.20999997E-02  -1.12064036E-07
  -2.20500007E-02  -1.15148822E-07
  -2.19999999E-02  -1.18314851E-07
  -2.19500009E-02  -1.21554692E-07
  -2.19000001E-02  -1.24856712E-07
  -2.18499992E-02  -1.28211525E-07
  -2.18000002E-02  -1.31617639E-07
  -2.17499994E-02  -1.35083553E-07
  -2.17000004E-02  -1.38625637E-07
  -2.16499995E-02  -1.42262138E-07
  -2.16000006E-02  -1.46006570E-07
  -2.15499997E-02  -1.49863098E-07
  -2.15000007E-02  -1.53826051E-07
  -2.14499999E-02  -1.57884031E-07
  -2.14000009E-02  -1.62026751E-07
  -2.13500001E-02  -1.66251453E-07
  -2.12999992E-02  -1.70566153E-07
  -2.12500002E-02  -1.74988116E-07
  -2.11999994E-02  -1.79538091E-07
  -2.11500004E-02  -1.84233087E-07
  -2.10999995E-02  -1.89080595E-07
  -2.10500006E-02  -1.94077231E-07
  -2.09999997E-02  -1.99212280E-07
  -2.09500007E-02  -2.04474588E-07
  -2.08999999E-02  -2.09859721E-07
  -2.08500009E-02  -2.15374271E-07
  -2.08000001E-02  -2.21035322E-07
  -2.07499992E-02  -2.26864870E-07
  -2.07000002E-02  -2.32882286E-07
  -2.06499994E-02  -2.39097830E-07
  -2.06000004E-02  -2.45510051E-07
  -2.05499995E-02  -2.52108691E-07
  -2.05000006E-02  -2.58881897E-07
  -2.04499997E-02  -2.65823729E-07
  -2.04000007E-02  -2.72939758E-07
  -2.03499999E-02  -2.80247178E-07
  -2.03000009E-02  -2.87769893E-07
  -2.02500001E-02  -2.95530413E-07
  -2.01999992E-02  -3.03542748E-07
  -2.01500002E-02  -3.11808350E-07
  -2.00999994E-02  -3.20318549E-07
  -2.00500004E-02  -3.29061123E-07
  -1.99999996E-02  -3.38028713E-07
  -1.99500006E-02  -3.47225125E-07
  -1.98999997E-02  -3.56666675E-07
  -1.98500007E-02  -3.66378003E-07
  -1.97999999E-02  -3.76383809E-07
  -1.97500009E-02  -3.86700890E-07
  -1.97000001E-02  -3.97333565E-07
  -1.96499992E-02  -4.08274843E-07
  -1.96000002E-02  -4.19512617E-07
  -1.95499994E-02  -4.31038728E-07
  -1.95000004E-02  -4.42855708E-07
  -1.94499996E-02  -4.54979556E-07
  -1.94000006E-02  -4.67436109E-07
  -1.93499997E-02  -4.80252822E-07
  -1.93000007E-02  -4.93450273E-07
  -1.92499999E-02  -5.07036418E-07
  -1.92000009E-02  -5.21006882E-07
  -1.91500001E-02  -5.35350523E-07
  -1.90999992E-02  -5.50058644E-07
  -1.90500002E-02  -5.65132950E-07
  -1.89999994E-02  -5.80588846E-07
  -1.89500004E-02  -5.96452821E-07
  -1.88999996E-02  -6.12754548E-07
  -1.88500006E-02  -6.29517729E-07
  -1.87999997E-02  -6.46753563E-07
  -1.87500007E-02  -6.64460174E-07
  -1.86999999E-02  -6.82627672E-07
  -1.86500009E-02  -7.01247245E-07
  -1.86000001E-02  -7.20319974E-07
  -1.85499992E-02  -7.39861150E-07
  -1.85000002E-02  -7.59898398E-07
  -1.84499994E-02  -7.80464006E-07
  -1.84000004E-02  -8.01585884E-07
  -1.83499996E-02  -8.23279777E-07
  -1.83000006E-02  -8.45547504E-07
  -1.82499997E-02  -8.68381846E-07
  -1.82000007E-02  -8.91774903E-07
  -1.81499999E-02  -9.15727981E-07
  -1.81000009E-02  -9.40256541E-07
  -1.80500001E-02  -9.65389290E-07
  -1.79999992E-02  -9.91161301E-07
  -1.79500002E-02  -1.01760429E-06
  -1.78999994E-02  -1.04473816E-06
  -1.78500004E-02  -1.07256835E-06
  -1.77999996E-02  -1.10108999E-06
  -1.77500006E-02  -1.13029591E-06
  -1.76999997E-02  -1.16018771E-06
  -1.76500008E-02  -1.19078084E-06
  -1.75999999E-02  -1.22210531E-06
  -1.75500009E-02  -1.25419922E-06
  -1.75000001E-02  -1.28709803E-06
  -1.74499992E-02  -1.32082698E-06
  -1.74000002E-02  -1.35539597E-06
  -1.73499994E-02  -1.39080362E-06
  -1.73000004E-02  -1.42704550E-06
  -1.72499996E-02  -1.46412447E-06
  -1.72000006E-02  -1.50205722E-06
  -1.71499997E-02  -1.54087547E-06
  -1.71000008E-02  -1.58061926E-06
  -1.70499999E-02  -1.62132812E-06
  -1.70000009E-02  -1.66303062E-06
  -1.69500001E-02  -1.70574003E-06
  -1.68999992E-02  -1.74945728E-06
  -1.68500002E-02  -1.79417896E-06
  -1.67999994E-02  -1.83990790E-06
  -1.67500004E-02  -1.88666058E-06
  -1.66999996E-02  -1.93446976E-06
  -1.66500006E-02  -1.98337807E-06
  -1.65999997E-02  -2.03342779E-06
  -1.65500008E-02  -2.08465258E-06
  -1.64999999E-02  -2.13707017E-06
  -1.64500009E-02  -2.19068534E-06
  -1.64000001E-02  -2.24549672E-06
  -1.63499992E-02  -2.30150908E-06
  -1.63000003E-02  -2.35873949E-06
  -1.62499994E-02  -2.41722228E-06
  -1.62000004E-02  -2.47700177E-06
  -1.61499996E-02  -2.53812368E-06
  -1.61000006E-02  -2.60062529E-06
  -1.60499997E-02  -2.66452776E-06
  -1.60000008E-02  -2.72983834E-06
  -1.59499999E-02  -2.79655751E-06
  -1.59000009E-02  -2.86469003E-06
  -1.58500001E-02  -2.93425410E-06
  -1.57999992E-02  -3.00528473E-06
  -1.57500003E-02  -3.07782875E-06
  -1.56999994E-02  -3.15193597E-06
  -1.56500004E-02  -3.22764890E-06
  -1.55999996E-02  -3.30499324E-06
  -1.55499997E-02  -3.38398127E-06
  -1.54999997E-02  -3.46461616E-06
  -1.54499998E-02  -3.54690542E-06
  -1.53999999E-02  -3.63086929E-06
  -1.53500000E-02  -3.71654460E-06
  -1.53000001E-02  -3.80398205E-06
  -1.52500002E-02  -3.89323577E-06
  -1.52000003E-02  -3.98435259E-06
  -1.51500003E-02  -4.07736343E-06
  -1.51000004E-02  -4.17228375E-06
  -1.50499996E-02  -4.26911947E-06
  -1.49999997E-02  -4.36788059E-06
  -1.49499997E-02  -4.46858712E-06
  -1.48999998E-02  -4.57127953E-06
  -1.48499999E-02  -4.67601194E-06
  -1.48000000E-02  -4.78284346E-06
  -1.47500001E-02  -4.89182639E-06
  -1.47000002E-02  -5.00299848E-06
  -1.46500003E-02  -5.11637973E-06
  -1.46000003E-02  -5.23198014E-06
  -1.45500004E-02  -5.34981154E-06
  -1.44999996E-02  -5.46989804E-06
  -1.44499997E-02  -5.59228374E-06
  -1.43999998E-02  -5.71702594E-06
  -1.43499998E-02  -5.84418922E-06
  -1.42999999E-02  -5.97383314E-06
  -1.42500000E-02  -6.10600046E-06
  -1.42000001E-02  -6.24071617E-06
  -1.41500002E-02  -6.37799531E-06
  -1.41000003E-02  -6.51785194E-06
  -1.40500003E-02  -6.66031337E-06
  -1.40000004E-02  -6.80542553E-06
  -1.39499996E-02  -6.95325070E-06
  -1.38999997E-02  -7.10385848E-06
  -1.38499998E-02  -7.25731297E-06
  -1.37999998E-02  -7.41366239E-06
  -1.37499999E-02  -7.57293810E-06
  -1.37000000E-02  -7.73515967E-06
  -1.36500001E-02  -7.90034483E-06
  -1.36000002E-02  -8.06852404E-06
  -1.35500003E-02  -8.23974824E-06
  -1.35000004E-02  -8.41408291E-06
  -1.34500004E-02  -8.59160536E-06
  -1.33999996E-02  -8.77238563E-06
  -1.33499997E-02  -8.95648009E-06
  -1.32999998E-02  -9.14392513E-06
  -1.32499998E-02  -9.33474166E-06
  -1.31999999E-02  -9.52895243E-06
  -1.31500000E-02  -9.72659109E-06
  -1.31000001E-02  -9.92770674E-06
  -1.30500002E-02  -1.01323722E-05
  -1.30000003E-02  -1.03406674E-05
  -1.29500004E-02  -1.05526669E-05
  -1.29000004E-02  -1.07684318E-05
  -1.28499996E-02  -1.09880039E-05
  -1.27999997E-02  -1.12114094E-05
  -1.27499998E-02  -1.14386721E-05
  -1.26999998E-02  -1.16698293E-05
  -1.26499999E-02  -1.19049337E-05
  -1.26000000E-02  -1.21440607E-05
  -1.25500001E-02  -1.23872951E-05
  -1.25000002E-02  -1.26347159E-05
  -1.24500003E-02  -1.28863885E-05
  -1.24000004E-02  -1.31423585E-05
  -1.23500004E-02  -1.34026559E-05
  -1.22999996E-02  -1.36673070E-05
  -1.22499997E-02  -1.39363474E-05
  -1.21999998E-02  -1.42098288E-05
  -1.21499998E-02  -1.44878250E-05
  -1.20999999E-02  -1.47704204E-05
  -1.20500000E-02  -1.50576961E-05
  -1.20000001E-02  -1.53497203E-05
  -1.19500002E-02  -1.56465394E-05
  -1.19000003E-02  -1.59481806E-05
  -1.18500004E-02  -1.62546748E-05
  -1.18000004E-02  -1.65660513E-05
  -1.17499996E-02  -1.68823663E-05
  -1.16999997E-02  -1.72036907E-05
  -1.16499998E-02  -1.75301084E-05
  -1.15999999E-02  -1.78617083E-05
  -1.15499999E-02  -1.81985615E-05
  -1.15000000E-02  -1.85407134E-05
  -1.14500001E-02  -1.88881968E-05
  -1.14000002E-02  -1.92410280E-05
  -1.13500003E-02  -1.95992416E-05
  -1.13000004E-02  -1.99628812E-05
  -1.12500004E-02  -2.03320105E-05
  -1.11999996E-02  -2.07067114E-05
  -1.11499997E-02  -2.10870694E-05
  -1.10999998E-02  -2.14731463E-05
  -1.10499999E-02  -2.18649875E-05
  -1.09999999E-02  -2.22626259E-05
  -1.09500000E-02  -2.26660741E-05
  -1.09000001E-02  -2.30753576E-05
  -1.08500002E-02  -2.34905219E-05
  -1.08000003E-02  -2.39116307E-05
  -1.07500004E-02  -2.43387622E-05
  -1.07000005E-02  -2.47719981E-05
  -1.06499996E-02  -2.52114041E-05
  -1.05999997E-02  -2.56570256E-05
  -1.05499998E-02  -2.61088826E-05
  -1.04999999E-02  -2.65669860E-05
  -1.04499999E-02  -2.70313467E-05
  -1.04000000E-02  -2.75019938E-05
  -1.03500001E-02  -2.79789765E-05
  -1.03000002E-02  -2.84623620E-05
  -1.02500003E-02  -2.89522231E-05
  -1.02000004E-02  -2.94486181E-05
  -1.01500005E-02  -2.99515814E-05
  -1.00999996E-02  -3.04611349E-05
  -1.00499997E-02  -3.09772768E-05
  -9.99999978E-03  -3.15000070E-05
  -9.94999986E-03  -3.20293402E-05
  -9.89999995E-03  -3.25653164E-05
  -9.85000003E-03  -3.31079864E-05
  -9.80000012E-03  -3.36574194E-05
  -9.75000020E-03  -3.42136664E-05
  -9.70000029E-03  -3.47767564E-05
  -9.65000037E-03  -3.53467040E-05
  -9.60000046E-03  -3.59234909E-05
  -9.54999961E-03  -3.65071028E-05
  -9.49999969E-03  -3.70975358E-05
  -9.44999978E-03  -3.76948119E-05
  -9.39999986E-03  -3.82989638E-05
  -9.34999995E-03  -3.89100387E-05
  -9.30000003E-03  -3.95280695E-05
  -9.25000012E-03  -4.01530779E-05
  -9.20000020E-03  -4.07850348E-05
  -9.15000029E-03  -4.14239148E-05
  -9.10000037E-03  -4.20696742E-05
  -9.05000046E-03  -4.27222913E-05
  -8.99999961E-03  -4.33817622E-05
  -8.94999970E-03  -4.40480981E-05
  -8.89999978E-03  -4.47213279E-05
  -8.84999987E-03  -4.54014771E-05
  -8.79999995E-03  -4.60885385E-05
  -8.75000004E-03  -4.67824793E-05
  -8.70000012E-03  -4.74832559E-05
  -8.65000021E-03  -4.81908028E-05
  -8.60000029E-03  -4.89050690E-05
  -8.55000038E-03  -4.96260218E-05
  -8.50000046E-03  -5.03536576E-05
  -8.44999962E-03  -5.10879690E-05
  -8.39999970E-03  -5.18289489E-05
  -8.34999979E-03  -5.25765681E-05
  -8.29999987E-03  -5.33307648E-05
  -8.24999996E-03  -5.40914480E-05
  -8.20000004E-03  -5.48585340E-05
  -8.15000013E-03  -5.56319283E-05
  -8.10000021E-03  -5.64115653E-05
  -8.05000030E-03  -5.71973942E-05
  -8.00000038E-03  -5.79893822E-05
  -7.95000046E-03  -5.87874856E-05
  -7.89999962E-03  -5.95916390E-05
  -7.84999970E-03  -6.04017550E-05
  -7.79999979E-03  -6.12177100E-05
  -7.74999987E-03  -6.20393985E-05
  -7.69999996E-03  -6.28666676E-05
  -7.65000004E-03  -6.36994300E-05
  -7.60000013E-03  -6.45375912E-05
  -7.55000021E-03  -6.53810785E-05
  -7.49999983E-03  -6.62298044E-05
  -7.44999992E-03  -6.70836744E-05
  -7.40000000E-03  -6.79425575E-05
  -7.35000009E-03  -6.88063083E-05
  -7.30000017E-03  -6.96747302E-05
  -7.24999979E-03  -7.05476632E-05
  -7.19999988E-03  -7.14249400E-05
  -7.14999996E-03  -7.23064222E-05
  -7.10000005E-03  -7.31919863E-05
  -7.05000013E-03  -7.40815012E-05
  -7.00000022E-03  -7.49748287E-05
  -6.94999984E-03  -7.58717797E-05
  -6.89999992E-03  -7.67721504E-05
  -6.85000001E-03  -7.76757224E-05
  -6.80000009E-03  -7.85822631E-05
  -6.75000018E-03  -7.94915613E-05
  -6.69999979E-03  -8.04034134E-05
  -6.64999988E-03  -8.13176375E-05
  -6.59999996E-03  -8.22340444E-05
  -6.55000005E-03  -8.31524230E-05
  -6.50000013E-03  -8.40725479E-05
  -6.45000022E-03  -8.49941571E-05
  -6.39999984E-03  -8.59169595E-05
  -6.34999992E-03  -8.68406933E-05
  -6.30000001E-03  -8.77650673E-05
  -6.25000009E-03  -8.86898488E-05
  -6.20000018E-03  -8.96147685E-05
  -6.14999980E-03  -9.05395791E-05
  -6.09999988E-03  -9.14640186E-05
  -6.04999997E-03  -9.23877815E-05
  -6.00000005E-03  -9.33105330E-05
  -5.95000014E-03  -9.42319530E-05
  -5.90000022E-03  -9.51516631E-05
  -5.84999984E-03  -9.60693287E-05
  -5.79999993E-03  -9.69846224E-05
  -5.75000001E-03  -9.78972166E-05
  -5.70000010E-03  -9.88067841E-05
  -5.65000018E-03  -9.97129682E-05
  -5.59999980E-03  -1.00615420E-04
  -5.54999989E-03  -1.01513710E-04
  -5.49999997E-03  -1.02407437E-04
  -5.45000006E-03  -1.03296174E-04
  -5.40000014E-03  -1.04179489E-04
  -5.35000023E-03  -1.05056977E-04
  -5.29999984E-03  -1.05928229E-04
  -5.24999993E-03  -1.06792853E-04
  -5.20000001E-03  -1.07650405E-04
  -5.15000010E-03  -1.08500455E-04
  -5.10000018E-03  -1.09342516E-04
  -5.04999980E-03  -1.10176094E-04
  -4.99999989E-03  -1.11000671E-04
  -4.94999997E-03  -1.11815752E-04
  -4.90000006E-03  -1.12620852E-04
  -4.85000014E-03  -1.13415445E-04
  -4.80000023E-03  -1.14199036E-04
  -4.74999985E-03  -1.14971132E-04
  -4.69999993E-03  -1.15731171E-04
  -4.65000002E-03  -1.16478586E-04
  -4.60000010E-03  -1.17212781E-04
  -4.55000019E-03  -1.17933152E-04
  -4.49999981E-03  -1.18639080E-04
  -4.44999989E-03  -1.19329969E-04
  -4.39999998E-03  -1.20005257E-04
  -4.35000006E-03  -1.20664336E-04
  -4.30000015E-03  -1.21306606E-04
  -4.25000023E-03  -1.21931407E-04
  -4.19999985E-03  -1.22538055E-04
  -4.14999994E-03  -1.23125894E-04
  -4.10000002E-03  -1.23694175E-04
  -4.05000011E-03  -1.24242259E-04
  -4.00000019E-03  -1.24769416E-04
  -3.94999981E-03  -1.25275023E-04
  -3.89999989E-03  -1.25758364E-04
  -3.84999998E-03  -1.26218700E-04
  -3.80000006E-03  -1.26655286E-04
  -3.74999992E-03  -1.27067353E-04
  -3.70000000E-03  -1.27454099E-04
  -3.65000009E-03  -1.27814725E-04
  -3.59999994E-03  -1.28148415E-04
  -3.55000002E-03  -1.28454398E-04
  -3.50000011E-03  -1.28731845E-04
  -3.44999996E-03  -1.28980013E-04
  -3.40000005E-03  -1.29198001E-04
  -3.34999990E-03  -1.29385007E-04
  -3.29999998E-03  -1.29540116E-04
  -3.25000007E-03  -1.29662381E-04
  -3.19999992E-03  -1.29750930E-04
  -3.15000000E-03  -1.29804845E-04
  -3.10000009E-03  -1.29823224E-04
  -3.04999994E-03  -1.29805194E-04
  -3.00000003E-03  -1.29749867E-04
  -2.95000011E-03  -1.29656284E-04
  -2.89999996E-03  -1.29523483E-04
  -2.85000005E-03  -1.29350476E-04
  -2.79999990E-03  -1.29136228E-04
  -2.74999999E-03  -1.28879707E-04
  -2.70000007E-03  -1.28579893E-04
  -2.64999992E-03  -1.28235784E-04
  -2.60000001E-03  -1.27846375E-04
  -2.55000009E-03  -1.27410691E-04
  -2.49999994E-03  -1.26927669E-04
  -2.45000003E-03  -1.26396262E-04
  -2.40000011E-03  -1.25815306E-04
  -2.34999997E-03  -1.25183680E-04
  -2.30000005E-03  -1.24500235E-04
  -2.24999990E-03  -1.23763792E-04
  -2.19999999E-03  -1.22973273E-04
  -2.15000007E-03  -1.22127589E-04
  -2.09999993E-03  -1.21225639E-04
  -2.05000001E-03  -1.20266275E-04
  -2.00000009E-03  -1.19248332E-04
  -1.94999995E-03  -1.18170581E-04
  -1.90000003E-03  -1.17031756E-04
  -1.85000000E-03  -1.15830619E-04
  -1.79999997E-03  -1.14565933E-04
  -1.75000005E-03  -1.13236470E-04
  -1.70000002E-03  -1.11841087E-04
  -1.64999999E-03  -1.10378576E-04
  -1.59999996E-03  -1.08847737E-04
  -1.55000004E-03  -1.07247295E-04
  -1.50000001E-03  -1.05575884E-04
  -1.44999998E-03  -1.03832164E-04
  -1.39999995E-03  -1.02014754E-04
  -1.35000004E-03  -1.00122335E-04
  -1.30000000E-03  -9.81536068E-05
  -1.24999997E-03  -9.61072874E-05
  -1.20000006E-03  -9.39821184E-05
  -1.15000003E-03  -9.17768048E-05
  -1.09999999E-03  -8.94899931E-05
  -1.04999996E-03  -8.71202647E-05
  -1.00000005E-03  -8.46661424E-05
  -9.50000016E-04  -8.21261783E-05
  -8.99999985E-04  -7.94989392E-05
  -8.50000011E-04  -7.67830570E-05
  -7.99999980E-04  -7.39772004E-05
  -7.50000007E-04  -7.10800523E-05
  -6.99999975E-04  -6.80902667E-05
  -6.50000002E-04  -6.50064540E-05
  -6.00000028E-04  -6.18271224E-05
  -5.49999997E-04  -5.85507478E-05
  -5.00000024E-04  -5.51757839E-05
  -4.49999992E-04  -5.17007247E-05
  -3.99999990E-04  -4.81241186E-05
  -3.49999988E-04  -4.44445541E-05
  -3.00000014E-04  -4.06607032E-05
  -2.50000012E-04  -3.67711655E-05
  -1.99999995E-04  -3.27744965E-05
  -1.50000007E-04  -2.86691738E-05
  -9.99999975E-05  -2.44536204E-05
  -4.99999987E-05  -2.01262355E-05
   0.00000000      -1.56854367E-05
   4.99999987E-05  -1.11297486E-05
   9.99999975E-05  -6.45773935E-06
   1.50000007E-04  -1.66799100E-06
   1.99999995E-04   3.24084954E-06
   2.50000012E-04   8.27024996E-06
   3.00000014E-04   1.34217007E-05
   3.49999988E-04   1.86968282E-05
   3.99999990E-04   2.40972586E-05
   4.49999992E-04   2.96245835E-05
   5.00000024E-04   3.52803254E-05
   5.49999997E-04   4.10659086E-05
   6.00000028E-04   4.69827355E-05
   6.50000002E-04   5.30321231E-05
   6.99999975E-04   5.92155011E-05
   7.50000007E-04   6.55343683E-05
   7.99999980E-04   7.19902673E-05
   8.50000011E-04   7.85848242E-05
   8.99999985E-04   8.53196543E-05
   9.50000016E-04   9.21963147E-05
   1.00000005E-03   9.92162386E-05
   1.04999996E-03   1.06380743E-04
   1.09999999E-03   1.13691160E-04
   1.15000003E-03   1.21148798E-04
   1.20000006E-03   1.28755069E-04
   1.24999997E-03   1.36511473E-04
   1.30000000E-03   1.44419595E-04
   1.35000004E-03   1.52481065E-04
   1.39999995E-03   1.60697309E-04
   1.44999998E-03   1.69069725E-04
   1.50000001E-03   1.77599562E-04
   1.55000004E-03   1.86288045E-04
   1.59999996E-03   1.95136367E-04
   1.64999999E-03   2.04145836E-04
   1.70000002E-03   2.13317864E-04
   1.75000005E-03   2.22653936E-04
   1.79999997E-03   2.32155551E-04
   1.85000000E-03   2.41824077E-04
   1.90000003E-03   2.51660793E-04
   1.94999995E-03   2.61666777E-04
   2.00000009E-03   2.71843193E-04
   2.05000001E-03   2.82191148E-04
   2.09999993E-03   2.92711746E-04
   2.15000007E-03   3.03406239E-04
   2.19999999E-03   3.14275967E-04
   2.24999990E-03   3.25322238E-04
   2.30000005E-03   3.36546364E-04
   2.34999997E-03   3.47949419E-04
   2.40000011E-03   3.59532423E-04
   2.45000003E-03   3.71296221E-04
   2.49999994E-03   3.83241684E-04
   2.55000009E-03   3.95369920E-04
   2.60000001E-03   4.07681830E-04
   2.64999992E-03   4.20178520E-04
   2.70000007E-03   4.32861154E-04
   2.74999999E-03   4.45730810E-04
   2.79999990E-03   4.58788447E-04