  -3.99999991E-02   0.00000000    
  -3.99499983E-02   0.00000000    
  -3.99000011E-02   0.00000000    
  -3.98500003E-02   0.00000000    
  -3.97999994E-02   4.59712450E-19
  -3.97499986E-02   4.06805978E-18
  -3.97000015E-02   1.82388114E-17
  -3.96500006E-02   5.45068944E-17
  -3.95999998E-02   1.19037683E-16
  -3.95499989E-02   1.92082945E-16
  -3.95000018E-02   2.04644113E-16
  -3.94500010E-02   3.25497225E-17
  -3.94000001E-02  -4.69088805E-16
  -3.93499993E-02  -1.38399583E-15
  -3.92999984E-02  -2.63211592E-15
  -3.92500013E-02  -3.90795294E-15
  -3.92000005E-02  -4.73023982E-15
  -3.91499996E-02  -4.63355355E-15
  -3.90999988E-02  -3.44838188E-15
  -3.90500017E-02  -1.52862363E-15
  -3.90000008E-02   2.42967616E-16
  -3.89500000E-02   7.65114909E-16
  -3.88999991E-02  -7.28906262E-16
  -3.88499983E-02  -4.12483488E-15
  -3.88000011E-02  -8.21127546E-15
  -3.87500003E-02  -1.10152044E-14
  -3.86999995E-02  -1.06497410E-14
  -3.86499986E-02  -6.33119816E-15
  -3.86000015E-02   9.60892704E-16
  -3.85500006E-02   8.63967338E-15
  -3.84999998E-02   1.36011731E-14
  -3.84499989E-02   1.38753500E-14
  -3.84000018E-02   1.00590600E-14
  -3.83500010E-02   5.68649852E-15
  -3.83000001E-02   6.09000807E-15
  -3.82499993E-02   1.60437375E-14
  -3.81999984E-02   3.72109468E-14
  -3.81500013E-02   6.67139412E-14
  -3.81000005E-02   9.77712716E-14
  -3.80499996E-02   1.22405910E-13
  -3.79999988E-02   1.35151357E-13
  -3.79500017E-02   1.36019857E-13
  -3.79000008E-02   1.31138224E-13
  -3.78500000E-02   1.30425984E-13
  -3.77999991E-02   1.43103506E-13
  -3.77499983E-02   1.73017335E-13
  -3.77000012E-02   2.16107771E-13
  -3.76500003E-02   2.61522574E-13
  -3.75999995E-02   2.96176197E-13
  -3.75499986E-02   3.10771970E-13
  -3.75000015E-02   3.04395967E-13
  -3.74500006E-02   2.85320541E-13
  -3.73999998E-02   2.67432642E-13
  -3.73499990E-02   2.63848080E-13
  -3.73000018E-02   2.80694142E-13
  -3.72500010E-02   3.14001700E-13
  -3.72000001E-02   3.51161889E-13
  -3.71499993E-02   3.76198611E-13
  -3.70999984E-02   3.76275861E-13
  -3.70500013E-02   3.46351474E-13
  -3.70000005E-02   2.89980008E-13
  -3.69499996E-02   2.16401848E-13
  -3.68999988E-02   1.36032095E-13
  -3.68500017E-02   5.70733510E-14
  -3.68000008E-02  -1.51623743E-14
  -3.67500000E-02  -7.68069012E-14
  -3.66999991E-02  -1.24143873E-13
  -3.66499983E-02  -1.54686932E-13
  -3.66000012E-02  -1.70870032E-13
  -3.65500003E-02  -1.83911805E-13
  -3.64999995E-02  -2.13924554E-13
  -3.64499986E-02  -2.83442540E-13
  -3.64000015E-02  -4.05211129E-13
  -3.63500006E-02  -5.69579269E-13
  -3.62999998E-02  -7.39450385E-13
  -3.62499990E-02  -8.59135083E-13
  -3.62000018E-02  -8.77201740E-13
  -3.61500010E-02  -7.74922715E-13
  -3.61000001E-02  -5.85722768E-13
  -3.60499993E-02  -3.91661069E-13
  -3.59999985E-02  -2.92092658E-13
  -3.59500013E-02  -3.54202995E-13
  -3.59000005E-02  -5.67997418E-13
  -3.58499996E-02  -8.31698696E-13
  -3.57999988E-02  -9.83230966E-13
  -3.57500017E-02  -8.72059911E-13
  -3.57000008E-02  -4.42416205E-13
  -3.56500000E-02   2.13984253E-13
  -3.55999991E-02   8.70921120E-13
  -3.55499983E-02   1.25448252E-12
  -3.55000012E-02   1.17448130E-12
  -3.54500003E-02   6.41216301E-13
  -3.53999995E-02  -9.67380337E-14
  -3.53499986E-02  -6.30098296E-13
  -3.53000015E-02  -5.65487761E-13
  -3.52500007E-02   2.69851036E-13
  -3.51999998E-02   1.69447410E-12
  -3.51499990E-02   3.19182875E-12
  -3.51000018E-02   4.10078612E-12
  -3.50500010E-02   3.91283794E-12
  -3.50000001E-02   2.54588061E-12
  -3.49499993E-02   4.53696705E-13
  -3.48999985E-02  -1.51119373E-12
  -3.48500013E-02  -2.45386220E-12
  -3.48000005E-02  -1.87093179E-12
  -3.47499996E-02   4.09832250E-14
  -3.46999988E-02   2.37496177E-12
  -3.46500017E-02   3.85241101E-12
  -3.46000008E-02   3.39572749E-12
  -3.45500000E-02   6.86822344E-13
  -3.44999991E-02  -3.56600123E-12
  -3.44499983E-02  -7.82612950E-12
  -3.44000012E-02  -1.03602240E-11
  -3.43500003E-02  -1.00539134E-11
  -3.42999995E-02  -7.03714084E-12
  -3.42499986E-02  -2.78690222E-12
  -3.42000015E-02   4.13346820E-13
  -3.41500007E-02   4.79059609E-13
  -3.40999998E-02  -3.43513824E-12
  -3.40499990E-02  -1.03632537E-11
  -3.40000018E-02  -1.77625380E-11
  -3.39500010E-02  -2.25424974E-11
  -3.39000002E-02  -2.24866115E-11
  -3.38499993E-02  -1.74240362E-11
  -3.37999985E-02  -9.55177864E-12
  -3.37500013E-02  -2.64836352E-12
  -3.37000005E-02  -4.27403691E-13
  -3.36499996E-02  -4.72638421E-12
  -3.35999988E-02  -1.43876577E-11
  -3.35500017E-02  -2.54536652E-11
  -3.35000008E-02  -3.27345789E-11
  -3.34500000E-02  -3.21501055E-11
  -3.33999991E-02  -2.28056237E-11
  -3.33499983E-02  -7.77442867E-12
  -3.33000012E-02   6.93272609E-12
  -3.32500003E-02   1.49144603E-11
  -3.31999995E-02   1.23853506E-11
  -3.31499986E-02   2.52708499E-13
  -3.31000015E-02  -1.58266282E-11
  -3.30500007E-02  -2.76460816E-11
  -3.29999998E-02  -2.80875184E-11
  -3.29499990E-02  -1.46092340E-11
  -3.29000019E-02   9.09264938E-12
  -3.28500010E-02   3.42212474E-11
  -3.28000002E-02   5.05477292E-11
  -3.27499993E-02   5.11124476E-11
  -3.26999985E-02   3.58231465E-11
  -3.26500013E-02   1.21363969E-11
  -3.26000005E-02  -7.77566379E-12
  -3.25499997E-02  -1.23567450E-11
  -3.24999988E-02   3.80072623E-12
  -3.24500017E-02   3.68234748E-11
  -3.24000008E-02   7.45256287E-11
  -3.23500000E-02   1.01386968E-10
  -3.22999991E-02   1.05544212E-10
  -3.22499983E-02   8.46700834E-11
  -3.22000012E-02   4.78681816E-11
  -3.21500003E-02   1.23468119E-11
  -3.20999995E-02  -4.00472277E-12
  -3.20499986E-02   9.01618277E-12
  -3.20000015E-02   4.84779265E-11
  -3.19500007E-02   9.85963811E-11
  -3.18999998E-02   1.37085912E-10
  -3.18499990E-02   1.45088663E-10
  -3.18000019E-02   1.16304043E-10
  -3.17500010E-02   6.09632692E-11
  -3.17000002E-02   2.36884210E-12
  -3.16499993E-02  -3.29688742E-11
  -3.15999985E-02  -2.74792081E-11
  -3.15500014E-02   1.85491778E-11
  -3.15000005E-02   8.57019247E-11
  -3.14499997E-02   1.43004983E-10
  -3.13999988E-02   1.61457236E-10
  -3.13500017E-02   1.27657607E-10
  -3.13000008E-02   5.11733711E-11
  -3.12500000E-02  -3.82460348E-11
  -3.11999992E-02  -1.03049035E-10
  -3.11500002E-02  -1.14777493E-10
  -3.10999993E-02  -6.79310080E-11
  -3.10500003E-02   1.58675122E-11
  -3.09999995E-02   9.60234878E-11
  -3.09500005E-02   1.30504912E-10
  -3.08999997E-02   9.52550122E-11
  -3.08500007E-02  -3.40703225E-12
  -3.07999998E-02  -1.29631542E-10
  -3.07500008E-02  -2.32629166E-10
  -3.07000000E-02  -2.69155559E-10
  -3.06499992E-02  -2.23987551E-10
  -3.06000002E-02  -1.18771840E-10
  -3.05499993E-02  -4.39264770E-12
  -3.05000003E-02   6.06690115E-11
  -3.04499995E-02   3.68667770E-11
  -3.04000005E-02  -7.69468378E-11
  -3.03499997E-02  -2.40562459E-10
  -3.03000007E-02  -3.88353960E-10
  -3.02499998E-02  -4.57920091E-10
  -3.02000009E-02  -4.18981988E-10
  -3.01500000E-02  -2.89216706E-10
  -3.00999992E-02  -1.28933766E-10
  -3.00500002E-02  -1.57807482E-11
  -2.99999993E-02  -9.94680987E-12
  -2.99500003E-02  -1.25332619E-10
  -2.98999995E-02  -3.20313664E-10
  -2.98500005E-02  -5.13492082E-10
  -2.97999997E-02  -6.18642693E-10
  -2.97500007E-02  -5.83895321E-10
  -2.96999998E-02  -4.17397339E-10
  -2.96500009E-02  -1.86910251E-10
  -2.96000000E-02   7.93687425E-12
  -2.95499992E-02   7.95337129E-11
  -2.95000002E-02  -6.91104465E-12
  -2.94499993E-02  -2.14517099E-10
  -2.94000003E-02  -4.47652387E-10
  -2.93499995E-02  -5.92422555E-10
  -2.93000005E-02  -5.67676739E-10
  -2.92499997E-02  -3.63760577E-10
  -2.92000007E-02  -5.06574331E-11
  -2.91499998E-02   2.49798959E-10
  -2.91000009E-02   4.16809559E-10
  -2.90500000E-02   3.85734861E-10
  -2.89999992E-02   1.80417445E-10
  -2.89500002E-02  -9.32017588E-11
  -2.88999993E-02  -2.91216440E-10
  -2.88500004E-02  -2.95413721E-10
  -2.87999995E-02  -6.84289361E-11
  -2.87500005E-02   3.25136362E-10
  -2.86999997E-02   7.42910844E-10
  -2.86500007E-02   1.02545705E-09
  -2.85999998E-02   1.06762910E-09
  -2.85500009E-02   8.68651706E-10
  -2.85000000E-02   5.37148437E-10
  -2.84499992E-02   2.46705101E-10
  -2.84000002E-02   1.59835895E-10
  -2.83499993E-02   3.53404223E-10
  -2.83000004E-02   7.79426745E-10
  -2.82499995E-02   1.28069044E-09
  -2.82000005E-02   1.65662417E-09
  -2.81499997E-02   1.75185932E-09
  -2.81000007E-02   1.52836677E-09
  -2.80499998E-02   1.08773712E-09
  -2.80000009E-02   6.31257879E-10
  -2.79500000E-02   3.73075099E-10
  -2.78999992E-02   4.43649562E-10
  -2.78500002E-02   8.26759050E-10
  -2.77999993E-02   1.36002165E-09
  -2.77500004E-02   1.80149295E-09
  -2.76999995E-02   1.93512850E-09
  -2.76500005E-02   1.66916114E-09
  -2.75999997E-02   1.08266685E-09
  -2.75500007E-02   3.97085337E-10
  -2.74999999E-02  -1.17646851E-10
  -2.74500009E-02  -2.62760425E-10
  -2.74000000E-02  -3.22040116E-12
  -2.73499992E-02   5.09690123E-10
  -2.73000002E-02   9.98872207E-10
  -2.72499993E-02   1.18118904E-09
  -2.72000004E-02   8.95002517E-10
  -2.71499995E-02   1.78341925E-10
  -2.71000005E-02  -7.39527939E-10
  -2.70499997E-02  -1.53287671E-09
  -2.70000007E-02  -1.92148275E-09
  -2.69499999E-02  -1.79784543E-09
  -2.69000009E-02  -1.28183031E-09
  -2.68500000E-02  -6.75282164E-10
  -2.67999992E-02  -3.33030964E-10
  -2.67500002E-02  -5.04972897E-10
  -2.66999993E-02  -1.21906296E-09
  -2.66500004E-02  -2.25939734E-09
  -2.65999995E-02  -3.25295368E-09
  -2.65500005E-02  -3.83024679E-09
  -2.64999997E-02  -3.79060383E-09
  -2.64500007E-02  -3.19802229E-09
  -2.63999999E-02  -2.36189179E-09
  -2.63500009E-02  -1.70681314E-09
  -2.63000000E-02  -1.58571023E-09
  -2.62499992E-02  -2.11794671E-09
  -2.62000002E-02  -3.12605497E-09
  -2.61499994E-02  -4.20322532E-09
  -2.61000004E-02  -4.88624075E-09
  -2.60499995E-02  -4.86028862E-09
  -2.60000005E-02  -4.10503631E-09
  -2.59499997E-02  -2.91428370E-09
  -2.59000007E-02  -1.77569248E-09
  -2.58499999E-02  -1.15929866E-09
  -2.58000009E-02  -1.30620703E-09
  -2.57500000E-02  -2.11214068E-09
  -2.56999992E-02  -3.16149107E-09
  -2.56500002E-02  -3.90211197E-09
  -2.55999994E-02  -3.88769283E-09
  -2.55500004E-02  -2.98163627E-09
  -2.54999995E-02  -1.42973766E-09
  -2.54500005E-02   2.35578279E-10
  -2.53999997E-02   1.42264089E-09
  -2.53500007E-02   1.74246817E-09
  -2.52999999E-02   1.18925658E-09
  -2.52500009E-02   1.55770119E-10
  -2.52000000E-02  -7.29065530E-10
  -2.51499992E-02  -8.73951189E-10
  -2.51000002E-02   8.19098001E-12
  -2.50499994E-02   1.76030202E-09
  -2.50000004E-02   3.83491194E-09
  -2.49499995E-02   5.52413715E-09
  -2.49000005E-02   6.26913943E-09
  -2.48499997E-02   5.91338445E-09
  -2.48000007E-02   4.78453588E-09
  -2.47499999E-02   3.56261243E-09
  -2.47000009E-02   2.98617131E-09
  -2.46500000E-02   3.52247276E-09
  -2.45999992E-02   5.14791765E-09
  -2.45500002E-02   7.34060412E-09
  -2.44999994E-02   9.29538135E-09
  -2.44500004E-02   1.02726174E-08
  -2.43999995E-02   9.92917837E-09
  -2.43500005E-02   8.48313064E-09
  -2.42999997E-02   6.63312116E-09
  -2.42500007E-02   5.26053245E-09
  -2.41999999E-02   5.04050490E-09
  -2.41500009E-02   6.13270235E-09
  -2.41000000E-02   8.09255507E-09
  -2.40499992E-02   1.00496305E-08
  -2.40000002E-02   1.10819034E-08
  -2.39499994E-02   1.06248876E-08
  -2.39000004E-02   8.73396289E-09
  -2.38499995E-02   6.07820017E-09
  -2.38000005E-02   3.66011554E-09
  -2.37499997E-02   2.37810505E-09
  -2.37000007E-02   2.62216204E-09
  -2.36499999E-02   4.08444478E-09
  -2.36000009E-02   5.87577942E-09
  -2.35500000E-02   6.90532742E-09
  -2.34999992E-02   6.36180930E-09
  -2.34500002E-02   4.08451450E-09
  -2.33999994E-02   6.55274113E-10
  -2.33500004E-02  -2.83783685E-09
  -2.32999995E-02  -5.26917354E-09
  -2.32500006E-02  -5.97420335E-09
  -2.31999997E-02  -5.05657294E-09
  -2.31500007E-02  -3.36113937E-09
  -2.30999999E-02  -2.11557505E-09
  -2.30500009E-02  -2.39111353E-09
  -2.30000000E-02  -4.61790828E-09
  -2.29499992E-02  -8.37267766E-09
  -2.29000002E-02  -1.25408093E-08
  -2.28499994E-02  -1.57908673E-08
  -2.28000004E-02  -1.71583689E-08
  -2.27499995E-02  -1.64814988E-08
  -2.27000006E-02  -1.44905670E-08
  -2.26499997E-02  -1.25020954E-08
  -2.26000007E-02  -1.18435430E-08
  -2.25499999E-02  -1.32580054E-08
  -2.25000009E-02  -1.65537255E-08
  -2.24500000E-02  -2.06609148E-08
  -2.23999992E-02  -2.40810696E-08
  -2.23500002E-02  -2.55385970E-08
  -2.22999994E-02  -2.45495784E-08
  -2.22500004E-02  -2.16523866E-08
  -2.21999995E-02  -1.81890822E-08
  -2.21500006E-02  -1.57238986E-08
  -2.20999997E-02  -1.53489275E-08
  -2.20500007E-02  -1.71834333E-08
  -2.19999999E-02  -2.02943991E-08
  -2.19500009E-02  -2.30836719E-08
  -2.19000001E-02  -2.39805473E-08
  -2.18499992E-02  -2.21387797E-08
  -2.18000002E-02  -1.78280146E-08
  -2.17499994E-02  -1.23384902E-08
  -2.17000004E-02  -7.43028217E-09
  -2.16499995E-02  -4.56166971E-09
  -2.16000006E-02  -4.23477120E-09
  -2.15499997E-02  -5.75191139E-09
  -2.15000007E-02  -7.50015072E-09
  -2.14499999E-02  -7.64907515E-09
  -2.14000009E-02  -4.96077268E-09
  -2.13500001E-02   6.45376586E-10
  -2.12999992E-02   8.02909561E-09
  -2.12500002E-02   1.53055648E-08
  -2.11999994E-02   2.06613535E-08
  -2.11500004E-02   2.31547155E-08
  -2.10999995E-02   2.31446293E-08
  -2.10500006E-02   2.21506848E-08
  -2.09999997E-02   2.21946710E-08
  -2.09500007E-02   2.49057415E-08
  -2.08999999E-02   3.07815284E-08
  -2.08500009E-02   3.89360011E-08
  -2.08000001E-02   4.74552344E-08
  -2.07499992E-02   5.42151071E-08
  -2.07000002E-02   5.78069894E-08
  -2.06499994E-02   5.81632520E-08
  -2.06000004E-02   5.65998270E-08
  -2.05499995E-02   5.52464066E-08
  -2.05000006E-02   5.61055913E-08
  -2.04499997E-02   6.01511161E-08
  -2.04000007E-02   6.68652191E-08
  -2.03499999E-02   7.44278168E-08
  -2.03000009E-02   8.04850657E-08
  -2.02500001E-02   8.31672509E-08
  -2.01999992E-02   8.19095902E-08
  -2.01500002E-02   7.77096290E-08
  -2.00999994E-02   7.26977518E-08
  -2.00500004E-02   6.91995439E-08
  -1.99999996E-02   6.86961670E-08
  -1.99500006E-02   7.11409811E-08
  -1.98999997E-02   7.49403029E-08
  -1.98500007E-02   7.76174645E-08
  -1.97999999E-02   7.68777610E-08
  -1.97500009E-02   7.16101809E-08
  -1.97000001E-02   6.23825684E-08
  -1.96499992E-02   5.12039087E-08
  -1.96000002E-02   4.06475493E-08
  -1.95499994E-02   3.27127054E-08
  -1.95000004E-02   2.79228587E-08
  -1.94499996E-02   2.50625920E-08
  -1.94000006E-02   2.16779039E-08
  -1.93499997E-02   1.51304373E-08
  -1.93000007E-02   3.74894116E-09
  -1.92499999E-02  -1.24287460E-08
  -1.92000009E-02  -3.16557660E-08
  -1.91500001E-02  -5.12286498E-08
  -1.90999992E-02  -6.86707153E-08
  -1.90500002E-02  -8.28310505E-08
  -1.89999994E-02  -9.44136787E-08
  -1.89500004E-02  -1.05696330E-07
  -1.88999996E-02  -1.19551757E-07
  -1.88500006E-02  -1.38193570E-07
  -1.87999997E-02  -1.62194894E-07
  -1.87500007E-02  -1.90215289E-07
  -1.86999999E-02  -2.19564797E-07
  -1.86500009E-02  -2.47367893E-07
  -1.86000001E-02  -2.71822188E-07
  -1.85499992E-02  -2.92999971E-07
  -1.85000002E-02  -3.12834260E-07
  -1.84499994E-02  -3.34286028E-07
  -1.84000004E-02  -3.60048205E-07
  -1.83499996E-02  -3.91351364E-07
  -1.83000006E-02  -4.27396998E-07
  -1.82499997E-02  -4.65674759E-07
  -1.82000007E-02  -5.03034983E-07
  -1.81499999E-02  -5.37053779E-07
  -1.81000009E-02  -5.67095015E-07
  -1.80500001E-02  -5.94598760E-07
  -1.79999992E-02  -6.22461528E-07
  -1.79500002E-02  -6.53769803E-07
  -1.78999994E-02  -6.90435058E-07
  -1.78500004E-02  -7.32329454E-07
  -1.77999996E-02  -7.77305559E-07
  -1.77500006E-02  -8.22102209E-07
  -1.76999997E-02  -8.63748028E-07
  -1.76500008E-02  -9.00853536E-07
  -1.75999999E-02  -9.34222612E-07
  -1.75500009E-02  -9.66509106E-07
  -1.75000001E-02  -1.00106024E-06
  -1.74499992E-02  -1.04044364E-06
  -1.74000002E-02  -1.08530116E-06
  -1.73499994E-02  -1.13403485E-06
  -1.73000004E-02  -1.18347293E-06
  -1.72499996E-02  -1.23023108E-06
  -1.72000006E-02  -1.27218198E-06
  -1.71499997E-02  -1.30938986E-06
  -1.71000008E-02  -1.34409584E-06
  -1.70499999E-02  -1.37975098E-06
  -1.70000009E-02  -1.41951125E-06
  -1.69500001E-02  -1.46484706E-06
  -1.68999992E-02  -1.51488234E-06
  -1.68500002E-02  -1.56675287E-06
  -1.67999994E-02  -1.61683886E-06
  -1.67500004E-02  -1.66234202E-06
  -1.66999996E-02  -1.70251781E-06
  -1.66500006E-02  -1.73902367E-06
  -1.65999997E-02  -1.77521838E-06
  -1.65500008E-02  -1.81471250E-06
  -1.64999999E-02  -1.85979945E-06
  -1.64500009E-02  -1.91044842E-06
  -1.64000001E-02  -1.96430892E-06
  -1.63499992E-02  -2.01772968E-06
  -1.63000003E-02  -2.06735672E-06
  -1.62499994E-02  -2.11161910E-06
  -1.62000004E-02  -2.15144973E-06
  -1.61499996E-02  -2.18991636E-06
  -1.61000006E-02  -2.23092252E-06
  -1.60499997E-02  -2.27752980E-06
  -1.60000008E-02  -2.33063747E-06
  -1.59499999E-02  -2.38859889E-06
  -1.59000009E-02  -2.44794660E-06
  -1.58500001E-02  -2.50492258E-06
  -1.57999992E-02  -2.55714713E-06
  -1.57500003E-02  -2.60469983E-06
  -1.56999994E-02  -2.65013819E-06
  -1.56500004E-02  -2.69743350E-06
  -1.55999996E-02  -2.75028583E-06
  -1.55499997E-02  -2.81054258E-06
  -1.54999997E-02  -2.87741295E-06
  -1.54499998E-02  -2.94783126E-06
  -1.53999999E-02  -3.01782416E-06
  -1.53500000E-02  -3.08427593E-06
  -1.53000001E-02  -3.14634053E-06
  -1.52500002E-02  -3.20587219E-06
  -1.52000003E-02  -3.26667941E-06
  -1.51500003E-02  -3.33292587E-06
  -1.51000004E-02  -3.40735892E-06
  -1.50499996E-02  -3.49015363E-06
  -1.49999997E-02  -3.57886779E-06
  -1.49499997E-02  -3.66953236E-06
  -1.48999998E-02  -3.75843251E-06
  -1.48499999E-02  -3.84377563E-06
  -1.48000000E-02  -3.92653510E-06
  -1.47500001E-02  -4.01009584E-06
  -1.47000002E-02  -4.09883796E-06
  -1.46500003E-02  -4.19629032E-06
  -1.46000003E-02  -4.30362797E-06
  -1.45500004E-02  -4.41919701E-06
  -1.44999996E-02  -4.53926759E-06
  -1.44499997E-02  -4.65970652E-06
  -1.43999998E-02  -4.77782669E-06
  -1.43499998E-02  -4.89361446E-06
  -1.42999999E-02  -5.00981287E-06
  -1.42500000E-02  -5.13078658E-06
  -1.42000001E-02  -5.26068425E-06
  -1.41500002E-02  -5.40167275E-06
  -1.41000003E-02  -5.55303177E-06
  -1.40500003E-02  -5.71150349E-06
  -1.40000004E-02  -5.87275372E-06
  -1.39499996E-02  -6.03331227E-06
  -1.38999997E-02  -6.19213779E-06
  -1.38499998E-02  -6.35112519E-06
  -1.37999998E-02  -6.51434766E-06
  -1.37499999E-02  -6.68634948E-06
  -1.37000000E-02  -6.87020292E-06
  -1.36500001E-02  -7.06620949E-06
  -1.36000002E-02  -7.27180486E-06
  -1.35500003E-02  -7.48270577E-06
  -1.35000004E-02  -7.69481358E-06
  -1.34500004E-02  -7.90605463E-06
  -1.33999996E-02  -8.11733662E-06
  -1.33499997E-02  -8.33222293E-06
  -1.32999998E-02  -8.55542385E-06
  -1.32499998E-02  -8.79079289E-06
  -1.31999999E-02  -9.03970795E-06
  -1.31500000E-02  -9.30049737E-06
  -1.31000001E-02  -9.56921394E-06
  -1.30500002E-02  -9.84139024E-06
  -1.30000003E-02  -1.01140222E-05
  -1.29500004E-02  -1.03869461E-05
  -1.29000004E-02  -1.06629741E-05
  -1.28499996E-02  -1.09467246E-05
  -1.27999997E-02  -1.12426533E-05
  -1.27499998E-02  -1.15531702E-05
  -1.26999998E-02  -1.18776361E-05
  -1.26499999E-02  -1.22126767E-05
  -1.26000000E-02  -1.25536999E-05
  -1.25500001E-02  -1.28969641E-05
  -1.25000002E-02  -1.32412642E-05
  -1.24500003E-02  -1.35885166E-05
  -1.24000004E-02  -1.39430103E-05
  -1.23500004E-02  -1.43096067E-05
  -1.22999996E-02  -1.46916691E-05
  -1.22499997E-02  -1.50896485E-05
  -1.21999998E-02  -1.55009602E-05
  -1.21499998E-02  -1.59211668E-05
  -1.20999999E-02  -1.63459645E-05
  -1.20500000E-02  -1.67731378E-05
  -1.20000001E-02  -1.72036489E-05
  -1.19500002E-02  -1.76412887E-05
  -1.19000003E-02  -1.80911175E-05
  -1.18500004E-02  -1.85573317E-05
  -1.18000004E-02  -1.90415412E-05
  -1.17499996E-02  -1.95421489E-05
  -1.16999997E-02  -2.00551331E-05
  -1.16499998E-02  -2.05758752E-05
  -1.15999999E-02  -2.11012903E-05
  -1.15499999E-02  -2.16312783E-05
  -1.15000000E-02  -2.21688260E-05
  -1.14500001E-02  -2.27188211E-05
  -1.14000002E-02  -2.32860093E-05
  -1.13500003E-02  -2.38730572E-05
  -1.13000004E-02  -2.44794428E-05
  -1.12500004E-02  -2.51018046E-05
  -1.11999996E-02  -2.57355514E-05
  -1.11499997E-02  -2.63770289E-05
  -1.10999998E-02  -2.70252094E-05
  -1.10499999E-02  -2.76822793E-05
  -1.09999999E-02  -2.83528771E-05
  -1.09500000E-02  -2.90421958E-05
  -1.09000001E-02  -2.97538809E-05
  -1.08500002E-02  -3.04885089E-05
  -1.08000003E-02  -3.12435186E-05
  -1.07500004E-02  -3.20144572E-05
  -1.07000005E-02  -3.27969465E-05
  -1.06499996E-02  -3.35888435E-05
  -1.05999997E-02  -3.43913562E-05
  -1.05499998E-02  -3.52085044E-05
  -1.04999999E-02  -3.60455633E-05
  -1.04499999E-02  -3.69069021E-05
  -1.04000000E-02  -3.77942379E-05
  -1.03500001E-02  -3.87059990E-05
  -1.03000002E-02  -3.96381693E-05
  -1.02500003E-02  -4.05863211E-05
  -1.02000004E-02  -4.15477334E-05
  -1.01500005E-02  -4.25227081E-05
  -1.00999996E-02  -4.35146030E-05
  -1.00499997E-02  -4.45286678E-05
  -9.99999978E-03  -4.55698755E-05
  -9.94999986E-03  -4.66408601E-05
  -9.89999995E-03  -4.77410249E-05
  -9.85000003E-03  -4.88669393E-05
  -9.80000012E-03  -5.00139940E-05
  -9.75000020E-03  -5.11787475E-05
  -9.70000029E-03  -5.23605813E-05
  -9.65000037E-03  -5.35620784E-05
  -9.60000046E-03  -5.47880991E-05
  -9.54999961E-03  -5.60437438E-05
  -9.49999969E-03  -5.73322686E-05
  -9.44999978E-03  -5.86537390E-05
  -9.39999986E-03  -6.00053500E-05
  -9.34999995E-03  -6.13828670E-05
  -9.30000003E-03  -6.27824338E-05
  -9.25000012E-03  -6.42026425E-05
  -9.20000020E-03  -6.56453994E-05
  -9.15000029E-03  -6.71152593E-05
  -9.10000037E-03  -6.86175918E-05
  -9.05000046E-03  -7.01565441E-05
  -8.99999961E-03  -7.17334624E-05
  -8.94999970E-03  -7.33464331E-05
  -8.89999978E-03  -7.49913961E-05
  -8.84999987E-03  -7.66643061E-05
  -8.79999995E-03  -7.83630967E-05
  -8.75000004E-03  -8.00887865E-05
  -8.70000012E-03  -8.18452390E-05
  -8.65000021E-03  -8.36376712E-05
  -8.60000029E-03  -8.54705140E-05
  -8.55000038E-03  -8.73457393E-05
  -8.50000046E-03  -8.92620301E-05
  -8.44999962E-03  -9.12155738E-05
  -8.39999970E-03  -9.32020048E-05
  -8.34999979E-03  -9.52185219E-05
  -8.29999987E-03  -9.72653215E-05
  -8.24999996E-03  -9.93458088E-05
  -8.20000004E-03  -1.01465157E-04
  -8.15000013E-03  -1.03628066E-04
  -8.10000021E-03  -1.05837229E-04
  -8.05000030E-03  -1.08092288E-04
  -8.00000038E-03  -1.10390247E-04
  -7.95000046E-03  -1.12727059E-04
  -7.89999962E-03  -1.15099821E-04
  -7.84999970E-03  -1.17508403E-04
  -7.79999979E-03  -1.19955650E-04
  -7.74999987E-03  -1.22446741E-04
  -7.69999996E-03  -1.24986895E-04
  -7.65000004E-03  -1.27579318E-04
  -7.60000013E-03  -1.30223998E-04
  -7.55000021E-03  -1.32918038E-04
  -7.49999983E-03  -1.35657130E-04
  -7.44999992E-03  -1.38437958E-04
  -7.40000000E-03  -1.41259850E-04
  -7.35000009E-03  -1.44125064E-04
  -7.30000017E-03  -1.47038299E-04
  -7.24999979E-03  -1.50004678E-04
  -7.19999988E-03  -1.53027315E-04
  -7.14999996E-03  -1.56106500E-04
  -7.10000005E-03  -1.59239891E-04
  -7.05000013E-03  -1.62423850E-04
  -7.00000022E-03  -1.65655307E-04
  -6.94999984E-03  -1.68933111E-04
  -6.89999992E-03  -1.72259621E-04
  -6.85000001E-03  -1.75639623E-04
  -6.80000009E-03  -1.79077877E-04
  -6.75000018E-03  -1.82578020E-04
  -6.69999979E-03  -1.86141231E-04
  -6.64999988E-03  -1.89765589E-04
  -6.59999996E-03  -1.93447093E-04
  -6.55000005E-03  -1.97182351E-04
  -6.50000013E-03  -2.00970710E-04
  -6.45000022E-03  -2.04814380E-04
  -6.39999984E-03  -2.08717596E-04
  -6.34999992E-03  -2.12685467E-04
  -6.30000001E-03  -2.16721513E-04
  -6.25000009E-03  -2.20826405E-04
  -6.20000018E-03  -2.24997537E-04
  -6.14999980E-03  -2.29230704E-04
  -6.09999988E-03  -2.33522675E-04
  -6.04999997E-03  -2.37872388E-04
  -6.00000005E-03  -2.42281574E-04
  -5.95000014E-03  -2.46754702E-04
  -5.90000022E-03  -2.51297111E-04
  -5.84999984E-03  -2.55912921E-04
  -5.79999993E-03  -2.60603178E-04
  -5.75000001E-03  -2.65365408E-04
  -5.70000010E-03  -2.70195509E-04
  -5.65000018E-03  -2.75089755E-04
  -5.59999980E-03  -2.80046370E-04
  -5.54999989E-03  -2.85067770E-04
  -5.49999997E-03  -2.90158787E-04
  -5.45000006E-03  -2.95324571E-04
  -5.40000014E-03  -3.00569751E-04
  -5.35000023E-03  -3.05895839E-04
  -5.29999984E-03  -3.11300682E-04
  -5.24999993E-03  -3.16778809E-04
  -5.20000001E-03  -3.22325126E-04
  -5.15000010E-03  -3.27937916E-04
  -5.10000018E-03  -3.33618314E-04
  -5.04999980E-03  -3.39370628E-04
  -4.99999989E-03  -3.45200766E-04
  -4.94999997E-03  -3.51113733E-04
  -4.90000006E-03  -3.57111247E-04
  -4.85000014E-03  -3.63190920E-04
  -4.80000023E-03  -3.69348418E-04
  -4.74999985E-03  -3.75578267E-04
  -4.69999993E-03  -3.81876103E-04
  -4.65000002E-03  -3.88242479E-04
  -4.60000010E-03  -3.94682545E-04
  -4.55000019E-03  -4.01203084E-04
  -4.49999981E-03  -4.07810032E-04
  -4.44999989E-03  -4.14505892E-04
  -4.39999998E-03  -4.21289093E-04
  -4.35000006E-03  -4.28153871E-04
  -4.30000015E-03  -4.35093156E-04
  -4.25000023E-03  -4.42102290E-04
  -4.19999985E-03  -4.49180807E-04
  -4.14999994E-03  -4.56333160E-04
  -4.10000002E-03  -4.63566306E-04
  -4.05000011E-03  -4.70886793E-04
  -4.00000019E-03  -4.78297996E-04
  -3.94999981E-03  -4.85798402E-04
  -3.89999989E-03  -4.93382569E-04
  -3.84999998E-03  -5.01042465E-04
  -3.80000006E-03  -5.08770754E-04
  -3.74999992E-03  -5.16565808E-04
  -3.70000000E-03  -5.24431001E-04
  -3.65000009E-03  -5.32373902E-04
  -3.59999994E-03  -5.40402543E-04
  -3.55000002E-03  -5.48521697E-04
  -3.50000011E-03  -5.56730549E-04
  -3.44999996E-03  -5.65022521E-04
  -3.40000005E-03  -5.73388301E-04
  -3.34999990E-03  -5.81819739E-04
  -3.29999998E-03  -5.90313459E-04
  -3.25000007E-03  -5.98873477E-04
  -3.19999992E-03  -6.07508526E-04
  -3.15000000E-03  -6.16226811E-04
  -3.10000009E-03  -6.25033688E-04
  -3.04999994E-03  -6.33929623E-04
  -3.00000003E-03  -6.42907340E-04
  -2.95000011E-03  -6.51955954E-04
  -2.89999996E-03  -6.61066442E-04
  -2.85000005E-03  -6.70232752E-04
  -2.79999990E-03  -6.79455174E-04
  -2.74999999E-03  -6.88742672E-04
  -2.70000007E-03  -6.98107237E-04
  -2.64999992E-03  -7.07555795E-04
  -2.60000001E-03  -7.17087474E-04
  -2.55000009E-03  -7.26696511E-04
  -2.49999994E-03  -7.36371381E-04
  -2.45000003E-03  -7.46099104E-04
  -2.40000011E-03  -7.55872868E-04
  -2.34999997E-03  -7.65691453E-04
  -2.30000005E-03  -7.75559631E-04
  -2.24999990E-03  -7.85490323E-04
  -2.19999999E-03  -7.95494590E-04
  -2.15000007E-03  -8.05575226E-04
  -2.09999993E-03  -8.15728388E-04
  -2.05000001E-03  -8.25943833E-04
  -2.00000009E-03  -8.36206484E-04
  -1.94999995E-03  -8.46503652E-04
  -1.90000003E-03  -8.56829633E-04
  -1.85000000E-03  -8.67187977E-04
  -1.79999997E-03  -8.77591199E-04
  -1.75000005E-03  -8.88054434E-04
  -1.70000002E-03  -8.98585247E-04
  -1.64999999E-03  -9.09178576E-04
  -1.59999996E-03  -9.19821672E-04
  -1.55000004E-03  -9.30497888E-04
  -1.50000001E-03  -9.41191800E-04
  -1.44999998E-03  -9.51895316E-04
  -1.39999995E-03  -9.62610415E-04
  -1.35000004E-03  -9.73348564E-04
  -1.30000000E-03  -9.84124257E-04
  -1.24999997E-03  -9.94946575E-04
  -1.20000006E-03  -1.00581429E-03
  -1.15000003E-03  -1.01671659E-03
  -1.09999999E-03  -1.02763833E-03
  -1.04999996E-03  -1.03856192E-03
  -1.00000005E-03  -1.04947342E-03
  -9.50000016E-04  -1.06037036E-03
  -8.99999985E-04  -1.07126299E-03
  -8.50000011E-04  -1.08216691E-03
  -7.99999980E-04  -1.09309435E-03
  -7.50000007E-04  -1.10404938E-03
  -6.99999975E-04  -1.11502327E-03
  -6.50000002E-04  -1.12599786E-03
  -6.00000028E-04  -1.13695196E-03
  -5.49999997E-04  -1.14786834E-03
  -5.00000024E-04  -1.15874154E-03
  -4.49999992E-04  -1.16957666E-03
  -3.99999990E-04  -1.18038699E-03
  -3.49999988E-04  -1.19118567E-03
  -3.00000014E-04  -1.20197923E-03
  -2.50000012E-04  -1.21276162E-03
  -1.99999995E-04  -1.22351747E-03
  -1.50000007E-04  -1.23422861E-03
  -9.99999975E-05  -1.24487688E-03
  -4.99999987E-05  -1.25545368E-03
   0.00000000      -1.26595865E-03
   4.99999987E-05  -1.27639796E-03
   9.99999975E-05  -1.28678256E-03
   1.50000007E-04  -1.29712489E-03
   1.99999995E-04  -1.30742858E-03
   2.50000012E-04  -1.31767895E-03
   3.00000014E-04  -1.32785470E-03
   3.49999988E-04  -1.33793370E-03
   3.99999990E-04  -1.34789757E-03
   4.49999992E-04  -1.35774235E-03
   5.00000024E-04  -1.36747782E-03
   5.49999997E-04  -1.37712073E-03
   6.00000028E-04  -1.38668227E-03
   6.50000002E-04  -1.39616278E-03
   6.99999975E-04  -1.40555133E-03
   7.50000007E-04  -1.41482684E-03
   7.99999980E-04  -1.42396311E-03
   8.50000011E-04  -1.43293815E-03
   8.99999985E-04  -1.44174544E-03
   9.50000016E-04  -1.45039114E-03
   1.00000005E-03  -1.45889015E-03
   1.04999996E-03  -1.46726158E-03
   1.09999999E-03  -1.47550926E-03
   1.15000003E-03  -1.48362271E-03
   1.20000006E-03  -1.49158074E-03
   1.24999997E-03  -1.49935065E-03
   1.30000000E-03  -1.50690263E-03
   1.35000004E-03  -1.51422434E-03
   1.39999995E-03  -1.52132346E-03
   1.44999998E-03  -1.52822142E-03
   1.50000001E-03  -1.53494114E-03
   1.55000004E-03  -1.54149358E-03
   1.59999996E-03  -1.54787186E-03
   1.64999999E-03  -1.55404559E-03
   1.70000002E-03  -1.55997637E-03
   1.75000005E-03  -1.56563136E-03
   1.79999997E-03  -1.57099287E-03
   1.85000000E-03  -1.57606602E-03
   1.90000003E-03  -1.58087106E-03
   1.94999995E-03  -1.58542930E-03
   2.00000009E-03  -1.58976077E-03
   2.05000001E-03  -1.59386778E-03
   2.09999993E-03  -1.59771810E-03
   2.15000007E-03  -1.60126504E-03
   2.19999999E-03  -1.60446984E-03
   2.24999990E-03  -1.60731212E-03
   2.30000005E-03  -1.60979340E-03
   2.34999997E-03  -1.61193183E-03
   2.40000011E-03  -1.61375944E-03
   2.45000003E-03  -1.61529751E-03
   2.49999994E-03  -1.61654514E-03
   2.55000009E-03  -1.61747343E-03
   2.60000001E-03  -1.61803630E-03
   2.64999992E-03  -1.61819009E-03
   2.70000007E-03  -1.61790813E-03
   2.74999999E-03  -1.61719718E-03
   2.79999990E-03  -1.61607959E-03