  -3.99999991E-02   0.00000000    
  -3.99499983E-02   0.00000000    
  -3.99000011E-02   0.00000000    
  -3.98500003E-02   1.88801209E-15
  -3.97999994E-02   1.43037861E-14
  -3.97499986E-02   5.63335694E-14
  -3.97000015E-02   1.55185787E-13
  -3.96500006E-02   3.40787755E-13
  -3.95999998E-02   6.47862731E-13
  -3.95499989E-02   1.12781876E-12
  -3.95000018E-02   1.85041349E-12
  -3.94500010E-02   2.86904333E-12
  -3.94000001E-02   4.15973549E-12
  -3.93499993E-02   5.59589744E-12
  -3.92999984E-02   7.01907759E-12
  -3.92500013E-02   8.38161918E-12
  -3.92000005E-02   9.84442475E-12
  -3.91499996E-02   1.17266362E-11
  -3.90999988E-02   1.43362839E-11
  -3.90500017E-02   1.78270003E-11
  -3.90000008E-02   2.21864020E-11
  -3.89500000E-02   2.73061070E-11
  -3.88999991E-02   3.30055948E-11
  -3.88499983E-02   3.89929027E-11
  -3.88000011E-02   4.49041151E-11
  -3.87500003E-02   5.05271484E-11
  -3.86999995E-02   5.60671023E-11
  -3.86499986E-02   6.21434570E-11
  -3.86000015E-02   6.93934424E-11
  -3.85500006E-02   7.79625323E-11
  -3.84999998E-02   8.73384420E-11
  -3.84499989E-02   9.66761601E-11
  -3.84000018E-02   1.05268766E-10
  -3.83500010E-02   1.12705213E-10
  -3.83000001E-02   1.18670629E-10
  -3.82499993E-02   1.22791596E-10
  -3.81999984E-02   1.24847743E-10
  -3.81500013E-02   1.25135680E-10
  -3.81000005E-02   1.24456681E-10
  -3.80499996E-02   1.23563465E-10
  -3.79999988E-02   1.22564542E-10
  -3.79500017E-02   1.20907881E-10
  -3.79000008E-02   1.17916302E-10
  -3.78500000E-02   1.13178945E-10
  -3.77999991E-02   1.06270777E-10
  -3.77499983E-02   9.61691282E-11
  -3.77000012E-02   8.12795456E-11
  -3.76500003E-02   6.03847597E-11
  -3.75999995E-02   3.36823520E-11
  -3.75499986E-02   2.73571096E-12
  -3.75000015E-02  -3.08481782E-11
  -3.74500006E-02  -6.68874678E-11
  -3.73999998E-02  -1.06948166E-10
  -3.73499990E-02  -1.53382834E-10
  -3.73000018E-02  -2.08070006E-10
  -3.72500010E-02  -2.71693196E-10
  -3.72000001E-02  -3.43378409E-10
  -3.71499993E-02  -4.20129848E-10
  -3.70999984E-02  -4.96410857E-10
  -3.70500013E-02  -5.65197000E-10
  -3.70000005E-02  -6.21162288E-10
  -3.69499996E-02  -6.64512279E-10
  -3.68999988E-02  -7.02514602E-10
  -3.68500017E-02  -7.46894324E-10
  -3.68000008E-02  -8.08279610E-10
  -3.67500000E-02  -8.91024310E-10
  -3.66999991E-02  -9.91143390E-10
  -3.66499983E-02  -1.09772003E-09
  -3.66000012E-02  -1.19647947E-09
  -3.65500003E-02  -1.27434008E-09
  -3.64999995E-02  -1.32426625E-09
  -3.64499986E-02  -1.34901312E-09
  -3.64000015E-02  -1.36113765E-09
  -3.63500006E-02  -1.37736411E-09
  -3.62999998E-02  -1.40893397E-09
  -3.62499990E-02  -1.45343215E-09
  -3.62000018E-02  -1.49380952E-09
  -3.61500010E-02  -1.50596047E-09
  -3.61000001E-02  -1.47055501E-09
  -3.60499993E-02  -1.38252032E-09
  -3.59999985E-02  -1.25380939E-09
  -3.59500013E-02  -1.10903264E-09
  -3.59000005E-02  -9.75996839E-10
  -3.58499996E-02  -8.73902117E-10
  -3.57999988E-02  -8.02857447E-10
  -3.57500017E-02  -7.39829698E-10
  -3.57000008E-02  -6.45562492E-10
  -3.56500000E-02  -4.82003104E-10
  -3.55999991E-02  -2.32400738E-10
  -3.55499983E-02   8.75118450E-11
  -3.55000012E-02   4.34824926E-10
  -3.54500003E-02   7.59175001E-10
  -3.53999995E-02   1.02657804E-09
  -3.53499986E-02   1.23581967E-09
  -3.53000015E-02   1.42063905E-09
  -3.52500007E-02   1.63734148E-09
  -3.51999998E-02   1.94201499E-09
  -3.51499990E-02   2.36472242E-09
  -3.51000018E-02   2.89095370E-09
  -3.50500010E-02   3.46084628E-09
  -3.50000001E-02   3.99070643E-09
  -3.49499993E-02   4.40957182E-09
  -3.48999985E-02   4.69301042E-09
  -3.48500013E-02   4.87560836E-09
  -3.48000005E-02   5.03472863E-09
  -3.47499996E-02   5.25375832E-09
  -3.46999988E-02   5.58287150E-09
  -3.46500017E-02   6.01477934E-09
  -3.46000008E-02   6.48479359E-09
  -3.45500000E-02   6.89504898E-09
  -3.44999991E-02   7.15474169E-09
  -3.44499983E-02   7.22141769E-09
  -3.44000012E-02   7.12457293E-09
  -3.43500003E-02   6.95682845E-09
  -3.42999995E-02   6.83210999E-09
  -3.42499986E-02   6.82907331E-09
  -3.42000015E-02   6.94871449E-09
  -3.41500007E-02   7.10895254E-09
  -3.40999998E-02   7.17929804E-09
  -3.40499990E-02   7.03811054E-09
  -3.40000018E-02   6.62558408E-09
  -3.39500010E-02   5.97014704E-09
  -3.39000002E-02   5.17784793E-09
  -3.38499993E-02   4.38785319E-09
  -3.37999985E-02   3.71016595E-09
  -3.37500013E-02   3.17103277E-09
  -3.37000005E-02   2.69301981E-09
  -3.36499996E-02   2.12473816E-09
  -3.35999988E-02   1.31090594E-09
  -3.35500017E-02   1.69850981E-10
  -3.35000008E-02  -1.26111177E-09
  -3.34500000E-02  -2.83606783E-09
  -3.33999991E-02  -4.36138370E-09
  -3.33499983E-02  -5.67796121E-09
  -3.33000012E-02  -6.72881928E-09
  -3.32500003E-02  -7.58482610E-09
  -3.31999995E-02  -8.41789749E-09
  -3.31499986E-02  -9.42988354E-09
  -3.31000015E-02  -1.07632969E-08
  -3.30500007E-02  -1.24314559E-08
  -3.29999998E-02  -1.43030601E-08
  -3.29499990E-02  -1.61538214E-08
  -3.29000019E-02  -1.77637283E-08
  -3.28500010E-02  -1.90129974E-08
  -3.28000002E-02  -1.99299244E-08
  -3.27499993E-02  -2.06692210E-08
  -3.26999985E-02  -2.14344364E-08
  -3.26500013E-02  -2.23817853E-08
  -3.26000005E-02  -2.35457662E-08
  -3.25499997E-02  -2.48156713E-08
  -3.24999988E-02  -2.59733710E-08
  -3.24500017E-02  -2.67804410E-08
  -3.24000008E-02  -2.70807554E-08
  -3.23500000E-02  -2.68722484E-08
  -3.22999991E-02  -2.63100937E-08
  -3.22499983E-02  -2.56350674E-08
  -3.22000012E-02  -2.50601175E-08
  -3.21500003E-02  -2.46712144E-08
  -3.20999995E-02  -2.43894327E-08
  -3.20499986E-02  -2.40080436E-08
  -3.20000015E-02  -2.32835831E-08
  -3.19500007E-02  -2.20396288E-08
  -3.18999998E-02  -2.02423660E-08
  -3.18499990E-02  -1.80188415E-08
  -3.18000019E-02  -1.56079007E-08
  -3.17500010E-02  -1.32589300E-08
  -3.17000002E-02  -1.11187051E-08
  -3.16499993E-02  -9.15962950E-09
  -3.15999985E-02  -7.18764825E-09
  -3.15500014E-02  -4.93003549E-09
  -3.15000005E-02  -2.16103690E-09
  -3.14499997E-02   1.19505073E-09
  -3.13999988E-02   5.02817787E-09
  -3.13500017E-02   9.08354192E-09
  -3.13000008E-02   1.30568658E-08
  -3.12500000E-02   1.67060978E-08
  -3.11999992E-02   1.99399377E-08
  -3.11500002E-02   2.28502461E-08
  -3.10999993E-02   2.56699835E-08
  -3.10500003E-02   2.86672428E-08
  -3.09999995E-02   3.20185194E-08
  -3.09500005E-02   3.57210155E-08
  -3.08999997E-02   3.95871567E-08
  -3.08500007E-02   4.33220499E-08
  -3.07999998E-02   4.66433292E-08
  -3.07500008E-02   4.93883334E-08
  -3.07000000E-02   5.15678984E-08
  -3.06499992E-02   5.33528315E-08
  -3.06000002E-02   5.50021220E-08
  -3.05499993E-02   5.67561926E-08
  -3.05000003E-02   5.87313203E-08
  -3.04499995E-02   6.08571682E-08
  -3.04000005E-02   6.28913241E-08
  -3.03499997E-02   6.45133653E-08
  -3.03000007E-02   6.54570087E-08
  -3.02499998E-02   6.56171792E-08
  -3.02000009E-02   6.50811742E-08
  -3.01500000E-02   6.40769287E-08
  -3.00999992E-02   6.28698160E-08
  -3.00500002E-02   6.16503470E-08
  -2.99999993E-02   6.04532886E-08
  -2.99500003E-02   5.91345639E-08
  -2.98999995E-02   5.74181520E-08
  -2.98500005E-02   5.50072343E-08
  -2.97999997E-02   5.17216243E-08
  -2.97500007E-02   4.75986148E-08
  -2.96999998E-02   4.29006519E-08
  -2.96500009E-02   3.80156600E-08
  -2.96000000E-02   3.32962458E-08
  -2.95499992E-02   2.89133482E-08
  -2.95000002E-02   2.47863436E-08
  -2.94499993E-02   2.06144843E-08
  -2.94000003E-02   1.59920344E-08
  -2.93499995E-02   1.05676170E-08
  -2.93000005E-02   4.19564694E-09
  -2.92499997E-02  -2.97953173E-09
  -2.92000007E-02  -1.05539755E-08
  -2.91499998E-02  -1.80154149E-08
  -2.91000009E-02  -2.49582826E-08
  -2.90500000E-02  -3.12622568E-08
  -2.89999992E-02  -3.71434545E-08
  -2.89500002E-02  -4.30518305E-08
  -2.88999993E-02  -4.94659567E-08
  -2.88500004E-02  -5.66774538E-08
  -2.87999995E-02  -6.46519709E-08
  -2.87500005E-02  -7.30168210E-08
  -2.86999997E-02  -8.11834013E-08
  -2.86500007E-02  -8.85683065E-08
  -2.85999998E-02  -9.48326786E-08
  -2.85500009E-02  -1.00036083E-07
  -2.85000000E-02  -1.04619730E-07
  -2.84499992E-02  -1.09210148E-07
  -2.84000002E-02  -1.14328806E-07
  -2.83499993E-02  -1.20144861E-07
  -2.83000004E-02  -1.26389679E-07
  -2.82499995E-02  -1.32467065E-07
  -2.82000005E-02  -1.37701548E-07
  -2.81499997E-02  -1.41614393E-07
  -2.81000007E-02  -1.44118914E-07
  -2.80499998E-02  -1.45558246E-07
  -2.80000009E-02  -1.46557056E-07
  -2.79500000E-02  -1.47737580E-07
  -2.78999992E-02  -1.49413069E-07
  -2.78500002E-02  -1.51404322E-07
  -2.77999993E-02  -1.53086035E-07
  -2.77500004E-02  -1.53652010E-07
  -2.76999995E-02  -1.52475678E-07
  -2.76500005E-02  -1.49393031E-07
  -2.75999997E-02  -1.44778554E-07
  -2.75500007E-02  -1.39385776E-07
  -2.74999999E-02  -1.34026195E-07
  -2.74500009E-02  -1.29222556E-07
  -2.74000000E-02  -1.24975330E-07
  -2.73499992E-02  -1.20741205E-07
  -2.73000002E-02  -1.15646031E-07
  -2.72499993E-02  -1.08863652E-07
  -2.72000004E-02  -1.00002978E-07
  -2.71499995E-02  -8.93132039E-08
  -2.71000005E-02  -7.75951250E-08
  -2.70499997E-02  -6.58553247E-08
  -2.70000007E-02  -5.48683055E-08
  -2.69499999E-02  -4.48494397E-08
  -2.69000009E-02  -3.53759546E-08
  -2.68500000E-02  -2.55750496E-08
  -2.67999992E-02  -1.44949182E-08
  -2.67500002E-02  -1.50987156E-09
  -2.66999993E-02   1.33986671E-08
  -2.66500004E-02   2.96052818E-08
  -2.65999995E-02   4.60816594E-08
  -2.65500005E-02   6.18256593E-08
  -2.64999997E-02   7.62872219E-08
  -2.64500007E-02   8.95844963E-08
  -2.63999999E-02   1.02409174E-07
  -2.63500009E-02   1.15673721E-07
  -2.63000000E-02   1.30078007E-07
  -2.62499992E-02   1.45797145E-07
  -2.62000002E-02   1.62406266E-07
  -2.61499994E-02   1.79053401E-07
  -2.61000004E-02   1.94807797E-07
  -2.60499995E-02   2.09046121E-07
  -2.60000005E-02   2.21718778E-07
  -2.59499997E-02   2.33373299E-07
  -2.59000007E-02   2.44909330E-07
  -2.58499999E-02   2.57159542E-07
  -2.58000009E-02   2.70492194E-07
  -2.57500000E-02   2.84636741E-07
  -2.56999992E-02   2.98803542E-07
  -2.56500002E-02   3.12025321E-07
  -2.55999994E-02   3.23547312E-07
  -2.55500004E-02   3.33108090E-07
  -2.54999995E-02   3.41014527E-07
  -2.54500005E-02   3.47992909E-07
  -2.53999997E-02   3.54872128E-07
  -2.53500007E-02   3.62212319E-07
  -2.52999999E-02   3.70036616E-07
  -2.52500009E-02   3.77785653E-07
  -2.52000000E-02   3.84533365E-07
  -2.51499992E-02   3.89380972E-07
  -2.51000002E-02   3.91835471E-07
  -2.50499994E-02   3.91999862E-07
  -2.50000004E-02   3.90509825E-07
  -2.49499995E-02   3.88265420E-07
  -2.49000005E-02   3.86081581E-07
  -2.48499997E-02   3.84384407E-07
  -2.48000007E-02   3.83044920E-07
  -2.47499999E-02   3.81404561E-07
  -2.47000009E-02   3.78497901E-07
  -2.46500000E-02   3.73409591E-07
  -2.45999992E-02   3.65623208E-07
  -2.45500002E-02   3.55208812E-07
  -2.44999994E-02   3.42764366E-07
  -2.44500004E-02   3.29133314E-07
  -2.43999995E-02   3.15040950E-07
  -2.43500005E-02   3.00808694E-07
  -2.42999997E-02   2.86234041E-07
  -2.42500007E-02   2.70654084E-07
  -2.41999999E-02   2.53164842E-07
  -2.41500009E-02   2.32942099E-07
  -2.41000000E-02   2.09560497E-07
  -2.40499992E-02   1.83184994E-07
  -2.40000002E-02   1.54521317E-07
  -2.39499994E-02   1.24514756E-07
  -2.39000004E-02   9.39289535E-08
  -2.38499995E-02   6.29972590E-08
  -2.38000005E-02   3.13087263E-08
  -2.37499997E-02  -2.03445683E-09
  -2.37000007E-02  -3.80761556E-08
  -2.36499999E-02  -7.76031968E-08
  -2.36000009E-02  -1.20823543E-07
  -2.35500000E-02  -1.67250036E-07
  -2.34999992E-02  -2.15860865E-07
  -2.34500002E-02  -2.65522658E-07
  -2.33999994E-02  -3.15520197E-07
  -2.33500004E-02  -3.65949973E-07
  -2.32999995E-02  -4.17753711E-07
  -2.32500006E-02  -4.72351957E-07
  -2.31999997E-02  -5.31037813E-07
  -2.31500007E-02  -5.94397534E-07
  -2.30999999E-02  -6.62014372E-07
  -2.30500009E-02  -7.32579679E-07
  -2.30000000E-02  -8.04381330E-07
  -2.29499992E-02  -8.75984881E-07
  -2.29000002E-02  -9.46856971E-07
  -2.28499994E-02  -1.01766329E-06
  -2.28000004E-02  -1.09006635E-06
  -2.27499995E-02  -1.16603212E-06
  -2.27000006E-02  -1.24694361E-06
  -2.26499997E-02  -1.33292599E-06
  -2.26000007E-02  -1.42270926E-06
  -2.25499999E-02  -1.51413269E-06
  -2.25000009E-02  -1.60505533E-06
  -2.24500000E-02  -1.69426005E-06
  -2.23999992E-02  -1.78198013E-06
  -2.23500002E-02  -1.86984846E-06
  -2.22999994E-02  -1.96023780E-06
  -2.22500004E-02  -2.05524202E-06
  -2.21999995E-02  -2.15570799E-06
  -2.21500006E-02  -2.26073735E-06
  -2.20999997E-02  -2.36796836E-06
  -2.20500007E-02  -2.47456001E-06
  -2.19999999E-02  -2.57840793E-06
  -2.19500009E-02  -2.67905034E-06
  -2.19000001E-02  -2.77784056E-06
  -2.18499992E-02  -2.87730609E-06
  -2.18000002E-02  -2.98000327E-06
  -2.17499994E-02  -3.08735457E-06
  -2.17000004E-02  -3.19894912E-06
  -2.16499995E-02  -3.31265164E-06
  -2.16000006E-02  -3.42547401E-06
  -2.15499997E-02  -3.53485962E-06
  -2.15000007E-02  -3.63985578E-06
  -2.14499999E-02  -3.74160754E-06
  -2.14000009E-02  -3.84287887E-06
  -2.13500001E-02  -3.94676226E-06
  -2.12999992E-02  -4.05518085E-06
  -2.12500002E-02  -4.16793773E-06
  -2.11999994E-02  -4.28273097E-06
  -2.11500004E-02  -4.39608493E-06
  -2.10999995E-02  -4.50481502E-06
  -2.10500006E-02  -4.60741148E-06
  -2.09999997E-02  -4.70476289E-06
  -2.09500007E-02  -4.79985329E-06
  -2.08999999E-02  -4.89651575E-06
  -2.08500009E-02  -4.99773887E-06
  -2.08000001E-02  -5.10430573E-06
  -2.07499992E-02  -5.21438915E-06
  -2.07000002E-02  -5.32435752E-06
  -2.06499994E-02  -5.43039778E-06
  -2.06000004E-02  -5.53023801E-06
  -2.05499995E-02  -5.62424020E-06
  -2.05000006E-02  -5.71530791E-06
  -2.04499997E-02  -5.80765754E-06
  -2.04000007E-02  -5.90506579E-06
  -2.03499999E-02  -6.00932208E-06
  -2.03000009E-02  -6.11945870E-06
  -2.02500001E-02  -6.23221922E-06
  -2.01999992E-02  -6.34353546E-06
  -2.01500002E-02  -6.45043474E-06
  -2.00999994E-02  -6.55246777E-06
  -2.00500004E-02  -6.65204334E-06
  -1.99999996E-02  -6.75348701E-06
  -1.99500006E-02  -6.86120438E-06
  -1.98999997E-02  -6.97788983E-06
  -1.98500007E-02  -7.10355880E-06
  -1.97999999E-02  -7.23573658E-06
  -1.97500009E-02  -7.37069877E-06
  -1.97000001E-02  -7.50541449E-06
  -1.96499992E-02  -7.63915250E-06
  -1.96000002E-02  -7.77394234E-06
  -1.95499994E-02  -7.91392449E-06
  -1.95000004E-02  -8.06378921E-06
  -1.94499996E-02  -8.22690072E-06
  -1.94000006E-02  -8.40402026E-06
  -1.93499997E-02  -8.59311695E-06
  -1.93000007E-02  -8.79050731E-06
  -1.92499999E-02  -8.99285624E-06
  -1.92000009E-02  -9.19882950E-06
  -1.91500001E-02  -9.40996324E-06
  -1.90999992E-02  -9.63034108E-06
  -1.90500002E-02  -9.86492614E-06
  -1.89999994E-02  -1.01175783E-05
  -1.89500004E-02  -1.03897100E-05
  -1.88999996E-02  -1.06799271E-05
  -1.88500006E-02  -1.09849052E-05
  -1.87999997E-02  -1.13009337E-05
  -1.87500007E-02  -1.16258234E-05
  -1.86999999E-02  -1.19601909E-05
  -1.86500009E-02  -1.23075106E-05
  -1.86000001E-02  -1.26729574E-05
  -1.85499992E-02  -1.30613253E-05
  -1.85000002E-02  -1.34751190E-05
  -1.84499994E-02  -1.39138883E-05
  -1.84000004E-02  -1.43746565E-05
  -1.83499996E-02  -1.48534709E-05
  -1.83000006E-02  -1.53473175E-05
  -1.82499997E-02  -1.58553357E-05
  -1.82000007E-02  -1.63794157E-05
  -1.81499999E-02  -1.69233826E-05
  -1.81000009E-02  -1.74915713E-05
  -1.80500001E-02  -1.80871684E-05
  -1.79999992E-02  -1.87108926E-05
  -1.79500002E-02  -1.93607466E-05
  -1.78999994E-02  -2.00331706E-05
  -1.78500004E-02  -2.07250487E-05
  -1.77999996E-02  -2.14351548E-05
  -1.77500006E-02  -2.21645423E-05
  -1.76999997E-02  -2.29160905E-05
  -1.76500008E-02  -2.36935321E-05
  -1.75999999E-02  -2.45001029E-05
  -1.75500009E-02  -2.53372491E-05
  -1.75000001E-02  -2.62038120E-05
  -1.74499992E-02  -2.70964811E-05
  -1.74000002E-02  -2.80115273E-05
  -1.73499994E-02  -2.89466116E-05
  -1.73000004E-02  -2.99018684E-05
  -1.72499996E-02  -3.08795024E-05
  -1.72000006E-02  -3.18827115E-05
  -1.71499997E-02  -3.29144641E-05
  -1.71000008E-02  -3.39762337E-05
  -1.70499999E-02  -3.50674854E-05
  -1.70000009E-02  -3.61856983E-05
  -1.69500001E-02  -3.73273797E-05
  -1.68999992E-02  -3.84896339E-05
  -1.68500002E-02  -3.96712676E-05
  -1.67999994E-02  -4.08733722E-05
  -1.67500004E-02  -4.20990618E-05
  -1.66999996E-02  -4.33522509E-05
  -1.66500006E-02  -4.46355880E-05
  -1.65999997E-02  -4.59492876E-05
  -1.65500008E-02  -4.72918036E-05
  -1.64999999E-02  -4.86600147E-05
  -1.64500009E-02  -5.00502247E-05
  -1.64000001E-02  -5.14598723E-05
  -1.63499992E-02  -5.28886121E-05
  -1.63000003E-02  -5.43387287E-05
  -1.62499994E-02  -5.58136817E-05
  -1.62000004E-02  -5.73169054E-05
  -1.61499996E-02  -5.88507537E-05
  -1.61000006E-02  -6.04152847E-05
  -1.60499997E-02  -6.20082574E-05
  -1.60000008E-02  -6.36266341E-05
  -1.59499999E-02  -6.52682647E-05
  -1.59000009E-02  -6.69320580E-05
  -1.58500001E-02  -6.86183485E-05
  -1.57999992E-02  -7.03297919E-05
  -1.57500003E-02  -7.20704411E-05
  -1.56999994E-02  -7.38436720E-05
  -1.56500004E-02  -7.56509471E-05
  -1.55999996E-02  -7.74917135E-05
  -1.55499997E-02  -7.93642976E-05
  -1.54999997E-02  -8.12666694E-05
  -1.54499998E-02  -8.31976795E-05
  -1.53999999E-02  -8.51575824E-05
  -1.53500000E-02  -8.71482334E-05
  -1.53000001E-02  -8.91735326E-05
  -1.52500002E-02  -9.12383839E-05
  -1.52000003E-02  -9.33461924E-05
  -1.51500003E-02  -9.54967618E-05
  -1.51000004E-02  -9.76880256E-05
  -1.50499996E-02  -9.99187687E-05
  -1.49999997E-02  -1.02188409E-04
  -1.49499997E-02  -1.04497776E-04
  -1.48999998E-02  -1.06849206E-04
  -1.48499999E-02  -1.09246583E-04
  -1.48000000E-02  -1.11694739E-04
  -1.47500001E-02  -1.14198869E-04
  -1.47000002E-02  -1.16762763E-04
  -1.46500003E-02  -1.19386321E-04
  -1.46000003E-02  -1.22067075E-04
  -1.45500004E-02  -1.24802085E-04
  -1.44999996E-02  -1.27591367E-04
  -1.44499997E-02  -1.30438333E-04
  -1.43999998E-02  -1.33347465E-04
  -1.43499998E-02  -1.36323244E-04
  -1.42999999E-02  -1.39370401E-04
  -1.42500000E-02  -1.42493707E-04
  -1.42000001E-02  -1.45697559E-04
  -1.41500002E-02  -1.48982566E-04
  -1.41000003E-02  -1.52345150E-04
  -1.40500003E-02  -1.55782313E-04
  -1.40000004E-02  -1.59294548E-04
  -1.39499996E-02  -1.62887387E-04
  -1.38999997E-02  -1.66569036E-04
  -1.38499998E-02  -1.70345360E-04
  -1.37999998E-02  -1.74219007E-04
  -1.37499999E-02  -1.78192466E-04
  -1.37000000E-02  -1.82270014E-04
  -1.36500001E-02  -1.86454141E-04
  -1.36000002E-02  -1.90742518E-04
  -1.35500003E-02  -1.95131230E-04
  -1.35000004E-02  -1.99619433E-04
  -1.34500004E-02  -2.04214753E-04
  -1.33999996E-02  -2.08927711E-04
  -1.33499997E-02  -2.13763677E-04
  -1.32999998E-02  -2.18724177E-04
  -1.32499998E-02  -2.23810071E-04
  -1.31999999E-02  -2.29022742E-04
  -1.31500000E-02  -2.34364634E-04
  -1.31000001E-02  -2.39837740E-04
  -1.30500002E-02  -2.45441275E-04
  -1.30000003E-02  -2.51176563E-04
  -1.29500004E-02  -2.57051608E-04
  -1.29000004E-02  -2.63077527E-04
  -1.28499996E-02  -2.69259705E-04
  -1.27999997E-02  -2.75596016E-04
  -1.27499998E-02  -2.82083260E-04
  -1.26999998E-02  -2.88722105E-04
  -1.26499999E-02  -2.95516656E-04
  -1.26000000E-02  -3.02468921E-04
  -1.25500001E-02  -3.09578201E-04
  -1.25000002E-02  -3.16849968E-04
  -1.24500003E-02  -3.24296096E-04
  -1.24000004E-02  -3.31929245E-04
  -1.23500004E-02  -3.39756341E-04
  -1.22999996E-02  -3.47775698E-04
  -1.22499997E-02  -3.55979108E-04
  -1.21999998E-02  -3.64359963E-04
  -1.21499998E-02  -3.72919458E-04
  -1.20999999E-02  -3.81661026E-04
  -1.20500000E-02  -3.90586385E-04
  -1.20000001E-02  -3.99695477E-04
  -1.19500002E-02  -4.08995897E-04
  -1.19000003E-02  -4.18501440E-04
  -1.18500004E-02  -4.28228232E-04
  -1.18000004E-02  -4.38182353E-04
  -1.17499996E-02  -4.48358827E-04
  -1.16999997E-02  -4.58758383E-04
  -1.16499998E-02  -4.69389983E-04
  -1.15999999E-02  -4.80264338E-04
  -1.15499999E-02  -4.91384533E-04
  -1.15000000E-02  -5.02745039E-04
  -1.14500001E-02  -5.14337327E-04
  -1.14000002E-02  -5.26158197E-04
  -1.13500003E-02  -5.38209104E-04
  -1.13000004E-02  -5.50482247E-04
  -1.12500004E-02  -5.62964880E-04
  -1.11999996E-02  -5.75655373E-04
  -1.11499997E-02  -5.88564435E-04
  -1.10999998E-02  -6.01716456E-04
  -1.10499999E-02  -6.15138444E-04
  -1.09999999E-02  -6.28849026E-04
  -1.09500000E-02  -6.42864965E-04
  -1.09000001E-02  -6.57199766E-04
  -1.08500002E-02  -6.71861344E-04
  -1.08000003E-02  -6.86847838E-04
  -1.07500004E-02  -7.02143880E-04
  -1.07000005E-02  -7.17735209E-04
  -1.06499996E-02  -7.33613095E-04
  -1.05999997E-02  -7.49762869E-04
  -1.05499998E-02  -7.66176730E-04
  -1.04999999E-02  -7.82848394E-04
  -1.04499999E-02  -7.99774134E-04
  -1.04000000E-02  -8.16962041E-04
  -1.03500001E-02  -8.34419101E-04
  -1.03000002E-02  -8.52156372E-04
  -1.02500003E-02  -8.70190037E-04
  -1.02000004E-02  -8.88543844E-04
  -1.01500005E-02  -9.07244335E-04
  -1.00999996E-02  -9.26313573E-04
  -1.00499997E-02  -9.45769367E-04
  -9.99999978E-03  -9.65616317E-04
  -9.94999986E-03  -9.85849532E-04
  -9.89999995E-03  -1.00645353E-03
  -9.85000003E-03  -1.02741807E-03
  -9.80000012E-03  -1.04873709E-03
  -9.75000020E-03  -1.07039604E-03
  -9.70000029E-03  -1.09238725E-03
  -9.65000037E-03  -1.11471908E-03
  -9.60000046E-03  -1.13739679E-03
  -9.54999961E-03  -1.16043002E-03
  -9.49999969E-03  -1.18382240E-03
  -9.44999978E-03  -1.20756694E-03
  -9.39999986E-03  -1.23166537E-03
  -9.34999995E-03  -1.25612074E-03
  -9.30000003E-03  -1.28093862E-03
  -9.25000012E-03  -1.30611705E-03
  -9.20000020E-03  -1.33165880E-03
  -9.15000029E-03  -1.35758740E-03
  -9.10000037E-03  -1.38392660E-03
  -9.05000046E-03  -1.41068769E-03
  -8.99999961E-03  -1.43787556E-03
  -8.94999970E-03  -1.46548543E-03
  -8.89999978E-03  -1.49351091E-03
  -8.84999987E-03  -1.52197236E-03
  -8.79999995E-03  -1.55089528E-03
  -8.75000004E-03  -1.58027688E-03
  -8.70000012E-03  -1.61010469E-03
  -8.65000021E-03  -1.64037605E-03
  -8.60000029E-03  -1.67107908E-03
  -8.55000038E-03  -1.70221319E-03
  -8.50000046E-03  -1.73378317E-03
  -8.44999962E-03  -1.76576537E-03
  -8.39999970E-03  -1.79814210E-03
  -8.34999979E-03  -1.83092128E-03
  -8.29999987E-03  -1.86412758E-03
  -8.24999996E-03  -1.89777883E-03
  -8.20000004E-03  -1.93189015E-03
  -8.15000013E-03  -1.96646946E-03
  -8.10000021E-03  -2.00151978E-03
  -8.05000030E-03  -2.03702273E-03
  -8.00000038E-03  -2.07297923E-03
  -7.95000046E-03  -2.10941141E-03
  -7.89999962E-03  -2.14633951E-03
  -7.84999970E-03  -2.18377309E-03
  -7.79999979E-03  -2.22169980E-03
  -7.74999987E-03  -2.26013409E-03
  -7.69999996E-03  -2.29911995E-03
  -7.65000004E-03  -2.33867462E-03
  -7.60000013E-03  -2.37877597E-03
  -7.55000021E-03  -2.41940864E-03
  -7.49999983E-03  -2.46057240E-03
  -7.44999992E-03  -2.50227517E-03
  -7.40000000E-03  -2.54452741E-03
  -7.35000009E-03  -2.58734100E-03
  -7.30000017E-03  -2.63069733E-03
  -7.24999979E-03  -2.67456216E-03
  -7.19999988E-03  -2.71894922E-03
  -7.14999996E-03  -2.76390277E-03
  -7.10000005E-03  -2.80943210E-03
  -7.05000013E-03  -2.85549951E-03
  -7.00000022E-03  -2.90208589E-03
  -6.94999984E-03  -2.94921338E-03
  -6.89999992E-03  -2.99694319E-03
  -6.85000001E-03  -3.04533914E-03
  -6.80000009E-03  -3.09438887E-03
  -6.75000018E-03  -3.14402417E-03
  -6.69999979E-03  -3.19423410E-03
  -6.64999988E-03  -3.24508292E-03
  -6.59999996E-03  -3.29666957E-03
  -6.55000005E-03  -3.34898569E-03
  -6.50000013E-03  -3.40193254E-03
  -6.45000022E-03  -3.45550524E-03
  -6.39999984E-03  -3.50975851E-03
  -6.34999992E-03  -3.56474658E-03
  -6.30000001E-03  -3.62050603E-03
  -6.25000009E-03  -3.67702427E-03
  -6.20000018E-03  -3.73422471E-03
  -6.14999980E-03  -3.79205518E-03
  -6.09999988E-03  -3.85057717E-03
  -6.04999997E-03  -3.90985981E-03
  -6.00000005E-03  -3.96987982E-03
  -5.95000014E-03  -4.03059367E-03
  -5.90000022E-03  -4.09200462E-03
  -5.84999984E-03  -4.15415596E-03
  -5.79999993E-03  -4.21709195E-03
  -5.75000001E-03  -4.28084005E-03
  -5.70000010E-03  -4.34537325E-03
  -5.65000018E-03  -4.41065384E-03
  -5.59999980E-03  -4.47669439E-03
  -5.54999989E-03  -4.54358896E-03
  -5.49999997E-03  -4.61141998E-03
  -5.45000006E-03  -4.68012132E-03
  -5.40000014E-03  -4.74963104E-03
  -5.35000023E-03  -4.81998269E-03
  -5.29999984E-03  -4.89123864E-03
  -5.24999993E-03  -4.96344082E-03
  -5.20000001E-03  -5.03658969E-03
  -5.15000010E-03  -5.11063216E-03
  -5.10000018E-03  -5.18556498E-03
  -5.04999980E-03  -5.26141748E-03
  -4.99999989E-03  -5.33819804E-03
  -4.94999997E-03  -5.41592157E-03
  -4.90000006E-03  -5.49455732E-03
  -4.85000014E-03  -5.57406479E-03
  -4.80000023E-03  -5.65444632E-03
  -4.74999985E-03  -5.73570095E-03
  -4.69999993E-03  -5.81787899E-03
  -4.65000002E-03  -5.90102747E-03
  -4.60000010E-03  -5.98514313E-03
  -4.55000019E-03  -6.07022876E-03
  -4.49999981E-03  -6.15632255E-03
  -4.44999989E-03  -6.24348037E-03
  -4.39999998E-03  -6.33174041E-03
  -4.35000006E-03  -6.42106030E-03
  -4.30000015E-03  -6.51139067E-03
  -4.25000023E-03  -6.60273293E-03
  -4.19999985E-03  -6.69519091E-03
  -4.14999994E-03  -6.78885588E-03
  -4.10000002E-03  -6.88363006E-03
  -4.05000011E-03  -6.97942358E-03
  -4.00000019E-03  -7.07620475E-03
  -3.94999981E-03  -7.17403367E-03
  -3.89999989E-03  -7.27300346E-03
  -3.84999998E-03  -7.37309735E-03
  -3.80000006E-03  -7.47424131E-03
  -3.74999992E-03  -7.57630728E-03
  -3.70000000E-03  -7.67939677E-03
  -3.65000009E-03  -7.78374961E-03
  -3.59999994E-03  -7.88933411E-03
  -3.55000002E-03  -7.99595844E-03
  -3.50000011E-03  -8.10355227E-03
  -3.44999996E-03  -8.21230747E-03
  -3.40000005E-03  -8.32236744E-03
  -3.34999990E-03  -8.43363348E-03
  -3.29999998E-03  -8.54594726E-03
  -3.25000007E-03  -8.65931530E-03
  -3.19999992E-03  -8.77390523E-03
  -3.15000000E-03  -8.88987072E-03
  -3.10000009E-03  -9.00722295E-03
  -3.04999994E-03  -9.12577379E-03
  -3.00000003E-03  -9.24530905E-03
  -2.95000011E-03  -9.36594792E-03
  -2.89999996E-03  -9.48786922E-03
  -2.85000005E-03  -9.61109437E-03
  -2.79999990E-03  -9.73558240E-03
  -2.74999999E-03  -9.86118708E-03
  -2.70000007E-03  -9.98789631E-03
  -2.64999992E-03  -1.01159224E-02
  -2.60000001E-03  -1.02453632E-02
  -2.55000009E-03  -1.03760650E-02
  -2.49999994E-03  -1.05078164E-02
  -2.45000003E-03  -1.06405914E-02
  -2.40000011E-03  -1.07746506E-02
  -2.34999997E-03  -1.09102027E-02
  -2.30000005E-03  -1.10470355E-02
  -2.24999990E-03  -1.11848982E-02
  -2.19999999E-03  -1.13238050E-02
  -2.15000007E-03  -1.14640323E-02
  -2.09999993E-03  -1.16058327E-02
  -2.05000001E-03  -1.17490655E-02
  -2.00000009E-03  -1.18934792E-02
  -1.94999995E-03  -1.20390039E-02
  -1.90000003E-03  -1.21858101E-02
  -1.85000000E-03  -1.23340450E-02
  -1.79999997E-03  -1.24837346E-02
  -1.75000005E-03  -1.26348669E-02
  -1.70000002E-03  -1.27872191E-02
  -1.64999999E-03  -1.29407365E-02
  -1.59999996E-03  -1.30956043E-02
  -1.55000004E-03  -1.32518634E-02
  -1.50000001E-03  -1.34093845E-02
  -1.44999998E-03  -1.35680847E-02
  -1.39999995E-03  -1.37278875E-02
  -1.35000004E-03  -1.38889439E-02
  -1.30000000E-03  -1.40515454E-02
  -1.24999997E-03  -1.42155867E-02
  -1.20000006E-03  -1.43809086E-02
  -1.15000003E-03  -1.45474086E-02
  -1.09999999E-03  -1.47150988E-02
  -1.04999996E-03  -1.48841338E-02
  -1.00000005E-03  -1.50545780E-02
  -9.50000016E-04  -1.52263548E-02
  -8.99999985E-04  -1.53995333E-02
  -8.50000011E-04  -1.55742476E-02
  -7.99999980E-04  -1.57504231E-02
  -7.50000007E-04  -1.59278605E-02
  -6.99999975E-04  -1.61066223E-02
  -6.50000002E-04  -1.62867066E-02
  -6.00000028E-04  -1.64680630E-02
  -5.49999997E-04  -1.66508146E-02
  -5.00000024E-04  -1.68348085E-02
  -4.49999992E-04  -1.70199424E-02
  -3.99999990E-04  -1.72066707E-02
  -3.49999988E-04  -1.73951313E-02
  -3.00000014E-04  -1.75848715E-02
  -2.50000012E-04  -1.77756138E-02
  -1.99999995E-04  -1.79672986E-02
  -1.50000007E-04  -1.81603823E-02
  -9.99999975E-05  -1.83551796E-02
  -4.99999987E-05  -1.85513347E-02
   0.00000000      -1.87484063E-02
   4.99999987E-05  -1.89466290E-02
   9.99999975E-05  -1.91465523E-02
   1.50000007E-04  -1.93484407E-02
   1.99999995E-04  -1.95518937E-02
   2.50000012E-04  -1.97560415E-02
   3.00000014E-04  -1.99608449E-02
   3.49999988E-04  -2.01669540E-02
   3.99999990E-04  -2.03751251E-02
   4.49999992E-04  -2.05853451E-02
   5.00000024E-04  -2.07965132E-02
   5.49999997E-04  -2.10082065E-02
   6.00000028E-04  -2.12211497E-02
   6.50000002E-04  -2.14359667E-02
   6.99999975E-04  -2.16527022E-02
   7.50000007E-04  -2.18706541E-02
   7.99999980E-04  -2.20891722E-02
   8.50000011E-04  -2.23085005E-02
   8.99999985E-04  -2.25292798E-02
   9.50000016E-04  -2.27519199E-02
   1.00000005E-03  -2.29761079E-02
   1.04999996E-03  -2.32012812E-02
   1.09999999E-03  -2.34273542E-02
   1.15000003E-03  -2.36545671E-02
   1.20000006E-03  -2.38831695E-02
   1.24999997E-03  -2.41134334E-02
   1.30000000E-03  -2.43452061E-02
   1.35000004E-03  -2.45777462E-02
   1.39999995E-03  -2.48108376E-02
   1.44999998E-03  -2.50451583E-02
   1.50000001E-03  -2.52815560E-02
   1.55000004E-03  -2.55199261E-02
   1.59999996E-03  -2.57593598E-02
   1.64999999E-03  -2.59990040E-02
   1.70000002E-03  -2.62394454E-02
   1.75000005E-03  -2.64816750E-02
   1.79999997E-03  -2.67255809E-02
   1.85000000E-03  -2.69708280E-02
   1.90000003E-03  -2.72167046E-02
   1.94999995E-03  -2.74629481E-02
   2.00000009E-03  -2.77102478E-02
   2.05000001E-03  -2.79593114E-02
   2.09999993E-03  -2.82098129E-02
   2.15000007E-03  -2.84607392E-02
   2.19999999E-03  -2.87117399E-02
   2.24999990E-03  -2.89635081E-02
   2.30000005E-03  -2.92169657E-02
   2.34999997E-03  -2.94722077E-02
   2.40000011E-03  -2.97284499E-02
   2.45000003E-03  -2.99851242E-02
   2.49999994E-03  -3.02421749E-02
   2.55000009E-03  -3.05001754E-02
   2.60000001E-03  -3.07595469E-02
   2.64999992E-03  -3.10198367E-02
   2.70000007E-03  -3.12806405E-02
   2.74999999E-03  -3.15419100E-02
   2.79999990E-03  -3.18039656E-02