  -3.99999991E-02   0.00000000    
  -3.99499983E-02   0.00000000    
  -3.99000011E-02  -3.29031028E-15
  -3.98500003E-02   5.96932985E-14
  -3.97999994E-02   5.87916109E-13
  -3.97499986E-02   2.62811322E-12
  -3.97000015E-02   7.86698137E-12
  -3.96500006E-02   1.78994337E-11
  -3.95999998E-02   3.28721009E-11
  -3.95499989E-02   5.03512475E-11
  -3.95000018E-02   6.55591345E-11
  -3.94500010E-02   7.34699593E-11
  -3.94000001E-02   7.19743293E-11
  -3.93499993E-02   6.43388121E-11
  -3.92999984E-02   5.92347837E-11
  -3.92500013E-02   6.76804654E-11
  -3.92000005E-02   9.77791459E-11
  -3.91499996E-02   1.49506310E-10
  -3.90999988E-02   2.12403636E-10
  -3.90500017E-02   2.68290529E-10
  -3.90000008E-02   2.98802788E-10
  -3.89500000E-02   2.94578084E-10
  -3.88999991E-02   2.61133254E-10
  -3.88499983E-02   2.17549839E-10
  -3.88000011E-02   1.87794821E-10
  -3.87500003E-02   1.88626711E-10
  -3.86999995E-02   2.20028162E-10
  -3.86499986E-02   2.62988242E-10
  -3.86000015E-02   2.86145663E-10
  -3.85500006E-02   2.58926935E-10
  -3.84999998E-02   1.65687353E-10
  -3.84499989E-02   1.40932283E-11
  -3.84000018E-02  -1.67282951E-10
  -3.83500010E-02  -3.42202405E-10
  -3.83000001E-02  -4.84703777E-10
  -3.82499993E-02  -5.92205784E-10
  -3.81999984E-02  -6.86534662E-10
  -3.81500013E-02  -8.02642730E-10
  -3.81000005E-02  -9.71766889E-10
  -3.80499996E-02  -1.20817167E-09
  -3.79999988E-02  -1.50560620E-09
  -3.79500017E-02  -1.84400983E-09
  -3.79000008E-02  -2.20222995E-09
  -3.78500000E-02  -2.57008326E-09
  -3.77999991E-02  -2.95324498E-09
  -3.77499983E-02  -3.36751338E-09
  -3.77000012E-02  -3.82493148E-09
  -3.76500003E-02  -4.32044711E-09
  -3.75999995E-02  -4.82934137E-09
  -3.75499986E-02  -5.31941824E-09
  -3.75000015E-02  -5.77100856E-09
  -3.74500006E-02  -6.19040330E-09
  -3.73999998E-02  -6.60514266E-09
  -3.73499990E-02  -7.04151581E-09
  -3.73000018E-02  -7.49724105E-09
  -3.72500010E-02  -7.92712829E-09
  -3.72000001E-02  -8.25392110E-09
  -3.71499993E-02  -8.40403569E-09
  -3.70999984E-02  -8.35424352E-09
  -3.70500013E-02  -8.16551537E-09
  -3.70000005E-02  -7.97957433E-09
  -3.69499996E-02  -7.96644262E-09
  -3.68999988E-02  -8.23647639E-09
  -3.68500017E-02  -8.75679618E-09
  -3.68000008E-02  -9.32197430E-09
  -3.67500000E-02  -9.61002300E-09
  -3.66999991E-02  -9.31256583E-09
  -3.66499983E-02  -8.28471247E-09
  -3.66000012E-02  -6.64072042E-09
  -3.65500003E-02  -4.73853312E-09
  -3.64999995E-02  -3.04338532E-09
  -3.64499986E-02  -1.91780414E-09
  -3.64000015E-02  -1.42831846E-09
  -3.63500006E-02  -1.26700428E-09
  -3.62999998E-02  -8.47624693E-10
  -3.62499990E-02   4.40836340E-10
  -3.62000018E-02   2.92523694E-09
  -3.61500010E-02   6.43331699E-09
  -3.61000001E-02   1.02978968E-08
  -3.60499993E-02   1.36104612E-08
  -3.59999985E-02   1.56307447E-08
  -3.59500013E-02   1.61691904E-08
  -3.59000005E-02   1.57512918E-08
  -3.58499996E-02   1.54567203E-08
  -3.57999988E-02   1.64693930E-08
  -3.57500017E-02   1.95174295E-08
  -3.57000008E-02   2.44587870E-08
  -3.56500000E-02   3.02335721E-08
  -3.55999991E-02   3.52555887E-08
  -3.55499983E-02   3.81083858E-08
  -3.55000012E-02   3.82413283E-08
  -3.54500003E-02   3.63227066E-08
  -3.53999995E-02   3.40371997E-08
  -3.53499986E-02   3.33657617E-08
  -3.53000015E-02   3.56424117E-08
  -3.52500007E-02   4.08196428E-08
  -3.51999998E-02   4.73174211E-08
  -3.51499990E-02   5.25914352E-08
  -3.51000018E-02   5.42290977E-08
  -3.50500010E-02   5.11088807E-08
  -3.50000001E-02   4.40750938E-08
  -3.49499993E-02   3.57499665E-08
  -3.48999985E-02   2.94786151E-08
  -3.48500013E-02   2.78214980E-08
  -3.48000005E-02   3.12707797E-08
  -3.47499996E-02   3.78248188E-08
  -3.46999988E-02   4.37019523E-08
  -3.46500017E-02   4.49570905E-08
  -3.46000008E-02   3.93174062E-08
  -3.45500000E-02   2.73924012E-08
  -3.44999991E-02   1.26346595E-08
  -3.44499983E-02  -4.05608186E-11
  -3.44000012E-02  -6.44610987E-09
  -3.43500003E-02  -5.16232967E-09
  -3.42999995E-02   1.55328383E-09
  -3.42499986E-02   8.51573567E-09
  -3.42000015E-02   9.80841541E-09
  -3.41500007E-02   1.50670565E-09
  -3.40999998E-02  -1.63133915E-08
  -3.40499990E-02  -3.92820816E-08
  -3.40000018E-02  -6.04262596E-08
  -3.39500010E-02  -7.32012779E-08
  -3.39000002E-02  -7.45474154E-08
  -3.38499993E-02  -6.65460362E-08
  -3.37999985E-02  -5.57976101E-08
  -3.37500013E-02  -5.06426687E-08
  -3.37000005E-02  -5.73672061E-08
  -3.36499996E-02  -7.70974466E-08
  -3.35999988E-02  -1.04892713E-07
  -3.35500017E-02  -1.31620652E-07
  -3.35000008E-02  -1.47930820E-07
  -3.34500000E-02  -1.48608834E-07
  -3.33999991E-02  -1.35297711E-07
  -3.33499983E-02  -1.16203147E-07
  -3.33000012E-02  -1.02715056E-07
  -3.32500003E-02  -1.04310303E-07
  -3.31999995E-02  -1.23991157E-07
  -3.31499986E-02  -1.56416249E-07
  -3.31000015E-02  -1.89772948E-07
  -3.30500007E-02  -2.10770594E-07
  -3.29999998E-02  -2.10640209E-07
  -3.29499990E-02  -1.89420192E-07
  -3.29000019E-02  -1.56433458E-07
  -3.28500010E-02  -1.26502755E-07
  -3.28000002E-02  -1.13405179E-07
  -3.27499993E-02  -1.23435768E-07
  -3.26999985E-02  -1.52065084E-07
  -3.26500013E-02  -1.85412517E-07
  -3.26000005E-02  -2.06128334E-07
  -3.25499997E-02  -2.01215343E-07
  -3.24999988E-02  -1.68284700E-07
  -3.24500017E-02  -1.17265344E-07
  -3.24000008E-02  -6.65206699E-08
  -3.23500000E-02  -3.48530804E-08
  -3.22999991E-02  -3.28620402E-08
  -3.22499983E-02  -5.76107020E-08
  -3.22000012E-02  -9.32387181E-08
  -3.21500003E-02  -1.17551878E-07
  -3.20999995E-02  -1.11863294E-07
  -3.20499986E-02  -6.97235336E-08
  -3.20000015E-02  -4.70283867E-10
  -3.19500007E-02   7.42889341E-08
  -3.18999998E-02   1.29988678E-07
  -3.18499990E-02   1.50213523E-07
  -3.18000019E-02   1.34581072E-07
  -3.17500010E-02   9.96200242E-08
  -3.17000002E-02   7.19047435E-08
  -3.16499993E-02   7.62358212E-08
  -3.15999985E-02   1.24068251E-07
  -3.15500014E-02   2.07521836E-07
  -3.15000005E-02   3.01989758E-07
  -3.14499997E-02   3.76547263E-07
  -3.13999988E-02   4.07742704E-07
  -3.13500017E-02   3.90598956E-07
  -3.13000008E-02   3.41659558E-07
  -3.12500000E-02   2.92330043E-07
  -3.11999992E-02   2.75134795E-07
  -3.11500002E-02   3.08865111E-07
  -3.10999993E-02   3.89358888E-07
  -3.10500003E-02   4.90363618E-07
  -3.09999995E-02   5.74512910E-07
  -3.09500005E-02   6.09822166E-07
  -3.08999997E-02   5.84396957E-07
  -3.08500007E-02   5.12562565E-07
  -3.07999998E-02   4.29273825E-07
  -3.07500008E-02   3.74893176E-07
  -3.07000000E-02   3.76909924E-07
  -3.06499992E-02   4.36823171E-07
  -3.06000002E-02   5.28370151E-07
  -3.05499993E-02   6.08339519E-07
  -3.05000003E-02   6.35523065E-07
  -3.04499995E-02   5.89481431E-07
  -3.04000005E-02   4.80578365E-07
  -3.03499997E-02   3.46394586E-07
  -3.03000007E-02   2.35656188E-07
  -3.02499998E-02   1.86535431E-07
  -3.02000009E-02   2.08996099E-07
  -3.01500000E-02   2.79356328E-07
  -3.00999992E-02   3.49962392E-07
  -3.00500002E-02   3.70089623E-07
  -2.99999993E-02   3.08942987E-07
  -2.99500003E-02   1.70370441E-07
  -2.98999995E-02  -7.67090036E-09
  -2.98500005E-02  -1.69159946E-07
  -2.97999997E-02  -2.64792419E-07
  -2.97500007E-02  -2.74534557E-07
  -2.96999998E-02  -2.17632234E-07
  -2.96500009E-02  -1.45111116E-07
  -2.96000000E-02  -1.17594453E-07
  -2.95499992E-02  -1.78026724E-07
  -2.95000002E-02  -3.31511444E-07
  -2.94499993E-02  -5.41634961E-07
  -2.94000003E-02  -7.45455850E-07
  -2.93499995E-02  -8.80941116E-07
  -2.93000005E-02  -9.14808084E-07
  -2.92499997E-02  -8.58186354E-07
  -2.92000007E-02  -7.62660306E-07
  -2.91499998E-02  -6.97910821E-07
  -2.91000009E-02  -7.20532455E-07
  -2.90500000E-02  -8.47873480E-07
  -2.89999992E-02  -1.04888147E-06
  -2.89500002E-02  -1.25658858E-06
  -2.88999993E-02  -1.39720919E-06
  -2.88500004E-02  -1.42315560E-06
  -2.87999995E-02  -1.33514664E-06
  -2.87500005E-02  -1.18311118E-06
  -2.86999997E-02  -1.04489857E-06
  -2.86500007E-02  -9.91809657E-07
  -2.85999998E-02  -1.05615550E-06
  -2.85500009E-02  -1.21552716E-06
  -2.85000000E-02  -1.40131249E-06
  -2.84499992E-02  -1.52825339E-06
  -2.84000002E-02  -1.53226279E-06
  -2.83499993E-02  -1.39966414E-06
  -2.83000004E-02  -1.17444870E-06
  -2.82499995E-02  -9.39727897E-07
  -2.82000005E-02  -7.81117706E-07
  -2.81499997E-02  -7.48144828E-07
  -2.81000007E-02  -8.31037084E-07
  -2.80499998E-02  -9.63741627E-07
  -2.80000009E-02  -1.05242884E-06
  -2.79500000E-02  -1.01723356E-06
  -2.78999992E-02  -8.28726570E-07
  -2.78500002E-02  -5.22549385E-07
  -2.77999993E-02  -1.85087316E-07
  -2.77500004E-02   8.40581365E-08
  -2.76999995E-02   2.16443496E-07
  -2.76500005E-02   2.06165481E-07
  -2.75999997E-02   1.13805960E-07
  -2.75500007E-02   4.05317166E-08
  -2.74999999E-02   8.33309102E-08
  -2.74500009E-02   2.91115697E-07
  -2.74000000E-02   6.41468489E-07
  -2.73499992E-02   1.04893559E-06
  -2.73000002E-02   1.40180748E-06
  -2.72499993E-02   1.61145795E-06
  -2.72000004E-02   1.65231472E-06
  -2.71499995E-02   1.57428531E-06
  -2.71000005E-02   1.48146921E-06
  -2.70499997E-02   1.48602101E-06
  -2.70000007E-02   1.65740346E-06
  -2.69499999E-02   1.98976977E-06
  -2.69000009E-02   2.40252780E-06
  -2.68500000E-02   2.77450613E-06
  -2.67999992E-02   2.99702992E-06
  -2.67500002E-02   3.02242393E-06
  -2.66999993E-02   2.88605565E-06
  -2.66500004E-02   2.69151610E-06
  -2.65999995E-02   2.56489261E-06
  -2.65500005E-02   2.59809758E-06
  -2.64999997E-02   2.80651329E-06
  -2.64500007E-02   3.12025077E-06
  -2.63999999E-02   3.41358168E-06
  -2.63500009E-02   3.56001010E-06
  -2.63000000E-02   3.48869207E-06
  -2.62499992E-02   3.21685161E-06
  -2.62000002E-02   2.84319344E-06
  -2.61499994E-02   2.50457333E-06
  -2.61000004E-02   2.31477247E-06
  -2.60499995E-02   2.31258878E-06
  -2.60000005E-02   2.44273656E-06
  -2.59499997E-02   2.57871329E-06
  -2.59000007E-02   2.57808915E-06
  -2.58499999E-02   2.34592380E-06
  -2.58000009E-02   1.87796218E-06
  -2.57500000E-02   1.26386135E-06
  -2.56999992E-02   6.48332616E-07
  -2.56500002E-02   1.66962295E-07
  -2.55999994E-02  -1.14832723E-07
  -2.55500004E-02  -2.32238904E-07
  -2.54999995E-02  -3.06702731E-07
  -2.54500005E-02  -4.92556239E-07
  -2.53999997E-02  -9.08001596E-07
  -2.53500007E-02  -1.58123032E-06
  -2.52999999E-02  -2.43613772E-06
  -2.52500009E-02  -3.32465652E-06
  -2.52000000E-02  -4.09189352E-06
  -2.51499992E-02  -4.64530194E-06
  -2.51000002E-02  -4.99687576E-06
  -2.50499994E-02  -5.25900987E-06
  -2.50000004E-02  -5.59520549E-06
  -2.49499995E-02  -6.14711780E-06
  -2.49000005E-02  -6.97038331E-06
  -2.48499997E-02  -8.00815633E-06
  -2.48000007E-02  -9.11475490E-06
  -2.47499999E-02  -1.01194346E-05
  -2.47000009E-02  -1.09021630E-05
  -2.46500000E-02  -1.14475106E-05
  -2.45999992E-02  -1.18521775E-05
  -2.45500002E-02  -1.22822121E-05
  -2.44999994E-02  -1.28985475E-05
  -2.44500004E-02  -1.37839497E-05
  -2.43999995E-02  -1.49042453E-05
  -2.43500005E-02  -1.61217049E-05
  -2.42999997E-02  -1.72551809E-05
  -2.42500007E-02  -1.81605174E-05
  -2.41999999E-02  -1.87953392E-05
  -2.41500009E-02  -1.92388179E-05
  -2.41000000E-02  -1.96570654E-05
  -2.40499992E-02  -2.02290994E-05
  -2.40000002E-02  -2.10661783E-05
  -2.39499994E-02  -2.21607352E-05
  -2.39000004E-02  -2.33881710E-05
  -2.38499995E-02  -2.45612482E-05
  -2.38000005E-02  -2.55131908E-05
  -2.37499997E-02  -2.61724163E-05
  -2.37000007E-02  -2.65952549E-05
  -2.36499999E-02  -2.69414249E-05
  -2.36000009E-02  -2.74029007E-05
  -2.35500000E-02  -2.81175871E-05
  -2.34999992E-02  -2.91065862E-05
  -2.34500002E-02  -3.02635490E-05
  -2.33999994E-02  -3.14012068E-05
  -2.33500004E-02  -3.23348468E-05
  -2.32999995E-02  -3.29654395E-05
  -2.32500006E-02  -3.33249482E-05
  -2.31999997E-02  -3.35632212E-05
  -2.31500007E-02  -3.38818609E-05
  -2.30999999E-02  -3.44443288E-05
  -2.30500009E-02  -3.53025680E-05
  -2.30000000E-02  -3.63732106E-05
  -2.29499992E-02  -3.74744486E-05
  -2.29000002E-02  -3.84075356E-05
  -2.28499994E-02  -3.90464193E-05
  -2.28000004E-02  -3.93952396E-05
  -2.27499995E-02  -3.95877323E-05
  -2.27000006E-02  -3.98282536E-05
  -2.26499997E-02  -4.03008817E-05
  -2.26000007E-02  -4.10870380E-05
  -2.25499999E-02  -4.21289660E-05
  -2.25000009E-02  -4.32556335E-05
  -2.24500000E-02  -4.42598539E-05
  -2.23999992E-02  -4.49921499E-05
  -2.23500002E-02  -4.54291403E-05
  -2.22999994E-02  -4.56856396E-05
  -2.22500004E-02  -4.59645998E-05
  -2.21999995E-02  -4.64671066E-05
  -2.21500006E-02  -4.73030013E-05
  -2.20999997E-02  -4.84421689E-05
  -2.20500007E-02  -4.97285437E-05
  -2.19999999E-02  -5.09511301E-05
  -2.19500009E-02  -5.19400237E-05
  -2.19000001E-02  -5.26441363E-05
  -2.18499992E-02  -5.31557307E-05
  -2.18000002E-02  -5.36704865E-05
  -2.17499994E-02  -5.44007198E-05
  -2.17000004E-02  -5.54806211E-05
  -2.16499995E-02  -5.69065014E-05
  -2.16000006E-02  -5.85390553E-05
  -2.15499997E-02  -6.01664251E-05
  -2.15000007E-02  -6.16001635E-05
  -2.14499999E-02  -6.27610934E-05
  -2.14000009E-02  -6.37160192E-05
  -2.13500001E-02  -6.46489134E-05
  -2.12999992E-02  -6.57789933E-05
  -2.12500002E-02  -6.72631431E-05
  -2.11999994E-02  -6.91264140E-05
  -2.11500004E-02  -7.12514011E-05
  -2.10999995E-02  -7.34322457E-05
  -2.10500006E-02  -7.54684370E-05
  -2.09999997E-02  -7.72559360E-05
  -2.09500007E-02  -7.88348116E-05
  -2.08999999E-02  -8.03719668E-05
  -2.08500009E-02  -8.20865607E-05
  -2.08000001E-02  -8.41514484E-05
  -2.07499992E-02  -8.66158371E-05
  -2.07000002E-02  -8.93834440E-05
  -2.06499994E-02  -9.22562758E-05
  -2.06000004E-02  -9.50245740E-05
  -2.05499995E-02  -9.75619478E-05
  -2.05000006E-02  -9.98828764E-05
  -2.04499997E-02  -1.02136495E-04
  -2.04000007E-02  -1.04539940E-04
  -2.03499999E-02  -1.07281063E-04
  -2.03000009E-02  -1.10434361E-04
  -2.02500001E-02  -1.13928683E-04
  -2.01999992E-02  -1.17580275E-04
  -2.01500002E-02  -1.21176898E-04
  -2.00999994E-02  -1.24574770E-04
  -2.00500004E-02  -1.27764069E-04
  -1.99999996E-02  -1.30873988E-04
  -1.99500006E-02  -1.34114278E-04
  -1.98999997E-02  -1.37681098E-04
  -1.98500007E-02  -1.41668934E-04
  -1.97999999E-02  -1.46028266E-04
  -1.97500009E-02  -1.50589040E-04
  -1.97000001E-02  -1.55138463E-04
  -1.96499992E-02  -1.59517745E-04
  -1.96000002E-02  -1.63694771E-04
  -1.95499994E-02  -1.67779188E-04
  -1.95000004E-02  -1.71973748E-04
  -1.94499996E-02  -1.76483300E-04
  -1.94000006E-02  -1.81423355E-04
  -1.93499997E-02  -1.86769743E-04
  -1.93000007E-02  -1.92371212E-04
  -1.92499999E-02  -1.98020207E-04
  -1.92000009E-02  -2.03548290E-04
  -1.91500001E-02  -2.08903293E-04
  -1.90999992E-02  -2.14174623E-04
  -1.90500002E-02  -2.19552618E-04
  -1.89999994E-02  -2.25242926E-04
  -1.89500004E-02  -2.31374972E-04
  -1.88999996E-02  -2.37944943E-04
  -1.88500006E-02  -2.44819123E-04
  -1.87999997E-02  -2.51796911E-04
  -1.87500007E-02  -2.58703425E-04
  -1.86999999E-02  -2.65470386E-04
  -1.86500009E-02  -2.72168720E-04
  -1.86000001E-02  -2.78976775E-04
  -1.85499992E-02  -2.86100549E-04
  -1.85000002E-02  -2.93682038E-04
  -1.84499994E-02  -3.01737135E-04
  -1.84000004E-02  -3.10151314E-04
  -1.83499996E-02  -3.18733422E-04
  -1.83000006E-02  -3.27305432E-04
  -1.82499997E-02  -3.35785648E-04
  -1.82000007E-02  -3.44227592E-04
  -1.81499999E-02  -3.52797098E-04
  -1.81000009E-02  -3.61697981E-04
  -1.80500001E-02  -3.71081114E-04
  -1.79999992E-02  -3.80978716E-04
  -1.79500002E-02  -3.91291571E-04
  -1.78999994E-02  -4.01836791E-04
  -1.78500004E-02  -4.12433437E-04
  -1.77999996E-02  -4.22987243E-04
  -1.77500006E-02  -4.33534966E-04
  -1.76999997E-02  -4.44228732E-04
  -1.76500008E-02  -4.55268339E-04
  -1.75999999E-02  -4.66811820E-04
  -1.75500009E-02  -4.78905626E-04
  -1.75000001E-02  -4.91466955E-04
  -1.74499992E-02  -5.04324504E-04
  -1.74000002E-02  -5.17299224E-04
  -1.73499994E-02  -5.30288846E-04
  -1.73000004E-02  -5.43317525E-04
  -1.72499996E-02  -5.56526124E-04
  -1.72000006E-02  -5.70108299E-04
  -1.71499997E-02  -5.84224472E-04
  -1.71000008E-02  -5.98932034E-04
  -1.70499999E-02  -6.14160614E-04
  -1.70000009E-02  -6.29746530E-04
  -1.69500001E-02  -6.45511143E-04
  -1.68999992E-02  -6.61343220E-04
  -1.68500002E-02  -6.77251315E-04
  -1.67999994E-02  -6.93361450E-04
  -1.67500004E-02  -7.09859130E-04
  -1.66999996E-02  -7.26905535E-04
  -1.66500006E-02  -7.44566496E-04
  -1.65999997E-02  -7.62785203E-04
  -1.65500008E-02  -7.81409559E-04
  -1.64999999E-02  -8.00265290E-04
  -1.64500009E-02  -8.19240115E-04
  -1.64000001E-02  -8.38336651E-04
  -1.63499992E-02  -8.57671839E-04
  -1.63000003E-02  -8.77425773E-04
  -1.62499994E-02  -8.97761201E-04
  -1.62000004E-02  -9.18750302E-04
  -1.61499996E-02  -9.40343598E-04
  -1.61000006E-02  -9.62393882E-04
  -1.60499997E-02  -9.84728453E-04
  -1.60000008E-02  -1.00722862E-03
  -1.59499999E-02  -1.02988479E-03
  -1.59000009E-02  -1.05280324E-03
  -1.58500001E-02  -1.07615825E-03
  -1.57999992E-02  -1.10011327E-03
  -1.57500003E-02  -1.12474756E-03
  -1.56999994E-02  -1.15002354E-03
  -1.56500004E-02  -1.17580709E-03
  -1.55999996E-02  -1.20193593E-03
  -1.55499997E-02  -1.22829271E-03
  -1.54999997E-02  -1.25486357E-03
  -1.54499998E-02  -1.28175027E-03
  -1.53999999E-02  -1.30912068E-03
  -1.53500000E-02  -1.33713707E-03
  -1.53000001E-02  -1.36588444E-03
  -1.52500002E-02  -1.39533228E-03
  -1.52000003E-02  -1.42535369E-03
  -1.51500003E-02  -1.45578827E-03
  -1.51000004E-02  -1.48651714E-03
  -1.50499996E-02  -1.51752122E-03
  -1.49999997E-02  -1.54889037E-03
  -1.49499997E-02  -1.58078701E-03
  -1.48999998E-02  -1.61337445E-03
  -1.48499999E-02  -1.64674339E-03
  -1.48000000E-02  -1.68087555E-03
  -1.47500001E-02  -1.71565660E-03
  -1.47000002E-02  -1.75093289E-03
  -1.46500003E-02  -1.78658613E-03
  -1.46000003E-02  -1.82259607E-03
  -1.45500004E-02  -1.85904989E-03
  -1.44999996E-02  -1.89610757E-03
  -1.44499997E-02  -1.93392951E-03
  -1.43999998E-02  -1.97260501E-03
  -1.43499998E-02  -2.01212242E-03
  -1.42999999E-02  -2.05237512E-03
  -1.42500000E-02  -2.09321477E-03
  -1.42000001E-02  -2.13452592E-03
  -1.41500002E-02  -2.17628083E-03
  -1.41000003E-02  -2.21856055E-03
  -1.40500003E-02  -2.26152223E-03
  -1.40000004E-02  -2.30532186E-03
  -1.39499996E-02  -2.35005002E-03
  -1.38999997E-02  -2.39569438E-03
  -1.38499998E-02  -2.44215224E-03
  -1.37999998E-02  -2.48928298E-03
  -1.37499999E-02  -2.53698230E-03
  -1.37000000E-02  -2.58522667E-03
  -1.36500001E-02  -2.63409340E-03
  -1.36000002E-02  -2.68373359E-03
  -1.35500003E-02  -2.73429509E-03
  -1.35000004E-02  -2.78586568E-03
  -1.34500004E-02  -2.83843954E-03
  -1.33999996E-02  -2.89192144E-03
  -1.33499997E-02  -2.94617703E-03
  -1.32999998E-02  -3.00109852E-03
  -1.32499998E-02  -3.05666495E-03
  -1.31999999E-02  -3.11295176E-03
  -1.31500000E-02  -3.17009841E-03
  -1.31000001E-02  -3.22824996E-03
  -1.30500002E-02  -3.28748766E-03
  -1.30000003E-02  -3.34779196E-03
  -1.29500004E-02  -3.40906298E-03
  -1.29000004E-02  -3.47117847E-03
  -1.28499996E-02  -3.53404204E-03
  -1.27999997E-02  -3.59763764E-03
  -1.27499998E-02  -3.66204954E-03
  -1.26999998E-02  -3.72741302E-03
  -1.26499999E-02  -3.79386102E-03
  -1.26000000E-02  -3.86146572E-03
  -1.25500001E-02  -3.93020315E-03
  -1.25000002E-02  -3.99998110E-03
  -1.24500003E-02  -4.07068850E-03
  -1.24000004E-02  -4.14223364E-03
  -1.23500004E-02  -4.21460718E-03
  -1.22999996E-02  -4.28788131E-03
  -1.22499997E-02  -4.36217291E-03
  -1.21999998E-02  -4.43759980E-03
  -1.21499998E-02  -4.51421458E-03
  -1.20999999E-02  -4.59198281E-03
  -1.20500000E-02  -4.67080856E-03
  -1.20000001E-02  -4.75057680E-03
  -1.19500002E-02  -4.83121676E-03
  -1.19000003E-02  -4.91274334E-03
  -1.18500004E-02  -4.99523804E-03
  -1.18000004E-02  -5.07881353E-03
  -1.17499996E-02  -5.16358484E-03
  -1.16999997E-02  -5.24959899E-03
  -1.16499998E-02  -5.33681363E-03
  -1.15999999E-02  -5.42511838E-03
  -1.15499999E-02  -5.51438425E-03
  -1.15000000E-02  -5.60453953E-03
  -1.14500001E-02  -5.69560146E-03
  -1.14000002E-02  -5.78765525E-03
  -1.13500003E-02  -5.88081637E-03
  -1.13000004E-02  -5.97517192E-03
  -1.12500004E-02  -6.07074518E-03
  -1.11999996E-02  -6.16748119E-03
  -1.11499997E-02  -6.26524631E-03
  -1.10999998E-02  -6.36391994E-03
  -1.10499999E-02  -6.46347879E-03
  -1.09999999E-02  -6.56394986E-03
  -1.09500000E-02  -6.66543329E-03
  -1.09000001E-02  -6.76807389E-03
  -1.08500002E-02  -6.87195966E-03
  -1.08000003E-02  -6.97708735E-03
  -1.07500004E-02  -7.08335405E-03
  -1.07000005E-02  -7.19063170E-03
  -1.06499996E-02  -7.29879271E-03
  -1.05999997E-02  -7.40777142E-03
  -1.05499998E-02  -7.51759810E-03
  -1.04999999E-02  -7.62837101E-03
  -1.04499999E-02  -7.74023030E-03
  -1.04000000E-02  -7.85325840E-03
  -1.03500001E-02  -7.96742365E-03
  -1.03000002E-02  -8.08263663E-03
  -1.02500003E-02  -8.19875579E-03
  -1.02000004E-02  -8.31562094E-03
  -1.01500005E-02  -8.43319576E-03
  -1.00999996E-02  -8.55154544E-03
  -1.00499997E-02  -8.67077801E-03
  -9.99999978E-03  -8.79100244E-03
  -9.94999986E-03  -8.91229417E-03
  -9.89999995E-03  -9.03465878E-03
  -9.85000003E-03  -9.15800035E-03
  -9.80000012E-03  -9.28215496E-03
  -9.75000020E-03  -9.40696336E-03
  -9.70000029E-03  -9.53235105E-03
  -9.65000037E-03  -9.65833385E-03
  -9.60000046E-03  -9.78500769E-03
  -9.54999961E-03  -9.91251320E-03
  -9.49999969E-03  -1.00409500E-02
  -9.44999978E-03  -1.01703145E-02
  -9.39999986E-03  -1.03004556E-02
  -9.34999995E-03  -1.04311705E-02
  -9.30000003E-03  -1.05622476E-02
  -9.25000012E-03  -1.06935278E-02
  -9.20000020E-03  -1.08250184E-02
  -9.15000029E-03  -1.09569021E-02
  -9.10000037E-03  -1.10894246E-02
  -9.05000046E-03  -1.12227015E-02
  -8.99999961E-03  -1.13567151E-02
  -8.94999970E-03  -1.14913201E-02
  -8.89999978E-03  -1.16262566E-02
  -8.84999987E-03  -1.17612295E-02
  -8.79999995E-03  -1.18960617E-02
  -8.75000004E-03  -1.20307915E-02
  -8.70000012E-03  -1.21655911E-02
  -8.65000021E-03  -1.23007046E-02
  -8.60000029E-03  -1.24363024E-02
  -8.55000038E-03  -1.25723975E-02
  -8.50000046E-03  -1.27088036E-02
  -8.44999962E-03  -1.28451604E-02
  -8.39999970E-03  -1.29811140E-02
  -8.34999979E-03  -1.31164594E-02
  -8.29999987E-03  -1.32511826E-02
  -8.24999996E-03  -1.33854728E-02
  -8.20000004E-03  -1.35196121E-02
  -8.15000013E-03  -1.36537934E-02
  -8.10000021E-03  -1.37880454E-02
  -8.05000030E-03  -1.39221465E-02
  -8.00000038E-03  -1.40557131E-02
  -7.95000046E-03  -1.41883669E-02
  -7.89999962E-03  -1.43198632E-02
  -7.84999970E-03  -1.44501664E-02
  -7.79999979E-03  -1.45794805E-02
  -7.74999987E-03  -1.47080785E-02
  -7.69999996E-03  -1.48361968E-02
  -7.65000004E-03  -1.49639137E-02
  -7.60000013E-03  -1.50910085E-02
  -7.55000021E-03  -1.52170900E-02
  -7.49999983E-03  -1.53416945E-02
  -7.44999992E-03  -1.54645303E-02
  -7.40000000E-03  -1.55854989E-02
  -7.35000009E-03  -1.57047100E-02
  -7.30000017E-03  -1.58225000E-02
  -7.24999979E-03  -1.59391351E-02
  -7.19999988E-03  -1.60547085E-02
  -7.14999996E-03  -1.61690768E-02
  -7.10000005E-03  -1.62818115E-02
  -7.05000013E-03  -1.63923651E-02
  -7.00000022E-03  -1.65002942E-02
  -6.94999984E-03  -1.66054256E-02
  -6.89999992E-03  -1.67079177E-02
  -6.85000001E-03  -1.68081354E-02
  -6.80000009E-03  -1.69064328E-02
  -6.75000018E-03  -1.70029663E-02
  -6.69999979E-03  -1.70975290E-02
  -6.64999988E-03  -1.71896443E-02
  -6.59999996E-03  -1.72787029E-02
  -6.55000005E-03  -1.73641890E-02
  -6.50000013E-03  -1.74459014E-02
  -6.45000022E-03  -1.75239537E-02
  -6.39999984E-03  -1.75988004E-02
  -6.34999992E-03  -1.76709406E-02
  -6.30000001E-03  -1.77405663E-02
  -6.25000009E-03  -1.78074520E-02
  -6.20000018E-03  -1.78710446E-02
  -6.14999980E-03  -1.79306809E-02
  -6.09999988E-03  -1.79857071E-02
  -6.04999997E-03  -1.80357937E-02
  -6.00000005E-03  -1.80810932E-02
  -5.95000014E-03  -1.81220137E-02
  -5.90000022E-03  -1.81590226E-02
  -5.84999984E-03  -1.81924067E-02
  -5.79999993E-03  -1.82220340E-02
  -5.75000001E-03  -1.82473958E-02
  -5.70000010E-03  -1.82677135E-02
  -5.65000018E-03  -1.82822105E-02
  -5.59999980E-03  -1.82904694E-02
  -5.54999989E-03  -1.82925425E-02
  -5.49999997E-03  -1.82888620E-02
  -5.45000006E-03  -1.82799641E-02
  -5.40000014E-03  -1.82662606E-02
  -5.35000023E-03  -1.82477795E-02
  -5.29999984E-03  -1.82240233E-02
  -5.24999993E-03  -1.81941818E-02
  -5.20000001E-03  -1.81573648E-02
  -5.15000010E-03  -1.81129705E-02
  -5.10000018E-03  -1.80609189E-02
  -5.04999980E-03  -1.80015378E-02
  -4.99999989E-03  -1.79354809E-02
  -4.94999997E-03  -1.78632736E-02
  -4.90000006E-03  -1.77849103E-02
  -4.85000014E-03  -1.76999904E-02
  -4.80000023E-03  -1.76077373E-02
  -4.74999985E-03  -1.75071266E-02
  -4.69999993E-03  -1.73973292E-02
  -4.65000002E-03  -1.72780808E-02
  -4.60000010E-03  -1.71496626E-02
  -4.55000019E-03  -1.70126781E-02
  -4.49999981E-03  -1.68678239E-02
  -4.44999989E-03  -1.67154726E-02
  -4.39999998E-03  -1.65553056E-02
  -4.35000006E-03  -1.63864754E-02
  -4.30000015E-03  -1.62077732E-02
  -4.25000023E-03  -1.60181820E-02
  -4.19999985E-03  -1.58173665E-02
  -4.14999994E-03  -1.56055726E-02
  -4.10000002E-03  -1.53835416E-02
  -4.05000011E-03  -1.51520642E-02
  -4.00000019E-03  -1.49115697E-02
  -3.94999981E-03  -1.46617647E-02
  -3.89999989E-03  -1.44016743E-02
  -3.84999998E-03  -1.41301109E-02
  -3.80000006E-03  -1.38460109E-02
  -3.74999992E-03  -1.35487514E-02
  -3.70000000E-03  -1.32384319E-02
  -3.65000009E-03  -1.29158320E-02
  -3.59999994E-03  -1.25818197E-02
  -3.55000002E-03  -1.22368876E-02
  -3.50000011E-03  -1.18809668E-02
  -3.44999996E-03  -1.15132360E-02
  -3.40000005E-03  -1.11323763E-02
  -3.34999990E-03  -1.07370187E-02
  -3.29999998E-03  -1.03263306E-02
  -3.25000007E-03  -9.90041252E-03
  -3.19999992E-03  -9.45999380E-03
  -3.15000000E-03  -9.00605135E-03
  -3.10000009E-03  -8.53940658E-03
  -3.04999994E-03  -8.06020852E-03
  -3.00000003E-03  -7.56767858E-03
  -2.95000011E-03  -7.06038531E-03
  -2.89999996E-03  -6.53691171E-03
  -2.85000005E-03  -5.99623332E-03
  -2.79999990E-03  -5.43806097E-03
  -2.74999999E-03  -4.86302748E-03
  -2.70000007E-03  -4.27225232E-03
  -2.64999992E-03  -3.66667518E-03
  -2.60000001E-03  -3.04668606E-03
  -2.55000009E-03  -2.41176621E-03
  -2.49999994E-03  -1.76045531E-03
  -2.45000003E-03  -1.09108153E-03
  -2.40000011E-03  -4.02384467E-04
  -2.34999997E-03   3.06131784E-04
  -2.30000005E-03   1.03399425E-03
  -2.24999990E-03   1.77994242E-03
  -2.19999999E-03   2.54277396E-03
  -2.15000007E-03   3.32190702E-03
  -2.09999993E-03   4.11780691E-03
  -2.05000001E-03   4.93181357E-03
  -2.00000009E-03   5.76553727E-03
  -1.94999995E-03   6.62048161E-03
  -1.90000003E-03   7.49725197E-03
  -1.85000000E-03   8.39550048E-03
  -1.79999997E-03   9.31413751E-03
  -1.75000005E-03   1.02517735E-02
  -1.70000002E-03   1.12076001E-02
  -1.64999999E-03   1.21818017E-02
  -1.59999996E-03   1.31755490E-02
  -1.55000004E-03   1.41906654E-02
  -1.50000001E-03   1.52288508E-02
  -1.44999998E-03   1.62910149E-02
  -1.39999995E-03   1.73769258E-02
  -1.35000004E-03   1.84854660E-02
  -1.30000000E-03   1.96152721E-02
  -1.24999997E-03   2.07652897E-02
  -1.20000006E-03   2.19353549E-02
  -1.15000003E-03   2.31263880E-02
  -1.09999999E-03   2.43401863E-02
  -1.04999996E-03   2.55787745E-02
  -1.00000005E-03   2.68433429E-02
  -9.50000016E-04   2.81339269E-02
  -8.99999985E-04   2.94495299E-02
  -8.50000011E-04   3.07885017E-02
  -7.99999980E-04   3.21493633E-02
  -7.50000007E-04   3.35315131E-02
  -6.99999975E-04   3.49356532E-02
  -6.50000002E-04   3.63635644E-02
  -6.00000028E-04   3.78174409E-02
  -5.49999997E-04   3.92989218E-02
  -5.00000024E-04   4.08083871E-02
  -4.49999992E-04   4.23448794E-02
  -3.99999990E-04   4.39066403E-02
  -3.49999988E-04   4.54919375E-02
  -3.00000014E-04   4.70997766E-02
  -2.50000012E-04   4.87306081E-02
  -1.99999995E-04   5.03861681E-02
  -1.50000007E-04   5.20687662E-02
  -9.99999975E-05   5.37803695E-02
  -4.99999987E-05   5.55217117E-02
   0.00000000       5.72919846E-02
   4.99999987E-05   5.90893142E-02
   9.99999975E-05   6.09116778E-02
   1.50000007E-04   6.27577007E-02
   1.99999995E-04   6.46273568E-02
   2.50000012E-04   6.65221885E-02
   3.00000014E-04   6.84445649E-02
   3.49999988E-04   7.03966245E-02
   3.99999990E-04   7.23793954E-02
   4.49999992E-04   7.43924230E-02
   5.00000024E-04   7.64339268E-02
   5.49999997E-04   7.85015821E-02
   6.00000028E-04   8.05935785E-02
   6.50000002E-04   8.27094838E-02
   6.99999975E-04   8.48504454E-02
   7.50000007E-04   8.70187655E-02
   7.99999980E-04   8.92168805E-02
   8.50000011E-04   9.14462581E-02
   8.99999985E-04   9.37068388E-02
   9.50000016E-04   9.59970057E-02
   1.00000005E-03   9.83143151E-02
   1.04999996E-03  0.100656629    
   1.09999999E-03  0.103022970    
   1.15000003E-03  0.105413996    
   1.20000006E-03  0.107831739    
   1.24999997E-03  0.110278644    
   1.30000000E-03  0.112756521    
   1.35000004E-03  0.115265697    
   1.39999995E-03  0.117804840    
   1.44999998E-03  0.120371483    
   1.50000001E-03  0.122963130    
   1.55000004E-03  0.125578314    
   1.59999996E-03  0.128217146    
   1.64999999E-03  0.130881324    
   1.70000002E-03  0.133573249    
   1.75000005E-03  0.136295021    
   1.79999997E-03  0.139047384    
   1.85000000E-03  0.141829431    
   1.90000003E-03  0.144638821    
   1.94999995E-03  0.147472799    
   2.00000009E-03  0.150329366    
   2.05000001E-03  0.153208077    
   2.09999993E-03  0.156110138    
   2.15000007E-03  0.159037858    
   2.19999999E-03  0.161993489    
   2.24999990E-03  0.164978236    
   2.30000005E-03  0.167991623    
   2.34999997E-03  0.171031490    
   2.40000011E-03  0.174094841    
   2.45000003E-03  0.177178964    
   2.49999994E-03  0.180282608    
   2.55000009E-03  0.183406591    
   2.60000001E-03  0.186553285    
   2.64999992E-03  0.189725131    
   2.70000007E-03  0.192923576    
   2.74999999E-03  0.196148440    
   2.79999990E-03  0.199397981    