  -3.99999991E-02   0.00000000    
  -3.99499983E-02   0.00000000    
  -3.99000011E-02   0.00000000    
  -3.98500003E-02   0.00000000    
  -3.97999994E-02   0.00000000    
  -3.97499986E-02  -1.10224781E-23
  -3.97000015E-02  -5.66256664E-23
  -3.96500006E-02   1.25390561E-23
  -3.95999998E-02   1.30905664E-21
  -3.95499989E-02   7.74936160E-21
  -3.95000018E-02   2.87838691E-20
  -3.94500010E-02   8.15337390E-20
  -3.94000001E-02   1.89535034E-19
  -3.93499993E-02   3.75405452E-19
  -3.92999984E-02   6.47469679E-19
  -3.92500013E-02   9.85299082E-19
  -3.92000005E-02   1.33358472E-18
  -3.91499996E-02   1.61381645E-18
  -3.90999988E-02   1.75615200E-18
  -3.90500017E-02   1.74093271E-18
  -3.90000008E-02   1.62688590E-18
  -3.89500000E-02   1.54021692E-18
  -3.88999991E-02   1.61190721E-18
  -3.88499983E-02   1.87759949E-18
  -3.88000011E-02   2.18334012E-18
  -3.87500003E-02   2.15332815E-18
  -3.86999995E-02   1.25890903E-18
  -3.86499986E-02  -1.01845744E-18
  -3.86000015E-02  -4.99564274E-18
  -3.85500006E-02  -1.06722958E-17
  -3.84999998E-02  -1.77870202E-17
  -3.84499989E-02  -2.60736527E-17
  -3.84000018E-02  -3.56400825E-17
  -3.83500010E-02  -4.72966158E-17
  -3.83000001E-02  -6.26341160E-17
  -3.82499993E-02  -8.37300009E-17
  -3.81999984E-02  -1.12527626E-16
  -3.81500013E-02  -1.50121145E-16
  -3.81000005E-02  -1.96285248E-16
  -3.80499996E-02  -2.49542312E-16
  -3.79999988E-02  -3.07850366E-16
  -3.79500017E-02  -3.69701718E-16
  -3.79000008E-02  -4.35178476E-16
  -3.78500000E-02  -5.06446875E-16
  -3.77999991E-02  -5.87353927E-16
  -3.77499983E-02  -6.82169101E-16
  -3.77000012E-02  -7.93932452E-16
  -3.76500003E-02  -9.23130493E-16
  -3.75999995E-02  -1.06735543E-15
  -3.75499986E-02  -1.22220480E-15
  -3.75000015E-02  -1.38310496E-15
  -3.74500006E-02  -1.54724830E-15
  -3.73999998E-02  -1.71470163E-15
  -3.73499990E-02  -1.88803411E-15
  -3.73000018E-02  -2.07046489E-15
  -3.72500010E-02  -2.26321168E-15
  -3.72000001E-02  -2.46316101E-15
  -3.71499993E-02  -2.66192873E-15
  -3.70999984E-02  -2.84683920E-15
  -3.70500013E-02  -3.00356189E-15
  -3.70000005E-02  -3.11942456E-15
  -3.69499996E-02  -3.18611422E-15
  -3.68999988E-02  -3.20073655E-15
  -3.68500017E-02  -3.16486513E-15
  -3.68000008E-02  -3.08199926E-15
  -3.67500000E-02  -2.95435859E-15
  -3.66999991E-02  -2.78006208E-15
  -3.66499983E-02  -2.55145848E-15
  -3.66000012E-02  -2.25494867E-15
  -3.65500003E-02  -1.87225304E-15
  -3.64999995E-02  -1.38284047E-15
  -3.64499986E-02  -7.67056202E-16
  -3.64000015E-02  -9.30441952E-18
  -3.63500006E-02   8.99587212E-16
  -3.62999998E-02   1.96181153E-15
  -3.62499990E-02   3.17458589E-15
  -3.62000018E-02   4.53464001E-15
  -3.61500010E-02   6.04381428E-15
  -3.61000001E-02   7.71312183E-15
  -3.60499993E-02   9.56221847E-15
  -3.59999985E-02   1.16124202E-14
  -3.59500013E-02   1.38742345E-14
  -3.59000005E-02   1.63338801E-14
  -3.58499996E-02   1.89456520E-14
  -3.57999988E-02   2.16364131E-14
  -3.57500017E-02   2.43243434E-14
  -3.57000008E-02   2.69471725E-14
  -3.56500000E-02   2.94887507E-14
  -3.55999991E-02   3.19901339E-14
  -3.55499983E-02   3.45352104E-14
  -3.55000012E-02   3.72110417E-14
  -3.54500003E-02   4.00556765E-14
  -3.53999995E-02   4.30159719E-14
  -3.53499986E-02   4.59381509E-14
  -3.53000015E-02   4.86029877E-14
  -3.52500007E-02   5.07977110E-14
  -3.51999998E-02   5.23967703E-14
  -3.51499990E-02   5.34133081E-14
  -3.51000018E-02   5.39900596E-14
  -3.50500010E-02   5.43223608E-14
  -3.50000001E-02   5.45388082E-14
  -3.49499993E-02   5.45912633E-14
  -3.48999985E-02   5.42112809E-14
  -3.48500013E-02   5.29680907E-14
  -3.48000005E-02   5.04191381E-14
  -3.47499996E-02   4.62965475E-14
  -3.46999988E-02   4.06445710E-14
  -3.46500017E-02   3.38322374E-14
  -3.46000008E-02   2.64135756E-14
  -3.45500000E-02   1.88783163E-14
  -3.44999991E-02   1.13969825E-14
  -3.44499983E-02   3.68411602E-15
  -3.44000012E-02  -4.93477753E-15
  -3.43500003E-02  -1.52534828E-14
  -3.42999995E-02  -2.78131484E-14
  -3.42499986E-02  -4.25945053E-14
  -3.42000015E-02  -5.89343299E-14
  -3.41500007E-02  -7.57403512E-14
  -3.40999998E-02  -9.19431632E-14
  -3.40499990E-02  -1.06998205E-13
  -3.40000018E-02  -1.21198421E-13
  -3.39500010E-02  -1.35616155E-13
  -3.39000002E-02  -1.51647588E-13
  -3.38499993E-02  -1.70324204E-13
  -3.37999985E-02  -1.91692365E-13
  -3.37500013E-02  -2.14572094E-13
  -3.37000005E-02  -2.36864808E-13
  -3.36499996E-02  -2.56337269E-13
  -3.35999988E-02  -2.71568358E-13
  -3.35500017E-02  -2.82626001E-13
  -3.35000008E-02  -2.91114653E-13
  -3.34500000E-02  -2.99491958E-13
  -3.33999991E-02  -3.09893008E-13
  -3.33499983E-02  -3.22967185E-13
  -3.33000012E-02  -3.37289387E-13
  -3.32500003E-02  -3.49698406E-13
  -3.31999995E-02  -3.56512373E-13
  -3.31499986E-02  -3.55141155E-13
  -3.31000015E-02  -3.45369024E-13
  -3.30500007E-02  -3.29652728E-13
  -3.29999998E-02  -3.12177205E-13
  -3.29499990E-02  -2.96977883E-13
  -3.29000019E-02  -2.85921297E-13
  -3.28500010E-02  -2.77493984E-13
  -3.28000002E-02  -2.67068756E-13
  -3.27499993E-02  -2.48686000E-13
  -3.26999985E-02  -2.17667681E-13
  -3.26500013E-02  -1.72910555E-13
  -3.26000005E-02  -1.17736523E-13
  -3.25499997E-02  -5.87469797E-14
  -3.24999988E-02  -3.02337378E-15
  -3.24500017E-02   4.51607745E-14
  -3.24000008E-02   8.65991374E-14
  -3.23500000E-02   1.27202936E-13
  -3.22999991E-02   1.75596300E-13
  -3.22499983E-02   2.39155890E-13
  -3.22000012E-02   3.20225373E-13
  -3.21500003E-02   4.14323361E-13
  -3.20999995E-02   5.11394854E-13
  -3.20499986E-02   5.99812029E-13
  -3.20000015E-02   6.71496441E-13
  -3.19500007E-02   7.25845924E-13
  -3.18999998E-02   7.70495755E-13
  -3.18499990E-02   8.18257625E-13
  -3.18000019E-02   8.81327509E-13
  -3.17500010E-02   9.65243402E-13
  -3.17000002E-02   1.06542076E-12
  -3.16499993E-02   1.16812668E-12
  -3.15999985E-02   1.25582834E-12
  -3.15500014E-02   1.31477999E-12
  -3.15000005E-02   1.34147251E-12
  -3.14499997E-02   1.34481413E-12
  -3.13999988E-02   1.34265364E-12
  -3.13500017E-02   1.35380921E-12
  -3.13000008E-02   1.38897520E-12
  -3.12500000E-02   1.44469625E-12
  -3.11999992E-02   1.50349871E-12
  -3.11500002E-02   1.54062971E-12
  -3.10999993E-02   1.53478586E-12
  -3.10500003E-02   1.47812296E-12
  -3.09999995E-02   1.38079890E-12
  -3.09500005E-02   1.26748904E-12
  -3.08999997E-02   1.16687031E-12
  -3.08500007E-02   1.09844891E-12
  -3.07999998E-02   1.06268282E-12
  -3.07500008E-02   1.03927012E-12
  -3.07000000E-02   9.95017220E-13
  -3.06499992E-02   8.98326281E-13
  -3.06000002E-02   7.34027097E-13
  -3.05499993E-02   5.11650780E-13
  -3.05000003E-02   2.62805186E-13
  -3.04499995E-02   2.80892778E-14
  -3.04000005E-02  -1.61095245E-13
  -3.03499997E-02  -2.97707307E-13
  -3.03000007E-02  -4.03906888E-13
  -3.02499998E-02  -5.22575310E-13
  -3.02000009E-02  -6.98518554E-13
  -3.01500000E-02  -9.57379575E-13
  -3.00999992E-02  -1.29191254E-12
  -3.00500002E-02  -1.66251030E-12
  -2.99999993E-02  -2.01271660E-12
  -2.99500003E-02  -2.29353862E-12
  -2.98999995E-02  -2.48586525E-12
  -2.98500005E-02  -2.61047672E-12
  -2.97999997E-02  -2.72019495E-12
  -2.97500007E-02  -2.87666527E-12
  -2.96999998E-02  -3.12155119E-12
  -2.96500009E-02  -3.45514329E-12
  -2.96000000E-02  -3.83277091E-12
  -2.95499992E-02  -4.18180161E-12
  -2.95000002E-02  -4.43265737E-12
  -2.94499993E-02  -4.55035228E-12
  -2.94000003E-02  -4.55200808E-12
  -2.93499995E-02  -4.50137497E-12
  -2.93000005E-02  -4.48149851E-12
  -2.92499997E-02  -4.55684015E-12
  -2.92000007E-02  -4.74171050E-12
  -2.91499998E-02  -4.98996157E-12
  -2.91000009E-02  -5.21194416E-12
  -2.90500000E-02  -5.31249870E-12
  -2.89999992E-02  -5.23369455E-12
  -2.89500002E-02  -4.98289300E-12
  -2.88999993E-02  -4.63239820E-12
  -2.88500004E-02  -4.28926035E-12
  -2.87999995E-02  -4.04749238E-12
  -2.87500005E-02  -3.94372252E-12
  -2.86999997E-02  -3.93689248E-12
  -2.86500007E-02  -3.92266514E-12
  -2.85999998E-02  -3.77779622E-12
  -2.85500009E-02  -3.41569546E-12
  -2.85000000E-02  -2.82823656E-12
  -2.84499992E-02  -2.09387022E-12
  -2.84000002E-02  -1.34652890E-12
  -2.83499993E-02  -7.17524944E-13
  -2.83000004E-02  -2.75684369E-13
  -2.82499995E-02   6.92250593E-15
  -2.82000005E-02   2.46631735E-13
  -2.81499997E-02   5.98863136E-13
  -2.81000007E-02   1.18833296E-12
  -2.80499998E-02   2.04970936E-12
  -2.80000009E-02   3.10637085E-12
  -2.79500000E-02   4.19884917E-12
  -2.78999992E-02   5.15237289E-12
  -2.78500002E-02   5.85451913E-12
  -2.77999993E-02   6.30798669E-12
  -2.77500004E-02   6.63318142E-12
  -2.76999995E-02   7.01706835E-12
  -2.76500005E-02   7.62910481E-12
  -2.75999997E-02   8.54109405E-12
  -2.75500007E-02   9.68772632E-12
  -2.74999999E-02   1.08876944E-11
  -2.74500009E-02   1.19185686E-11
  -2.74000000E-02   1.26138024E-11
  -2.73499992E-02   1.29387031E-11
  -2.73000002E-02   1.30098519E-11
  -2.72499993E-02   1.30466523E-11
  -2.72000004E-02   1.32740425E-11
  -2.71499995E-02   1.38184750E-11
  -2.71000005E-02   1.46441834E-11
  -2.70499997E-02   1.55603967E-11
  -2.70000007E-02   1.62993109E-11
  -2.69499999E-02   1.66323691E-11
  -2.69000009E-02   1.64737026E-11
  -2.68500000E-02   1.59232072E-11
  -2.67999992E-02   1.52271858E-11
  -2.67500002E-02   1.46710144E-11
  -2.66999993E-02   1.44496793E-11
  -2.66500004E-02   1.45740208E-11
  -2.65999995E-02   1.48566784E-11
  -2.65500005E-02   1.49873603E-11
  -2.64999997E-02   1.46670037E-11
  -2.64500007E-02   1.37425054E-11
  -2.63999999E-02   1.22810269E-11
  -2.63500009E-02   1.05479349E-11
  -2.63000000E-02   8.89450406E-12
  -2.62499992E-02   7.60263207E-12
  -2.62000002E-02   6.75508434E-12
  -2.61499994E-02   6.19089459E-12
  -2.61000004E-02   5.56934316E-12
  -2.60499995E-02   4.51779412E-12
  -2.60000005E-02   2.79985713E-12
  -2.59499997E-02   4.28735389E-13
  -2.59000007E-02  -2.32743967E-12
  -2.58499999E-02  -5.05475956E-12
  -2.58000009E-02  -7.37221915E-12
  -2.57500000E-02  -9.10196224E-12
  -2.56999992E-02  -1.03540189E-11
  -2.56500002E-02  -1.14842129E-11
  -2.55999994E-02  -1.29394958E-11
  -2.55500004E-02  -1.50562670E-11
  -2.54999995E-02  -1.79007018E-11
  -2.54500005E-02  -2.12244944E-11
  -2.53999997E-02  -2.45600519E-11
  -2.53500007E-02  -2.74173063E-11
  -2.52999999E-02  -2.94973039E-11
  -2.52500009E-02  -3.08271152E-11
  -2.52000000E-02  -3.17527810E-11
  -2.51499992E-02  -3.27884178E-11
  -2.51000002E-02  -3.43844606E-11
  -2.50499994E-02  -3.67162793E-11
  -2.50000004E-02  -3.95889953E-11
  -2.49499995E-02  -4.25052563E-11
  -2.49000005E-02  -4.48712248E-11
  -2.48499997E-02  -4.62531298E-11
  -2.48000007E-02  -4.65709762E-11
  -2.47499999E-02  -4.61403485E-11
  -2.47000009E-02  -4.55384341E-11
  -2.46500000E-02  -4.53483813E-11
  -2.45999992E-02  -4.58925155E-11
  -2.45500002E-02  -4.70737269E-11
  -2.44999994E-02  -4.83997217E-11
  -2.44500004E-02  -4.91854543E-11
  -2.43999995E-02  -4.88490047E-11
  -2.43500005E-02  -4.71714091E-11
  -2.42999997E-02  -4.44029848E-11
  -2.42500007E-02  -4.11633609E-11
  -2.41999999E-02  -3.81733638E-11
  -2.41500009E-02  -3.59332702E-11
  -2.41000000E-02  -3.44898346E-11
  -2.40499992E-02  -3.33994013E-11
  -2.40000002E-02  -3.19100579E-11
  -2.39499994E-02  -2.92885091E-11
  -2.39000004E-02  -2.51501320E-11
  -2.38499995E-02  -1.96446834E-11
  -2.38000005E-02  -1.34098531E-11
  -2.37499997E-02  -7.30605767E-12
  -2.37000007E-02  -2.04398456E-12
  -2.36499999E-02   2.13192311E-12
  -2.36000009E-02   5.56073243E-12
  -2.35500000E-02   9.02429086E-12
  -2.34999992E-02   1.34032421E-11
  -2.34500002E-02   1.92772083E-11
  -2.33999994E-02   2.66461367E-11
  -2.33500004E-02   3.49012381E-11
  -2.32999995E-02   4.30663387E-11
  -2.32500006E-02   5.02101798E-11
  -2.31999997E-02   5.58507476E-11
  -2.31500007E-02   6.01705352E-11
  -2.30999999E-02   6.39406722E-11
  -2.30500009E-02   6.81788861E-11
  -2.30000000E-02   7.36858977E-11
  -2.29499992E-02   8.06638298E-11
  -2.29000002E-02   8.85898715E-11
  -2.28499994E-02   9.64095886E-11
  -2.28000004E-02   1.02973345E-10
  -2.27499995E-02   1.07528410E-10
  -2.27000006E-02   1.10048609E-10
  -2.26499997E-02   1.11249343E-10
  -2.26000007E-02   1.12271928E-10
  -2.25499999E-02   1.14168335E-10
  -2.25000009E-02   1.17410914E-10
  -2.24500000E-02   1.21647012E-10
  -2.23999992E-02   1.25815580E-10
  -2.23500002E-02   1.28584726E-10
  -2.22999994E-02   1.28924205E-10
  -2.22500004E-02   1.26561095E-10
  -2.21999995E-02   1.22111529E-10
  -2.21500006E-02   1.16820068E-10
  -2.20999997E-02   1.12011914E-10
  -2.20500007E-02   1.08493957E-10
  -2.19999999E-02   1.06171440E-10
  -2.19500009E-02   1.04057617E-10
  -2.19000001E-02   1.00683711E-10
  -2.18499992E-02   9.47376760E-11
  -2.18000002E-02   8.56530055E-11
  -2.17499994E-02   7.38831010E-11
  -2.17000004E-02   6.07297615E-11
  -2.16499995E-02   4.77899248E-11
  -2.16000006E-02   3.62572888E-11
  -2.15499997E-02   2.63869534E-11
  -2.15000007E-02   1.73671494E-11
  -2.14499999E-02   7.66675265E-12
  -2.14000009E-02  -4.28343732E-12
  -2.13500001E-02  -1.93709736E-11
  -2.12999992E-02  -3.73643096E-11
  -2.12500002E-02  -5.69609880E-11
  -2.11999994E-02  -7.63132543E-11
  -2.11500004E-02  -9.38092520E-11
  -2.10999995E-02  -1.08767349E-10
  -2.10500006E-02  -1.21731125E-10
  -2.09999997E-02  -1.34222300E-10
  -2.09500007E-02  -1.48047768E-10
  -2.08999999E-02  -1.64458669E-10
  -2.08500009E-02  -1.83533785E-10
  -2.08000001E-02  -2.04068804E-10
  -2.07499992E-02  -2.24034347E-10
  -2.07000002E-02  -2.41412834E-10
  -2.06499994E-02  -2.55049815E-10
  -2.06000004E-02  -2.65139605E-10
  -2.05499995E-02  -2.73119055E-10
  -2.05000006E-02  -2.81001861E-10
  -2.04499997E-02  -2.90437424E-10
  -2.04000007E-02  -3.01908304E-10
  -2.03499999E-02  -3.14429260E-10
  -2.03000009E-02  -3.25895061E-10
  -2.02500001E-02  -3.33938183E-10
  -2.01999992E-02  -3.36926070E-10
  -2.01500002E-02  -3.34655276E-10
  -2.00999994E-02  -3.28425981E-10
  -2.00500004E-02  -3.20448168E-10
  -1.99999996E-02  -3.12829707E-10
  -1.99500006E-02  -3.06589060E-10
  -1.98999997E-02  -3.01134534E-10
  -1.98500007E-02  -2.94454461E-10
  -1.97999999E-02  -2.83949725E-10
  -1.97500009E-02  -2.67551564E-10
  -1.97000001E-02  -2.44632037E-10
  -1.96499992E-02  -2.16295246E-10
  -1.96000002E-02  -1.84905646E-10
  -1.95499994E-02  -1.53047811E-10
  -1.95000004E-02  -1.22369670E-10
  -1.94499996E-02  -9.28250324E-11
  -1.94000006E-02  -6.26622851E-11
  -1.93499997E-02  -2.91817508E-11
  -1.93000007E-02   1.00601576E-11
  -1.92499999E-02   5.61280744E-11
  -1.92000009E-02   1.08169286E-10
  -1.91500001E-02   1.63712474E-10
  -1.90999992E-02   2.19687435E-10
  -1.90500002E-02   2.73724571E-10
  -1.89999994E-02   3.25159566E-10
  -1.89500004E-02   3.75287496E-10
  -1.88999996E-02   4.26738284E-10
  -1.88500006E-02   4.82234253E-10
  -1.87999997E-02   5.43273204E-10
  -1.87500007E-02   6.09323481E-10
  -1.86999999E-02   6.77901291E-10
  -1.86500009E-02   7.45512596E-10
  -1.86000001E-02   8.09055545E-10
  -1.85499992E-02   8.67066585E-10
  -1.85000002E-02   9.20249044E-10
  -1.84499994E-02   9.71036251E-10
  -1.84000004E-02   1.02236530E-09
  -1.83499996E-02   1.07619436E-09
  -1.83000006E-02   1.13242205E-09
  -1.82499997E-02   1.18869747E-09
  -1.82000007E-02   1.24122324E-09
  -1.81499999E-02   1.28621025E-09
  -1.81000009E-02   1.32134681E-09
  -1.80500001E-02   1.34662748E-09
  -1.79999992E-02   1.36416001E-09
  -1.79500002E-02   1.37702061E-09
  -1.78999994E-02   1.38765233E-09
  -1.78500004E-02   1.39651479E-09
  -1.77999996E-02   1.40159151E-09
  -1.77500006E-02   1.39899092E-09
  -1.76999997E-02   1.38439094E-09
  -1.76500008E-02   1.35469547E-09
  -1.75999999E-02   1.30916988E-09
  -1.75500009E-02   1.24953836E-09
  -1.75000001E-02   1.17898669E-09
  -1.74499992E-02   1.10049558E-09
  -1.74000002E-02   1.01524111E-09
  -1.73499994E-02   9.21774101E-10
  -1.73000004E-02   8.16358536E-10
  -1.72499996E-02   6.94335256E-10
  -1.72000006E-02   5.51918011E-10
  -1.71499997E-02   3.87628651E-10
  -1.71000008E-02   2.02726030E-10
  -1.70499999E-02   4.24913577E-13
  -1.70000009E-02  -2.15764767E-10
  -1.69500001E-02  -4.43848014E-10
  -1.68999992E-02  -6.84499568E-10
  -1.68500002E-02  -9.41038469E-10
  -1.67999994E-02  -1.21821764E-09
  -1.67500004E-02  -1.52035029E-09
  -1.66999996E-02  -1.84960014E-09
  -1.66500006E-02  -2.20519913E-09
  -1.65999997E-02  -2.58395172E-09
  -1.65500008E-02  -2.98181946E-09
  -1.64999999E-02  -3.39589312E-09
  -1.64500009E-02  -3.82587784E-09
  -1.64000001E-02  -4.27442393E-09
  -1.63499992E-02  -4.74614348E-09
  -1.63000003E-02  -5.24573318E-09
  -1.62499994E-02  -5.77602588E-09
  -1.62000004E-02  -6.33684527E-09
  -1.61499996E-02  -6.92517332E-09
  -1.61000006E-02  -7.53658291E-09
  -1.60499997E-02  -8.16729706E-09
  -1.60000008E-02  -8.81598350E-09
  -1.59499999E-02  -9.48445855E-09
  -1.59000009E-02  -1.01770077E-08
  -1.58500001E-02  -1.08985780E-08
  -1.57999992E-02  -1.16526477E-08
  -1.57500003E-02  -1.24397346E-08
  -1.56999994E-02  -1.32571829E-08
  -1.56500004E-02  -1.41003618E-08
  -1.55999996E-02  -1.49647530E-08
  -1.55499997E-02  -1.58480038E-08
  -1.54999997E-02  -1.67510290E-08
  -1.54499998E-02  -1.76776762E-08
  -1.53999999E-02  -1.86330773E-08
  -1.53500000E-02  -1.96214156E-08
  -1.53000001E-02  -2.06440998E-08
  -1.52500002E-02  -2.16991403E-08
  -1.52000003E-02  -2.27820536E-08
  -1.51500003E-02  -2.38878819E-08
  -1.51000004E-02  -2.50134331E-08
  -1.50499996E-02  -2.61587729E-08
  -1.49999997E-02  -2.73272942E-08
  -1.49499997E-02  -2.85242869E-08
  -1.48999998E-02  -2.97546769E-08
  -1.48499999E-02  -3.10209174E-08
  -1.48000000E-02  -3.23219638E-08
  -1.47500001E-02  -3.36538122E-08
  -1.47000002E-02  -3.50113574E-08
  -1.46500003E-02  -3.63907944E-08
  -1.46000003E-02  -3.77914411E-08
  -1.45500004E-02  -3.92162427E-08
  -1.44999996E-02  -4.06706384E-08
  -1.44499997E-02  -4.21603836E-08
  -1.43999998E-02  -4.36891696E-08
  -1.43499998E-02  -4.52572309E-08
  -1.42999999E-02  -4.68614516E-08
  -1.42500000E-02  -4.84970073E-08
  -1.42000001E-02  -5.01598088E-08
  -1.41500002E-02  -5.18486374E-08
  -1.41000003E-02  -5.35660583E-08
  -1.40500003E-02  -5.53176775E-08
  -1.40000004E-02  -5.71100642E-08
  -1.39499996E-02  -5.89482774E-08
  -1.38999997E-02  -6.08340400E-08
  -1.38499998E-02  -6.27654444E-08
  -1.37999998E-02  -6.47382734E-08
  -1.37499999E-02  -6.67484343E-08
  -1.37000000E-02  -6.87942929E-08
  -1.36500001E-02  -7.08780732E-08
  -1.36000002E-02  -7.30054808E-08
  -1.35500003E-02  -7.51838556E-08
  -1.35000004E-02  -7.74196351E-08
  -1.34500004E-02  -7.97161874E-08
  -1.33999996E-02  -8.20730790E-08
  -1.33499997E-02  -8.44870769E-08
  -1.32999998E-02  -8.69543513E-08
  -1.32499998E-02  -8.94730974E-08
  -1.31999999E-02  -9.20452337E-08
  -1.31500000E-02  -9.46764800E-08
  -1.31000001E-02  -9.73748513E-08
  -1.30500002E-02  -1.00148057E-07
  -1.30000003E-02  -1.03001099E-07
  -1.29500004E-02  -1.05935158E-07
  -1.29000004E-02  -1.08948086E-07
  -1.28499996E-02  -1.12036560E-07
  -1.27999997E-02  -1.15198645E-07
  -1.27499998E-02  -1.18435935E-07
  -1.26999998E-02  -1.21754042E-07
  -1.26499999E-02  -1.25161463E-07
  -1.26000000E-02  -1.28666997E-07
  -1.25500001E-02  -1.32277265E-07
  -1.25000002E-02  -1.35995094E-07
  -1.24500003E-02  -1.39819676E-07
  -1.24000004E-02  -1.43748352E-07
  -1.23500004E-02  -1.47779261E-07
  -1.22999996E-02  -1.51913710E-07
  -1.22499997E-02  -1.56157157E-07
  -1.21999998E-02  -1.60518283E-07
  -1.21499998E-02  -1.65006867E-07
  -1.20999999E-02  -1.69631008E-07
  -1.20500000E-02  -1.74395183E-07
  -1.20000001E-02  -1.79299988E-07
  -1.19500002E-02  -1.84343591E-07
  -1.19000003E-02  -1.89524300E-07
  -1.18500004E-02  -1.94843125E-07
  -1.18000004E-02  -2.00305180E-07
  -1.17499996E-02  -2.05919207E-07
  -1.16999997E-02  -2.11695678E-07
  -1.16499998E-02  -2.17643930E-07
  -1.15999999E-02  -2.23769987E-07
  -1.15499999E-02  -2.30075955E-07
  -1.15000000E-02  -2.36560936E-07
  -1.14500001E-02  -2.43223667E-07
  -1.14000002E-02  -2.50065028E-07
  -1.13500003E-02  -2.57089880E-07
  -1.13000004E-02  -2.64307090E-07
  -1.12500004E-02  -2.71727743E-07
  -1.11999996E-02  -2.79362411E-07
  -1.11499997E-02  -2.87218825E-07
  -1.10999998E-02  -2.95300651E-07
  -1.10499999E-02  -3.03608232E-07
  -1.09999999E-02  -3.12140827E-07
  -1.09500000E-02  -3.20899403E-07
  -1.09000001E-02  -3.29888593E-07
  -1.08500002E-02  -3.39117150E-07
  -1.08000003E-02  -3.48596615E-07
  -1.07500004E-02  -3.58338667E-07
  -1.07000005E-02  -3.68352630E-07
  -1.06499996E-02  -3.78643932E-07
  -1.05999997E-02  -3.89214421E-07
  -1.05499998E-02  -4.00064465E-07
  -1.04999999E-02  -4.11195515E-07
  -1.04499999E-02  -4.22612374E-07
  -1.04000000E-02  -4.34324136E-07
  -1.03500001E-02  -4.46343023E-07
  -1.03000002E-02  -4.58682109E-07
  -1.02500003E-02  -4.71352450E-07
  -1.02000004E-02  -4.84361578E-07
  -1.01500005E-02  -4.97713131E-07
  -1.00999996E-02  -5.11408871E-07
  -1.00499997E-02  -5.25450957E-07
  -9.99999978E-03  -5.39844564E-07
  -9.94999986E-03  -5.54599239E-07
  -9.89999995E-03  -5.69727888E-07
  -9.85000003E-03  -5.85244834E-07
  -9.80000012E-03  -6.01163094E-07
  -9.75000020E-03  -6.17492219E-07
  -9.70000029E-03  -6.34238177E-07
  -9.65000037E-03  -6.51404321E-07
  -9.60000046E-03  -6.68994176E-07
  -9.54999961E-03  -6.87013824E-07
  -9.49999969E-03  -7.05473724E-07
  -9.44999978E-03  -7.24387803E-07
  -9.39999986E-03  -7.43772034E-07
  -9.34999995E-03  -7.63641651E-07
  -9.30000003E-03  -7.84008876E-07
  -9.25000012E-03  -8.04882177E-07
  -9.20000020E-03  -8.26267240E-07
  -9.15000029E-03  -8.48169407E-07
  -9.10000037E-03  -8.70596239E-07
  -9.05000046E-03  -8.93559047E-07
  -8.99999961E-03  -9.17073237E-07
  -8.94999970E-03  -9.41156429E-07
  -8.89999978E-03  -9.65826189E-07
  -8.84999987E-03  -9.91097068E-07
  -8.79999995E-03  -1.01698026E-06
  -8.75000004E-03  -1.04348396E-06
  -8.70000012E-03  -1.07061555E-06
  -8.65000021E-03  -1.09838425E-06
  -8.60000029E-03  -1.12680277E-06
  -8.55000038E-03  -1.15588841E-06
  -8.50000046E-03  -1.18566084E-06
  -8.44999962E-03  -1.21613982E-06
  -8.39999970E-03  -1.24734311E-06
  -8.34999979E-03  -1.27928502E-06
  -8.29999987E-03  -1.31197658E-06
  -8.24999996E-03  -1.34542756E-06
  -8.20000004E-03  -1.37964969E-06
  -8.15000013E-03  -1.41465739E-06
  -8.10000021E-03  -1.45047011E-06
  -8.05000030E-03  -1.48710956E-06
  -8.00000038E-03  -1.52459813E-06
  -7.95000046E-03  -1.56295675E-06
  -7.89999962E-03  -1.60220281E-06
  -7.84999970E-03  -1.64235018E-06
  -7.79999979E-03  -1.68341182E-06
  -7.74999987E-03  -1.72540138E-06
  -7.69999996E-03  -1.76833578E-06
  -7.65000004E-03  -1.81223584E-06
  -7.60000013E-03  -1.85712611E-06
  -7.55000021E-03  -1.90303183E-06
  -7.49999983E-03  -1.94997688E-06
  -7.44999992E-03  -1.99798183E-06
  -7.40000000E-03  -2.04706430E-06
  -7.35000009E-03  -2.09724021E-06
  -7.30000017E-03  -2.14852616E-06
  -7.24999979E-03  -2.20094148E-06
  -7.19999988E-03  -2.25450981E-06
  -7.14999996E-03  -2.30925821E-06
  -7.10000005E-03  -2.36521532E-06
  -7.05000013E-03  -2.42240776E-06
  -7.00000022E-03  -2.48086008E-06
  -6.94999984E-03  -2.54059387E-06
  -6.89999992E-03  -2.60162801E-06
  -6.85000001E-03  -2.66398206E-06
  -6.80000009E-03  -2.72767852E-06
  -6.75000018E-03  -2.79274332E-06
  -6.69999979E-03  -2.85920646E-06
  -6.64999988E-03  -2.92709910E-06
  -6.59999996E-03  -2.99645239E-06
  -6.55000005E-03  -3.06729476E-06
  -6.50000013E-03  -3.13965120E-06
  -6.45000022E-03  -3.21354446E-06
  -6.39999984E-03  -3.28899705E-06
  -6.34999992E-03  -3.36603421E-06
  -6.30000001E-03  -3.44468503E-06
  -6.25000009E-03  -3.52498296E-06
  -6.20000018E-03  -3.60696254E-06
  -6.14999980E-03  -3.69065879E-06
  -6.09999988E-03  -3.77610445E-06
  -6.04999997E-03  -3.86332931E-06
  -6.00000005E-03  -3.95236066E-06
  -5.95000014E-03  -4.04322282E-06
  -5.90000022E-03  -4.13594580E-06
  -5.84999984E-03  -4.23056144E-06
  -5.79999993E-03  -4.32710658E-06
  -5.75000001E-03  -4.42562032E-06
  -5.70000010E-03  -4.52614222E-06
  -5.65000018E-03  -4.62870867E-06
  -5.59999980E-03  -4.73335422E-06
  -5.54999989E-03  -4.84010934E-06
  -5.49999997E-03  -4.94900451E-06
  -5.45000006E-03  -5.06007154E-06
  -5.40000014E-03  -5.17334638E-06
  -5.35000023E-03  -5.28886949E-06
  -5.29999984E-03  -5.40668316E-06
  -5.24999993E-03  -5.52683105E-06
  -5.20000001E-03  -5.64935590E-06
  -5.15000010E-03  -5.77429591E-06
  -5.10000018E-03  -5.90168656E-06
  -5.04999980E-03  -6.03156332E-06
  -4.99999989E-03  -6.16396073E-06
  -4.94999997E-03  -6.29891838E-06
  -4.90000006E-03  -6.43648036E-06
  -4.85000014E-03  -6.57669352E-06
  -4.80000023E-03  -6.71960652E-06
  -4.74999985E-03  -6.86526619E-06
  -4.69999993E-03  -7.01371619E-06
  -4.65000002E-03  -7.16499744E-06
  -4.60000010E-03  -7.31914815E-06
  -4.55000019E-03  -7.47620788E-06
  -4.49999981E-03  -7.63621938E-06
  -4.44999989E-03  -7.79922902E-06
  -4.39999998E-03  -7.96529002E-06
  -4.35000006E-03  -8.13445240E-06
  -4.30000015E-03  -8.30676890E-06
  -4.25000023E-03  -8.48228683E-06
  -4.19999985E-03  -8.66105256E-06
  -4.14999994E-03  -8.84310975E-06
  -4.10000002E-03  -9.02850115E-06
  -4.05000011E-03  -9.21727406E-06
  -4.00000019E-03  -9.40947666E-06
  -3.94999981E-03  -9.60516263E-06
  -3.89999989E-03  -9.80438836E-06
  -3.84999998E-03  -1.00072111E-05
  -3.80000006E-03  -1.02136828E-05
  -3.74999992E-03  -1.04238543E-05
  -3.70000000E-03  -1.06377756E-05
  -3.65000009E-03  -1.08554905E-05
  -3.59999994E-03  -1.10770488E-05
  -3.55000002E-03  -1.13025017E-05
  -3.50000011E-03  -1.15319053E-05
  -3.44999996E-03  -1.17653208E-05
  -3.40000005E-03  -1.20028071E-05
  -3.34999990E-03  -1.22444235E-05
  -3.29999998E-03  -1.24902217E-05
  -3.25000007E-03  -1.27402536E-05
  -3.19999992E-03  -1.29945674E-05
  -3.15000000E-03  -1.32532141E-05
  -3.10000009E-03  -1.35162481E-05
  -3.04999994E-03  -1.37837278E-05
  -3.00000003E-03  -1.40557140E-05
  -2.95000011E-03  -1.43322713E-05
  -2.89999996E-03  -1.46134598E-05
  -2.85000005E-03  -1.48993340E-05
  -2.79999990E-03  -1.51899494E-05
  -2.74999999E-03  -1.54853587E-05
  -2.70000007E-03  -1.57856102E-05
  -2.64999992E-03  -1.60907657E-05
  -2.60000001E-03  -1.64008798E-05
  -2.55000009E-03  -1.67160160E-05
  -2.49999994E-03  -1.70362346E-05
  -2.45000003E-03  -1.73616027E-05
  -2.40000011E-03  -1.76921785E-05
  -2.34999997E-03  -1.80280167E-05
  -2.30000005E-03  -1.83691718E-05
  -2.24999990E-03  -1.87156966E-05
  -2.19999999E-03  -1.90676419E-05
  -2.15000007E-03  -1.94250679E-05
  -2.09999993E-03  -1.97880345E-05
  -2.05000001E-03  -2.01566072E-05
  -2.00000009E-03  -2.05308497E-05
  -1.94999995E-03  -2.09108184E-05
  -1.90000003E-03  -2.12965733E-05
  -1.85000000E-03  -2.16881690E-05
  -1.79999997E-03  -2.20856564E-05
  -1.75000005E-03  -2.24890864E-05
  -1.70000002E-03  -2.28985209E-05
  -1.64999999E-03  -2.33140163E-05
  -1.59999996E-03  -2.37356289E-05
  -1.55000004E-03  -2.41634280E-05
  -1.50000001E-03  -2.45974643E-05
  -1.44999998E-03  -2.50377961E-05
  -1.39999995E-03  -2.54844836E-05
  -1.35000004E-03  -2.59375756E-05
  -1.30000000E-03  -2.63971215E-05
  -1.24999997E-03  -2.68631720E-05
  -1.20000006E-03  -2.73357819E-05
  -1.15000003E-03  -2.78150073E-05
  -1.09999999E-03  -2.83009031E-05
  -1.04999996E-03  -2.87935272E-05
  -1.00000005E-03  -2.92929381E-05
  -9.50000016E-04  -2.97991883E-05
  -8.99999985E-04  -3.03123252E-05
  -8.50000011E-04  -3.08323979E-05
  -7.99999980E-04  -3.13594574E-05
  -7.50000007E-04  -3.18935381E-05
  -6.99999975E-04  -3.24346911E-05
  -6.50000002E-04  -3.29829709E-05
  -6.00000028E-04  -3.35384248E-05
  -5.49999997E-04  -3.41011037E-05
  -5.00000024E-04  -3.46710658E-05
  -4.49999992E-04  -3.52483512E-05
  -3.99999990E-04  -3.58330035E-05
  -3.49999988E-04  -3.64250627E-05
  -3.00000014E-04  -3.70245616E-05
  -2.50000012E-04  -3.76315365E-05
  -1.99999995E-04  -3.82460348E-05
  -1.50000007E-04  -3.88681037E-05
  -9.99999975E-05  -3.94977869E-05
  -4.99999987E-05  -4.01351281E-05
   0.00000000      -4.07801672E-05
   4.99999987E-05  -4.14329334E-05
   9.99999975E-05  -4.20934521E-05
   1.50000007E-04  -4.27617524E-05
   1.99999995E-04  -4.34378562E-05
   2.50000012E-04  -4.41217999E-05
   3.00000014E-04  -4.48136198E-05
   3.49999988E-04  -4.55133450E-05
   3.99999990E-04  -4.62210155E-05
   4.49999992E-04  -4.69366532E-05
   5.00000024E-04  -4.76602872E-05
   5.49999997E-04  -4.83919321E-05
   6.00000028E-04  -4.91315950E-05
   6.50000002E-04  -4.98792942E-05
   6.99999975E-04  -5.06350407E-05
   7.50000007E-04  -5.13988598E-05
   7.99999980E-04  -5.21707698E-05
   8.50000011E-04  -5.29507925E-05
   8.99999985E-04  -5.37389533E-05
   9.50000016E-04  -5.45352523E-05
   1.00000005E-03  -5.53396894E-05
   1.04999996E-03  -5.61522611E-05
   1.09999999E-03  -5.69729564E-05
   1.15000003E-03  -5.78017680E-05
   1.20000006E-03  -5.86387068E-05
   1.24999997E-03  -5.94837693E-05
   1.30000000E-03  -6.03369590E-05
   1.35000004E-03  -6.11982832E-05
   1.39999995E-03  -6.20677383E-05
   1.44999998E-03  -6.29452989E-05
   1.50000001E-03  -6.38309357E-05
   1.55000004E-03  -6.47246270E-05
   1.59999996E-03  -6.56263437E-05
   1.64999999E-03  -6.65360567E-05
   1.70000002E-03  -6.74537587E-05
   1.75000005E-03  -6.83794133E-05
   1.79999997E-03  -6.93130278E-05
   1.85000000E-03  -7.02545512E-05
   1.90000003E-03  -7.12039473E-05
   1.94999995E-03  -7.21611723E-05
   2.00000009E-03  -7.31261753E-05
   2.05000001E-03  -7.40988980E-05
   2.09999993E-03  -7.50792824E-05
   2.15000007E-03  -7.60672847E-05
   2.19999999E-03  -7.70628540E-05
   2.24999990E-03  -7.80659539E-05
   2.30000005E-03  -7.90765262E-05
   2.34999997E-03  -8.00945272E-05
   2.40000011E-03  -8.11198624E-05
   2.45000003E-03  -8.21524518E-05
   2.49999994E-03  -8.31922007E-05
   2.55000009E-03  -8.42390291E-05
   2.60000001E-03  -8.52928424E-05
   2.64999992E-03  -8.63535679E-05
   2.70000007E-03  -8.74211401E-05
   2.74999999E-03  -8.84954788E-05
   2.79999990E-03  -8.95765043E-05