  -3.99999991E-02   0.00000000    
  -3.99499983E-02   0.00000000    
  -3.99000011E-02   0.00000000    
  -3.98500003E-02   0.00000000    
  -3.97999994E-02   8.30506706E-18
  -3.97499986E-02   6.38354072E-17
  -3.97000015E-02   2.46962355E-16
  -3.96500006E-02   6.49494858E-16
  -3.95999998E-02   1.33593624E-15
  -3.95499989E-02   2.36544157E-15
  -3.95000018E-02   3.84908246E-15
  -3.94500010E-02   5.88578800E-15
  -3.94000001E-02   8.30036892E-15
  -3.93499993E-02   1.04211743E-14
  -3.92999984E-02   1.12984319E-14
  -3.92500013E-02   1.04107574E-14
  -3.92000005E-02   8.28599054E-15
  -3.91499996E-02   6.32485304E-15
  -3.90999988E-02   5.80746922E-15
  -3.90500017E-02   6.91681726E-15
  -3.90000008E-02   8.60948174E-15
  -3.89500000E-02   9.23046870E-15
  -3.88999991E-02   7.03374169E-15
  -3.88499983E-02   2.03280033E-16
  -3.88000011E-02  -1.29914034E-14
  -3.87500003E-02  -3.31779485E-14
  -3.86999995E-02  -5.85991691E-14
  -3.86499986E-02  -8.53366382E-14
  -3.86000015E-02  -1.09942525E-13
  -3.85500006E-02  -1.32859354E-13
  -3.84999998E-02  -1.59554932E-13
  -3.84499989E-02  -1.97930770E-13
  -3.84000018E-02  -2.53901799E-13
  -3.83500010E-02  -3.28557982E-13
  -3.83000001E-02  -4.18385134E-13
  -3.82499993E-02  -5.17013949E-13
  -3.81999984E-02  -6.16454858E-13
  -3.81500013E-02  -7.08061431E-13
  -3.81000005E-02  -7.85083424E-13
  -3.80499996E-02  -8.46817083E-13
  -3.79999988E-02  -9.00922240E-13
  -3.79500017E-02  -9.60226039E-13
  -3.79000008E-02  -1.03486805E-12
  -3.78500000E-02  -1.12560460E-12
  -3.77999991E-02  -1.22371438E-12
  -3.77499983E-02  -1.31696834E-12
  -3.77000012E-02  -1.39577618E-12
  -3.76500003E-02  -1.45463763E-12
  -3.75999995E-02  -1.48990726E-12
  -3.75499986E-02  -1.49851214E-12
  -3.75000015E-02  -1.47947789E-12
  -3.74500006E-02  -1.43489333E-12
  -3.73999998E-02  -1.36640254E-12
  -3.73499990E-02  -1.26880396E-12
  -3.73000018E-02  -1.12712476E-12
  -3.72500010E-02  -9.20998521E-13
  -3.72000001E-02  -6.32620312E-13
  -3.71499993E-02  -2.50859148E-13
  -3.70999984E-02   2.30678730E-13
  -3.70500013E-02   8.15600083E-13
  -3.70000005E-02   1.49981698E-12
  -3.69499996E-02   2.26171989E-12
  -3.68999988E-02   3.05844542E-12
  -3.68500017E-02   3.83736402E-12
  -3.68000008E-02   4.55946478E-12
  -3.67500000E-02   5.22055749E-12
  -3.66999991E-02   5.85740484E-12
  -3.66499983E-02   6.53663972E-12
  -3.66000012E-02   7.33303956E-12
  -3.65500003E-02   8.30419067E-12
  -3.64999995E-02   9.46601044E-12
  -3.64499986E-02   1.07759635E-11
  -3.64000015E-02   1.21364975E-11
  -3.63500006E-02   1.34282221E-11
  -3.62999998E-02   1.45645059E-11
  -3.62499990E-02   1.55375834E-11
  -3.62000018E-02   1.64219870E-11
  -3.61500010E-02   1.73238507E-11
  -3.61000001E-02   1.82996309E-11
  -3.60499993E-02   1.92898354E-11
  -3.59999985E-02   2.01071521E-11
  -3.59500013E-02   2.04911990E-11
  -3.59000005E-02   2.02123908E-11
  -3.58499996E-02   1.91862793E-11
  -3.57999988E-02   1.75497741E-11
  -3.57500017E-02   1.56528176E-11
  -3.57000008E-02   1.39423577E-11
  -3.56500000E-02   1.27642489E-11
  -3.55999991E-02   1.21649401E-11
  -3.55499983E-02   1.18004920E-11
  -3.55000012E-02   1.10252849E-11
  -3.54500003E-02   9.14595483E-12
  -3.53999995E-02   5.73444374E-12
  -3.53499986E-02   8.51691385E-13
  -3.53000015E-02  -4.93386451E-12
  -3.52500007E-02  -1.07612244E-11
  -3.51999998E-02  -1.58507027E-11
  -3.51499990E-02  -1.98843841E-11
  -3.51000018E-02  -2.32166907E-11
  -3.50500010E-02  -2.67869910E-11
  -3.50000001E-02  -3.17257193E-11
  -3.49499993E-02  -3.87987975E-11
  -3.48999985E-02  -4.79483155E-11
  -3.48500013E-02  -5.81821466E-11
  -3.48000005E-02  -6.79185944E-11
  -3.47499996E-02  -7.56680621E-11
  -3.46999988E-02  -8.07463055E-11
  -3.46500017E-02  -8.36685929E-11
  -3.46000008E-02  -8.60004290E-11
  -3.45500000E-02  -8.96798261E-11
  -3.44999991E-02  -9.60782426E-11
  -3.44499983E-02  -1.05218487E-10
  -3.44000012E-02  -1.15547863E-10
  -3.43500003E-02  -1.24454974E-10
  -3.42999995E-02  -1.29381936E-10
  -3.42499986E-02  -1.29062441E-10
  -3.42000015E-02  -1.24281113E-10
  -3.41500007E-02  -1.17707621E-10
  -3.40999998E-02  -1.12771459E-10
  -3.40499990E-02  -1.12026249E-10
  -3.40000018E-02  -1.15753948E-10
  -3.39500010E-02  -1.21513702E-10
  -3.39000002E-02  -1.24949523E-10
  -3.38499993E-02  -1.21601604E-10
  -3.37999985E-02  -1.08967592E-10
  -3.37500013E-02  -8.78648335E-11
  -3.37000005E-02  -6.23705185E-11
  -3.36499996E-02  -3.82084919E-11
  -3.35999988E-02  -2.01837314E-11
  -3.35500017E-02  -9.80381141E-12
  -3.35000008E-02  -4.26514943E-12
  -3.34500000E-02   2.56407309E-12
  -3.33999991E-02   1.74531431E-11
  -3.33499983E-02   4.45630546E-11
  -3.33000012E-02   8.31672370E-11
  -3.32500003E-02   1.27516886E-10
  -3.31999995E-02   1.69092962E-10
  -3.31499986E-02   2.00375841E-10
  -3.31000015E-02   2.18474128E-10
  -3.30500007E-02   2.26871494E-10
  -3.29999998E-02   2.34283787E-10
  -3.29499990E-02   2.50897109E-10
  -3.29000019E-02   2.83548574E-10
  -3.28500010E-02   3.32080419E-10
  -3.28000002E-02   3.88733684E-10
  -3.27499993E-02   4.41140346E-10
  -3.26999985E-02   4.77759166E-10
  -3.26500013E-02   4.93324270E-10
  -3.26000005E-02   4.91689245E-10
  -3.25499997E-02   4.84505547E-10
  -3.24999988E-02   4.86049090E-10
  -3.24500017E-02   5.06367892E-10
  -3.24000008E-02   5.45878731E-10
  -3.23500000E-02   5.94113647E-10
  -3.22999991E-02   6.33576525E-10
  -3.22499983E-02   6.47312426E-10
  -3.22000012E-02   6.26888319E-10
  -3.21500003E-02   5.76994452E-10
  -3.20999995E-02   5.14186194E-10
  -3.20499986E-02   4.59900951E-10
  -3.20000015E-02   4.30656510E-10
  -3.19500007E-02   4.29889901E-10
  -3.18999998E-02   4.45412401E-10
  -3.18499990E-02   4.54049465E-10
  -3.18000019E-02   4.31751496E-10
  -3.17500010E-02   3.64801966E-10
  -3.17000002E-02   2.56928756E-10
  -3.16499993E-02   1.28695346E-10
  -3.15999985E-02   8.93055681E-12
  -3.15500014E-02  -7.82881468E-11
  -3.15000005E-02  -1.25225469E-10
  -3.14499997E-02  -1.45043560E-10
  -3.13999988E-02  -1.66691799E-10
  -3.13500017E-02  -2.21957674E-10
  -3.13000008E-02  -3.30363903E-10
  -3.12500000E-02  -4.88949825E-10
  -3.11999992E-02  -6.72049805E-10
  -3.11500002E-02  -8.41762215E-10
  -3.10999993E-02  -9.64799352E-10
  -3.10500003E-02  -1.02817221E-09
  -3.09999995E-02  -1.04626607E-09
  -3.09500005E-02  -1.05544118E-09
  -3.08999997E-02  -1.09791920E-09
  -3.08500007E-02  -1.20191024E-09
  -3.07999998E-02  -1.36716694E-09
  -3.07500008E-02  -1.56313140E-09
  -3.07000000E-02  -1.74128068E-09
  -3.06499992E-02  -1.85662952E-09
  -3.06000002E-02  -1.88871918E-09
  -3.05499993E-02  -1.85218840E-09
  -3.05000003E-02  -1.79141491E-09
  -3.04499995E-02  -1.76088788E-09
  -3.04000005E-02  -1.79976634E-09
  -3.03499997E-02  -1.91220795E-09
  -3.03000007E-02  -2.06297224E-09
  -3.02499998E-02  -2.19121743E-09
  -3.02000009E-02  -2.23703811E-09
  -3.01500000E-02  -2.16897922E-09
  -3.00999992E-02  -1.99968575E-09
  -3.00500002E-02  -1.78177206E-09
  -2.99999993E-02  -1.58491664E-09
  -2.99500003E-02  -1.46404633E-09
  -2.98999995E-02  -1.43308310E-09
  -2.98500005E-02  -1.45674250E-09
  -2.97999997E-02  -1.46498291E-09
  -2.97500007E-02  -1.38430090E-09
  -2.96999998E-02  -1.17204468E-09
  -2.96500009E-02  -8.37923175E-10
  -2.96000000E-02  -4.42083564E-10
  -2.95499992E-02  -6.96219887E-11
  -2.95000002E-02   2.07621184E-10
  -2.94499993E-02   3.64679537E-10
  -2.94000003E-02   4.36600395E-10
  -2.93499995E-02   5.04117637E-10
  -2.93000005E-02   6.57439048E-10
  -2.92499997E-02   9.54232582E-10
  -2.92000007E-02   1.39118161E-09
  -2.91499998E-02   1.90280058E-09
  -2.91000009E-02   2.38904718E-09
  -2.90500000E-02   2.75997070E-09
  -2.89999992E-02   2.97730596E-09
  -2.89500002E-02   3.07357606E-09
  -2.88999993E-02   3.13895354E-09
  -2.88500004E-02   3.28072303E-09
  -2.87999995E-02   3.57313512E-09
  -2.87500005E-02   4.02064293E-09
  -2.86999997E-02   4.55214622E-09
  -2.86500007E-02   5.05001418E-09
  -2.85999998E-02   5.40163381E-09
  -2.85500009E-02   5.55038859E-09
  -2.85000000E-02   5.52248691E-09
  -2.84499992E-02   5.41657741E-09
  -2.84000002E-02   5.35979439E-09
  -2.83499993E-02   5.44939738E-09
  -2.83000004E-02   5.70637004E-09
  -2.82499995E-02   6.06264905E-09
  -2.82000005E-02   6.38889697E-09
  -2.81499997E-02   6.55120758E-09
  -2.81000007E-02   6.47149623E-09
  -2.80499998E-02   6.16382545E-09
  -2.80000009E-02   5.72930325E-09
  -2.79500000E-02   5.31095834E-09
  -2.78999992E-02   5.02841369E-09
  -2.78500002E-02   4.92195174E-09
  -2.77999993E-02   4.93183361E-09
  -2.77500004E-02   4.92310237E-09
  -2.76999995E-02   4.74556483E-09
  -2.76500005E-02   4.30229807E-09
  -2.75999997E-02   3.59550612E-09
  -2.75500007E-02   2.72820655E-09
  -2.74999999E-02   1.85995386E-09
  -2.74500009E-02   1.13583520E-09
  -2.74000000E-02   6.20696383E-10
  -2.73499992E-02   2.68823214E-10
  -2.73000002E-02  -5.62325360E-11
  -2.72499993E-02  -5.19892240E-10
  -2.72000004E-02  -1.24040589E-09
  -2.71499995E-02  -2.23274821E-09
  -2.71000005E-02  -3.39842687E-09
  -2.70499997E-02  -4.56657023E-09
  -2.70000007E-02  -5.56853541E-09
  -2.69499999E-02  -6.31280228E-09
  -2.69000009E-02  -6.82617696E-09
  -2.68500000E-02  -7.24200744E-09
  -2.67999992E-02  -7.73977593E-09
  -2.67500002E-02  -8.46257198E-09
  -2.66999993E-02  -9.44964196E-09
  -2.66500004E-02  -1.06147935E-08
  -2.65999995E-02  -1.17809602E-08
  -2.65500005E-02  -1.27559439E-08
  -2.64999997E-02  -1.34157707E-08
  -2.64500007E-02  -1.37583278E-08
  -2.63999999E-02  -1.39030591E-08
  -2.63500009E-02  -1.40364280E-08
  -2.63000000E-02  -1.43269787E-08
  -2.62499992E-02  -1.48476920E-08
  -2.62000002E-02  -1.55403672E-08
  -2.61499994E-02  -1.62383973E-08
  -2.61000004E-02  -1.67382677E-08
  -2.60499995E-02  -1.68881122E-08
  -2.60000005E-02  -1.66538960E-08
  -2.59499997E-02  -1.61335389E-08
  -2.59000007E-02  -1.55125512E-08
  -2.58499999E-02  -1.49808610E-08
  -2.58000009E-02  -1.46475347E-08
  -2.57500000E-02  -1.44911834E-08
  -2.56999992E-02  -1.43679273E-08
  -2.56500002E-02  -1.40737288E-08
  -2.55999994E-02  -1.34338443E-08
  -2.55500004E-02  -1.23801414E-08
  -2.54999995E-02  -1.09819620E-08
  -2.54500005E-02  -9.41679623E-09
  -2.53999997E-02  -7.89333665E-09
  -2.53500007E-02  -6.56058852E-09
  -2.52999999E-02  -5.44334799E-09
  -2.52500009E-02  -4.43228609E-09
  -2.52000000E-02  -3.33305050E-09
  -2.51499992E-02  -1.95311189E-09
  -2.51000002E-02  -1.88897398E-10
  -2.50499994E-02   1.92458849E-09
  -2.50000004E-02   4.22355306E-09
  -2.49499995E-02   6.48096155E-09
  -2.49000005E-02   8.50012949E-09
  -2.48499997E-02   1.01960831E-08
  -2.48000007E-02   1.16294530E-08
  -2.47499999E-02   1.29779405E-08
  -2.47000009E-02   1.44571706E-08
  -2.46500000E-02   1.62246128E-08
  -2.45999992E-02   1.83075528E-08
  -2.45500002E-02   2.05860449E-08
  -2.44999994E-02   2.28386163E-08
  -2.44500004E-02   2.48318770E-08
  -2.43999995E-02   2.64164584E-08
  -2.43500005E-02   2.75882712E-08
  -2.42999997E-02   2.84886070E-08
  -2.42500007E-02   2.93419156E-08
  -2.41999999E-02   3.03566416E-08
  -2.41500009E-02   3.16309823E-08
  -2.41000000E-02   3.31038841E-08
  -2.40499992E-02   3.45733397E-08
  -2.40000002E-02   3.57758587E-08
  -2.39499994E-02   3.64943880E-08
  -2.39000004E-02   3.66491513E-08
  -2.38499995E-02   3.63320503E-08
  -2.38000005E-02   3.57685330E-08
  -2.37499997E-02   3.52212339E-08
  -2.37000007E-02   3.48747307E-08
  -2.36499999E-02   3.47508902E-08
  -2.36000009E-02   3.46921425E-08
  -2.35500000E-02   3.44225661E-08
  -2.34999992E-02   3.36636852E-08
  -2.34500002E-02   3.22563061E-08
  -2.33999994E-02   3.02352277E-08
  -2.33500004E-02   2.78222227E-08
  -2.32999995E-02   2.53369539E-08
  -2.32500006E-02   2.30616237E-08
  -2.31999997E-02   2.11165609E-08
  -2.31500007E-02   1.94018845E-08
  -2.30999999E-02   1.76342052E-08
  -2.30500009E-02   1.54668669E-08
  -2.30000000E-02   1.26443975E-08
  -2.29499992E-02   9.12466014E-09
  -2.29000002E-02   5.11313791E-09
  -2.28499994E-02   9.88899740E-10
  -2.28000004E-02  -2.85007218E-09
  -2.27499995E-02  -6.15709528E-09
  -2.27000006E-02  -8.94735575E-09
  -2.26499997E-02  -1.14962369E-08
  -2.26000007E-02  -1.42211789E-08
  -2.25499999E-02  -1.74943242E-08
  -2.25000009E-02  -2.14660751E-08
  -2.24500000E-02  -2.59795545E-08
  -2.23999992E-02  -3.06188284E-08
  -2.23500002E-02  -3.48754590E-08
  -2.22999994E-02  -3.83646928E-08
  -2.22500004E-02  -4.09961025E-08
  -2.21999995E-02  -4.30192735E-08
  -2.21500006E-02  -4.49181705E-08
  -2.20999997E-02  -4.71944759E-08
  -2.20500007E-02  -5.01336146E-08
  -2.19999999E-02  -5.36592566E-08
  -2.19500009E-02  -5.73458472E-08
  -2.19000001E-02  -6.05904020E-08
  -2.18499992E-02  -6.28722958E-08
  -2.18000002E-02  -6.39870237E-08
  -2.17499994E-02  -6.41462989E-08
  -2.17000004E-02  -6.38927986E-08
  -2.16499995E-02  -6.38604476E-08
  -2.16000006E-02  -6.44830322E-08
  -2.15499997E-02  -6.57819115E-08
  -2.15000007E-02  -6.73348737E-08
  -2.14499999E-02  -6.84481094E-08
  -2.14000009E-02  -6.84605013E-08
  -2.13500001E-02  -6.70463720E-08
  -2.12999992E-02  -6.43782556E-08
  -2.12500002E-02  -6.10687323E-08
  -2.11999994E-02  -5.79089843E-08
  -2.11500004E-02  -5.55156063E-08
  -2.10999995E-02  -5.40436993E-08
  -2.10500006E-02  -5.31007167E-08
  -2.09999997E-02  -5.19087493E-08
  -2.09500007E-02  -4.96499268E-08
  -2.08999999E-02  -4.58443843E-08
  -2.08500009E-02  -4.05886169E-08
  -2.08000001E-02  -3.45387861E-08
  -2.07499992E-02  -2.86366308E-08
  -2.07000002E-02  -2.36952218E-08
  -2.06499994E-02  -2.00299493E-08
  -2.06000004E-02  -1.73056520E-08
  -2.05499995E-02  -1.46778198E-08
  -2.05000006E-02  -1.11729754E-08
  -2.04499997E-02  -6.14150908E-09
  -2.04000007E-02   4.22067326E-10
  -2.03499999E-02   7.84303644E-09
  -2.03000009E-02   1.50410120E-08
  -2.02500001E-02   2.09994759E-08
  -2.01999992E-02   2.52214001E-08
  -2.01500002E-02   2.79605210E-08
  -2.00999994E-02   3.01148724E-08
  -2.00500004E-02   3.28218768E-08
  -1.99999996E-02   3.69325726E-08
  -1.99500006E-02   4.26032756E-08
  -1.98999997E-02   4.91965793E-08
  -1.98500007E-02   5.55451329E-08
  -1.97999999E-02   6.04673360E-08
  -1.97500009E-02   6.33050021E-08
  -1.97000001E-02   6.42359410E-08
  -1.96499992E-02   6.42105817E-08
  -1.96000002E-02   6.45309584E-08
  -1.95499994E-02   6.62560780E-08
  -1.95000004E-02   6.97023310E-08
  -1.94499996E-02   7.42727480E-08
  -1.94000006E-02   7.87030814E-08
  -1.93499997E-02   8.16228436E-08
  -1.93000007E-02   8.21806552E-08
  -1.92499999E-02   8.04474922E-08
  -1.92000009E-02   7.74079894E-08
  -1.91500001E-02   7.45330908E-08
  -1.90999992E-02   7.31186134E-08
  -1.90500002E-02   7.36886889E-08
  -1.89999994E-02   7.57398269E-08
  -1.89500004E-02   7.79513414E-08
  -1.88999996E-02   7.87776457E-08
  -1.88500006E-02   7.71590436E-08
  -1.87999997E-02   7.30270315E-08
  -1.87500007E-02   6.73667344E-08
  -1.86999999E-02   6.17984171E-08
  -1.86500009E-02   5.78593493E-08
  -1.86000001E-02   5.63087674E-08
  -1.85499992E-02   5.67758427E-08
  -1.85000002E-02   5.79186832E-08
  -1.84499994E-02   5.80316346E-08
  -1.84000004E-02   5.58303093E-08
  -1.83499996E-02   5.10594163E-08
  -1.83000006E-02   4.46407959E-08
  -1.82499997E-02   3.82836767E-08
  -1.82000007E-02   3.37255663E-08
  -1.81499999E-02   3.19461577E-08
  -1.81000009E-02   3.27149721E-08
  -1.80500001E-02   3.46860922E-08
  -1.79999992E-02   3.60058081E-08
  -1.79500002E-02   3.51647991E-08
  -1.78999994E-02   3.17070246E-08
  -1.78500004E-02   2.64656137E-08
  -1.77999996E-02   2.12107985E-08
  -1.77500006E-02   1.78616215E-08
  -1.76999997E-02   1.76147310E-08
  -1.76500008E-02   2.03860093E-08
  -1.75999999E-02   2.48274521E-08
  -1.75500009E-02   2.89213755E-08
  -1.75000001E-02   3.08903836E-08
  -1.74499992E-02   3.00114351E-08
  -1.74000002E-02   2.69581601E-08
  -1.73499994E-02   2.35052902E-08
  -1.73000004E-02   2.17223057E-08
  -1.72499996E-02   2.30206645E-08
  -1.72000006E-02   2.74844609E-08
  -1.71499997E-02   3.37962653E-08
  -1.71000008E-02   3.98001774E-08
  -1.70499999E-02   4.34544241E-08
  -1.70000009E-02   4.37454091E-08
  -1.69500001E-02   4.11474304E-08
  -1.68999992E-02   3.74088138E-08
  -1.68500002E-02   3.47478100E-08
  -1.67999994E-02   3.48221256E-08
  -1.67500004E-02   3.79429927E-08
  -1.66999996E-02   4.28919265E-08
  -1.66500006E-02   4.74253987E-08
  -1.65999997E-02   4.92496959E-08
  -1.65500008E-02   4.70307455E-08
  -1.64999999E-02   4.09783141E-08
  -1.64500009E-02   3.27306786E-08
  -1.64000001E-02   2.45872229E-08
  -1.63499992E-02   1.84288744E-08
  -1.63000003E-02   1.48205759E-08
  -1.62499994E-02   1.27068160E-08
  -1.62000004E-02   9.83709292E-09
  -1.61499996E-02   3.74722164E-09
  -1.61000006E-02  -7.15465864E-09
  -1.60499997E-02  -2.28895622E-08
  -1.60000008E-02  -4.19111004E-08
  -1.59499999E-02  -6.18229876E-08
  -1.59000009E-02  -8.04933222E-08
  -1.58500001E-02  -9.70660992E-08
  -1.57999992E-02  -1.12398858E-07
  -1.57500003E-02  -1.28720814E-07
  -1.56999994E-02  -1.48658046E-07
  -1.56500004E-02  -1.74073350E-07
  -1.55999996E-02  -2.05243950E-07
  -1.55499997E-02  -2.40745152E-07
  -1.54999997E-02  -2.78089743E-07
  -1.54499998E-02  -3.14852258E-07
  -1.53999999E-02  -3.49791918E-07
  -1.53500000E-02  -3.83437794E-07
  -1.53000001E-02  -4.17871490E-07
  -1.52500002E-02  -4.55798784E-07
  -1.52000003E-02  -4.99321857E-07
  -1.51500003E-02  -5.48973389E-07
  -1.51000004E-02  -6.03459398E-07
  -1.50499996E-02  -6.60216131E-07
  -1.49999997E-02  -7.16537954E-07
  -1.49499997E-02  -7.70778229E-07
  -1.48999998E-02  -8.23071559E-07
  -1.48499999E-02  -8.75275873E-07
  -1.48000000E-02  -9.30125054E-07
  -1.47500001E-02  -9.89974183E-07
  -1.47000002E-02  -1.05570427E-06
  -1.46500003E-02  -1.12628027E-06
  -1.46000003E-02  -1.19916456E-06
  -1.45500004E-02  -1.27142835E-06
  -1.44999996E-02  -1.34104414E-06
  -1.44499997E-02  -1.40777524E-06
  -1.43999998E-02  -1.47325090E-06
  -1.43499998E-02  -1.54018448E-06
  -1.42999999E-02  -1.61112484E-06
  -1.42500000E-02  -1.68726467E-06
  -1.42000001E-02  -1.76785852E-06
  -1.41500002E-02  -1.85048270E-06
  -1.41000003E-02  -1.93206210E-06
  -1.40500003E-02  -2.01021908E-06
  -1.40000004E-02  -2.08428742E-06
  -1.39499996E-02  -2.15561204E-06
  -1.38999997E-02  -2.22691983E-06
  -1.38499998E-02  -2.30103456E-06
  -1.37999998E-02  -2.37956942E-06
  -1.37499999E-02  -2.46213699E-06
  -1.37000000E-02  -2.54648603E-06
  -1.36500001E-02  -2.62947492E-06
  -1.36000002E-02  -2.70846772E-06
  -1.35500003E-02  -2.78249559E-06
  -1.35000004E-02  -2.85265378E-06
  -1.34500004E-02  -2.92161985E-06
  -1.33999996E-02  -2.99252042E-06
  -1.33499997E-02  -3.06750667E-06
  -1.32999998E-02  -3.14672934E-06
  -1.32499998E-02  -3.22825940E-06
  -1.31999999E-02  -3.30889111E-06
  -1.31500000E-02  -3.38563746E-06
  -1.31000001E-02  -3.45711965E-06
  -1.30500002E-02  -3.52415373E-06
  -1.30000003E-02  -3.58940383E-06
  -1.29500004E-02  -3.65624328E-06
  -1.29000004E-02  -3.72732006E-06
  -1.28499996E-02  -3.80340862E-06
  -1.27999997E-02  -3.88315448E-06
  -1.27499998E-02  -3.96369296E-06
  -1.26999998E-02  -4.04191451E-06
  -1.26499999E-02  -4.11598921E-06
  -1.26000000E-02  -4.18628724E-06
  -1.25500001E-02  -4.25532380E-06
  -1.25000002E-02  -4.32668458E-06
  -1.24500003E-02  -4.40341546E-06
  -1.24000004E-02  -4.48672336E-06
  -1.23500004E-02  -4.57555961E-06
  -1.22999996E-02  -4.66725942E-06
  -1.22499997E-02  -4.75882007E-06
  -1.21999998E-02  -4.84832572E-06
  -1.21499998E-02  -4.93594644E-06
  -1.20999999E-02  -5.02409102E-06
  -1.20500000E-02  -5.11663075E-06
  -1.20000001E-02  -5.21729680E-06
  -1.19500002E-02  -5.32798640E-06
  -1.19000003E-02  -5.44789464E-06
  -1.18500004E-02  -5.57403018E-06
  -1.18000004E-02  -5.70270640E-06
  -1.17499996E-02  -5.83118026E-06
  -1.16999997E-02  -5.95884057E-06
  -1.16499998E-02  -6.08750406E-06
  -1.15999999E-02  -6.22078369E-06
  -1.15499999E-02  -6.36271807E-06
  -1.15000000E-02  -6.51624941E-06
  -1.14500001E-02  -6.68201255E-06
  -1.14000002E-02  -6.85821669E-06
  -1.13500003E-02  -7.04176773E-06
  -1.13000004E-02  -7.23003950E-06
  -1.12500004E-02  -7.42230168E-06
  -1.11999996E-02  -7.62023956E-06
  -1.11499997E-02  -7.82726511E-06
  -1.10999998E-02  -8.04684987E-06
  -1.10499999E-02  -8.28101111E-06
  -1.09999999E-02  -8.52939866E-06
  -1.09500000E-02  -8.78925766E-06
  -1.09000001E-02  -9.05631168E-06
  -1.08500002E-02  -9.32656258E-06
  -1.08000003E-02  -9.59803583E-06
  -1.07500004E-02  -9.87189014E-06
  -1.07000005E-02  -1.01522328E-05
  -1.06499996E-02  -1.04442552E-05
  -1.05999997E-02  -1.07521573E-05
  -1.05499998E-02  -1.10776527E-05
  -1.04999999E-02  -1.14196218E-05
  -1.04499999E-02  -1.17750287E-05
  -1.04000000E-02  -1.21404828E-05
  -1.03500001E-02  -1.25136703E-05
  -1.03000002E-02  -1.28944157E-05
  -1.02500003E-02  -1.32849818E-05
  -1.02000004E-02  -1.36889912E-05
  -1.01500005E-02  -1.41095770E-05
  -1.00999996E-02  -1.45474351E-05
  -1.00499997E-02  -1.50002315E-05
  -9.99999978E-03  -1.54635964E-05
  -9.94999986E-03  -1.59329338E-05
  -9.89999995E-03  -1.64055073E-05
  -9.85000003E-03  -1.68813840E-05
  -9.80000012E-03  -1.73631724E-05
  -9.75000020E-03  -1.78550890E-05
  -9.70000029E-03  -1.83613902E-05
  -9.65000037E-03  -1.88846006E-05
  -9.60000046E-03  -1.94243003E-05
  -9.54999961E-03  -1.99773895E-05
  -9.49999969E-03  -2.05393644E-05
  -9.44999978E-03  -2.11069946E-05
  -9.39999986E-03  -2.16804456E-05
  -9.34999995E-03  -2.22628805E-05
  -9.30000003E-03  -2.28592507E-05
  -9.25000012E-03  -2.34740164E-05
  -9.20000020E-03  -2.41094676E-05
  -9.15000029E-03  -2.47653061E-05
  -9.10000037E-03  -2.54386341E-05
  -9.05000046E-03  -2.61247751E-05
  -8.99999961E-03  -2.68190161E-05
  -8.94999970E-03  -2.75189141E-05
  -8.89999978E-03  -2.82257024E-05
  -8.84999987E-03  -2.89435156E-05
  -8.79999995E-03  -2.96770322E-05
  -8.75000004E-03  -3.04290315E-05
  -8.70000012E-03  -3.11992044E-05
  -8.65000021E-03  -3.19845713E-05
  -8.60000029E-03  -3.27810194E-05
  -8.55000038E-03  -3.35857512E-05
  -8.50000046E-03  -3.43981701E-05
  -8.44999962E-03  -3.52200477E-05
  -8.39999970E-03  -3.60560480E-05
  -8.34999979E-03  -3.69120535E-05
  -8.29999987E-03  -3.77932229E-05
  -8.24999996E-03  -3.87016225E-05
  -8.20000004E-03  -3.96349496E-05
  -8.15000013E-03  -4.05890532E-05
  -8.10000021E-03  -4.15609102E-05
  -8.05000030E-03  -4.25493927E-05
  -8.00000038E-03  -4.35556321E-05
  -7.95000046E-03  -4.45835540E-05
  -7.89999962E-03  -4.56387279E-05
  -7.84999970E-03  -4.67252976E-05
  -7.79999979E-03  -4.78445545E-05
  -7.74999987E-03  -4.89944214E-05
  -7.69999996E-03  -5.01696522E-05
  -7.65000004E-03  -5.13655286E-05
  -7.60000013E-03  -5.25800460E-05
  -7.55000021E-03  -5.38144195E-05
  -7.49999983E-03  -5.50729601E-05
  -7.44999992E-03  -5.63612884E-05
  -7.40000000E-03  -5.76845123E-05
  -7.35000009E-03  -5.90450763E-05
  -7.30000017E-03  -6.04426787E-05
  -7.24999979E-03  -6.18754857E-05
  -7.19999988E-03  -6.33406089E-05
  -7.14999996E-03  -6.48355926E-05
  -7.10000005E-03  -6.63610263E-05
  -7.05000013E-03  -6.79219011E-05
  -7.00000022E-03  -6.95254057E-05
  -6.94999984E-03  -7.11771281E-05
  -6.89999992E-03  -7.28791201E-05
  -6.85000001E-03  -7.46298174E-05
  -6.80000009E-03  -7.64263823E-05
  -6.75000018E-03  -7.82664138E-05
  -6.69999979E-03  -8.01476854E-05
  -6.64999988E-03  -8.20692803E-05
  -6.59999996E-03  -8.40333378E-05
  -6.55000005E-03  -8.60450309E-05
  -6.50000013E-03  -8.81104788E-05
  -6.45000022E-03  -9.02327301E-05
  -6.39999984E-03  -9.24095293E-05
  -6.34999992E-03  -9.46374203E-05
  -6.30000001E-03  -9.69133835E-05
  -6.25000009E-03  -9.92350397E-05
  -6.20000018E-03  -1.01602658E-04
  -6.14999980E-03  -1.04019586E-04
  -6.09999988E-03  -1.06492051E-04
  -6.04999997E-03  -1.09025510E-04
  -6.00000005E-03  -1.11623347E-04
  -5.95000014E-03  -1.14285976E-04
  -5.90000022E-03  -1.17010488E-04
  -5.84999984E-03  -1.19794735E-04
  -5.79999993E-03  -1.22637954E-04
  -5.75000001E-03  -1.25540842E-04
  -5.70000010E-03  -1.28505490E-04
  -5.65000018E-03  -1.31535533E-04
  -5.59999980E-03  -1.34636721E-04
  -5.54999989E-03  -1.37813375E-04
  -5.49999997E-03  -1.41065582E-04
  -5.45000006E-03  -1.44388483E-04
  -5.40000014E-03  -1.47775907E-04
  -5.35000023E-03  -1.51226064E-04
  -5.29999984E-03  -1.54741560E-04
  -5.24999993E-03  -1.58323615E-04
  -5.20000001E-03  -1.61971882E-04
  -5.15000010E-03  -1.65689489E-04
  -5.10000018E-03  -1.69482475E-04
  -5.04999980E-03  -1.73354187E-04
  -4.99999989E-03  -1.77301466E-04
  -4.94999997E-03  -1.81318552E-04
  -4.90000006E-03  -1.85404366E-04
  -4.85000014E-03  -1.89562372E-04
  -4.80000023E-03  -1.93798740E-04
  -4.74999985E-03  -1.98119407E-04
  -4.69999993E-03  -2.02527372E-04
  -4.65000002E-03  -2.07024714E-04
  -4.60000010E-03  -2.11611419E-04
  -4.55000019E-03  -2.16286135E-04
  -4.49999981E-03  -2.21046124E-04
  -4.44999989E-03  -2.25888827E-04
  -4.39999998E-03  -2.30813937E-04
  -4.35000006E-03  -2.35821673E-04
  -4.30000015E-03  -2.40915950E-04
  -4.25000023E-03  -2.46103271E-04
  -4.19999985E-03  -2.51385529E-04
  -4.14999994E-03  -2.56760191E-04
  -4.10000002E-03  -2.62223388E-04
  -4.05000011E-03  -2.67772615E-04
  -4.00000019E-03  -2.73407495E-04
  -3.94999981E-03  -2.79130094E-04
  -3.89999989E-03  -2.84944283E-04
  -3.84999998E-03  -2.90856551E-04
  -3.80000006E-03  -2.96870392E-04
  -3.74999992E-03  -3.02986329E-04
  -3.70000000E-03  -3.09206342E-04
  -3.65000009E-03  -3.15531302E-04
  -3.59999994E-03  -3.21959204E-04
  -3.55000002E-03  -3.28488590E-04
  -3.50000011E-03  -3.35119374E-04
  -3.44999996E-03  -3.41853505E-04
  -3.40000005E-03  -3.48700909E-04
  -3.34999990E-03  -3.55667900E-04
  -3.29999998E-03  -3.62754217E-04
  -3.25000007E-03  -3.69957095E-04
  -3.19999992E-03  -3.77271324E-04
  -3.15000000E-03  -3.84694518E-04
  -3.10000009E-03  -3.92225600E-04
  -3.04999994E-03  -3.99868848E-04
  -3.00000003E-03  -4.07629879E-04
  -2.95000011E-03  -4.15514136E-04
  -2.89999996E-03  -4.23521473E-04
  -2.85000005E-03  -4.31652210E-04
  -2.79999990E-03  -4.39911440E-04
  -2.74999999E-03  -4.48292762E-04
  -2.70000007E-03  -4.56786802E-04
  -2.64999992E-03  -4.65388643E-04
  -2.60000001E-03  -4.74109722E-04
  -2.55000009E-03  -4.82967356E-04
  -2.49999994E-03  -4.91962011E-04
  -2.45000003E-03  -5.01090311E-04
  -2.40000011E-03  -5.10356855E-04
  -2.34999997E-03  -5.19764668E-04
  -2.30000005E-03  -5.29316778E-04
  -2.24999990E-03  -5.39010274E-04
  -2.19999999E-03  -5.48834214E-04
  -2.15000007E-03  -5.58786502E-04
  -2.09999993E-03  -5.68884076E-04
  -2.05000001E-03  -5.79142594E-04
  -2.00000009E-03  -5.89560135E-04
  -1.94999995E-03  -6.00127387E-04
  -1.90000003E-03  -6.10839750E-04
  -1.85000000E-03  -6.21695071E-04
  -1.79999997E-03  -6.32694806E-04
  -1.75000005E-03  -6.43839128E-04
  -1.70000002E-03  -6.55118143E-04
  -1.64999999E-03  -6.66529755E-04
  -1.59999996E-03  -6.78095850E-04
  -1.55000004E-03  -6.89842331E-04
  -1.50000001E-03  -7.01771001E-04
  -1.44999998E-03  -7.13863235E-04
  -1.39999995E-03  -7.26096565E-04
  -1.35000004E-03  -7.38475355E-04
  -1.30000000E-03  -7.51023006E-04
  -1.24999997E-03  -7.63744931E-04
  -1.20000006E-03  -7.76638277E-04
  -1.15000003E-03  -7.89698446E-04
  -1.09999999E-03  -8.02932656E-04
  -1.04999996E-03  -8.16362968E-04
  -1.00000005E-03  -8.29999160E-04
  -9.50000016E-04  -8.43816437E-04
  -8.99999985E-04  -8.57786159E-04
  -8.50000011E-04  -8.71904020E-04
  -7.99999980E-04  -8.86180729E-04
  -7.50000007E-04  -9.00642830E-04
  -6.99999975E-04  -9.15315060E-04
  -6.50000002E-04  -9.30182752E-04
  -6.00000028E-04  -9.45225940E-04
  -5.49999997E-04  -9.60459234E-04
  -5.00000024E-04  -9.75894043E-04
  -4.49999992E-04  -9.91523731E-04
  -3.99999990E-04  -1.00733596E-03
  -3.49999988E-04  -1.02331652E-03
  -3.00000014E-04  -1.03946170E-03
  -2.50000012E-04  -1.05580315E-03
  -1.99999995E-04  -1.07237999E-03
  -1.50000007E-04  -1.08920527E-03
  -9.99999975E-05  -1.10625196E-03
  -4.99999987E-05  -1.12347642E-03
   0.00000000      -1.14088063E-03
   4.99999987E-05  -1.15849753E-03
   9.99999975E-05  -1.17633247E-03
   1.50000007E-04  -1.19437277E-03
   1.99999995E-04  -1.21260900E-03
   2.50000012E-04  -1.23106071E-03
   3.00000014E-04  -1.24976458E-03
   3.49999988E-04  -1.26872433E-03
   3.99999990E-04  -1.28791679E-03
   4.49999992E-04  -1.30730344E-03
   5.00000024E-04  -1.32685783E-03
   5.49999997E-04  -1.34660734E-03
   6.00000028E-04  -1.36660424E-03
   6.50000002E-04  -1.38685701E-03
   6.99999975E-04  -1.40733854E-03
   7.50000007E-04  -1.42802857E-03
   7.99999980E-04  -1.44893548E-03
   8.50000011E-04  -1.47009187E-03
   8.99999985E-04  -1.49150600E-03
   9.50000016E-04  -1.51314342E-03
   1.00000005E-03  -1.53496035E-03
   1.04999996E-03  -1.55695307E-03
   1.09999999E-03  -1.57917629E-03
   1.15000003E-03  -1.60170463E-03
   1.20000006E-03  -1.62454240E-03
   1.24999997E-03  -1.64760696E-03
   1.30000000E-03  -1.67085044E-03
   1.35000004E-03  -1.69430033E-03
   1.39999995E-03  -1.71800284E-03
   1.44999998E-03  -1.74196612E-03
   1.50000001E-03  -1.76615280E-03
   1.55000004E-03  -1.79053168E-03
   1.59999996E-03  -1.81510788E-03
   1.64999999E-03  -1.83994602E-03
   1.70000002E-03  -1.86508079E-03
   1.75000005E-03  -1.89047493E-03
   1.79999997E-03  -1.91606057E-03
   1.85000000E-03  -1.94178452E-03
   1.90000003E-03  -1.96768437E-03
   1.94999995E-03  -1.99384335E-03
   2.00000009E-03  -2.02028127E-03
   2.05000001E-03  -2.04693922E-03
   2.09999993E-03  -2.07379600E-03
   2.15000007E-03  -2.10088352E-03
   2.19999999E-03  -2.12822761E-03
   2.24999990E-03  -2.15580268E-03
   2.30000005E-03  -2.18353746E-03
   2.34999997E-03  -2.21143034E-03
   2.40000011E-03  -2.23952066E-03
   2.45000003E-03  -2.26785638E-03
   2.49999994E-03  -2.29643891E-03
   2.55000009E-03  -2.32520653E-03
   2.60000001E-03  -2.35416368E-03
   2.64999992E-03  -2.38333573E-03
   2.70000007E-03  -2.41270266E-03
   2.74999999E-03  -2.44223606E-03
   2.79999990E-03  -2.47189705E-03