  -3.99999991E-02   0.00000000    
  -3.99499983E-02   0.00000000    
  -3.99000011E-02  -5.79026573E-13
  -3.98500003E-02  -2.82162358E-12
  -3.97999994E-02  -6.74634003E-12
  -3.97499986E-02  -1.09936678E-11
  -3.97000015E-02  -1.51033283E-11
  -3.96500006E-02  -2.13477031E-11
  -3.95999998E-02  -3.26421772E-11
  -3.95499989E-02  -4.83982056E-11
  -3.95000018E-02  -6.41899381E-11
  -3.94500010E-02  -7.70366756E-11
  -3.94000001E-02  -9.01492908E-11
  -3.93499993E-02  -1.10166085E-10
  -3.92999984E-02  -1.39031883E-10
  -3.92500013E-02  -1.70694056E-10
  -3.92000005E-02  -1.98150510E-10
  -3.91499996E-02  -2.23285293E-10
  -3.90999988E-02  -2.56931948E-10
  -3.90500017E-02  -3.07632531E-10
  -3.90000008E-02  -3.71960351E-10
  -3.89500000E-02  -4.38418357E-10
  -3.88999991E-02  -5.00472108E-10
  -3.88499983E-02  -5.62485558E-10
  -3.88000011E-02  -6.31044494E-10
  -3.87500003E-02  -7.03347491E-10
  -3.86999995E-02  -7.69204422E-10
  -3.86499986E-02  -8.25869317E-10
  -3.86000015E-02  -8.86541007E-10
  -3.85500006E-02  -9.68614522E-10
  -3.84999998E-02  -1.07250275E-09
  -3.84499989E-02  -1.17580212E-09
  -3.84000018E-02  -1.25152511E-09
  -3.83500010E-02  -1.29084576E-09
  -3.83000001E-02  -1.30501299E-09
  -3.82499993E-02  -1.30604938E-09
  -3.81999984E-02  -1.29144795E-09
  -3.81500013E-02  -1.25211275E-09
  -3.81000005E-02  -1.19200727E-09
  -3.80499996E-02  -1.13129506E-09
  -3.79999988E-02  -1.08479958E-09
  -3.79500017E-02  -1.04034814E-09
  -3.79000008E-02  -9.65037272E-10
  -3.78500000E-02  -8.34909475E-10
  -3.77999991E-02  -6.54020060E-10
  -3.77499983E-02  -4.40351061E-10
  -3.77000012E-02  -1.96338279E-10
  -3.76500003E-02   9.86719803E-11
  -3.75999995E-02   4.63507926E-10
  -3.75499986E-02   8.88691121E-10
  -3.75000015E-02   1.34370881E-09
  -3.74500006E-02   1.81309245E-09
  -3.73999998E-02   2.31968511E-09
  -3.73499990E-02   2.90618218E-09
  -3.73000018E-02   3.59388230E-09
  -3.72500010E-02   4.36287539E-09
  -3.72000001E-02   5.17019805E-09
  -3.71499993E-02   5.97701799E-09
  -3.70999984E-02   6.75027190E-09
  -3.70500013E-02   7.44537187E-09
  -3.70000005E-02   8.01017741E-09
  -3.69499996E-02   8.42872350E-09
  -3.68999988E-02   8.76755823E-09
  -3.68500017E-02   9.16670118E-09
  -3.68000008E-02   9.76376313E-09
  -3.67500000E-02   1.06066063E-08
  -3.66999991E-02   1.16232979E-08
  -3.66499983E-02   1.26639339E-08
  -3.66000012E-02   1.35690250E-08
  -3.65500003E-02   1.42165915E-08
  -3.64999995E-02   1.45446819E-08
  -3.64499986E-02   1.45721328E-08
  -3.64000015E-02   1.44139172E-08
  -3.63500006E-02   1.42506291E-08
  -3.62999998E-02   1.42296193E-08
  -3.62499990E-02   1.43466181E-08
  -3.62000018E-02   1.44043550E-08
  -3.61500010E-02   1.41026746E-08
  -3.61000001E-02   1.32106708E-08
  -3.60499993E-02   1.17047243E-08
  -3.59999985E-02   9.78825554E-09
  -3.59500013E-02   7.79909204E-09
  -3.59000005E-02   6.06960437E-09
  -3.58499996E-02   4.79551554E-09
  -3.57999988E-02   3.93808586E-09
  -3.57500017E-02   3.18686211E-09
  -3.57000008E-02   2.03231676E-09
  -3.56500000E-02  -2.77523109E-11
  -3.55999991E-02  -3.21844174E-09
  -3.55499983E-02  -7.31215088E-09
  -3.55000012E-02  -1.16848256E-08
  -3.54500003E-02  -1.56024953E-08
  -3.53999995E-02  -1.85834210E-08
  -3.53499986E-02  -2.06384385E-08
  -3.53000015E-02  -2.22772165E-08
  -3.52500007E-02  -2.42975631E-08
  -3.51999998E-02  -2.74541438E-08
  -3.51499990E-02  -3.21197398E-08
  -3.51000018E-02  -3.80559833E-08
  -3.50500010E-02  -4.44110455E-08
  -3.50000001E-02  -5.00100334E-08
  -3.49499993E-02  -5.38655840E-08
  -3.48999985E-02  -5.56744730E-08
  -3.48500013E-02  -5.60159314E-08
  -3.48000005E-02  -5.61069662E-08
  -3.47499996E-02  -5.72214987E-08
  -3.46999988E-02  -6.00698371E-08
  -3.46500017E-02  -6.44410107E-08
  -3.46000008E-02  -6.92589808E-08
  -3.45500000E-02  -7.30155492E-08
  -3.44999991E-02  -7.44076516E-08
  -3.44499983E-02  -7.29374179E-08
  -3.44000012E-02  -6.92182311E-08
  -3.43500003E-02  -6.47950316E-08
  -3.42999995E-02  -6.14759799E-08
  -3.42499986E-02  -6.04388930E-08
  -3.42000015E-02  -6.15584668E-08
  -3.41500007E-02  -6.33406856E-08
  -3.40999998E-02  -6.35456843E-08
  -3.40499990E-02  -6.02092740E-08
  -3.40000018E-02  -5.25661648E-08
  -3.39500010E-02  -4.14455101E-08
  -3.39000002E-02  -2.89653261E-08
  -3.38499993E-02  -1.76485635E-08
  -3.37999985E-02  -9.31044219E-09
  -3.37500013E-02  -4.17225676E-09
  -3.37000005E-02  -6.21168061E-10
  -3.36499996E-02   4.18192370E-09
  -3.35999988E-02   1.30241649E-08
  -3.35500017E-02   2.72525806E-08
  -3.35000008E-02   4.59755185E-08
  -3.34500000E-02   6.63103705E-08
  -3.33999991E-02   8.46089634E-08
  -3.33499983E-02   9.80896786E-08
  -3.33000012E-02   1.06115671E-07
  -3.32500003E-02   1.10542416E-07
  -3.31999995E-02   1.14977006E-07
  -3.31499986E-02   1.23241691E-07
  -3.31000015E-02   1.37654879E-07
  -3.30500007E-02   1.57856718E-07
  -3.29999998E-02   1.80758136E-07
  -3.29499990E-02   2.01754460E-07
  -3.29000019E-02   2.16742507E-07
  -3.28500010E-02   2.24014670E-07
  -3.28000002E-02   2.25079731E-07
  -3.27499993E-02   2.23959745E-07
  -3.26999985E-02   2.25277233E-07
  -3.26500013E-02   2.32040932E-07
  -3.26000005E-02   2.44154592E-07
  -3.25499997E-02   2.58311474E-07
  -3.24999988E-02   2.69328609E-07
  -3.24500017E-02   2.72382806E-07
  -3.24000008E-02   2.65224315E-07
  -3.23500000E-02   2.49376853E-07
  -3.22999991E-02   2.29673361E-07
  -3.22499983E-02   2.12186194E-07
  -3.22000012E-02   2.01417521E-07
  -3.21500003E-02   1.98086653E-07
  -3.20999995E-02   1.98640677E-07
  -3.20499986E-02   1.96777975E-07
  -3.20000015E-02   1.86284339E-07
  -3.19500007E-02   1.63864811E-07
  -3.18999998E-02   1.30704095E-07
  -3.18499990E-02   9.20826722E-08
  -3.18000019E-02   5.51876020E-08
  -3.17500010E-02   2.59886370E-08
  -3.17000002E-02   6.48525367E-09
  -3.16499993E-02  -6.40595132E-09
  -3.15999985E-02  -1.96653005E-08
  -3.15500014E-02  -4.10599661E-08
  -3.15000005E-02  -7.54867955E-08
  -3.14499997E-02  -1.22522323E-07
  -3.13999988E-02  -1.76398686E-07
  -3.13500017E-02  -2.28429272E-07
  -3.13000008E-02  -2.70747421E-07
  -3.12500000E-02  -2.99675492E-07
  -3.11999992E-02  -3.17279955E-07
  -3.11500002E-02  -3.30467827E-07
  -3.10999993E-02  -3.47961162E-07
  -3.10500003E-02  -3.76356240E-07
  -3.09999995E-02  -4.16950854E-07
  -3.09500005E-02  -4.64849222E-07
  -3.08999997E-02  -5.10928203E-07
  -3.08500007E-02  -5.45882131E-07
  -3.07999998E-02  -5.64463619E-07
  -3.07500008E-02  -5.67877407E-07
  -3.07000000E-02  -5.63191577E-07
  -3.06499992E-02  -5.60088210E-07
  -3.06000002E-02  -5.66476047E-07
  -3.05499993E-02  -5.84890699E-07
  -3.05000003E-02  -6.11197379E-07
  -3.04499995E-02  -6.36164998E-07
  -3.04000005E-02  -6.49346532E-07
  -3.03499997E-02  -6.43699593E-07
  -3.03000007E-02  -6.18897502E-07
  -3.02499998E-02  -5.81683253E-07
  -3.02000009E-02  -5.42914961E-07
  -3.01500000E-02  -5.12592578E-07
  -3.00999992E-02  -4.95219865E-07
  -3.00500002E-02  -4.87692887E-07
  -2.99999993E-02  -4.80649476E-07
  -2.99500003E-02  -4.62602657E-07
  -2.98999995E-02  -4.24999655E-07
  -2.98500005E-02  -3.66080855E-07
  -2.97999997E-02  -2.91936630E-07
  -2.97500007E-02  -2.14214509E-07
  -2.96999998E-02  -1.45277880E-07
  -2.96500009E-02  -9.27965047E-08
  -2.96000000E-02  -5.62188980E-08
  -2.95499992E-02  -2.68872213E-08
  -2.95000002E-02   8.12181433E-09
  -2.94499993E-02   6.01713737E-08
  -2.94000003E-02   1.33979626E-07
  -2.93499995E-02   2.25539978E-07
  -2.93000005E-02   3.23840567E-07
  -2.92499997E-02   4.15517661E-07
  -2.92000007E-02   4.90443028E-07
  -2.91499998E-02   5.45974615E-07
  -2.91000009E-02   5.88080297E-07
  -2.90500000E-02   6.28720784E-07
  -2.89999992E-02   6.80428172E-07
  -2.89500002E-02   7.50407139E-07
  -2.88999993E-02   8.36928848E-07
  -2.88500004E-02   9.29808948E-07
  -2.87999995E-02   1.01479679E-06
  -2.87500005E-02   1.07979440E-06
  -2.86999997E-02   1.12004477E-06
  -2.86500007E-02   1.14005047E-06
  -2.85999998E-02   1.15152989E-06
  -2.85500009E-02   1.16833360E-06
  -2.85000000E-02   1.20038760E-06
  -2.84499992E-02   1.24913697E-06
  -2.84000002E-02   1.30650994E-06
  -2.83499993E-02   1.35809364E-06
  -2.83000004E-02   1.38934615E-06
  -2.82499995E-02   1.39209658E-06
  -2.82000005E-02   1.36826930E-06
  -2.81499997E-02   1.32901982E-06
  -2.81000007E-02   1.28970169E-06
  -2.80499998E-02   1.26301825E-06
  -2.80000009E-02   1.25338534E-06
  -2.79500000E-02   1.25485201E-06
  -2.78999992E-02   1.25338534E-06
  -2.78500002E-02   1.23263339E-06
  -2.77999993E-02   1.18092646E-06
  -2.77500004E-02   1.09660778E-06
  -2.76999995E-02   9.89250566E-07
  -2.76500005E-02   8.75917749E-07
  -2.75999997E-02   7.73897341E-07
  -2.75500007E-02   6.93169966E-07
  -2.74999999E-02   6.32094100E-07
  -2.74500009E-02   5.78262870E-07
  -2.74000000E-02   5.14055500E-07
  -2.73499992E-02   4.24366448E-07
  -2.73000002E-02   3.03199016E-07
  -2.72499993E-02   1.56471472E-07
  -2.72000004E-02  -1.06690358E-10
  -2.71499995E-02  -1.47394687E-07
  -2.71000005E-02  -2.70918349E-07
  -2.70499997E-02  -3.67227727E-07
  -2.70000007E-02  -4.45522318E-07
  -2.69499999E-02  -5.23525443E-07
  -2.69000009E-02  -6.19350260E-07
  -2.68500000E-02  -7.43109638E-07
  -2.67999992E-02  -8.92110108E-07
  -2.67500002E-02  -1.05178117E-06
  -2.66999993E-02  -1.20179288E-06
  -2.66500004E-02  -1.32462037E-06
  -2.65999995E-02  -1.41296005E-06
  -2.65500005E-02  -1.47289200E-06
  -2.64999997E-02  -1.52132679E-06
  -2.64500007E-02  -1.57853026E-06
  -2.63999999E-02  -1.65875201E-06
  -2.63500009E-02  -1.76315052E-06
  -2.63000000E-02  -1.87848877E-06
  -2.62499992E-02  -1.98252633E-06
  -2.62000002E-02  -2.05377250E-06
  -2.61499994E-02  -2.08109941E-06
  -2.61000004E-02  -2.06881646E-06
  -2.60499995E-02  -2.03499349E-06
  -2.60000005E-02  -2.00382306E-06
  -2.59499997E-02  -1.99527153E-06
  -2.59000007E-02  -2.01630860E-06
  -2.58499999E-02  -2.05744232E-06
  -2.58000009E-02  -2.09630889E-06
  -2.57500000E-02  -2.10717440E-06
  -2.56999992E-02  -2.07241374E-06
  -2.56500002E-02  -1.99075475E-06
  -2.55999994E-02  -1.87826549E-06
  -2.55500004E-02  -1.76142157E-06
  -2.54999995E-02  -1.66538962E-06
  -2.54500005E-02  -1.60294530E-06
  -2.53999997E-02  -1.56896772E-06
  -2.53500007E-02  -1.54279962E-06
  -2.52999999E-02  -1.49736695E-06
  -2.52500009E-02  -1.41119722E-06
  -2.52000000E-02  -1.27831902E-06
  -2.51499992E-02  -1.11167606E-06
  -2.51000002E-02  -9.38235758E-07
  -2.50499994E-02  -7.87548913E-07
  -2.50000004E-02  -6.78705021E-07
  -2.49499995E-02  -6.11796111E-07
  -2.49000005E-02  -5.68079145E-07
  -2.48499997E-02  -5.18830461E-07
  -2.48000007E-02  -4.38693547E-07
  -2.47499999E-02  -3.17366045E-07
  -2.47000009E-02  -1.64449318E-07
  -2.46500000E-02  -5.49578427E-09
  -2.45999992E-02   1.28975628E-07
  -2.45500002E-02   2.16814087E-07
  -2.44999994E-02   2.54197772E-07
  -2.44500004E-02   2.57702851E-07
  -2.43999995E-02   2.57017746E-07
  -2.43500005E-02   2.81194644E-07
  -2.42999997E-02   3.44703579E-07
  -2.42500007E-02   4.40002054E-07
  -2.41999999E-02   5.40333247E-07
  -2.41500009E-02   6.11470796E-07
  -2.41000000E-02   6.26906910E-07
  -2.40499992E-02   5.79554239E-07
  -2.40000002E-02   4.84911595E-07
  -2.39499994E-02   3.74421717E-07
  -2.39000004E-02   2.81829131E-07
  -2.38499995E-02   2.28210652E-07
  -2.38000005E-02   2.12174101E-07
  -2.37499997E-02   2.09846647E-07
  -2.37000007E-02   1.85130546E-07
  -2.36499999E-02   1.05963601E-07
  -2.36000009E-02  -4.10048564E-08
  -2.35500000E-02  -2.44332654E-07
  -2.34999992E-02  -4.73113658E-07
  -2.34500002E-02  -6.91010769E-07
  -2.33999994E-02  -8.72392661E-07
  -2.33500004E-02  -1.01339344E-06
  -2.32999995E-02  -1.13324472E-06
  -2.32500006E-02  -1.26557825E-06
  -2.31999997E-02  -1.44335195E-06
  -2.31500007E-02  -1.68379472E-06
  -2.30999999E-02  -1.98016801E-06
  -2.30500009E-02  -2.30435057E-06
  -2.30000000E-02  -2.61947571E-06
  -2.29499992E-02  -2.89690297E-06
  -2.29000002E-02  -3.12929660E-06
  -2.28499994E-02  -3.33356024E-06
  -2.28000004E-02  -3.54244730E-06
  -2.27499995E-02  -3.78900086E-06
  -2.27000006E-02  -4.09120821E-06
  -2.26499997E-02  -4.44364423E-06
  -2.26000007E-02  -4.81950565E-06
  -2.25499999E-02  -5.18211982E-06
  -2.25000009E-02  -5.50103823E-06
  -2.24500000E-02  -5.76579032E-06
  -2.23999992E-02  -5.99091163E-06
  -2.23500002E-02  -6.20944002E-06
  -2.22999994E-02  -6.45760019E-06
  -2.22500004E-02  -6.75775118E-06
  -2.21999995E-02  -7.10782706E-06
  -2.21500006E-02  -7.48240564E-06
  -2.20999997E-02  -7.84451549E-06
  -2.20500007E-02  -8.16225020E-06
  -2.19999999E-02  -8.42283134E-06
  -2.19500009E-02  -8.63808509E-06
  -2.19000001E-02  -8.83910434E-06
  -2.18499992E-02  -9.06249898E-06
  -2.18000002E-02  -9.33403589E-06
  -2.17499994E-02  -9.65676190E-06
  -2.17000004E-02  -1.00092329E-05
  -2.16499995E-02  -1.03552320E-05
  -2.16000006E-02  -1.06606221E-05
  -2.15499997E-02  -1.09090770E-05
  -2.15000007E-02  -1.11091722E-05
  -2.14499999E-02  -1.12900243E-05
  -2.14000009E-02  -1.14879240E-05
  -2.13500001E-02  -1.17304780E-05
  -2.12999992E-02  -1.20254199E-05
  -2.12500002E-02  -1.23582286E-05
  -2.11999994E-02  -1.26995719E-05
  -2.11500004E-02  -1.30193994E-05
  -2.10999995E-02  -1.33013691E-05
  -2.10500006E-02  -1.35510800E-05
  -2.09999997E-02  -1.37939178E-05
  -2.09500007E-02  -1.40630927E-05
  -2.08999999E-02  -1.43838679E-05
  -2.08500009E-02  -1.47619367E-05
  -2.08000001E-02  -1.51816048E-05
  -2.07499992E-02  -1.56140286E-05
  -2.07000002E-02  -1.60310574E-05
  -2.06499994E-02  -1.64186222E-05
  -2.06000004E-02  -1.67835151E-05
  -2.05499995E-02  -1.71509673E-05
  -2.05000006E-02  -1.75541209E-05
  -2.04499997E-02  -1.80198022E-05
  -2.04000007E-02  -1.85566641E-05
  -2.03499999E-02  -1.91512445E-05
  -2.03000009E-02  -1.97744885E-05
  -2.02500001E-02  -2.03959444E-05
  -2.01999992E-02  -2.09985374E-05
  -2.01500002E-02  -2.15862638E-05
  -2.00999994E-02  -2.21818354E-05
  -2.00500004E-02  -2.28159915E-05
  -1.99999996E-02  -2.35138759E-05
  -1.99500006E-02  -2.42844017E-05
  -1.98999997E-02  -2.51167257E-05
  -1.98500007E-02  -2.59852150E-05
  -1.97999999E-02  -2.68610802E-05
  -1.97500009E-02  -2.77256422E-05
  -1.97000001E-02  -2.85783972E-05
  -1.96499992E-02  -2.94368092E-05
  -1.96000002E-02  -3.03280431E-05
  -1.95499994E-02  -3.12755838E-05
  -1.95000004E-02  -3.22876076E-05
  -1.94499996E-02  -3.33536736E-05
  -1.94000006E-02  -3.44503933E-05
  -1.93499997E-02  -3.55530246E-05
  -1.93000007E-02  -3.66464083E-05
  -1.92499999E-02  -3.77307879E-05
  -1.92000009E-02  -3.88210829E-05
  -1.91500001E-02  -3.99396959E-05
  -1.90999992E-02  -4.11056826E-05
  -1.90500002E-02  -4.23250349E-05
  -1.89999994E-02  -4.35873662E-05
  -1.89500004E-02  -4.48695864E-05
  -1.88999996E-02  -4.61470154E-05
  -1.88500006E-02  -4.74058470E-05
  -1.87999997E-02  -4.86494064E-05
  -1.87500007E-02  -4.98953523E-05
  -1.86999999E-02  -5.11666694E-05
  -1.86500009E-02  -5.24803036E-05
  -1.86000001E-02  -5.38388085E-05
  -1.85499992E-02  -5.52297424E-05
  -1.85000002E-02  -5.66304734E-05
  -1.84499994E-02  -5.80171145E-05
  -1.84000004E-02  -5.93747100E-05
  -1.83499996E-02  -6.07047550E-05
  -1.83000006E-02  -6.20257561E-05
  -1.82499997E-02  -6.33642994E-05
  -1.82000007E-02  -6.47426787E-05
  -1.81499999E-02  -6.61686936E-05
  -1.81000009E-02  -6.76321142E-05
  -1.80500001E-02  -6.91115347E-05
  -1.79999992E-02  -7.05851635E-05
  -1.79500002E-02  -7.20399112E-05
  -1.78999994E-02  -7.34765272E-05
  -1.78500004E-02  -7.49083047E-05
  -1.77999996E-02  -7.63558855E-05
  -1.77500006E-02  -7.78392059E-05
  -1.76999997E-02  -7.93674917E-05
  -1.76500008E-02  -8.09346093E-05
  -1.75999999E-02  -8.25228562E-05
  -1.75500009E-02  -8.41145302E-05
  -1.75000001E-02  -8.57038540E-05
  -1.74499992E-02  -8.72997334E-05
  -1.74000002E-02  -8.89216390E-05
  -1.73499994E-02  -9.05923662E-05
  -1.73000004E-02  -9.23296320E-05
  -1.72499996E-02  -9.41395556E-05
  -1.72000006E-02  -9.60138132E-05
  -1.71499997E-02  -9.79340475E-05
  -1.71000008E-02  -9.98818650E-05
  -1.70499999E-02  -1.01849677E-04
  -1.70000009E-02  -1.03846804E-04
  -1.69500001E-02  -1.05897256E-04
  -1.68999992E-02  -1.08030428E-04
  -1.68500002E-02  -1.10268375E-04
  -1.67999994E-02  -1.12617745E-04
  -1.67500004E-02  -1.15070288E-04
  -1.66999996E-02  -1.17608950E-04
  -1.66500006E-02  -1.20217170E-04
  -1.65999997E-02  -1.22887839E-04
  -1.65500008E-02  -1.25628008E-04
  -1.64999999E-02  -1.28461455E-04
  -1.64500009E-02  -1.31420034E-04
  -1.64000001E-02  -1.34530885E-04
  -1.63499992E-02  -1.37805313E-04
  -1.63000003E-02  -1.41234603E-04
  -1.62499994E-02  -1.44799778E-04
  -1.62000004E-02  -1.48481966E-04
  -1.61499996E-02  -1.52269233E-04
  -1.61000006E-02  -1.56164970E-04
  -1.60499997E-02  -1.60189840E-04
  -1.60000008E-02  -1.64372643E-04
  -1.59499999E-02  -1.68738436E-04
  -1.59000009E-02  -1.73298511E-04
  -1.58500001E-02  -1.78048242E-04
  -1.57999992E-02  -1.82971256E-04
  -1.57500003E-02  -1.88049249E-04
  -1.56999994E-02  -1.93273911E-04
  -1.56500004E-02  -1.98652648E-04
  -1.55999996E-02  -2.04205731E-04
  -1.55499997E-02  -2.09957259E-04
  -1.54999997E-02  -2.15927488E-04
  -1.54499998E-02  -2.22125018E-04
  -1.53999999E-02  -2.28540812E-04
  -1.53500000E-02  -2.35151121E-04
  -1.53000001E-02  -2.41929869E-04
  -1.52500002E-02  -2.48863973E-04
  -1.52000003E-02  -2.55960651E-04
  -1.51500003E-02  -2.63246358E-04
  -1.51000004E-02  -2.70752964E-04
  -1.50499996E-02  -2.78501917E-04
  -1.49999997E-02  -2.86499999E-04
  -1.49499997E-02  -2.94737722E-04
  -1.48999998E-02  -3.03190347E-04
  -1.48499999E-02  -3.11827986E-04
  -1.48000000E-02  -3.20627732E-04
  -1.47500001E-02  -3.29586619E-04
  -1.47000002E-02  -3.38724989E-04
  -1.46500003E-02  -3.48076312E-04
  -1.46000003E-02  -3.57670768E-04
  -1.45500004E-02  -3.67518805E-04
  -1.44999996E-02  -3.77610617E-04
  -1.44499997E-02  -3.87927314E-04
  -1.43999998E-02  -3.98444856E-04
  -1.43499998E-02  -4.09144355E-04
  -1.42999999E-02  -4.20022145E-04
  -1.42500000E-02  -4.31091263E-04
  -1.42000001E-02  -4.42374730E-04
  -1.41500002E-02  -4.53897781E-04
  -1.41000003E-02  -4.65677003E-04
  -1.40500003E-02  -4.77708061E-04
  -1.40000004E-02  -4.89966420E-04
  -1.39499996E-02  -5.02419425E-04
  -1.38999997E-02  -5.15047926E-04
  -1.38499998E-02  -5.27853728E-04
  -1.37999998E-02  -5.40863781E-04
  -1.37499999E-02  -5.54114289E-04
  -1.37000000E-02  -5.67622657E-04
  -1.36500001E-02  -5.81387430E-04
  -1.36000002E-02  -5.95404359E-04
  -1.35500003E-02  -6.09664945E-04
  -1.35000004E-02  -6.24149514E-04
  -1.34500004E-02  -6.38837460E-04
  -1.33999996E-02  -6.53718773E-04
  -1.33499997E-02  -6.68810331E-04
  -1.32999998E-02  -6.84158702E-04
  -1.32499998E-02  -6.99809869E-04
  -1.31999999E-02  -7.15776754E-04
  -1.31500000E-02  -7.32038228E-04
  -1.31000001E-02  -7.48556398E-04
  -1.30500002E-02  -7.65299599E-04
  -1.30000003E-02  -7.82258809E-04
  -1.29500004E-02  -7.99437868E-04
  -1.29000004E-02  -8.16845510E-04
  -1.28499996E-02  -8.34511651E-04
  -1.27999997E-02  -8.52486992E-04
  -1.27499998E-02  -8.70817748E-04
  -1.26999998E-02  -8.89518182E-04
  -1.26499999E-02  -9.08572925E-04
  -1.26000000E-02  -9.27950663E-04
  -1.25500001E-02  -9.47617111E-04
  -1.25000002E-02  -9.67566157E-04
  -1.24500003E-02  -9.87821841E-04
  -1.24000004E-02  -1.00840186E-03
  -1.23500004E-02  -1.02930982E-03
  -1.22999996E-02  -1.05053594E-03
  -1.22499997E-02  -1.07207685E-03
  -1.21999998E-02  -1.09394500E-03
  -1.21499998E-02  -1.11613947E-03
  -1.20999999E-02  -1.13865919E-03
  -1.20500000E-02  -1.16152130E-03
  -1.20000001E-02  -1.18478271E-03
  -1.19500002E-02  -1.20852480E-03
  -1.19000003E-02  -1.23280135E-03
  -1.18500004E-02  -1.25761307E-03
  -1.18000004E-02  -1.28292921E-03
  -1.17499996E-02  -1.30870042E-03
  -1.16999997E-02  -1.33485347E-03
  -1.16499998E-02  -1.36131409E-03
  -1.15999999E-02  -1.38802116E-03
  -1.15499999E-02  -1.41496689E-03
  -1.15000000E-02  -1.44220365E-03
  -1.14500001E-02  -1.46980432E-03
  -1.14000002E-02  -1.49782107E-03
  -1.13500003E-02  -1.52629463E-03
  -1.13000004E-02  -1.55528809E-03
  -1.12500004E-02  -1.58486189E-03
  -1.11999996E-02  -1.61505514E-03
  -1.11499997E-02  -1.64589286E-03
  -1.10999998E-02  -1.67739752E-03
  -1.10499999E-02  -1.70959206E-03
  -1.09999999E-02  -1.74246309E-03
  -1.09500000E-02  -1.77593215E-03
  -1.09000001E-02  -1.80987525E-03
  -1.08500002E-02  -1.84416794E-03
  -1.08000003E-02  -1.87872723E-03
  -1.07500004E-02  -1.91348419E-03
  -1.07000005E-02  -1.94841693E-03
  -1.06499996E-02  -1.98359671E-03
  -1.05999997E-02  -2.01918138E-03
  -1.05499998E-02  -2.05534045E-03
  -1.04999999E-02  -2.09220708E-03
  -1.04499999E-02  -2.12986302E-03
  -1.04000000E-02  -2.16832967E-03
  -1.03500001E-02  -2.20761541E-03
  -1.03000002E-02  -2.24771700E-03
  -1.02500003E-02  -2.28860113E-03
  -1.02000004E-02  -2.33018282E-03
  -1.01500005E-02  -2.37238687E-03
  -1.00999996E-02  -2.41520628E-03
  -1.00499997E-02  -2.45863316E-03
  -9.99999978E-03  -2.50262441E-03
  -9.94999986E-03  -2.54709600E-03
  -9.89999995E-03  -2.59193499E-03
  -9.85000003E-03  -2.63712928E-03
  -9.80000012E-03  -2.68280692E-03
  -9.75000020E-03  -2.72913999E-03
  -9.70000029E-03  -2.77621555E-03
  -9.65000037E-03  -2.82401708E-03
  -9.60000046E-03  -2.87257833E-03
  -9.54999961E-03  -2.92200176E-03
  -9.49999969E-03  -2.97234929E-03
  -9.44999978E-03  -3.02353851E-03
  -9.39999986E-03  -3.07539292E-03
  -9.34999995E-03  -3.12782684E-03
  -9.30000003E-03  -3.18096438E-03
  -9.25000012E-03  -3.23501602E-03
  -9.20000020E-03  -3.29008023E-03
  -9.15000029E-03  -3.34613281E-03
  -9.10000037E-03  -3.40309809E-03
  -9.05000046E-03  -3.46098118E-03
  -8.99999961E-03  -3.51984520E-03
  -8.94999970E-03  -3.57963797E-03
  -8.89999978E-03  -3.64021445E-03
  -8.84999987E-03  -3.70147056E-03
  -8.79999995E-03  -3.76344752E-03
  -8.75000004E-03  -3.82632110E-03
  -8.70000012E-03  -3.89023195E-03
  -8.65000021E-03  -3.95515189E-03
  -8.60000029E-03  -4.02094563E-03
  -8.55000038E-03  -4.08753566E-03
  -8.50000046E-03  -4.15501185E-03
  -8.44999962E-03  -4.22353903E-03
  -8.39999970E-03  -4.29316843E-03
  -8.34999979E-03  -4.36384045E-03
  -8.29999987E-03  -4.43556486E-03
  -8.24999996E-03  -4.50849626E-03
  -8.20000004E-03  -4.58280556E-03
  -8.15000013E-03  -4.65847692E-03
  -8.10000021E-03  -4.73530311E-03
  -8.05000030E-03  -4.81308857E-03
  -8.00000038E-03  -4.89184679E-03
  -7.95000046E-03  -4.97180223E-03
  -7.89999962E-03  -5.05310204E-03
  -7.84999970E-03  -5.13574295E-03
  -7.79999979E-03  -5.21969656E-03
  -7.74999987E-03  -5.30498847E-03
  -7.69999996E-03  -5.39163686E-03
  -7.65000004E-03  -5.47957234E-03
  -7.60000013E-03  -5.56867011E-03
  -7.55000021E-03  -5.65872015E-03
  -7.49999983E-03  -5.74964937E-03
  -7.44999992E-03  -5.84165705E-03
  -7.40000000E-03  -5.93497045E-03
  -7.35000009E-03  -6.02976000E-03
  -7.30000017E-03  -6.12598285E-03
  -7.24999979E-03  -6.22356869E-03
  -7.19999988E-03  -6.32257573E-03
  -7.14999996E-03  -6.42303051E-03
  -7.10000005E-03  -6.52491720E-03
  -7.05000013E-03  -6.62813522E-03
  -7.00000022E-03  -6.73263101E-03
  -6.94999984E-03  -6.83854846E-03
  -6.89999992E-03  -6.94615208E-03
  -6.85000001E-03  -7.05552567E-03
  -6.80000009E-03  -7.16655655E-03
  -6.75000018E-03  -7.27903238E-03
  -6.69999979E-03  -7.39274547E-03
  -6.64999988E-03  -7.50771910E-03
  -6.59999996E-03  -7.62406364E-03
  -6.55000005E-03  -7.74183497E-03
  -6.50000013E-03  -7.86103215E-03
  -6.45000022E-03  -7.98169989E-03
  -6.39999984E-03  -8.10392760E-03
  -6.34999992E-03  -8.22782144E-03
  -6.30000001E-03  -8.35332181E-03
  -6.25000009E-03  -8.48014839E-03
  -6.20000018E-03  -8.60807858E-03
  -6.14999980E-03  -8.73711426E-03
  -6.09999988E-03  -8.86749104E-03
  -6.04999997E-03  -8.99945386E-03
  -6.00000005E-03  -9.13321599E-03
  -5.95000014E-03  -9.26886778E-03
  -5.90000022E-03  -9.40640830E-03
  -5.84999984E-03  -9.54577886E-03
  -5.79999993E-03  -9.68680903E-03
  -5.75000001E-03  -9.82928555E-03
  -5.70000010E-03  -9.97301750E-03
  -5.65000018E-03  -1.01180272E-02
  -5.59999980E-03  -1.02646342E-02
  -5.54999989E-03  -1.04130432E-02
  -5.49999997E-03  -1.05632897E-02
  -5.45000006E-03  -1.07153477E-02
  -5.40000014E-03  -1.08691119E-02
  -5.35000023E-03  -1.10245245E-02
  -5.29999984E-03  -1.11814914E-02
  -5.24999993E-03  -1.13397641E-02
  -5.20000001E-03  -1.14991581E-02
  -5.15000010E-03  -1.16597693E-02
  -5.10000018E-03  -1.18219005E-02
  -5.04999980E-03  -1.19859902E-02
  -4.99999989E-03  -1.21522667E-02
  -4.94999997E-03  -1.23204812E-02
  -4.90000006E-03  -1.24902921E-02
  -4.85000014E-03  -1.26615074E-02
  -4.80000023E-03  -1.28341168E-02
  -4.74999985E-03  -1.30083272E-02
  -4.69999993E-03  -1.31844310E-02
  -4.65000002E-03  -1.33625548E-02
  -4.60000010E-03  -1.35425832E-02
  -4.55000019E-03  -1.37246456E-02
  -4.49999981E-03  -1.39089460E-02
  -4.44999989E-03  -1.40954033E-02
  -4.39999998E-03  -1.42834922E-02
  -4.35000006E-03  -1.44725693E-02
  -4.30000015E-03  -1.46625945E-02
  -4.25000023E-03  -1.48539608E-02
  -4.19999985E-03  -1.50472149E-02
  -4.14999994E-03  -1.52427265E-02
  -4.10000002E-03  -1.54404221E-02
  -4.05000011E-03  -1.56400669E-02
  -4.00000019E-03  -1.58414785E-02
  -3.94999981E-03  -1.60445664E-02
  -3.89999989E-03  -1.62493438E-02
  -3.84999998E-03  -1.64556056E-02
  -3.80000006E-03  -1.66631695E-02
  -3.74999992E-03  -1.68722384E-02
  -3.70000000E-03  -1.70833971E-02
  -3.65000009E-03  -1.72973666E-02
  -3.59999994E-03  -1.75140798E-02
  -3.55000002E-03  -1.77327171E-02
  -3.50000011E-03  -1.79526731E-02
  -3.44999996E-03  -1.81738902E-02
  -3.40000005E-03  -1.83966830E-02
  -3.34999990E-03  -1.86212659E-02
  -3.29999998E-03  -1.88474525E-02
  -3.25000007E-03  -1.90751441E-02
  -3.19999992E-03  -1.93048511E-02
  -3.15000000E-03  -1.95372161E-02
  -3.10000009E-03  -1.97719652E-02
  -3.04999994E-03  -2.00082753E-02
  -3.00000003E-03  -2.02455837E-02
  -2.95000011E-03  -2.04838011E-02
  -2.89999996E-03  -2.07234230E-02
  -2.85000005E-03  -2.09648944E-02
  -2.79999990E-03  -2.12084446E-02
  -2.74999999E-03  -2.14542896E-02
  -2.70000007E-03  -2.17022728E-02
  -2.64999992E-03  -2.19522696E-02
  -2.60000001E-03  -2.22041775E-02
  -2.55000009E-03  -2.24574879E-02
  -2.49999994E-03  -2.27115117E-02
  -2.45000003E-03  -2.29659751E-02
  -2.40000011E-03  -2.32217237E-02
  -2.34999997E-03  -2.34798118E-02
  -2.30000005E-03  -2.37405058E-02
  -2.24999990E-03  -2.40034107E-02
  -2.19999999E-03  -2.42682453E-02
  -2.15000007E-03  -2.45347992E-02
  -2.09999993E-03  -2.48028133E-02
  -2.05000001E-03  -2.50720978E-02
  -2.00000009E-03  -2.53419708E-02
  -1.94999995E-03  -2.56123021E-02
  -1.90000003E-03  -2.58838050E-02
  -1.85000000E-03  -2.61574071E-02
  -1.79999997E-03  -2.64335852E-02
  -1.75000005E-03  -2.67116651E-02
  -1.70000002E-03  -2.69907676E-02
  -1.64999999E-03  -2.72704195E-02
  -1.59999996E-03  -2.75502894E-02
  -1.55000004E-03  -2.78308038E-02
  -1.50000001E-03  -2.81124506E-02
  -1.44999998E-03  -2.83952113E-02
  -1.39999995E-03  -2.86794025E-02
  -1.35000004E-03  -2.89656762E-02
  -1.30000000E-03  -2.92540696E-02
  -1.24999997E-03  -2.95438319E-02
  -1.20000006E-03  -2.98342723E-02
  -1.15000003E-03  -3.01250070E-02
  -1.09999999E-03  -3.04160807E-02
  -1.04999996E-03  -3.07075027E-02
  -1.00000005E-03  -3.09994258E-02
  -9.50000016E-04  -3.12923975E-02
  -8.99999985E-04  -3.15869115E-02
  -8.50000011E-04  -3.18831839E-02
  -7.99999980E-04  -3.21806930E-02
  -7.50000007E-04  -3.24782580E-02
  -6.99999975E-04  -3.27750035E-02
  -6.50000002E-04  -3.30712199E-02
  -6.00000028E-04  -3.33673209E-02
  -5.49999997E-04  -3.36633287E-02
  -5.00000024E-04  -3.39596383E-02
  -4.49999992E-04  -3.42570581E-02
  -3.99999990E-04  -3.45561989E-02
  -3.49999988E-04  -3.48564647E-02
  -3.00000014E-04  -3.51566486E-02
  -2.50000012E-04  -3.54557410E-02
  -1.99999995E-04  -3.57536860E-02
  -1.50000007E-04  -3.60511094E-02
  -9.99999975E-05  -3.63482609E-02
  -4.99999987E-05  -3.66456024E-02
   0.00000000      -3.69433537E-02
   4.99999987E-05  -3.72412279E-02
   9.99999975E-05  -3.75390835E-02
   1.50000007E-04  -3.78364585E-02
   1.99999995E-04  -3.81323583E-02
   2.50000012E-04  -3.84263508E-02
   3.00000014E-04  -3.87184694E-02
   3.49999988E-04  -3.90090905E-02
   3.99999990E-04  -3.92990932E-02
   4.49999992E-04  -3.95885222E-02
   5.00000024E-04  -3.98772843E-02
   5.49999997E-04  -4.01653945E-02
   6.00000028E-04  -4.04523946E-02
   6.50000002E-04  -4.07371707E-02
   6.99999975E-04  -4.10184525E-02
   7.50000007E-04  -4.12972532E-02
   7.99999980E-04  -4.15744670E-02
   8.50000011E-04  -4.18502651E-02
   8.99999985E-04  -4.21242267E-02
   9.50000016E-04  -4.23953682E-02
   1.00000005E-03  -4.26646695E-02
   1.04999996E-03  -4.29331586E-02
   1.09999999E-03  -4.31990549E-02
   1.15000003E-03  -4.34602946E-02
   1.20000006E-03  -4.37161587E-02
   1.24999997E-03  -4.39671241E-02
   1.30000000E-03  -4.42156605E-02
   1.35000004E-03  -4.44636010E-02
   1.39999995E-03  -4.47095893E-02
   1.44999998E-03  -4.49501947E-02
   1.50000001E-03  -4.51843664E-02
   1.55000004E-03  -4.54146601E-02
   1.59999996E-03  -4.56427187E-02
   1.64999999E-03  -4.58668843E-02
   1.70000002E-03  -4.60832939E-02
   1.75000005E-03  -4.62908410E-02
   1.79999997E-03  -4.64940183E-02
   1.85000000E-03  -4.66966704E-02
   1.90000003E-03  -4.68970761E-02
   1.94999995E-03  -4.70898300E-02
   2.00000009E-03  -4.72723022E-02
   2.05000001E-03  -4.74473163E-02
   2.09999993E-03  -4.76189516E-02
   2.15000007E-03  -4.77873236E-02
   2.19999999E-03  -4.79481369E-02
   2.24999990E-03  -4.80987355E-02
   2.30000005E-03  -4.82405648E-02
   2.34999997E-03  -4.83776107E-02
   2.40000011E-03  -4.85119335E-02
   2.45000003E-03  -4.86391224E-02
   2.49999994E-03  -4.87530306E-02
   2.55000009E-03  -4.88527864E-02
   2.60000001E-03  -4.89442423E-02
   2.64999992E-03  -4.90326546E-02
   2.70000007E-03  -4.91152331E-02
   2.74999999E-03  -4.91853841E-02
   2.79999990E-03  -4.92408127E-02