  -3.99999991E-02   0.00000000    
  -3.99499983E-02   0.00000000    
  -3.99000011E-02   0.00000000    
  -3.98500003E-02   1.04802998E-18
  -3.97999994E-02   3.19006463E-18
  -3.97499986E-02  -1.19359689E-17
  -3.97000015E-02  -1.15318612E-16
  -3.96500006E-02  -4.48112352E-16
  -3.95999998E-02  -1.15850803E-15
  -3.95499989E-02  -2.21704691E-15
  -3.95000018E-02  -3.16990709E-15
  -3.94500010E-02  -3.02095359E-15
  -3.94000001E-02  -4.83315147E-16
  -3.93499993E-02   5.29609891E-15
  -3.92999984E-02   1.37599825E-14
  -3.92500013E-02   2.22823672E-14
  -3.92000005E-02   2.65054261E-14
  -3.91499996E-02   2.19967104E-14
  -3.90999988E-02   6.77806479E-15
  -3.90500017E-02  -1.65457248E-14
  -3.90000008E-02  -4.06242423E-14
  -3.89500000E-02  -5.60658528E-14
  -3.88999991E-02  -5.63883758E-14
  -3.88499983E-02  -4.29567270E-14
  -3.88000011E-02  -2.69414126E-14
  -3.87500003E-02  -2.62658937E-14
  -3.86999995E-02  -5.79264013E-14
  -3.86499986E-02  -1.28867660E-13
  -3.86000015E-02  -2.30241200E-13
  -3.85500006E-02  -3.39164731E-13
  -3.84999998E-02  -4.28890213E-13
  -3.84499989E-02  -4.83764829E-13
  -3.84000018E-02  -5.11752912E-13
  -3.83500010E-02  -5.46887676E-13
  -3.83000001E-02  -6.37889101E-13
  -3.82499993E-02  -8.26107303E-13
  -3.81999984E-02  -1.12258748E-12
  -3.81500013E-02  -1.49648393E-12
  -3.81000005E-02  -1.88311541E-12
  -3.80499996E-02  -2.21082007E-12
  -3.79999988E-02  -2.43569943E-12
  -3.79500017E-02  -2.56757029E-12
  -3.79000008E-02  -2.67252670E-12
  -3.78500000E-02  -2.84738877E-12
  -3.77999991E-02  -3.17499000E-12
  -3.77499983E-02  -3.68031994E-12
  -3.77000012E-02  -4.30990703E-12
  -3.76500003E-02  -4.94787501E-12
  -3.75999995E-02  -5.46486684E-12
  -3.75499986E-02  -5.77862107E-12
  -3.75000015E-02  -5.89669763E-12
  -3.74500006E-02  -5.91827976E-12
  -3.73999998E-02  -5.99086232E-12
  -3.73499990E-02  -6.23999767E-12
  -3.73000018E-02  -6.70474353E-12
  -3.72500010E-02  -7.31040315E-12
  -3.72000001E-02  -7.89345152E-12
  -3.71499993E-02  -8.26883440E-12
  -3.70999984E-02  -8.30883539E-12
  -3.70500013E-02  -7.99596934E-12
  -3.70000005E-02  -7.42428168E-12
  -3.69499996E-02  -6.74890092E-12
  -3.68999988E-02  -6.10999099E-12
  -3.68500017E-02  -5.56995162E-12
  -3.68000008E-02  -5.09437718E-12
  -3.67500000E-02  -4.58238395E-12
  -3.66999991E-02  -3.92467265E-12
  -3.66499983E-02  -3.05425281E-12
  -3.66000012E-02  -1.96235389E-12
  -3.65500003E-02  -6.75727703E-13
  -3.64999995E-02   7.83111423E-13
  -3.64499986E-02   2.42007239E-12
  -3.64000015E-02   4.25594152E-12
  -3.63500006E-02   6.28025800E-12
  -3.62999998E-02   8.40625746E-12
  -3.62499990E-02   1.04705550E-11
  -3.62000018E-02   1.23010612E-11
  -3.61500010E-02   1.38323996E-11
  -3.61000001E-02   1.52044297E-11
  -3.60499993E-02   1.67666575E-11
  -3.59999985E-02   1.89479682E-11
  -3.59500013E-02   2.20260546E-11
  -3.59000005E-02   2.59061592E-11
  -3.58499996E-02   3.00469719E-11
  -3.57999988E-02   3.36233368E-11
  -3.57500017E-02   3.59013756E-11
  -3.57000008E-02   3.66719745E-11
  -3.56500000E-02   3.65138267E-11
  -3.55999991E-02   3.66925969E-11
  -3.55499983E-02   3.86556863E-11
  -3.55000012E-02   4.32957732E-11
  -3.54500003E-02   5.03264548E-11
  -3.53999995E-02   5.81353438E-11
  -3.53499986E-02   6.43067335E-11
  -3.53000015E-02   6.66896816E-11
  -3.52500007E-02   6.45694886E-11
  -3.51999998E-02   5.93523564E-11
  -3.51499990E-02   5.43073468E-11
  -3.51000018E-02   5.33085451E-11
  -3.50500010E-02   5.90242369E-11
  -3.50000001E-02   7.13676618E-11
  -3.49499993E-02   8.70405970E-11
  -3.48999985E-02   1.00596399E-10
  -3.48500013E-02   1.06755237E-10
  -3.48000005E-02   1.03023610E-10
  -3.47499996E-02   9.13557910E-11
  -3.46999988E-02   7.78676221E-11
  -3.46500017E-02   7.04320907E-11
  -3.46000008E-02   7.50230641E-11
  -3.45500000E-02   9.24340604E-11
  -3.44999991E-02   1.17060681E-10
  -3.44499983E-02   1.38660264E-10
  -3.44000012E-02   1.46658435E-10
  -3.43500003E-02   1.35246966E-10
  -3.42999995E-02   1.06873829E-10
  -3.42499986E-02   7.21785756E-11
  -3.42000015E-02   4.59065806E-11
  -3.41500007E-02   4.02523744E-11
  -3.40999998E-02   5.85473545E-11
  -3.40499990E-02   9.24308338E-11
  -3.40000018E-02   1.24348642E-10
  -3.39500010E-02   1.34851949E-10
  -3.39000002E-02   1.11748881E-10
  -3.38499993E-02   5.68806321E-11
  -3.37999985E-02  -1.30746863E-11
  -3.37500013E-02  -7.28999500E-11
  -3.37000005E-02  -1.00048990E-10
  -3.36499996E-02  -8.59224081E-11
  -3.35999988E-02  -4.17456521E-11
  -3.35500017E-02   4.44651737E-12
  -3.35000008E-02   1.93170341E-11
  -3.34500000E-02  -2.03384774E-11
  -3.33999991E-02  -1.15223359E-10
  -3.33499983E-02  -2.40549775E-10
  -3.33000012E-02  -3.54925145E-10
  -3.32500003E-02  -4.18168333E-10
  -3.31999995E-02  -4.10485063E-10
  -3.31499986E-02  -3.43959389E-10
  -3.31000015E-02  -2.60039684E-10
  -3.30500007E-02  -2.12742837E-10
  -3.29999998E-02  -2.44113396E-10
  -3.29499990E-02  -3.62859409E-10
  -3.29000019E-02  -5.36686862E-10
  -3.28500010E-02  -7.03373859E-10
  -3.28000002E-02  -7.97180655E-10
  -3.27499993E-02  -7.79528331E-10
  -3.26999985E-02  -6.59757027E-10
  -3.26500013E-02  -4.95123387E-10
  -3.26000005E-02  -3.68045538E-10
  -3.25499997E-02  -3.49244605E-10
  -3.24999988E-02  -4.62957811E-10
  -3.24500017E-02  -6.70922151E-10
  -3.24000008E-02  -8.84458395E-10
  -3.23500000E-02  -1.00150688E-09
  -3.22999991E-02  -9.53350732E-10
  -3.22499983E-02  -7.39799721E-10
  -3.22000012E-02  -4.35177644E-10
  -3.21500003E-02  -1.59723068E-10
  -3.20999995E-02  -2.68999927E-11
  -3.20499986E-02  -8.94178689E-11
  -3.20000015E-02  -3.09327869E-10
  -3.19500007E-02  -5.68347369E-10
  -3.18999998E-02  -7.16934345E-10
  -3.18499990E-02  -6.42226217E-10
  -3.18000019E-02  -3.24412469E-10
  -3.17500010E-02   1.45948392E-10
  -3.17000002E-02   6.01013128E-10
  -3.16499993E-02   8.67696248E-10
  -3.15999985E-02   8.47985571E-10
  -3.15500014E-02   5.70508807E-10
  -3.15000005E-02   1.86900717E-10
  -3.14499997E-02  -8.96553110E-11
  -3.13999988E-02  -7.94155089E-11
  -3.13500017E-02   2.77275369E-10
  -3.13000008E-02   8.82826090E-10
  -3.12500000E-02   1.51582402E-09
  -3.11999992E-02   1.92468397E-09
  -3.11500002E-02   1.94224037E-09
  -3.10999993E-02   1.56934066E-09
  -3.10500003E-02   9.86189463E-10
  -3.09999995E-02   4.80963769E-10
  -3.09500005E-02   3.23057053E-10
  -3.08999997E-02   6.36094843E-10
  -3.08500007E-02   1.32984757E-09
  -3.07999998E-02   2.12686313E-09
  -3.07500008E-02   2.67800715E-09
  -3.07000000E-02   2.71930811E-09
  -3.06499992E-02   2.20003638E-09
  -3.06000002E-02   1.32057965E-09
  -3.05499993E-02   4.56487764E-10
  -3.05000003E-02  -3.63465464E-12
  -3.04499995E-02   1.63115424E-10
  -3.04000005E-02   9.00318819E-10
  -3.03499997E-02   1.88062099E-09
  -3.03000007E-02   2.64008793E-09
  -3.02499998E-02   2.78434764E-09
  -3.02000009E-02   2.17562413E-09
  -3.01500000E-02   1.01289910E-09
  -3.00999992E-02  -2.38580045E-10
  -3.00500002E-02  -1.04523523E-09
  -2.99999993E-02  -1.04691422E-09
  -2.99500003E-02  -2.33443903E-10
  -2.98999995E-02   1.02952824E-09
  -2.98500005E-02   2.14647256E-09
  -2.97999997E-02   2.55269672E-09
  -2.97500007E-02   1.97647831E-09
  -2.96999998E-02   5.81871884E-10
  -2.96500009E-02  -1.08063292E-09
  -2.96000000E-02  -2.30410135E-09
  -2.95499992E-02  -2.54041255E-09
  -2.95000002E-02  -1.66067171E-09
  -2.94499993E-02  -3.78937853E-11
  -2.94000003E-02   1.59609337E-09
  -2.93499995E-02   2.46643839E-09
  -2.93000005E-02   2.10830731E-09
  -2.92499997E-02   5.97107142E-10
  -2.92000007E-02  -1.45655576E-09
  -2.91499998E-02  -3.15772009E-09
  -2.91000009E-02  -3.72199427E-09
  -2.90500000E-02  -2.84122748E-09
  -2.89999992E-02  -8.50736759E-10
  -2.89500002E-02   1.38912104E-09
  -2.88999993E-02   2.85792501E-09
  -2.88500004E-02   2.83258550E-09
  -2.87999995E-02   1.23266386E-09
  -2.87500005E-02  -1.31017475E-09
  -2.86999997E-02  -3.70453090E-09
  -2.86500007E-02  -4.87452079E-09
  -2.85999998E-02  -4.25199920E-09
  -2.85500009E-02  -2.06169215E-09
  -2.85000000E-02   7.41371353E-10
  -2.84499992E-02   2.87088486E-09
  -2.84000002E-02   3.27921046E-09
  -2.83499993E-02   1.64654046E-09
  -2.83000004E-02  -1.43791168E-09
  -2.82499995E-02  -4.70039296E-09
  -2.82000005E-02  -6.73008094E-09
  -2.81499997E-02  -6.61554544E-09
  -2.81000007E-02  -4.38438885E-09
  -2.80499998E-02  -1.03630082E-09
  -2.80000009E-02   1.86491511E-09
  -2.79500000E-02   2.87546587E-09
  -2.78999992E-02   1.33351108E-09
  -2.78500002E-02  -2.30325448E-09
  -2.77999993E-02  -6.61300925E-09
  -2.77500004E-02  -9.81026815E-09
  -2.76999995E-02  -1.05389031E-08
  -2.76500005E-02  -8.50617088E-09
  -2.75999997E-02  -4.66250194E-09
  -2.75500007E-02  -8.24889990E-10
  -2.74999999E-02   1.11005705E-09
  -2.74500009E-02   2.44197128E-11
  -2.74000000E-02  -3.87778032E-09
  -2.73499992E-02  -9.10290687E-09
  -2.73000002E-02  -1.34862654E-08
  -2.72499993E-02  -1.51420352E-08
  -2.72000004E-02  -1.33282851E-08
  -2.71499995E-02  -8.83122020E-09
  -2.71000005E-02  -3.67372044E-09
  -2.70499997E-02  -2.51172722E-10
  -2.70000007E-02  -2.61520972E-10
  -2.69499999E-02  -3.90534183E-09
  -2.69000009E-02  -9.72954517E-09
  -2.68500000E-02  -1.52125548E-08
  -2.67999992E-02  -1.78571629E-08
  -2.67500002E-02  -1.63176903E-08
  -2.66999993E-02  -1.10528937E-08
  -2.66500004E-02  -4.18972634E-09
  -2.65999995E-02   1.37282730E-09
  -2.65500005E-02   3.24558069E-09
  -2.64999997E-02   6.52696619E-10
  -2.64500007E-02  -5.14929388E-09
  -2.63999999E-02  -1.13541807E-08
  -2.63500009E-02  -1.48087800E-08
  -2.63000000E-02  -1.34210492E-08
  -2.62499992E-02  -7.14565296E-09
  -2.62000002E-02   1.91508920E-09
  -2.61499994E-02   1.03756888E-08
  -2.61000004E-02   1.50451989E-08
  -2.60499995E-02   1.43751331E-08
  -2.60000005E-02   9.22278254E-09
  -2.59499997E-02   2.55868748E-09
  -2.59000007E-02  -1.79081616E-09
  -2.58499999E-02  -8.35895020E-10
  -2.58000009E-02   6.19626794E-09
  -2.57500000E-02   1.74274408E-08
  -2.56999992E-02   2.90727424E-08
  -2.56500002E-02   3.70724607E-08
  -2.55999994E-02   3.89090218E-08
  -2.55500004E-02   3.47967877E-08
  -2.54999995E-02   2.76845782E-08
  -2.54500005E-02   2.20251160E-08
  -2.53999997E-02   2.18201244E-08
  -2.53500007E-02   2.87950677E-08
  -2.52999999E-02   4.15309032E-08
  -2.52500009E-02   5.59792603E-08
  -2.52000000E-02   6.71797622E-08
  -2.51499992E-02   7.14497475E-08
  -2.51000002E-02   6.80773269E-08
  -2.50499994E-02   5.97371894E-08
  -2.50000004E-02   5.13960323E-08
  -2.49499995E-02   4.81463012E-08
  -2.49000005E-02   5.29055448E-08
  -2.48499997E-02   6.50125926E-08
  -2.48000007E-02   8.03844529E-08
  -2.47499999E-02   9.32184108E-08
  -2.47000009E-02   9.85272948E-08
  -2.46500000E-02   9.43957801E-08
  -2.45999992E-02   8.29321820E-08
  -2.45500002E-02   6.94420166E-08
  -2.44999994E-02   6.01335728E-08
  -2.44500004E-02   5.93377436E-08
  -2.43999995E-02   6.74765488E-08
  -2.43500005E-02   8.07202909E-08
  -2.42999997E-02   9.25451928E-08
  -2.42500007E-02   9.65552616E-08
  -2.41999999E-02   8.93415688E-08
  -2.41500009E-02   7.20940321E-08
  -2.41000000E-02   5.01988673E-08
  -2.40499992E-02   3.09362669E-08
  -2.40000002E-02   2.02507202E-08
  -2.39499994E-02   2.00162447E-08
  -2.39000004E-02   2.70432441E-08
  -2.38499995E-02   3.43302489E-08
  -2.38000005E-02   3.40708901E-08
  -2.37499997E-02   2.11207389E-08
  -2.37000007E-02  -4.62030014E-09
  -2.36499999E-02  -3.80158838E-08
  -2.36000009E-02  -7.08478964E-08
  -2.35500000E-02  -9.54236654E-08
  -2.34999992E-02  -1.08060206E-07
  -2.34500002E-02  -1.10874986E-07
  -2.33999994E-02  -1.11025400E-07
  -2.33500004E-02  -1.17659383E-07
  -2.32999995E-02  -1.37876498E-07
  -2.32500006E-02  -1.73484352E-07
  -2.31999997E-02  -2.20032263E-07
  -2.31500007E-02  -2.68625513E-07
  -2.30999999E-02  -3.09788902E-07
  -2.30500009E-02  -3.37705302E-07
  -2.30000000E-02  -3.52935615E-07
  -2.29499992E-02  -3.62352608E-07
  -2.29000002E-02  -3.76236102E-07
  -2.28499994E-02  -4.03750676E-07
  -2.28000004E-02  -4.48790871E-07
  -2.27499995E-02  -5.08070855E-07
  -2.27000006E-02  -5.72382589E-07
  -2.26499997E-02  -6.30548641E-07
  -2.26000007E-02  -6.74371734E-07
  -2.25499999E-02  -7.02385535E-07
  -2.25000009E-02  -7.20689457E-07
  -2.24500000E-02  -7.40408893E-07
  -2.23999992E-02  -7.72827377E-07
  -2.23500002E-02  -8.24311712E-07
  -2.22999994E-02  -8.93303934E-07
  -2.22500004E-02  -9.70786573E-07
  -2.21999995E-02  -1.04410799E-06
  -2.21500006E-02  -1.10254268E-06
  -2.20999997E-02  -1.14213435E-06
  -2.20500007E-02  -1.16763329E-06
  -2.19999999E-02  -1.19057427E-06
  -2.19500009E-02  -1.22426002E-06
  -2.19000001E-02  -1.27782039E-06
  -2.18499992E-02  -1.35198638E-06
  -2.18000002E-02  -1.43852424E-06
  -2.17499994E-02  -1.52367659E-06
  -2.17000004E-02  -1.59416936E-06
  -2.16499995E-02  -1.64315725E-06
  -2.16000006E-02  -1.67343717E-06
  -2.15499997E-02  -1.69641862E-06
  -2.15000007E-02  -1.72720843E-06
  -2.14499999E-02  -1.77791640E-06
  -2.14000009E-02  -1.85214390E-06
  -2.13500001E-02  -1.94315294E-06
  -2.12999992E-02  -2.03662762E-06
  -2.12500002E-02  -2.11690281E-06
  -2.11999994E-02  -2.17394563E-06
  -2.11500004E-02  -2.20798211E-06
  -2.10999995E-02  -2.22963263E-06
  -2.10500006E-02  -2.25539520E-06
  -2.09999997E-02  -2.30039223E-06
  -2.09500007E-02  -2.37156610E-06
  -2.08999999E-02  -2.46438663E-06
  -2.08500009E-02  -2.56463090E-06
  -2.08000001E-02  -2.65454241E-06
  -2.07499992E-02  -2.72072316E-06
  -2.07000002E-02  -2.76024252E-06
  -2.06499994E-02  -2.78219773E-06
  -2.06000004E-02  -2.80392692E-06
  -2.05499995E-02  -2.84345083E-06
  -2.05000006E-02  -2.91145079E-06
  -2.04499997E-02  -3.00635770E-06
  -2.04000007E-02  -3.11483427E-06
  -2.03499999E-02  -3.21753782E-06
  -2.03000009E-02  -3.29769523E-06
  -2.02500001E-02  -3.34870856E-06
  -2.01999992E-02  -3.37736697E-06
  -2.01500002E-02  -3.40113024E-06
  -2.00999994E-02  -3.44057798E-06
  -2.00500004E-02  -3.51032645E-06
  -1.99999996E-02  -3.61242496E-06
  -1.99500006E-02  -3.73524767E-06
  -1.98999997E-02  -3.85848807E-06
  -1.98500007E-02  -3.96212545E-06
  -1.97999999E-02  -4.03545209E-06
  -1.97500009E-02  -4.08210872E-06
  -1.97000001E-02  -4.11878591E-06
  -1.96499992E-02  -4.16807825E-06
  -1.96000002E-02  -4.24856489E-06
  -1.95499994E-02  -4.36650953E-06
  -1.95000004E-02  -4.51290498E-06
  -1.94499996E-02  -4.66730262E-06
  -1.94000006E-02  -4.80682365E-06
  -1.93499997E-02  -4.91640958E-06
  -1.93000007E-02  -4.99577118E-06
  -1.92499999E-02  -5.05986418E-06
  -1.92000009E-02  -5.13252917E-06
  -1.91500001E-02  -5.23607332E-06
  -1.90999992E-02  -5.38136646E-06
  -1.90500002E-02  -5.56284886E-06
  -1.89999994E-02  -5.76081538E-06
  -1.89500004E-02  -5.95005713E-06
  -1.88999996E-02  -6.11109544E-06
  -1.88500006E-02  -6.23904907E-06
  -1.87999997E-02  -6.34611297E-06
  -1.87500007E-02  -6.45645741E-06
  -1.86999999E-02  -6.59568832E-06
  -1.86500009E-02  -6.77951948E-06
  -1.86000001E-02  -7.00665669E-06
  -1.85499992E-02  -7.25918744E-06
  -1.85000002E-02  -7.51040170E-06
  -1.84499994E-02  -7.73659667E-06
  -1.84000004E-02  -7.92780065E-06
  -1.83499996E-02  -8.09250650E-06
  -1.83000006E-02  -8.25417646E-06
  -1.82499997E-02  -8.44104852E-06
  -1.82000007E-02  -8.67368726E-06
  -1.81499999E-02  -8.95574522E-06
  -1.81000009E-02  -9.27213205E-06
  -1.80500001E-02  -9.59554836E-06
  -1.79999992E-02  -9.89854379E-06
  -1.79500002E-02  -1.01657979E-05
  -1.78999994E-02  -1.04011624E-05
  -1.78500004E-02  -1.06262451E-05
  -1.77999996E-02  -1.08710392E-05
  -1.77500006E-02  -1.11607424E-05
  -1.76999997E-02  -1.15045113E-05
  -1.76500008E-02  -1.18911930E-05
  -1.75999999E-02  -1.22941074E-05
  -1.75500009E-02  -1.26827690E-05
  -1.75000001E-02  -1.30365079E-05
  -1.74499992E-02  -1.33538133E-05
  -1.74000002E-02  -1.36533017E-05
  -1.73499994E-02  -1.39657268E-05
  -1.73000004E-02  -1.43204488E-05
  -1.72499996E-02  -1.47323963E-05
  -1.72000006E-02  -1.51953036E-05
  -1.71499997E-02  -1.56843125E-05
  -1.71000008E-02  -1.61668668E-05
  -1.70499999E-02  -1.66172013E-05
  -1.70000009E-02  -1.70279363E-05
  -1.69500001E-02  -1.74136148E-05
  -1.68999992E-02  -1.78045448E-05
  -1.68500002E-02  -1.82335461E-05
  -1.67999994E-02  -1.87213755E-05
  -1.67500004E-02  -1.92674543E-05
  -1.66999996E-02  -1.98500020E-05
  -1.66500006E-02  -2.04355983E-05
  -1.65999997E-02  -2.09940372E-05
  -1.65500008E-02  -2.15118616E-05
  -1.64999999E-02  -2.19986505E-05
  -1.64500009E-02  -2.24830110E-05
  -1.64000001E-02  -2.30001824E-05
  -1.63499992E-02  -2.35765201E-05
  -1.63000003E-02  -2.42177484E-05
  -1.62499994E-02  -2.49064233E-05
  -1.62000004E-02  -2.56095300E-05
  -1.61499996E-02  -2.62931771E-05
  -1.61000006E-02  -2.69377888E-05
  -1.60499997E-02  -2.75470775E-05
  -1.60000008E-02  -2.81467146E-05
  -1.59499999E-02  -2.87732528E-05
  -1.59000009E-02  -2.94580768E-05
  -1.58500001E-02  -3.02135304E-05
  -1.57999992E-02  -3.10274991E-05
  -1.57500003E-02  -3.18687780E-05
  -1.56999994E-02  -3.27009802E-05
  -1.56500004E-02  -3.34988363E-05
  -1.55999996E-02  -3.42596795E-05
  -1.55499997E-02  -3.50049995E-05
  -1.54999997E-02  -3.57712343E-05
  -1.54499998E-02  -3.65939268E-05
  -1.53999999E-02  -3.74921146E-05
  -1.53500000E-02  -3.84599189E-05
  -1.53000001E-02  -3.94693161E-05
  -1.52500002E-02  -4.04826787E-05
  -1.52000003E-02  -4.14695096E-05
  -1.51500003E-02  -4.24203754E-05
  -1.51000004E-02  -4.33514397E-05
  -1.50499996E-02  -4.42975797E-05
  -1.49999997E-02  -4.52973691E-05
  -1.49499997E-02  -4.63762044E-05
  -1.48999998E-02  -4.75350680E-05
  -1.48499999E-02  -4.87503239E-05
  -1.48000000E-02  -4.99843045E-05
  -1.47500001E-02  -5.12021979E-05
  -1.47000002E-02  -5.23878953E-05
  -1.46500003E-02  -5.35514228E-05
  -1.46000003E-02  -5.47248746E-05
  -1.45500004E-02  -5.59486216E-05
  -1.44999996E-02  -5.72536410E-05
  -1.44499997E-02  -5.86479036E-05
  -1.43999998E-02  -6.01131578E-05
  -1.43499998E-02  -6.16131874E-05
  -1.42999999E-02  -6.31099902E-05
  -1.42500000E-02  -6.45810142E-05
  -1.42000001E-02  -6.60293808E-05
  -1.41500002E-02  -6.74829134E-05
  -1.41000003E-02  -6.89822555E-05
  -1.40500003E-02  -7.05630373E-05
  -1.40000004E-02  -7.22403347E-05
  -1.39499996E-02  -7.40022952E-05
  -1.38999997E-02  -7.58153401E-05
  -1.38499998E-02  -7.76395318E-05
  -1.37999998E-02  -7.94466614E-05
  -1.37499999E-02  -8.12327198E-05
  -1.37000000E-02  -8.30202771E-05
  -1.36500001E-02  -8.48487543E-05
  -1.36000002E-02  -8.67569688E-05
  -1.35500003E-02  -8.87665374E-05
  -1.35000004E-02  -9.08725415E-05
  -1.34500004E-02  -9.30458336E-05
  -1.33999996E-02  -9.52461123E-05
  -1.33499997E-02  -9.74401482E-05
  -1.32999998E-02  -9.96169038E-05
  -1.32499998E-02  -1.01792306E-04
  -1.31999999E-02  -1.04002946E-04
  -1.31500000E-02  -1.06290085E-04
  -1.31000001E-02  -1.08681292E-04
  -1.30500002E-02  -1.11178859E-04
  -1.30000003E-02  -1.13758862E-04
  -1.29500004E-02  -1.16382042E-04
  -1.29000004E-02  -1.19011529E-04
  -1.28499996E-02  -1.21629557E-04
  -1.27999997E-02  -1.24245445E-04
  -1.27499998E-02  -1.26891580E-04
  -1.26999998E-02  -1.29609572E-04
  -1.26499999E-02  -1.32432149E-04
  -1.26000000E-02  -1.35368653E-04
  -1.25500001E-02  -1.38401170E-04
  -1.25000002E-02  -1.41493118E-04
  -1.24500003E-02  -1.44605598E-04
  -1.24000004E-02  -1.47714687E-04
  -1.23500004E-02  -1.50822190E-04
  -1.22999996E-02  -1.53955232E-04
  -1.22499997E-02  -1.57154645E-04
  -1.21999998E-02  -1.60456882E-04
  -1.21499998E-02  -1.63878300E-04
  -1.20999999E-02  -1.67408201E-04
  -1.20500000E-02  -1.71014035E-04
  -1.20000001E-02  -1.74655943E-04
  -1.19500002E-02  -1.78304661E-04
  -1.19000003E-02  -1.81954834E-04
  -1.18500004E-02  -1.85627345E-04
  -1.18000004E-02  -1.89360697E-04
  -1.17499996E-02  -1.93194006E-04
  -1.16999997E-02  -1.97149784E-04
  -1.16499998E-02  -2.01224451E-04
  -1.15999999E-02  -2.05390083E-04
  -1.15499999E-02  -2.09607533E-04
  -1.15000000E-02  -2.13844163E-04
  -1.14500001E-02  -2.18087953E-04
  -1.14000002E-02  -2.22352988E-04
  -1.13500003E-02  -2.26673583E-04
  -1.13000004E-02  -2.31089827E-04
  -1.12500004E-02  -2.35629792E-04
  -1.11999996E-02  -2.40297450E-04
  -1.11499997E-02  -2.45071598E-04
  -1.10999998E-02  -2.49915960E-04
  -1.10499999E-02  -2.54795013E-04
  -1.09999999E-02  -2.59689346E-04
  -1.09500000E-02  -2.64605333E-04
  -1.09000001E-02  -2.69572629E-04
  -1.08500002E-02  -2.74630613E-04
  -1.08000003E-02  -2.79811647E-04
  -1.07500004E-02  -2.85126880E-04
  -1.07000005E-02  -2.90561846E-04
  -1.06499996E-02  -2.96082959E-04
  -1.05999997E-02  -3.01652646E-04
  -1.05499998E-02  -3.07246723E-04
  -1.04999999E-02  -3.12865654E-04
  -1.04499999E-02  -3.18533333E-04
  -1.04000000E-02  -3.24287481E-04
  -1.03500001E-02  -3.30163544E-04
  -1.03000002E-02  -3.36179422E-04
  -1.02500003E-02  -3.42327898E-04
  -1.02000004E-02  -3.48579604E-04
  -1.01500005E-02  -3.54896940E-04
  -1.00999996E-02  -3.61251179E-04
  -1.00499997E-02  -3.67635337E-04
  -9.99999978E-03  -3.74067284E-04
  -9.94999986E-03  -3.80580866E-04
  -9.89999995E-03  -3.87212640E-04
  -9.85000003E-03  -3.93986207E-04
  -9.80000012E-03  -4.00900928E-04
  -9.75000020E-03  -4.07932501E-04
  -9.70000029E-03  -4.15044546E-04
  -9.65000037E-03  -4.22205572E-04
  -9.60000046E-03  -4.29402484E-04
  -9.54999961E-03  -4.36646398E-04
  -9.49999969E-03  -4.43967263E-04
  -9.44999978E-03  -4.51400963E-04
  -9.39999986E-03  -4.58973838E-04
  -9.34999995E-03  -4.66691941E-04
  -9.30000003E-03  -4.74539382E-04
  -9.25000012E-03  -4.82484000E-04
  -9.20000020E-03  -4.90492908E-04
  -9.15000029E-03  -4.98547975E-04
  -9.10000037E-03  -5.06652694E-04
  -9.05000046E-03  -5.14830288E-04
  -8.99999961E-03  -5.23112772E-04
  -8.94999970E-03  -5.31529426E-04
  -8.89999978E-03  -5.40094858E-04
  -8.84999987E-03  -5.48798940E-04
  -8.79999995E-03  -5.57613559E-04
  -8.75000004E-03  -5.66507573E-04
  -8.70000012E-03  -5.75456710E-04
  -8.65000021E-03  -5.84454800E-04
  -8.60000029E-03  -5.93517907E-04
  -8.55000038E-03  -6.02675544E-04
  -8.50000046E-03  -6.11959200E-04
  -8.44999962E-03  -6.21388026E-04
  -8.39999970E-03  -6.30960567E-04
  -8.34999979E-03  -6.40654645E-04
  -8.29999987E-03  -6.50437723E-04
  -8.24999996E-03  -6.60281570E-04
  -8.20000004E-03  -6.70173846E-04
  -8.15000013E-03  -6.80124329E-04
  -8.10000021E-03  -6.90159795E-04
  -8.05000030E-03  -7.00313714E-04
  -8.00000038E-03  -7.10609660E-04
  -7.95000046E-03  -7.21051823E-04
  -7.89999962E-03  -7.31623964E-04
  -7.84999970E-03  -7.42296805E-04
  -7.79999979E-03  -7.53038854E-04
  -7.74999987E-03  -7.63829856E-04
  -7.69999996E-03  -7.74672721E-04
  -7.65000004E-03  -7.85589102E-04
  -7.60000013E-03  -7.96607754E-04
  -7.55000021E-03  -8.07753298E-04
  -7.49999983E-03  -8.19037727E-04
  -7.44999992E-03  -8.30453588E-04
  -7.40000000E-03  -8.41974339E-04
  -7.35000009E-03  -8.53566977E-04
  -7.30000017E-03  -8.65208334E-04
  -7.24999979E-03  -8.76892591E-04
  -7.19999988E-03  -8.88631796E-04
  -7.14999996E-03  -9.00452724E-04
  -7.10000005E-03  -9.12384770E-04
  -7.05000013E-03  -9.24444990E-04
  -7.00000022E-03  -9.36632277E-04
  -6.94999984E-03  -9.48925735E-04
  -6.89999992E-03  -9.61291604E-04
  -6.85000001E-03  -9.73700720E-04
  -6.80000009E-03  -9.86138708E-04
  -6.75000018E-03  -9.98612959E-04
  -6.69999979E-03  -1.01114961E-03
  -6.64999988E-03  -1.02377648E-03
  -6.59999996E-03  -1.03651523E-03
  -6.55000005E-03  -1.04937190E-03
  -6.50000013E-03  -1.06232648E-03
  -6.45000022E-03  -1.07534579E-03
  -6.39999984E-03  -1.08839956E-03
  -6.34999992E-03  -1.10146636E-03
  -6.30000001E-03  -1.11454399E-03
  -6.25000009E-03  -1.12765376E-03
  -6.20000018E-03  -1.14082533E-03
  -6.14999980E-03  -1.15408364E-03
  -6.09999988E-03  -1.16743438E-03
  -6.04999997E-03  -1.18086254E-03
  -6.00000005E-03  -1.19433796E-03
  -5.95000014E-03  -1.20782782E-03
  -5.90000022E-03  -1.22131058E-03
  -5.84999984E-03  -1.23477995E-03
  -5.79999993E-03  -1.24824839E-03
  -5.75000001E-03  -1.26174139E-03
  -5.70000010E-03  -1.27528410E-03
  -5.65000018E-03  -1.28889317E-03
  -5.59999980E-03  -1.30256254E-03
  -5.54999989E-03  -1.31625880E-03
  -5.49999997E-03  -1.32994517E-03
  -5.45000006E-03  -1.34359428E-03
  -5.40000014E-03  -1.35719345E-03
  -5.35000023E-03  -1.37074955E-03
  -5.29999984E-03  -1.38428085E-03
  -5.24999993E-03  -1.39781053E-03
  -5.20000001E-03  -1.41136046E-03
  -5.15000010E-03  -1.42493437E-03
  -5.10000018E-03  -1.43850944E-03
  -5.04999980E-03  -1.45204819E-03
  -4.99999989E-03  -1.46551454E-03
  -4.94999997E-03  -1.47888088E-03
  -4.90000006E-03  -1.49214233E-03
  -4.85000014E-03  -1.50532078E-03
  -4.80000023E-03  -1.51844218E-03
  -4.74999985E-03  -1.53152563E-03
  -4.69999993E-03  -1.54458103E-03
  -4.65000002E-03  -1.55760429E-03
  -4.60000010E-03  -1.57055969E-03
  -4.55000019E-03  -1.58340193E-03
  -4.49999981E-03  -1.59609725E-03
  -4.44999989E-03  -1.60862762E-03
  -4.39999998E-03  -1.62100210E-03
  -4.35000006E-03  -1.63324445E-03
  -4.30000015E-03  -1.64538447E-03
  -4.25000023E-03  -1.65744335E-03
  -4.19999985E-03  -1.66941748E-03
  -4.14999994E-03  -1.68127881E-03
  -4.10000002E-03  -1.69298158E-03
  -4.05000011E-03  -1.70447608E-03
  -4.00000019E-03  -1.71572773E-03
  -3.94999981E-03  -1.72673701E-03
  -3.89999989E-03  -1.73752743E-03
  -3.84999998E-03  -1.74813217E-03
  -3.80000006E-03  -1.75858464E-03
  -3.74999992E-03  -1.76888937E-03
  -3.70000000E-03  -1.77902251E-03
  -3.65000009E-03  -1.78893923E-03
  -3.59999994E-03  -1.79858506E-03
  -3.55000002E-03  -1.80791935E-03
  -3.50000011E-03  -1.81692606E-03
  -3.44999996E-03  -1.82561693E-03
  -3.40000005E-03  -1.83402584E-03
  -3.34999990E-03  -1.84219331E-03
  -3.29999998E-03  -1.85013877E-03
  -3.25000007E-03  -1.85784849E-03
  -3.19999992E-03  -1.86527707E-03
  -3.15000000E-03  -1.87235721E-03
  -3.10000009E-03  -1.87904015E-03
  -3.04999994E-03  -1.88530283E-03
  -3.00000003E-03  -1.89115130E-03
  -2.95000011E-03  -1.89662271E-03
  -2.89999996E-03  -1.90175290E-03
  -2.85000005E-03  -1.90656818E-03
  -2.79999990E-03  -1.91106182E-03
  -2.74999999E-03  -1.91519491E-03
  -2.70000007E-03  -1.91890972E-03
  -2.64999992E-03  -1.92213734E-03
  -2.60000001E-03  -1.92483061E-03
  -2.55000009E-03  -1.92699011E-03
  -2.49999994E-03  -1.92865194E-03
  -2.45000003E-03  -1.92985893E-03
  -2.40000011E-03  -1.93064404E-03
  -2.34999997E-03  -1.93102402E-03
  -2.30000005E-03  -1.93097233E-03
  -2.24999990E-03  -1.93041621E-03
  -2.19999999E-03  -1.92927010E-03
  -2.15000007E-03  -1.92747544E-03
  -2.09999993E-03  -1.92502828E-03
  -2.05000001E-03  -1.92195980E-03
  -2.00000009E-03  -1.91831682E-03
  -1.94999995E-03  -1.91414787E-03
  -1.90000003E-03  -1.90947379E-03
  -1.85000000E-03  -1.90426596E-03
  -1.79999997E-03  -1.89845962E-03
  -1.75000005E-03  -1.89196668E-03
  -1.70000002E-03  -1.88471179E-03
  -1.64999999E-03  -1.87666796E-03
  -1.59999996E-03  -1.86785741E-03
  -1.55000004E-03  -1.85833662E-03
  -1.50000001E-03  -1.84816949E-03
  -1.44999998E-03  -1.83738815E-03
  -1.39999995E-03  -1.82597339E-03
  -1.35000004E-03  -1.81385246E-03
  -1.30000000E-03  -1.80093362E-03
  -1.24999997E-03  -1.78713305E-03
  -1.20000006E-03  -1.77240814E-03
  -1.15000003E-03  -1.75676891E-03
  -1.09999999E-03  -1.74026971E-03
  -1.04999996E-03  -1.72299100E-03
  -1.00000005E-03  -1.70498237E-03
  -9.50000016E-04  -1.68624567E-03
  -8.99999985E-04  -1.66671746E-03
  -8.50000011E-04  -1.64628297E-03
  -7.99999980E-04  -1.62484183E-03
  -7.50000007E-04  -1.60233350E-03
  -6.99999975E-04  -1.57874904E-03
  -6.50000002E-04  -1.55414408E-03
  -6.00000028E-04  -1.52860687E-03
  -5.49999997E-04  -1.50220515E-03
  -5.00000024E-04  -1.47495489E-03
  -4.49999992E-04  -1.44682382E-03
  -3.99999990E-04  -1.41770008E-03
  -3.49999988E-04  -1.38744398E-03
  -3.00000014E-04  -1.35596935E-03
  -2.50000012E-04  -1.32325594E-03
  -1.99999995E-04  -1.28935068E-03
  -1.50000007E-04  -1.25434331E-03
  -9.99999975E-05  -1.21833209E-03
  -4.99999987E-05  -1.18136965E-03
   0.00000000      -1.14342570E-03
   4.99999987E-05  -1.10438513E-03
   9.99999975E-05  -1.06410740E-03
   1.50000007E-04  -1.02247763E-03
   1.99999995E-04  -9.79446457E-04
   2.50000012E-04  -9.35051939E-04
   3.00000014E-04  -8.89389892E-04
   3.49999988E-04  -8.42576730E-04
   3.99999990E-04  -7.94692081E-04
   4.49999992E-04  -7.45722384E-04
   5.00000024E-04  -6.95564377E-04
   5.49999997E-04  -6.44070795E-04
   6.00000028E-04  -5.91096585E-04
   6.50000002E-04  -5.36555192E-04
   6.99999975E-04  -4.80468792E-04
   7.50000007E-04  -4.22942219E-04
   7.99999980E-04  -3.64122563E-04
   8.50000011E-04  -3.04111454E-04
   8.99999985E-04  -2.42907947E-04
   9.50000016E-04  -1.80434945E-04
   1.00000005E-03  -1.16533585E-04
   1.04999996E-03  -5.10419486E-05
   1.09999999E-03   1.61418084E-05
   1.15000003E-03   8.50293436E-05
   1.20000006E-03   1.55525777E-04
   1.24999997E-03   2.27493438E-04
   1.30000000E-03   3.00817075E-04
   1.35000004E-03   3.75437143E-04
   1.39999995E-03   4.51399595E-04
   1.44999998E-03   5.28837030E-04
   1.50000001E-03   6.07919646E-04
   1.55000004E-03   6.88795815E-04
   1.59999996E-03   7.71512976E-04
   1.64999999E-03   8.56008090E-04
   1.70000002E-03   9.42157640E-04
   1.75000005E-03   1.02980237E-03
   1.79999997E-03   1.11883343E-03
   1.85000000E-03   1.20927021E-03
   1.90000003E-03   1.30123587E-03
   1.94999995E-03   1.39492389E-03
   2.00000009E-03   1.49051554E-03
   2.05000001E-03   1.58809614E-03
   2.09999993E-03   1.68761285E-03
   2.15000007E-03   1.78891071E-03
   2.19999999E-03   1.89181289E-03
   2.24999990E-03   1.99619378E-03
   2.30000005E-03   2.10204441E-03
   2.34999997E-03   2.20946688E-03
   2.40000011E-03   2.31864885E-03
   2.45000003E-03   2.42979731E-03
   2.49999994E-03   2.54303403E-03
   2.55000009E-03   2.65834085E-03
   2.60000001E-03   2.77557457E-03
   2.64999992E-03   2.89451564E-03
   2.70000007E-03   3.01499036E-03
   2.74999999E-03   3.13695380E-03
   2.79999990E-03   3.26050585E-03