  -3.99999991E-02   0.00000000    
  -3.99499983E-02   0.00000000    
  -3.99000011E-02   0.00000000    
  -3.98500003E-02  -5.88873766E-18
  -3.97999994E-02  -4.49105868E-17
  -3.97499986E-02  -1.88191279E-16
  -3.97000015E-02  -5.66120929E-16
  -3.96500006E-02  -1.35919894E-15
  -3.95999998E-02  -2.75880643E-15
  -3.95499989E-02  -4.91104578E-15
  -3.95000018E-02  -7.86969926E-15
  -3.94500010E-02  -1.15868966E-14
  -3.94000001E-02  -1.59633981E-14
  -3.93499993E-02  -2.09620698E-14
  -3.92999984E-02  -2.67548519E-14
  -3.92500013E-02  -3.38369198E-14
  -3.92000005E-02  -4.30319199E-14
  -3.91499996E-02  -5.53525596E-14
  -3.90999988E-02  -7.17587475E-14
  -3.90500017E-02  -9.29199954E-14
  -3.90000008E-02  -1.19093686E-13
  -3.89500000E-02  -1.50173995E-13
  -3.88999991E-02  -1.85889390E-13
  -3.88499983E-02  -2.26072863E-13
  -3.88000011E-02  -2.70912822E-13
  -3.87500003E-02  -3.21100947E-13
  -3.86999995E-02  -3.77818626E-13
  -3.86499986E-02  -4.42549480E-13
  -3.86000015E-02  -5.16764366E-13
  -3.85500006E-02  -6.01571852E-13
  -3.84999998E-02  -6.97429094E-13
  -3.84499989E-02  -8.03977219E-13
  -3.84000018E-02  -9.20037809E-13
  -3.83500010E-02  -1.04381022E-12
  -3.83000001E-02  -1.17331134E-12
  -3.82499993E-02  -1.30703521E-12
  -3.81999984E-02  -1.44467121E-12
  -3.81500013E-02  -1.58756472E-12
  -3.81000005E-02  -1.73857641E-12
  -3.80499996E-02  -1.90116803E-12
  -3.79999988E-02  -2.07787455E-12
  -3.79500017E-02  -2.26867223E-12
  -3.79000008E-02  -2.46994981E-12
  -3.78500000E-02  -2.67468903E-12
  -3.77999991E-02  -2.87406644E-12
  -3.77499983E-02  -3.06005958E-12
  -3.77000012E-02  -3.22805237E-12
  -3.76500003E-02  -3.37818944E-12
  -3.75999995E-02  -3.51456668E-12
  -3.75499986E-02  -3.64225360E-12
  -3.75000015E-02  -3.76327658E-12
  -3.74500006E-02  -3.87345841E-12
  -3.73999998E-02  -3.96193104E-12
  -3.73499990E-02  -4.01409374E-12
  -3.73000018E-02  -4.01716334E-12
  -3.72500010E-02  -3.96597512E-12
  -3.72000001E-02  -3.86615002E-12
  -3.71499993E-02  -3.73249955E-12
  -3.70999984E-02  -3.58255504E-12
  -3.70500013E-02  -3.42748182E-12
  -3.70000005E-02  -3.26436751E-12
  -3.69499996E-02  -3.07390571E-12
  -3.68999988E-02  -2.82553148E-12
  -3.68500017E-02  -2.48876137E-12
  -3.68000008E-02  -2.04628176E-12
  -3.67500000E-02  -1.50284765E-12
  -3.66999991E-02  -8.85249773E-13
  -3.66499983E-02  -2.32313897E-13
  -3.66000012E-02   4.21467033E-13
  -3.65500003E-02   1.06160133E-12
  -3.64999995E-02   1.70102506E-12
  -3.64499986E-02   2.37482473E-12
  -3.64000015E-02   3.12339846E-12
  -3.63500006E-02   3.97086444E-12
  -3.62999998E-02   4.90859046E-12
  -3.62499990E-02   5.89237730E-12
  -3.62000018E-02   6.85624257E-12
  -3.61500010E-02   7.73809662E-12
  -3.61000001E-02   8.50638657E-12
  -3.60499993E-02   9.17517885E-12
  -3.59999985E-02   9.79941042E-12
  -3.59500013E-02   1.04506247E-11
  -3.59000005E-02   1.11828064E-11
  -3.58499996E-02   1.20033991E-11
  -3.57999988E-02   1.28634473E-11
  -3.57500017E-02   1.36729968E-11
  -3.57000008E-02   1.43365250E-11
  -3.56500000E-02   1.47934026E-11
  -3.55999991E-02   1.50448126E-11
  -3.55499983E-02   1.51534670E-11
  -3.55000012E-02   1.52143072E-11
  -3.54500003E-02   1.53079476E-11
  -3.53999995E-02   1.54577913E-11
  -3.53499986E-02   1.56115051E-11
  -3.53000015E-02   1.56575829E-11
  -3.52500007E-02   1.54717749E-11
  -3.51999998E-02   1.49737549E-11
  -3.51499990E-02   1.41681849E-11
  -3.51000018E-02   1.31498458E-11
  -3.50500010E-02   1.20678771E-11
  -3.50000001E-02   1.10628381E-11
  -3.49499993E-02   1.02039011E-11
  -3.48999985E-02   9.45523434E-12
  -3.48500013E-02   8.68894106E-12
  -3.48000005E-02   7.74129805E-12
  -3.47499996E-02   6.48856533E-12
  -3.46999988E-02   4.90820145E-12
  -3.46500017E-02   3.09611321E-12
  -3.46000008E-02   1.22966741E-12
  -3.45500000E-02  -5.09264831E-13
  -3.44999991E-02  -2.01755756E-12
  -3.44499983E-02  -3.32224135E-12
  -3.44000012E-02  -4.57457813E-12
  -3.43500003E-02  -5.98648258E-12
  -3.42999995E-02  -7.73541474E-12
  -3.42499986E-02  -9.87988164E-12
  -3.42000015E-02  -1.23248217E-11
  -3.41500007E-02  -1.48551241E-11
  -3.40999998E-02  -1.72249194E-11
  -3.40499990E-02  -1.92640418E-11
  -3.40000018E-02  -2.09536711E-11
  -3.39500010E-02  -2.24357494E-11
  -3.39000002E-02  -2.39498785E-11
  -3.38499993E-02  -2.57244573E-11
  -3.37999985E-02  -2.78705063E-11
  -3.37500013E-02  -3.03269111E-11
  -3.37000005E-02  -3.28837652E-11
  -3.36499996E-02  -3.52756192E-11
  -3.35999988E-02  -3.73038440E-11
  -3.35500017E-02  -3.89324128E-11
  -3.35000008E-02  -4.03116290E-11
  -3.34500000E-02  -4.17160438E-11
  -3.33999991E-02  -4.34220472E-11
  -3.33499983E-02  -4.55791307E-11
  -3.33000012E-02  -4.81333168E-11
  -3.32500003E-02  -5.08390066E-11
  -3.31999995E-02  -5.33561008E-11
  -3.31499986E-02  -5.53907996E-11
  -3.31000015E-02  -5.68177311E-11
  -3.30500007E-02  -5.77281001E-11
  -3.29999998E-02  -5.83808349E-11
  -3.29499990E-02  -5.90771529E-11
  -3.29000019E-02  -6.00141950E-11
  -3.28500010E-02  -6.11842105E-11
  -3.28000002E-02  -6.23660221E-11
  -3.27499993E-02  -6.32140659E-11
  -3.26999985E-02  -6.34060027E-11
  -3.26500013E-02  -6.27822863E-11
  -3.26000005E-02  -6.14143389E-11
  -3.25499997E-02  -5.95693286E-11
  -3.24999988E-02  -5.75855787E-11
  -3.24500017E-02  -5.57132326E-11
  -3.24000008E-02  -5.39910373E-11
  -3.23500000E-02  -5.22148193E-11
  -3.22999991E-02  -5.00129417E-11
  -3.22499983E-02  -4.69963270E-11
  -3.22000012E-02  -4.29168333E-11
  -3.21500003E-02  -3.77641182E-11
  -3.20999995E-02  -3.17584917E-11
  -3.20499986E-02  -2.52443344E-11
  -3.20000015E-02  -1.85330223E-11
  -3.19500007E-02  -1.17659901E-11
  -3.18999998E-02  -4.85907928E-12
  -3.18499990E-02   2.44809186E-12
  -3.18000019E-02   1.04608058E-11
  -3.17500010E-02   1.93756920E-11
  -3.17000002E-02   2.91740833E-11
  -3.16499993E-02   3.96101693E-11
  -3.15999985E-02   5.02989594E-11
  -3.15500014E-02   6.08639805E-11
  -3.15000005E-02   7.10785805E-11
  -3.14499997E-02   8.09382006E-11
  -3.13999988E-02   9.06332162E-11
  -3.13500017E-02   1.00436430E-10
  -3.13000008E-02   1.10556377E-10
  -3.12500000E-02   1.21021665E-10
  -3.11999992E-02   1.31645375E-10
  -3.11500002E-02   1.42082429E-10
  -3.10999993E-02   1.51951576E-10
  -3.10500003E-02   1.60966560E-10
  -3.09999995E-02   1.69018549E-10
  -3.09500005E-02   1.76175907E-10
  -3.08999997E-02   1.82605334E-10
  -3.08500007E-02   1.88452545E-10
  -3.07999998E-02   1.93737332E-10
  -3.07500008E-02   1.98308370E-10
  -3.07000000E-02   2.01874684E-10
  -3.06499992E-02   2.04096615E-10
  -3.06000002E-02   2.04694761E-10
  -3.05499993E-02   2.03530623E-10
  -3.05000003E-02   2.00627848E-10
  -3.04499995E-02   1.96130875E-10
  -3.04000005E-02   1.90223406E-10
  -3.03499997E-02   1.83044108E-10
  -3.03000007E-02   1.74633627E-10
  -3.02499998E-02   1.64929917E-10
  -3.02000009E-02   1.53806010E-10
  -3.01500000E-02   1.41128373E-10
  -3.00999992E-02   1.26808813E-10
  -3.00500002E-02   1.10830893E-10
  -2.99999993E-02   9.32473959E-11
  -2.99500003E-02   7.41564588E-11
  -2.98999995E-02   5.36710260E-11
  -2.98500005E-02   3.18936128E-11
  -2.97999997E-02   8.90149066E-12
  -2.97500007E-02  -1.52585410E-11
  -2.96999998E-02  -4.05693916E-11
  -2.96500009E-02  -6.70376671E-11
  -2.96000000E-02  -9.46788967E-11
  -2.95499992E-02  -1.23492064E-10
  -2.95000002E-02  -1.53424037E-10
  -2.94499993E-02  -1.84334423E-10
  -2.94000003E-02  -2.15978277E-10
  -2.93499995E-02  -2.48022214E-10
  -2.93000005E-02  -2.80099749E-10
  -2.92499997E-02  -3.11892012E-10
  -2.92000007E-02  -3.43203133E-10
  -2.91499998E-02  -3.73994308E-10
  -2.91000009E-02  -4.04352302E-10
  -2.90500000E-02  -4.34395409E-10
  -2.89999992E-02  -4.64150357E-10
  -2.89500002E-02  -4.93454666E-10
  -2.88999993E-02  -5.21933718E-10
  -2.88500004E-02  -5.49074508E-10
  -2.87999995E-02  -5.74373715E-10
  -2.87500005E-02  -5.97499383E-10
  -2.86999997E-02  -6.18389839E-10
  -2.86500007E-02  -6.37233044E-10
  -2.85999998E-02  -6.54320709E-10
  -2.85500009E-02  -6.69829858E-10
  -2.85000000E-02  -6.83627266E-10
  -2.84499992E-02  -6.95191793E-10
  -2.84000002E-02  -7.03707481E-10
  -2.83499993E-02  -7.08302861E-10
  -2.83000004E-02  -7.08344439E-10
  -2.82499995E-02  -7.03653802E-10
  -2.82000005E-02  -6.94543922E-10
  -2.81499997E-02  -6.81641299E-10
  -2.81000007E-02  -6.65557387E-10
  -2.80499998E-02  -6.46548481E-10
  -2.80000009E-02  -6.24318097E-10
  -2.79500000E-02  -5.98065153E-10
  -2.78999992E-02  -5.66775904E-10
  -2.78500002E-02  -5.29642274E-10
  -2.77999993E-02  -4.86424512E-10
  -2.77500004E-02  -4.37586328E-10
  -2.76999995E-02  -3.84122012E-10
  -2.76500005E-02  -3.27133792E-10
  -2.75999997E-02  -2.67337624E-10
  -2.75500007E-02  -2.04716480E-10
  -2.74999999E-02  -1.38495146E-10
  -2.74500009E-02  -6.74698630E-11
  -2.74000000E-02   9.43233425E-12
  -2.73499992E-02   9.26024743E-11
  -2.73000002E-02   1.81454921E-10
  -2.72499993E-02   2.74542972E-10
  -2.72000004E-02   3.70050574E-10
  -2.71499995E-02   4.66462591E-10
  -2.71000005E-02   5.63113389E-10
  -2.70499997E-02   6.60360266E-10
  -2.70000007E-02   7.59278751E-10
  -2.69499999E-02   8.60995664E-10
  -2.69000009E-02   9.65946989E-10
  -2.68500000E-02   1.07339149E-09
  -2.67999992E-02   1.18142407E-09
  -2.67500002E-02   1.28750466E-09
  -2.66999993E-02   1.38929357E-09
  -2.66500004E-02   1.48543355E-09
  -2.65999995E-02   1.57591029E-09
  -2.65500005E-02   1.66181169E-09
  -2.64999997E-02   1.74456327E-09
  -2.64500007E-02   1.82495752E-09
  -2.63999999E-02   1.90241289E-09
  -2.63500009E-02   1.97480921E-09
  -2.63000000E-02   2.03900163E-09
  -2.62499992E-02   2.09181339E-09
  -2.62000002E-02   2.13107842E-09
  -2.61499994E-02   2.15626739E-09
  -2.61000004E-02   2.16838458E-09
  -2.60499995E-02   2.16916463E-09
  -2.60000005E-02   2.15988938E-09
  -2.59499997E-02   2.14035611E-09
  -2.59000007E-02   2.10846918E-09
  -2.58499999E-02   2.06067829E-09
  -2.58000009E-02   1.99310013E-09
  -2.57500000E-02   1.90284211E-09
  -2.56999992E-02   1.78895276E-09
  -2.56500002E-02   1.65253289E-09
  -2.55999994E-02   1.49594881E-09
  -2.55500004E-02   1.32144362E-09
  -2.54999995E-02   1.12976717E-09
  -2.54500005E-02   9.19438137E-10
  -2.53999997E-02   6.86990631E-10
  -2.53500007E-02   4.28140440E-10
  -2.52999999E-02   1.39369072E-10
  -2.52500009E-02  -1.80777462E-10
  -2.52000000E-02  -5.31273747E-10
  -2.51499992E-02  -9.09301412E-10
  -2.51000002E-02  -1.31176914E-09
  -2.50499994E-02  -1.73699966E-09
  -2.50000004E-02  -2.18582996E-09
  -2.49499995E-02  -2.66158628E-09
  -2.49000005E-02  -3.16892979E-09
  -2.48499997E-02  -3.71201980E-09
  -2.48000007E-02  -4.29282432E-09
  -2.47499999E-02  -4.91034902E-09
  -2.47000009E-02  -5.56114044E-09
  -2.46500000E-02  -6.24091490E-09
  -2.45999992E-02  -6.94658153E-09
  -2.45500002E-02  -7.67779174E-09
  -2.44999994E-02  -8.43726511E-09
  -2.44500004E-02  -9.22973342E-09
  -2.43999995E-02  -1.00599360E-08
  -2.43500005E-02  -1.09305187E-08
  -2.42999997E-02  -1.18408385E-08
  -2.42500007E-02  -1.27871838E-08
  -2.41999999E-02  -1.37644083E-08
  -2.41500009E-02  -1.47682488E-08
  -2.41000000E-02  -1.57973030E-08
  -2.40499992E-02  -1.68537753E-08
  -2.40000002E-02  -1.79425879E-08
  -2.39499994E-02  -1.90692244E-08
  -2.39000004E-02  -2.02372537E-08
  -2.38499995E-02  -2.14466240E-08
  -2.38000005E-02  -2.26935164E-08
  -2.37499997E-02  -2.39719018E-08
  -2.37000007E-02  -2.52761243E-08
  -2.36499999E-02  -2.66033737E-08
  -2.36000009E-02  -2.79549219E-08
  -2.35500000E-02  -2.93355722E-08
  -2.34999992E-02  -3.07514938E-08
  -2.34500002E-02  -3.22073674E-08
  -2.33999994E-02  -3.37041826E-08
  -2.33500004E-02  -3.52386245E-08
  -2.32999995E-02  -3.68044333E-08
  -2.32500006E-02  -3.83951217E-08
  -2.31999997E-02  -4.00068956E-08
  -2.31500007E-02  -4.16404156E-08
  -2.30999999E-02  -4.33006448E-08
  -2.30500009E-02  -4.49947173E-08
  -2.30000000E-02  -4.67288075E-08
  -2.29499992E-02  -4.85053988E-08
  -2.29000002E-02  -5.03221358E-08
  -2.28499994E-02  -5.21729149E-08
  -2.28000004E-02  -5.40506591E-08
  -2.27499995E-02  -5.59506539E-08
  -2.27000006E-02  -5.78729100E-08
  -2.26499997E-02  -5.98224332E-08
  -2.26000007E-02  -6.18073415E-08
  -2.25499999E-02  -6.38354578E-08
  -2.25000009E-02  -6.59111450E-08
  -2.24500000E-02  -6.80335219E-08
  -2.23999992E-02  -7.01971885E-08
  -2.23500002E-02  -7.23949825E-08
  -2.22999994E-02  -7.46216671E-08
  -2.22500004E-02  -7.68768800E-08
  -2.21999995E-02  -7.91659431E-08
  -2.21500006E-02  -8.14982428E-08
  -2.20999997E-02  -8.38836982E-08
  -2.20500007E-02  -8.63290950E-08
  -2.19999999E-02  -8.88356624E-08
  -2.19500009E-02  -9.13992650E-08
  -2.19000001E-02  -9.40130107E-08
  -2.18499992E-02  -9.66712506E-08
  -2.18000002E-02  -9.93730183E-08
  -2.17499994E-02  -1.02123522E-07
  -2.17000004E-02  -1.04932909E-07
  -2.16499995E-02  -1.07812731E-07
  -2.16000006E-02  -1.10771857E-07
  -2.15499997E-02  -1.13813506E-07
  -2.15000007E-02  -1.16934906E-07
  -2.14499999E-02  -1.20129570E-07
  -2.14000009E-02  -1.23391516E-07
  -2.13500001E-02  -1.26719172E-07
  -2.12999992E-02  -1.30117627E-07
  -2.12500002E-02  -1.33597709E-07
  -2.11999994E-02  -1.37172677E-07
  -2.11500004E-02  -1.40853729E-07
  -2.10999995E-02  -1.44646421E-07
  -2.10500006E-02  -1.48549660E-07
  -2.09999997E-02  -1.52557689E-07
  -2.09500007E-02  -1.56664257E-07
  -2.08999999E-02  -1.60867046E-07
  -2.08500009E-02  -1.65170434E-07
  -2.08000001E-02  -1.69585320E-07
  -2.07499992E-02  -1.74125915E-07
  -2.07000002E-02  -1.78805109E-07
  -2.06499994E-02  -1.83630391E-07
  -2.06000004E-02  -1.88602172E-07
  -2.05499995E-02  -1.93715309E-07
  -2.05000006E-02  -1.98963335E-07
  -2.04499997E-02  -2.04343294E-07
  -2.04000007E-02  -2.09859039E-07
  -2.03499999E-02  -2.15521766E-07
  -2.03000009E-02  -2.21346966E-07
  -2.02500001E-02  -2.27349616E-07
  -2.01999992E-02  -2.33539808E-07
  -2.01500002E-02  -2.39919984E-07
  -2.00999994E-02  -2.46486280E-07
  -2.00500004E-02  -2.53232372E-07
  -1.99999996E-02  -2.60154650E-07
  -1.99500006E-02  -2.67256155E-07
  -1.98999997E-02  -2.74547659E-07
  -1.98500007E-02  -2.82045249E-07
  -1.97999999E-02  -2.89765467E-07
  -1.97500009E-02  -2.97720362E-07
  -1.97000001E-02  -3.05914398E-07
  -1.96499992E-02  -3.14345044E-07
  -1.96000002E-02  -3.23006361E-07
  -1.95499994E-02  -3.31894483E-07
  -1.95000004E-02  -3.41011912E-07
  -1.94499996E-02  -3.50369334E-07
  -1.94000006E-02  -3.59983773E-07
  -1.93499997E-02  -3.69873618E-07
  -1.93000007E-02  -3.80053365E-07
  -1.92499999E-02  -3.90530147E-07
  -1.92000009E-02  -4.01303282E-07
  -1.91500001E-02  -4.12367797E-07
  -1.90999992E-02  -4.23719769E-07
  -1.90500002E-02  -4.35361500E-07
  -1.89999994E-02  -4.47303478E-07
  -1.89500004E-02  -4.59563353E-07
  -1.88999996E-02  -4.72161020E-07
  -1.88500006E-02  -4.85113219E-07
  -1.87999997E-02  -4.98429245E-07
  -1.87500007E-02  -5.12110432E-07
  -1.86999999E-02  -5.26152917E-07
  -1.86500009E-02  -5.40553060E-07
  -1.86000001E-02  -5.55313022E-07
  -1.85499992E-02  -5.70443603E-07
  -1.85000002E-02  -5.85963221E-07
  -1.84499994E-02  -6.01893646E-07
  -1.84000004E-02  -6.18254489E-07
  -1.83499996E-02  -6.35058086E-07
  -1.83000006E-02  -6.52308529E-07
  -1.82499997E-02  -6.70004056E-07
  -1.82000007E-02  -6.88141995E-07
  -1.81499999E-02  -7.06725018E-07
  -1.81000009E-02  -7.25764266E-07
  -1.80500001E-02  -7.45279294E-07
  -1.79999992E-02  -7.65293862E-07
  -1.79500002E-02  -7.85830139E-07
  -1.78999994E-02  -8.06903529E-07
  -1.78500004E-02  -8.28520854E-07
  -1.77999996E-02  -8.50682227E-07
  -1.77500006E-02  -8.73386114E-07
  -1.76999997E-02  -8.96635754E-07
  -1.76500008E-02  -9.20442801E-07
  -1.75999999E-02  -9.44827889E-07
  -1.75500009E-02  -9.69816938E-07
  -1.75000001E-02  -9.95435130E-07
  -1.74499992E-02  -1.02170134E-06
  -1.74000002E-02  -1.04862568E-06
  -1.73499994E-02  -1.07621099E-06
  -1.73000004E-02  -1.10445819E-06
  -1.72499996E-02  -1.13337194E-06
  -1.72000006E-02  -1.16296508E-06
  -1.71499997E-02  -1.19325966E-06
  -1.71000008E-02  -1.22428355E-06
  -1.70499999E-02  -1.25606471E-06
  -1.70000009E-02  -1.28862484E-06
  -1.69500001E-02  -1.32197658E-06
  -1.68999992E-02  -1.35612515E-06
  -1.68500002E-02  -1.39107249E-06
  -1.67999994E-02  -1.42682393E-06
  -1.67500004E-02  -1.46339323E-06
  -1.66999996E-02  -1.50080348E-06
  -1.66500006E-02  -1.53908434E-06
  -1.65999997E-02  -1.57826628E-06
  -1.65500008E-02  -1.61837454E-06
  -1.64999999E-02  -1.65942515E-06
  -1.64500009E-02  -1.70142641E-06
  -1.64000001E-02  -1.74438230E-06
  -1.63499992E-02  -1.78830010E-06
  -1.63000003E-02  -1.83319457E-06
  -1.62499994E-02  -1.87909041E-06
  -1.62000004E-02  -1.92601897E-06
  -1.61499996E-02  -1.97401323E-06
  -1.61000006E-02  -2.02310116E-06
  -1.60499997E-02  -2.07330208E-06
  -1.60000008E-02  -2.12462623E-06
  -1.59499999E-02  -2.17707975E-06
  -1.59000009E-02  -2.23067059E-06
  -1.58500001E-02  -2.28541489E-06
  -1.57999992E-02  -2.34133836E-06
  -1.57500003E-02  -2.39847463E-06
  -1.56999994E-02  -2.45685965E-06
  -1.56500004E-02  -2.51652546E-06
  -1.55999996E-02  -2.57749457E-06
  -1.55499997E-02  -2.63978131E-06
  -1.54999997E-02  -2.70339365E-06
  -1.54499998E-02  -2.76834317E-06
  -1.53999999E-02  -2.83464692E-06
  -1.53500000E-02  -2.90233334E-06
  -1.53000001E-02  -2.97143879E-06
  -1.52500002E-02  -3.04200239E-06
  -1.52000003E-02  -3.11405984E-06
  -1.51500003E-02  -3.18763773E-06
  -1.51000004E-02  -3.26275267E-06
  -1.50499996E-02  -3.33941648E-06
  -1.49999997E-02  -3.41764121E-06
  -1.49499997E-02  -3.49744641E-06
  -1.48999998E-02  -3.57886279E-06
  -1.48499999E-02  -3.66192967E-06
  -1.48000000E-02  -3.74669003E-06
  -1.47500001E-02  -3.83318411E-06
  -1.47000002E-02  -3.92144329E-06
  -1.46500003E-02  -4.01148782E-06
  -1.46000003E-02  -4.10333178E-06
  -1.45500004E-02  -4.19699154E-06
  -1.44999996E-02  -4.29248848E-06
  -1.44499997E-02  -4.38985717E-06
  -1.43999998E-02  -4.48914034E-06
  -1.43499998E-02  -4.59038483E-06
  -1.42999999E-02  -4.69363522E-06
  -1.42500000E-02  -4.79892742E-06
  -1.42000001E-02  -4.90628645E-06
  -1.41500002E-02  -5.01573049E-06
  -1.41000003E-02  -5.12727775E-06
  -1.40500003E-02  -5.24095367E-06
  -1.40000004E-02  -5.35679510E-06
  -1.39499996E-02  -5.47484751E-06
  -1.38999997E-02  -5.59516275E-06
  -1.38499998E-02  -5.71778946E-06
  -1.37999998E-02  -5.84276722E-06
  -1.37499999E-02  -5.97012604E-06
  -1.37000000E-02  -6.09988865E-06
  -1.36500001E-02  -6.23207643E-06
  -1.36000002E-02  -6.36671848E-06
  -1.35500003E-02  -6.50385437E-06
  -1.35000004E-02  -6.64353502E-06
  -1.34500004E-02  -6.78581637E-06
  -1.33999996E-02  -6.93075162E-06
  -1.33499997E-02  -7.07838717E-06
  -1.32999998E-02  -7.22875757E-06
  -1.32499998E-02  -7.38188737E-06
  -1.31999999E-02  -7.53780296E-06
  -1.31500000E-02  -7.69653525E-06
  -1.31000001E-02  -7.85812517E-06
  -1.30500002E-02  -8.02262912E-06
  -1.30000003E-02  -8.19010711E-06
  -1.29500004E-02  -8.36061463E-06
  -1.29000004E-02  -8.53420261E-06
  -1.28499996E-02  -8.71091015E-06
  -1.27999997E-02  -8.89076728E-06
  -1.27499998E-02  -9.07380036E-06
  -1.26999998E-02  -9.26004486E-06
  -1.26499999E-02  -9.44954718E-06
  -1.26000000E-02  -9.64236369E-06
  -1.25500001E-02  -9.83855989E-06
  -1.25000002E-02  -1.00381949E-05
  -1.24500003E-02  -1.02413251E-05
  -1.24000004E-02  -1.04479905E-05
  -1.23500004E-02  -1.06582256E-05
  -1.22999996E-02  -1.08720606E-05
  -1.22499997E-02  -1.10895317E-05
  -1.21999998E-02  -1.13106826E-05
  -1.21499998E-02  -1.15355742E-05
  -1.20999999E-02  -1.17642703E-05
  -1.20500000E-02  -1.19968354E-05
  -1.20000001E-02  -1.22333249E-05
  -1.19500002E-02  -1.24737844E-05
  -1.19000003E-02  -1.27182457E-05
  -1.18500004E-02  -1.29667415E-05
  -1.18000004E-02  -1.32193063E-05
  -1.17499996E-02  -1.34759885E-05
  -1.16999997E-02  -1.37368461E-05
  -1.16499998E-02  -1.40019456E-05
  -1.15999999E-02  -1.42713561E-05
  -1.15499999E-02  -1.45451359E-05
  -1.15000000E-02  -1.48233303E-05
  -1.14500001E-02  -1.51059749E-05
  -1.14000002E-02  -1.53930996E-05
  -1.13500003E-02  -1.56847364E-05
  -1.13000004E-02  -1.59809315E-05
  -1.12500004E-02  -1.62817360E-05
  -1.11999996E-02  -1.65872170E-05
  -1.11499997E-02  -1.68974439E-05
  -1.10999998E-02  -1.72124674E-05
  -1.10499999E-02  -1.75323348E-05
  -1.09999999E-02  -1.78570845E-05
  -1.09500000E-02  -1.81867381E-05
  -1.09000001E-02  -1.85213285E-05
  -1.08500002E-02  -1.88608992E-05
  -1.08000003E-02  -1.92055031E-05
  -1.07500004E-02  -1.95552057E-05
  -1.07000005E-02  -1.99100723E-05
  -1.06499996E-02  -2.02701631E-05
  -1.05999997E-02  -2.06355180E-05
  -1.05499998E-02  -2.10061717E-05
  -1.04999999E-02  -2.13821440E-05
  -1.04499999E-02  -2.17634570E-05
  -1.04000000E-02  -2.21501468E-05
  -1.03500001E-02  -2.25422609E-05
  -1.03000002E-02  -2.29398502E-05
  -1.02500003E-02  -2.33429801E-05
  -1.02000004E-02  -2.37516997E-05
  -1.01500005E-02  -2.41660528E-05
  -1.00999996E-02  -2.45860629E-05
  -1.00499997E-02  -2.50117500E-05
  -9.99999978E-03  -2.54431252E-05
  -9.94999986E-03  -2.58802156E-05
  -9.89999995E-03  -2.63230559E-05
  -9.85000003E-03  -2.67716987E-05
  -9.80000012E-03  -2.72261950E-05
  -9.75000020E-03  -2.76865976E-05
  -9.70000029E-03  -2.81529428E-05
  -9.65000037E-03  -2.86252471E-05
  -9.60000046E-03  -2.91035176E-05
  -9.54999961E-03  -2.95877635E-05
  -9.49999969E-03  -3.00779939E-05
  -9.44999978E-03  -3.05742324E-05
  -9.39999986E-03  -3.10765136E-05
  -9.34999995E-03  -3.15848847E-05
  -9.30000003E-03  -3.20993749E-05
  -9.25000012E-03  -3.26200170E-05
  -9.20000020E-03  -3.31468073E-05
  -9.15000029E-03  -3.36797420E-05
  -9.10000037E-03  -3.42188068E-05
  -9.05000046E-03  -3.47640016E-05
  -8.99999961E-03  -3.53153300E-05
  -8.94999970E-03  -3.58728103E-05
  -8.89999978E-03  -3.64364751E-05
  -8.84999987E-03  -3.70063462E-05
  -8.79999995E-03  -3.75824384E-05
  -8.75000004E-03  -3.81647369E-05
  -8.70000012E-03  -3.87532345E-05
  -8.65000021E-03  -3.93478949E-05
  -8.60000029E-03  -3.99486962E-05
  -8.55000038E-03  -4.05556275E-05
  -8.50000046E-03  -4.11686888E-05
  -8.44999962E-03  -4.17878837E-05
  -8.39999970E-03  -4.24132195E-05
  -8.34999979E-03  -4.30446817E-05
  -8.29999987E-03  -4.36822520E-05
  -8.24999996E-03  -4.43258759E-05
  -8.20000004E-03  -4.49755098E-05
  -8.15000013E-03  -4.56310991E-05
  -8.10000021E-03  -4.62926109E-05
  -8.05000030E-03  -4.69600091E-05
  -8.00000038E-03  -4.76332752E-05
  -7.95000046E-03  -4.83123877E-05
  -7.89999962E-03  -4.89973099E-05
  -7.84999970E-03  -4.96879875E-05
  -7.79999979E-03  -5.03843621E-05
  -7.74999987E-03  -5.10863538E-05
  -7.69999996E-03  -5.17938824E-05
  -7.65000004E-03  -5.25068790E-05
  -7.60000013E-03  -5.32252852E-05
  -7.55000021E-03  -5.39490538E-05
  -7.49999983E-03  -5.46781266E-05
  -7.44999992E-03  -5.54124417E-05
  -7.40000000E-03  -5.61519191E-05
  -7.35000009E-03  -5.68964642E-05
  -7.30000017E-03  -5.76459606E-05
  -7.24999979E-03  -5.84002919E-05
  -7.19999988E-03  -5.91593453E-05
  -7.14999996E-03  -5.99230225E-05
  -7.10000005E-03  -6.06912399E-05
  -7.05000013E-03  -6.14639066E-05
  -7.00000022E-03  -6.22409134E-05
  -6.94999984E-03  -6.30221548E-05
  -6.89999992E-03  -6.38074853E-05
  -6.85000001E-03  -6.45967521E-05
  -6.80000009E-03  -6.53898023E-05
  -6.75000018E-03  -6.61864833E-05
  -6.69999979E-03  -6.69866495E-05
  -6.64999988E-03  -6.77901626E-05
  -6.59999996E-03  -6.85968917E-05
  -6.55000005E-03  -6.94066912E-05
  -6.50000013E-03  -7.02193865E-05
  -6.45000022E-03  -7.10348031E-05
  -6.39999984E-03  -7.18527372E-05
  -6.34999992E-03  -7.26729995E-05
  -6.30000001E-03  -7.34953937E-05
  -6.25000009E-03  -7.43197306E-05
  -6.20000018E-03  -7.51458138E-05
  -6.14999980E-03  -7.59734612E-05
  -6.09999988E-03  -7.68024765E-05
  -6.04999997E-03  -7.76326415E-05
  -6.00000005E-03  -7.84637086E-05
  -5.95000014E-03  -7.92954525E-05
  -5.90000022E-03  -8.01276037E-05
  -5.84999984E-03  -8.09599078E-05
  -5.79999993E-03  -8.17921245E-05
  -5.75000001E-03  -8.26240066E-05
  -5.70000010E-03  -8.34552993E-05
  -5.65000018E-03  -8.42857407E-05
  -5.59999980E-03  -8.51150617E-05
  -5.54999989E-03  -8.59429565E-05
  -5.49999997E-03  -8.67691342E-05
  -5.45000006E-03  -8.75932601E-05
  -5.40000014E-03  -8.84150286E-05
  -5.35000023E-03  -8.92341195E-05
  -5.29999984E-03  -9.00502200E-05
  -5.24999993E-03  -9.08630245E-05
  -5.20000001E-03  -9.16721983E-05
  -5.15000010E-03  -9.24774067E-05
  -5.10000018E-03  -9.32783005E-05
  -5.04999980E-03  -9.40744940E-05
  -4.99999989E-03  -9.48656234E-05
  -4.94999997E-03  -9.56512813E-05
  -4.90000006E-03  -9.64311039E-05
  -4.85000014E-03  -9.72046910E-05
  -4.80000023E-03  -9.79716497E-05
  -4.74999985E-03  -9.87315871E-05
  -4.69999993E-03  -9.94840884E-05
  -4.65000002E-03  -1.00228710E-04
  -4.60000010E-03  -1.00965022E-04
  -4.55000019E-03  -1.01692538E-04
  -4.49999981E-03  -1.02410799E-04
  -4.44999989E-03  -1.03119324E-04
  -4.39999998E-03  -1.03817685E-04
  -4.35000006E-03  -1.04505387E-04
  -4.30000015E-03  -1.05181971E-04
  -4.25000023E-03  -1.05846928E-04
  -4.19999985E-03  -1.06499734E-04
  -4.14999994E-03  -1.07139866E-04
  -4.10000002E-03  -1.07766755E-04
  -4.05000011E-03  -1.08379878E-04
  -4.00000019E-03  -1.08978689E-04
  -3.94999981E-03  -1.09562650E-04
  -3.89999989E-03  -1.10131215E-04
  -3.84999998E-03  -1.10683810E-04
  -3.80000006E-03  -1.11219866E-04
  -3.74999992E-03  -1.11738751E-04
  -3.70000000E-03  -1.12239861E-04
  -3.65000009E-03  -1.12722562E-04
  -3.59999994E-03  -1.13186194E-04
  -3.55000002E-03  -1.13630129E-04
  -3.50000011E-03  -1.14053728E-04
  -3.44999996E-03  -1.14456372E-04
  -3.40000005E-03  -1.14837385E-04
  -3.34999990E-03  -1.15196090E-04
  -3.29999998E-03  -1.15531795E-04
  -3.25000007E-03  -1.15843752E-04
  -3.19999992E-03  -1.16131247E-04
  -3.15000000E-03  -1.16393552E-04
  -3.10000009E-03  -1.16629926E-04
  -3.04999994E-03  -1.16839656E-04
  -3.00000003E-03  -1.17022028E-04
  -2.95000011E-03  -1.17176285E-04
  -2.89999996E-03  -1.17301650E-04
  -2.85000005E-03  -1.17397329E-04
  -2.79999990E-03  -1.17462514E-04
  -2.74999999E-03  -1.17496355E-04
  -2.70000007E-03  -1.17498043E-04
  -2.64999992E-03  -1.17466741E-04
  -2.60000001E-03  -1.17401622E-04
  -2.55000009E-03  -1.17301868E-04
  -2.49999994E-03  -1.17166644E-04
  -2.45000003E-03  -1.16995085E-04
  -2.40000011E-03  -1.16786294E-04
  -2.34999997E-03  -1.16539348E-04
  -2.30000005E-03  -1.16253315E-04
  -2.24999990E-03  -1.15927236E-04
  -2.19999999E-03  -1.15560200E-04
  -2.15000007E-03  -1.15151277E-04
  -2.09999993E-03  -1.14699593E-04
  -2.05000001E-03  -1.14204202E-04
  -2.00000009E-03  -1.13664144E-04
  -1.94999995E-03  -1.13078429E-04
  -1.90000003E-03  -1.12446018E-04
  -1.85000000E-03  -1.11765912E-04
  -1.79999997E-03  -1.11037050E-04
  -1.75000005E-03  -1.10258436E-04
  -1.70000002E-03  -1.09429064E-04
  -1.64999999E-03  -1.08547938E-04
  -1.59999996E-03  -1.07614062E-04
  -1.55000004E-03  -1.06626379E-04
  -1.50000001E-03  -1.05583786E-04
  -1.44999998E-03  -1.04485167E-04
  -1.39999995E-03  -1.03329396E-04
  -1.35000004E-03  -1.02115366E-04
  -1.30000000E-03  -1.00841949E-04
  -1.24999997E-03  -9.95080627E-05
  -1.20000006E-03  -9.81126213E-05
  -1.15000003E-03  -9.66545485E-05
  -1.09999999E-03  -9.51327165E-05
  -1.04999996E-03  -9.35459466E-05
  -1.00000005E-03  -9.18930164E-05
  -9.50000016E-04  -9.01727253E-05
  -8.99999985E-04  -8.83838293E-05
  -8.50000011E-04  -8.65251714E-05
  -7.99999980E-04  -8.45955801E-05
  -7.50000007E-04  -8.25939278E-05
  -6.99999975E-04  -8.05190575E-05
  -6.50000002E-04  -7.83697760E-05
  -6.00000028E-04  -7.61448318E-05
  -5.49999997E-04  -7.38429517E-05
  -5.00000024E-04  -7.14628331E-05
  -4.49999992E-04  -6.90031811E-05
  -3.99999990E-04  -6.64627369E-05
  -3.49999988E-04  -6.38402780E-05
  -3.00000014E-04  -6.11346259E-05
  -2.50000012E-04  -5.83445435E-05
  -1.99999995E-04  -5.54687904E-05
  -1.50000007E-04  -5.25060568E-05
  -9.99999975E-05  -4.94549931E-05
  -4.99999987E-05  -4.63142424E-05
   0.00000000      -4.30824402E-05
   4.99999987E-05  -3.97582953E-05
   9.99999975E-05  -3.63405343E-05
   1.50000007E-04  -3.28279020E-05
   1.99999995E-04  -2.92191744E-05
   2.50000012E-04  -2.55130471E-05
   3.00000014E-04  -2.17082033E-05
   3.49999988E-04  -1.78032460E-05
   3.99999990E-04  -1.37967672E-05
   4.49999992E-04  -9.68738823E-06
   5.00000024E-04  -5.47375066E-06
   5.49999997E-04  -1.15458135E-06
   6.00000028E-04   3.27140242E-06
   6.50000002E-04   7.80544360E-06
   6.99999975E-04   1.24488297E-05
   7.50000007E-04   1.72029013E-05
   7.99999980E-04   2.20690417E-05
   8.50000011E-04   2.70486798E-05
   8.99999985E-04   3.21432308E-05
   9.50000016E-04   3.73540825E-05
   1.00000005E-03   4.26825536E-05
   1.04999996E-03   4.81298848E-05
   1.09999999E-03   5.36973348E-05
   1.15000003E-03   5.93861332E-05
   1.20000006E-03   6.51976079E-05
   1.24999997E-03   7.11331013E-05
   1.30000000E-03   7.71940613E-05
   1.35000004E-03   8.33819140E-05
   1.39999995E-03   8.96979909E-05
   1.44999998E-03   9.61435871E-05
   1.50000001E-03   1.02719925E-04
   1.55000004E-03   1.09428191E-04
   1.59999996E-03   1.16269584E-04
   1.64999999E-03   1.23245351E-04
   1.70000002E-03   1.30356813E-04
   1.75000005E-03   1.37605341E-04
   1.79999997E-03   1.44992300E-04
   1.85000000E-03   1.52519046E-04
   1.90000003E-03   1.60186741E-04
   1.94999995E-03   1.67996564E-04
   2.00000009E-03   1.75949637E-04
   2.05000001E-03   1.84047080E-04
   2.09999993E-03   1.92290041E-04
   2.15000007E-03   2.00679729E-04
   2.19999999E-03   2.09217425E-04
   2.24999990E-03   2.17904410E-04
   2.30000005E-03   2.26741933E-04
   2.34999997E-03   2.35731117E-04
   2.40000011E-03   2.44873023E-04
   2.45000003E-03   2.54168670E-04
   2.49999994E-03   2.63619004E-04
   2.55000009E-03   2.73225101E-04
   2.60000001E-03   2.82988040E-04
   2.64999992E-03   2.92908866E-04
   2.70000007E-03   3.02988803E-04
   2.74999999E-03   3.13228957E-04
   2.79999990E-03   3.23630375E-04