  -3.99999991E-02   0.00000000    
  -3.99499983E-02   0.00000000    
  -3.99000011E-02   0.00000000    
  -3.98500003E-02   0.00000000    
  -3.97999994E-02   2.48494026E-19
  -3.97499986E-02   1.97859617E-18
  -3.97000015E-02   8.40314669E-18
  -3.96500006E-02   2.52824776E-17
  -3.95999998E-02   6.08898568E-17
  -3.95499989E-02   1.26446111E-16
  -3.95000018E-02   2.37953022E-16
  -3.94500010E-02   4.17578429E-16
  -3.94000001E-02   6.90286430E-16
  -3.93499993E-02   1.07426648E-15
  -3.92999984E-02   1.57162665E-15
  -3.92500013E-02   2.17031440E-15
  -3.92000005E-02   2.86113076E-15
  -3.91499996E-02   3.65915269E-15
  -3.90999988E-02   4.61215581E-15
  -3.90500017E-02   5.78922794E-15
  -3.90000008E-02   7.26059956E-15
  -3.89500000E-02   9.08456812E-15
  -3.88999991E-02   1.13039232E-14
  -3.88499983E-02   1.39408858E-14
  -3.88000011E-02   1.69862988E-14
  -3.87500003E-02   2.03987404E-14
  -3.86999995E-02   2.41325548E-14
  -3.86499986E-02   2.81860869E-14
  -3.86000015E-02   3.26292202E-14
  -3.85500006E-02   3.75747780E-14
  -3.84999998E-02   4.31065299E-14
  -3.84499989E-02   4.92197869E-14
  -3.84000018E-02   5.58191663E-14
  -3.83500010E-02   6.27614144E-14
  -3.83000001E-02   6.98922325E-14
  -3.82499993E-02   7.70493559E-14
  -3.81999984E-02   8.40576659E-14
  -3.81500013E-02   9.07561312E-14
  -3.81000005E-02   9.70481155E-14
  -3.80499996E-02   1.02917200E-13
  -3.79999988E-02   1.08371171E-13
  -3.79500017E-02   1.13354523E-13
  -3.79000008E-02   1.17712413E-13
  -3.78500000E-02   1.21235419E-13
  -3.77999991E-02   1.23720356E-13
  -3.77499983E-02   1.24960629E-13
  -3.77000012E-02   1.24668112E-13
  -3.76500003E-02   1.22426510E-13
  -3.75999995E-02   1.17760077E-13
  -3.75499986E-02   1.10275904E-13
  -3.75000015E-02   9.97439368E-14
  -3.74500006E-02   8.60283118E-14
  -3.73999998E-02   6.89319749E-14
  -3.73499990E-02   4.80949814E-14
  -3.73000018E-02   2.30183626E-14
  -3.72500010E-02  -6.83986644E-15
  -3.72000001E-02  -4.19733286E-14
  -3.71499993E-02  -8.27299587E-14
  -3.70999984E-02  -1.29143414E-13
  -3.70500013E-02  -1.80725985E-13
  -3.70000005E-02  -2.36415976E-13
  -3.69499996E-02  -2.94872877E-13
  -3.68999988E-02  -3.55077702E-13
  -3.68500017E-02  -4.16907611E-13
  -3.68000008E-02  -4.81300329E-13
  -3.67500000E-02  -5.49877906E-13
  -3.66999991E-02  -6.24233629E-13
  -3.66499983E-02  -7.05226947E-13
  -3.66000012E-02  -7.92532218E-13
  -3.65500003E-02  -8.84541355E-13
  -3.64999995E-02  -9.78667993E-13
  -3.64499986E-02  -1.07207114E-12
  -3.64000015E-02  -1.16262620E-12
  -3.63500006E-02  -1.24968796E-12
  -3.62999998E-02  -1.33409700E-12
  -3.62499990E-02  -1.41723926E-12
  -3.62000018E-02  -1.49959190E-12
  -3.61500010E-02  -1.57960895E-12
  -3.61000001E-02  -1.65364196E-12
  -3.60499993E-02  -1.71696695E-12
  -3.59999985E-02  -1.76540108E-12
  -3.59500013E-02  -1.79677280E-12
  -3.59000005E-02  -1.81165423E-12
  -3.58499996E-02  -1.81301491E-12
  -3.57999988E-02  -1.80474299E-12
  -3.57500017E-02  -1.78939827E-12
  -3.57000008E-02  -1.76609812E-12
  -3.56500000E-02  -1.72972552E-12
  -3.55999991E-02  -1.67223017E-12
  -3.55499983E-02  -1.58570032E-12
  -3.55000012E-02  -1.46575384E-12
  -3.54500003E-02  -1.31346713E-12
  -3.53999995E-02  -1.13478584E-12
  -3.53499986E-02  -9.37650673E-13
  -3.53000015E-02  -7.28112286E-13
  -3.52500007E-02  -5.07091764E-13
  -3.51999998E-02  -2.69170537E-13
  -3.51499990E-02  -4.15082609E-15
  -3.51000018E-02   2.98869409E-13
  -3.50500010E-02   6.46335741E-13
  -3.50000001E-02   1.03632923E-12
  -3.49499993E-02   1.45810924E-12
  -3.48999985E-02   1.89583050E-12
  -3.48500013E-02   2.33495384E-12
  -3.48000005E-02   2.76828126E-12
  -3.47499996E-02   3.19861065E-12
  -3.46999988E-02   3.63668123E-12
  -3.46500017E-02   4.09529658E-12
  -3.46000008E-02   4.58219400E-12
  -3.45500000E-02   5.09470417E-12
  -3.44999991E-02   5.61864270E-12
  -3.44499983E-02   6.13233856E-12
  -3.44000012E-02   6.61455396E-12
  -3.43500003E-02   7.05299577E-12
  -3.42999995E-02   7.44922526E-12
  -3.42499986E-02   7.81701440E-12
  -3.42000015E-02   8.17433274E-12
  -3.41500007E-02   8.53254880E-12
  -3.40999998E-02   8.88809339E-12
  -3.40499990E-02   9.22074656E-12
  -3.40000018E-02   9.49956433E-12
  -3.39500010E-02   9.69396785E-12
  -3.39000002E-02   9.78527242E-12
  -3.38499993E-02   9.77359773E-12
  -3.37999985E-02   9.67675679E-12
  -3.37500013E-02   9.52090230E-12
  -3.37000005E-02   9.32644934E-12
  -3.36499996E-02   9.09556111E-12
  -3.35999988E-02   8.80757793E-12
  -3.35500017E-02   8.42544957E-12
  -3.35000008E-02   7.91084993E-12
  -3.34500000E-02   7.24111830E-12
  -3.33999991E-02   6.41995615E-12
  -3.33499983E-02   5.47665819E-12
  -3.33000012E-02   4.45392551E-12
  -3.32500003E-02   3.38933569E-12
  -3.31999995E-02   2.29837590E-12
  -3.31499986E-02   1.16659059E-12
  -3.31000015E-02  -4.50317951E-14
  -3.30500007E-02  -1.38280945E-12
  -3.29999998E-02  -2.87821416E-12
  -3.29499990E-02  -4.53088391E-12
  -3.29000019E-02  -6.30526447E-12
  -3.28500010E-02  -8.14324129E-12
  -3.28000002E-02  -9.98727229E-12
  -3.27499993E-02  -1.18032667E-11
  -3.26999985E-02  -1.35924527E-11
  -3.26500013E-02  -1.53866277E-11
  -3.26000005E-02  -1.72288295E-11
  -3.25499997E-02  -1.91477754E-11
  -3.24999988E-02  -2.11373922E-11
  -3.24500017E-02  -2.31509725E-11
  -3.24000008E-02  -2.51136594E-11
  -3.23500000E-02  -2.69488858E-11
  -3.22999991E-02  -2.86073647E-11
  -3.22499983E-02  -3.00849033E-11
  -3.22000012E-02  -3.14197418E-11
  -3.21500003E-02  -3.26697350E-11
  -3.20999995E-02  -3.38794583E-11
  -3.20499986E-02  -3.50526101E-11
  -3.20000015E-02  -3.61424814E-11
  -3.19500007E-02  -3.70651981E-11
  -3.18999998E-02  -3.77301870E-11
  -3.18499990E-02  -3.80749460E-11
  -3.18000019E-02  -3.80888862E-11
  -3.17500010E-02  -3.78150081E-11
  -3.17000002E-02  -3.73273600E-11
  -3.16499993E-02  -3.66931728E-11
  -3.15999985E-02  -3.59365836E-11
  -3.15500014E-02  -3.50212602E-11
  -3.15000005E-02  -3.38611673E-11
  -3.14499997E-02  -3.23554551E-11
  -3.13999988E-02  -3.04316884E-11
  -3.13500017E-02  -2.80778647E-11
  -3.13000008E-02  -2.53487405E-11
  -3.12500000E-02  -2.23435870E-11
  -3.11999992E-02  -1.91647444E-11
  -3.11500002E-02  -1.58746922E-11
  -3.10999993E-02  -1.24703850E-11
  -3.10500003E-02  -8.88713755E-12
  -3.09999995E-02  -5.03164177E-12
  -3.09500005E-02  -8.30267604E-13
  -3.08999997E-02   3.72943907E-12
  -3.08500007E-02   8.58388274E-12
  -3.07999998E-02   1.36128487E-11
  -3.07500008E-02   1.86845504E-11
  -3.07000000E-02   2.37056885E-11
  -3.06499992E-02   2.86537790E-11
  -3.06000002E-02   3.35773874E-11
  -3.05499993E-02   3.85640166E-11
  -3.05000003E-02   4.36893542E-11
  -3.04499995E-02   4.89697380E-11
  -3.04000005E-02   5.43391096E-11
  -3.03499997E-02   5.96622265E-11
  -3.03000007E-02   6.47798412E-11
  -3.02499998E-02   6.95663457E-11
  -3.02000009E-02   7.39732511E-11
  -3.01500000E-02   7.80375486E-11
  -3.00999992E-02   8.18509011E-11
  -3.00500002E-02   8.55034724E-11
  -2.99999993E-02   8.90280349E-11
  -2.99500003E-02   9.23693205E-11
  -2.98999995E-02   9.53923121E-11
  -2.98500005E-02   9.79262366E-11
  -2.97999997E-02   9.98265359E-11
  -2.97500007E-02   1.01028033E-10
  -2.96999998E-02   1.01565735E-10
  -2.96500009E-02   1.01552065E-10
  -2.96000000E-02   1.01118974E-10
  -2.95499992E-02   1.00350638E-10
  -2.95000002E-02   9.92372851E-11
  -2.94499993E-02   9.76716139E-11
  -2.94000003E-02   9.54894011E-11
  -2.93499995E-02   9.25357499E-11
  -2.93000005E-02   8.87279000E-11
  -2.92499997E-02   8.40876882E-11
  -2.92000007E-02   7.87302237E-11
  -2.91499998E-02   7.28132554E-11
  -2.91000009E-02   6.64683655E-11
  -2.90500000E-02   5.97438835E-11
  -2.89999992E-02   5.25856546E-11
  -2.89500002E-02   4.48659269E-11
  -2.88999993E-02   3.64483548E-11
  -2.88500004E-02   2.72596199E-11
  -2.87999995E-02   1.73344897E-11
  -2.87500005E-02   6.81378174E-12
  -2.86999997E-02  -4.10340468E-12
  -2.86500007E-02  -1.52317881E-11
  -2.85999998E-02  -2.64649812E-11
  -2.85500009E-02  -3.78058175E-11
  -2.85000000E-02  -4.93486432E-11
  -2.84499992E-02  -6.12196752E-11
  -2.84000002E-02  -7.35003031E-11
  -2.83499993E-02  -8.61668792E-11
  -2.83000004E-02  -9.90750745E-11
  -2.82499995E-02  -1.11997876E-10
  -2.82000005E-02  -1.24700944E-10
  -2.81499997E-02  -1.37021380E-10
  -2.81000007E-02  -1.48913909E-10
  -2.80499998E-02  -1.60444366E-10
  -2.80000009E-02  -1.71733613E-10
  -2.79500000E-02  -1.82876450E-10
  -2.78999992E-02  -1.93869990E-10
  -2.78500002E-02  -2.04582046E-10
  -2.77999993E-02  -2.14774670E-10
  -2.77500004E-02  -2.24175692E-10
  -2.76999995E-02  -2.32568492E-10
  -2.76500005E-02  -2.39861103E-10
  -2.75999997E-02  -2.46102472E-10
  -2.75500007E-02  -2.51437315E-10
  -2.74999999E-02  -2.56019123E-10
  -2.74500009E-02  -2.59920030E-10
  -2.74000000E-02  -2.63077976E-10
  -2.73499992E-02  -2.65303224E-10
  -2.73000002E-02  -2.66341310E-10
  -2.72499993E-02  -2.65965500E-10
  -2.72000004E-02  -2.64060634E-10
  -2.71499995E-02  -2.60662325E-10
  -2.71000005E-02  -2.55933025E-10
  -2.70499997E-02  -2.50082594E-10
  -2.70000007E-02  -2.43267573E-10
  -2.69499999E-02  -2.35514358E-10
  -2.69000009E-02  -2.26702684E-10
  -2.68500000E-02  -2.16617849E-10
  -2.67999992E-02  -2.05048145E-10
  -2.67500002E-02  -1.91883912E-10
  -2.66999993E-02  -1.77174067E-10
  -2.66500004E-02  -1.61116218E-10
  -2.65999995E-02  -1.43984033E-10
  -2.65500005E-02  -1.26022151E-10
  -2.64999997E-02  -1.07353494E-10
  -2.64500007E-02  -8.79402454E-11
  -2.63999999E-02  -6.76193476E-11
  -2.63500009E-02  -4.61996483E-11
  -2.63000000E-02  -2.35789201E-11
  -2.62499992E-02   1.73673955E-13
  -2.62000002E-02   2.48094566E-11
  -2.61499994E-02   4.99716345E-11
  -2.61000004E-02   7.53151985E-11
  -2.60499995E-02   1.00622420E-10
  -2.60000005E-02   1.25863639E-10
  -2.59499997E-02   1.51176502E-10
  -2.59000007E-02   1.76770654E-10
  -2.58499999E-02   2.02797071E-10
  -2.58000009E-02   2.29237421E-10
  -2.57500000E-02   2.55864302E-10
  -2.56999992E-02   2.82293661E-10
  -2.56500002E-02   3.08109704E-10
  -2.55999994E-02   3.33007122E-10
  -2.55500004E-02   3.56885244E-10
  -2.54999995E-02   3.79850790E-10
  -2.54500005E-02   4.02127470E-10
  -2.53999997E-02   4.23913515E-10
  -2.53500007E-02   4.45249532E-10
  -2.52999999E-02   4.65955663E-10
  -2.52500009E-02   4.85666396E-10
  -2.52000000E-02   5.03949771E-10
  -2.51499992E-02   5.20461452E-10
  -2.51000002E-02   5.35066380E-10
  -2.50499994E-02   5.47870638E-10
  -2.50000004E-02   5.59145674E-10
  -2.49499995E-02   5.69176206E-10
  -2.49000005E-02   5.78101067E-10
  -2.48499997E-02   5.85821502E-10
  -2.48000007E-02   5.92019267E-10
  -2.47499999E-02   5.96276362E-10
  -2.47000009E-02   5.98242067E-10
  -2.46500000E-02   5.97772332E-10
  -2.45999992E-02   5.94980287E-10
  -2.45500002E-02   5.90172466E-10
  -2.44999994E-02   5.83697368E-10
  -2.44500004E-02   5.75771431E-10
  -2.43999995E-02   5.66360903E-10
  -2.43500005E-02   5.55178181E-10
  -2.42999997E-02   5.41799328E-10
  -2.42500007E-02   5.25851751E-10
  -2.41999999E-02   5.07183961E-10
  -2.41500009E-02   4.85938956E-10
  -2.41000000E-02   4.62494876E-10
  -2.40499992E-02   4.37299308E-10
  -2.40000002E-02   4.10671580E-10
  -2.39499994E-02   3.82659571E-10
  -2.39000004E-02   3.53014673E-10
  -2.38499995E-02   3.21299459E-10
  -2.38000005E-02   2.87083551E-10
  -2.37499997E-02   2.50142879E-10
  -2.37000007E-02   2.10570852E-10
  -2.36499999E-02   1.68745865E-10
  -2.36000009E-02   1.25167071E-10
  -2.35500000E-02   8.02320640E-11
  -2.34999992E-02   3.40601644E-11
  -2.34500002E-02  -1.35577565E-11
  -2.33999994E-02  -6.30607858E-11
  -2.33500004E-02  -1.14916909E-10
  -2.32999995E-02  -1.69409806E-10
  -2.32500006E-02  -2.26508257E-10
  -2.31999997E-02  -2.85877461E-10
  -2.31500007E-02  -3.47030210E-10
  -2.30999999E-02  -4.09552808E-10
  -2.30500009E-02  -4.73303730E-10
  -2.30000000E-02  -5.38491196E-10
  -2.29499992E-02  -6.05589079E-10
  -2.29000002E-02  -6.75128009E-10
  -2.28499994E-02  -7.47459927E-10
  -2.28000004E-02  -8.22607371E-10
  -2.27499995E-02  -9.00266806E-10
  -2.27000006E-02  -9.79964221E-10
  -2.26499997E-02  -1.06129339E-09
  -2.26000007E-02  -1.14412746E-09
  -2.25499999E-02  -1.22871002E-09
  -2.25000009E-02  -1.31558187E-09
  -2.24500000E-02  -1.40537149E-09
  -2.23999992E-02  -1.49853896E-09
  -2.23500002E-02  -1.59519442E-09
  -2.22999994E-02  -1.69507608E-09
  -2.22500004E-02  -1.79770399E-09
  -2.21999995E-02  -1.90264093E-09
  -2.21500006E-02  -2.00973460E-09
  -2.20999997E-02  -2.11923079E-09
  -2.20500007E-02  -2.23170638E-09
  -2.19999999E-02  -2.34785635E-09
  -2.19500009E-02  -2.46822185E-09
  -2.19000001E-02  -2.59299093E-09
  -2.18499992E-02  -2.72195377E-09
  -2.18000002E-02  -2.85463830E-09
  -2.17499994E-02  -2.99057579E-09
  -2.17000004E-02  -3.12956705E-09
  -2.16499995E-02  -3.27182947E-09
  -2.16000006E-02  -3.41795858E-09
  -2.15499997E-02  -3.56870933E-09
  -2.15000007E-02  -3.72470454E-09
  -2.14499999E-02  -3.88620469E-09
  -2.14000009E-02  -4.05304545E-09
  -2.13500001E-02  -4.22477076E-09
  -2.12999992E-02  -4.40089032E-09
  -2.12500002E-02  -4.58114879E-09
  -2.11999994E-02  -4.76569495E-09
  -2.11500004E-02  -4.95505814E-09
  -2.10999995E-02  -5.14995424E-09
  -2.10500006E-02  -5.35099476E-09
  -2.09999997E-02  -5.55843727E-09
  -2.09500007E-02  -5.77210990E-09
  -2.08999999E-02  -5.99152683E-09
  -2.08500009E-02  -6.21616625E-09
  -2.08000001E-02  -6.44576348E-09
  -2.07499992E-02  -6.68048550E-09
  -2.07000002E-02  -6.92091229E-09
  -2.06499994E-02  -7.16782411E-09
  -2.06000004E-02  -7.42190398E-09
  -2.05499995E-02  -7.68346986E-09
  -2.05000006E-02  -7.95237565E-09
  -2.04499997E-02  -8.22812574E-09
  -2.04000007E-02  -8.51014192E-09
  -2.03499999E-02  -8.79809026E-09
  -2.03000009E-02  -9.09209863E-09
  -2.02500001E-02  -9.39276568E-09
  -2.01999992E-02  -9.70096092E-09
  -2.01500002E-02  -1.00174997E-08
  -2.00999994E-02  -1.03428466E-08
  -2.00500004E-02  -1.06769882E-08
  -1.99999996E-02  -1.10195355E-08
  -1.99500006E-02  -1.13699903E-08
  -1.98999997E-02  -1.17280736E-08
  -1.98500007E-02  -1.20939587E-08
  -1.97999999E-02  -1.24683242E-08
  -1.97500009E-02  -1.28521700E-08
  -1.97000001E-02  -1.32464990E-08
  -1.96499992E-02  -1.36519960E-08
  -1.96000002E-02  -1.40688732E-08
  -1.95499994E-02  -1.44969254E-08
  -1.95000004E-02  -1.49358144E-08
  -1.94499996E-02  -1.53854032E-08
  -1.94000006E-02  -1.58460196E-08
  -1.93499997E-02  -1.63185092E-08
  -1.93000007E-02  -1.68040639E-08
  -1.92499999E-02  -1.73039094E-08
  -1.92000009E-02  -1.78189818E-08
  -1.91500001E-02  -1.83497537E-08
  -1.90999992E-02  -1.88962570E-08
  -1.90500002E-02  -1.94583656E-08
  -1.89999994E-02  -2.00361221E-08
  -1.89500004E-02  -2.06300381E-08
  -1.88999996E-02  -2.12411759E-08
  -1.88500006E-02  -2.18710010E-08
  -1.87999997E-02  -2.25210357E-08
  -1.87500007E-02  -2.31925128E-08
  -1.86999999E-02  -2.38861695E-08
  -1.86500009E-02  -2.46022687E-08
  -1.86000001E-02  -2.53408707E-08
  -1.85499992E-02  -2.61021889E-08
  -1.85000002E-02  -2.68869016E-08
  -1.84499994E-02  -2.76962577E-08
  -1.84000004E-02  -2.85319590E-08
  -1.83499996E-02  -2.93958227E-08
  -1.83000006E-02  -3.02894207E-08
  -1.82499997E-02  -3.12137907E-08
  -1.82000007E-02  -3.21694209E-08
  -1.81499999E-02  -3.31564891E-08
  -1.81000009E-02  -3.41752582E-08
  -1.80500001E-02  -3.52264351E-08
  -1.79999992E-02  -3.63112953E-08
  -1.79500002E-02  -3.74316329E-08
  -1.78999994E-02  -3.85893983E-08
  -1.78500004E-02  -3.97863538E-08
  -1.77999996E-02  -4.10237853E-08
  -1.77500006E-02  -4.23024176E-08
  -1.76999997E-02  -4.36225882E-08
  -1.76500008E-02  -4.49846205E-08
  -1.75999999E-02  -4.63892036E-08
  -1.75500009E-02  -4.78376094E-08
  -1.75000001E-02  -4.93316463E-08
  -1.74499992E-02  -5.08733002E-08
  -1.74000002E-02  -5.24643546E-08
  -1.73499994E-02  -5.41060743E-08
  -1.73000004E-02  -5.57991768E-08
  -1.72499996E-02  -5.75439820E-08
  -1.72000006E-02  -5.93407492E-08
  -1.71499997E-02  -6.11900717E-08
  -1.71000008E-02  -6.30931041E-08
  -1.70499999E-02  -6.50515659E-08
  -1.70000009E-02  -6.70674964E-08
  -1.69500001E-02  -6.91427857E-08
  -1.68999992E-02  -7.12787980E-08
  -1.68500002E-02  -7.34762651E-08
  -1.67999994E-02  -7.57353718E-08
  -1.67500004E-02  -7.80562672E-08
  -1.66999996E-02  -8.04393636E-08
  -1.66500006E-02  -8.28857054E-08
  -1.65999997E-02  -8.53968629E-08
  -1.65500008E-02  -8.79747617E-08
  -1.64999999E-02  -9.06213202E-08
  -1.64500009E-02  -9.33380448E-08
  -1.64000001E-02  -9.61257101E-08
  -1.63499992E-02  -9.89845503E-08
  -1.63000003E-02  -1.01914587E-07
  -1.62499994E-02  -1.04916140E-07
  -1.62000004E-02  -1.07990125E-07
  -1.61499996E-02  -1.11138164E-07
  -1.61000006E-02  -1.14362294E-07
  -1.60499997E-02  -1.17664598E-07
  -1.60000008E-02  -1.21046810E-07
  -1.59499999E-02  -1.24510066E-07
  -1.59000009E-02  -1.28054964E-07
  -1.58500001E-02  -1.31681759E-07
  -1.57999992E-02  -1.35390835E-07
  -1.57500003E-02  -1.39183186E-07
  -1.56999994E-02  -1.43060575E-07
  -1.56500004E-02  -1.47025347E-07
  -1.55999996E-02  -1.51079902E-07
  -1.55499997E-02  -1.55226431E-07
  -1.54999997E-02  -1.59466566E-07
  -1.54499998E-02  -1.63801332E-07
  -1.53999999E-02  -1.68231537E-07
  -1.53500000E-02  -1.72758163E-07
  -1.53000001E-02  -1.77382688E-07
  -1.52500002E-02  -1.82107357E-07
  -1.52000003E-02  -1.86935196E-07
  -1.51500003E-02  -1.91869404E-07
  -1.51000004E-02  -1.96912936E-07
  -1.50499996E-02  -2.02068179E-07
  -1.49999997E-02  -2.07337010E-07
  -1.49499997E-02  -2.12720963E-07
  -1.48999998E-02  -2.18221729E-07
  -1.48499999E-02  -2.23841553E-07
  -1.48000000E-02  -2.29583463E-07
  -1.47500001E-02  -2.35451282E-07
  -1.47000002E-02  -2.41449357E-07
  -1.46500003E-02  -2.47581823E-07
  -1.46000003E-02  -2.53852278E-07
  -1.45500004E-02  -2.60263818E-07
  -1.44999996E-02  -2.66818972E-07
  -1.44499997E-02  -2.73520442E-07
  -1.43999998E-02  -2.80371466E-07
  -1.43499998E-02  -2.87376025E-07
  -1.42999999E-02  -2.94538864E-07
  -1.42500000E-02  -3.01865271E-07
  -1.42000001E-02  -3.09360672E-07
  -1.41500002E-02  -3.17030185E-07
  -1.41000003E-02  -3.24878187E-07
  -1.40500003E-02  -3.32908570E-07
  -1.40000004E-02  -3.41125144E-07
  -1.39499996E-02  -3.49532229E-07
  -1.38999997E-02  -3.58135139E-07
  -1.38499998E-02  -3.66939986E-07
  -1.37999998E-02  -3.75953249E-07
  -1.37499999E-02  -3.85181465E-07
  -1.37000000E-02  -3.94630831E-07
  -1.36500001E-02  -4.04307258E-07
  -1.36000002E-02  -4.14216316E-07
  -1.35500003E-02  -4.24363037E-07
  -1.35000004E-02  -4.34752735E-07
  -1.34500004E-02  -4.45391464E-07
  -1.33999996E-02  -4.56286614E-07
  -1.33499997E-02  -4.67446171E-07
  -1.32999998E-02  -4.78878064E-07
  -1.32499998E-02  -4.90589684E-07
  -1.31999999E-02  -5.02587909E-07
  -1.31500000E-02  -5.14879218E-07
  -1.31000001E-02  -5.27470206E-07
  -1.30500002E-02  -5.40367864E-07
  -1.30000003E-02  -5.53579355E-07
  -1.29500004E-02  -5.67112750E-07
  -1.29000004E-02  -5.80977201E-07
  -1.28499996E-02  -5.95182144E-07
  -1.27999997E-02  -6.09736787E-07
  -1.27499998E-02  -6.24649147E-07
  -1.26999998E-02  -6.39926384E-07
  -1.26499999E-02  -6.55575889E-07
  -1.26000000E-02  -6.71605392E-07
  -1.25500001E-02  -6.88023420E-07
  -1.25000002E-02  -7.04838669E-07
  -1.24500003E-02  -7.22060861E-07
  -1.24000004E-02  -7.39700340E-07
  -1.23500004E-02  -7.57767737E-07
  -1.22999996E-02  -7.76272998E-07
  -1.22499997E-02  -7.95225333E-07
  -1.21999998E-02  -8.14633211E-07
  -1.21499998E-02  -8.34505556E-07
  -1.20999999E-02  -8.54852033E-07
  -1.20500000E-02  -8.75683043E-07
  -1.20000001E-02  -8.97009045E-07
  -1.19500002E-02  -9.18840385E-07
  -1.19000003E-02  -9.41187466E-07
  -1.18500004E-02  -9.64060746E-07
  -1.18000004E-02  -9.87470685E-07
  -1.17499996E-02  -1.01142689E-06
  -1.16999997E-02  -1.03593857E-06
  -1.16499998E-02  -1.06101629E-06
  -1.15999999E-02  -1.08667223E-06
  -1.15499999E-02  -1.11291990E-06
  -1.15000000E-02  -1.13977262E-06
  -1.14500001E-02  -1.16724300E-06
  -1.14000002E-02  -1.19534275E-06
  -1.13500003E-02  -1.22408380E-06
  -1.13000004E-02  -1.25347742E-06
  -1.12500004E-02  -1.28353417E-06
  -1.11999996E-02  -1.31426430E-06
  -1.11499997E-02  -1.34567881E-06
  -1.10999998E-02  -1.37778920E-06
  -1.10499999E-02  -1.41060923E-06
  -1.09999999E-02  -1.44415196E-06
  -1.09500000E-02  -1.47843093E-06
  -1.09000001E-02  -1.51345898E-06
  -1.08500002E-02  -1.54924930E-06
  -1.08000003E-02  -1.58581622E-06
  -1.07500004E-02  -1.62317508E-06
  -1.07000005E-02  -1.66134066E-06
  -1.06499996E-02  -1.70032854E-06
  -1.05999997E-02  -1.74015429E-06
  -1.05499998E-02  -1.78083258E-06
  -1.04999999E-02  -1.82237807E-06
  -1.04499999E-02  -1.86480395E-06
  -1.04000000E-02  -1.90812261E-06
  -1.03500001E-02  -1.95234679E-06
  -1.03000002E-02  -1.99748956E-06
  -1.02500003E-02  -2.04356479E-06
  -1.02000004E-02  -2.09058862E-06
  -1.01500005E-02  -2.13857811E-06
  -1.00999996E-02  -2.18755076E-06
  -1.00499997E-02  -2.23752318E-06
  -9.99999978E-03  -2.28851331E-06
  -9.94999986E-03  -2.34053891E-06
  -9.89999995E-03  -2.39361680E-06
  -9.85000003E-03  -2.44776402E-06
  -9.80000012E-03  -2.50299718E-06
  -9.75000020E-03  -2.55933401E-06
  -9.70000029E-03  -2.61679293E-06
  -9.65000037E-03  -2.67539190E-06
  -9.60000046E-03  -2.73514752E-06
  -9.54999961E-03  -2.79607571E-06
  -9.49999969E-03  -2.85819419E-06
  -9.44999978E-03  -2.92152026E-06
  -9.39999986E-03  -2.98607233E-06
  -9.34999995E-03  -3.05186836E-06
  -9.30000003E-03  -3.11892791E-06
  -9.25000012E-03  -3.18727052E-06
  -9.20000020E-03  -3.25691644E-06
  -9.15000029E-03  -3.32788682E-06
  -9.10000037E-03  -3.40020097E-06
  -9.05000046E-03  -3.47387663E-06
  -8.99999961E-03  -3.54893359E-06
  -8.94999970E-03  -3.62539208E-06
  -8.89999978E-03  -3.70327348E-06
  -8.84999987E-03  -3.78259892E-06
  -8.79999995E-03  -3.86339025E-06
  -8.75000004E-03  -3.94567041E-06
  -8.70000012E-03  -4.02946080E-06
  -8.65000021E-03  -4.11478459E-06
  -8.60000029E-03  -4.20166316E-06
  -8.55000038E-03  -4.29011698E-06
  -8.50000046E-03  -4.38016741E-06
  -8.44999962E-03  -4.47183493E-06
  -8.39999970E-03  -4.56514363E-06
  -8.34999979E-03  -4.66011807E-06
  -8.29999987E-03  -4.75678098E-06
  -8.24999996E-03  -4.85515511E-06
  -8.20000004E-03  -4.95526274E-06
  -8.15000013E-03  -5.05712705E-06
  -8.10000021E-03  -5.16077398E-06
  -8.05000030E-03  -5.26622898E-06
  -8.00000038E-03  -5.37351343E-06
  -7.95000046E-03  -5.48265234E-06
  -7.89999962E-03  -5.59367254E-06
  -7.84999970E-03  -5.70660222E-06
  -7.79999979E-03  -5.82146913E-06
  -7.74999987E-03  -5.93829691E-06
  -7.69999996E-03  -6.05711011E-06
  -7.65000004E-03  -6.17793557E-06
  -7.60000013E-03  -6.30080422E-06
  -7.55000021E-03  -6.42574423E-06
  -7.49999983E-03  -6.55278563E-06
  -7.44999992E-03  -6.68195571E-06
  -7.40000000E-03  -6.81328265E-06
  -7.35000009E-03  -6.94679738E-06
  -7.30000017E-03  -7.08253265E-06
  -7.24999979E-03  -7.22051618E-06
  -7.19999988E-03  -7.36077163E-06
  -7.14999996E-03  -7.50332811E-06
  -7.10000005E-03  -7.64821652E-06
  -7.05000013E-03  -7.79547190E-06
  -7.00000022E-03  -7.94512471E-06
  -6.94999984E-03  -8.09720677E-06
  -6.89999992E-03  -8.25174720E-06
  -6.85000001E-03  -8.40877874E-06
  -6.80000009E-03  -8.56834049E-06
  -6.75000018E-03  -8.73046793E-06
  -6.69999979E-03  -8.89519015E-06
  -6.64999988E-03  -9.06253808E-06
  -6.59999996E-03  -9.23254902E-06
  -6.55000005E-03  -9.40526570E-06
  -6.50000013E-03  -9.58072906E-06
  -6.45000022E-03  -9.75897274E-06
  -6.39999984E-03  -9.94002949E-06
  -6.34999992E-03  -1.01239339E-05
  -6.30000001E-03  -1.03107259E-05
  -6.25000009E-03  -1.05004492E-05
  -6.20000018E-03  -1.06931438E-05
  -6.14999980E-03  -1.08888444E-05
  -6.09999988E-03  -1.10875862E-05
  -6.04999997E-03  -1.12894149E-05
  -6.00000005E-03  -1.14943750E-05
  -5.95000014E-03  -1.17025047E-05
  -5.90000022E-03  -1.19138404E-05
  -5.84999984E-03  -1.21284183E-05
  -5.79999993E-03  -1.23462796E-05
  -5.75000001E-03  -1.25674733E-05
  -5.70000010E-03  -1.27920475E-05
  -5.65000018E-03  -1.30200415E-05
  -5.59999980E-03  -1.32514997E-05
  -5.54999989E-03  -1.34864677E-05
  -5.49999997E-03  -1.37249990E-05
  -5.45000006E-03  -1.39671411E-05
  -5.40000014E-03  -1.42129338E-05
  -5.35000023E-03  -1.44624137E-05
  -5.29999984E-03  -1.47156325E-05
  -5.24999993E-03  -1.49726420E-05
  -5.20000001E-03  -1.52334969E-05
  -5.15000010E-03  -1.54982481E-05
  -5.10000018E-03  -1.57669383E-05
  -5.04999980E-03  -1.60396139E-05
  -4.99999989E-03  -1.63163259E-05
  -4.94999997E-03  -1.65971251E-05
  -4.90000006E-03  -1.68820588E-05
  -4.85000014E-03  -1.71711727E-05
  -4.80000023E-03  -1.74645174E-05
  -4.74999985E-03  -1.77621441E-05
  -4.69999993E-03  -1.80641073E-05
  -4.65000002E-03  -1.83704669E-05
  -4.60000010E-03  -1.86812722E-05
  -4.55000019E-03  -1.89965722E-05
  -4.49999981E-03  -1.93164124E-05
  -4.44999989E-03  -1.96408510E-05
  -4.39999998E-03  -1.99699443E-05
  -4.35000006E-03  -2.03037562E-05
  -4.30000015E-03  -2.06423338E-05
  -4.25000023E-03  -2.09857390E-05
  -4.19999985E-03  -2.13340245E-05
  -4.14999994E-03  -2.16872559E-05
  -4.10000002E-03  -2.20454840E-05
  -4.05000011E-03  -2.24087671E-05
  -4.00000019E-03  -2.27771507E-05
  -3.94999981E-03  -2.31506856E-05
  -3.89999989E-03  -2.35294356E-05
  -3.84999998E-03  -2.39134606E-05
  -3.80000006E-03  -2.43028262E-05
  -3.74999992E-03  -2.46975924E-05
  -3.70000000E-03  -2.50978010E-05
  -3.65000009E-03  -2.55035156E-05
  -3.59999994E-03  -2.59147982E-05
  -3.55000002E-03  -2.63317070E-05
  -3.50000011E-03  -2.67542891E-05
  -3.44999996E-03  -2.71826102E-05
  -3.40000005E-03  -2.76167375E-05
  -3.34999990E-03  -2.80567365E-05
  -3.29999998E-03  -2.85026708E-05
  -3.25000007E-03  -2.89546042E-05
  -3.19999992E-03  -2.94125948E-05
  -3.15000000E-03  -2.98766936E-05
  -3.10000009E-03  -3.03469733E-05
  -3.04999994E-03  -3.08234958E-05
  -3.00000003E-03  -3.13063210E-05
  -2.95000011E-03  -3.17955128E-05
  -2.89999996E-03  -3.22911401E-05
  -2.85000005E-03  -3.27932721E-05
  -2.79999990E-03  -3.33019707E-05
  -2.74999999E-03  -3.38173049E-05
  -2.70000007E-03  -3.43393222E-05
  -2.64999992E-03  -3.48680769E-05
  -2.60000001E-03  -3.54036420E-05
  -2.55000009E-03  -3.59460828E-05
  -2.49999994E-03  -3.64954685E-05
  -2.45000003E-03  -3.70518719E-05
  -2.40000011E-03  -3.76153475E-05
  -2.34999997E-03  -3.81859827E-05
  -2.30000005E-03  -3.87638465E-05
  -2.24999990E-03  -3.93489972E-05
  -2.19999999E-03  -3.99414785E-05
  -2.15000007E-03  -4.05413521E-05
  -2.09999993E-03  -4.11486981E-05
  -2.05000001E-03  -4.17636002E-05
  -2.00000009E-03  -4.23861238E-05
  -1.94999995E-03  -4.30163418E-05
  -1.90000003E-03  -4.36543232E-05
  -1.85000000E-03  -4.43001409E-05
  -1.79999997E-03  -4.49538566E-05
  -1.75000005E-03  -4.56155394E-05
  -1.70000002E-03  -4.62852549E-05
  -1.64999999E-03  -4.69630540E-05
  -1.59999996E-03  -4.76490168E-05
  -1.55000004E-03  -4.83432377E-05
  -1.50000001E-03  -4.90457860E-05
  -1.44999998E-03  -4.97567271E-05
  -1.39999995E-03  -5.04761301E-05
  -1.35000004E-03  -5.12040533E-05
  -1.30000000E-03  -5.19405730E-05
  -1.24999997E-03  -5.26857584E-05
  -1.20000006E-03  -5.34396640E-05
  -1.15000003E-03  -5.42023736E-05
  -1.09999999E-03  -5.49739598E-05
  -1.04999996E-03  -5.57545136E-05
  -1.00000005E-03  -5.65441042E-05
  -9.50000016E-04  -5.73428006E-05
  -8.99999985E-04  -5.81506611E-05
  -8.50000011E-04  -5.89677729E-05
  -7.99999980E-04  -5.97941980E-05
  -7.50000007E-04  -6.06300055E-05
  -6.99999975E-04  -6.14752644E-05
  -6.50000002E-04  -6.23300512E-05
  -6.00000028E-04  -6.31944640E-05
  -5.49999997E-04  -6.40685757E-05
  -5.00000024E-04  -6.49524736E-05
  -4.49999992E-04  -6.58461868E-05
  -3.99999990E-04  -6.67497807E-05
  -3.49999988E-04  -6.76633426E-05
  -3.00000014E-04  -6.85869527E-05
  -2.50000012E-04  -6.95206618E-05
  -1.99999995E-04  -7.04645427E-05
  -1.50000007E-04  -7.14186681E-05
  -9.99999975E-05  -7.23831181E-05
  -4.99999987E-05  -7.33580018E-05
   0.00000000      -7.43433848E-05
   4.99999987E-05  -7.53392887E-05
   9.99999975E-05  -7.63457720E-05
   1.50000007E-04  -7.73629217E-05
   1.99999995E-04  -7.83908399E-05
   2.50000012E-04  -7.94296211E-05
   3.00000014E-04  -8.04793090E-05
   3.49999988E-04  -8.15399690E-05
   3.99999990E-04  -8.26116666E-05
   4.49999992E-04  -8.36945110E-05
   5.00000024E-04  -8.47885603E-05
   5.49999997E-04  -8.58938583E-05
   6.00000028E-04  -8.70104486E-05
   6.50000002E-04  -8.81384258E-05
   6.99999975E-04  -8.92778480E-05
   7.50000007E-04  -9.04288245E-05
   7.99999980E-04  -9.15914061E-05
   8.50000011E-04  -9.27656729E-05
   8.99999985E-04  -9.39516685E-05
   9.50000016E-04  -9.51494512E-05
   1.00000005E-03  -9.63590719E-05
   1.04999996E-03  -9.75805960E-05
   1.09999999E-03  -9.88140964E-05
   1.15000003E-03  -1.00059638E-04
   1.20000006E-03  -1.01317295E-04
   1.24999997E-03  -1.02587153E-04
   1.30000000E-03  -1.03869286E-04
   1.35000004E-03  -1.05163759E-04
   1.39999995E-03  -1.06470608E-04
   1.44999998E-03  -1.07789841E-04
   1.50000001E-03  -1.09121509E-04
   1.55000004E-03  -1.10465720E-04
   1.59999996E-03  -1.11822563E-04
   1.64999999E-03  -1.13192102E-04
   1.70000002E-03  -1.14574337E-04
   1.75000005E-03  -1.15969342E-04
   1.79999997E-03  -1.17377196E-04
   1.85000000E-03  -1.18797943E-04
   1.90000003E-03  -1.20231627E-04
   1.94999995E-03  -1.21678248E-04
   2.00000009E-03  -1.23137841E-04
   2.05000001E-03  -1.24610480E-04
   2.09999993E-03  -1.26096216E-04
   2.15000007E-03  -1.27595122E-04
   2.19999999E-03  -1.29107226E-04
   2.24999990E-03  -1.30632558E-04
   2.30000005E-03  -1.32171132E-04
   2.34999997E-03  -1.33722977E-04
   2.40000011E-03  -1.35288166E-04
   2.45000003E-03  -1.36866744E-04
   2.49999994E-03  -1.38458723E-04
   2.55000009E-03  -1.40064134E-04
   2.60000001E-03  -1.41682991E-04
   2.64999992E-03  -1.43315337E-04
   2.70000007E-03  -1.44961217E-04
   2.74999999E-03  -1.46620616E-04
   2.79999990E-03  -1.48293562E-04