  -3.99999991E-02   0.00000000    
  -3.99499983E-02   0.00000000    
  -3.99000011E-02   0.00000000    
  -3.98500003E-02   0.00000000    
  -3.97999994E-02   8.95112013E-21
  -3.97499986E-02   6.94384649E-20
  -3.97000015E-02   2.80238116E-19
  -3.96500006E-02   7.57983904E-19
  -3.95999998E-02   1.46058982E-18
  -3.95499989E-02   1.84789047E-18
  -3.95000018E-02   4.85616645E-19
  -3.94500010E-02  -5.16170339E-18
  -3.94000001E-02  -1.84701573E-17
  -3.93499993E-02  -4.28079963E-17
  -3.92999984E-02  -8.03167162E-17
  -3.92500013E-02  -1.30919451E-16
  -3.92000005E-02  -1.92348967E-16
  -3.91499996E-02  -2.61766162E-16
  -3.90999988E-02  -3.38827658E-16
  -3.90500017E-02  -4.29084868E-16
  -3.90000008E-02  -5.45892035E-16
  -3.89500000E-02  -7.09151018E-16
  -3.88999991E-02  -9.40462481E-16
  -3.88499983E-02  -1.25616892E-15
  -3.88000011E-02  -1.66141839E-15
  -3.87500003E-02  -2.14871062E-15
  -3.86999995E-02  -2.70291432E-15
  -3.86499986E-02  -3.31180967E-15
  -3.86000015E-02  -3.97799791E-15
  -3.85500006E-02  -4.72614400E-15
  -3.84999998E-02  -5.60032096E-15
  -3.84499989E-02  -6.65007261E-15
  -3.84000018E-02  -7.90937597E-15
  -3.83500010E-02  -9.37742383E-15
  -3.83000001E-02  -1.10111378E-14
  -3.82499993E-02  -1.27353403E-14
  -3.81999984E-02  -1.44686814E-14
  -3.81500013E-02  -1.61554221E-14
  -3.81000005E-02  -1.77889845E-14
  -3.80499996E-02  -1.94153419E-14
  -3.79999988E-02  -2.11123572E-14
  -3.79500017E-02  -2.29516384E-14
  -3.79000008E-02  -2.49580613E-14
  -3.78500000E-02  -2.70842851E-14
  -3.77999991E-02  -2.92120522E-14
  -3.77499983E-02  -3.11805398E-14
  -3.77000012E-02  -3.28297095E-14
  -3.76500003E-02  -3.40394352E-14
  -3.75999995E-02  -3.47470601E-14
  -3.75499986E-02  -3.49359993E-14
  -3.75000015E-02  -3.46010587E-14
  -3.74500006E-02  -3.37057313E-14
  -3.73999998E-02  -3.21489390E-14
  -3.73499990E-02  -2.97535231E-14
  -3.73000018E-02  -2.62800950E-14
  -3.72500010E-02  -2.14620378E-14
  -3.72000001E-02  -1.50527580E-14
  -3.71499993E-02  -6.87506743E-15
  -3.70999984E-02   3.13746742E-15
  -3.70500013E-02   1.49177664E-14
  -3.70000005E-02   2.82726215E-14
  -3.69499996E-02   4.29305774E-14
  -3.68999988E-02   5.86327929E-14
  -3.68500017E-02   7.52523993E-14
  -3.68000008E-02   9.29055078E-14
  -3.67500000E-02   1.12000727E-13
  -3.66999991E-02   1.33178733E-13
  -3.66499983E-02   1.57127526E-13
  -3.66000012E-02   1.84316118E-13
  -3.65500003E-02   2.14744482E-13
  -3.64999995E-02   2.47830538E-13
  -3.64499986E-02   2.82521077E-13
  -3.64000015E-02   3.17625483E-13
  -3.63500006E-02   3.52258939E-13
  -3.62999998E-02   3.86199482E-13
  -3.62499990E-02   4.19960480E-13
  -3.62000018E-02   4.54478523E-13
  -3.61500010E-02   4.90492575E-13
  -3.61000001E-02   5.27867843E-13
  -3.60499993E-02   5.65205814E-13
  -3.59999985E-02   6.00010655E-13
  -3.59500013E-02   6.29454767E-13
  -3.59000005E-02   6.51485376E-13
  -3.58499996E-02   6.65783672E-13
  -3.57999988E-02   6.74060308E-13
  -3.57500017E-02   6.79400871E-13
  -3.57000008E-02   6.84794994E-13
  -3.56500000E-02   6.91419469E-13
  -3.55999991E-02   6.97475118E-13
  -3.55499983E-02   6.98250485E-13
  -3.55000012E-02   6.87601994E-13
  -3.54500003E-02   6.60369220E-13
  -3.53999995E-02   6.14704251E-13
  -3.53499986E-02   5.53160165E-13
  -3.53000015E-02   4.81813320E-13
  -3.52500007E-02   4.07545119E-13
  -3.51999998E-02   3.34541070E-13
  -3.51499990E-02   2.61612780E-13
  -3.51000018E-02   1.81792691E-13
  -3.50500010E-02   8.47528021E-14
  -3.50000001E-02  -3.87011149E-14
  -3.49499993E-02  -1.91935958E-13
  -3.48999985E-02  -3.69846948E-13
  -3.48500013E-02  -5.59838851E-13
  -3.48000005E-02  -7.46472816E-13
  -3.47499996E-02  -9.18047214E-13
  -3.46999988E-02  -1.07221068E-12
  -3.46500017E-02  -1.21778965E-12
  -3.46000008E-02  -1.37147281E-12
  -3.45500000E-02  -1.55030687E-12
  -3.44999991E-02  -1.76309228E-12
  -3.44499983E-02  -2.00467551E-12
  -3.44000012E-02  -2.25621626E-12
  -3.43500003E-02  -2.49200031E-12
  -3.42999995E-02  -2.69027465E-12
  -3.42499986E-02  -2.84336595E-12
  -3.42000015E-02  -2.96211883E-12
  -3.41500007E-02  -3.07187674E-12
  -3.40999998E-02  -3.20096575E-12
  -3.40499990E-02  -3.36637250E-12
  -3.40000018E-02  -3.56318599E-12
  -3.39500010E-02  -3.76329133E-12
  -3.39000002E-02  -3.92498143E-12
  -3.38499993E-02  -4.01009824E-12
  -3.37999985E-02  -4.00135047E-12
  -3.37500013E-02  -3.91159674E-12
  -3.37000005E-02  -3.77985707E-12
  -3.36499996E-02  -3.65460440E-12
  -3.35999988E-02  -3.57099701E-12
  -3.35500017E-02  -3.53226801E-12
  -3.35000008E-02  -3.50453325E-12
  -3.34500000E-02  -3.42878699E-12
  -3.33999991E-02  -3.24606639E-12
  -3.33499983E-02  -2.92509333E-12
  -3.33000012E-02  -2.47951095E-12
  -3.32500003E-02  -1.96554188E-12
  -3.31999995E-02  -1.45933190E-12
  -3.31499986E-02  -1.02280066E-12
  -3.31000015E-02  -6.73088213E-13
  -3.30500007E-02  -3.70363950E-13
  -3.29999998E-02  -3.14250646E-14
  -3.29499990E-02   4.34989582E-13
  -3.29000019E-02   1.08584561E-12
  -3.28500010E-02   1.91368254E-12
  -3.28000002E-02   2.84387076E-12
  -3.27499993E-02   3.76281601E-12
  -3.26999985E-02   4.56641235E-12
  -3.26500013E-02   5.20765852E-12
  -3.26000005E-02   5.72102218E-12
  -3.25499997E-02   6.21030354E-12
  -3.24999988E-02   6.80283998E-12
  -3.24500017E-02   7.58895377E-12
  -3.24000008E-02   8.57397226E-12
  -3.23500000E-02   9.66635886E-12
  -3.22999991E-02   1.07103588E-11
  -3.22499983E-02   1.15513111E-11
  -3.22000012E-02   1.21055423E-11
  -3.21500003E-02   1.24024298E-11
  -3.20999995E-02   1.25768658E-11
  -3.20499986E-02   1.28118965E-11
  -3.20000015E-02   1.32546613E-11
  -3.19500007E-02   1.39428920E-11
  -3.18999998E-02   1.47770476E-11
  -3.18499990E-02   1.55542974E-11
  -3.18000019E-02   1.60528917E-11
  -3.17500010E-02   1.61310999E-11
  -3.17000002E-02   1.57956963E-11
  -3.16499993E-02   1.52059771E-11
  -3.15999985E-02   1.46071783E-11
  -3.15500014E-02   1.42195361E-11
  -3.15000005E-02   1.41317288E-11
  -3.14499997E-02   1.42486517E-11
  -3.13999988E-02   1.43214780E-11
  -3.13500017E-02   1.40514649E-11
  -3.13000008E-02   1.32241587E-11
  -3.12500000E-02   1.18136317E-11
  -3.11999992E-02   1.00064852E-11
  -3.11500002E-02   8.12937564E-12
  -3.10999993E-02   6.50757356E-12
  -3.10500003E-02   5.31573093E-12
  -3.09999995E-02   4.48942316E-12
  -3.09500005E-02   3.74203012E-12
  -3.08999997E-02   2.68546101E-12
  -3.08500007E-02   1.00505422E-12
  -3.07999998E-02  -1.38897043E-12
  -3.07500008E-02  -4.30482299E-12
  -3.07000000E-02  -7.33881012E-12
  -3.06499992E-02  -1.00463214E-11
  -3.06000002E-02  -1.21408222E-11
  -3.05499993E-02  -1.36304848E-11
  -3.05000003E-02  -1.48258437E-11
  -3.04499995E-02  -1.62077782E-11
  -3.04000005E-02  -1.82090037E-11
  -3.03499997E-02  -2.10052288E-11
  -3.03000007E-02  -2.44128034E-11
  -3.02499998E-02  -2.79459390E-11
  -3.02000009E-02  -3.10157941E-11
  -3.01500000E-02  -3.31874285E-11
  -3.00999992E-02  -3.43795513E-11
  -3.00500002E-02  -3.49122641E-11
  -2.99999993E-02  -3.53730968E-11
  -2.99500003E-02  -3.63536562E-11
  -2.98999995E-02  -3.81714695E-11
  -2.98500005E-02  -4.07040721E-11
  -2.97999997E-02  -4.34172281E-11
  -2.97500007E-02  -4.55839325E-11
  -2.96999998E-02  -4.66030166E-11
  -2.96500009E-02  -4.62760247E-11
  -2.96000000E-02  -4.49131496E-11
  -2.95499992E-02  -4.32113755E-11
  -2.95000002E-02  -4.19496833E-11
  -2.94499993E-02  -4.16322636E-11
  -2.94000003E-02  -4.22407005E-11
  -2.93499995E-02  -4.32138249E-11
  -2.93000005E-02  -4.36750670E-11
  -2.92499997E-02  -4.28148524E-11
  -2.92000007E-02  -4.02603922E-11
  -2.91499998E-02  -3.62633916E-11
  -2.91000009E-02  -3.16119630E-11
  -2.90500000E-02  -2.72948747E-11
  -2.89999992E-02  -2.40607621E-11
  -2.89500002E-02  -2.20689769E-11
  -2.88999993E-02  -2.07954938E-11
  -2.88500004E-02  -1.92476226E-11
  -2.87999995E-02  -1.64026015E-11
  -2.87500005E-02  -1.16792392E-11
  -2.86999997E-02  -5.22872240E-12
  -2.86500007E-02   2.09578362E-12
  -2.85999998E-02   9.09029189E-12
  -2.85500009E-02   1.47251569E-11
  -2.85000000E-02   1.86120980E-11
  -2.84499992E-02   2.11979930E-11
  -2.84000002E-02   2.35861608E-11
  -2.83499993E-02   2.70514843E-11
  -2.83000004E-02   3.24578663E-11
  -2.82499995E-02   3.98390938E-11
  -2.82000005E-02   4.83400646E-11
  -2.81499997E-02   5.65591081E-11
  -2.81000007E-02   6.31511371E-11
  -2.80499998E-02   6.74275566E-11
  -2.80000009E-02   6.96801228E-11
  -2.79500000E-02   7.10713641E-11
  -2.78999992E-02   7.31252697E-11
  -2.78500002E-02   7.70347119E-11
  -2.77999993E-02   8.30936292E-11
  -2.77500004E-02   9.05165179E-11
  -2.76999995E-02   9.77416134E-11
  -2.76500005E-02   1.03098079E-10
  -2.75999997E-02   1.05547952E-10
  -2.75500007E-02   1.05169276E-10
  -2.74999999E-02   1.03152147E-10
  -2.74500009E-02   1.01292058E-10
  -2.74000000E-02   1.01192305E-10
  -2.73499992E-02   1.03526153E-10
  -2.73000002E-02   1.07694839E-10
  -2.72499993E-02   1.12049488E-10
  -2.72000004E-02   1.14595701E-10
  -2.71499995E-02   1.13878323E-10
  -2.71000005E-02   1.09652044E-10
  -2.70499997E-02   1.03027663E-10
  -2.70000007E-02   9.60104773E-11
  -2.69499999E-02   9.06196923E-11
  -2.69000009E-02   8.79733369E-11
  -2.68500000E-02   8.77515421E-11
  -2.67999992E-02   8.82930604E-11
  -2.67500002E-02   8.73021030E-11
  -2.66999993E-02   8.28657490E-11
  -2.66500004E-02   7.43324013E-11
  -2.65999995E-02   6.26500379E-11
  -2.65500005E-02   4.99945849E-11
  -2.64999997E-02   3.88337522E-11
  -2.64500007E-02   3.08312889E-11
  -2.63999999E-02   2.60810679E-11
  -2.63500009E-02   2.30266830E-11
  -2.63000000E-02   1.91236575E-11
  -2.62499992E-02   1.19680706E-11
  -2.62000002E-02   3.96500053E-13
  -2.61499994E-02  -1.49397422E-11
  -2.61000004E-02  -3.18009195E-11
  -2.60499995E-02  -4.73076370E-11
  -2.60000005E-02  -5.92057584E-11
  -2.59499997E-02  -6.68866629E-11
  -2.59000007E-02  -7.16956078E-11
  -2.58499999E-02  -7.63682659E-11
  -2.58000009E-02  -8.38237674E-11
  -2.57500000E-02  -9.58392324E-11
  -2.56999992E-02  -1.12199153E-10
  -2.56500002E-02  -1.30716590E-10
  -2.55999994E-02  -1.48141291E-10
  -2.55500004E-02  -1.61571714E-10
  -2.54999995E-02  -1.69749395E-10
  -2.54500005E-02  -1.73650372E-10
  -2.53999997E-02  -1.76088213E-10
  -2.53500007E-02  -1.80480172E-10
  -2.52999999E-02  -1.89308791E-10
  -2.52500009E-02  -2.02963105E-10
  -2.52000000E-02  -2.19491036E-10
  -2.51499992E-02  -2.35398950E-10
  -2.51000002E-02  -2.47167148E-10
  -2.50499994E-02  -2.52818128E-10
  -2.50000004E-02  -2.52834476E-10
  -2.49499995E-02  -2.49994886E-10
  -2.49000005E-02  -2.48174481E-10
  -2.48499997E-02  -2.50620524E-10
  -2.48000007E-02  -2.58465027E-10
  -2.47499999E-02  -2.70149320E-10
  -2.47000009E-02  -2.82042001E-10
  -2.46500000E-02  -2.90003688E-10
  -2.45999992E-02  -2.91218966E-10
  -2.45500002E-02  -2.85479529E-10
  -2.44999994E-02  -2.75327317E-10
  -2.44500004E-02  -2.64966216E-10
  -2.43999995E-02  -2.58399718E-10
  -2.43500005E-02  -2.57613625E-10
  -2.42999997E-02  -2.61621336E-10
  -2.42500007E-02  -2.66822564E-10
  -2.41999999E-02  -2.68546602E-10
  -2.41500009E-02  -2.63115529E-10
  -2.41000000E-02  -2.49512494E-10
  -2.40499992E-02  -2.29895797E-10
  -2.40000002E-02  -2.08699183E-10
  -2.39499994E-02  -1.90688479E-10
  -2.39000004E-02  -1.78822249E-10
  -2.38499995E-02  -1.72872328E-10
  -2.38000005E-02  -1.69442085E-10
  -2.37499997E-02  -1.63406608E-10
  -2.37000007E-02  -1.50161120E-10
  -2.36499999E-02  -1.27687236E-10
  -2.36000009E-02  -9.75047820E-11
  -2.35500000E-02  -6.40569195E-11
  -2.34999992E-02  -3.27696689E-11
  -2.34500002E-02  -7.62763030E-12
  -2.33999994E-02   1.06555971E-11
  -2.33500004E-02   2.50374062E-11
  -2.32999995E-02   4.09049634E-11
  -2.32500006E-02   6.37141243E-11
  -2.31999997E-02   9.65442795E-11
  -2.31500007E-02   1.38665357E-10
  -2.30999999E-02   1.85782348E-10
  -2.30500009E-02   2.31883526E-10
  -2.30000000E-02   2.71896616E-10
  -2.29499992E-02   3.03977232E-10
  -2.29000002E-02   3.30394490E-10
  -2.28499994E-02   3.56586372E-10
  -2.28000004E-02   3.88771210E-10
  -2.27499995E-02   4.31158026E-10
  -2.27000006E-02   4.83999563E-10
  -2.26499997E-02   5.43378842E-10
  -2.26000007E-02   6.02859429E-10
  -2.25499999E-02   6.56294574E-10
  -2.25000009E-02   7.00555725E-10
  -2.24500000E-02   7.36953665E-10
  -2.23999992E-02   7.70686071E-10
  -2.23500002E-02   8.08522749E-10
  -2.22999994E-02   8.55731486E-10
  -2.22500004E-02   9.13612686E-10
  -2.21999995E-02   9.78758852E-10
  -2.21500006E-02   1.04440701E-09
  -2.20999997E-02   1.10331411E-09
  -2.20500007E-02   1.15089460E-09
  -2.19999999E-02   1.18721477E-09
  -2.19500009E-02   1.21692834E-09
  -2.19000001E-02   1.24714628E-09
  -2.18499992E-02   1.28415756E-09
  -2.18000002E-02   1.33045575E-09
  -2.17499994E-02   1.38340961E-09
  -2.17000004E-02   1.43620515E-09
  -2.16499995E-02   1.48067314E-09
  -2.16000006E-02   1.51076696E-09
  -2.15499997E-02   1.52513890E-09
  -2.15000007E-02   1.52764179E-09
  -2.14499999E-02   1.52549728E-09
  -2.14000009E-02   1.52591317E-09
  -2.13500001E-02   1.53264235E-09
  -2.12999992E-02   1.54402957E-09
  -2.12500002E-02   1.55344471E-09
  -2.11999994E-02   1.55194768E-09
  -2.11500004E-02   1.53202451E-09
  -2.10999995E-02   1.49073454E-09
  -2.10500006E-02   1.43084711E-09
  -2.09999997E-02   1.35942824E-09
  -2.09500007E-02   1.28447453E-09
  -2.08999999E-02   1.21107624E-09
  -2.08500009E-02   1.13882737E-09
  -2.08000001E-02   1.06166298E-09
  -2.07499992E-02   9.70233005E-10
  -2.07000002E-02   8.55782112E-10
  -2.06499994E-02   7.13814896E-10
  -2.06000004E-02   5.45897605E-10
  -2.05499995E-02   3.58760022E-10
  -2.05000006E-02   1.61064967E-10
  -2.04499997E-02  -4.07365912E-11
  -2.04000007E-02  -2.45615056E-10
  -2.03499999E-02  -4.58781707E-10
  -2.03000009E-02  -6.89717949E-10
  -2.02500001E-02  -9.48260914E-10
  -2.01999992E-02  -1.24047717E-09
  -2.01500002E-02  -1.56617197E-09
  -2.00999994E-02  -1.91917127E-09
  -2.00500004E-02  -2.29028485E-09
  -1.99999996E-02  -2.67164868E-09
  -1.99500006E-02  -3.06051562E-09
  -1.98999997E-02  -3.46078455E-09
  -1.98500007E-02  -3.88155375E-09
  -1.97999999E-02  -4.33331548E-09
  -1.97500009E-02  -4.82347362E-09
  -1.97000001E-02  -5.35318589E-09
  -1.96499992E-02  -5.91697136E-09
  -1.96000002E-02  -6.50528031E-09
  -1.95499994E-02  -7.10891523E-09
  -1.95000004E-02  -7.72332864E-09
  -1.94499996E-02  -8.35087732E-09
  -1.94000006E-02  -8.99999009E-09
  -1.93499997E-02  -9.68159686E-09
  -1.93000007E-02  -1.04043956E-08
  -1.92499999E-02  -1.11710587E-08
  -1.92000009E-02  -1.19771073E-08
  -1.91500001E-02  -1.28129622E-08
  -1.90999992E-02  -1.36683047E-08
  -1.90500002E-02  -1.45367807E-08
  -1.89999994E-02  -1.54189692E-08
  -1.89500004E-02  -1.63222484E-08
  -1.88999996E-02  -1.72575980E-08
  -1.88500006E-02  -1.82347595E-08
  -1.87999997E-02  -1.92578913E-08
  -1.87500007E-02  -2.03237001E-08
  -1.86999999E-02  -2.14229043E-08
  -1.86500009E-02  -2.25443788E-08
  -1.86000001E-02  -2.36801743E-08
  -1.85499992E-02  -2.48291485E-08
  -1.85000002E-02  -2.59975685E-08
  -1.84499994E-02  -2.71963980E-08
  -1.84000004E-02  -2.84364674E-08
  -1.83499996E-02  -2.97236635E-08
  -1.83000006E-02  -3.10563237E-08
  -1.82499997E-02  -3.24259979E-08
  -1.82000007E-02  -3.38212871E-08
  -1.81499999E-02  -3.52330041E-08
  -1.81000009E-02  -3.66584167E-08
  -1.80500001E-02  -3.81026197E-08
  -1.79999992E-02  -3.95763955E-08
  -1.79500002E-02  -4.10915604E-08
  -1.78999994E-02  -4.26558024E-08
  -1.78500004E-02  -4.42693810E-08
  -1.77999996E-02  -4.59251659E-08
  -1.77500006E-02  -4.76119979E-08
  -1.76999997E-02  -4.93199330E-08
  -1.76500008E-02  -5.10449603E-08
  -1.75999999E-02  -5.27911439E-08
  -1.75500009E-02  -5.45691528E-08
  -1.75000001E-02  -5.63918903E-08
  -1.74499992E-02  -5.82690980E-08
  -1.74000002E-02  -6.02034120E-08
  -1.73499994E-02  -6.21896419E-08
  -1.73000004E-02  -6.42175593E-08
  -1.72499996E-02  -6.62770390E-08
  -1.72000006E-02  -6.83631427E-08
  -1.71499997E-02  -7.04789898E-08
  -1.71000008E-02  -7.26349967E-08
  -1.70499999E-02  -7.48448983E-08
  -1.70000009E-02  -7.71203261E-08
  -1.69500001E-02  -7.94662895E-08
  -1.68999992E-02  -8.18797048E-08
  -1.68500002E-02  -8.43515906E-08
  -1.67999994E-02  -8.68719425E-08
  -1.67500004E-02  -8.94351260E-08
  -1.66999996E-02  -9.20433934E-08
  -1.66500006E-02  -9.47068486E-08
  -1.65999997E-02  -9.74400152E-08
  -1.65500008E-02  -1.00256386E-07
  -1.64999999E-02  -1.03163536E-07
  -1.64500009E-02  -1.06160847E-07
  -1.64000001E-02  -1.09241050E-07
  -1.63499992E-02  -1.12394730E-07
  -1.63000003E-02  -1.15615848E-07
  -1.62499994E-02  -1.18905831E-07
  -1.62000004E-02  -1.22274301E-07
  -1.61499996E-02  -1.25736165E-07
  -1.61000006E-02  -1.29306358E-07
  -1.60499997E-02  -1.32994643E-07
  -1.60000008E-02  -1.36802669E-07
  -1.59499999E-02  -1.40724865E-07
  -1.59000009E-02  -1.44752505E-07
  -1.58500001E-02  -1.48879195E-07
  -1.57999992E-02  -1.53105461E-07
  -1.57500003E-02  -1.57440184E-07
  -1.56999994E-02  -1.61898384E-07
  -1.56500004E-02  -1.66496164E-07
  -1.55999996E-02  -1.71245375E-07
  -1.55499997E-02  -1.76150067E-07
  -1.54999997E-02  -1.81206573E-07
  -1.54499998E-02  -1.86407064E-07
  -1.53999999E-02  -1.91744988E-07
  -1.53500000E-02  -1.97220018E-07
  -1.53000001E-02  -2.02840070E-07
  -1.52500002E-02  -2.08619738E-07
  -1.52000003E-02  -2.14575707E-07
  -1.51500003E-02  -2.20721248E-07
  -1.51000004E-02  -2.27062316E-07
  -1.50499996E-02  -2.33596893E-07
  -1.49999997E-02  -2.40318059E-07
  -1.49499997E-02  -2.47219077E-07
  -1.48999998E-02  -2.54298754E-07
  -1.48499999E-02  -2.61563969E-07
  -1.48000000E-02  -2.69028732E-07
  -1.47500001E-02  -2.76710239E-07
  -1.47000002E-02  -2.84623098E-07
  -1.46500003E-02  -2.92775240E-07
  -1.46000003E-02  -3.01166608E-07
  -1.45500004E-02  -3.09791432E-07
  -1.44999996E-02  -3.18643316E-07
  -1.44499997E-02  -3.27720386E-07
  -1.43999998E-02  -3.37028638E-07
  -1.43499998E-02  -3.46581572E-07
  -1.42999999E-02  -3.56396441E-07
  -1.42500000E-02  -3.66489076E-07
  -1.42000001E-02  -3.76869139E-07
  -1.41500002E-02  -3.87538421E-07
  -1.41000003E-02  -3.98492574E-07
  -1.40500003E-02  -4.09725686E-07
  -1.40000004E-02  -4.21235711E-07
  -1.39499996E-02  -4.33028049E-07
  -1.38999997E-02  -4.45115774E-07
  -1.38499998E-02  -4.57516535E-07
  -1.37999998E-02  -4.70247613E-07
  -1.37499999E-02  -4.83320719E-07
  -1.37000000E-02  -4.96740029E-07
  -1.36500001E-02  -5.10503412E-07
  -1.36000002E-02  -5.24606207E-07
  -1.35500003E-02  -5.39047164E-07
  -1.35000004E-02  -5.53831740E-07
  -1.34500004E-02  -5.68973121E-07
  -1.33999996E-02  -5.84489783E-07
  -1.33499997E-02  -6.00400256E-07
  -1.32999998E-02  -6.16718694E-07
  -1.32499998E-02  -6.33452032E-07
  -1.31999999E-02  -6.50600555E-07
  -1.31500000E-02  -6.68161874E-07
  -1.31000001E-02  -6.86135706E-07
  -1.30500002E-02  -7.04528247E-07
  -1.30000003E-02  -7.23353367E-07
  -1.29500004E-02  -7.42630618E-07
  -1.29000004E-02  -7.62380807E-07
  -1.28499996E-02  -7.82620873E-07
  -1.27999997E-02  -8.03360933E-07
  -1.27499998E-02  -8.24604797E-07
  -1.26999998E-02  -8.46352691E-07
  -1.26499999E-02  -8.68606662E-07
  -1.26000000E-02  -8.91374498E-07
  -1.25500001E-02  -9.14671546E-07
  -1.25000002E-02  -9.38519065E-07
  -1.24500003E-02  -9.62940135E-07
  -1.24000004E-02  -9.87954877E-07
  -1.23500004E-02  -1.01357693E-06
  -1.22999996E-02  -1.03981336E-06
  -1.22499997E-02  -1.06666801E-06
  -1.21999998E-02  -1.09414520E-06
  -1.21499998E-02  -1.12225450E-06
  -1.20999999E-02  -1.15101318E-06
  -1.20500000E-02  -1.18044397E-06
  -1.20000001E-02  -1.21057235E-06
  -1.19500002E-02  -1.24142161E-06
  -1.19000003E-02  -1.27300905E-06
  -1.18500004E-02  -1.30534613E-06
  -1.18000004E-02  -1.33844026E-06
  -1.17499996E-02  -1.37229938E-06
  -1.16999997E-02  -1.40693555E-06
  -1.16499998E-02  -1.44236833E-06
  -1.15999999E-02  -1.47862340E-06
  -1.15499999E-02  -1.51572885E-06
  -1.15000000E-02  -1.55371129E-06
  -1.14500001E-02  -1.59259196E-06
  -1.14000002E-02  -1.63238610E-06
  -1.13500003E-02  -1.67310441E-06
  -1.13000004E-02  -1.71475756E-06
  -1.12500004E-02  -1.75736079E-06
  -1.11999996E-02  -1.80093525E-06
  -1.11499997E-02  -1.84550868E-06
  -1.10999998E-02  -1.89111176E-06
  -1.10499999E-02  -1.93777419E-06
  -1.09999999E-02  -1.98552129E-06
  -1.09500000E-02  -2.03437230E-06
  -1.09000001E-02  -2.08434199E-06
  -1.08500002E-02  -2.13544490E-06
  -1.08000003E-02  -2.18769947E-06
  -1.07500004E-02  -2.24113023E-06
  -1.07000005E-02  -2.29576722E-06
  -1.06499996E-02  -2.35164430E-06
  -1.05999997E-02  -2.40879399E-06
  -1.05499998E-02  -2.46724517E-06
  -1.04999999E-02  -2.52702125E-06
  -1.04499999E-02  -2.58814066E-06
  -1.04000000E-02  -2.65062113E-06
  -1.03500001E-02  -2.71448357E-06
  -1.03000002E-02  -2.77975460E-06
  -1.02500003E-02  -2.84646626E-06
  -1.02000004E-02  -2.91465494E-06
  -1.01500005E-02  -2.98435612E-06
  -1.00999996E-02  -3.05560184E-06
  -1.00499997E-02  -3.12841917E-06
  -9.99999978E-03  -3.20283061E-06
  -9.94999986E-03  -3.27885778E-06
  -9.89999995E-03  -3.35652499E-06
  -9.85000003E-03  -3.43586203E-06
  -9.80000012E-03  -3.51690460E-06
  -9.75000020E-03  -3.59969204E-06
  -9.70000029E-03  -3.68426299E-06
  -9.65000037E-03  -3.77065385E-06
  -9.60000046E-03  -3.85889462E-06
  -9.54999961E-03  -3.94901326E-06
  -9.49999969E-03  -4.04103548E-06
  -9.44999978E-03  -4.13498992E-06
  -9.39999986E-03  -4.23091024E-06
  -9.34999995E-03  -4.32883371E-06
  -9.30000003E-03  -4.42880219E-06
  -9.25000012E-03  -4.53085750E-06
  -9.20000020E-03  -4.63503829E-06
  -9.15000029E-03  -4.74137960E-06
  -9.10000037E-03  -4.84991324E-06
  -9.05000046E-03  -4.96066923E-06
  -8.99999961E-03  -5.07367940E-06
  -8.94999970E-03  -5.18898014E-06
  -8.89999978E-03  -5.30661373E-06
  -8.84999987E-03  -5.42662565E-06
  -8.79999995E-03  -5.54905955E-06
  -8.75000004E-03  -5.67395909E-06
  -8.70000012E-03  -5.80136339E-06
  -8.65000021E-03  -5.93130926E-06
  -8.60000029E-03  -6.06383219E-06
  -8.55000038E-03  -6.19896900E-06
  -8.50000046E-03  -6.33676063E-06
  -8.44999962E-03  -6.47725346E-06
  -8.39999970E-03  -6.62049524E-06
  -8.34999979E-03  -6.76653508E-06
  -8.29999987E-03  -6.91541891E-06
  -8.24999996E-03  -7.06719175E-06
  -8.20000004E-03  -7.22189407E-06
  -8.15000013E-03  -7.37956589E-06
  -8.10000021E-03  -7.54024995E-06
  -8.05000030E-03  -7.70399038E-06
  -8.00000038E-03  -7.87083809E-06
  -7.95000046E-03  -8.04084448E-06
  -7.89999962E-03  -8.21405865E-06
  -7.84999970E-03  -8.39053428E-06
  -7.79999979E-03  -8.57031500E-06
  -7.74999987E-03  -8.75344813E-06
  -7.69999996E-03  -8.93997731E-06
  -7.65000004E-03  -9.12994892E-06
  -7.60000013E-03  -9.32341300E-06
  -7.55000021E-03  -9.52042046E-06
  -7.49999983E-03  -9.72102680E-06
  -7.44999992E-03  -9.92528840E-06
  -7.40000000E-03  -1.01332562E-05
  -7.35000009E-03  -1.03449811E-05
  -7.30000017E-03  -1.05605113E-05
  -7.24999979E-03  -1.07798969E-05
  -7.19999988E-03  -1.10031888E-05
  -7.14999996E-03  -1.12304415E-05
  -7.10000005E-03  -1.14617105E-05
  -7.05000013E-03  -1.16970550E-05
  -7.00000022E-03  -1.19365332E-05
  -6.94999984E-03  -1.21801977E-05
  -6.89999992E-03  -1.24281032E-05
  -6.85000001E-03  -1.26803006E-05
  -6.80000009E-03  -1.29368409E-05
  -6.75000018E-03  -1.31977777E-05
  -6.69999979E-03  -1.34631709E-05
  -6.64999988E-03  -1.37330771E-05
  -6.59999996E-03  -1.40075545E-05
  -6.55000005E-03  -1.42866629E-05
  -6.50000013E-03  -1.45704589E-05
  -6.45000022E-03  -1.48589925E-05
  -6.39999984E-03  -1.51523182E-05
  -6.34999992E-03  -1.54504905E-05
  -6.30000001E-03  -1.57535669E-05
  -6.25000009E-03  -1.60616091E-05
  -6.20000018E-03  -1.63746754E-05
  -6.14999980E-03  -1.66928294E-05
  -6.09999988E-03  -1.70161311E-05
  -6.04999997E-03  -1.73446333E-05
  -6.00000005E-03  -1.76783960E-05
  -5.95000014E-03  -1.80174648E-05
  -5.90000022E-03  -1.83619031E-05
  -5.84999984E-03  -1.87117657E-05
  -5.79999993E-03  -1.90671217E-05
  -5.75000001E-03  -1.94280274E-05
  -5.70000010E-03  -1.97945465E-05
  -5.65000018E-03  -2.01667390E-05
  -5.59999980E-03  -2.05446540E-05
  -5.54999989E-03  -2.09283480E-05
  -5.49999997E-03  -2.13178719E-05
  -5.45000006E-03  -2.17132765E-05
  -5.40000014E-03  -2.21146256E-05
  -5.35000023E-03  -2.25219792E-05
  -5.29999984E-03  -2.29354027E-05
  -5.24999993E-03  -2.33549581E-05
  -5.20000001E-03  -2.37807053E-05
  -5.15000010E-03  -2.42126953E-05
  -5.10000018E-03  -2.46509790E-05
  -5.04999980E-03  -2.50956000E-05
  -4.99999989E-03  -2.55466093E-05
  -4.94999997E-03  -2.60040706E-05
  -4.90000006E-03  -2.64680475E-05
  -4.85000014E-03  -2.69386092E-05
  -4.80000023E-03  -2.74158174E-05
  -4.74999985E-03  -2.78997304E-05
  -4.69999993E-03  -2.83903973E-05
  -4.65000002E-03  -2.88878564E-05
  -4.60000010E-03  -2.93921494E-05
  -4.55000019E-03  -2.99033218E-05
  -4.49999981E-03  -3.04214300E-05
  -4.44999989E-03  -3.09465286E-05
  -4.39999998E-03  -3.14786921E-05
  -4.35000006E-03  -3.20179788E-05
  -4.30000015E-03  -3.25644505E-05
  -4.25000023E-03  -3.31181436E-05
  -4.19999985E-03  -3.36790908E-05
  -4.14999994E-03  -3.42473286E-05
  -4.10000002E-03  -3.48228859E-05
  -4.05000011E-03  -3.54058175E-05
  -4.00000019E-03  -3.59961778E-05
  -3.94999981E-03  -3.65940359E-05
  -3.89999989E-03  -3.71994574E-05
  -3.84999998E-03  -3.78124896E-05
  -3.80000006E-03  -3.84331688E-05
  -3.74999992E-03  -3.90615241E-05
  -3.70000000E-03  -3.96975665E-05
  -3.65000009E-03  -4.03413251E-05
  -3.59999994E-03  -4.09928289E-05
  -3.55000002E-03  -4.16521325E-05
  -3.50000011E-03  -4.23192978E-05
  -3.44999996E-03  -4.29943902E-05
  -3.40000005E-03  -4.36774426E-05
  -3.34999990E-03  -4.43684912E-05
  -3.29999998E-03  -4.50675325E-05
  -3.25000007E-03  -4.57745737E-05
  -3.19999992E-03  -4.64896184E-05
  -3.15000000E-03  -4.72126922E-05
  -3.10000009E-03  -4.79438313E-05
  -3.04999994E-03  -4.86830941E-05
  -3.00000003E-03  -4.94305204E-05
  -2.95000011E-03  -5.01861468E-05
  -2.89999996E-03  -5.09499841E-05
  -2.85000005E-03  -5.17220287E-05
  -2.79999990E-03  -5.25022551E-05
  -2.74999999E-03  -5.32906488E-05
  -2.70000007E-03  -5.40872097E-05
  -2.64999992E-03  -5.48919561E-05
  -2.60000001E-03  -5.57049316E-05
  -2.55000009E-03  -5.65261653E-05
  -2.49999994E-03  -5.73556936E-05
  -2.45000003E-03  -5.81935055E-05
  -2.40000011E-03  -5.90395794E-05
  -2.34999997E-03  -5.98938605E-05
  -2.30000005E-03  -6.07563088E-05
  -2.24999990E-03  -6.16268881E-05
  -2.19999999E-03  -6.25055982E-05
  -2.15000007E-03  -6.33924501E-05
  -2.09999993E-03  -6.42874584E-05
  -2.05000001E-03  -6.51906594E-05
  -2.00000009E-03  -6.61020094E-05
  -1.94999995E-03  -6.70214649E-05
  -1.90000003E-03  -6.79489385E-05
  -1.85000000E-03  -6.88843502E-05
  -1.79999997E-03  -6.98276344E-05
  -1.75000005E-03  -7.07787476E-05
  -1.70000002E-03  -7.17376897E-05
  -1.64999999E-03  -7.27044535E-05
  -1.59999996E-03  -7.36790244E-05
  -1.55000004E-03  -7.46613805E-05
  -1.50000001E-03  -7.56514200E-05
  -1.44999998E-03  -7.66490411E-05
  -1.39999995E-03  -7.76541056E-05
  -1.35000004E-03  -7.86665114E-05
  -1.30000000E-03  -7.96861932E-05
  -1.24999997E-03  -8.07130928E-05
  -1.20000006E-03  -8.17472028E-05
  -1.15000003E-03  -8.27884869E-05
  -1.09999999E-03  -8.38368724E-05
  -1.04999996E-03  -8.48922355E-05
  -1.00000005E-03  -8.59544089E-05
  -9.50000016E-04  -8.70232398E-05
  -8.99999985E-04  -8.80985681E-05
  -8.50000011E-04  -8.91802702E-05
  -7.99999980E-04  -9.02682732E-05
  -7.50000007E-04  -9.13624972E-05
  -6.99999975E-04  -9.24628985E-05
  -6.50000002E-04  -9.35693533E-05
  -6.00000028E-04  -9.46817236E-05
  -5.49999997E-04  -9.57998127E-05
  -5.00000024E-04  -9.69233879E-05
  -4.49999992E-04  -9.80522600E-05
  -3.99999990E-04  -9.91862471E-05
  -3.49999988E-04  -1.00325211E-04
  -3.00000014E-04  -1.01469050E-04
  -2.50000012E-04  -1.02617676E-04
  -1.99999995E-04  -1.03770944E-04
  -1.50000007E-04  -1.04928695E-04
  -9.99999975E-05  -1.06090665E-04
  -4.99999987E-05  -1.07256579E-04
   0.00000000      -1.08426182E-04
   4.99999987E-05  -1.09599212E-04
   9.99999975E-05  -1.10775502E-04
   1.50000007E-04  -1.11954883E-04
   1.99999995E-04  -1.13137219E-04
   2.50000012E-04  -1.14322356E-04
   3.00000014E-04  -1.15510069E-04
   3.49999988E-04  -1.16700074E-04
   3.99999990E-04  -1.17892036E-04
   4.49999992E-04  -1.19085606E-04
   5.00000024E-04  -1.20280478E-04
   5.49999997E-04  -1.21476391E-04
   6.00000028E-04  -1.22673111E-04
   6.50000002E-04  -1.23870501E-04
   6.99999975E-04  -1.25068342E-04
   7.50000007E-04  -1.26266372E-04
   7.99999980E-04  -1.27464285E-04
   8.50000011E-04  -1.28661646E-04
   8.99999985E-04  -1.29858076E-04
   9.50000016E-04  -1.31053152E-04
   1.00000005E-03  -1.32246569E-04
   1.04999996E-03  -1.33438050E-04
   1.09999999E-03  -1.34627364E-04
   1.15000003E-03  -1.35814276E-04
   1.20000006E-03  -1.36998482E-04
   1.24999997E-03  -1.38179632E-04
   1.30000000E-03  -1.39357217E-04
   1.35000004E-03  -1.40530756E-04
   1.39999995E-03  -1.41699798E-04
   1.44999998E-03  -1.42863908E-04
   1.50000001E-03  -1.44022750E-04
   1.55000004E-03  -1.45176076E-04
   1.59999996E-03  -1.46323553E-04
   1.64999999E-03  -1.47464874E-04
   1.70000002E-03  -1.48599560E-04
   1.75000005E-03  -1.49727101E-04
   1.79999997E-03  -1.50846972E-04
   1.85000000E-03  -1.51958622E-04
   1.90000003E-03  -1.53061512E-04
   1.94999995E-03  -1.54155277E-04
   2.00000009E-03  -1.55239526E-04
   2.05000001E-03  -1.56313879E-04
   2.09999993E-03  -1.57377988E-04
   2.15000007E-03  -1.58431358E-04
   2.19999999E-03  -1.59473464E-04
   2.24999990E-03  -1.60503652E-04
   2.30000005E-03  -1.61521282E-04
   2.34999997E-03  -1.62525757E-04
   2.40000011E-03  -1.63516597E-04
   2.45000003E-03  -1.64493336E-04
   2.49999994E-03  -1.65455596E-04
   2.55000009E-03  -1.66402941E-04
   2.60000001E-03  -1.67334816E-04
   2.64999992E-03  -1.68250670E-04
   2.70000007E-03  -1.69149789E-04
   2.74999999E-03  -1.70031431E-04
   2.79999990E-03  -1.70894913E-04