  -3.99999991E-02   0.00000000    
  -3.99499983E-02   0.00000000    
  -3.99000011E-02   0.00000000    
  -3.98500003E-02   0.00000000    
  -3.97999994E-02  -4.51800677E-23
  -3.97499986E-02  -2.00631650E-22
  -3.97000015E-02  -9.03863825E-23
  -3.96500006E-02   2.25230113E-21
  -3.95999998E-02   1.16603055E-20
  -3.95499989E-02   3.55175587E-20
  -3.95000018E-02   7.98424389E-20
  -3.94500010E-02   1.41537970E-19
  -3.94000001E-02   2.00323744E-19
  -3.93499993E-02   2.17395990E-19
  -3.92999984E-02   1.47776773E-19
  -3.92500013E-02  -3.26497946E-20
  -3.92000005E-02  -2.94905553E-19
  -3.91499996E-02  -5.38326661E-19
  -3.90999988E-02  -6.05011894E-19
  -3.90500017E-02  -3.33726716E-19
  -3.90000008E-02   3.63774491E-19
  -3.89500000E-02   1.44300293E-18
  -3.88999991E-02   2.72729637E-18
  -3.88499983E-02   3.99041936E-18
  -3.88000011E-02   5.09975707E-18
  -3.87500003E-02   6.15548893E-18
  -3.86999995E-02   7.54478633E-18
  -3.86499986E-02   9.85745180E-18
  -3.86000015E-02   1.36752212E-17
  -3.85500006E-02   1.93224693E-17
  -3.84999998E-02   2.67106811E-17
  -3.84499989E-02   3.53899299E-17
  -3.84000018E-02   4.48321569E-17
  -3.83500010E-02   5.48459293E-17
  -3.83000001E-02   6.59229861E-17
  -3.82499993E-02   7.93069140E-17
  -3.81999984E-02   9.66807178E-17
  -3.81500013E-02   1.19557139E-16
  -3.81000005E-02   1.48633702E-16
  -3.80499996E-02   1.83442283E-16
  -3.79999988E-02   2.22525773E-16
  -3.79500017E-02   2.64138304E-16
  -3.79000008E-02   3.07195265E-16
  -3.78500000E-02   3.52028719E-16
  -3.77999991E-02   4.00535120E-16
  -3.77499983E-02   4.55549566E-16
  -3.77000012E-02   5.19650478E-16
  -3.76500003E-02   5.93918009E-16
  -3.75999995E-02   6.77261340E-16
  -3.75499986E-02   7.66718660E-16
  -3.75000015E-02   8.58682562E-16
  -3.74500006E-02   9.50530844E-16
  -3.73999998E-02   1.04188981E-15
  -3.73499990E-02   1.13487062E-15
  -3.73000018E-02   1.23307986E-15
  -3.72500010E-02   1.33978261E-15
  -3.72000001E-02   1.45604127E-15
  -3.71499993E-02   1.57970406E-15
  -3.70999984E-02   1.70576734E-15
  -3.70500013E-02   1.82799112E-15
  -3.70000005E-02   1.94104503E-15
  -3.69499996E-02   2.04217950E-15
  -3.68999988E-02   2.13164333E-15
  -3.68500017E-02   2.21168476E-15
  -3.68000008E-02   2.28467042E-15
  -3.67500000E-02   2.35128236E-15
  -3.66999991E-02   2.40964780E-15
  -3.66499983E-02   2.45573232E-15
  -3.66000012E-02   2.48464854E-15
  -3.65500003E-02   2.49209693E-15
  -3.64999995E-02   2.47518782E-15
  -3.64499986E-02   2.43233875E-15
  -3.64000015E-02   2.36255023E-15
  -3.63500006E-02   2.26473444E-15
  -3.62999998E-02   2.13768839E-15
  -3.62499990E-02   1.98075436E-15
  -3.62000018E-02   1.79456424E-15
  -3.61500010E-02   1.58096455E-15
  -3.61000001E-02   1.34159145E-15
  -3.60499993E-02   1.07551299E-15
  -3.59999985E-02   7.77309271E-16
  -3.59500013E-02   4.37261066E-16
  -3.59000005E-02   4.45017280E-17
  -3.58499996E-02  -4.07675158E-16
  -3.57999988E-02  -9.16860120E-16
  -3.57500017E-02  -1.47008540E-15
  -3.57000008E-02  -2.04797257E-15
  -3.56500000E-02  -2.63389363E-15
  -3.55999991E-02  -3.22446681E-15
  -3.55499983E-02  -3.83583698E-15
  -3.55000012E-02  -4.50098443E-15
  -3.54500003E-02  -5.25697827E-15
  -3.53999995E-02  -6.12640296E-15
  -3.53499986E-02  -7.10147468E-15
  -3.53000015E-02  -8.14006794E-15
  -3.52500007E-02  -9.17869042E-15
  -3.51999998E-02  -1.01596266E-14
  -3.51499990E-02  -1.10613787E-14
  -3.51000018E-02  -1.19174757E-14
  -3.50500010E-02  -1.28115707E-14
  -3.50000001E-02  -1.38465001E-14
  -3.49499993E-02  -1.50977406E-14
  -3.48999985E-02  -1.65716897E-14
  -3.48500013E-02  -1.81904645E-14
  -3.48000005E-02  -1.98155616E-14
  -3.47499996E-02  -2.13052266E-14
  -3.46999988E-02  -2.25825523E-14
  -3.46500017E-02  -2.36820265E-14
  -3.46000008E-02  -2.47477244E-14
  -3.45500000E-02  -2.59762271E-14
  -3.44999991E-02  -2.75238443E-14
  -3.44499983E-02  -2.94186232E-14
  -3.44000012E-02  -3.15214468E-14
  -3.43500003E-02  -3.35629385E-14
  -3.42999995E-02  -3.52493303E-14
  -3.42499986E-02  -3.63953896E-14
  -3.42000015E-02  -3.70230105E-14
  -3.41500007E-02  -3.73721677E-14
  -3.40999998E-02  -3.78065668E-14
  -3.40499990E-02  -3.86455191E-14
  -3.40000018E-02  -3.99942598E-14
  -3.39500010E-02  -4.16553422E-14
  -3.39000002E-02  -4.31750549E-14
  -3.38499993E-02  -4.40198686E-14
  -3.37999985E-02  -4.38137685E-14
  -3.37500013E-02  -4.25288331E-14
  -3.37000005E-02  -4.05304960E-14
  -3.36499996E-02  -3.84374844E-14
  -3.35999988E-02  -3.68413626E-14
  -3.35500017E-02  -3.60045110E-14
  -3.35000008E-02  -3.56802770E-14
  -3.34500000E-02  -3.51572646E-14
  -3.33999991E-02  -3.35334957E-14
  -3.33499983E-02  -3.01158024E-14
  -3.33000012E-02  -2.47672281E-14
  -3.32500003E-02  -1.80299433E-14
  -3.31999995E-02  -1.09396618E-14
  -3.31499986E-02  -4.58627556E-15
  -3.31000015E-02   3.96798910E-16
  -3.30500007E-02   4.17816916E-15
  -3.29999998E-02   7.72628133E-15
  -3.29499990E-02   1.24238270E-14
  -3.29000019E-02   1.94426520E-14
  -3.28500010E-02   2.91523905E-14
  -3.28000002E-02   4.08479741E-14
  -3.27499993E-02   5.29579229E-14
  -3.26999985E-02   6.36822680E-14
  -3.26500013E-02   7.17992628E-14
  -3.26000005E-02   7.72738535E-14
  -3.25499997E-02   8.13595407E-14
  -3.24999988E-02   8.60966368E-14
  -3.24500017E-02   9.33871036E-14
  -3.24000008E-02   1.04044675E-13
  -3.23500000E-02   1.17267592E-13
  -3.22999991E-02   1.30822992E-13
  -3.22499983E-02   1.41921143E-13
  -3.22000012E-02   1.48429554E-13
  -3.21500003E-02   1.49884676E-13
  -3.20999995E-02   1.47806463E-13
  -3.20499986E-02   1.45106651E-13
  -3.20000015E-02   1.44792286E-13
  -3.19500007E-02   1.48514962E-13
  -3.18999998E-02   1.55637886E-13
  -3.18499990E-02   1.63304645E-13
  -3.18000019E-02   1.67562985E-13
  -3.17500010E-02   1.65104164E-13
  -3.17000002E-02   1.54851460E-13
  -3.16499993E-02   1.38639602E-13
  -3.15999985E-02   1.20590983E-13
  -3.15500014E-02   1.05375222E-13
  -3.15000005E-02   9.60769753E-14
  -3.14499997E-02   9.26392955E-14
  -3.13999988E-02   9.16559851E-14
  -3.13500017E-02   8.77154659E-14
  -3.13000008E-02   7.57879748E-14
  -3.12500000E-02   5.36212344E-14
  -3.11999992E-02   2.30268685E-14
  -3.11500002E-02  -1.06254634E-14
  -3.10999993E-02  -4.06032968E-14
  -3.10500003E-02  -6.17966575E-14
  -3.09999995E-02  -7.31596383E-14
  -3.09500005E-02  -7.84313139E-14
  -3.08999997E-02  -8.46764607E-14
  -3.08500007E-02  -9.91699534E-14
  -3.07999998E-02  -1.25957431E-13
  -3.07500008E-02  -1.63670022E-13
  -3.07000000E-02  -2.05697601E-13
  -3.06499992E-02  -2.42804745E-13
  -3.06000002E-02  -2.67144054E-13
  -3.05499993E-02  -2.75901291E-13
  -3.05000003E-02  -2.72857583E-13
  -3.04499995E-02  -2.67006550E-13
  -3.04000005E-02  -2.68672888E-13
  -3.03499997E-02  -2.84766541E-13
  -3.03000007E-02  -3.15314696E-13
  -3.02499998E-02  -3.52959415E-13
  -3.02000009E-02  -3.85845273E-13
  -3.01500000E-02  -4.02776824E-13
  -3.00999992E-02  -3.98405701E-13
  -3.00500002E-02  -3.76049804E-13
  -2.99999993E-02  -3.46694190E-13
  -2.99500003E-02  -3.24396217E-13
  -2.98999995E-02  -3.19993299E-13
  -2.98500005E-02  -3.35913318E-13
  -2.97999997E-02  -3.64548561E-13
  -2.97500007E-02  -3.91158948E-13
  -2.96999998E-02  -4.00240550E-13
  -2.96500009E-02  -3.82633595E-13
  -2.96000000E-02  -3.40142628E-13
  -2.95499992E-02  -2.85397248E-13
  -2.95000002E-02  -2.36739366E-13
  -2.94499993E-02  -2.10199330E-13
  -2.94000003E-02  -2.12079459E-13
  -2.93499995E-02  -2.35584826E-13
  -2.93000005E-02  -2.63275756E-13
  -2.92499997E-02  -2.74540644E-13
  -2.92000007E-02  -2.54937998E-13
  -2.91499998E-02  -2.03224373E-13
  -2.91000009E-02  -1.32715806E-13
  -2.90500000E-02  -6.60482411E-14
  -2.89999992E-02  -2.53773460E-14
  -2.89500002E-02  -2.22596311E-14
  -2.88999993E-02  -5.18300646E-14
  -2.88500004E-02  -9.41697688E-14
  -2.87999995E-02  -1.22618305E-13
  -2.87500005E-02  -1.15594315E-13
  -2.86999997E-02  -6.67040072E-14
  -2.86500007E-02   1.15699161E-14
  -2.85999998E-02   9.26133831E-14
  -2.85500009E-02   1.47122698E-13
  -2.85000000E-02   1.56357132E-13
  -2.84499992E-02   1.21244161E-13
  -2.84000002E-02   6.29738503E-14
  -2.83499993E-02   1.43872188E-14
  -2.83000004E-02   5.63117837E-15
  -2.82499995E-02   5.03395814E-14
  -2.82000005E-02   1.38667750E-13
  -2.81499997E-02   2.40691364E-13
  -2.81000007E-02   3.19126642E-13
  -2.80499998E-02   3.46029466E-13
  -2.80000009E-02   3.16061196E-13
  -2.79500000E-02   2.50117662E-13
  -2.78999992E-02   1.87208959E-13
  -2.78500002E-02   1.67724626E-13
  -2.77999993E-02   2.15283615E-13
  -2.77500004E-02   3.25349204E-13
  -2.76999995E-02   4.66092822E-13
  -2.76500005E-02   5.91676176E-13
  -2.75999997E-02   6.62487534E-13
  -2.75500007E-02   6.63460010E-13
  -2.74999999E-02   6.12067471E-13
  -2.74500009E-02   5.51904225E-13
  -2.74000000E-02   5.34111167E-13
  -2.73499992E-02   5.94532832E-13
  -2.73000002E-02   7.36773598E-13
  -2.72499993E-02   9.29098487E-13
  -2.72000004E-02   1.11719358E-12
  -2.71499995E-02   1.24769888E-12
  -2.71000005E-02   1.29232215E-12
  -2.70499997E-02   1.26163587E-12
  -2.70000007E-02   1.20186098E-12
  -2.69499999E-02   1.17536005E-12
  -2.69000009E-02   1.23296902E-12
  -2.68500000E-02   1.39033620E-12
  -2.67999992E-02   1.61914026E-12
  -2.67500002E-02   1.85778216E-12
  -2.66999993E-02   2.03752640E-12
  -2.66500004E-02   2.11291444E-12
  -2.65999995E-02   2.08287077E-12
  -2.65500005E-02   1.99257884E-12
  -2.64999997E-02   1.91448550E-12
  -2.64500007E-02   1.91616536E-12
  -2.63999999E-02   2.02903384E-12
  -2.63500009E-02   2.23208388E-12
  -2.63000000E-02   2.45860450E-12
  -2.62499992E-02   2.62378422E-12
  -2.62000002E-02   2.66157799E-12
  -2.61499994E-02   2.55456593E-12
  -2.61000004E-02   2.34304872E-12
  -2.60499995E-02   2.10845274E-12
  -2.60000005E-02   1.93751439E-12
  -2.59499997E-02   1.88264877E-12
  -2.59000007E-02   1.93623481E-12
  -2.58499999E-02   2.03095787E-12
  -2.58000009E-02   2.06707286E-12
  -2.57500000E-02   1.95534149E-12
  -2.56999992E-02   1.65689045E-12
  -2.56500002E-02   1.20191205E-12
  -2.55999994E-02   6.77973302E-13
  -2.55500004E-02   1.92054800E-13
  -2.54999995E-02  -1.77560440E-13
  -2.54500005E-02  -4.18239147E-13
  -2.53999997E-02  -5.91710437E-13
  -2.53500007E-02  -8.09540694E-13
  -2.52999999E-02  -1.18516633E-12
  -2.52500009E-02  -1.78320195E-12
  -2.52000000E-02  -2.58874085E-12
  -2.51499992E-02  -3.51119394E-12
  -2.51000002E-02  -4.42219395E-12
  -2.50499994E-02  -5.21173079E-12
  -2.50000004E-02  -5.83789787E-12
  -2.49499995E-02  -6.34761818E-12
  -2.49000005E-02  -6.85796689E-12
  -2.48499997E-02  -7.50507729E-12
  -2.48000007E-02  -8.38246313E-12
  -2.47499999E-02  -9.49613825E-12
  -2.47000009E-02  -1.07573056E-11
  -2.46500000E-02  -1.20172457E-11
  -2.45999992E-02  -1.31301610E-11
  -2.45500002E-02  -1.40166750E-11
  -2.44999994E-02  -1.46994361E-11
  -2.44500004E-02  -1.52938131E-11
  -2.43999995E-02  -1.59563231E-11
  -2.43500005E-02  -1.68125167E-11
  -2.42999997E-02  -1.78960458E-11
  -2.42500007E-02  -1.91267020E-11
  -2.41999999E-02  -2.03386197E-11
  -2.41500009E-02  -2.13476719E-11
  -2.41000000E-02  -2.20290574E-11
  -2.40499992E-02  -2.23705551E-11
  -2.40000002E-02  -2.24766820E-11
  -2.39499994E-02  -2.25202790E-11
  -2.39000004E-02  -2.26615723E-11
  -2.38499995E-02  -2.29699940E-11
  -2.38000005E-02  -2.33840811E-11
  -2.37499997E-02  -2.37286579E-11
  -2.37000007E-02  -2.37835064E-11
  -2.36499999E-02  -2.33743112E-11
  -2.36000009E-02  -2.24457189E-11
  -2.35500000E-02  -2.10831578E-11
  -2.34999992E-02  -1.94719397E-11
  -2.34500002E-02  -1.78100937E-11
  -2.33999994E-02  -1.62126128E-11
  -2.33500004E-02  -1.46499098E-11
  -2.32999995E-02  -1.29491730E-11
  -2.32500006E-02  -1.08600056E-11
  -2.31999997E-02  -8.15684499E-12
  -2.31500007E-02  -4.73329579E-12
  -2.30999999E-02  -6.45794453E-13
  -2.30500009E-02   3.91452279E-12
  -2.30000000E-02   8.71124700E-12
  -2.29499992E-02   1.35750647E-11
  -2.29000002E-02   1.84892553E-11
  -2.28499994E-02   2.36091043E-11
  -2.28000004E-02   2.92045381E-11
  -2.27499995E-02   3.55494766E-11
  -2.27000006E-02   4.28060365E-11
  -2.26499997E-02   5.09553753E-11
  -2.26000007E-02   5.98076033E-11
  -2.25499999E-02   6.90885543E-11
  -2.25000009E-02   7.85666601E-11
  -2.24500000E-02   8.81640455E-11
  -2.23999992E-02   9.80016138E-11
  -2.23500002E-02   1.08355915E-10
  -2.22999994E-02   1.19544791E-10
  -2.22500004E-02   1.31791161E-10
  -2.21999995E-02   1.45125231E-10
  -2.21500006E-02   1.59370489E-10
  -2.20999997E-02   1.74221526E-10
  -2.20500007E-02   1.89381705E-10
  -2.19999999E-02   2.04700132E-10
  -2.19500009E-02   2.20246626E-10
  -2.19000001E-02   2.36289599E-10
  -2.18499992E-02   2.53183585E-10
  -2.18000002E-02   2.71215411E-10
  -2.17499994E-02   2.90476032E-10
  -2.17000004E-02   3.10817011E-10
  -2.16499995E-02   3.31912553E-10
  -2.16000006E-02   3.53402752E-10
  -2.15499997E-02   3.75055265E-10
  -2.15000007E-02   3.96873701E-10
  -2.14499999E-02   4.19102947E-10
  -2.14000009E-02   4.42126197E-10
  -2.13500001E-02   4.66297390E-10
  -2.12999992E-02   4.91782837E-10
  -2.12500002E-02   5.18482646E-10
  -2.11999994E-02   5.46069800E-10
  -2.11500004E-02   5.74131853E-10
  -2.10999995E-02   6.02354167E-10
  -2.10500006E-02   6.30663743E-10
  -2.09999997E-02   6.59267974E-10
  -2.09500007E-02   6.88569146E-10
  -2.08999999E-02   7.18989535E-10
  -2.08500009E-02   7.50783713E-10
  -2.08000001E-02   7.83922205E-10
  -2.07499992E-02   8.18099366E-10
  -2.07000002E-02   8.52865834E-10
  -2.06499994E-02   8.87828588E-10
  -2.06000004E-02   9.22829868E-10
  -2.05499995E-02   9.58025992E-10
  -2.05000006E-02   9.93826799E-10
  -2.04499997E-02   1.03072151E-09
  -2.04000007E-02   1.06906584E-09
  -2.03499999E-02   1.10892406E-09
  -2.03000009E-02   1.15004073E-09
  -2.02500001E-02   1.19195287E-09
  -2.01999992E-02   1.23420063E-09
  -2.01500002E-02   1.27653965E-09
  -2.00999994E-02   1.31906264E-09
  -2.00500004E-02   1.36217448E-09
  -1.99999996E-02   1.40642620E-09
  -1.99500006E-02   1.45228218E-09
  -1.98999997E-02   1.49992230E-09
  -1.98500007E-02   1.54916802E-09
  -1.97999999E-02   1.59956826E-09
  -1.97500009E-02   1.65060965E-09
  -1.97000001E-02   1.70195902E-09
  -1.96499992E-02   1.75363168E-09
  -1.96000002E-02   1.80600768E-09
  -1.95499994E-02   1.85968552E-09
  -1.95000004E-02   1.91523797E-09
  -1.94499996E-02   1.97297534E-09
  -1.94000006E-02   2.03282258E-09
  -1.93499997E-02   2.09436668E-09
  -1.93000007E-02   2.15705920E-09
  -1.92499999E-02   2.22048113E-09
  -1.92000009E-02   2.28455632E-09
  -1.91500001E-02   2.34961850E-09
  -1.90999992E-02   2.41629361E-09
  -1.90500002E-02   2.48525267E-09
  -1.89999994E-02   2.55694244E-09
  -1.89500004E-02   2.63141064E-09
  -1.88999996E-02   2.70830669E-09
  -1.88500006E-02   2.78706414E-09
  -1.87999997E-02   2.86717960E-09
  -1.87500007E-02   2.94847191E-09
  -1.86999999E-02   3.03120062E-09
  -1.86500009E-02   3.11598947E-09
  -1.86000001E-02   3.20359028E-09
  -1.85499992E-02   3.29458349E-09
  -1.85000002E-02   3.38915340E-09
  -1.84499994E-02   3.48703622E-09
  -1.84000004E-02   3.58766972E-09
  -1.83499996E-02   3.69047615E-09
  -1.83000006E-02   3.79515974E-09
  -1.82499997E-02   3.90188282E-09
  -1.82000007E-02   4.01123668E-09
  -1.81499999E-02   4.12402956E-09
  -1.81000009E-02   4.24096758E-09
  -1.80500001E-02   4.36238068E-09
  -1.79999992E-02   4.48811477E-09
  -1.79500002E-02   4.61763605E-09
  -1.78999994E-02   4.75030548E-09
  -1.78500004E-02   4.88570739E-09
  -1.77999996E-02   5.02388309E-09
  -1.77500006E-02   5.16536103E-09
  -1.76999997E-02   5.31097610E-09
  -1.76500008E-02   5.46154366E-09
  -1.75999999E-02   5.61754776E-09
  -1.75500009E-02   5.77896575E-09
  -1.75000001E-02   5.94532024E-09
  -1.74499992E-02   6.11593576E-09
  -1.74000002E-02   6.29028651E-09
  -1.73499994E-02   6.46827969E-09
  -1.73000004E-02   6.65035405E-09
  -1.72499996E-02   6.83734092E-09
  -1.72000006E-02   7.03015024E-09
  -1.71499997E-02   7.22942017E-09
  -1.71000008E-02   7.43528039E-09
  -1.70499999E-02   7.64734587E-09
  -1.70000009E-02   7.86493448E-09
  -1.69500001E-02   8.08742406E-09
  -1.68999992E-02   8.31458458E-09
  -1.68500002E-02   8.54674376E-09
  -1.67999994E-02   8.78470274E-09
  -1.67500004E-02   9.02944208E-09
  -1.66999996E-02   9.28175314E-09
  -1.66500006E-02   9.54193791E-09
  -1.65999997E-02   9.80973702E-09
  -1.65500008E-02   1.00845039E-08
  -1.64999999E-02   1.03655475E-08
  -1.64500009E-02   1.06525135E-08
  -1.64000001E-02   1.09456062E-08
  -1.63499992E-02   1.12455725E-08
  -1.63000003E-02   1.15534471E-08
  -1.62499994E-02   1.18701644E-08
  -1.62000004E-02   1.21962209E-08
  -1.61499996E-02   1.25315207E-08
  -1.61000006E-02   1.28754909E-08
  -1.60499997E-02   1.32274174E-08
  -1.60000008E-02   1.35868321E-08
  -1.59499999E-02   1.39538123E-08
  -1.59000009E-02   1.43290304E-08
  -1.58500001E-02   1.47135495E-08
  -1.57999992E-02   1.51084389E-08
  -1.57500003E-02   1.55143915E-08
  -1.56999994E-02   1.59315068E-08
  -1.56500004E-02   1.63593388E-08
  -1.55999996E-02   1.67971841E-08
  -1.55499997E-02   1.72445009E-08
  -1.54999997E-02   1.77012396E-08
  -1.54499998E-02   1.81679862E-08
  -1.53999999E-02   1.86458085E-08
  -1.53500000E-02   1.91358911E-08
  -1.53000001E-02   1.96391348E-08
  -1.52500002E-02   2.01558557E-08
  -1.52000003E-02   2.06857713E-08
  -1.51500003E-02   2.12282387E-08
  -1.51000004E-02   2.17826663E-08
  -1.50499996E-02   2.23489014E-08
  -1.49999997E-02   2.29274235E-08
  -1.49499997E-02   2.35192807E-08
  -1.48999998E-02   2.41257485E-08
  -1.48499999E-02   2.47479157E-08
  -1.48000000E-02   2.53863313E-08
  -1.47500001E-02   2.60409099E-08
  -1.47000002E-02   2.67111133E-08
  -1.46500003E-02   2.73963359E-08
  -1.46000003E-02   2.80963324E-08
  -1.45500004E-02   2.88114794E-08
  -1.44999996E-02   2.95427753E-08
  -1.44499997E-02   3.02915595E-08
  -1.43999998E-02   3.10590913E-08
  -1.43499998E-02   3.18461453E-08
  -1.42999999E-02   3.26528671E-08
  -1.42500000E-02   3.34788517E-08
  -1.42000001E-02   3.43235271E-08
  -1.41500002E-02   3.51865737E-08
  -1.41000003E-02   3.60682542E-08
  -1.40500003E-02   3.69694959E-08
  -1.40000004E-02   3.78916631E-08
  -1.39499996E-02   3.88361379E-08
  -1.38999997E-02   3.98039433E-08
  -1.38499998E-02   4.07954452E-08
  -1.37999998E-02   4.18104200E-08
  -1.37499999E-02   4.28483595E-08
  -1.37000000E-02   4.39088979E-08
  -1.36500001E-02   4.49921949E-08
  -1.36000002E-02   4.60990748E-08
  -1.35500003E-02   4.72308912E-08
  -1.35000004E-02   4.83891469E-08
  -1.34500004E-02   4.95750605E-08
  -1.33999996E-02   5.07892537E-08
  -1.33499997E-02   5.20316981E-08
  -1.32999998E-02   5.33019993E-08
  -1.32499998E-02   5.45997700E-08
  -1.31999999E-02   5.59250850E-08
  -1.31500000E-02   5.72786654E-08
  -1.31000001E-02   5.86618221E-08
  -1.30500002E-02   6.00761325E-08
  -1.30000003E-02   6.15229823E-08
  -1.29500004E-02   6.30032275E-08
  -1.29000004E-02   6.45170957E-08
  -1.28499996E-02   6.60643025E-08
  -1.27999997E-02   6.76445140E-08
  -1.27499998E-02   6.92577231E-08
  -1.26999998E-02   7.09045622E-08
  -1.26499999E-02   7.25862677E-08
  -1.26000000E-02   7.43044666E-08
  -1.25500001E-02   7.60606866E-08
  -1.25000002E-02   7.78560221E-08
  -1.24500003E-02   7.96909205E-08
  -1.24000004E-02   8.15653109E-08
  -1.23500004E-02   8.34789091E-08
  -1.22999996E-02   8.54316653E-08
  -1.22499997E-02   8.74241266E-08
  -1.21999998E-02   8.94574512E-08
  -1.21499998E-02   9.15332663E-08
  -1.20999999E-02   9.36532203E-08
  -1.20500000E-02   9.58186277E-08
  -1.20000001E-02   9.80301920E-08
  -1.19500002E-02   1.00288027E-07
  -1.19000003E-02   1.02591983E-07
  -1.18500004E-02   1.04942025E-07
  -1.18000004E-02   1.07338629E-07
  -1.17499996E-02   1.09782867E-07
  -1.16999997E-02   1.12276318E-07
  -1.16499998E-02   1.14820743E-07
  -1.15999999E-02   1.17417628E-07
  -1.15499999E-02   1.20067938E-07
  -1.15000000E-02   1.22772008E-07
  -1.14500001E-02   1.25529837E-07
  -1.14000002E-02   1.28341455E-07
  -1.13500003E-02   1.31207216E-07
  -1.13000004E-02   1.34128200E-07
  -1.12500004E-02   1.37105914E-07
  -1.11999996E-02   1.40142191E-07
  -1.11499997E-02   1.43238694E-07
  -1.10999998E-02   1.46396616E-07
  -1.10499999E-02   1.49616568E-07
  -1.09999999E-02   1.52898707E-07
  -1.09500000E-02   1.56243118E-07
  -1.09000001E-02   1.59650227E-07
  -1.08500002E-02   1.63120944E-07
  -1.08000003E-02   1.66656818E-07
  -1.07500004E-02   1.70259653E-07
  -1.07000005E-02   1.73931227E-07
  -1.06499996E-02   1.77672945E-07
  -1.05999997E-02   1.81485660E-07
  -1.05499998E-02   1.85369728E-07
  -1.04999999E-02   1.89325348E-07
  -1.04499999E-02   1.93352932E-07
  -1.04000000E-02   1.97453346E-07
  -1.03500001E-02   2.01628055E-07
  -1.03000002E-02   2.05878905E-07
  -1.02500003E-02   2.10207787E-07
  -1.02000004E-02   2.14616264E-07
  -1.01500005E-02   2.19105459E-07
  -1.00999996E-02   2.23675940E-07
  -1.00499997E-02   2.28328048E-07
  -9.99999978E-03   2.33062238E-07
  -9.94999986E-03   2.37879377E-07
  -9.89999995E-03   2.42780828E-07
  -9.85000003E-03   2.47768412E-07
  -9.80000012E-03   2.52844103E-07
  -9.75000020E-03   2.58009550E-07
  -9.70000029E-03   2.63266031E-07
  -9.65000037E-03   2.68614315E-07
  -9.60000046E-03   2.74054912E-07
  -9.54999961E-03   2.79588306E-07
  -9.49999969E-03   2.85215293E-07
  -9.44999978E-03   2.90937209E-07
  -9.39999986E-03   2.96755786E-07
  -9.34999995E-03   3.02672959E-07
  -9.30000003E-03   3.08690460E-07
  -9.25000012E-03   3.14809768E-07
  -9.20000020E-03   3.21031877E-07
  -9.15000029E-03   3.27357412E-07
  -9.10000037E-03   3.33787000E-07
  -9.05000046E-03   3.40321492E-07
  -8.99999961E-03   3.46962111E-07
  -8.94999970E-03   3.53710504E-07
  -8.89999978E-03   3.60568578E-07
  -8.84999987E-03   3.67538178E-07
  -8.79999995E-03   3.74620811E-07
  -8.75000004E-03   3.81817614E-07
  -8.70000012E-03   3.89129440E-07
  -8.65000021E-03   3.96556885E-07
  -8.60000029E-03   4.04100774E-07
  -8.55000038E-03   4.11762272E-07
  -8.50000046E-03   4.19542857E-07
  -8.44999962E-03   4.27444348E-07
  -8.39999970E-03   4.35468536E-07
  -8.34999979E-03   4.43616983E-07
  -8.29999987E-03   4.51891026E-07
  -8.24999996E-03   4.60291403E-07
  -8.20000004E-03   4.68818911E-07
  -8.15000013E-03   4.77474316E-07
  -8.10000021E-03   4.86258784E-07
  -8.05000030E-03   4.95173651E-07
  -8.00000038E-03   5.04220623E-07
  -7.95000046E-03   5.13401517E-07
  -7.89999962E-03   5.22717926E-07
  -7.84999970E-03   5.32171043E-07
  -7.79999979E-03   5.41761949E-07
  -7.74999987E-03   5.51491325E-07
  -7.69999996E-03   5.61360025E-07
  -7.65000004E-03   5.71369014E-07
  -7.60000013E-03   5.81519487E-07
  -7.55000021E-03   5.91813091E-07
  -7.49999983E-03   6.02251362E-07
  -7.44999992E-03   6.12835834E-07
  -7.40000000E-03   6.23567587E-07
  -7.35000009E-03   6.34447758E-07
  -7.30000017E-03   6.45476973E-07
  -7.24999979E-03   6.56655857E-07
  -7.19999988E-03   6.67985375E-07
  -7.14999996E-03   6.79466552E-07
  -7.10000005E-03   6.91100695E-07
  -7.05000013E-03   7.02889338E-07
  -7.00000022E-03   7.14833732E-07
  -6.94999984E-03   7.26934900E-07
  -6.89999992E-03   7.39193808E-07
  -6.85000001E-03   7.51611026E-07
  -6.80000009E-03   7.64187234E-07
  -6.75000018E-03   7.76923116E-07
  -6.69999979E-03   7.89819580E-07
  -6.64999988E-03   8.02877594E-07
  -6.59999996E-03   8.16098407E-07
  -6.55000005E-03   8.29483099E-07
  -6.50000013E-03   8.43032751E-07
  -6.45000022E-03   8.56747818E-07
  -6.39999984E-03   8.70628924E-07
  -6.34999992E-03   8.84676467E-07
  -6.30000001E-03   8.98890619E-07
  -6.25000009E-03   9.13272117E-07
  -6.20000018E-03   9.27821702E-07
  -6.14999980E-03   9.42540055E-07
  -6.09999988E-03   9.57428028E-07
  -6.04999997E-03   9.72486305E-07
  -6.00000005E-03   9.87715225E-07
  -5.95000014E-03   1.00311502E-06
  -5.90000022E-03   1.01868568E-06
  -5.84999984E-03   1.03442721E-06
  -5.79999993E-03   1.05034007E-06
  -5.75000001E-03   1.06642437E-06
  -5.70000010E-03   1.08268057E-06
  -5.65000018E-03   1.09910911E-06
  -5.59999980E-03   1.11570978E-06
  -5.54999989E-03   1.13248302E-06
  -5.49999997E-03   1.14942850E-06
  -5.45000006E-03   1.16654587E-06
  -5.40000014E-03   1.18383502E-06
  -5.35000023E-03   1.20129539E-06
  -5.29999984E-03   1.21892697E-06
  -5.24999993E-03   1.23672942E-06
  -5.20000001E-03   1.25470262E-06
  -5.15000010E-03   1.27284613E-06
  -5.10000018E-03   1.29115949E-06
  -5.04999980E-03   1.30964202E-06
  -4.99999989E-03   1.32829291E-06
  -4.94999997E-03   1.34711138E-06
  -4.90000006E-03   1.36609640E-06
  -4.85000014E-03   1.38524695E-06
  -4.80000023E-03   1.40456234E-06
  -4.74999985E-03   1.42404144E-06
  -4.69999993E-03   1.44368346E-06
  -4.65000002E-03   1.46348725E-06
  -4.60000010E-03   1.48345123E-06
  -4.55000019E-03   1.50357425E-06
  -4.49999981E-03   1.52385462E-06
  -4.44999989E-03   1.54429074E-06
  -4.39999998E-03   1.56488113E-06
  -4.35000006E-03   1.58562398E-06
  -4.30000015E-03   1.60651780E-06
  -4.25000023E-03   1.62756078E-06
  -4.19999985E-03   1.64875087E-06
  -4.14999994E-03   1.67008591E-06
  -4.10000002E-03   1.69156374E-06
  -4.05000011E-03   1.71318197E-06
  -4.00000019E-03   1.73493811E-06
  -3.94999981E-03   1.75682987E-06
  -3.89999989E-03   1.77885465E-06
  -3.84999998E-03   1.80100960E-06
  -3.80000006E-03   1.82329211E-06
  -3.74999992E-03   1.84569910E-06
  -3.70000000E-03   1.86822763E-06
  -3.65000009E-03   1.89087450E-06
  -3.59999994E-03   1.91363665E-06
  -3.55000002E-03   1.93651044E-06
  -3.50000011E-03   1.95949292E-06
  -3.44999996E-03   1.98257953E-06
  -3.40000005E-03   2.00576687E-06
  -3.34999990E-03   2.02905130E-06
  -3.29999998E-03   2.05242850E-06
  -3.25000007E-03   2.07589483E-06
  -3.19999992E-03   2.09944619E-06
  -3.15000000E-03   2.12307850E-06
  -3.10000009E-03   2.14678698E-06
  -3.04999994E-03   2.17056686E-06
  -3.00000003E-03   2.19441313E-06
  -2.95000011E-03   2.21832079E-06
  -2.89999996E-03   2.24228438E-06
  -2.85000005E-03   2.26629936E-06
  -2.79999990E-03   2.29036073E-06
  -2.74999999E-03   2.31446347E-06
  -2.70000007E-03   2.33860123E-06
  -2.64999992E-03   2.36276878E-06
  -2.60000001E-03   2.38695930E-06
  -2.55000009E-03   2.41116686E-06
  -2.49999994E-03   2.43538466E-06
  -2.45000003E-03   2.45960655E-06
  -2.40000011E-03   2.48382594E-06
  -2.34999997E-03   2.50803669E-06
  -2.30000005E-03   2.53223243E-06
  -2.24999990E-03   2.55640634E-06
  -2.19999999E-03   2.58055138E-06
  -2.15000007E-03   2.60465958E-06
  -2.09999993E-03   2.62872300E-06
  -2.05000001E-03   2.65273343E-06
  -2.00000009E-03   2.67668315E-06
  -1.94999995E-03   2.70056398E-06
  -1.90000003E-03   2.72436819E-06
  -1.85000000E-03   2.74808804E-06
  -1.79999997E-03   2.77171557E-06
  -1.75000005E-03   2.79524215E-06
  -1.70000002E-03   2.81865823E-06
  -1.64999999E-03   2.84195448E-06
  -1.59999996E-03   2.86512068E-06
  -1.55000004E-03   2.88814726E-06
  -1.50000001E-03   2.91102401E-06
  -1.44999998E-03   2.93374183E-06
  -1.39999995E-03   2.95629070E-06
  -1.35000004E-03   2.97866200E-06
  -1.30000000E-03   3.00084525E-06
  -1.24999997E-03   3.02283001E-06
  -1.20000006E-03   3.04460491E-06
  -1.15000003E-03   3.06615789E-06
  -1.09999999E-03   3.08747713E-06
  -1.04999996E-03   3.10855103E-06
  -1.00000005E-03   3.12936800E-06
  -9.50000016E-04   3.14991689E-06
  -8.99999985E-04   3.17018680E-06
  -8.50000011E-04   3.19016635E-06
  -7.99999980E-04   3.20984259E-06
  -7.50000007E-04   3.22920346E-06
  -6.99999975E-04   3.24823418E-06
  -6.50000002E-04   3.26692202E-06
  -6.00000028E-04   3.28525198E-06
  -5.49999997E-04   3.30321154E-06
  -5.00000024E-04   3.32078776E-06
  -4.49999992E-04   3.33796811E-06
  -3.99999990E-04   3.35473874E-06
  -3.49999988E-04   3.37108600E-06
  -3.00000014E-04   3.38699442E-06
  -2.50000012E-04   3.40244833E-06
  -1.99999995E-04   3.41743180E-06
  -1.50000007E-04   3.43192823E-06
  -9.99999975E-05   3.44592286E-06
  -4.99999987E-05   3.45940043E-06
   0.00000000       3.47234777E-06
   4.99999987E-05   3.48474919E-06
   9.99999975E-05   3.49658990E-06
   1.50000007E-04   3.50785240E-06
   1.99999995E-04   3.51851941E-06
   2.50000012E-04   3.52857228E-06
   3.00000014E-04   3.53799282E-06
   3.49999988E-04   3.54676331E-06
   3.99999990E-04   3.55486668E-06
   4.49999992E-04   3.56228770E-06
   5.00000024E-04   3.56901000E-06
   5.49999997E-04   3.57501699E-06
   6.00000028E-04   3.58029001E-06
   6.50000002E-04   3.58480929E-06
   6.99999975E-04   3.58855391E-06
   7.50000007E-04   3.59150249E-06
   7.99999980E-04   3.59363526E-06
   8.50000011E-04   3.59493424E-06
   8.99999985E-04   3.59538126E-06
   9.50000016E-04   3.59495903E-06
   1.00000005E-03   3.59364913E-06
   1.04999996E-03   3.59143178E-06
   1.09999999E-03   3.58828493E-06
   1.15000003E-03   3.58418583E-06
   1.20000006E-03   3.57911108E-06
   1.24999997E-03   3.57303907E-06
   1.30000000E-03   3.56594933E-06
   1.35000004E-03   3.55782231E-06
   1.39999995E-03   3.54863937E-06
   1.44999998E-03   3.53838118E-06
   1.50000001E-03   3.52702637E-06
   1.55000004E-03   3.51455128E-06
   1.59999996E-03   3.50093092E-06
   1.64999999E-03   3.48614049E-06
   1.70000002E-03   3.47015521E-06
   1.75000005E-03   3.45295257E-06
   1.79999997E-03   3.43451188E-06
   1.85000000E-03   3.41481359E-06
   1.90000003E-03   3.39383791E-06
   1.94999995E-03   3.37156166E-06
   2.00000009E-03   3.34795982E-06
   2.05000001E-03   3.32300601E-06
   2.09999993E-03   3.29667250E-06
   2.15000007E-03   3.26893223E-06
   2.19999999E-03   3.23976133E-06
   2.24999990E-03   3.20913750E-06
   2.30000005E-03   3.17703984E-06
   2.34999997E-03   3.14344811E-06
   2.40000011E-03   3.10833957E-06
   2.45000003E-03   3.07168875E-06
   2.49999994E-03   3.03346792E-06
   2.55000009E-03   2.99364729E-06
   2.60000001E-03   2.95219820E-06
   2.64999992E-03   2.90909384E-06
   2.70000007E-03   2.86430986E-06
   2.74999999E-03   2.81782491E-06
   2.79999990E-03   2.76961805E-06