  -3.99999991E-02   0.00000000    
  -3.99499983E-02   0.00000000    
  -3.99000011E-02   0.00000000    
  -3.98500003E-02  -5.62384630E-18
  -3.97999994E-02  -2.49916806E-17
  -3.97499986E-02  -5.36903216E-17
  -3.97000015E-02  -6.61308268E-17
  -3.96500006E-02  -2.67781641E-17
  -3.95999998E-02   9.65185507E-17
  -3.95499989E-02   3.47640453E-16
  -3.95000018E-02   8.21430265E-16
  -3.94500010E-02   1.67739364E-15
  -3.94000001E-02   3.08822537E-15
  -3.93499993E-02   5.15445129E-15
  -3.92999984E-02   7.87073264E-15
  -3.92500013E-02   1.11932795E-14
  -3.92000005E-02   1.51590183E-14
  -3.91499996E-02   1.99546495E-14
  -3.90999988E-02   2.58903650E-14
  -3.90500017E-02   3.33332401E-14
  -3.90000008E-02   4.26788494E-14
  -3.89500000E-02   5.43595049E-14
  -3.88999991E-02   6.88118182E-14
  -3.88499983E-02   8.63664947E-14
  -3.88000011E-02   1.07146510E-13
  -3.87500003E-02   1.31110726E-13
  -3.86999995E-02   1.58265694E-13
  -3.86499986E-02   1.88890963E-13
  -3.86000015E-02   2.23580188E-13
  -3.85500006E-02   2.63057805E-13
  -3.84999998E-02   3.07932472E-13
  -3.84499989E-02   3.58577941E-13
  -3.84000018E-02   4.15165271E-13
  -3.83500010E-02   4.77705495E-13
  -3.83000001E-02   5.45992884E-13
  -3.82499993E-02   6.19521741E-13
  -3.81999984E-02   6.97552422E-13
  -3.81500013E-02   7.79376834E-13
  -3.81000005E-02   8.64608190E-13
  -3.80499996E-02   9.53262534E-13
  -3.79999988E-02   1.04559091E-12
  -3.79500017E-02   1.14185332E-12
  -3.79000008E-02   1.24222019E-12
  -3.78500000E-02   1.34675344E-12
  -3.77999991E-02   1.45525378E-12
  -3.77499983E-02   1.56690546E-12
  -3.77000012E-02   1.67998005E-12
  -3.76500003E-02   1.79197228E-12
  -3.75999995E-02   1.90024168E-12
  -3.75499986E-02   2.00275733E-12
  -3.75000015E-02   2.09836619E-12
  -3.74500006E-02   2.18635548E-12
  -3.73999998E-02   2.26560871E-12
  -3.73499990E-02   2.33388742E-12
  -3.73000018E-02   2.38758817E-12
  -3.72500010E-02   2.42202460E-12
  -3.72000001E-02   2.43218423E-12
  -3.71499993E-02   2.41397050E-12
  -3.70999984E-02   2.36573391E-12
  -3.70500013E-02   2.28940478E-12
  -3.70000005E-02   2.19021828E-12
  -3.69499996E-02   2.07448685E-12
  -3.68999988E-02   1.94608240E-12
  -3.68500017E-02   1.80336204E-12
  -3.68000008E-02   1.63831134E-12
  -3.67500000E-02   1.43852768E-12
  -3.66999991E-02   1.19119916E-12
  -3.66499983E-02   8.87399366E-13
  -3.66000012E-02   5.25085129E-13
  -3.65500003E-02   1.09716076E-13
  -3.64999995E-02  -3.47955903E-13
  -3.64499986E-02  -8.36532124E-13
  -3.64000015E-02  -1.34943131E-12
  -3.63500006E-02  -1.88850411E-12
  -3.62999998E-02  -2.46333639E-12
  -3.62499990E-02  -3.08583237E-12
  -3.62000018E-02  -3.76252892E-12
  -3.61500010E-02  -4.48881904E-12
  -3.61000001E-02  -5.24845271E-12
  -3.60499993E-02  -6.01886466E-12
  -3.59999985E-02  -6.77991430E-12
  -3.59500013E-02  -7.52216605E-12
  -3.59000005E-02  -8.25108124E-12
  -3.58499996E-02  -8.98495774E-12
  -3.57999988E-02  -9.74650135E-12
  -3.57500017E-02  -1.05505960E-11
  -3.57000008E-02  -1.13934244E-11
  -3.56500000E-02  -1.22487923E-11
  -3.55999991E-02  -1.30750116E-11
  -3.55499983E-02  -1.38303041E-11
  -3.55000012E-02  -1.44896629E-11
  -3.54500003E-02  -1.50545115E-11
  -3.53999995E-02  -1.55499728E-11
  -3.53499986E-02  -1.60105540E-11
  -3.53000015E-02  -1.64604684E-11
  -3.52500007E-02  -1.68969994E-11
  -3.51999998E-02  -1.72842868E-11
  -3.51499990E-02  -1.75613100E-11
  -3.51000018E-02  -1.76624358E-11
  -3.50500010E-02  -1.75429636E-11
  -3.50000001E-02  -1.71981908E-11
  -3.49499993E-02  -1.66656064E-11
  -3.48999985E-02  -1.60071487E-11
  -3.48500013E-02  -1.52786742E-11
  -3.48000005E-02  -1.45010315E-11
  -3.47499996E-02  -1.36468831E-11
  -3.46999988E-02  -1.26498378E-11
  -3.46500017E-02  -1.14320090E-11
  -3.46000008E-02  -9.93809895E-12
  -3.45500000E-02  -8.16133099E-12
  -3.44999991E-02  -6.14939696E-12
  -3.44499983E-02  -3.98604197E-12
  -3.44000012E-02  -1.75423044E-12
  -3.43500003E-02   5.03473673E-13
  -3.42999995E-02   2.80797065E-12
  -3.42499986E-02   5.23667481E-12
  -3.42000015E-02   7.88736611E-12
  -3.41500007E-02   1.08288968E-11
  -3.40999998E-02   1.40623147E-11
  -3.40499990E-02   1.75113084E-11
  -3.40000018E-02   2.10470669E-11
  -3.39500010E-02   2.45371553E-11
  -3.39000002E-02   2.78974656E-11
  -3.38499993E-02   3.11244815E-11
  -3.37999985E-02   3.42920449E-11
  -3.37500013E-02   3.75110637E-11
  -3.37000005E-02   4.08675212E-11
  -3.36499996E-02   4.43665139E-11
  -3.35999988E-02   4.79105956E-11
  -3.35500017E-02   5.13259539E-11
  -3.35000008E-02   5.44270289E-11
  -3.34500000E-02   5.70902770E-11
  -3.33999991E-02   5.93025004E-11
  -3.33499983E-02   6.11606946E-11
  -3.33000012E-02   6.28222821E-11
  -3.32500003E-02   6.44262976E-11
  -3.31999995E-02   6.60186350E-11
  -3.31499986E-02   6.75144454E-11
  -3.31000015E-02   6.87165810E-11
  -3.30500007E-02   6.93858929E-11
  -3.29999998E-02   6.93348781E-11
  -3.29499990E-02   6.85023219E-11
  -3.29000019E-02   6.69729688E-11
  -3.28500010E-02   6.49306581E-11
  -3.28000002E-02   6.25658830E-11
  -3.27499993E-02   5.99808744E-11
  -3.26999985E-02   5.71362818E-11
  -3.26500013E-02   5.38642672E-11
  -3.26000005E-02   4.99425154E-11
  -3.25499997E-02   4.51974569E-11
  -3.24999988E-02   3.95913788E-11
  -3.24500017E-02   3.32533688E-11
  -3.24000008E-02   2.64363045E-11
  -3.23500000E-02   1.94147511E-11
  -3.22999991E-02   1.23678246E-11
  -3.22499983E-02   5.30191169E-12
  -3.22000012E-02  -1.94779457E-12
  -3.21500003E-02  -9.63458653E-12
  -3.20999995E-02  -1.79731872E-11
  -3.20499986E-02  -2.70265164E-11
  -3.20000015E-02  -3.66579857E-11
  -3.19500007E-02  -4.65712156E-11
  -3.18999998E-02  -5.64208645E-11
  -3.18499990E-02  -6.59474073E-11
  -3.18000019E-02  -7.50772847E-11
  -3.17500010E-02  -8.39419922E-11
  -3.17000002E-02  -9.28029945E-11
  -3.16499993E-02  -1.01911632E-10
  -3.15999985E-02  -1.11365993E-10
  -3.15500014E-02  -1.21031976E-10
  -3.15000005E-02  -1.30568306E-10
  -3.14499997E-02  -1.39546485E-10
  -3.13999988E-02  -1.47612644E-10
  -3.13500017E-02  -1.54618485E-10
  -3.13000008E-02  -1.60664107E-10
  -3.12500000E-02  -1.66034048E-10
  -3.11999992E-02  -1.71053477E-10
  -3.11500002E-02  -1.75925705E-10
  -3.10999993E-02  -1.80620699E-10
  -3.10500003E-02  -1.84866317E-10
  -3.09999995E-02  -1.88249888E-10
  -3.09500005E-02  -1.90388011E-10
  -3.08999997E-02  -1.91087909E-10
  -3.08500007E-02  -1.90425023E-10
  -3.07999998E-02  -1.88699611E-10
  -3.07500008E-02  -1.86292107E-10
  -3.07000000E-02  -1.83483548E-10
  -3.06499992E-02  -1.80322146E-10
  -3.06000002E-02  -1.76593837E-10
  -3.05499993E-02  -1.71909764E-10
  -3.05000003E-02  -1.65873718E-10
  -3.04499995E-02  -1.58259128E-10
  -3.04000005E-02  -1.49117704E-10
  -3.03499997E-02  -1.38768580E-10
  -3.03000007E-02  -1.27667571E-10
  -3.02499998E-02  -1.16212491E-10
  -3.02000009E-02  -1.04573857E-10
  -3.01500000E-02  -9.26304380E-11
  -3.00999992E-02  -8.00403702E-11
  -3.00500002E-02  -6.64147765E-11
  -2.99999993E-02  -5.15153996E-11
  -2.99500003E-02  -3.53891604E-11
  -2.98999995E-02  -1.83817388E-11
  -2.98500005E-02  -1.02261255E-12
  -2.97999997E-02   1.61730317E-11
  -2.97500007E-02   3.29036902E-11
  -2.96999998E-02   4.91949328E-11
  -2.96500009E-02   6.53717636E-11
  -2.96000000E-02   8.18960802E-11
  -2.95499992E-02   9.91387389E-11
  -2.95000002E-02   1.17188426E-10
  -2.94499993E-02   1.35782954E-10
  -2.94000003E-02   1.54391819E-10
  -2.93499995E-02   1.72410489E-10
  -2.93000005E-02   1.89381469E-10
  -2.92499997E-02   2.05149842E-10
  -2.92000007E-02   2.19889607E-10
  -2.91499998E-02   2.33989605E-10
  -2.91000009E-02   2.47844550E-10
  -2.90500000E-02   2.61639960E-10
  -2.89999992E-02   2.75226841E-10
  -2.89500002E-02   2.88147617E-10
  -2.88999993E-02   2.99805014E-10
  -2.88500004E-02   3.09697878E-10
  -2.87999995E-02   3.17616433E-10
  -2.87500005E-02   3.23709337E-10
  -2.86999997E-02   3.28395533E-10
  -2.86500007E-02   3.32162353E-10
  -2.85999998E-02   3.35336398E-10
  -2.85500009E-02   3.37921274E-10
  -2.85000000E-02   3.39572148E-10
  -2.84499992E-02   3.39722223E-10
  -2.84000002E-02   3.37813028E-10
  -2.83499993E-02   3.33530120E-10
  -2.83000004E-02   3.26937755E-10
  -2.82499995E-02   3.18446158E-10
  -2.82000005E-02   3.08624071E-10
  -2.81499997E-02   2.97942365E-10
  -2.81000007E-02   2.86565049E-10
  -2.80499998E-02   2.74279405E-10
  -2.80000009E-02   2.60593880E-10
  -2.79500000E-02   2.44961745E-10
  -2.78999992E-02   2.27038915E-10
  -2.78500002E-02   2.06868855E-10
  -2.77999993E-02   1.84912197E-10
  -2.77500004E-02   1.61899008E-10
  -2.76999995E-02   1.38557624E-10
  -2.76500005E-02   1.15335630E-10
  -2.75999997E-02   9.22395424E-11
  -2.75500007E-02   6.88682444E-11
  -2.74999999E-02   4.46262194E-11
  -2.74500009E-02   1.90207398E-11
  -2.74000000E-02  -8.08643777E-12
  -2.73499992E-02  -3.63780048E-11
  -2.73000002E-02  -6.51704593E-11
  -2.72499993E-02  -9.36575262E-11
  -2.72000004E-02  -1.21209695E-10
  -2.71499995E-02  -1.47605206E-10
  -2.71000005E-02  -1.73088932E-10
  -2.70499997E-02  -1.98226019E-10
  -2.70000007E-02  -2.23608687E-10
  -2.69499999E-02  -2.49547327E-10
  -2.69000009E-02  -2.75888312E-10
  -2.68500000E-02  -3.02041669E-10
  -2.67999992E-02  -3.27203292E-10
  -2.67500002E-02  -3.50670520E-10
  -2.66999993E-02  -3.72112730E-10
  -2.66500004E-02  -3.91683935E-10
  -2.65999995E-02  -4.09930673E-10
  -2.65500005E-02  -4.27530150E-10
  -2.64999997E-02  -4.44968173E-10
  -2.64500007E-02  -4.62298338E-10
  -2.63999999E-02  -4.79096984E-10
  -2.63500009E-02  -4.94645880E-10
  -2.63000000E-02  -5.08264597E-10
  -2.62499992E-02  -5.19641330E-10
  -2.62000002E-02  -5.29007782E-10
  -2.61499994E-02  -5.37076272E-10
  -2.61000004E-02  -5.44767287E-10
  -2.60499995E-02  -5.52846102E-10
  -2.60000005E-02  -5.61625302E-10
  -2.59499997E-02  -5.70857084E-10
  -2.59000007E-02  -5.79867598E-10
  -2.58499999E-02  -5.87882298E-10
  -2.58000009E-02  -5.94409355E-10
  -2.57500000E-02  -5.99515659E-10
  -2.56999992E-02  -6.03863848E-10
  -2.56500002E-02  -6.08487483E-10
  -2.55999994E-02  -6.14401474E-10
  -2.55500004E-02  -6.22226437E-10
  -2.54999995E-02  -6.31995456E-10
  -2.54500005E-02  -6.43227860E-10
  -2.53999997E-02  -6.55229815E-10
  -2.53500007E-02  -6.67490785E-10
  -2.52999999E-02  -6.80002943E-10
  -2.52500009E-02  -6.93371138E-10
  -2.52000000E-02  -7.08659076E-10
  -2.51499992E-02  -7.27032490E-10
  -2.51000002E-02  -7.49348861E-10
  -2.50499994E-02  -7.75875475E-10
  -2.50000004E-02  -8.06268996E-10
  -2.49499995E-02  -8.39829095E-10
  -2.49000005E-02  -8.75908124E-10
  -2.48499997E-02  -9.14288534E-10
  -2.48000007E-02  -9.55357127E-10
  -2.47499999E-02  -1.00001096E-09
  -2.47000009E-02  -1.04934061E-09
  -2.46500000E-02  -1.10424003E-09
  -2.45999992E-02  -1.16510723E-09
  -2.45500002E-02  -1.23176713E-09
  -2.44999994E-02  -1.30365119E-09
  -2.44500004E-02  -1.38016221E-09
  -2.43999995E-02  -1.46106305E-09
  -2.43500005E-02  -1.54670465E-09
  -2.42999997E-02  -1.63797953E-09
  -2.42500007E-02  -1.73601711E-09
  -2.41999999E-02  -1.84176596E-09
  -2.41500009E-02  -1.95565542E-09
  -2.41000000E-02  -2.07749062E-09
  -2.40499992E-02  -2.20662022E-09
  -2.40000002E-02  -2.34229391E-09
  -2.39499994E-02  -2.48406784E-09
  -2.39000004E-02  -2.63207522E-09
  -2.38499995E-02  -2.78706236E-09
  -2.38000005E-02  -2.95015168E-09
  -2.37499997E-02  -3.12243809E-09
  -2.37000007E-02  -3.30458727E-09
  -2.36499999E-02  -3.49662255E-09
  -2.36000009E-02  -3.69800635E-09
  -2.35500000E-02  -3.90796506E-09
  -2.34999992E-02  -4.12590850E-09
  -2.34500002E-02  -4.35174385E-09
  -2.33999994E-02  -4.58596361E-09
  -2.33500004E-02  -4.82948748E-09
  -2.32999995E-02  -5.08333553E-09
  -2.32500006E-02  -5.34826450E-09
  -2.31999997E-02  -5.62452751E-09
  -2.31500007E-02  -5.91184524E-09
  -2.30999999E-02  -6.20961682E-09
  -2.30500009E-02  -6.51727872E-09
  -2.30000000E-02  -6.83463863E-09
  -2.29499992E-02  -7.16202742E-09
  -2.29000002E-02  -7.50020135E-09
  -2.28499994E-02  -7.85005572E-09
  -2.28000004E-02  -8.21230906E-09
  -2.27499995E-02  -8.58728821E-09
  -2.27000006E-02  -8.97489816E-09
  -2.26499997E-02  -9.37477740E-09
  -2.26000007E-02  -9.78656800E-09
  -2.25499999E-02  -1.02101794E-08
  -2.25000009E-02  -1.06459659E-08
  -2.24500000E-02  -1.10947003E-08
  -2.23999992E-02  -1.15573560E-08
  -2.23500002E-02  -1.20348203E-08
  -2.22999994E-02  -1.25276358E-08
  -2.22500004E-02  -1.30359412E-08
  -2.21999995E-02  -1.35595961E-08
  -2.21500006E-02  -1.40984229E-08
  -2.20999997E-02  -1.46524508E-08
  -2.20500007E-02  -1.52220530E-08
  -2.19999999E-02  -1.58079523E-08
  -2.19500009E-02  -1.64110840E-08
  -2.19000001E-02  -1.70324004E-08
  -2.18499992E-02  -1.76726314E-08
  -2.18000002E-02  -1.83321731E-08
  -2.17499994E-02  -1.90111233E-08
  -2.17000004E-02  -1.97094625E-08
  -2.16499995E-02  -2.04272848E-08
  -2.16000006E-02  -2.11649720E-08
  -2.15499997E-02  -2.19232525E-08
  -2.15000007E-02  -2.27031194E-08
  -2.14499999E-02  -2.35056721E-08
  -2.14000009E-02  -2.43319516E-08
  -2.13500001E-02  -2.51828052E-08
  -2.12999992E-02  -2.60588351E-08
  -2.12500002E-02  -2.69604072E-08
  -2.11999994E-02  -2.78877579E-08
  -2.11500004E-02  -2.88411126E-08
  -2.10999995E-02  -2.98208249E-08
  -2.10500006E-02  -3.08274402E-08
  -2.09999997E-02  -3.18616280E-08
  -2.09500007E-02  -3.29241452E-08
  -2.08999999E-02  -3.40157662E-08
  -2.08500009E-02  -3.51372158E-08
  -2.08000001E-02  -3.62891726E-08
  -2.07499992E-02  -3.74722120E-08
  -2.07000002E-02  -3.86868351E-08
  -2.06499994E-02  -3.99334787E-08
  -2.06000004E-02  -4.12126298E-08
  -2.05499995E-02  -4.25248530E-08
  -2.05000006E-02  -4.38708092E-08
  -2.04499997E-02  -4.52512232E-08
  -2.04000007E-02  -4.66668268E-08
  -2.03499999E-02  -4.81182951E-08
  -2.03000009E-02  -4.96061610E-08
  -2.02500001E-02  -5.11308080E-08
  -2.01999992E-02  -5.26925064E-08
  -2.01500002E-02  -5.42915011E-08
  -2.00999994E-02  -5.59280799E-08
  -2.00500004E-02  -5.76027475E-08
  -1.99999996E-02  -5.93162142E-08
  -1.99500006E-02  -6.10693505E-08
  -1.98999997E-02  -6.28630588E-08
  -1.98500007E-02  -6.46980851E-08
  -1.97999999E-02  -6.65748772E-08
  -1.97500009E-02  -6.84936481E-08
  -1.97000001E-02  -7.04545258E-08
  -1.96499992E-02  -7.24577518E-08
  -1.96000002E-02  -7.45038164E-08
  -1.95499994E-02  -7.65936363E-08
  -1.95000004E-02  -7.87284549E-08
  -1.94499996E-02  -8.09096790E-08
  -1.94000006E-02  -8.31386586E-08
  -1.93499997E-02  -8.54162963E-08
  -1.93000007E-02  -8.77430466E-08
  -1.92499999E-02  -9.01189949E-08
  -1.92000009E-02  -9.25442976E-08
  -1.91500001E-02  -9.50194874E-08
  -1.90999992E-02  -9.75456373E-08
  -1.90500002E-02  -1.00124424E-07
  -1.89999994E-02  -1.02757880E-07
  -1.89500004E-02  -1.05448109E-07
  -1.88999996E-02  -1.08196858E-07
  -1.88500006E-02  -1.11005242E-07
  -1.87999997E-02  -1.13873860E-07
  -1.87500007E-02  -1.16803157E-07
  -1.86999999E-02  -1.19793853E-07
  -1.86500009E-02  -1.22847311E-07
  -1.86000001E-02  -1.25965741E-07
  -1.85499992E-02  -1.29151914E-07
  -1.85000002E-02  -1.32408900E-07
  -1.84499994E-02  -1.35739540E-07
  -1.84000004E-02  -1.39146138E-07
  -1.83499996E-02  -1.42630370E-07
  -1.83000006E-02  -1.46193571E-07
  -1.82499997E-02  -1.49837348E-07
  -1.82000007E-02  -1.53563960E-07
  -1.81499999E-02  -1.57376391E-07
  -1.81000009E-02  -1.61278351E-07
  -1.80500001E-02  -1.65273860E-07
  -1.79999992E-02  -1.69366700E-07
  -1.79500002E-02  -1.73560082E-07
  -1.78999994E-02  -1.77856634E-07
  -1.78500004E-02  -1.82258503E-07
  -1.77999996E-02  -1.86768133E-07
  -1.77500006E-02  -1.91388835E-07
  -1.76999997E-02  -1.96125086E-07
  -1.76500008E-02  -2.00982285E-07
  -1.75999999E-02  -2.05966288E-07
  -1.75500009E-02  -2.11082579E-07
  -1.75000001E-02  -2.16336034E-07
  -1.74499992E-02  -2.21730630E-07
  -1.74000002E-02  -2.27269766E-07
  -1.73499994E-02  -2.32956694E-07
  -1.73000004E-02  -2.38795280E-07
  -1.72499996E-02  -2.44790670E-07
  -1.72000006E-02  -2.50949427E-07
  -1.71499997E-02  -2.57278884E-07
  -1.71000008E-02  -2.63786262E-07
  -1.70499999E-02  -2.70477898E-07
  -1.70000009E-02  -2.77359192E-07
  -1.69500001E-02  -2.84434805E-07
  -1.68999992E-02  -2.91709512E-07
  -1.68500002E-02  -2.99188429E-07
  -1.67999994E-02  -3.06877695E-07
  -1.67500004E-02  -3.14784927E-07
  -1.66999996E-02  -3.22918709E-07
  -1.66500006E-02  -3.31287936E-07
  -1.65999997E-02  -3.39900794E-07
  -1.65500008E-02  -3.48764189E-07
  -1.64999999E-02  -3.57883806E-07
  -1.64500009E-02  -3.67265130E-07
  -1.64000001E-02  -3.76914130E-07
  -1.63499992E-02  -3.86838025E-07
  -1.63000003E-02  -3.97045113E-07
  -1.62499994E-02  -4.07544661E-07
  -1.62000004E-02  -4.18346275E-07
  -1.61499996E-02  -4.29459249E-07
  -1.61000006E-02  -4.40891796E-07
  -1.60499997E-02  -4.52650880E-07
  -1.60000008E-02  -4.64743010E-07
  -1.59499999E-02  -4.77174865E-07
  -1.59000009E-02  -4.89954573E-07
  -1.58500001E-02  -5.03091940E-07
  -1.57999992E-02  -5.16597595E-07
  -1.57500003E-02  -5.30482396E-07
  -1.56999994E-02  -5.44756404E-07
  -1.56500004E-02  -5.59428656E-07
  -1.55999996E-02  -5.74506885E-07
  -1.55499997E-02  -5.89998137E-07
  -1.54999997E-02  -6.05909179E-07
  -1.54499998E-02  -6.22248422E-07
  -1.53999999E-02  -6.39025643E-07
  -1.53500000E-02  -6.56252496E-07
  -1.53000001E-02  -6.73941202E-07
  -1.52500002E-02  -6.92103583E-07
  -1.52000003E-02  -7.10749646E-07
  -1.51500003E-02  -7.29888086E-07
  -1.51000004E-02  -7.49526691E-07
  -1.50499996E-02  -7.69673363E-07
  -1.49999997E-02  -7.90336685E-07
  -1.49499997E-02  -8.11526661E-07
  -1.48999998E-02  -8.33255115E-07
  -1.48499999E-02  -8.55535404E-07
  -1.48000000E-02  -8.78380263E-07
  -1.47500001E-02  -9.01801229E-07
  -1.47000002E-02  -9.25808195E-07
  -1.46500003E-02  -9.50409799E-07
  -1.46000003E-02  -9.75614967E-07
  -1.45500004E-02  -1.00143359E-06
  -1.44999996E-02  -1.02787658E-06
  -1.44499997E-02  -1.05495678E-06
  -1.43999998E-02  -1.08268807E-06
  -1.43499998E-02  -1.11108375E-06
  -1.42999999E-02  -1.14015666E-06
  -1.42500000E-02  -1.16991828E-06
  -1.42000001E-02  -1.20037748E-06
  -1.41500002E-02  -1.23154348E-06
  -1.41000003E-02  -1.26342661E-06
  -1.40500003E-02  -1.29603904E-06
  -1.40000004E-02  -1.32939522E-06
  -1.39499996E-02  -1.36351036E-06
  -1.38999997E-02  -1.39839904E-06
  -1.38499998E-02  -1.43407544E-06
  -1.37999998E-02  -1.47055198E-06
  -1.37499999E-02  -1.50783956E-06
  -1.37000000E-02  -1.54594909E-06
  -1.36500001E-02  -1.58489183E-06
  -1.36000002E-02  -1.62468064E-06
  -1.35500003E-02  -1.66533039E-06
  -1.35000004E-02  -1.70685905E-06
  -1.34500004E-02  -1.74928391E-06
  -1.33999996E-02  -1.79262054E-06
  -1.33499997E-02  -1.83688235E-06
  -1.32999998E-02  -1.88208094E-06
  -1.32499998E-02  -1.92822881E-06
  -1.31999999E-02  -1.97533859E-06
  -1.31500000E-02  -2.02342426E-06
  -1.31000001E-02  -2.07250196E-06
  -1.30500002E-02  -2.12259033E-06
  -1.30000003E-02  -2.17370939E-06
  -1.29500004E-02  -2.22587869E-06
  -1.29000004E-02  -2.27911437E-06
  -1.28499996E-02  -2.33343167E-06
  -1.27999997E-02  -2.38884490E-06
  -1.27499998E-02  -2.44536977E-06
  -1.26999998E-02  -2.50302310E-06
  -1.26499999E-02  -2.56182375E-06
  -1.26000000E-02  -2.62179037E-06
  -1.25500001E-02  -2.68294252E-06
  -1.25000002E-02  -2.74530043E-06
  -1.24500003E-02  -2.80888253E-06
  -1.24000004E-02  -2.87370744E-06
  -1.23500004E-02  -2.93979201E-06
  -1.22999996E-02  -3.00715305E-06
  -1.22499997E-02  -3.07581172E-06
  -1.21999998E-02  -3.14579188E-06
  -1.21499998E-02  -3.21712082E-06
  -1.20999999E-02  -3.28982537E-06
  -1.20500000E-02  -3.36392941E-06
  -1.20000001E-02  -3.43945339E-06
  -1.19500002E-02  -3.51641552E-06
  -1.19000003E-02  -3.59483488E-06
  -1.18500004E-02  -3.67472967E-06
  -1.18000004E-02  -3.75611739E-06
  -1.17499996E-02  -3.83902079E-06
  -1.16999997E-02  -3.92346374E-06
  -1.16499998E-02  -4.00947465E-06
  -1.15999999E-02  -4.09708582E-06
  -1.15499999E-02  -4.18632726E-06
  -1.15000000E-02  -4.27722762E-06
  -1.14500001E-02  -4.36981509E-06
  -1.14000002E-02  -4.46411923E-06
  -1.13500003E-02  -4.56017142E-06
  -1.13000004E-02  -4.65800395E-06
  -1.12500004E-02  -4.75764728E-06
  -1.11999996E-02  -4.85912915E-06
  -1.11499997E-02  -4.96247776E-06
  -1.10999998E-02  -5.06771903E-06
  -1.10499999E-02  -5.17487615E-06
  -1.09999999E-02  -5.28396913E-06
  -1.09500000E-02  -5.39501707E-06
  -1.09000001E-02  -5.50804907E-06
  -1.08500002E-02  -5.62309970E-06
  -1.08000003E-02  -5.74021078E-06
  -1.07500004E-02  -5.85942689E-06
  -1.07000005E-02  -5.98079532E-06
  -1.06499996E-02  -6.10435973E-06
  -1.05999997E-02  -6.23016558E-06
  -1.05499998E-02  -6.35825472E-06
  -1.04999999E-02  -6.48866671E-06
  -1.04499999E-02  -6.62143520E-06
  -1.04000000E-02  -6.75659339E-06
  -1.03500001E-02  -6.89417720E-06
  -1.03000002E-02  -7.03422302E-06
  -1.02500003E-02  -7.17676721E-06
  -1.02000004E-02  -7.32184435E-06
  -1.01500005E-02  -7.46948808E-06
  -1.00999996E-02  -7.61973251E-06
  -1.00499997E-02  -7.77261539E-06
  -9.99999978E-03  -7.92817991E-06
  -9.94999986E-03  -8.08647656E-06
  -9.89999995E-03  -8.24755989E-06
  -9.85000003E-03  -8.41148176E-06
  -9.80000012E-03  -8.57829764E-06
  -9.75000020E-03  -8.74806392E-06
  -9.70000029E-03  -8.92083244E-06
  -9.65000037E-03  -9.09665232E-06
  -9.60000046E-03  -9.27556812E-06
  -9.54999961E-03  -9.45762258E-06
  -9.49999969E-03  -9.64286301E-06
  -9.44999978E-03  -9.83134669E-06
  -9.39999986E-03  -1.00231318E-05
  -9.34999995E-03  -1.02182739E-05
  -9.30000003E-03  -1.04168248E-05
  -9.25000012E-03  -1.06188354E-05
  -9.20000020E-03  -1.08243630E-05
  -9.15000029E-03  -1.10334568E-05
  -9.10000037E-03  -1.12461639E-05
  -9.05000046E-03  -1.14625291E-05
  -8.99999961E-03  -1.16826077E-05
  -8.94999970E-03  -1.19064634E-05
  -8.89999978E-03  -1.21341573E-05
  -8.84999987E-03  -1.23657510E-05
  -8.79999995E-03  -1.26013056E-05
  -8.75000004E-03  -1.28408801E-05
  -8.70000012E-03  -1.30845356E-05
  -8.65000021E-03  -1.33323347E-05
  -8.60000029E-03  -1.35843402E-05
  -8.55000038E-03  -1.38406249E-05
  -8.50000046E-03  -1.41012588E-05
  -8.44999962E-03  -1.43663065E-05
  -8.39999970E-03  -1.46358361E-05
  -8.34999979E-03  -1.49099214E-05
  -8.29999987E-03  -1.51886270E-05
  -8.24999996E-03  -1.54720092E-05
  -8.20000004E-03  -1.57601262E-05
  -8.15000013E-03  -1.60530362E-05
  -8.10000021E-03  -1.63508103E-05
  -8.05000030E-03  -1.66535265E-05
  -8.00000038E-03  -1.69612540E-05
  -7.95000046E-03  -1.72740656E-05
  -7.89999962E-03  -1.75920322E-05
  -7.84999970E-03  -1.79152194E-05
  -7.79999979E-03  -1.82436979E-05
  -7.74999987E-03  -1.85775280E-05
  -7.69999996E-03  -1.89167749E-05
  -7.65000004E-03  -1.92615043E-05
  -7.60000013E-03  -1.96117926E-05
  -7.55000021E-03  -1.99677233E-05
  -7.49999983E-03  -2.03293766E-05
  -7.44999992E-03  -2.06968398E-05
  -7.40000000E-03  -2.10701910E-05
  -7.35000009E-03  -2.14495049E-05
  -7.30000017E-03  -2.18348596E-05
  -7.24999979E-03  -2.22263261E-05
  -7.19999988E-03  -2.26239754E-05
  -7.14999996E-03  -2.30278874E-05
  -7.10000005E-03  -2.34381514E-05
  -7.05000013E-03  -2.38548564E-05
  -7.00000022E-03  -2.42780807E-05
  -6.94999984E-03  -2.47078988E-05
  -6.89999992E-03  -2.51443835E-05
  -6.85000001E-03  -2.55876093E-05
  -6.80000009E-03  -2.60376528E-05
  -6.75000018E-03  -2.64945902E-05
  -6.69999979E-03  -2.69584943E-05
  -6.64999988E-03  -2.74294471E-05
  -6.59999996E-03  -2.79075393E-05
  -6.55000005E-03  -2.83928675E-05
  -6.50000013E-03  -2.88855172E-05
  -6.45000022E-03  -2.93855574E-05
  -6.39999984E-03  -2.98930627E-05
  -6.34999992E-03  -3.04081132E-05
  -6.30000001E-03  -3.09307907E-05
  -6.25000009E-03  -3.14611898E-05
  -6.20000018E-03  -3.19994033E-05
  -6.14999980E-03  -3.25455221E-05
  -6.09999988E-03  -3.30996518E-05
  -6.04999997E-03  -3.36618978E-05
  -6.00000005E-03  -3.42323365E-05
  -5.95000014E-03  -3.48110552E-05
  -5.90000022E-03  -3.53981159E-05
  -5.84999984E-03  -3.59936021E-05
  -5.79999993E-03  -3.65976084E-05
  -5.75000001E-03  -3.72102295E-05
  -5.70000010E-03  -3.78315599E-05
  -5.65000018E-03  -3.84616687E-05
  -5.59999980E-03  -3.91006506E-05
  -5.54999989E-03  -3.97486074E-05
  -5.49999997E-03  -4.04056227E-05
  -5.45000006E-03  -4.10717839E-05
  -5.40000014E-03  -4.17471492E-05
  -5.35000023E-03  -4.24317986E-05
  -5.29999984E-03  -4.31258304E-05
  -5.24999993E-03  -4.38293646E-05
  -5.20000001E-03  -4.45425139E-05
  -5.15000010E-03  -4.52653585E-05
  -5.10000018E-03  -4.59979783E-05
  -5.04999980E-03  -4.67404680E-05
  -4.99999989E-03  -4.74929402E-05
  -4.94999997E-03  -4.82554969E-05
  -4.90000006E-03  -4.90282291E-05
  -4.85000014E-03  -4.98111913E-05
  -4.80000023E-03  -5.06044926E-05
  -4.74999985E-03  -5.14082458E-05
  -4.69999993E-03  -5.22225855E-05
  -4.65000002E-03  -5.30475918E-05
  -4.60000010E-03  -5.38833192E-05
  -4.55000019E-03  -5.47298041E-05
  -4.49999981E-03  -5.55871411E-05
  -4.44999989E-03  -5.64554466E-05
  -4.39999998E-03  -5.73348334E-05
  -4.35000006E-03  -5.82253815E-05
  -4.30000015E-03  -5.91271455E-05
  -4.25000023E-03  -6.00402382E-05
  -4.19999985E-03  -6.09648014E-05
  -4.14999994E-03  -6.19009370E-05
  -4.10000002E-03  -6.28487105E-05
  -4.05000011E-03  -6.38081692E-05
  -4.00000019E-03  -6.47793786E-05
  -3.94999981E-03  -6.57624914E-05
  -3.89999989E-03  -6.67576096E-05
  -3.84999998E-03  -6.77648204E-05
  -3.80000006E-03  -6.87842039E-05
  -3.74999992E-03  -6.98158692E-05
  -3.70000000E-03  -7.08598964E-05
  -3.65000009E-03  -7.19164018E-05
  -3.59999994E-03  -7.29854364E-05
  -3.55000002E-03  -7.40670512E-05
  -3.50000011E-03  -7.51613188E-05
  -3.44999996E-03  -7.62683194E-05
  -3.40000005E-03  -7.73881984E-05
  -3.34999990E-03  -7.85210505E-05
  -3.29999998E-03  -7.96669410E-05
  -3.25000007E-03  -8.08259210E-05
  -3.19999992E-03  -8.19980487E-05
  -3.15000000E-03  -8.31834332E-05
  -3.10000009E-03  -8.43821763E-05
  -3.04999994E-03  -8.55942926E-05
  -3.00000003E-03  -8.68198549E-05
  -2.95000011E-03  -8.80589432E-05
  -2.89999996E-03  -8.93116958E-05
  -2.85000005E-03  -9.05782363E-05
  -2.79999990E-03  -9.18585720E-05
  -2.74999999E-03  -9.31527320E-05
  -2.70000007E-03  -9.44607891E-05
  -2.64999992E-03  -9.57828452E-05
  -2.60000001E-03  -9.71189511E-05
  -2.55000009E-03  -9.84691578E-05
  -2.49999994E-03  -9.98335163E-05
  -2.45000003E-03  -1.01212085E-04
  -2.40000011E-03  -1.02604979E-04
  -2.34999997E-03  -1.04012281E-04
  -2.30000005E-03  -1.05434032E-04
  -2.24999990E-03  -1.06870226E-04
  -2.19999999E-03  -1.08320884E-04
  -2.15000007E-03  -1.09786044E-04
  -2.09999993E-03  -1.11265756E-04
  -2.05000001E-03  -1.12760084E-04
  -2.00000009E-03  -1.14269045E-04
  -1.94999995E-03  -1.15792689E-04
  -1.90000003E-03  -1.17331088E-04
  -1.85000000E-03  -1.18884236E-04
  -1.79999997E-03  -1.20452154E-04
  -1.75000005E-03  -1.22034835E-04
  -1.70000002E-03  -1.23632330E-04
  -1.64999999E-03  -1.25244682E-04
  -1.59999996E-03  -1.26871892E-04
  -1.55000004E-03  -1.28513988E-04
  -1.50000001E-03  -1.30170942E-04
  -1.44999998E-03  -1.31842797E-04
  -1.39999995E-03  -1.33529611E-04
  -1.35000004E-03  -1.35231356E-04
  -1.30000000E-03  -1.36947987E-04
  -1.24999997E-03  -1.38679447E-04
  -1.20000006E-03  -1.40425647E-04
  -1.15000003E-03  -1.42186676E-04
  -1.09999999E-03  -1.43962578E-04
  -1.04999996E-03  -1.45753293E-04
  -1.00000005E-03  -1.47558705E-04
  -9.50000016E-04  -1.49378742E-04
  -8.99999985E-04  -1.51213419E-04
  -8.50000011E-04  -1.53062720E-04
  -7.99999980E-04  -1.54926616E-04
  -7.50000007E-04  -1.56804919E-04
  -6.99999975E-04  -1.58697512E-04
  -6.50000002E-04  -1.60604439E-04
  -6.00000028E-04  -1.62525699E-04
  -5.49999997E-04  -1.64461264E-04
  -5.00000024E-04  -1.66410944E-04
  -4.49999992E-04  -1.68374536E-04
  -3.99999990E-04  -1.70351981E-04
  -3.49999988E-04  -1.72343236E-04
  -3.00000014E-04  -1.74348272E-04
  -2.50000012E-04  -1.76366899E-04
  -1.99999995E-04  -1.78398885E-04
  -1.50000007E-04  -1.80444098E-04
  -9.99999975E-05  -1.82502510E-04
  -4.99999987E-05  -1.84574048E-04
   0.00000000      -1.86658537E-04
   4.99999987E-05  -1.88755657E-04
   9.99999975E-05  -1.90865190E-04
   1.50000007E-04  -1.92986976E-04
   1.99999995E-04  -1.95120956E-04
   2.50000012E-04  -1.97266985E-04
   3.00000014E-04  -1.99424729E-04
   3.49999988E-04  -2.01593939E-04
   3.99999990E-04  -2.03774413E-04
   4.49999992E-04  -2.05966018E-04
   5.00000024E-04  -2.08168509E-04
   5.49999997E-04  -2.10381622E-04
   6.00000028E-04  -2.12604980E-04
   6.50000002E-04  -2.14838248E-04
   6.99999975E-04  -2.17081324E-04
   7.50000007E-04  -2.19333975E-04
   7.99999980E-04  -2.21595910E-04
   8.50000011E-04  -2.23866722E-04
   8.99999985E-04  -2.26146120E-04
   9.50000016E-04  -2.28433739E-04
   1.00000005E-03  -2.30729216E-04
   1.04999996E-03  -2.33032246E-04
   1.09999999E-03  -2.35342523E-04
   1.15000003E-03  -2.37659595E-04
   1.20000006E-03  -2.39983085E-04
   1.24999997E-03  -2.42312613E-04
   1.30000000E-03  -2.44647701E-04
   1.35000004E-03  -2.46988027E-04
   1.39999995E-03  -2.49333156E-04
   1.44999998E-03  -2.51682621E-04
   1.50000001E-03  -2.54035840E-04
   1.55000004E-03  -2.56392232E-04
   1.59999996E-03  -2.58751475E-04
   1.64999999E-03  -2.61113251E-04
   1.70000002E-03  -2.63477035E-04
   1.75000005E-03  -2.65842158E-04
   1.79999997E-03  -2.68207892E-04
   1.85000000E-03  -2.70573888E-04
   1.90000003E-03  -2.72939651E-04
   1.94999995E-03  -2.75304716E-04
   2.00000009E-03  -2.77668354E-04
   2.05000001E-03  -2.80029664E-04
   2.09999993E-03  -2.82388122E-04
   2.15000007E-03  -2.84743350E-04
   2.19999999E-03  -2.87094765E-04
   2.24999990E-03  -2.89441494E-04
   2.30000005E-03  -2.91782751E-04
   2.34999997E-03  -2.94117810E-04
   2.40000011E-03  -2.96446000E-04
   2.45000003E-03  -2.98766652E-04
   2.49999994E-03  -3.01079039E-04
   2.55000009E-03  -3.03382316E-04
   2.60000001E-03  -3.05675436E-04
   2.64999992E-03  -3.07957816E-04
   2.70000007E-03  -3.10228817E-04
   2.74999999E-03  -3.12487595E-04
   2.79999990E-03  -3.14733217E-04