  -3.99999991E-02   0.00000000    
  -3.99499983E-02   0.00000000    
  -3.99000011E-02   0.00000000    
  -3.98500003E-02   0.00000000    
  -3.97999994E-02   4.15885626E-22
  -3.97499986E-02   4.10655390E-21
  -3.97000015E-02   2.16707103E-20
  -3.96500006E-02   8.15840354E-20
  -3.95999998E-02   2.44963696E-19
  -3.95499989E-02   6.17469079E-19
  -3.95000018E-02   1.33383722E-18
  -3.94500010E-02   2.46708065E-18
  -3.94000001E-02   3.80436618E-18
  -3.93499993E-02   4.47133225E-18
  -3.92999984E-02   2.50722269E-18
  -3.92500013E-02  -5.32417407E-18
  -3.92000005E-02  -2.30691805E-17
  -3.91499996E-02  -5.41490197E-17
  -3.90999988E-02  -9.91230049E-17
  -3.90500017E-02  -1.53594787E-16
  -3.90000008E-02  -2.07842523E-16
  -3.89500000E-02  -2.49617936E-16
  -3.88999991E-02  -2.70241918E-16
  -3.88499983E-02  -2.71918355E-16
  -3.88000011E-02  -2.72221831E-16
  -3.87500003E-02  -3.01504845E-16
  -3.86999995E-02  -3.91481979E-16
  -3.86499986E-02  -5.58027053E-16
  -3.86000015E-02  -7.86138584E-16
  -3.85500006E-02  -1.02703158E-15
  -3.84999998E-02  -1.21397630E-15
  -3.84499989E-02  -1.29477350E-15
  -3.84000018E-02  -1.26789281E-15
  -3.83500010E-02  -1.20214728E-15
  -3.83000001E-02  -1.22211894E-15
  -3.82499993E-02  -1.45534713E-15
  -3.81999984E-02  -1.95823324E-15
  -3.81500013E-02  -2.65548132E-15
  -3.81000005E-02  -3.33122113E-15
  -3.80499996E-02  -3.69248767E-15
  -3.79999988E-02  -3.49164938E-15
  -3.79500017E-02  -2.65858041E-15
  -3.79000008E-02  -1.37527139E-15
  -3.78500000E-02  -3.95349816E-17
  -3.77999991E-02   8.89560566E-16
  -3.77499983E-02   1.11128690E-15
  -3.77000012E-02   6.68723247E-16
  -3.76500003E-02  -2.41880536E-18
  -3.75999995E-02  -2.14035803E-16
  -3.75499986E-02   6.80501188E-16
  -3.75000015E-02   2.96041361E-15
  -3.74500006E-02   6.33945419E-15
  -3.73999998E-02   1.00176020E-14
  -3.73499990E-02   1.29970997E-14
  -3.73000018E-02   1.45458783E-14
  -3.72500010E-02   1.45999579E-14
  -3.72000001E-02   1.38974407E-14
  -3.71499993E-02   1.37414951E-14
  -3.70999984E-02   1.54589256E-14
  -3.70500013E-02   1.97770928E-14
  -3.70000005E-02   2.64061403E-14
  -3.69499996E-02   3.40439753E-14
  -3.68999988E-02   4.08398087E-14
  -3.68500017E-02   4.51380910E-14
  -3.68000008E-02   4.61816220E-14
  -3.67500000E-02   4.44549894E-14
  -3.66999991E-02   4.15028661E-14
  -3.66499983E-02   3.92929131E-14
  -3.66000012E-02   3.93976098E-14
  -3.65500003E-02   4.23467142E-14
  -3.64999995E-02   4.74177209E-14
  -3.64499986E-02   5.29323052E-14
  -3.64000015E-02   5.69121641E-14
  -3.63500006E-02   5.78167478E-14
  -3.62999998E-02   5.50885157E-14
  -3.62499990E-02   4.93442465E-14
  -3.62000018E-02   4.21985580E-14
  -3.61500010E-02   3.58098188E-14
  -3.61000001E-02   3.22670120E-14
  -3.60499993E-02   3.29214059E-14
  -3.59999985E-02   3.77730074E-14
  -3.59500013E-02   4.50861543E-14
  -3.59000005E-02   5.14879006E-14
  -3.58499996E-02   5.27884079E-14
  -3.57999988E-02   4.55499963E-14
  -3.57500017E-02   2.90248884E-14
  -3.57000008E-02   6.64376645E-15
  -3.56500000E-02  -1.39441173E-14
  -3.55999991E-02  -2.29481724E-14
  -3.55499983E-02  -1.24199984E-14
  -3.55000012E-02   1.92075986E-14
  -3.54500003E-02   6.42068931E-14
  -3.53999995E-02   1.06368947E-13
  -3.53499986E-02   1.26373562E-13
  -3.53000015E-02   1.10385124E-13
  -3.52500007E-02   5.84131064E-14
  -3.51999998E-02  -1.19427952E-14
  -3.51499990E-02  -6.95840548E-14
  -3.51000018E-02  -8.18621565E-14
  -3.50500010E-02  -3.03290887E-14
  -3.50000001E-02   7.67691845E-14
  -3.49499993E-02   2.02377584E-13
  -3.48999985E-02   2.92380161E-13
  -3.48500013E-02   2.98397591E-13
  -3.48000005E-02   2.02532191E-13
  -3.47499996E-02   3.19643909E-14
  -3.46999988E-02  -1.46107627E-13
  -3.46500017E-02  -2.50662772E-13
  -3.46000008E-02  -2.25199105E-13
  -3.45500000E-02  -7.12270276E-14
  -3.44999991E-02   1.40994692E-13
  -3.44499983E-02   2.94325979E-13
  -3.44000012E-02   2.74415907E-13
  -3.43500003E-02   2.73636010E-14
  -3.42999995E-02  -4.02187940E-13
  -3.42499986E-02  -8.75276468E-13
  -3.42000015E-02  -1.21072228E-12
  -3.41500007E-02  -1.26754737E-12
  -3.40999998E-02  -1.02181111E-12
  -3.40499990E-02  -5.98504698E-13
  -3.40000018E-02  -2.34878550E-13
  -3.39500010E-02  -1.81852593E-13
  -3.39000002E-02  -5.82202906E-13
  -3.38499993E-02  -1.38219221E-12
  -3.37999985E-02  -2.32588428E-12
  -3.37500013E-02  -3.04819039E-12
  -3.37000005E-02  -3.23622574E-12
  -3.36499996E-02  -2.78990741E-12
  -3.35999988E-02  -1.90244001E-12
  -3.35500017E-02  -1.00881044E-12
  -3.35000008E-02  -6.07779506E-13
  -3.34500000E-02  -1.02607484E-12
  -3.33999991E-02  -2.23208995E-12
  -3.33499983E-02  -3.79766617E-12
  -3.33000012E-02  -5.04795858E-12
  -3.32500003E-02  -5.35275166E-12
  -3.31999995E-02  -4.43669407E-12
  -3.31499986E-02  -2.55963024E-12
  -3.31000015E-02  -4.61367001E-13
  -3.30500007E-02   9.33974903E-13
  -3.29999998E-02   9.42108696E-13
  -3.29499990E-02  -5.18196000E-13
  -3.29000019E-02  -2.80734355E-12
  -3.28500010E-02  -4.78147079E-12
  -3.28000002E-02  -5.28088033E-12
  -3.27499993E-02  -3.68765478E-12
  -3.26999985E-02  -2.90634107E-13
  -3.26500013E-02   3.74310999E-12
  -3.26000005E-02   6.82497765E-12
  -3.25499997E-02   7.66078607E-12
  -3.24999988E-02   5.91081611E-12
  -3.24500017E-02   2.46791650E-12
  -3.24000008E-02  -8.26447038E-13
  -3.23500000E-02  -1.95765778E-12
  -3.22999991E-02   3.11516139E-13
  -3.22499983E-02   5.75314579E-12
  -3.22000012E-02   1.26106929E-11
  -3.21500003E-02   1.82617359E-11
  -3.20999995E-02   2.03703183E-11
  -3.20499986E-02   1.80300410E-11
  -3.20000015E-02   1.23479733E-11
  -3.19500007E-02   6.12760233E-12
  -3.18999998E-02   2.70472490E-12
  -3.18499990E-02   4.40275637E-12
  -3.18000019E-02   1.13068764E-11
  -3.17500010E-02   2.09781515E-11
  -3.17000002E-02   2.93439960E-11
  -3.16499993E-02   3.24626714E-11
  -3.15999985E-02   2.84096843E-11
  -3.15500014E-02   1.83979290E-11
  -3.15000005E-02   6.51861898E-12
  -3.14499997E-02  -1.91340758E-12
  -3.13999988E-02  -2.76198704E-12
  -3.13500017E-02   4.84973953E-12
  -3.13000008E-02   1.78021833E-11
  -3.12500000E-02   3.00676498E-11
  -3.11999992E-02   3.52838245E-11
  -3.11500002E-02   2.97326677E-11
  -3.10999993E-02   1.43487123E-11
  -3.10500003E-02  -5.28819046E-12
  -3.09999995E-02  -2.11613661E-11
  -3.09500005E-02  -2.63845213E-11
  -3.08999997E-02  -1.85621223E-11
  -3.08500007E-02  -1.33136471E-12
  -3.07999998E-02   1.68106102E-11
  -3.07500008E-02   2.60851358E-11
  -3.07000000E-02   1.99393384E-11
  -3.06499992E-02  -1.56661663E-12
  -3.06000002E-02  -3.11929753E-11
  -3.05499993E-02  -5.72909567E-11
  -3.05000003E-02  -6.88943486E-11
  -3.04499995E-02  -6.09307466E-11
  -3.04000005E-02  -3.71046839E-11
  -3.03499997E-02  -8.89417619E-12
  -3.03000007E-02   9.19680044E-12
  -3.02499998E-02   6.20976274E-12
  -3.02000009E-02  -1.98134321E-11
  -3.01500000E-02  -6.01514533E-11
  -3.00999992E-02  -9.86009677E-11
  -3.00500002E-02  -1.18447016E-10
  -2.99999993E-02  -1.10238242E-10
  -2.99500003E-02  -7.67806374E-11
  -2.98999995E-02  -3.27828320E-11
  -2.98500005E-02   1.10583548E-12
  -2.97999997E-02   7.51172822E-12
  -2.97500007E-02  -1.92574030E-11
  -2.96999998E-02  -6.96193381E-11
  -2.96500009E-02  -1.21992694E-10
  -2.96000000E-02  -1.51936297E-10
  -2.95499992E-02  -1.43325019E-10
  -2.95000002E-02  -9.64911762E-11
  -2.94499993E-02  -2.92986468E-11
  -2.94000003E-02   2.98796508E-11
  -2.93499995E-02   5.46015733E-11
  -2.93000005E-02   3.28056159E-11
  -2.92499997E-02  -2.65369133E-11
  -2.92000007E-02  -9.60893795E-11
  -2.91499998E-02  -1.41564274E-10
  -2.91000009E-02  -1.37190093E-10
  -2.90500000E-02  -7.83126203E-11
  -2.89999992E-02   1.49403025E-11
  -2.89500002E-02   1.05264207E-10
  -2.88999993E-02   1.54300864E-10
  -2.88500004E-02   1.40369522E-10
  -2.87999995E-02   6.96729271E-11
  -2.87500005E-02  -2.46772221E-11
  -2.86999997E-02  -9.61924360E-11
  -2.86500007E-02  -1.05663166E-10
  -2.85999998E-02  -3.98301427E-11
  -2.85500009E-02   8.07227757E-11
  -2.85000000E-02   2.08828746E-10
  -2.84499992E-02   2.90782787E-10
  -2.84000002E-02   2.90719504E-10
  -2.83499993E-02   2.08314241E-10
  -2.83000004E-02   8.11810272E-11
  -2.82499995E-02  -3.01240977E-11
  -2.82000005E-02  -6.86644977E-11
  -2.81499997E-02  -7.69753185E-12
  -2.81000007E-02   1.35022896E-10
  -2.80499998E-02   3.02594644E-10
  -2.80000009E-02   4.22720137E-10
  -2.79500000E-02   4.40035536E-10
  -2.78999992E-02   3.42622486E-10
  -2.78500002E-02   1.70116657E-10
  -2.77999993E-02  -1.44423134E-12
  -2.77500004E-02  -9.24511093E-11
  -2.76999995E-02  -5.61645175E-11
  -2.76500005E-02   9.78042786E-11
  -2.75999997E-02   3.04550218E-10
  -2.75500007E-02   4.70426365E-10
  -2.74999999E-02   5.14365051E-10
  -2.74500009E-02   4.05820128E-10
  -2.74000000E-02   1.81692092E-10
  -2.73499992E-02  -6.67502026E-11
  -2.73000002E-02  -2.32651703E-10
  -2.72499993E-02  -2.41702963E-10
  -2.72000004E-02  -8.80464729E-11
  -2.71499995E-02   1.59210992E-10
  -2.71000005E-02   3.83510168E-10
  -2.70499997E-02   4.71644890E-10
  -2.70000007E-02   3.65851682E-10
  -2.69499999E-02   9.33760222E-11
  -2.69000009E-02  -2.41264259E-10
  -2.68500000E-02  -4.99804031E-10
  -2.67999992E-02  -5.71550696E-10
  -2.67500002E-02  -4.25388808E-10
  -2.66999993E-02  -1.28177566E-10
  -2.66500004E-02   1.80661333E-10
  -2.65999995E-02   3.49061252E-10
  -2.65500005E-02   2.81159429E-10
  -2.64999997E-02  -1.59174340E-11
  -2.64500007E-02  -4.29852376E-10
  -2.63999999E-02  -7.88837773E-10
  -2.63500009E-02  -9.36782207E-10
  -2.63000000E-02  -8.05213674E-10
  -2.62499992E-02  -4.48904580E-10
  -2.62000002E-02  -2.71272813E-11
  -2.61499994E-02   2.63665506E-10
  -2.61000004E-02   2.77495166E-10
  -2.60499995E-02  -1.20749617E-11
  -2.60000005E-02  -4.93846741E-10
  -2.59499997E-02  -9.62638746E-10
  -2.59000007E-02  -1.20786059E-09
  -2.58499999E-02  -1.10891329E-09
  -2.58000009E-02  -6.94347579E-10
  -2.57500000E-02  -1.36115730E-10
  -2.56999992E-02   3.21612431E-10
  -2.56500002E-02   4.69864536E-10
  -2.55999994E-02   2.31438133E-10
  -2.55500004E-02  -2.97761649E-10
  -2.54999995E-02  -8.84020079E-10
  -2.54500005E-02  -1.25534738E-09
  -2.53999997E-02  -1.22309529E-09
  -2.53500007E-02  -7.71495534E-10
  -2.52999999E-02  -7.29937638E-11
  -2.52500009E-02   5.81039883E-10
  -2.52000000E-02   9.06729192E-10
  -2.51499992E-02   7.56567142E-10
  -2.51000002E-02   1.92444866E-10
  -2.50499994E-02  -5.32823008E-10
  -2.50000004E-02  -1.08129083E-09
  -2.49499995E-02  -1.17905585E-09
  -2.49000005E-02  -7.43229533E-10
  -2.48499997E-02   7.17770843E-11
  -2.48000007E-02   9.33239597E-10
  -2.47499999E-02   1.47241364E-09
  -2.47000009E-02   1.44948420E-09
  -2.46500000E-02   8.67572292E-10
  -2.45999992E-02  -1.80204306E-11
  -2.45500002E-02  -8.04143974E-10
  -2.44999994E-02  -1.11555587E-09
  -2.44500004E-02  -7.75802422E-10
  -2.43999995E-02   1.04206657E-10
  -2.43500005E-02   1.16354837E-09
  -2.42999997E-02   1.94318295E-09
  -2.42500007E-02   2.08877915E-09
  -2.41999999E-02   1.51509660E-09
  -2.41500009E-02   4.56062826E-10
  -2.41000000E-02  -6.26976582E-10
  -2.40499992E-02  -1.24351729E-09
  -2.40000002E-02  -1.09377085E-09
  -2.39499994E-02  -2.11896556E-10
  -2.39000004E-02   1.03526088E-09
  -2.38499995E-02   2.09947237E-09
  -2.38000005E-02   2.49057486E-09
  -2.37499997E-02   1.99982586E-09
  -2.37000007E-02   8.05809475E-10
  -2.36499999E-02  -5.89747973E-10
  -2.36000009E-02  -1.57442881E-09
  -2.35500000E-02  -1.69627856E-09
  -2.34999992E-02  -8.73936146E-10
  -2.34500002E-02   5.51441837E-10
  -2.33999994E-02   1.95238670E-09
  -2.33500004E-02   2.68585709E-09
  -2.32999995E-02   2.38212228E-09
  -2.32500006E-02   1.12246989E-09
  -2.31999997E-02  -5.78807779E-10
  -2.31500007E-02  -1.98800754E-09
  -2.30999999E-02  -2.47299470E-09
  -2.30500009E-02  -1.79146509E-09
  -2.30000000E-02  -2.15457499E-10
  -2.29499992E-02   1.57049951E-09
  -2.29000002E-02   2.76086753E-09
  -2.28499994E-02   2.78666401E-09
  -2.28000004E-02   1.58090074E-09
  -2.27499995E-02  -3.71167791E-10
  -2.27000006E-02  -2.22814767E-09
  -2.26499997E-02  -3.15652859E-09
  -2.26000007E-02  -2.70557199E-09
  -2.25499999E-02  -1.02491715E-09
  -2.25000009E-02   1.17911747E-09
  -2.24500000E-02   2.93914892E-09
  -2.23999992E-02   3.45122197E-09
  -2.23500002E-02   2.44239740E-09
  -2.22999994E-02   3.13999604E-10
  -2.22500004E-02  -2.01255501E-09
  -2.21999995E-02  -3.48957219E-09
  -2.21500006E-02  -3.40880613E-09
  -2.20999997E-02  -1.73259429E-09
  -2.20500007E-02   8.63532523E-10
  -2.19999999E-02   3.26693117E-09
  -2.19500009E-02   4.41071490E-09
  -2.19000001E-02   3.75432840E-09
  -2.18499992E-02   1.54585389E-09
  -2.18000002E-02  -1.26001376E-09
  -2.17499994E-02  -3.40445405E-09
  -2.17000004E-02  -3.87869425E-09
  -2.16499995E-02  -2.38664555E-09
  -2.16000006E-02   4.95197716E-10
  -2.15499997E-02   3.54367358E-09
  -2.15000007E-02   5.41353939E-09
  -2.14499999E-02   5.23620169E-09
  -2.14000009E-02   3.02647263E-09
  -2.13500001E-02  -2.92314201E-10
  -2.12999992E-02  -3.27008065E-09
  -2.12500002E-02  -4.56208404E-09
  -2.11999994E-02  -3.53662588E-09
  -2.11500004E-02  -5.84675086E-10
  -2.10999995E-02   3.01835579E-09
  -2.10500006E-02   5.65273783E-09
  -2.09999997E-02   6.06841111E-09
  -2.09500007E-02   3.95855571E-09
  -2.08999999E-02   1.30283756E-10
  -2.08500009E-02  -3.81845355E-09
  -2.08000001E-02  -6.18819662E-09
  -2.07499992E-02  -5.93707616E-09
  -2.07000002E-02  -3.17145199E-09
  -2.06499994E-02   8.61494653E-10
  -2.06000004E-02   4.29327152E-09
  -2.05499995E-02   5.45037571E-09
  -2.05000006E-02   3.61139230E-09
  -2.04499997E-02  -6.36823705E-10
  -2.04000007E-02  -5.61744606E-09
  -2.03499999E-02  -9.27816313E-09
  -2.03000009E-02  -1.00982254E-08
  -2.02500001E-02  -7.78768872E-09
  -2.01999992E-02  -3.45818441E-09
  -2.01500002E-02   8.29180058E-10
  -2.00999994E-02   2.95686964E-09
  -2.00500004E-02   1.69909764E-09
  -1.99999996E-02  -2.69828448E-09
  -1.99500006E-02  -8.57844462E-09
  -1.98999997E-02  -1.35686822E-08
  -1.98500007E-02  -1.56191220E-08
  -1.97999999E-02  -1.39304648E-08
  -1.97500009E-02  -9.35119360E-09
  -1.97000001E-02  -4.04896072E-09
  -1.96499992E-02  -5.80031745E-10
  -1.96000002E-02  -7.54646567E-10
  -1.95499994E-02  -4.80039031E-09
  -1.95000004E-02  -1.12080887E-08
  -1.94499996E-02  -1.73509491E-08
  -1.94000006E-02  -2.06238386E-08
  -1.93499997E-02  -1.96084748E-08
  -1.93000007E-02  -1.47431152E-08
  -1.92499999E-02  -8.18128321E-09
  -1.92000009E-02  -2.87771207E-09
  -1.91500001E-02  -1.28728961E-09
  -1.90999992E-02  -4.24808633E-09
  -1.90500002E-02  -1.05545830E-08
  -1.89999994E-02  -1.74333206E-08
  -1.89500004E-02  -2.17352092E-08
  -1.88999996E-02  -2.13320419E-08
  -1.88500006E-02  -1.60978448E-08
  -1.87999997E-02  -8.02310840E-09
  -1.87500007E-02  -3.84980825E-10
  -1.86999999E-02   3.68285358E-09
  -1.86500009E-02   2.59791610E-09
  -1.86000001E-02  -2.91672531E-09
  -1.85499992E-02  -1.00882431E-08
  -1.85000002E-02  -1.52747663E-08
  -1.84499994E-02  -1.55691957E-08
  -1.84000004E-02  -1.01202984E-08
  -1.83499996E-02  -5.71797443E-10
  -1.83000006E-02   9.60214130E-09
  -1.82499997E-02   1.65988041E-08
  -1.82000007E-02   1.79775981E-08
  -1.81499999E-02   1.37883074E-08
  -1.81000009E-02   6.61643140E-09
  -1.80500001E-02   4.95329056E-10
  -1.79999992E-02  -8.59455840E-10
  -1.79500002E-02   4.27756763E-09
  -1.78999994E-02   1.48135175E-08
  -1.78500004E-02   2.72461076E-08
  -1.77999996E-02   3.71603868E-08
  -1.77500006E-02   4.11731307E-08
  -1.76999997E-02   3.84674870E-08
  -1.76500008E-02   3.12209174E-08
  -1.75999999E-02   2.37058639E-08
  -1.75500009E-02   2.04302548E-08
  -1.75000001E-02   2.41240503E-08
  -1.74499992E-02   3.44676074E-08
  -1.74000002E-02   4.81494098E-08
  -1.73499994E-02   6.02615486E-08
  -1.73000004E-02   6.64435547E-08
  -1.72499996E-02   6.48359091E-08
  -1.72000006E-02   5.69654794E-08
  -1.71499997E-02   4.71406523E-08
  -1.71000008E-02   4.05888265E-08
  -1.70499999E-02   4.11369427E-08
  -1.70000009E-02   4.94595547E-08
  -1.69500001E-02   6.26907948E-08
  -1.68999992E-02   7.56070122E-08
  -1.68500002E-02   8.28904163E-08
  -1.67999994E-02   8.14892829E-08
  -1.67500004E-02   7.20238233E-08
  -1.66999996E-02   5.85871156E-08
  -1.66500006E-02   4.69917723E-08
  -1.65999997E-02   4.22080539E-08
  -1.65500008E-02   4.61174778E-08
  -1.64999999E-02   5.65917340E-08
  -1.64500009E-02   6.83386361E-08
  -1.64000001E-02   7.51789457E-08
  -1.63499992E-02   7.27715772E-08
  -1.63000003E-02   6.05817050E-08
  -1.62499994E-02   4.21970654E-08
  -1.62000004E-02   2.38137545E-08
  -1.61499996E-02   1.15254952E-08
  -1.61000006E-02   8.59792149E-09
  -1.60499997E-02   1.39428309E-08
  -1.60000008E-02   2.24992682E-08
  -1.59499999E-02   2.73935861E-08
  -1.59000009E-02   2.29549766E-08
  -1.58500001E-02   7.26129867E-09
  -1.57999992E-02  -1.69293344E-08
  -1.57500003E-02  -4.33109406E-08
  -1.56999994E-02  -6.47659917E-08
  -1.56500004E-02  -7.65209620E-08
  -1.55999996E-02  -7.83240708E-08
  -1.55499997E-02  -7.46549560E-08
  -1.54999997E-02  -7.28312273E-08
  -1.54499998E-02  -7.98114357E-08
  -1.53999999E-02  -9.90908191E-08
  -1.53500000E-02  -1.29073953E-07
  -1.53000001E-02  -1.63679189E-07
  -1.52500002E-02  -1.94951269E-07
  -1.52000003E-02  -2.16560252E-07
  -1.51500003E-02  -2.26647316E-07
  -1.51000004E-02  -2.28737704E-07
  -1.50499996E-02  -2.30275930E-07
  -1.49999997E-02  -2.39388015E-07
  -1.49499997E-02  -2.61275972E-07
  -1.48999998E-02  -2.95841318E-07
  -1.48499999E-02  -3.37619156E-07
  -1.48000000E-02  -3.78096445E-07
  -1.47500001E-02  -4.09430299E-07
  -1.47000002E-02  -4.27938915E-07
  -1.46500003E-02  -4.35808914E-07
  -1.46000003E-02  -4.40225733E-07
  -1.45500004E-02  -4.50265503E-07
  -1.44999996E-02  -4.72887848E-07
  -1.44499997E-02  -5.09794177E-07
  -1.43999998E-02  -5.56564373E-07
  -1.43499998E-02  -6.04497586E-07
  -1.42999999E-02  -6.44389161E-07
  -1.42500000E-02  -6.70599718E-07
  -1.42000001E-02  -6.83615440E-07
  -1.41500002E-02  -6.89932904E-07
  -1.41000003E-02  -6.99274096E-07
  -1.40500003E-02  -7.20318042E-07
  -1.40000004E-02  -7.56821066E-07
  -1.39499996E-02  -8.05855223E-07
  -1.38999997E-02  -8.58983867E-07
  -1.38499998E-02  -9.05904415E-07
  -1.37999998E-02  -9.38982851E-07
  -1.37499999E-02  -9.56682584E-07
  -1.37000000E-02  -9.64344849E-07
  -1.36500001E-02  -9.71932195E-07
  -1.36000002E-02  -9.89683031E-07
  -1.35500003E-02  -1.02357046E-06
  -1.35000004E-02  -1.07257938E-06
  -1.34500004E-02  -1.12904047E-06
  -1.33999996E-02  -1.18192315E-06
  -1.33499997E-02  -1.22167489E-06
  -1.32999998E-02  -1.24448502E-06
  -1.32499998E-02  -1.25407155E-06
  -1.31999999E-02  -1.26015868E-06
  -1.31500000E-02  -1.27426995E-06
  -1.31000001E-02  -1.30465571E-06
  -1.30500002E-02  -1.35258961E-06
  -1.30000003E-02  -1.41170699E-06
  -1.29500004E-02  -1.47072035E-06
  -1.29000004E-02  -1.51835468E-06
  -1.28499996E-02  -1.54836357E-06
  -1.27999997E-02  -1.56239037E-06
  -1.27499998E-02  -1.56937517E-06
  -1.26999998E-02  -1.58172531E-06
  -1.26499999E-02  -1.60988827E-06
  -1.26000000E-02  -1.65771314E-06
  -1.25500001E-02  -1.72066893E-06
  -1.25000002E-02  -1.78774928E-06
  -1.24500003E-02  -1.84627629E-06
  -1.24000004E-02  -1.88751881E-06
  -1.23500004E-02  -1.91064169E-06
  -1.22999996E-02  -1.92321568E-06
  -1.22499997E-02  -1.93801498E-06
  -1.21999998E-02  -1.96746669E-06
  -1.21499998E-02  -2.01817443E-06
  -1.20999999E-02  -2.08794609E-06
  -1.20500000E-02  -2.16667672E-06
  -1.20000001E-02  -2.24074574E-06
  -1.19500002E-02  -2.29903821E-06
  -1.19000003E-02  -2.33793207E-06
  -1.18500004E-02  -2.36303708E-06
  -1.18000004E-02  -2.38687335E-06
  -1.17499996E-02  -2.42345936E-06
  -1.16999997E-02  -2.48216315E-06
  -1.16499998E-02  -2.56352700E-06
  -1.15999999E-02  -2.65894914E-06
  -1.15499999E-02  -2.75440425E-06
  -1.15000000E-02  -2.83661461E-06
  -1.14500001E-02  -2.89896707E-06
  -1.14000002E-02  -2.94456095E-06
  -1.13500003E-02  -2.98500277E-06
  -1.13000004E-02  -3.03541810E-06
  -1.12500004E-02  -3.10785254E-06
  -1.11999996E-02  -3.20595018E-06
  -1.11499997E-02  -3.32326749E-06
  -1.10999998E-02  -3.44604587E-06
  -1.10499999E-02  -3.55924794E-06
  -1.09999999E-02  -3.65321716E-06
  -1.09500000E-02  -3.72804607E-06
  -1.09000001E-02  -3.79368112E-06
  -1.08500002E-02  -3.86567945E-06
  -1.08000003E-02  -3.95842471E-06
  -1.07500004E-02  -4.07877906E-06
  -1.07000005E-02  -4.22298581E-06
  -1.06499996E-02  -4.37825247E-06
  -1.05999997E-02  -4.52832091E-06
  -1.05499998E-02  -4.66063102E-06
  -1.04999999E-02  -4.77195317E-06
  -1.04499999E-02  -4.86994713E-06
  -1.04000000E-02  -4.96993152E-06
  -1.03500001E-02  -5.08823905E-06
  -1.03000002E-02  -5.23504787E-06
  -1.02500003E-02  -5.40985047E-06
  -1.02000004E-02  -5.60160152E-06
  -1.01500005E-02  -5.79351718E-06
  -1.00999996E-02  -5.97044937E-06
  -1.00499997E-02  -6.12562008E-06
  -9.99999978E-03  -6.26373776E-06
  -9.94999986E-03  -6.39906375E-06
  -9.89999995E-03  -6.54923451E-06
  -9.85000003E-03  -6.72753595E-06
  -9.80000012E-03  -6.93700804E-06
  -9.75000020E-03  -7.16903378E-06
  -9.70000029E-03  -7.40706218E-06
  -9.65000037E-03  -7.63383105E-06
  -9.60000046E-03  -7.83899850E-06
  -9.54999961E-03  -8.02382510E-06
  -9.49999969E-03  -8.20073092E-06
  -9.44999978E-03  -8.38796495E-06
  -9.39999986E-03  -8.60164982E-06
  -9.34999995E-03  -8.84868587E-06
  -9.30000003E-03  -9.12367432E-06
  -9.25000012E-03  -9.41123562E-06
  -9.20000020E-03  -9.69275607E-06
  -9.15000029E-03  -9.95461869E-06
  -9.10000037E-03  -1.01943060E-05
  -9.05000046E-03  -1.04216697E-05
  -8.99999961E-03  -1.06547441E-05
  -8.94999970E-03  -1.09119137E-05
  -8.89999978E-03  -1.12038806E-05
  -8.84999987E-03  -1.15289458E-05
  -8.79999995E-03  -1.18736780E-05
  -8.75000004E-03  -1.22187912E-05
  -8.70000012E-03  -1.25476636E-05
  -8.65000021E-03  -1.28537395E-05
  -8.60000029E-03  -1.31435554E-05
  -8.55000038E-03  -1.34340025E-05
  -8.50000046E-03  -1.37450488E-05
  -8.44999962E-03  -1.40910424E-05
  -8.39999970E-03  -1.44743954E-05
  -8.34999979E-03  -1.48845247E-05
  -8.29999987E-03  -1.53025067E-05
  -8.24999996E-03  -1.57094146E-05
  -8.20000004E-03  -1.60947639E-05
  -8.15000013E-03  -1.64613430E-05
  -8.10000021E-03  -1.68240949E-05
  -8.05000030E-03  -1.72037890E-05
  -8.00000038E-03  -1.76180711E-05
  -7.95000046E-03  -1.80737406E-05
  -7.89999962E-03  -1.85638310E-05
  -7.84999970E-03  -1.90706869E-05
  -7.79999979E-03  -1.95737721E-05
  -7.74999987E-03  -2.00587674E-05
  -7.69999996E-03  -2.05241158E-05
  -7.65000004E-03  -2.09818263E-05
  -7.60000013E-03  -2.14523843E-05
  -7.55000021E-03  -2.19559915E-05
  -7.49999983E-03  -2.25036965E-05
  -7.44999992E-03  -2.30926544E-05
  -7.40000000E-03  -2.37073727E-05
  -7.35000009E-03  -2.43266004E-05
  -7.30000017E-03  -2.49327550E-05
  -7.24999979E-03  -2.55197301E-05
  -7.19999988E-03  -2.60958896E-05
  -7.14999996E-03  -2.66805946E-05
  -7.10000005E-03  -2.72959005E-05
  -7.05000013E-03  -2.79570304E-05
  -7.00000022E-03  -2.86658051E-05
  -6.94999984E-03  -2.94098591E-05
  -6.89999992E-03  -3.01681830E-05
  -6.85000001E-03  -3.09205352E-05
  -6.80000009E-03  -3.16564292E-05
  -6.75000018E-03  -3.23799431E-05
  -6.69999979E-03  -3.31082301E-05
  -6.64999988E-03  -3.38641439E-05
  -6.59999996E-03  -3.46663401E-05
  -6.55000005E-03  -3.55213124E-05
  -6.50000013E-03  -3.64205844E-05
  -6.45000022E-03  -3.73445218E-05
  -6.39999984E-03  -3.82710277E-05
  -6.34999992E-03  -3.91852263E-05
  -6.30000001E-03  -4.00863864E-05
  -6.25000009E-03  -4.09883542E-05
  -6.20000018E-03  -4.19136450E-05
  -6.14999980E-03  -4.28839230E-05
  -6.09999988E-03  -4.39105133E-05
  -6.04999997E-03  -4.49895633E-05
  -6.00000005E-03  -4.61037671E-05
  -5.95000014E-03  -4.72300489E-05
  -5.90000022E-03  -4.83498407E-05
  -5.84999984E-03  -4.94573651E-05
  -5.79999993E-03  -5.05625103E-05
  -5.75000001E-03  -5.16866494E-05
  -5.70000010E-03  -5.28534620E-05
  -5.65000018E-03  -5.40787914E-05
  -5.59999980E-03  -5.53638165E-05
  -5.54999989E-03  -5.66946073E-05
  -5.49999997E-03  -5.80483502E-05
  -5.45000006E-03  -5.94034900E-05
  -5.40000014E-03  -6.07491784E-05
  -5.35000023E-03  -6.20903957E-05
  -5.29999984E-03  -6.34460157E-05
  -5.24999993E-03  -6.48405621E-05
  -5.20000001E-03  -6.62938764E-05
  -5.15000010E-03  -6.78124270E-05
  -5.10000018E-03  -6.93864058E-05
  -5.04999980E-03  -7.09943997E-05
  -4.99999989E-03  -7.26127546E-05
  -4.94999997E-03  -7.42259508E-05
  -4.90000006E-03  -7.58336973E-05
  -4.85000014E-03  -7.74514265E-05
  -4.80000023E-03  -7.91038328E-05
  -4.74999985E-03  -8.08140176E-05
  -4.69999993E-03  -8.25937459E-05
  -4.65000002E-03  -8.44383394E-05
  -4.60000010E-03  -8.63288369E-05
  -4.55000019E-03  -8.82406239E-05
  -4.49999981E-03  -9.01540843E-05
  -4.44999989E-03  -9.20636085E-05
  -4.39999998E-03  -9.39803795E-05
  -4.35000006E-03  -9.59274184E-05
  -4.30000015E-03  -9.79302422E-05
  -4.25000023E-03  -1.00005571E-04
  -4.19999985E-03  -1.02154176E-04
  -4.14999994E-03  -1.04360821E-04
  -4.10000002E-03  -1.06600804E-04
  -4.05000011E-03  -1.08851134E-04
  -4.00000019E-03  -1.11100722E-04
  -3.94999981E-03  -1.13355418E-04
  -3.89999989E-03  -1.15635899E-04
  -3.84999998E-03  -1.17969073E-04
  -3.80000006E-03  -1.20376295E-04
  -3.74999992E-03  -1.22864221E-04
  -3.70000000E-03  -1.25421735E-04
  -3.65000009E-03  -1.28025422E-04
  -3.59999994E-03  -1.30650238E-04
  -3.55000002E-03  -1.33280220E-04
  -3.50000011E-03  -1.35915674E-04
  -3.44999996E-03  -1.38573654E-04
  -3.40000005E-03  -1.41281111E-04
  -3.34999990E-03  -1.44063088E-04
  -3.29999998E-03  -1.46931779E-04
  -3.25000007E-03  -1.49881962E-04
  -3.19999992E-03  -1.52892724E-04
  -3.15000000E-03  -1.55937203E-04
  -3.10000009E-03  -1.58994852E-04
  -3.04999994E-03  -1.62060227E-04
  -3.00000003E-03  -1.65145932E-04
  -2.95000011E-03  -1.68277344E-04
  -2.89999996E-03  -1.71482185E-04
  -2.85000005E-03  -1.74778514E-04
  -2.79999990E-03  -1.78166607E-04
  -2.74999999E-03  -1.81629264E-04
  -2.70000007E-03  -1.85139404E-04
  -2.64999992E-03  -1.88672188E-04
  -2.60000001E-03  -1.92215943E-04
  -2.55000009E-03  -1.95777902E-04
  -2.49999994E-03  -1.99381917E-04
  -2.45000003E-03  -2.03057760E-04
  -2.40000011E-03  -2.06828176E-04
  -2.34999997E-03  -2.10699058E-04
  -2.30000005E-03  -2.14657950E-04
  -2.24999990E-03  -2.18679241E-04
  -2.19999999E-03  -2.22734685E-04
  -2.15000007E-03  -2.26807228E-04
  -2.09999993E-03  -2.30898542E-04
  -2.05000001E-03  -2.35028419E-04
  -2.00000009E-03  -2.39226705E-04
  -1.94999995E-03  -2.43520393E-04
  -1.90000003E-03  -2.47921766E-04
  -1.85000000E-03  -2.52423080E-04
  -1.79999997E-03  -2.57000909E-04
  -1.75000005E-03  -2.61626294E-04
  -1.70000002E-03  -2.66276504E-04
  -1.64999999E-03  -2.70946388E-04
  -1.59999996E-03  -2.75650644E-04
  -1.55000004E-03  -2.80417822E-04
  -1.50000001E-03  -2.85278191E-04
  -1.44999998E-03  -2.90250086E-04
  -1.39999995E-03  -2.95332196E-04
  -1.35000004E-03  -3.00504966E-04
  -1.30000000E-03  -3.05738271E-04
  -1.24999997E-03  -3.11004696E-04
  -1.20000006E-03  -3.16292862E-04
  -1.15000003E-03  -3.21612431E-04
  -1.09999999E-03  -3.26989422E-04
  -1.04999996E-03  -3.32456199E-04
  -1.00000005E-03  -3.38037498E-04
  -9.50000016E-04  -3.43738648E-04
  -8.99999985E-04  -3.49542475E-04
  -8.50000011E-04  -3.55418859E-04
  -7.99999980E-04  -3.61337909E-04
  -7.50000007E-04  -3.67281114E-04
  -6.99999975E-04  -3.73251532E-04
  -6.50000002E-04  -3.79272766E-04
  -6.00000028E-04  -3.85378225E-04
  -5.49999997E-04  -3.91597103E-04
  -5.00000024E-04  -3.97940952E-04
  -4.49999992E-04  -4.04399616E-04
  -3.99999990E-04  -4.10944311E-04
  -3.49999988E-04  -4.17538948E-04
  -3.00000014E-04  -4.24158847E-04
  -2.50000012E-04  -4.30801883E-04
  -1.99999995E-04  -4.37487441E-04
  -1.50000007E-04  -4.44250298E-04
  -9.99999975E-05  -4.51124739E-04
  -4.99999987E-05  -4.58127848E-04
   0.00000000      -4.65253601E-04
   4.99999987E-05  -4.72475222E-04
   9.99999975E-05  -4.79756389E-04
   1.50000007E-04  -4.87066485E-04
   1.99999995E-04  -4.94395674E-04
   2.50000012E-04  -5.01760049E-04
   3.00000014E-04  -5.09191945E-04
   3.49999988E-04  -5.16727101E-04
   3.99999990E-04  -5.24389034E-04
   4.49999992E-04  -5.32179081E-04
   5.00000024E-04  -5.40074834E-04
   5.49999997E-04  -5.48038690E-04
   6.00000028E-04  -5.56035782E-04
   6.50000002E-04  -5.64049638E-04
   6.99999975E-04  -5.72088466E-04
   7.50000007E-04  -5.80180320E-04
   7.99999980E-04  -5.88363211E-04
   8.50000011E-04  -5.96668571E-04
   8.99999985E-04  -6.05104608E-04
   9.50000016E-04  -6.13652111E-04
   1.00000005E-03  -6.22274762E-04
   1.04999996E-03  -6.30933500E-04
   1.09999999E-03  -6.39602658E-04
   1.15000003E-03  -6.48283574E-04
   1.20000006E-03  -6.57002616E-04
   1.24999997E-03  -6.65798783E-04
   1.30000000E-03  -6.74708106E-04
   1.35000004E-03  -6.83747523E-04
   1.39999995E-03  -6.92904054E-04
   1.44999998E-03  -7.02141202E-04
   1.50000001E-03  -7.11414847E-04
   1.55000004E-03  -7.20690528E-04
   1.59999996E-03  -7.29964115E-04
   1.64999999E-03  -7.39258016E-04
   1.70000002E-03  -7.48610531E-04
   1.75000005E-03  -7.58061884E-04
   1.79999997E-03  -7.67634425E-04
   1.85000000E-03  -7.77321518E-04
   1.90000003E-03  -7.87088182E-04
   1.94999995E-03  -7.96888897E-04
   2.00000009E-03  -8.06686061E-04
   2.05000001E-03  -8.16465879E-04
   2.09999993E-03  -8.26245756E-04
   2.15000007E-03  -8.36062478E-04
   2.19999999E-03  -8.45956558E-04
   2.24999990E-03  -8.55956110E-04
   2.30000005E-03  -8.66060611E-04
   2.34999997E-03  -8.76241364E-04
   2.40000011E-03  -8.86452210E-04
   2.45000003E-03  -8.96649552E-04
   2.49999994E-03  -9.06812667E-04
   2.55000009E-03  -9.16952791E-04
   2.60000001E-03  -9.27102927E-04
   2.64999992E-03  -9.37304867E-04
   2.70000007E-03  -9.47595981E-04
   2.74999999E-03  -9.57982906E-04
   2.79999990E-03  -9.68438457E-04