  -3.99999991E-02   0.00000000    
  -3.99499983E-02   0.00000000    
  -3.99000011E-02   0.00000000    
  -3.98500003E-02   0.00000000    
  -3.97999994E-02   0.00000000    
  -3.97499986E-02  -5.45109764E-23
  -3.97000015E-02  -6.57804073E-22
  -3.96500006E-02  -4.15855319E-21
  -3.95999998E-02  -1.82211507E-20
  -3.95499989E-02  -6.18876953E-20
  -3.95000018E-02  -1.72972100E-19
  -3.94500010E-02  -4.12692841E-19
  -3.94000001E-02  -8.61448792E-19
  -3.93499993E-02  -1.60118943E-18
  -3.92999984E-02  -2.68665161E-18
  -3.92500013E-02  -4.11817451E-18
  -3.92000005E-02  -5.83687798E-18
  -3.91499996E-02  -7.76065979E-18
  -3.90999988E-02  -9.86215019E-18
  -3.90500017E-02  -1.22618152E-17
  -3.90000008E-02  -1.52855516E-17
  -3.89500000E-02  -1.94347541E-17
  -3.88999991E-02  -2.52485566E-17
  -3.88499983E-02  -3.30950761E-17
  -3.88000011E-02  -4.29840898E-17
  -3.87500003E-02  -5.45132240E-17
  -3.86999995E-02  -6.70199533E-17
  -3.86499986E-02  -7.99170755E-17
  -3.86000015E-02  -9.30776249E-17
  -3.85500006E-02  -1.07064455E-16
  -3.84999998E-02  -1.23023290E-16
  -3.84499989E-02  -1.42190137E-16
  -3.84000018E-02  -1.65162888E-16
  -3.83500010E-02  -1.91257935E-16
  -3.83000001E-02  -2.18312128E-16
  -3.82499993E-02  -2.43142316E-16
  -3.81999984E-02  -2.62579128E-16
  -3.81500013E-02  -2.74676453E-16
  -3.81000005E-02  -2.79530984E-16
  -3.80499996E-02  -2.79238493E-16
  -3.79999988E-02  -2.76858622E-16
  -3.79500017E-02  -2.74723331E-16
  -3.79000008E-02  -2.72788761E-16
  -3.78500000E-02  -2.67805613E-16
  -3.77999991E-02  -2.53790473E-16
  -3.77499983E-02  -2.23716092E-16
  -3.77000012E-02  -1.71746399E-16
  -3.76500003E-02  -9.50150341E-17
  -3.75999995E-02   5.91849755E-18
  -3.75499986E-02   1.28230108E-16
  -3.75000015E-02   2.69146095E-16
  -3.74500006E-02   4.28370714E-16
  -3.73999998E-02   6.09478481E-16
  -3.73499990E-02   8.19549481E-16
  -3.73000018E-02   1.06708724E-15
  -3.72500010E-02   1.35899904E-15
  -3.72000001E-02   1.69781518E-15
  -3.71499993E-02   2.08020937E-15
  -3.70999984E-02   2.49734472E-15
  -3.70500013E-02   2.93686757E-15
  -3.70000005E-02   3.38583146E-15
  -3.69499996E-02   3.83364232E-15
  -3.68999988E-02   4.27429088E-15
  -3.68500017E-02   4.70744956E-15
  -3.68000008E-02   5.13824077E-15
  -3.67500000E-02   5.57554355E-15
  -3.66999991E-02   6.02877267E-15
  -3.66499983E-02   6.50337709E-15
  -3.66000012E-02   6.99597122E-15
  -3.65500003E-02   7.49078415E-15
  -3.64999995E-02   7.95941783E-15
  -3.64499986E-02   8.36523640E-15
  -3.64000015E-02   8.67190722E-15
  -3.63500006E-02   8.85335100E-15
  -3.62999998E-02   8.90060612E-15
  -3.62499990E-02   8.82131197E-15
  -3.62000018E-02   8.62998925E-15
  -3.61500010E-02   8.33180232E-15
  -3.61000001E-02   7.90682640E-15
  -3.60499993E-02   7.30380840E-15
  -3.59999985E-02   6.44994710E-15
  -3.59500013E-02   5.27644224E-15
  -3.59000005E-02   3.75090668E-15
  -3.58499996E-02   1.90150998E-15
  -3.57999988E-02  -1.82103124E-16
  -3.57500017E-02  -2.37788322E-15
  -3.57000008E-02  -4.58340158E-15
  -3.56500000E-02  -6.77025303E-15
  -3.55999991E-02  -9.01414580E-15
  -3.55499983E-02  -1.14801298E-14
  -3.55000012E-02  -1.43604475E-14
  -3.54500003E-02  -1.77856912E-14
  -3.53999995E-02  -2.17476472E-14
  -3.53499986E-02  -2.60740221E-14
  -3.53000015E-02  -3.04771467E-14
  -3.52500007E-02  -3.46658296E-14
  -3.51999998E-02  -3.84759600E-14
  -3.51499990E-02  -4.19578584E-14
  -3.51000018E-02  -4.53689278E-14
  -3.50500010E-02  -4.90583018E-14
  -3.50000001E-02  -5.32819265E-14
  -3.49499993E-02  -5.80278894E-14
  -3.48999985E-02  -6.29407076E-14
  -3.48500013E-02  -6.73995704E-14
  -3.48000005E-02  -7.07385675E-14
  -3.47499996E-02  -7.25252513E-14
  -3.46999988E-02  -7.27713584E-14
  -3.46500017E-02  -7.19628418E-14
  -3.46000008E-02  -7.08674046E-14
  -3.45500000E-02  -7.01799052E-14
  -3.44999991E-02  -7.01544197E-14
  -3.44499983E-02  -7.03994832E-14
  -3.44000012E-02  -6.99588635E-14
  -3.43500003E-02  -6.76780206E-14
  -3.42999995E-02  -6.27170502E-14
  -3.42499986E-02  -5.49804817E-14
  -3.42000015E-02  -4.52432484E-14
  -3.41500007E-02  -3.48707337E-14
  -3.40999998E-02  -2.52151663E-14
  -3.40499990E-02  -1.69399271E-14
  -3.40000018E-02  -9.59203318E-15
  -3.39500010E-02  -1.66511950E-15
  -3.39000002E-02   8.81180742E-15
  -3.38499993E-02   2.33751634E-14
  -3.37999985E-02   4.23111863E-14
  -3.37500013E-02   6.43274293E-14
  -3.37000005E-02   8.69308491E-14
  -3.36499996E-02   1.07417954E-13
  -3.35999988E-02   1.24076910E-13
  -3.35500017E-02   1.37050717E-13
  -3.35000008E-02   1.48408846E-13
  -3.34500000E-02   1.61301880E-13
  -3.33999991E-02   1.78500023E-13
  -3.33499983E-02   2.00947142E-13
  -3.33000012E-02   2.27026311E-13
  -3.32500003E-02   2.52969764E-13
  -3.31999995E-02   2.74345108E-13
  -3.31499986E-02   2.88025625E-13
  -3.31000015E-02   2.93754848E-13
  -3.30500007E-02   2.94512570E-13
  -3.29999998E-02   2.95376435E-13
  -3.29499990E-02   3.01259316E-13
  -3.29000019E-02   3.14479942E-13
  -3.28500010E-02   3.33304483E-13
  -3.28000002E-02   3.52252651E-13
  -3.27499993E-02   3.64203486E-13
  -3.26999985E-02   3.63484525E-13
  -3.26500013E-02   3.48578154E-13
  -3.26000005E-02   3.23126806E-13
  -3.25499997E-02   2.94598926E-13
  -3.24999988E-02   2.71026718E-13
  -3.24500017E-02   2.57183272E-13
  -3.24000008E-02   2.51962595E-13
  -3.23500000E-02   2.48321573E-13
  -3.22999991E-02   2.36053934E-13
  -3.22499983E-02   2.06346089E-13
  -3.22000012E-02   1.56120762E-13
  -3.21500003E-02   9.00883643E-14
  -3.20999995E-02   1.93213738E-14
  -3.20499986E-02  -4.32958824E-14
  -3.20000015E-02  -8.88783608E-14
  -3.19500007E-02  -1.16984262E-13
  -3.18999998E-02  -1.36475453E-13
  -3.18499990E-02  -1.62073859E-13
  -3.18000019E-02  -2.07860598E-13
  -3.17500010E-02  -2.80513839E-13
  -3.17000002E-02  -3.75442705E-13
  -3.16499993E-02  -4.77878316E-13
  -3.15999985E-02  -5.68820110E-13
  -3.15500014E-02  -6.33443439E-13
  -3.15000005E-02  -6.68215808E-13
  -3.14499997E-02  -6.83272070E-13
  -3.13999988E-02  -6.98545442E-13
  -3.13500017E-02  -7.34971003E-13
  -3.13000008E-02  -8.04496660E-13
  -3.12500000E-02  -9.03500798E-13
  -3.11999992E-02  -1.01297703E-12
  -3.11500002E-02  -1.10593923E-12
  -3.10999993E-02  -1.15914624E-12
  -3.10500003E-02  -1.16399544E-12
  -3.09999995E-02  -1.13142969E-12
  -3.09500005E-02  -1.08811018E-12
  -3.08999997E-02  -1.06498740E-12
  -3.08500007E-02  -1.08304186E-12
  -3.07999998E-02  -1.14264056E-12
  -3.07500008E-02  -1.22173842E-12
  -3.07000000E-02  -1.28439674E-12
  -3.06499992E-02  -1.29638173E-12
  -3.06000002E-02  -1.24106313E-12
  -3.05499993E-02  -1.12821829E-12
  -3.05000003E-02  -9.91134692E-13
  -3.04499995E-02  -8.72549266E-13
  -3.04000005E-02  -8.05210228E-13
  -3.03499997E-02  -7.95756419E-13
  -3.03000007E-02  -8.19666709E-13
  -3.02499998E-02  -8.30397979E-13
  -3.02000009E-02  -7.79436411E-13
  -3.01500000E-02  -6.38678780E-13
  -3.00999992E-02  -4.14900292E-13
  -3.00500002E-02  -1.49063948E-13
  -2.99999993E-02   1.00207338E-13
  -2.99500003E-02   2.82357877E-13
  -2.98999995E-02   3.78486684E-13
  -2.98500005E-02   4.11724637E-13
  -2.97999997E-02   4.38754827E-13
  -2.97500007E-02   5.25229870E-13
  -2.96999998E-02   7.15480192E-13
  -2.96500009E-02   1.01020559E-12
  -2.96000000E-02   1.36298741E-12
  -2.95499992E-02   1.69839934E-12
  -2.95000002E-02   1.94465364E-12
  -2.94499993E-02   2.06655483E-12
  -2.94000003E-02   2.08352931E-12
  -2.93499995E-02   2.06349629E-12
  -2.93000005E-02   2.09396758E-12
  -2.92499997E-02   2.24237837E-12
  -2.92000007E-02   2.52333657E-12
  -2.91499998E-02   2.88830418E-12
  -2.91000009E-02   3.24376246E-12
  -2.90500000E-02   3.49110129E-12
  -2.89999992E-02   3.57107703E-12
  -2.89500002E-02   3.49259944E-12
  -2.88999993E-02   3.33172097E-12
  -2.88500004E-02   3.19966015E-12
  -2.87999995E-02   3.19290883E-12
  -2.87500005E-02   3.34743973E-12
  -2.86999997E-02   3.61834239E-12
  -2.86500007E-02   3.89564119E-12
  -2.85999998E-02   4.05095749E-12
  -2.85500009E-02   3.99518916E-12
  -2.85000000E-02   3.72125030E-12
  -2.84499992E-02   3.31142427E-12
  -2.84000002E-02   2.90409298E-12
  -2.83499993E-02   2.63300731E-12
  -2.83000004E-02   2.56557427E-12
  -2.82499995E-02   2.66843969E-12
  -2.82000005E-02   2.81754849E-12
  -2.81499997E-02   2.85031525E-12
  -2.81000007E-02   2.63808658E-12
  -2.80499998E-02   2.14668886E-12
  -2.80000009E-02   1.45672916E-12
  -2.79500000E-02   7.32392500E-13
  -2.78999992E-02   1.50547015E-13
  -2.78500002E-02  -1.79274632E-13
  -2.77999993E-02  -2.67796283E-13
  -2.77500004E-02  -2.46285468E-13
  -2.76999995E-02  -3.11584390E-13
  -2.76500005E-02  -6.38416457E-13
  -2.75999997E-02  -1.29756752E-12
  -2.75500007E-02  -2.21762669E-12
  -2.74999999E-02  -3.20981848E-12
  -2.74500009E-02  -4.04749715E-12
  -2.74000000E-02  -4.56651383E-12
  -2.73499992E-02  -4.74160555E-12
  -2.73000002E-02  -4.70287307E-12
  -2.72499993E-02  -4.68219127E-12
  -2.72000004E-02  -4.91089721E-12
  -2.71499995E-02  -5.51327864E-12
  -2.71000005E-02  -6.44424097E-12
  -2.70499997E-02  -7.50145258E-12
  -2.70000007E-02  -8.40963237E-12
  -2.69499999E-02  -8.94163302E-12
  -2.69000009E-02  -9.02270619E-12
  -2.68500000E-02  -8.76975142E-12
  -2.67999992E-02  -8.44492358E-12
  -2.67500002E-02  -8.34115329E-12
  -2.66999993E-02  -8.64883772E-12
  -2.66500004E-02  -9.36359670E-12
  -2.65999995E-02  -1.02787509E-11
  -2.65500005E-02  -1.10694275E-11
  -2.64999997E-02  -1.14337975E-11
  -2.64500007E-02  -1.12296171E-11
  -2.63999999E-02  -1.05438522E-11
  -2.63500009E-02  -9.66114081E-12
  -2.63000000E-02  -8.94142052E-12
  -2.62499992E-02  -8.65869616E-12
  -2.62000002E-02  -8.87260317E-12
  -2.61499994E-02  -9.39231939E-12
  -2.61000004E-02  -9.85273235E-12
  -2.60499995E-02  -9.87265131E-12
  -2.60000005E-02  -9.22645033E-12
  -2.59499997E-02  -7.95185705E-12
  -2.59000007E-02  -6.34262391E-12
  -2.58499999E-02  -4.82509649E-12
  -2.58000009E-02  -3.77022372E-12
  -2.57500000E-02  -3.32376726E-12
  -2.56999992E-02  -3.33223618E-12
  -2.56500002E-02  -3.40160929E-12
  -2.55999994E-02  -3.06716154E-12
  -2.55500004E-02  -2.00164429E-12
  -2.54999995E-02  -1.69115210E-13
  -2.54500005E-02   2.14704665E-12
  -2.53999997E-02   4.45904555E-12
  -2.53500007E-02   6.28562523E-12
  -2.52999999E-02   7.36715636E-12
  -2.52500009E-02   7.78786324E-12
  -2.52000000E-02   7.94679773E-12
  -2.51499992E-02   8.38545466E-12
  -2.51000002E-02   9.54495337E-12
  -2.50499994E-02   1.15600116E-11
  -2.50000004E-02   1.41839604E-11
  -2.49499995E-02   1.68831390E-11
  -2.49000005E-02   1.90638425E-11
  -2.48499997E-02   2.03339914E-11
  -2.48000007E-02   2.06827316E-11
  -2.47499999E-02   2.04942573E-11
  -2.47000009E-02   2.03841943E-11
  -2.46500000E-02   2.09263440E-11
  -2.45999992E-02   2.23893161E-11
  -2.45500002E-02   2.46019646E-11
  -2.44999994E-02   2.70123802E-11
  -2.44500004E-02   2.89201579E-11
  -2.43999995E-02   2.97829227E-11
  -2.43500005E-02   2.94615686E-11
  -2.42999997E-02   2.82918966E-11
  -2.42500007E-02   2.69449393E-11
  -2.41999999E-02   2.61321433E-11
  -2.41500009E-02   2.62831874E-11
  -2.41000000E-02   2.73405118E-11
  -2.40499992E-02   2.87666817E-11
  -2.40000002E-02   2.97679485E-11
  -2.39499994E-02   2.96403249E-11
  -2.39000004E-02   2.80864967E-11
  -2.38499995E-02   2.53603180E-11
  -2.38000005E-02   2.21687703E-11
  -2.37499997E-02   1.93679968E-11
  -2.37000007E-02   1.75836897E-11
  -2.36499999E-02   1.69239466E-11
  -2.36000009E-02   1.69162479E-11
  -2.35500000E-02   1.67035309E-11
  -2.34999992E-02   1.54190011E-11
  -2.34500002E-02   1.25768276E-11
  -2.33999994E-02   8.30383418E-12
  -2.33500004E-02   3.30362170E-12
  -2.32999995E-02  -1.43862353E-12
  -2.32500006E-02  -5.08574476E-12
  -2.31999997E-02  -7.32382297E-12
  -2.31500007E-02  -8.51314071E-12
  -2.30999999E-02  -9.54069376E-12
  -2.30500009E-02  -1.14317939E-11
  -2.30000000E-02  -1.48879398E-11
  -2.29499992E-02  -1.99560368E-11
  -2.29000002E-02  -2.59809656E-11
  -2.28499994E-02  -3.18707907E-11
  -2.28000004E-02  -3.65646541E-11
  -2.27499995E-02  -3.94994662E-11
  -2.27000006E-02  -4.08663971E-11
  -2.26499997E-02  -4.15364514E-11
  -2.26000007E-02  -4.26794607E-11
  -2.25499999E-02  -4.52387433E-11
  -2.25000009E-02  -4.94928334E-11
  -2.24500000E-02  -5.49030404E-11
  -2.23999992E-02  -6.03229619E-11
  -2.23500002E-02  -6.44860762E-11
  -2.22999994E-02  -6.65606389E-11
  -2.22500004E-02  -6.65252992E-11
  -2.21999995E-02  -6.51924625E-11
  -2.21500006E-02  -6.38593969E-11
  -2.20999997E-02  -6.37332895E-11
  -2.20500007E-02  -6.53815266E-11
  -2.19999999E-02  -6.84538051E-11
  -2.19500009E-02  -7.18077056E-11
  -2.19000001E-02  -7.39920833E-11
  -2.18499992E-02  -7.38815953E-11
  -2.18000002E-02  -7.11824280E-11
  -2.17499994E-02  -6.65797972E-11
  -2.17000004E-02  -6.14521142E-11
  -2.16499995E-02  -5.72685614E-11
  -2.16000006E-02  -5.49316634E-11
  -2.15499997E-02  -5.43574318E-11
  -2.15000007E-02  -5.44870676E-11
  -2.14499999E-02  -5.37360156E-11
  -2.14000009E-02  -5.06905420E-11
  -2.13500001E-02  -4.47466647E-11
  -2.12999992E-02  -3.64042720E-11
  -2.12500002E-02  -2.70763151E-11
  -2.11999994E-02  -1.84862750E-11
  -2.11500004E-02  -1.19131701E-11
  -2.10999995E-02  -7.61772589E-12
  -2.10500006E-02  -4.71064507E-12
  -2.09999997E-02  -1.53258515E-12
  -2.09500007E-02   3.61165655E-12
  -2.08999999E-02   1.16843722E-11
  -2.08500009E-02   2.24543769E-11
  -2.08000001E-02   3.45578705E-11
  -2.07499992E-02   4.60657658E-11
  -2.07000002E-02   5.53159532E-11
  -2.06499994E-02   6.16446963E-11
  -2.06000004E-02   6.56878441E-11
  -2.05499995E-02   6.91072755E-11
  -2.05000006E-02   7.38514805E-11
  -2.04499997E-02   8.12700254E-11
  -2.04000007E-02   9.14744877E-11
  -2.03499999E-02   1.03237120E-10
  -2.03000009E-02   1.14485296E-10
  -2.02500001E-02   1.23184407E-10
  -2.01999992E-02   1.28223918E-10
  -2.01500002E-02   1.29910999E-10
  -2.00999994E-02   1.29842956E-10
  -2.00500004E-02   1.30201377E-10
  -1.99999996E-02   1.32771114E-10
  -1.99500006E-02   1.38116171E-10
  -1.98999997E-02   1.45284035E-10
  -1.98500007E-02   1.52182017E-10
  -1.97999999E-02   1.56471947E-10
  -1.97500009E-02   1.56594779E-10
  -1.97000001E-02   1.52470231E-10
  -1.96499992E-02   1.45552251E-10
  -1.96000002E-02   1.38201825E-10
  -1.95499994E-02   1.32643216E-10
  -1.95000004E-02   1.29961097E-10
  -1.94499996E-02   1.29587327E-10
  -1.94000006E-02   1.29516911E-10
  -1.93499997E-02   1.27171704E-10
  -1.93000007E-02   1.20539773E-10
  -1.92499999E-02   1.09087572E-10
  -1.92000009E-02   9.40333367E-11
  -1.91500001E-02   7.78471593E-11
  -1.90999992E-02   6.31859218E-11
  -1.90500002E-02   5.17274626E-11
  -1.89999994E-02   4.34222033E-11
  -1.89500004E-02   3.65045529E-11
  -1.88999996E-02   2.82731529E-11
  -1.88500006E-02   1.63063885E-11
  -1.87999997E-02  -4.21369401E-13
  -1.87500007E-02  -2.10231589E-11
  -1.86999999E-02  -4.30241294E-11
  -1.86500009E-02  -6.33988209E-11
  -1.86000001E-02  -7.98711444E-11
  -1.85499992E-02  -9.19020762E-11
  -1.85000002E-02  -1.00918704E-10
  -1.84499994E-02  -1.09668850E-10
  -1.84000004E-02  -1.20973259E-10
  -1.83499996E-02  -1.36421777E-10
  -1.83000006E-02  -1.55593788E-10
  -1.82499997E-02  -1.76159878E-10
  -1.82000007E-02  -1.94835231E-10
  -1.81499999E-02  -2.08773859E-10
  -1.81000009E-02  -2.16790086E-10
  -1.80500001E-02  -2.19859964E-10
  -1.79999992E-02  -2.20667581E-10
  -1.79500002E-02  -2.22382418E-10
  -1.78999994E-02  -2.27201855E-10
  -1.78500004E-02  -2.35304443E-10
  -1.77999996E-02  -2.44688297E-10
  -1.77500006E-02  -2.51980770E-10
  -1.76999997E-02  -2.53875448E-10
  -1.76500008E-02  -2.48565085E-10
  -1.75999999E-02  -2.36533210E-10
  -1.75500009E-02  -2.20340995E-10
  -1.75000001E-02  -2.03489586E-10
  -1.74499992E-02  -1.88850977E-10
  -1.74000002E-02  -1.77359599E-10
  -1.73499994E-02  -1.67552486E-10
  -1.73000004E-02  -1.56174240E-10
  -1.72499996E-02  -1.39594655E-10
  -1.72000006E-02  -1.15417023E-10
  -1.71499997E-02  -8.35662511E-11
  -1.71000008E-02  -4.63634062E-11
  -1.70499999E-02  -7.54014125E-12
  -1.70000009E-02   2.93819621E-11
  -1.69500001E-02   6.26343144E-11
  -1.68999992E-02   9.29773550E-11
  -1.68500002E-02   1.23352661E-10
  -1.67999994E-02   1.57551971E-10
  -1.67500004E-02   1.98481107E-10
  -1.66999996E-02   2.46786036E-10
  -1.66500006E-02   3.00457825E-10
  -1.65999997E-02   3.55605240E-10
  -1.65500008E-02   4.08065581E-10
  -1.64999999E-02   4.55146559E-10
  -1.64500009E-02   4.96729713E-10
  -1.64000001E-02   5.35231137E-10
  -1.63499992E-02   5.74427450E-10
  -1.63000003E-02   6.17656204E-10
  -1.62499994E-02   6.66180500E-10
  -1.62000004E-02   7.18449911E-10
  -1.61499996E-02   7.70598085E-10
  -1.61000006E-02   8.17966528E-10
  -1.60499997E-02   8.56992088E-10
  -1.60000008E-02   8.86619278E-10
  -1.59499999E-02   9.08607134E-10
  -1.59000009E-02   9.26579091E-10
  -1.58500001E-02   9.44228917E-10
  -1.57999992E-02   9.63465863E-10
  -1.57500003E-02   9.83329751E-10
  -1.56999994E-02   1.00016118E-09
  -1.56500004E-02   1.00896858E-09
  -1.55999996E-02   1.00539399E-09
  -1.55499997E-02   9.87415483E-10
  -1.54999997E-02   9.56024371E-10
  -1.54499998E-02   9.14567477E-10
  -1.53999999E-02   8.67036554E-10
  -1.53500000E-02   8.16055390E-10
  -1.53000001E-02   7.61452901E-10
  -1.52500002E-02   7.00068836E-10
  -1.52000003E-02   6.26883379E-10
  -1.51500003E-02   5.36984623E-10
  -1.51000004E-02   4.27503644E-10
  -1.50499996E-02   2.98665676E-10
  -1.49999997E-02   1.53474081E-10
  -1.49499997E-02  -3.83934204E-12
  -1.48999998E-02  -1.69920994E-10
  -1.48499999E-02  -3.44026335E-10
  -1.48000000E-02  -5.28602273E-10
  -1.47500001E-02  -7.28457572E-10
  -1.47000002E-02  -9.48874757E-10
  -1.46500003E-02  -1.19349020E-09
  -1.46000003E-02  -1.46288381E-09
  -1.45500004E-02  -1.75451176E-09
  -1.44999996E-02  -2.06401074E-09
  -1.44499997E-02  -2.38731568E-09
  -1.43999998E-02  -2.72265321E-09
  -1.43499998E-02  -3.07151971E-09
  -1.42999999E-02  -3.43821016E-09
  -1.42500000E-02  -3.82809340E-09
  -1.42000001E-02  -4.24539337E-09
  -1.41500002E-02  -4.69145700E-09
  -1.41000003E-02  -5.16427123E-09
  -1.40500003E-02  -5.65947422E-09
  -1.40000004E-02  -6.17239060E-09
  -1.39499996E-02  -6.70022038E-09
  -1.38999997E-02  -7.24340898E-09
  -1.38499998E-02  -7.80556331E-09
  -1.37999998E-02  -8.39198311E-09
  -1.37499999E-02  -9.00740904E-09
  -1.37000000E-02  -9.65401536E-09
  -1.36500001E-02  -1.03305160E-08
  -1.36000002E-02  -1.10328005E-08
  -1.35500003E-02  -1.17558088E-08
  -1.35000004E-02  -1.24958461E-08
  -1.34500004E-02  -1.32522802E-08
  -1.33999996E-02  -1.40278971E-08
  -1.33499997E-02  -1.48277435E-08
  -1.32999998E-02  -1.56569513E-08
  -1.32499998E-02  -1.65185234E-08
  -1.31999999E-02  -1.74120487E-08
  -1.31500000E-02  -1.83339282E-08
  -1.31000001E-02  -1.92790068E-08
  -1.30500002E-02  -2.02429256E-08
  -1.30000003E-02  -2.12241069E-08
  -1.29500004E-02  -2.22245387E-08
  -1.29000004E-02  -2.32489796E-08
  -1.28499996E-02  -2.43029596E-08
  -1.27999997E-02  -2.53904258E-08
  -1.27499998E-02  -2.65120779E-08
  -1.26999998E-02  -2.76651857E-08
  -1.26499999E-02  -2.88448874E-08
  -1.26000000E-02  -3.00464826E-08
  -1.25500001E-02  -3.12676462E-08
  -1.25000002E-02  -3.25096075E-08
  -1.24500003E-02  -3.37767787E-08
  -1.24000004E-02  -3.50749971E-08
  -1.23500004E-02  -3.64091228E-08
  -1.22999996E-02  -3.77811062E-08
  -1.22499997E-02  -3.91893202E-08
  -1.21999998E-02  -4.06295193E-08
  -1.21499998E-02  -4.20969855E-08
  -1.20999999E-02  -4.35888552E-08
  -1.20500000E-02  -4.51056970E-08
  -1.20000001E-02  -4.66515928E-08
  -1.19500002E-02  -4.82326534E-08
  -1.19000003E-02  -4.98546981E-08
  -1.18500004E-02  -5.15210807E-08
  -1.18000004E-02  -5.32316200E-08
  -1.17499996E-02  -5.49831114E-08
  -1.16999997E-02  -5.67712242E-08
  -1.16499998E-02  -5.85928994E-08
  -1.15999999E-02  -6.04482295E-08
  -1.15499999E-02  -6.23409377E-08
  -1.15000000E-02  -6.42773017E-08
  -1.14500001E-02  -6.62639863E-08
  -1.14000002E-02  -6.83056882E-08
  -1.13500003E-02  -7.04037078E-08
  -1.13000004E-02  -7.25560483E-08
  -1.12500004E-02  -7.47589937E-08
  -1.11999996E-02  -7.70094601E-08
  -1.11499997E-02  -7.93071209E-08
  -1.10999998E-02  -8.16553367E-08
  -1.10499999E-02  -8.40604741E-08
  -1.09999999E-02  -8.65299370E-08
  -1.09500000E-02  -8.90697720E-08
  -1.09000001E-02  -9.16829492E-08
  -1.08500002E-02  -9.43689571E-08
  -1.08000003E-02  -9.71250245E-08
  -1.07500004E-02  -9.99483447E-08
  -1.07000005E-02  -1.02838307E-07
  -1.06499996E-02  -1.05797852E-07
  -1.05999997E-02  -1.08833191E-07
  -1.05499998E-02  -1.11952154E-07
  -1.04999999E-02  -1.15161889E-07
  -1.04499999E-02  -1.18466801E-07
  -1.04000000E-02  -1.21867842E-07
  -1.03500001E-02  -1.25363258E-07
  -1.03000002E-02  -1.28950603E-07
  -1.02500003E-02  -1.32629140E-07
  -1.02000004E-02  -1.36401340E-07
  -1.01500005E-02  -1.40273187E-07
  -1.00999996E-02  -1.44252823E-07
  -1.00499997E-02  -1.48348292E-07
  -9.99999978E-03  -1.52565491E-07
  -9.94999986E-03  -1.56906850E-07
  -9.89999995E-03  -1.61371901E-07
  -9.85000003E-03  -1.65958895E-07
  -9.80000012E-03  -1.70667050E-07
  -9.75000020E-03  -1.75498599E-07
  -9.70000029E-03  -1.80459168E-07
  -9.65000037E-03  -1.85557028E-07
  -9.60000046E-03  -1.90801018E-07
  -9.54999961E-03  -1.96198314E-07
  -9.49999969E-03  -2.01752954E-07
  -9.44999978E-03  -2.07465817E-07
  -9.39999986E-03  -2.13335994E-07
  -9.34999995E-03  -2.19362946E-07
  -9.30000003E-03  -2.25548547E-07
  -9.25000012E-03  -2.31898127E-07
  -9.20000020E-03  -2.38419915E-07
  -9.15000029E-03  -2.45123289E-07
  -9.10000037E-03  -2.52016633E-07
  -9.05000046E-03  -2.59105661E-07
  -8.99999961E-03  -2.66392760E-07
  -8.94999970E-03  -2.73878300E-07
  -8.89999978E-03  -2.81562365E-07
  -8.84999987E-03  -2.89447001E-07
  -8.79999995E-03  -2.97537412E-07
  -8.75000004E-03  -3.05842008E-07
  -8.70000012E-03  -3.14370823E-07
  -8.65000021E-03  -3.23133463E-07
  -8.60000029E-03  -3.32137347E-07
  -8.55000038E-03  -3.41386595E-07
  -8.50000046E-03  -3.50883084E-07
  -8.44999962E-03  -3.60627837E-07
  -8.39999970E-03  -3.70623383E-07
  -8.34999979E-03  -3.80875036E-07
  -8.29999987E-03  -3.91391325E-07
  -8.24999996E-03  -4.02182877E-07
  -8.20000004E-03  -4.13260580E-07
  -8.15000013E-03  -4.24633640E-07
  -8.10000021E-03  -4.36308312E-07
  -8.05000030E-03  -4.48288262E-07
  -8.00000038E-03  -4.60576047E-07
  -7.95000046E-03  -4.73174964E-07
  -7.89999962E-03  -4.86090755E-07
  -7.84999970E-03  -4.99332600E-07
  -7.79999979E-03  -5.12911868E-07
  -7.74999987E-03  -5.26840836E-07
  -7.69999996E-03  -5.41130589E-07
  -7.65000004E-03  -5.55789768E-07
  -7.60000013E-03  -5.70824227E-07
  -7.55000021E-03  -5.86238400E-07
  -7.49999983E-03  -6.02036835E-07
  -7.44999992E-03  -6.18226295E-07
  -7.40000000E-03  -6.34816445E-07
  -7.35000009E-03  -6.51819505E-07
  -7.30000017E-03  -6.69249232E-07
  -7.24999979E-03  -6.87118813E-07
  -7.19999988E-03  -7.05439049E-07
  -7.14999996E-03  -7.24218523E-07
  -7.10000005E-03  -7.43463772E-07
  -7.05000013E-03  -7.63181276E-07
  -7.00000022E-03  -7.83379107E-07
  -6.94999984E-03  -8.04067895E-07
  -6.89999992E-03  -8.25261168E-07
  -6.85000001E-03  -8.46974046E-07
  -6.80000009E-03  -8.69221594E-07
  -6.75000018E-03  -8.92017454E-07
  -6.69999979E-03  -9.15372880E-07
  -6.64999988E-03  -9.39297024E-07
  -6.59999996E-03  -9.63798357E-07
  -6.55000005E-03  -9.88886654E-07
  -6.50000013E-03  -1.01457397E-06
  -6.45000022E-03  -1.04087496E-06
  -6.39999984E-03  -1.06780647E-06
  -6.34999992E-03  -1.09538553E-06
  -6.30000001E-03  -1.12362852E-06
  -6.25000009E-03  -1.15254977E-06
  -6.20000018E-03  -1.18216121E-06
  -6.14999980E-03  -1.21247410E-06
  -6.09999988E-03  -1.24349981E-06
  -6.04999997E-03  -1.27525186E-06
  -6.00000005E-03  -1.30774663E-06
  -5.95000014E-03  -1.34100276E-06
  -5.90000022E-03  -1.37503923E-06
  -5.84999984E-03  -1.40987515E-06
  -5.79999993E-03  -1.44552746E-06
  -5.75000001E-03  -1.48201138E-06
  -5.70000010E-03  -1.51934069E-06
  -5.65000018E-03  -1.55752934E-06
  -5.59999980E-03  -1.59659294E-06
  -5.54999989E-03  -1.63654920E-06
  -5.49999997E-03  -1.67741848E-06
  -5.45000006E-03  -1.71922181E-06
  -5.40000014E-03  -1.76198114E-06
  -5.35000023E-03  -1.80571647E-06
  -5.29999984E-03  -1.85044632E-06
  -5.24999993E-03  -1.89618765E-06
  -5.20000001E-03  -1.94295717E-06
  -5.15000010E-03  -1.99077249E-06
  -5.10000018E-03  -2.03965328E-06
  -5.04999980E-03  -2.08962183E-06
  -4.99999989E-03  -2.14070178E-06
  -4.94999997E-03  -2.19291792E-06
  -4.90000006E-03  -2.24629275E-06
  -4.85000014E-03  -2.30084925E-06
  -4.80000023E-03  -2.35660696E-06
  -4.74999985E-03  -2.41358566E-06
  -4.69999993E-03  -2.47180583E-06
  -4.65000002E-03  -2.53128928E-06
  -4.60000010E-03  -2.59206035E-06
  -4.55000019E-03  -2.65414519E-06
  -4.49999981E-03  -2.71757131E-06
  -4.44999989E-03  -2.78236507E-06
  -4.39999998E-03  -2.84855264E-06
  -4.35000006E-03  -2.91615834E-06
  -4.30000015E-03  -2.98520467E-06
  -4.25000023E-03  -3.05571575E-06
  -4.19999985E-03  -3.12771590E-06
  -4.14999994E-03  -3.20123127E-06
  -4.10000002E-03  -3.27629095E-06
  -4.05000011E-03  -3.35292566E-06
  -4.00000019E-03  -3.43116653E-06
  -3.94999981E-03  -3.51104381E-06
  -3.89999989E-03  -3.59258502E-06
  -3.84999998E-03  -3.67581742E-06
  -3.80000006E-03  -3.76076741E-06
  -3.74999992E-03  -3.84746318E-06
  -3.70000000E-03  -3.93593291E-06
  -3.65000009E-03  -4.02620935E-06
  -3.59999994E-03  -4.11832661E-06
  -3.55000002E-03  -4.21231880E-06
  -3.50000011E-03  -4.30822001E-06
  -3.44999996E-03  -4.40606300E-06
  -3.40000005E-03  -4.50587959E-06
  -3.34999990E-03  -4.60769979E-06
  -3.29999998E-03  -4.71155499E-06
  -3.25000007E-03  -4.81747884E-06
  -3.19999992E-03  -4.92550589E-06
  -3.15000000E-03  -5.03567344E-06
  -3.10000009E-03  -5.14802014E-06
  -3.04999994E-03  -5.26258464E-06
  -3.00000003E-03  -5.37940468E-06
  -2.95000011E-03  -5.49851757E-06
  -2.89999996E-03  -5.61995648E-06
  -2.85000005E-03  -5.74375781E-06
  -2.79999990E-03  -5.86995702E-06
  -2.74999999E-03  -5.99859231E-06
  -2.70000007E-03  -6.12970416E-06
  -2.64999992E-03  -6.26333485E-06
  -2.60000001E-03  -6.39952850E-06
  -2.55000009E-03  -6.53832740E-06
  -2.49999994E-03  -6.67977429E-06
  -2.45000003E-03  -6.82390828E-06
  -2.40000011E-03  -6.97076848E-06
  -2.34999997E-03  -7.12039400E-06
  -2.30000005E-03  -7.27282622E-06
  -2.24999990E-03  -7.42810835E-06
  -2.19999999E-03  -7.58628812E-06
  -2.15000007E-03  -7.74741329E-06
  -2.09999993E-03  -7.91153343E-06
  -2.05000001E-03  -8.07869401E-06
  -2.00000009E-03  -8.24894141E-06
  -1.94999995E-03  -8.42231748E-06
  -1.90000003E-03  -8.59886495E-06
  -1.85000000E-03  -8.77862931E-06
  -1.79999997E-03  -8.96165602E-06
  -1.75000005E-03  -9.14799512E-06
  -1.70000002E-03  -9.33769843E-06
  -1.64999999E-03  -9.53082053E-06
  -1.59999996E-03  -9.72741418E-06
  -1.55000004E-03  -9.92752848E-06
  -1.50000001E-03  -1.01312116E-05
  -1.44999998E-03  -1.03385082E-05
  -1.39999995E-03  -1.05494655E-05
  -1.35000004E-03  -1.07641326E-05
  -1.30000000E-03  -1.09825614E-05
  -1.24999997E-03  -1.12048092E-05
  -1.20000006E-03  -1.14309332E-05
  -1.15000003E-03  -1.16609926E-05
  -1.09999999E-03  -1.18950411E-05
  -1.04999996E-03  -1.21331286E-05
  -1.00000005E-03  -1.23753052E-05
  -9.50000016E-04  -1.26216191E-05
  -8.99999985E-04  -1.28721185E-05
  -8.50000011E-04  -1.31268625E-05
  -7.99999980E-04  -1.33859048E-05
  -7.50000007E-04  -1.36493099E-05
  -6.99999975E-04  -1.39171398E-05
  -6.50000002E-04  -1.41894561E-05
  -6.00000028E-04  -1.44663127E-05
  -5.49999997E-04  -1.47477595E-05
  -5.00000024E-04  -1.50338428E-05
  -4.49999992E-04  -1.53246165E-05
  -3.99999990E-04  -1.56201368E-05
  -3.49999988E-04  -1.59204628E-05
  -3.00000014E-04  -1.62256583E-05
  -2.50000012E-04  -1.65357906E-05
  -1.99999995E-04  -1.68509250E-05
  -1.50000007E-04  -1.71711145E-05
  -9.99999975E-05  -1.74964134E-05
  -4.99999987E-05  -1.78268710E-05
   0.00000000      -1.81625364E-05
   4.99999987E-05  -1.85034678E-05
   9.99999975E-05  -1.88497215E-05
   1.50000007E-04  -1.92013667E-05
   1.99999995E-04  -1.95584744E-05
   2.50000012E-04  -1.99211063E-05
   3.00000014E-04  -2.02893225E-05
   3.49999988E-04  -2.06631794E-05
   3.99999990E-04  -2.10427206E-05
   4.49999992E-04  -2.14279953E-05
   5.00000024E-04  -2.18190580E-05
   5.49999997E-04  -2.22159651E-05
   6.00000028E-04  -2.26187858E-05
   6.50000002E-04  -2.30275873E-05
   6.99999975E-04  -2.34424424E-05
   7.50000007E-04  -2.38634038E-05
   7.99999980E-04  -2.42905280E-05
   8.50000011E-04  -2.47238568E-05
   8.99999985E-04  -2.51634374E-05
   9.50000016E-04  -2.56093190E-05
   1.00000005E-03  -2.60615561E-05
   1.04999996E-03  -2.65202161E-05
   1.09999999E-03  -2.69853626E-05
   1.15000003E-03  -2.74570666E-05
   1.20000006E-03  -2.79353862E-05
   1.24999997E-03  -2.84203743E-05
   1.30000000E-03  -2.89120726E-05
   1.35000004E-03  -2.94105230E-05
   1.39999995E-03  -2.99157655E-05
   1.44999998E-03  -3.04278474E-05
   1.50000001E-03  -3.09468269E-05
   1.55000004E-03  -3.14727731E-05
   1.59999996E-03  -3.20057443E-05
   1.64999999E-03  -3.25458059E-05
   1.70000002E-03  -3.30930052E-05
   1.75000005E-03  -3.36473822E-05
   1.79999997E-03  -3.42089588E-05
   1.85000000E-03  -3.47777750E-05
   1.90000003E-03  -3.53538744E-05
   1.94999995E-03  -3.59373007E-05
   2.00000009E-03  -3.65281121E-05
   2.05000001E-03  -3.71263704E-05
   2.09999993E-03  -3.77321303E-05
   2.15000007E-03  -3.83454462E-05
   2.19999999E-03  -3.89663364E-05
   2.24999990E-03  -3.95948300E-05
   2.30000005E-03  -4.02309415E-05
   2.34999997E-03  -4.08747037E-05
   2.40000011E-03  -4.15261566E-05
   2.45000003E-03  -4.21853401E-05
   2.49999994E-03  -4.28523163E-05
   2.55000009E-03  -4.35271286E-05
   2.60000001E-03  -4.42098208E-05
   2.64999992E-03  -4.49004074E-05
   2.70000007E-03  -4.55988993E-05
   2.74999999E-03  -4.63053111E-05
   2.79999990E-03  -4.70196428E-05