  -3.99999991E-02   0.00000000    
  -3.99499983E-02   0.00000000    
  -3.99000011E-02   0.00000000    
  -3.98500003E-02   0.00000000    
  -3.97999994E-02   0.00000000    
  -3.97499986E-02   3.51674949E-21
  -3.97000015E-02   2.70656711E-20
  -3.96500006E-02   1.08466837E-19
  -3.95999998E-02   3.04175430E-19
  -3.95499989E-02   6.82173473E-19
  -3.95000018E-02   1.32991886E-18
  -3.94500010E-02   2.37312121E-18
  -3.94000001E-02   3.95875613E-18
  -3.93499993E-02   6.16532245E-18
  -3.92999984E-02   8.89191117E-18
  -3.92500013E-02   1.18545545E-17
  -3.92000005E-02   1.47596467E-17
  -3.91499996E-02   1.75463835E-17
  -3.90999988E-02   2.04816355E-17
  -3.90500017E-02   2.40034959E-17
  -3.90000008E-02   2.84459637E-17
  -3.89500000E-02   3.38684503E-17
  -3.88999991E-02   4.00501530E-17
  -3.88499983E-02   4.65065028E-17
  -3.88000011E-02   5.24290994E-17
  -3.87500003E-02   5.66990355E-17
  -3.86999995E-02   5.82043653E-17
  -3.86499986E-02   5.63801938E-17
  -3.86000015E-02   5.14825699E-17
  -3.85500006E-02   4.41534188E-17
  -3.84999998E-02   3.44400652E-17
  -3.84499989E-02   2.10149007E-17
  -3.84000018E-02   1.23066618E-18
  -3.83500010E-02  -2.80941439E-17
  -3.83000001E-02  -6.98469986E-17
  -3.82499993E-02  -1.26244173E-16
  -3.81999984E-02  -1.98747480E-16
  -3.81500013E-02  -2.87876958E-16
  -3.81000005E-02  -3.93003197E-16
  -3.80499996E-02  -5.12704437E-16
  -3.79999988E-02  -6.45950502E-16
  -3.79500017E-02  -7.93401362E-16
  -3.79000008E-02  -9.57645498E-16
  -3.78500000E-02  -1.14200423E-15
  -3.77999991E-02  -1.34889626E-15
  -3.77499983E-02  -1.57917159E-15
  -3.77000012E-02  -1.83275610E-15
  -3.76500003E-02  -2.10956520E-15
  -3.75999995E-02  -2.40952223E-15
  -3.75499986E-02  -2.73176913E-15
  -3.75000015E-02  -3.07422710E-15
  -3.74500006E-02  -3.43421928E-15
  -3.73999998E-02  -3.80944979E-15
  -3.73499990E-02  -4.19801260E-15
  -3.73000018E-02  -4.59715612E-15
  -3.72500010E-02  -5.00194894E-15
  -3.72000001E-02  -5.40498881E-15
  -3.71499993E-02  -5.79684785E-15
  -3.70999984E-02  -6.16591069E-15
  -3.70500013E-02  -6.49727507E-15
  -3.70000005E-02  -6.77239476E-15
  -3.69499996E-02  -6.97162707E-15
  -3.68999988E-02  -7.07960259E-15
  -3.68500017E-02  -7.09026293E-15
  -3.68000008E-02  -7.00778606E-15
  -3.67500000E-02  -6.84217502E-15
  -3.66999991E-02  -6.60172863E-15
  -3.66499983E-02  -6.28597169E-15
  -3.66000012E-02  -5.88145331E-15
  -3.65500003E-02  -5.36134756E-15
  -3.64999995E-02  -4.68936667E-15
  -3.64499986E-02  -3.82821114E-15
  -3.64000015E-02  -2.75070900E-15
  -3.63500006E-02  -1.44850596E-15
  -3.62999998E-02   6.79310233E-17
  -3.62499990E-02   1.78018289E-15
  -3.62000018E-02   3.67849384E-15
  -3.61500010E-02   5.77409739E-15
  -3.61000001E-02   8.09881574E-15
  -3.60499993E-02   1.06908289E-14
  -3.59999985E-02   1.35730711E-14
  -3.59500013E-02   1.67342726E-14
  -3.59000005E-02   2.01213134E-14
  -3.58499996E-02   2.36479605E-14
  -3.57999988E-02   2.72197595E-14
  -3.57500017E-02   3.07680890E-14
  -3.57000008E-02   3.42792099E-14
  -3.56500000E-02   3.78016947E-14
  -3.55999991E-02   4.14223912E-14
  -3.55499983E-02   4.52171395E-14
  -3.55000012E-02   4.91979809E-14
  -3.54500003E-02   5.32838002E-14
  -3.53999995E-02   5.73115977E-14
  -3.53499986E-02   6.10861391E-14
  -3.53000015E-02   6.44472811E-14
  -3.52500007E-02   6.73260547E-14
  -3.51999998E-02   6.97632666E-14
  -3.51499990E-02   7.18779081E-14
  -3.51000018E-02   7.37925414E-14
  -3.50500010E-02   7.55440496E-14
  -3.50000001E-02   7.70211192E-14
  -3.49499993E-02   7.79646259E-14
  -3.48999985E-02   7.80406826E-14
  -3.48500013E-02   7.69592384E-14
  -3.48000005E-02   7.45840903E-14
  -3.47499996E-02   7.09799312E-14
  -3.46999988E-02   6.63695376E-14
  -3.46500017E-02   6.10160726E-14
  -3.46000008E-02   5.50809330E-14
  -3.45500000E-02   4.85212456E-14
  -3.44999991E-02   4.10777911E-14
  -3.44499983E-02   3.23684594E-14
  -3.44000012E-02   2.20549422E-14
  -3.43500003E-02   1.00111129E-14
  -3.42999995E-02  -3.58994078E-15
  -3.42499986E-02  -1.83239603E-14
  -3.42000015E-02  -3.36904204E-14
  -3.41500007E-02  -4.93398725E-14
  -3.40999998E-02  -6.52455927E-14
  -3.40499990E-02  -8.17299380E-14
  -3.40000018E-02  -9.93207591E-14
  -3.39500010E-02  -1.18492022E-13
  -3.39000002E-02  -1.39400142E-13
  -3.38499993E-02  -1.61736713E-13
  -3.37999985E-02  -1.84775074E-13
  -3.37500013E-02  -2.07607911E-13
  -3.37000005E-02  -2.29483506E-13
  -3.36499996E-02  -2.50091939E-13
  -3.35999988E-02  -2.69660027E-13
  -3.35500017E-02  -2.88790855E-13
  -3.35000008E-02  -3.08105700E-13
  -3.34500000E-02  -3.27845336E-13
  -3.33999991E-02  -3.47621021E-13
  -3.33499983E-02  -3.66442608E-13
  -3.33000012E-02  -3.83028976E-13
  -3.32500003E-02  -3.96274376E-13
  -3.31999995E-02  -4.05666413E-13
  -3.31499986E-02  -4.11462477E-13
  -3.31000015E-02  -4.14526676E-13
  -3.30500007E-02  -4.15877212E-13
  -3.29999998E-02  -4.16132271E-13
  -3.29499990E-02  -4.15105233E-13
  -3.29000019E-02  -4.11751986E-13
  -3.28500010E-02  -4.04516427E-13
  -3.28000002E-02  -3.91935155E-13
  -3.27499993E-02  -3.73228954E-13
  -3.26999985E-02  -3.48603633E-13
  -3.26500013E-02  -3.19109133E-13
  -3.26000005E-02  -2.86108702E-13
  -3.25499997E-02  -2.50589073E-13
  -3.24999988E-02  -2.12626710E-13
  -3.24500017E-02  -1.71267365E-13
  -3.24000008E-02  -1.24903627E-13
  -3.23500000E-02  -7.20069485E-14
  -3.22999991E-02  -1.18976128E-14
  -3.22499983E-02   5.48091507E-14
  -3.22000012E-02   1.26313145E-13
  -3.21500003E-02   2.00278758E-13
  -3.20999995E-02   2.74748621E-13
  -3.20499986E-02   3.48909297E-13
  -3.20000015E-02   4.23350265E-13
  -3.19500007E-02   4.99679399E-13
  -3.18999998E-02   5.79647550E-13
  -3.18499990E-02   6.64162030E-13
  -3.18000019E-02   7.52627940E-13
  -3.17500010E-02   8.42930001E-13
  -3.17000002E-02   9.32091101E-13
  -3.16499993E-02   1.01734192E-12
  -3.15999985E-02   1.09712825E-12
  -3.15500014E-02   1.17158627E-12
  -3.15000005E-02   1.24224882E-12
  -3.14499997E-02   1.31108666E-12
  -3.13999988E-02   1.37930878E-12
  -3.13500017E-02   1.44646252E-12
  -3.13000008E-02   1.51025394E-12
  -3.12500000E-02   1.56718085E-12
  -3.11999992E-02   1.61371784E-12
  -3.11500002E-02   1.64754235E-12
  -3.10999993E-02   1.66826188E-12
  -3.10500003E-02   1.67731324E-12
  -3.09999995E-02   1.67705617E-12
  -3.09500005E-02   1.66945451E-12
  -3.08999997E-02   1.65493053E-12
  -3.08500007E-02   1.63192788E-12
  -3.07999998E-02   1.59739388E-12
  -3.07500008E-02   1.54797453E-12
  -3.07000000E-02   1.48138750E-12
  -3.06499992E-02   1.39735272E-12
  -3.06000002E-02   1.29766478E-12
  -3.05499993E-02   1.18536582E-12
  -3.05000003E-02   1.06337671E-12
  -3.04499995E-02   9.33176930E-13
  -3.04000005E-02   7.94123122E-13
  -3.03499997E-02   6.43717610E-13
  -3.03000007E-02   4.78740908E-13
  -3.02499998E-02   2.96768090E-13
  -3.02000009E-02   9.73976623E-14
  -3.01500000E-02  -1.17345573E-13
  -3.00999992E-02  -3.43622185E-13
  -3.00500002E-02  -5.77131442E-13
  -2.99999993E-02  -8.14618446E-13
  -2.99500003E-02  -1.05487906E-12
  -2.98999995E-02  -1.29884536E-12
  -2.98500005E-02  -1.54871135E-12
  -2.97999997E-02  -1.80647630E-12
  -2.97500007E-02  -2.07250623E-12
  -2.96999998E-02  -2.34473248E-12
  -2.96500009E-02  -2.61883831E-12
  -2.96000000E-02  -2.88937971E-12
  -2.95499992E-02  -3.15137131E-12
  -2.95000002E-02  -3.40167629E-12
  -2.94499993E-02  -3.63960988E-12
  -2.94000003E-02  -3.86652906E-12
  -2.93499995E-02  -4.08457296E-12
  -2.93000005E-02  -4.29509293E-12
  -2.92499997E-02  -4.49739378E-12
  -2.92000007E-02  -4.68828231E-12
  -2.91499998E-02  -4.86260641E-12
  -2.91000009E-02  -5.01458120E-12
  -2.90500000E-02  -5.13938198E-12
  -2.89999992E-02  -5.23436763E-12
  -2.89500002E-02  -5.29942453E-12
  -2.88999993E-02  -5.33628480E-12
  -2.88500004E-02  -5.34709646E-12
  -2.87999995E-02  -5.33283877E-12
  -2.87500005E-02  -5.29223974E-12
  -2.86999997E-02  -5.22164516E-12
  -2.86500007E-02  -5.11591680E-12
  -2.85999998E-02  -4.97004911E-12
  -2.85500009E-02  -4.78089313E-12
  -2.85000000E-02  -4.54828189E-12
  -2.84499992E-02  -4.27506945E-12
  -2.84000002E-02  -3.96596428E-12
  -2.83499993E-02  -3.62557337E-12
  -2.83000004E-02  -3.25643072E-12
  -2.82499995E-02  -2.85784200E-12
  -2.82000005E-02  -2.42611074E-12
  -2.81499997E-02  -1.95611669E-12
  -2.81000007E-02  -1.44366723E-12
  -2.80499998E-02  -8.87695137E-13
  -2.80000009E-02  -2.91364887E-13
  -2.79500000E-02   3.38459892E-13
  -2.78999992E-02   9.93284556E-13
  -2.78500002E-02   1.66583435E-12
  -2.77999993E-02   2.35248626E-12
  -2.77500004E-02   3.05414786E-12
  -2.76999995E-02   3.77505969E-12
  -2.76500005E-02   4.51988230E-12
  -2.75999997E-02   5.29021662E-12
  -2.75500007E-02   6.08207625E-12
  -2.74999999E-02   6.88549001E-12
  -2.74500009E-02   7.68657013E-12
  -2.74000000E-02   8.47133561E-12
  -2.73499992E-02   9.22976279E-12
  -2.73000002E-02   9.95828593E-12
  -2.72499993E-02   1.06595765E-11
  -2.72000004E-02   1.13394962E-11
  -2.71499995E-02   1.20023947E-11
  -2.71000005E-02   1.26467638E-11
  -2.70499997E-02   1.32632559E-11
  -2.70000007E-02   1.38361423E-11
  -2.69499999E-02   1.43477175E-11
  -2.69000009E-02   1.47838894E-11
  -2.68500000E-02   1.51384721E-11
  -2.67999992E-02   1.54141821E-11
  -2.67500002E-02   1.56197746E-11
  -2.66999993E-02   1.57643343E-11
  -2.66500004E-02   1.58512006E-11
  -2.65999995E-02   1.58742099E-11
  -2.65500005E-02   1.58181506E-11
  -2.64999997E-02   1.56635052E-11
  -2.64500007E-02   1.53935545E-11
  -2.63999999E-02   1.50007558E-11
  -2.63500009E-02   1.44894435E-11
  -2.63000000E-02   1.38734692E-11
  -2.62499992E-02   1.31696095E-11
  -2.62000002E-02   1.23895746E-11
  -2.61499994E-02   1.15342154E-11
  -2.61000004E-02   1.05926786E-11
  -2.60499995E-02   9.54709315E-12
  -2.60000005E-02   8.38099295E-12
  -2.59499997E-02   7.08781818E-12
  -2.59000007E-02   5.67564702E-12
  -2.58499999E-02   4.16577103E-12
  -2.58000009E-02   2.58549497E-12
  -2.57500000E-02   9.58055141E-13
  -2.56999992E-02  -7.05766012E-13
  -2.56500002E-02  -2.41052425E-12
  -2.55999994E-02  -4.17193754E-12
  -2.55500004E-02  -6.00728798E-12
  -2.54999995E-02  -7.92453950E-12
  -2.54500005E-02  -9.91496121E-12
  -2.53999997E-02  -1.19527339E-11
  -2.53500007E-02  -1.40019038E-11
  -2.52999999E-02  -1.60278804E-11
  -2.52500009E-02  -1.80084662E-11
  -2.52000000E-02  -1.99394737E-11
  -2.51499992E-02  -2.18321541E-11
  -2.51000002E-02  -2.37034368E-11
  -2.50499994E-02  -2.55632130E-11
  -2.50000004E-02  -2.74043409E-11
  -2.49499995E-02  -2.91999966E-11
  -2.49000005E-02  -3.09097470E-11
  -2.48499997E-02  -3.24919258E-11
  -2.48000007E-02  -3.39168207E-11
  -2.47499999E-02  -3.51749949E-11
  -2.47000009E-02  -3.62768461E-11
  -2.46500000E-02  -3.72434548E-11
  -2.45999992E-02  -3.80925881E-11
  -2.45500002E-02  -3.88261055E-11
  -2.44999994E-02  -3.94244914E-11
  -2.44500004E-02  -3.98511467E-11
  -2.43999995E-02  -4.00646981E-11
  -2.43500005E-02  -4.00340108E-11
  -2.42999997E-02  -3.97491588E-11
  -2.42500007E-02  -3.92235064E-11
  -2.41999999E-02  -3.84857667E-11
  -2.41500009E-02  -3.75655097E-11
  -2.41000000E-02  -3.64783967E-11
  -2.40499992E-02  -3.52178148E-11
  -2.40000002E-02  -3.37567717E-11
  -2.39499994E-02  -3.20593552E-11
  -2.39000004E-02  -3.00969666E-11
  -2.38499995E-02  -2.78621553E-11
  -2.38000005E-02  -2.53739287E-11
  -2.37499997E-02  -2.26720292E-11
  -2.37000007E-02  -1.98025606E-11
  -2.36499999E-02  -1.68011455E-11
  -2.36000009E-02  -1.36810788E-11
  -2.35500000E-02  -1.04315653E-11
  -2.34999992E-02  -7.02699704E-12
  -2.34500002E-02  -3.44321251E-12
  -2.33999994E-02   3.26229630E-13
  -2.33500004E-02   4.26093492E-12
  -2.32999995E-02   8.31564331E-12
  -2.32500006E-02   1.24324648E-11
  -2.31999997E-02   1.65584040E-11
  -2.31500007E-02   2.06604230E-11
  -2.30999999E-02   2.47315571E-11
  -2.30500009E-02   2.87854133E-11
  -2.30000000E-02   3.28413650E-11
  -2.29499992E-02   3.69069983E-11
  -2.29000002E-02   4.09652937E-11
  -2.28499994E-02   4.49721128E-11
  -2.28000004E-02   4.88650162E-11
  -2.27499995E-02   5.25797600E-11
  -2.27000006E-02   5.60676193E-11
  -2.26499997E-02   5.93060115E-11
  -2.26000007E-02   6.22981042E-11
  -2.25499999E-02   6.50613868E-11
  -2.25000009E-02   6.76103618E-11
  -2.24500000E-02   6.99406713E-11
  -2.23999992E-02   7.20216595E-11
  -2.23500002E-02   7.38006045E-11
  -2.22999994E-02   7.52170201E-11
  -2.22500004E-02   7.62210087E-11
  -2.21999995E-02   7.67880690E-11
  -2.21500006E-02   7.69239533E-11
  -2.20999997E-02   7.66575622E-11
  -2.20500007E-02   7.60247143E-11
  -2.19999999E-02   7.50494250E-11
  -2.19500009E-02   7.37306535E-11
  -2.19000001E-02   7.20401655E-11
  -2.18499992E-02   6.99328234E-11
  -2.18000002E-02   6.73651482E-11
  -2.17499994E-02   6.43145467E-11
  -2.17000004E-02   6.07910736E-11
  -2.16499995E-02   5.68367436E-11
  -2.16000006E-02   5.25123764E-11
  -2.15499997E-02   4.78773445E-11
  -2.15000007E-02   4.29704120E-11
  -2.14499999E-02   3.77999576E-11
  -2.14000009E-02   3.23478883E-11
  -2.13500001E-02   2.65860823E-11
  -2.12999992E-02   2.04989324E-11
  -2.12500002E-02   1.41024085E-11
  -2.11999994E-02   7.45152291E-12
  -2.11500004E-02   6.32457032E-13
  -2.10999995E-02  -6.25796116E-12
  -2.10500006E-02  -1.31371181E-11
  -2.09999997E-02  -1.99554522E-11
  -2.09500007E-02  -2.67011534E-11
  -2.08999999E-02  -3.33884274E-11
  -2.08500009E-02  -4.00335667E-11
  -2.08000001E-02  -4.66288744E-11
  -2.07499992E-02  -5.31256254E-11
  -2.07000002E-02  -5.94338190E-11
  -2.06499994E-02  -6.54397092E-11
  -2.06000004E-02  -7.10342063E-11
  -2.05499995E-02  -7.61402399E-11
  -2.05000006E-02  -8.07271056E-11
  -2.04499997E-02  -8.48052253E-11
  -2.04000007E-02  -8.84026602E-11
  -2.03499999E-02  -9.15332879E-11
  -2.03000009E-02  -9.41703590E-11
  -2.02500001E-02  -9.62376567E-11
  -2.01999992E-02  -9.76226738E-11
  -2.01500002E-02  -9.82076434E-11
  -2.00999994E-02  -9.79053366E-11
  -2.00500004E-02  -9.66843064E-11
  -1.99999996E-02  -9.45720030E-11
  -1.99500006E-02  -9.16333884E-11
  -1.98999997E-02  -8.79337922E-11
  -1.98500007E-02  -8.35018513E-11
  -1.97999999E-02  -7.83095047E-11
  -1.97500009E-02  -7.22785443E-11
  -1.97000001E-02  -6.53121168E-11
  -1.96499992E-02  -5.73381932E-11
  -1.96000002E-02  -4.83462125E-11
  -1.95499994E-02  -3.84004425E-11
  -1.95000004E-02  -2.76230653E-11
  -1.94499996E-02  -1.61532628E-11
  -1.94000006E-02  -4.09967286E-12
  -1.93499997E-02   8.49284792E-12
  -1.93000007E-02   2.16465387E-11
  -1.92499999E-02   3.54215164E-11
  -1.92000009E-02   4.98657608E-11
  -1.91500001E-02   6.49662615E-11
  -1.90999992E-02   8.06228417E-11
  -1.90500002E-02   9.66572170E-11
  -1.89999994E-02   1.12854275E-10
  -1.89500004E-02   1.29018199E-10
  -1.88999996E-02   1.45018969E-10
  -1.88500006E-02   1.60807895E-10
  -1.87999997E-02   1.76394635E-10
  -1.87500007E-02   1.91794608E-10
  -1.86999999E-02   2.06969913E-10
  -1.86500009E-02   2.21790086E-10
  -1.86000001E-02   2.36031250E-10
  -1.85499992E-02   2.49415155E-10
  -1.85000002E-02   2.61671351E-10
  -1.84499994E-02   2.72596168E-10
  -1.84000004E-02   2.82080803E-10
  -1.83499996E-02   2.90096086E-10
  -1.83000006E-02   2.96639491E-10
  -1.82499997E-02   3.01667441E-10
  -1.82000007E-02   3.05043074E-10
  -1.81499999E-02   3.06523612E-10
  -1.81000009E-02   3.05794112E-10
  -1.80500001E-02   3.02533859E-10
  -1.79999992E-02   2.96486197E-10
  -1.79500002E-02   2.87500385E-10
  -1.78999994E-02   2.75526657E-10
  -1.78500004E-02   2.60565680E-10
  -1.77999996E-02   2.42594278E-10
  -1.77500006E-02   2.21500568E-10
  -1.76999997E-02   1.97058467E-10
  -1.76500008E-02   1.68954434E-10
  -1.75999999E-02   1.36854861E-10
  -1.75500009E-02   1.00485946E-10
  -1.75000001E-02   5.96894756E-11
  -1.74499992E-02   1.44308680E-11
  -1.74000002E-02  -3.52468471E-11
  -1.73499994E-02  -8.93019894E-11
  -1.73000004E-02  -1.47772225E-10
  -1.72499996E-02  -2.10815490E-10
  -1.72000006E-02  -2.78696205E-10
  -1.71499997E-02  -3.51721013E-10
  -1.71000008E-02  -4.30153163E-10
  -1.70499999E-02  -5.14142562E-10
  -1.70000009E-02  -6.03703587E-10
  -1.69500001E-02  -6.98750391E-10
  -1.68999992E-02  -7.99174005E-10
  -1.68500002E-02  -9.04928132E-10
  -1.67999994E-02  -1.01608577E-09
  -1.67500004E-02  -1.13283904E-09
  -1.66999996E-02  -1.25544308E-09
  -1.66500006E-02  -1.38412692E-09
  -1.65999997E-02  -1.51901458E-09
  -1.65500008E-02  -1.66008862E-09
  -1.64999999E-02  -1.80721527E-09
  -1.64500009E-02  -1.96021577E-09
  -1.64000001E-02  -2.11895967E-09
  -1.63499992E-02  -2.28343233E-09
  -1.63000003E-02  -2.45375031E-09
  -1.62499994E-02  -2.63011790E-09
  -1.62000004E-02  -2.81273849E-09
  -1.61499996E-02  -3.00172842E-09
  -1.61000006E-02  -3.19706661E-09
  -1.60499997E-02  -3.39860429E-09
  -1.60000008E-02  -3.60613339E-09
  -1.59499999E-02  -3.81947762E-09
  -1.59000009E-02  -4.03856992E-09
  -1.58500001E-02  -4.26348290E-09
  -1.57999992E-02  -4.49439952E-09
  -1.57500003E-02  -4.73153117E-09
  -1.56999994E-02  -4.97501906E-09
  -1.56500004E-02  -5.22487387E-09
  -1.55999996E-02  -5.48096901E-09
  -1.55499997E-02  -5.74310022E-09
  -1.54999997E-02  -6.01107919E-09
  -1.54499998E-02  -6.28481445E-09
  -1.53999999E-02  -6.56436239E-09
  -1.53500000E-02  -6.84991086E-09
  -1.53000001E-02  -7.14170989E-09
  -1.52500002E-02  -7.43997397E-09
  -1.52000003E-02  -7.74480835E-09
  -1.51500003E-02  -8.05618416E-09
  -1.51000004E-02  -8.37398062E-09
  -1.50499996E-02  -8.69806982E-09
  -1.49999997E-02  -9.02840647E-09
  -1.49499997E-02  -9.36509359E-09
  -1.48999998E-02  -9.70837633E-09
  -1.48499999E-02  -1.00585869E-08
  -1.48000000E-02  -1.04160502E-08
  -1.47500001E-02  -1.07810081E-08
  -1.47000002E-02  -1.11535741E-08
  -1.46500003E-02  -1.15337606E-08
  -1.46000003E-02  -1.19215438E-08
  -1.45500004E-02  -1.23169590E-08
  -1.44999996E-02  -1.27201769E-08
  -1.44499997E-02  -1.31315092E-08
  -1.43999998E-02  -1.35513805E-08
  -1.43499998E-02  -1.39802401E-08
  -1.42999999E-02  -1.44184691E-08
  -1.42500000E-02  -1.48663357E-08
  -1.42000001E-02  -1.53240052E-08
  -1.41500002E-02  -1.57915920E-08
  -1.41000003E-02  -1.62692633E-08
  -1.40500003E-02  -1.67572853E-08
  -1.40000004E-02  -1.72560810E-08
  -1.39499996E-02  -1.77661796E-08
  -1.38999997E-02  -1.82881728E-08
  -1.38499998E-02  -1.88226252E-08
  -1.37999998E-02  -1.93699812E-08
  -1.37499999E-02  -1.99305781E-08
  -1.37000000E-02  -2.05046664E-08
  -1.36500001E-02  -2.10925180E-08
  -1.36000002E-02  -2.16945075E-08
  -1.35500003E-02  -2.23111591E-08
  -1.35000004E-02  -2.29431087E-08
  -1.34500004E-02  -2.35910615E-08
  -1.33999996E-02  -2.42557192E-08
  -1.33499997E-02  -2.49377159E-08
  -1.32999998E-02  -2.56375650E-08
  -1.32499998E-02  -2.63556998E-08
  -1.31999999E-02  -2.70925113E-08
  -1.31500000E-02  -2.78484702E-08
  -1.31000001E-02  -2.86241821E-08
  -1.30500002E-02  -2.94203950E-08
  -1.30000003E-02  -3.02379490E-08
  -1.29500004E-02  -3.10777004E-08
  -1.29000004E-02  -3.19404236E-08
  -1.28499996E-02  -3.28268115E-08
  -1.27999997E-02  -3.37374715E-08
  -1.27499998E-02  -3.46729614E-08
  -1.26999998E-02  -3.56338568E-08
  -1.26499999E-02  -3.66208077E-08
  -1.26000000E-02  -3.76346101E-08
  -1.25500001E-02  -3.86761947E-08
  -1.25000002E-02  -3.97465456E-08
  -1.24500003E-02  -4.08465901E-08
  -1.24000004E-02  -4.19771737E-08
  -1.23500004E-02  -4.31390674E-08
  -1.22999996E-02  -4.43330066E-08
  -1.22499997E-02  -4.55597764E-08
  -1.21999998E-02  -4.68202401E-08
  -1.21499998E-02  -4.81153535E-08
  -1.20999999E-02  -4.94461823E-08
  -1.20500000E-02  -5.08138776E-08
  -1.20000001E-02  -5.22195513E-08
  -1.19500002E-02  -5.36642020E-08
  -1.19000003E-02  -5.51487105E-08
  -1.18500004E-02  -5.66738905E-08
  -1.18000004E-02  -5.82405804E-08
  -1.17499996E-02  -5.98497252E-08
  -1.16999997E-02  -6.15024192E-08
  -1.16499998E-02  -6.31999271E-08
  -1.15999999E-02  -6.49436132E-08
  -1.15499999E-02  -6.67349553E-08
  -1.15000000E-02  -6.85754031E-08
  -1.14500001E-02  -7.04663421E-08
  -1.14000002E-02  -7.24090725E-08
  -1.13500003E-02  -7.44048094E-08
  -1.13000004E-02  -7.64547750E-08
  -1.12500004E-02  -7.85603049E-08
  -1.11999996E-02  -8.07227210E-08
  -1.11499997E-02  -8.29434299E-08
  -1.10999998E-02  -8.52237818E-08
  -1.10499999E-02  -8.75651267E-08
  -1.09999999E-02  -8.99688501E-08
  -1.09500000E-02  -9.24363022E-08
  -1.09000001E-02  -9.49689252E-08
  -1.08500002E-02  -9.75683037E-08
  -1.08000003E-02  -1.00236207E-07
  -1.07500004E-02  -1.02974724E-07
  -1.07000005E-02  -1.05786100E-07
  -1.06499996E-02  -1.08672637E-07
  -1.05999997E-02  -1.11636581E-07
  -1.05499998E-02  -1.14680084E-07
  -1.04999999E-02  -1.17805151E-07
  -1.04499999E-02  -1.21013670E-07
  -1.04000000E-02  -1.24307448E-07
  -1.03500001E-02  -1.27688239E-07
  -1.03000002E-02  -1.31157748E-07
  -1.02500003E-02  -1.34717880E-07
  -1.02000004E-02  -1.38370623E-07
  -1.01500005E-02  -1.42118040E-07
  -1.00999996E-02  -1.45962218E-07
  -1.00499997E-02  -1.49905347E-07
  -9.99999978E-03  -1.53949713E-07
  -9.94999986E-03  -1.58097848E-07
  -9.89999995E-03  -1.62352435E-07
  -9.85000003E-03  -1.66716347E-07
  -9.80000012E-03  -1.71192553E-07
  -9.75000020E-03  -1.75784081E-07
  -9.70000029E-03  -1.80494013E-07
  -9.65000037E-03  -1.85325305E-07
  -9.60000046E-03  -1.90280943E-07
  -9.54999961E-03  -1.95363754E-07
  -9.49999969E-03  -2.00576608E-07
  -9.44999978E-03  -2.05922419E-07
  -9.39999986E-03  -2.11404156E-07
  -9.34999995E-03  -2.17024720E-07
  -9.30000003E-03  -2.22787094E-07
  -9.25000012E-03  -2.28694333E-07
  -9.20000020E-03  -2.34749407E-07
  -9.15000029E-03  -2.40955188E-07
  -9.10000037E-03  -2.47314659E-07
  -9.05000046E-03  -2.53830706E-07
  -8.99999961E-03  -2.60506596E-07
  -8.94999970E-03  -2.67345570E-07
  -8.89999978E-03  -2.74351095E-07
  -8.84999987E-03  -2.81526667E-07
  -8.79999995E-03  -2.88876066E-07
  -8.75000004E-03  -2.96403158E-07
  -8.70000012E-03  -3.04111921E-07
  -8.65000021E-03  -3.12006392E-07
  -8.60000029E-03  -3.20090606E-07
  -8.55000038E-03  -3.28368799E-07
  -8.50000046E-03  -3.36845403E-07
  -8.44999962E-03  -3.45524683E-07
  -8.39999970E-03  -3.54410730E-07
  -8.34999979E-03  -3.63507809E-07
  -8.29999987E-03  -3.72819983E-07
  -8.24999996E-03  -3.82351459E-07
  -8.20000004E-03  -3.92106131E-07
  -8.15000013E-03  -4.02088006E-07
  -8.10000021E-03  -4.12301091E-07
  -8.05000030E-03  -4.22749707E-07
  -8.00000038E-03  -4.33438203E-07
  -7.95000046E-03  -4.44370755E-07
  -7.89999962E-03  -4.55551572E-07
  -7.84999970E-03  -4.66984915E-07
  -7.79999979E-03  -4.78675531E-07
  -7.74999987E-03  -4.90627997E-07
  -7.69999996E-03  -5.02847058E-07
  -7.65000004E-03  -5.15337547E-07
  -7.60000013E-03  -5.28104863E-07
  -7.55000021E-03  -5.41154350E-07
  -7.49999983E-03  -5.54491805E-07
  -7.44999992E-03  -5.68122573E-07
  -7.40000000E-03  -5.82052166E-07
  -7.35000009E-03  -5.96286043E-07
  -7.30000017E-03  -6.10830114E-07
  -7.24999979E-03  -6.25690063E-07
  -7.19999988E-03  -6.40871747E-07
  -7.14999996E-03  -6.56380848E-07
  -7.10000005E-03  -6.72223166E-07
  -7.05000013E-03  -6.88404555E-07
  -7.00000022E-03  -7.04930756E-07
  -6.94999984E-03  -7.21807453E-07
  -6.89999992E-03  -7.39040388E-07
  -6.85000001E-03  -7.56635075E-07
  -6.80000009E-03  -7.74597538E-07
  -6.75000018E-03  -7.92934088E-07
  -6.69999979E-03  -8.11651319E-07
  -6.64999988E-03  -8.30756051E-07
  -6.59999996E-03  -8.50254764E-07
  -6.55000005E-03  -8.70154111E-07
  -6.50000013E-03  -8.90460683E-07
  -6.45000022E-03  -9.11181758E-07
  -6.39999984E-03  -9.32324497E-07
  -6.34999992E-03  -9.53896460E-07
  -6.30000001E-03  -9.75905209E-07
  -6.25000009E-03  -9.98358587E-07
  -6.20000018E-03  -1.02126478E-06
  -6.14999980E-03  -1.04463254E-06
  -6.09999988E-03  -1.06846994E-06
  -6.04999997E-03  -1.09278460E-06
  -6.00000005E-03  -1.11758425E-06
  -5.95000014E-03  -1.14287695E-06
  -5.90000022E-03  -1.16867159E-06
  -5.84999984E-03  -1.19497668E-06
  -5.79999993E-03  -1.22180086E-06
  -5.75000001E-03  -1.24915198E-06
  -5.70000010E-03  -1.27703925E-06
  -5.65000018E-03  -1.30547187E-06
  -5.59999980E-03  -1.33445917E-06
  -5.54999989E-03  -1.36400922E-06
  -5.49999997E-03  -1.39413066E-06
  -5.45000006E-03  -1.42483304E-06
  -5.40000014E-03  -1.45612671E-06
  -5.35000023E-03  -1.48802178E-06
  -5.29999984E-03  -1.52052860E-06
  -5.24999993E-03  -1.55365740E-06
  -5.20000001E-03  -1.58741921E-06
  -5.15000010E-03  -1.62182471E-06
  -5.10000018E-03  -1.65688527E-06
  -5.04999980E-03  -1.69261182E-06
  -4.99999989E-03  -1.72901559E-06
  -4.94999997E-03  -1.76610808E-06
  -4.90000006E-03  -1.80390168E-06
  -4.85000014E-03  -1.84240878E-06
  -4.80000023E-03  -1.88164120E-06
  -4.74999985E-03  -1.92160996E-06
  -4.69999993E-03  -1.96232668E-06
  -4.65000002E-03  -2.00380327E-06
  -4.60000010E-03  -2.04605135E-06
  -4.55000019E-03  -2.08908295E-06
  -4.49999981E-03  -2.13290946E-06
  -4.44999989E-03  -2.17754382E-06
  -4.39999998E-03  -2.22299832E-06
  -4.35000006E-03  -2.26928728E-06
  -4.30000015E-03  -2.31642389E-06
  -4.25000023E-03  -2.36442202E-06
  -4.19999985E-03  -2.41329485E-06
  -4.14999994E-03  -2.46305558E-06
  -4.10000002E-03  -2.51371898E-06
  -4.05000011E-03  -2.56529984E-06
  -4.00000019E-03  -2.61781406E-06
  -3.94999981E-03  -2.67127666E-06
  -3.89999989E-03  -2.72570219E-06
  -3.84999998E-03  -2.78110610E-06
  -3.80000006E-03  -2.83750296E-06
  -3.74999992E-03  -2.89490845E-06
  -3.70000000E-03  -2.95333848E-06
  -3.65000009E-03  -3.01280693E-06
  -3.59999994E-03  -3.07332812E-06
  -3.55000002E-03  -3.13491728E-06
  -3.50000011E-03  -3.19759147E-06
  -3.44999996E-03  -3.26136728E-06
  -3.40000005E-03  -3.32626087E-06
  -3.34999990E-03  -3.39228632E-06
  -3.29999998E-03  -3.45945887E-06
  -3.25000007E-03  -3.52779603E-06
  -3.19999992E-03  -3.59731507E-06
  -3.15000000E-03  -3.66803238E-06
  -3.10000009E-03  -3.73996409E-06
  -3.04999994E-03  -3.81312725E-06
  -3.00000003E-03  -3.88754006E-06
  -2.95000011E-03  -3.96322184E-06
  -2.89999996E-03  -4.04019056E-06
  -2.85000005E-03  -4.11846167E-06
  -2.79999990E-03  -4.19805110E-06
  -2.74999999E-03  -4.27897839E-06
  -2.70000007E-03  -4.36126265E-06
  -2.64999992E-03  -4.44492298E-06
  -2.60000001E-03  -4.52997710E-06
  -2.55000009E-03  -4.61644140E-06
  -2.49999994E-03  -4.70433406E-06
  -2.45000003E-03  -4.79367691E-06
  -2.40000011E-03  -4.88448859E-06
  -2.34999997E-03  -4.97678639E-06
  -2.30000005E-03  -5.07058485E-06
  -2.24999990E-03  -5.16590126E-06
  -2.19999999E-03  -5.26275699E-06
  -2.15000007E-03  -5.36117250E-06
  -2.09999993E-03  -5.46116598E-06
  -2.05000001E-03  -5.56275381E-06
  -2.00000009E-03  -5.66595054E-06
  -1.94999995E-03  -5.77077799E-06
  -1.90000003E-03  -5.87725799E-06
  -1.85000000E-03  -5.98541010E-06
  -1.79999997E-03  -6.09524932E-06
  -1.75000005E-03  -6.20679430E-06
  -1.70000002E-03  -6.32006413E-06
  -1.64999999E-03  -6.43508247E-06
  -1.59999996E-03  -6.55187205E-06
  -1.55000004E-03  -6.67045015E-06
  -1.50000001E-03  -6.79083405E-06
  -1.44999998E-03  -6.91304058E-06
  -1.39999995E-03  -7.03709156E-06
  -1.35000004E-03  -7.16300883E-06
  -1.30000000E-03  -7.29081103E-06
  -1.24999997E-03  -7.42051407E-06
  -1.20000006E-03  -7.55213296E-06
  -1.15000003E-03  -7.68568862E-06
  -1.09999999E-03  -7.82120151E-06
  -1.04999996E-03  -7.95869164E-06
  -1.00000005E-03  -8.09817720E-06
  -9.50000016E-04  -8.23967184E-06
  -8.99999985E-04  -8.38319374E-06
  -8.50000011E-04  -8.52876201E-06
  -7.99999980E-04  -8.67639665E-06
  -7.50000007E-04  -8.82612221E-06
  -6.99999975E-04  -8.97795235E-06
  -6.50000002E-04  -9.13190433E-06
  -6.00000028E-04  -9.28799818E-06
  -5.49999997E-04  -9.44625572E-06
  -5.00000024E-04  -9.60669422E-06
  -4.49999992E-04  -9.76933097E-06
  -3.99999990E-04  -9.93418053E-06
  -3.49999988E-04  -1.01012592E-05
  -3.00000014E-04  -1.02705944E-05
  -2.50000012E-04  -1.04422024E-05
  -1.99999995E-04  -1.06160969E-05
  -1.50000007E-04  -1.07922933E-05
  -9.99999975E-05  -1.09708117E-05
  -4.99999987E-05  -1.11516656E-05
   0.00000000      -1.13348715E-05
   4.99999987E-05  -1.15204448E-05
   9.99999975E-05  -1.17084082E-05
   1.50000007E-04  -1.18987773E-05
   1.99999995E-04  -1.20915647E-05
   2.50000012E-04  -1.22867859E-05
   3.00000014E-04  -1.24844601E-05
   3.49999988E-04  -1.26846035E-05
   3.99999990E-04  -1.28872316E-05
   4.49999992E-04  -1.30923563E-05
   5.00000024E-04  -1.32999921E-05
   5.49999997E-04  -1.35101554E-05
   6.00000028E-04  -1.37228681E-05
   6.50000002E-04  -1.39381455E-05
   6.99999975E-04  -1.41560004E-05
   7.50000007E-04  -1.43764428E-05
   7.99999980E-04  -1.45994909E-05
   8.50000011E-04  -1.48251602E-05
   8.99999985E-04  -1.50534643E-05
   9.50000016E-04  -1.52844168E-05
   1.00000005E-03  -1.55180296E-05
   1.04999996E-03  -1.57543163E-05
   1.09999999E-03  -1.59932915E-05
   1.15000003E-03  -1.62349734E-05
   1.20000006E-03  -1.64793710E-05
   1.24999997E-03  -1.67264916E-05
   1.30000000E-03  -1.69763516E-05
   1.35000004E-03  -1.72289583E-05
   1.39999995E-03  -1.74843281E-05
   1.44999998E-03  -1.77424736E-05
   1.50000001E-03  -1.80034003E-05
   1.55000004E-03  -1.82671265E-05
   1.59999996E-03  -1.85336612E-05
   1.64999999E-03  -1.88030172E-05
   1.70000002E-03  -1.90752035E-05
   1.75000005E-03  -1.93502365E-05
   1.79999997E-03  -1.96281162E-05
   1.85000000E-03  -1.99088608E-05
   1.90000003E-03  -2.01924777E-05
   1.94999995E-03  -2.04789812E-05
   2.00000009E-03  -2.07683806E-05
   2.05000001E-03  -2.10606868E-05
   2.09999993E-03  -2.13559106E-05
   2.15000007E-03  -2.16540575E-05
   2.19999999E-03  -2.19551330E-05
   2.24999990E-03  -2.22591498E-05
   2.30000005E-03  -2.25661097E-05
   2.34999997E-03  -2.28760164E-05
   2.40000011E-03  -2.31888844E-05
   2.45000003E-03  -2.35047282E-05
   2.49999994E-03  -2.38235552E-05
   2.55000009E-03  -2.41453672E-05
   2.60000001E-03  -2.44701641E-05
   2.64999992E-03  -2.47979569E-05
   2.70000007E-03  -2.51287547E-05
   2.74999999E-03  -2.54625647E-05
   2.79999990E-03  -2.57993943E-05