  -3.99999991E-02   0.00000000    
  -3.99499983E-02   0.00000000    
  -3.99000011E-02   0.00000000    
  -3.98500003E-02   0.00000000    
  -3.97999994E-02   5.03520248E-22
  -3.97499986E-02   4.23690311E-21
  -3.97000015E-02   1.87548534E-20
  -3.96500006E-02   5.67451393E-20
  -3.95999998E-02   1.27700466E-19
  -3.95499989E-02   2.14675289E-19
  -3.95000018E-02   2.35975759E-19
  -3.94500010E-02   3.31251423E-21
  -3.94000001E-02  -7.99688386E-19
  -3.93499993E-02  -2.58984770E-18
  -3.92999984E-02  -5.79023079E-18
  -3.92500013E-02  -1.06834644E-17
  -3.92000005E-02  -1.72701597E-17
  -3.91499996E-02  -2.52215541E-17
  -3.90999988E-02  -3.40038564E-17
  -3.90500017E-02  -4.31816636E-17
  -3.90000008E-02  -5.28001462E-17
  -3.89500000E-02  -6.36592839E-17
  -3.88999991E-02  -7.72921733E-17
  -3.88499983E-02  -9.55703767E-17
  -3.88000011E-02  -1.20044593E-16
  -3.87500003E-02  -1.51298349E-16
  -3.86999995E-02  -1.88649431E-16
  -3.86499986E-02  -2.30424831E-16
  -3.86000015E-02  -2.74783973E-16
  -3.85500006E-02  -3.20773283E-16
  -3.84999998E-02  -3.69107921E-16
  -3.84499989E-02  -4.22216066E-16
  -3.84000018E-02  -4.83375763E-16
  -3.83500010E-02  -5.55213156E-16
  -3.83000001E-02  -6.38202056E-16
  -3.82499993E-02  -7.29891785E-16
  -3.81999984E-02  -8.25312746E-16
  -3.81500013E-02  -9.18477529E-16
  -3.81000005E-02  -1.00436466E-15
  -3.80499996E-02  -1.08051578E-15
  -3.79999988E-02  -1.14752127E-15
  -3.79500017E-02  -1.20816354E-15
  -3.79000008E-02  -1.26559195E-15
  -3.78500000E-02  -1.32133370E-15
  -3.77999991E-02  -1.37400920E-15
  -3.77499983E-02  -1.41926850E-15
  -3.77000012E-02  -1.45089332E-15
  -3.76500003E-02  -1.46250477E-15
  -3.75999995E-02  -1.44913891E-15
  -3.75499986E-02  -1.40816051E-15
  -3.75000015E-02  -1.33940240E-15
  -3.74500006E-02  -1.24472730E-15
  -3.73999998E-02  -1.12726289E-15
  -3.73499990E-02  -9.90368498E-16
  -3.73000018E-02  -8.36249106E-16
  -3.72500010E-02  -6.64285059E-16
  -3.72000001E-02  -4.69598666E-16
  -3.71499993E-02  -2.42854590E-16
  -3.70999984E-02   2.76657339E-17
  -3.70500013E-02   3.51393074E-16
  -3.70000005E-02   7.29292297E-16
  -3.69499996E-02   1.14875921E-15
  -3.68999988E-02   1.58283787E-15
  -3.68500017E-02   1.99603250E-15
  -3.68000008E-02   2.35625084E-15
  -3.67500000E-02   2.64884101E-15
  -3.66999991E-02   2.88613157E-15
  -3.66499983E-02   3.10606855E-15
  -3.66000012E-02   3.35741943E-15
  -3.65500003E-02   3.67533525E-15
  -3.64999995E-02   4.05719210E-15
  -3.64499986E-02   4.45105395E-15
  -3.64000015E-02   4.76571865E-15
  -3.63500006E-02   4.90242976E-15
  -3.62999998E-02   4.79741674E-15
  -3.62499990E-02   4.45652367E-15
  -3.62000018E-02   3.96323794E-15
  -3.61500010E-02   3.45088190E-15
  -3.61000001E-02   3.04591904E-15
  -3.60499993E-02   2.80512452E-15
  -3.59999985E-02   2.67671940E-15
  -3.59500013E-02   2.50899587E-15
  -3.59000005E-02   2.11030339E-15
  -3.58499996E-02   1.33924612E-15
  -3.57999988E-02   1.85304193E-16
  -3.57500017E-02  -1.20164382E-15
  -3.57000008E-02  -2.55567458E-15
  -3.56500000E-02  -3.60270302E-15
  -3.55999991E-02  -4.18833864E-15
  -3.55499983E-02  -4.36542697E-15
  -3.55000012E-02  -4.39166000E-15
  -3.54500003E-02  -4.62461990E-15
  -3.53999995E-02  -5.35057372E-15
  -3.53499986E-02  -6.62151871E-15
  -3.53000015E-02  -8.18196981E-15
  -3.52500007E-02  -9.53456538E-15
  -3.51999998E-02  -1.01324876E-14
  -3.51499990E-02  -9.62293548E-15
  -3.51000018E-02  -8.03077867E-15
  -3.50500010E-02  -5.78569666E-15
  -3.50000001E-02  -3.55955601E-15
  -3.49499993E-02  -1.96825597E-15
  -3.48999985E-02  -1.26486096E-15
  -3.48500013E-02  -1.17081817E-15
  -3.48000005E-02  -9.43505447E-16
  -3.47499996E-02   3.23743536E-16
  -3.46999988E-02   3.28557198E-15
  -3.46500017E-02   7.99852111E-15
  -3.46000008E-02   1.38188402E-14
  -3.45500000E-02   1.96208237E-14
  -3.44999991E-02   2.42671416E-14
  -3.44499983E-02   2.71345937E-14
  -3.44000012E-02   2.84509151E-14
  -3.43500003E-02   2.92624811E-14
  -3.42999995E-02   3.10097102E-14
  -3.42499986E-02   3.48713131E-14
  -3.42000015E-02   4.11649135E-14
  -3.41500007E-02   4.90937552E-14
  -3.40999998E-02   5.69933369E-14
  -3.40499990E-02   6.30095680E-14
  -3.40000018E-02   6.59284368E-14
  -3.39500010E-02   6.57788982E-14
  -3.39000002E-02   6.39030116E-14
  -3.38499993E-02   6.24119693E-14
  -3.37999985E-02   6.32301083E-14
  -3.37500013E-02   6.71427703E-14
  -3.37000005E-02   7.32989990E-14
  -3.36499996E-02   7.94453818E-14
  -3.35999988E-02   8.28459615E-14
  -3.35500017E-02   8.15151373E-14
  -3.35000008E-02   7.52100408E-14
  -3.34500000E-02   6.56944998E-14
  -3.33999991E-02   5.60882720E-14
  -3.33499983E-02   4.95300212E-14
  -3.33000012E-02   4.77244688E-14
  -3.32500003E-02   5.00453831E-14
  -3.31999995E-02   5.36595813E-14
  -3.31499986E-02   5.46953264E-14
  -3.31000015E-02   4.99912035E-14
  -3.30500007E-02   3.86533355E-14
  -3.29999998E-02   2.26784805E-14
  -3.29499990E-02   6.28033129E-15
  -3.29000019E-02  -5.86587765E-15
  -3.28500010E-02  -1.07242562E-14
  -3.28000002E-02  -8.39245411E-15
  -3.27499993E-02  -2.24987706E-15
  -3.26999985E-02   2.40615781E-15
  -3.26500013E-02   7.10525065E-16
  -3.26000005E-02  -9.45518654E-15
  -3.25499997E-02  -2.62602965E-14
  -3.24999988E-02  -4.44691721E-14
  -3.24500017E-02  -5.75994330E-14
  -3.24000008E-02  -6.08044905E-14
  -3.23500000E-02  -5.31963525E-14
  -3.22999991E-02  -3.84994025E-14
  -3.22499983E-02  -2.36262731E-14
  -3.22000012E-02  -1.57019410E-14
  -3.21500003E-02  -1.88134505E-14
  -3.20999995E-02  -3.19696221E-14
  -3.20499986E-02  -4.92882983E-14
  -3.20000015E-02  -6.24611989E-14
  -3.19500007E-02  -6.44974051E-14
  -3.18999998E-02  -5.30945324E-14
  -3.18499990E-02  -3.20594415E-14
  -3.18000019E-02  -1.00051981E-14
  -3.17500010E-02   3.23905547E-15
  -3.17000002E-02   9.89152900E-16
  -3.16499993E-02  -1.71214954E-14
  -3.15999985E-02  -4.46839153E-14
  -3.15500014E-02  -7.11357175E-14
  -3.15000005E-02  -8.64333697E-14
  -3.14499997E-02  -8.57448335E-14
  -3.13999988E-02  -7.20094692E-14
  -3.13500017E-02  -5.50724187E-14
  -3.13000008E-02  -4.76015677E-14
  -3.12500000E-02  -5.94812421E-14
  -3.11999992E-02  -9.31664481E-14
  -3.11500002E-02  -1.42173382E-13
  -3.10999993E-02  -1.93561245E-13
  -3.10500003E-02  -2.33479550E-13
  -3.09999995E-02  -2.53405099E-13
  -3.09500005E-02  -2.54255140E-13
  -3.08999997E-02  -2.46389714E-13
  -3.08500007E-02  -2.45291011E-13
  -3.07999998E-02  -2.64670799E-13
  -3.07500008E-02  -3.10016146E-13
  -3.07000000E-02  -3.75532586E-13
  -3.06499992E-02  -4.46040503E-13
  -3.06000002E-02  -5.03200888E-13
  -3.05499993E-02  -5.33447527E-13
  -3.05000003E-02  -5.34104878E-13
  -3.04499995E-02  -5.14831613E-13
  -3.04000005E-02  -4.93524221E-13
  -3.03499997E-02  -4.88291753E-13
  -3.03000007E-02  -5.08971066E-13
  -3.02499998E-02  -5.52015519E-13
  -3.02000009E-02  -6.01232117E-13
  -3.01500000E-02  -6.34293616E-13
  -3.00999992E-02  -6.32330939E-13
  -3.00500002E-02  -5.88392453E-13
  -2.99999993E-02  -5.10892272E-13
  -2.99500003E-02  -4.20266903E-13
  -2.98999995E-02  -3.40066896E-13
  -2.98500005E-02  -2.86281307E-13
  -2.97999997E-02  -2.59652028E-13
  -2.97500007E-02  -2.44584382E-13
  -2.96999998E-02  -2.15424643E-13
  -2.96500009E-02  -1.47576951E-13
  -2.96000000E-02  -2.86384787E-14
  -2.95499992E-02   1.35471983E-13
  -2.95000002E-02   3.22362227E-13
  -2.94499993E-02   5.02474689E-13
  -2.94000003E-02   6.51950716E-13
  -2.93499995E-02   7.63386099E-13
  -2.93000005E-02   8.49538918E-13
  -2.92499997E-02   9.38040227E-13
  -2.92000007E-02   1.05913607E-12
  -2.91499998E-02   1.23171308E-12
  -2.91000009E-02   1.45383532E-12
  -2.90500000E-02   1.70223178E-12
  -2.89999992E-02   1.94130953E-12
  -2.89500002E-02   2.13800765E-12
  -2.88999993E-02   2.27604025E-12
  -2.88500004E-02   2.36310906E-12
  -2.87999995E-02   2.42759740E-12
  -2.87500005E-02   2.50584514E-12
  -2.86999997E-02   2.62539187E-12
  -2.86500007E-02   2.79156689E-12
  -2.85999998E-02   2.98357129E-12
  -2.85500009E-02   3.16214849E-12
  -2.85000000E-02   3.28581303E-12
  -2.84499992E-02   3.32865246E-12
  -2.84000002E-02   3.29178395E-12
  -2.83499993E-02   3.20309773E-12
  -2.83000004E-02   3.10502210E-12
  -2.82499995E-02   3.03538097E-12
  -2.82000005E-02   3.00970642E-12
  -2.81499997E-02   3.01299220E-12
  -2.81000007E-02   3.00491034E-12
  -2.80499998E-02   2.93661211E-12
  -2.80000009E-02   2.77197167E-12
  -2.79500000E-02   2.50391960E-12
  -2.78999992E-02   2.15838545E-12
  -2.78500002E-02   1.78369331E-12
  -2.77999993E-02   1.42968612E-12
  -2.77500004E-02   1.12560569E-12
  -2.76999995E-02   8.66588973E-13
  -2.76500005E-02   6.15107249E-13
  -2.75999997E-02   3.17176298E-13
  -2.75500007E-02  -7.34464572E-14
  -2.74999999E-02  -5.73658471E-13
  -2.74500009E-02  -1.16175320E-12
  -2.74000000E-02  -1.78503870E-12
  -2.73499992E-02  -2.38145137E-12
  -2.73000002E-02  -2.90594090E-12
  -2.72499993E-02  -3.34997329E-12
  -2.72000004E-02  -3.74522982E-12
  -2.71499995E-02  -4.14936575E-12
  -2.71000005E-02  -4.61964755E-12
  -2.70499997E-02  -5.18588601E-12
  -2.70000007E-02  -5.83472029E-12
  -2.69499999E-02  -6.51261380E-12
  -2.69000009E-02  -7.14676278E-12
  -2.68500000E-02  -7.67511575E-12
  -2.67999992E-02  -8.07237610E-12
  -2.67500002E-02  -8.36026734E-12
  -2.66999993E-02  -8.59706490E-12
  -2.66500004E-02  -8.85048805E-12
  -2.65999995E-02  -9.16561011E-12
  -2.65500005E-02  -9.54196357E-12
  -2.64999997E-02  -9.93033433E-12
  -2.64500007E-02  -1.02512131E-11
  -2.63999999E-02  -1.04272728E-11
  -2.63500009E-02  -1.04157715E-11
  -2.63000000E-02  -1.02264525E-11
  -2.62499992E-02  -9.91657624E-12
  -2.62000002E-02  -9.56472835E-12
  -2.61499994E-02  -9.23453328E-12
  -2.61000004E-02  -8.94422123E-12
  -2.60499995E-02  -8.65575406E-12
  -2.60000005E-02  -8.28890602E-12
  -2.59499997E-02  -7.75461292E-12
  -2.59000007E-02  -6.99326144E-12
  -2.58499999E-02  -6.00096492E-12
  -2.58000009E-02  -4.83183025E-12
  -2.57500000E-02  -3.57466053E-12
  -2.56999992E-02  -2.31384486E-12
  -2.56500002E-02  -1.09152401E-12
  -2.55999994E-02   1.12066416E-13
  -2.55500004E-02   1.37085319E-12
  -2.54999995E-02   2.78056831E-12
  -2.54500005E-02   4.41558639E-12
  -2.53999997E-02   6.29391331E-12
  -2.53500007E-02   8.36609167E-12
  -2.52999999E-02   1.05334881E-11
  -2.52500009E-02   1.26884970E-11
  -2.52000000E-02   1.47592424E-11
  -2.51499992E-02   1.67389869E-11
  -2.51000002E-02   1.86868437E-11
  -2.50499994E-02   2.06988350E-11
  -2.50000004E-02   2.28615529E-11
  -2.49499995E-02   2.52086442E-11
  -2.49000005E-02   2.76995458E-11
  -2.48499997E-02   3.02303599E-11
  -2.48000007E-02   3.26726944E-11
  -2.47499999E-02   3.49237930E-11
  -2.47000009E-02   3.69458526E-11
  -2.46500000E-02   3.87768914E-11
  -2.45999992E-02   4.05077534E-11
  -2.45500002E-02   4.22348580E-11
  -2.44999994E-02   4.40092233E-11
  -2.44500004E-02   4.58043013E-11
  -2.43999995E-02   4.75173303E-11
  -2.43500005E-02   4.90041931E-11
  -2.42999997E-02   5.01329082E-11
  -2.42500007E-02   5.08324043E-11
  -2.41999999E-02   5.11148172E-11
  -2.41500009E-02   5.10610686E-11
  -2.41000000E-02   5.07754359E-11
  -2.40499992E-02   5.03288695E-11
  -2.40000002E-02   4.97160681E-11
  -2.39499994E-02   4.88455769E-11
  -2.39000004E-02   4.75678351E-11
  -2.38499995E-02   4.57294758E-11
  -2.38000005E-02   4.32300758E-11
  -2.37499997E-02   4.00563679E-11
  -2.37000007E-02   3.62783206E-11
  -2.36499999E-02   3.20083127E-11
  -2.36000009E-02   2.73409351E-11
  -2.35500000E-02   2.22998408E-11
  -2.34999992E-02   1.68153044E-11
  -2.34500002E-02   1.07429178E-11
  -2.33999994E-02   3.91573189E-12
  -2.33500004E-02  -3.79275084E-12
  -2.32999995E-02  -1.24224363E-11
  -2.32500006E-02  -2.19179796E-11
  -2.31999997E-02  -3.21619016E-11
  -2.31500007E-02  -4.30353496E-11
  -2.30999999E-02  -5.44799449E-11
  -2.30500009E-02  -6.65333622E-11
  -2.30000000E-02  -7.93226110E-11
  -2.29499992E-02  -9.30174687E-11
  -2.29000002E-02  -1.07764096E-10
  -2.28499994E-02  -1.23628066E-10
  -2.28000004E-02  -1.40571929E-10
  -2.27499995E-02  -1.58477759E-10
  -2.27000006E-02  -1.77205015E-10
  -2.26499997E-02  -1.96658773E-10
  -2.26000007E-02  -2.16838145E-10
  -2.25499999E-02  -2.37843412E-10
  -2.25000009E-02  -2.59838401E-10
  -2.24500000E-02  -2.82984275E-10
  -2.23999992E-02  -3.07373405E-10
  -2.23500002E-02  -3.32993078E-10
  -2.22999994E-02  -3.59734631E-10
  -2.22500004E-02  -3.87444882E-10
  -2.21999995E-02  -4.15997237E-10
  -2.21500006E-02  -4.45351367E-10
  -2.20999997E-02  -4.75575301E-10
  -2.20500007E-02  -5.06819475E-10
  -2.19999999E-02  -5.39254363E-10
  -2.19500009E-02  -5.72998538E-10
  -2.19000001E-02  -6.08068873E-10
  -2.18499992E-02  -6.44374998E-10
  -2.18000002E-02  -6.81760925E-10
  -2.17499994E-02  -7.20075777E-10
  -2.17000004E-02  -7.59242225E-10
  -2.16499995E-02  -7.99293687E-10
  -2.16000006E-02  -8.40363112E-10
  -2.15499997E-02  -8.82627360E-10
  -2.15000007E-02  -9.26233201E-10
  -2.14499999E-02  -9.71235203E-10
  -2.14000009E-02  -1.01757491E-09
  -2.13500001E-02  -1.06510878E-09
  -2.12999992E-02  -1.11367504E-09
  -2.12500002E-02  -1.16316745E-09
  -2.11999994E-02  -1.21358767E-09
  -2.11500004E-02  -1.26504873E-09
  -2.10999995E-02  -1.31773170E-09
  -2.10500006E-02  -1.37181233E-09
  -2.09999997E-02  -1.42738965E-09
  -2.09500007E-02  -1.48444934E-09
  -2.08999999E-02  -1.54287660E-09
  -2.08500009E-02  -1.60251312E-09
  -2.08000001E-02  -1.66323533E-09
  -2.07499992E-02  -1.72501613E-09
  -2.07000002E-02  -1.78794801E-09
  -2.06499994E-02  -1.85221238E-09
  -2.06000004E-02  -1.91801286E-09
  -2.05499995E-02  -1.98549777E-09
  -2.05000006E-02  -2.05470951E-09
  -2.04499997E-02  -2.12557905E-09
  -2.04000007E-02  -2.19797180E-09
  -2.03499999E-02  -2.27176189E-09
  -2.03000009E-02  -2.34690378E-09
  -2.02500001E-02  -2.42347076E-09
  -2.01999992E-02  -2.50164267E-09
  -2.01500002E-02  -2.58164645E-09
  -2.00999994E-02  -2.66368061E-09
  -2.00500004E-02  -2.74784817E-09
  -1.99999996E-02  -2.83413826E-09
  -1.99500006E-02  -2.92245184E-09
  -1.98999997E-02  -3.01267344E-09
  -1.98500007E-02  -3.10474624E-09
  -1.97999999E-02  -3.19872595E-09
  -1.97500009E-02  -3.29478445E-09
  -1.97000001E-02  -3.39316708E-09
  -1.96499992E-02  -3.49411633E-09
  -1.96000002E-02  -3.59779939E-09
  -1.95499994E-02  -3.70427022E-09
  -1.95000004E-02  -3.81348064E-09
  -1.94499996E-02  -3.92533694E-09
  -1.94000006E-02  -4.03978095E-09
  -1.93499997E-02  -4.15685175E-09
  -1.93000007E-02  -4.27670788E-09
  -1.92499999E-02  -4.39960335E-09
  -1.92000009E-02  -4.52581750E-09
  -1.91500001E-02  -4.65557637E-09
  -1.90999992E-02  -4.78900075E-09
  -1.90500002E-02  -4.92609997E-09
  -1.89999994E-02  -5.06681230E-09
  -1.89500004E-02  -5.21108046E-09
  -1.88999996E-02  -5.35892530E-09
  -1.88500006E-02  -5.51048718E-09
  -1.87999997E-02  -5.66601388E-09
  -1.87500007E-02  -5.82580784E-09
  -1.86999999E-02  -5.99014793E-09
  -1.86500009E-02  -6.15922202E-09
  -1.86000001E-02  -6.33310338E-09
  -1.85499992E-02  -6.51177512E-09
  -1.85000002E-02  -6.69519507E-09
  -1.84499994E-02  -6.88337520E-09
  -1.84000004E-02  -7.07643055E-09
  -1.83499996E-02  -7.27459781E-09
  -1.83000006E-02  -7.47818962E-09
  -1.82499997E-02  -7.68752706E-09
  -1.82000007E-02  -7.90285970E-09
  -1.81499999E-02  -8.12433143E-09
  -1.81000009E-02  -8.35197600E-09
  -1.80500001E-02  -8.58577831E-09
  -1.79999992E-02  -8.82574458E-09
  -1.79500002E-02  -9.07197162E-09
  -1.78999994E-02  -9.32467703E-09
  -1.78500004E-02  -9.58417790E-09
  -1.77999996E-02  -9.85082682E-09
  -1.77500006E-02  -1.01249338E-08
  -1.76999997E-02  -1.04067102E-08
  -1.76500008E-02  -1.06962572E-08
  -1.75999999E-02  -1.09935989E-08
  -1.75500009E-02  -1.12987530E-08
  -1.75000001E-02  -1.16118049E-08
  -1.74499992E-02  -1.19329595E-08
  -1.74000002E-02  -1.22625323E-08
  -1.73499994E-02  -1.26009017E-08
  -1.73000004E-02  -1.29484370E-08
  -1.72499996E-02  -1.33054270E-08
  -1.72000006E-02  -1.36720457E-08
  -1.71499997E-02  -1.40483714E-08
  -1.71000008E-02  -1.44344474E-08
  -1.70499999E-02  -1.48303609E-08
  -1.70000009E-02  -1.52363011E-08
  -1.69500001E-02  -1.56525832E-08
  -1.68999992E-02  -1.60796052E-08
  -1.68500002E-02  -1.65177934E-08
  -1.67999994E-02  -1.69675118E-08
  -1.67500004E-02  -1.74290253E-08
  -1.66999996E-02  -1.79024866E-08
  -1.66500006E-02  -1.83879862E-08
  -1.65999997E-02  -1.88856344E-08
  -1.65500008E-02  -1.93956193E-08
  -1.64999999E-02  -1.99182573E-08
  -1.64500009E-02  -2.04539816E-08
  -1.64000001E-02  -2.10032649E-08
  -1.63499992E-02  -2.15665654E-08
  -1.63000003E-02  -2.21442455E-08
  -1.62499994E-02  -2.27365522E-08
  -1.62000004E-02  -2.33436523E-08
  -1.61499996E-02  -2.39656952E-08
  -1.61000006E-02  -2.46028904E-08
  -1.60499997E-02  -2.52555701E-08
  -1.60000008E-02  -2.59241890E-08
  -1.59499999E-02  -2.66092837E-08
  -1.59000009E-02  -2.73114011E-08
  -1.58500001E-02  -2.80310086E-08
  -1.57999992E-02  -2.87684720E-08
  -1.57500003E-02  -2.95240525E-08
  -1.56999994E-02  -3.02979615E-08
  -1.56500004E-02  -3.10904582E-08
  -1.55999996E-02  -3.19019122E-08
  -1.55499997E-02  -3.27328138E-08
  -1.54999997E-02  -3.35837704E-08
  -1.54499998E-02  -3.44554252E-08
  -1.53999999E-02  -3.53483713E-08
  -1.53500000E-02  -3.62630956E-08
  -1.53000001E-02  -3.71999711E-08
  -1.52500002E-02  -3.81593175E-08
  -1.52000003E-02  -3.91414510E-08
  -1.51500003E-02  -4.01467837E-08
  -1.51000004E-02  -4.11758627E-08
  -1.50499996E-02  -4.22293667E-08
  -1.49999997E-02  -4.33080203E-08
  -1.49499997E-02  -4.44125448E-08
  -1.48999998E-02  -4.55435725E-08
  -1.48499999E-02  -4.67016221E-08
  -1.48000000E-02  -4.78871165E-08
  -1.47500001E-02  -4.91004606E-08
  -1.47000002E-02  -5.03421198E-08
  -1.46500003E-02  -5.16127017E-08
  -1.46000003E-02  -5.29129558E-08
  -1.45500004E-02  -5.42437064E-08
  -1.44999996E-02  -5.56058133E-08
  -1.44499997E-02  -5.70000545E-08
  -1.43999998E-02  -5.84270943E-08
  -1.43499998E-02  -5.98874763E-08
  -1.42999999E-02  -6.13817122E-08
  -1.42500000E-02  -6.29103454E-08
  -1.42000001E-02  -6.44740510E-08
  -1.41500002E-02  -6.60736248E-08
  -1.41000003E-02  -6.77100047E-08
  -1.40500003E-02  -6.93841784E-08
  -1.40000004E-02  -7.10970625E-08
  -1.39499996E-02  -7.28494740E-08
  -1.38999997E-02  -7.46421094E-08
  -1.38499998E-02  -7.64755725E-08
  -1.37999998E-02  -7.83504959E-08
  -1.37499999E-02  -8.02676254E-08
  -1.37000000E-02  -8.22278565E-08
  -1.36500001E-02  -8.42322194E-08
  -1.36000002E-02  -8.62818226E-08
  -1.35500003E-02  -8.83777318E-08
  -1.35000004E-02  -9.05209063E-08
  -1.34500004E-02  -9.27121846E-08
  -1.33999996E-02  -9.49522914E-08
  -1.33499997E-02  -9.72419656E-08
  -1.32999998E-02  -9.95820244E-08
  -1.32499998E-02  -1.01973455E-07
  -1.31999999E-02  -1.04417353E-07
  -1.31500000E-02  -1.06914960E-07
  -1.31000001E-02  -1.09467486E-07
  -1.30500002E-02  -1.12076037E-07
  -1.30000003E-02  -1.14741603E-07
  -1.29500004E-02  -1.17465056E-07
  -1.29000004E-02  -1.20247194E-07
  -1.28499996E-02  -1.23088952E-07
  -1.27999997E-02  -1.25991363E-07
  -1.27499998E-02  -1.28955662E-07
  -1.26999998E-02  -1.31983157E-07
  -1.26499999E-02  -1.35075211E-07
  -1.26000000E-02  -1.38233119E-07
  -1.25500001E-02  -1.41458003E-07
  -1.25000002E-02  -1.44750814E-07
  -1.24500003E-02  -1.48112520E-07
  -1.24000004E-02  -1.51544072E-07
  -1.23500004E-02  -1.55046664E-07
  -1.22999996E-02  -1.58621560E-07
  -1.22499997E-02  -1.62270183E-07
  -1.21999998E-02  -1.65994066E-07
  -1.21499998E-02  -1.69794532E-07
  -1.20999999E-02  -1.73672902E-07
  -1.20500000E-02  -1.77630270E-07
  -1.20000001E-02  -1.81667659E-07
  -1.19500002E-02  -1.85786135E-07
  -1.19000003E-02  -1.89986935E-07
  -1.18500004E-02  -1.94271479E-07
  -1.18000004E-02  -1.98641288E-07
  -1.17499996E-02  -2.03098011E-07
  -1.16999997E-02  -2.07643197E-07
  -1.16499998E-02  -2.12278238E-07
  -1.15999999E-02  -2.17004356E-07
  -1.15499999E-02  -2.21822688E-07
  -1.15000000E-02  -2.26734386E-07
  -1.14500001E-02  -2.31740728E-07
  -1.14000002E-02  -2.36843192E-07
  -1.13500003E-02  -2.42043427E-07
  -1.13000004E-02  -2.47343138E-07
  -1.12500004E-02  -2.52744030E-07
  -1.11999996E-02  -2.58247553E-07
  -1.11499997E-02  -2.63855185E-07
  -1.10999998E-02  -2.69568062E-07
  -1.10499999E-02  -2.75387549E-07
  -1.09999999E-02  -2.81314982E-07
  -1.09500000E-02  -2.87352037E-07
  -1.09000001E-02  -2.93500420E-07
  -1.08500002E-02  -2.99762007E-07
  -1.08000003E-02  -3.06138617E-07
  -1.07500004E-02  -3.12631897E-07
  -1.07000005E-02  -3.19243327E-07
  -1.06499996E-02  -3.25974213E-07
  -1.05999997E-02  -3.32825834E-07
  -1.05499998E-02  -3.39799641E-07
  -1.04999999E-02  -3.46897252E-07
  -1.04499999E-02  -3.54120601E-07
  -1.04000000E-02  -3.61471564E-07
  -1.03500001E-02  -3.68952215E-07
  -1.03000002E-02  -3.76564230E-07
  -1.02500003E-02  -3.84309317E-07
  -1.02000004E-02  -3.92188923E-07
  -1.01500005E-02  -4.00204499E-07
  -1.00999996E-02  -4.08357522E-07
  -1.00499997E-02  -4.16649641E-07
  -9.99999978E-03  -4.25082874E-07
  -9.94999986E-03  -4.33659324E-07
  -9.89999995E-03  -4.42381008E-07
  -9.85000003E-03  -4.51249974E-07
  -9.80000012E-03  -4.60267984E-07
  -9.75000020E-03  -4.69436543E-07
  -9.70000029E-03  -4.78757158E-07
  -9.65000037E-03  -4.88231308E-07
  -9.60000046E-03  -4.97860583E-07
  -9.54999961E-03  -5.07647201E-07
  -9.49999969E-03  -5.17593264E-07
  -9.44999978E-03  -5.27700934E-07
  -9.39999986E-03  -5.37972369E-07
  -9.34999995E-03  -5.48409332E-07
  -9.30000003E-03  -5.59013358E-07
  -9.25000012E-03  -5.69786039E-07
  -9.20000020E-03  -5.80728795E-07
  -9.15000029E-03  -5.91843445E-07
  -9.10000037E-03  -6.03131980E-07
  -9.05000046E-03  -6.14596843E-07
  -8.99999961E-03  -6.26240364E-07
  -8.94999970E-03  -6.38064591E-07
  -8.89999978E-03  -6.50071570E-07
  -8.84999987E-03  -6.62263005E-07
  -8.79999995E-03  -6.74640376E-07
  -8.75000004E-03  -6.87205215E-07
  -8.70000012E-03  -6.99959287E-07
  -8.65000021E-03  -7.12904750E-07
  -8.60000029E-03  -7.26043766E-07
  -8.55000038E-03  -7.39378720E-07
  -8.50000046E-03  -7.52911660E-07
  -8.44999962E-03  -7.66644519E-07
  -8.39999970E-03  -7.80579228E-07
  -8.34999979E-03  -7.94717153E-07
  -8.29999987E-03  -8.09059770E-07
  -8.24999996E-03  -8.23608616E-07
  -8.20000004E-03  -8.38365565E-07
  -8.15000013E-03  -8.53332836E-07
  -8.10000021E-03  -8.68512643E-07
  -8.05000030E-03  -8.83907148E-07
  -8.00000038E-03  -8.99518682E-07
  -7.95000046E-03  -9.15348721E-07
  -7.89999962E-03  -9.31398858E-07
  -7.84999970E-03  -9.47670401E-07
  -7.79999979E-03  -9.64164769E-07
  -7.74999987E-03  -9.80883669E-07
  -7.69999996E-03  -9.97829147E-07
  -7.65000004E-03  -1.01500348E-06
  -7.60000013E-03  -1.03240893E-06
  -7.55000021E-03  -1.05004767E-06
  -7.49999983E-03  -1.06792083E-06
  -7.44999992E-03  -1.08602978E-06
  -7.40000000E-03  -1.10437554E-06
  -7.35000009E-03  -1.12295936E-06
  -7.30000017E-03  -1.14178226E-06
  -7.24999979E-03  -1.16084641E-06
  -7.19999988E-03  -1.18015362E-06
  -7.14999996E-03  -1.19970571E-06
  -7.10000005E-03  -1.21950461E-06
  -7.05000013E-03  -1.23955181E-06
  -7.00000022E-03  -1.25984832E-06
  -6.94999984E-03  -1.28039460E-06
  -6.89999992E-03  -1.30119156E-06
  -6.85000001E-03  -1.32223988E-06
  -6.80000009E-03  -1.34354104E-06
  -6.75000018E-03  -1.36509641E-06
  -6.69999979E-03  -1.38690791E-06
  -6.64999988E-03  -1.40897737E-06
  -6.59999996E-03  -1.43130592E-06
  -6.55000005E-03  -1.45389424E-06
  -6.50000013E-03  -1.47674223E-06
  -6.45000022E-03  -1.49984999E-06
  -6.39999984E-03  -1.52321809E-06
  -6.34999992E-03  -1.54684676E-06
  -6.30000001E-03  -1.57073760E-06
  -6.25000009E-03  -1.59489173E-06
  -6.20000018E-03  -1.61931030E-06
  -6.14999980E-03  -1.64399421E-06
  -6.09999988E-03  -1.66894347E-06
  -6.04999997E-03  -1.69415762E-06
  -6.00000005E-03  -1.71963586E-06
  -5.95000014E-03  -1.74537752E-06
  -5.90000022E-03  -1.77138236E-06
  -5.84999984E-03  -1.79765095E-06
  -5.79999993E-03  -1.82418376E-06
  -5.75000001E-03  -1.85098190E-06
  -5.70000010E-03  -1.87804562E-06
  -5.65000018E-03  -1.90537401E-06
  -5.59999980E-03  -1.93296660E-06
  -5.54999989E-03  -1.96082169E-06
  -5.49999997E-03  -1.98893758E-06
  -5.45000006E-03  -2.01731291E-06
  -5.40000014E-03  -2.04594721E-06
  -5.35000023E-03  -2.07484027E-06
  -5.29999984E-03  -2.10399207E-06
  -5.24999993E-03  -2.13340263E-06
  -5.20000001E-03  -2.16307012E-06
  -5.15000010E-03  -2.19299295E-06
  -5.10000018E-03  -2.22316839E-06
  -5.04999980E-03  -2.25359349E-06
  -4.99999989E-03  -2.28426575E-06
  -4.94999997E-03  -2.31518334E-06
  -4.90000006E-03  -2.34634467E-06
  -4.85000014E-03  -2.37774907E-06
  -4.80000023E-03  -2.40939539E-06
  -4.74999985E-03  -2.44128114E-06
  -4.69999993E-03  -2.47340336E-06
  -4.65000002E-03  -2.50575772E-06
  -4.60000010E-03  -2.53834082E-06
  -4.55000019E-03  -2.57114880E-06
  -4.49999981E-03  -2.60417801E-06
  -4.44999989E-03  -2.63742618E-06
  -4.39999998E-03  -2.67089081E-06
  -4.35000006E-03  -2.70456962E-06
  -4.30000015E-03  -2.73845922E-06
  -4.25000023E-03  -2.77255526E-06
  -4.19999985E-03  -2.80685254E-06
  -4.14999994E-03  -2.84134558E-06
  -4.10000002E-03  -2.87602938E-06
  -4.05000011E-03  -2.91089805E-06
  -4.00000019E-03  -2.94594815E-06
  -3.94999981E-03  -2.98117516E-06
  -3.89999989E-03  -3.01657519E-06
  -3.84999998E-03  -3.05214439E-06
  -3.80000006E-03  -3.08787617E-06
  -3.74999992E-03  -3.12376505E-06
  -3.70000000E-03  -3.15980265E-06
  -3.65000009E-03  -3.19598212E-06
  -3.59999994E-03  -3.23229574E-06
  -3.55000002E-03  -3.26873806E-06
  -3.50000011E-03  -3.30530338E-06
  -3.44999996E-03  -3.34198694E-06
  -3.40000005E-03  -3.37878191E-06
  -3.34999990E-03  -3.41568170E-06
  -3.29999998E-03  -3.45267767E-06
  -3.25000007E-03  -3.48976096E-06
  -3.19999992E-03  -3.52692155E-06
  -3.15000000E-03  -3.56415012E-06
  -3.10000009E-03  -3.60143804E-06
  -3.04999994E-03  -3.63877871E-06
  -3.00000003E-03  -3.67616485E-06
  -2.95000011E-03  -3.71358897E-06
  -2.89999996E-03  -3.75104241E-06
  -2.85000005E-03  -3.78851519E-06
  -2.79999990E-03  -3.82599501E-06
  -2.74999999E-03  -3.86347028E-06
  -2.70000007E-03  -3.90092873E-06
  -2.64999992E-03  -3.93836126E-06
  -2.60000001E-03  -3.97575786E-06
  -2.55000009E-03  -4.01310854E-06
  -2.49999994E-03  -4.05040464E-06
  -2.45000003E-03  -4.08763617E-06
  -2.40000011E-03  -4.12479039E-06
  -2.34999997E-03  -4.16185276E-06
  -2.30000005E-03  -4.19880917E-06
  -2.24999990E-03  -4.23564552E-06
  -2.19999999E-03  -4.27234954E-06
  -2.15000007E-03  -4.30890896E-06
  -2.09999993E-03  -4.34531239E-06
  -2.05000001E-03  -4.38154848E-06
  -2.00000009E-03  -4.41760585E-06
  -1.94999995E-03  -4.45346814E-06
  -1.90000003E-03  -4.48912124E-06
  -1.85000000E-03  -4.52454788E-06
  -1.79999997E-03  -4.55973031E-06
  -1.75000005E-03  -4.59465355E-06
  -1.70000002E-03  -4.62930302E-06
  -1.64999999E-03  -4.66366464E-06
  -1.59999996E-03  -4.69772522E-06
  -1.55000004E-03  -4.73147065E-06
  -1.50000001E-03  -4.76488367E-06
  -1.44999998E-03  -4.79794653E-06
  -1.39999995E-03  -4.83064014E-06
  -1.35000004E-03  -4.86294402E-06
  -1.30000000E-03  -4.89483909E-06
  -1.24999997E-03  -4.92630943E-06
  -1.20000006E-03  -4.95733684E-06
  -1.15000003E-03  -4.98790678E-06
  -1.09999999E-03  -5.01800241E-06
  -1.04999996E-03  -5.04760510E-06
  -1.00000005E-03  -5.07669438E-06
  -9.50000016E-04  -5.10524796E-06
  -8.99999985E-04  -5.13324403E-06
  -8.50000011E-04  -5.16066075E-06
  -7.99999980E-04  -5.18747811E-06
  -7.50000007E-04  -5.21367747E-06
  -6.99999975E-04  -5.23924018E-06
  -6.50000002E-04  -5.26414624E-06
  -6.00000028E-04  -5.28837563E-06
  -5.49999997E-04  -5.31190472E-06
  -5.00000024E-04  -5.33470893E-06
  -4.49999992E-04  -5.35676281E-06
  -3.99999990E-04  -5.37804317E-06
  -3.49999988E-04  -5.39852681E-06
  -3.00000014E-04  -5.41819190E-06
  -2.50000012E-04  -5.43701708E-06
  -1.99999995E-04  -5.45498142E-06
  -1.50000007E-04  -5.47205991E-06
  -9.99999975E-05  -5.48822845E-06
  -4.99999987E-05  -5.50345885E-06
   0.00000000      -5.51772519E-06
   4.99999987E-05  -5.53099972E-06
   9.99999975E-05  -5.54325561E-06
   1.50000007E-04  -5.55447014E-06
   1.99999995E-04  -5.56461737E-06
   2.50000012E-04  -5.57367366E-06
   3.00000014E-04  -5.58161355E-06
   3.49999988E-04  -5.58841020E-06
   3.99999990E-04  -5.59403315E-06
   4.49999992E-04  -5.59845330E-06
   5.00000024E-04  -5.60164108E-06
   5.49999997E-04  -5.60356693E-06
   6.00000028E-04  -5.60420312E-06
   6.50000002E-04  -5.60352373E-06
   6.99999975E-04  -5.60150147E-06
   7.50000007E-04  -5.59810906E-06
   7.99999980E-04  -5.59331693E-06
   8.50000011E-04  -5.58709326E-06
   8.99999985E-04  -5.57940575E-06
   9.50000016E-04  -5.57022304E-06
   1.00000005E-03  -5.55951237E-06
   1.04999996E-03  -5.54724465E-06
   1.09999999E-03  -5.53339032E-06
   1.15000003E-03  -5.51792027E-06
   1.20000006E-03  -5.50080449E-06
   1.24999997E-03  -5.48201206E-06
   1.30000000E-03  -5.46150932E-06
   1.35000004E-03  -5.43925989E-06
   1.39999995E-03  -5.41523059E-06
   1.44999998E-03  -5.38938730E-06
   1.50000001E-03  -5.36170000E-06
   1.55000004E-03  -5.33213597E-06
   1.59999996E-03  -5.30066563E-06
   1.64999999E-03  -5.26725626E-06
   1.70000002E-03  -5.23187464E-06
   1.75000005E-03  -5.19448440E-06
   1.79999997E-03  -5.15504962E-06
   1.85000000E-03  -5.11353301E-06
   1.90000003E-03  -5.06990045E-06
   1.94999995E-03  -5.02411876E-06
   2.00000009E-03  -4.97615520E-06
   2.05000001E-03  -4.92597519E-06
   2.09999993E-03  -4.87354464E-06
   2.15000007E-03  -4.81882898E-06
   2.19999999E-03  -4.76179184E-06
   2.24999990E-03  -4.70239593E-06
   2.30000005E-03  -4.64060395E-06
   2.34999997E-03  -4.57637998E-06
   2.40000011E-03  -4.50968719E-06
   2.45000003E-03  -4.44049192E-06
   2.49999994E-03  -4.36875916E-06
   2.55000009E-03  -4.29445390E-06
   2.60000001E-03  -4.21753975E-06
   2.64999992E-03  -4.13797898E-06
   2.70000007E-03  -4.05573473E-06
   2.74999999E-03  -3.97076883E-06
   2.79999990E-03  -3.88304488E-06