  -3.99999991E-02   0.00000000    
  -3.99499983E-02   0.00000000    
  -3.99000011E-02   0.00000000    
  -3.98500003E-02  -4.22719162E-15
  -3.97999994E-02  -3.42781732E-14
  -3.97499986E-02  -1.44495350E-13
  -3.97000015E-02  -4.19704392E-13
  -3.96500006E-02  -9.36229284E-13
  -3.95999998E-02  -1.69320113E-12
  -3.95499989E-02  -2.55861608E-12
  -3.95000018E-02  -3.28757204E-12
  -3.94500010E-02  -3.63468782E-12
  -3.94000001E-02  -3.51622073E-12
  -3.93499993E-02  -3.12793324E-12
  -3.92999984E-02  -2.93026584E-12
  -3.92500013E-02  -3.47258550E-12
  -3.92000005E-02  -5.11263688E-12
  -3.91499996E-02  -7.75834692E-12
  -3.90999988E-02  -1.07823134E-11
  -3.90500017E-02  -1.32062816E-11
  -3.90000008E-02  -1.41221817E-11
  -3.89500000E-02  -1.31625726E-11
  -3.88999991E-02  -1.07575832E-11
  -3.88499983E-02  -7.99422594E-12
  -3.88000011E-02  -6.10300872E-12
  -3.87500003E-02  -5.81115624E-12
  -3.86999995E-02  -6.88846072E-12
  -3.86499986E-02  -8.12604584E-12
  -3.86000015E-02  -7.78882514E-12
  -3.85500006E-02  -4.36640871E-12
  -3.84999998E-02   2.70563910E-12
  -3.84499989E-02   1.27124995E-11
  -3.84000018E-02   2.39345384E-11
  -3.83500010E-02   3.44565522E-11
  -3.83000001E-02   4.31230607E-11
  -3.82499993E-02   5.01214764E-11
  -3.81999984E-02   5.68615120E-11
  -3.81500013E-02   6.52294399E-11
  -3.81000005E-02   7.66574373E-11
  -3.80499996E-02   9.15209575E-11
  -3.79999988E-02   1.09144166E-10
  -3.79500017E-02   1.28340297E-10
  -3.79000008E-02   1.48151422E-10
  -3.78500000E-02   1.68374759E-10
  -3.77999991E-02   1.89565669E-10
  -3.77499983E-02   2.12465129E-10
  -3.77000012E-02   2.37146996E-10
  -3.76500003E-02   2.62447786E-10
  -3.75999995E-02   2.86187934E-10
  -3.75499986E-02   3.06220022E-10
  -3.75000015E-02   3.21703053E-10
  -3.74500006E-02   3.33682637E-10
  -3.73999998E-02   3.44385021E-10
  -3.73499990E-02   3.55461632E-10
  -3.73000018E-02   3.66196157E-10
  -3.72500010E-02   3.72876674E-10
  -3.72000001E-02   3.70014991E-10
  -3.71499993E-02   3.53135632E-10
  -3.70999984E-02   3.21916799E-10
  -3.70500013E-02   2.81959650E-10
  -3.70000005E-02   2.43711468E-10
  -3.69499996E-02   2.18202095E-10
  -3.68999988E-02   2.10993265E-10
  -3.68500017E-02   2.17248886E-10
  -3.68000008E-02   2.21047847E-10
  -3.67500000E-02   2.00431852E-10
  -3.66999991E-02   1.36768333E-10
  -3.66499983E-02   2.43458777E-11
  -3.66000012E-02  -1.24712032E-10
  -3.65500003E-02  -2.83469609E-10
  -3.64999995E-02  -4.20875390E-10
  -3.64499986E-02  -5.16050203E-10
  -3.64000015E-02  -5.69694236E-10
  -3.63500006E-02  -6.06479145E-10
  -3.62999998E-02  -6.65694611E-10
  -3.62499990E-02  -7.82874987E-10
  -3.62000018E-02  -9.70279523E-10
  -3.61500010E-02  -1.20609733E-09
  -3.61000001E-02  -1.43935575E-09
  -3.60499993E-02  -1.61042901E-09
  -3.59999985E-02  -1.67900871E-09
  -3.59500013E-02  -1.64652669E-09
  -3.59000005E-02  -1.56116631E-09
  -3.58499996E-02  -1.50070789E-09
  -3.57999988E-02  -1.53865454E-09
  -3.57500017E-02  -1.70786163E-09
  -3.57000008E-02  -1.97897232E-09
  -3.56500000E-02  -2.26612684E-09
  -3.55999991E-02  -2.46076537E-09
  -3.55499983E-02  -2.48058618E-09
  -3.55000012E-02  -2.31147856E-09
  -3.54500003E-02  -2.02093298E-09
  -3.53999995E-02  -1.73303627E-09
  -3.53499986E-02  -1.57304447E-09
  -3.53000015E-02  -1.60533586E-09
  -3.52500007E-02  -1.79423587E-09
  -3.51999998E-02  -2.00917394E-09
  -3.51499990E-02  -2.07654272E-09
  -3.51000018E-02  -1.85848603E-09
  -3.50500010E-02  -1.32376032E-09
  -3.50000001E-02  -5.75719583E-10
  -3.49499993E-02   1.80842716E-10
  -3.48999985E-02   7.24761251E-10
  -3.48500013E-02   9.20140908E-10
  -3.48000005E-02   7.87548970E-10
  -3.47499996E-02   5.07784426E-10
  -3.46999988E-02   3.50204810E-10
  -3.46500017E-02   5.52965951E-10
  -3.46000008E-02   1.20775900E-09
  -3.45500000E-02   2.20394147E-09
  -3.44999991E-02   3.26351435E-09
  -3.44499983E-02   4.05817024E-09
  -3.44000012E-02   4.36008030E-09
  -3.43500003E-02   4.15787005E-09
  -3.42999995E-02   3.67969011E-09
  -3.42499986E-02   3.30439831E-09
  -3.42000015E-02   3.39360229E-09
  -3.41500007E-02   4.11774081E-09
  -3.40999998E-02   5.35814060E-09
  -3.40499990E-02   6.73730627E-09
  -3.40000018E-02   7.77298048E-09
  -3.39500010E-02   8.09284550E-09
  -3.39000002E-02   7.61365815E-09
  -3.38499993E-02   6.59842669E-09
  -3.37999985E-02   5.55617063E-09
  -3.37500013E-02   5.01999065E-09
  -3.37000005E-02   5.29891064E-09
  -3.36499996E-02   6.31814068E-09
  -3.35999988E-02   7.62901919E-09
  -3.35500017E-02   8.59556426E-09
  -3.35000008E-02   8.68181171E-09
  -3.34500000E-02   7.71153807E-09
  -3.33999991E-02   5.97645622E-09
  -3.33499983E-02   4.13214485E-09
  -3.33000012E-02   2.91652436E-09
  -3.32500003E-02   2.81079493E-09
  -3.31999995E-02   3.79716480E-09
  -3.31499986E-02   5.33230660E-09
  -3.31000015E-02   6.56255894E-09
  -3.30500007E-02   6.69608591E-09
  -3.29999998E-02   5.36905498E-09
  -3.29499990E-02   2.83586843E-09
  -3.29000019E-02  -1.14692533E-10
  -3.28500010E-02  -2.49371324E-09
  -3.28000002E-02  -3.55551633E-09
  -3.27499993E-02  -3.15073634E-09
  -3.26999985E-02  -1.82112481E-09
  -3.26500013E-02  -5.79245263E-10
  -3.26000005E-02  -4.59177169E-10
  -3.25499997E-02  -2.03457562E-09
  -3.24999988E-02  -5.12540455E-09
  -3.24500017E-02  -8.83846418E-09
  -3.24000008E-02  -1.19398953E-08
  -3.23500000E-02  -1.34042395E-08
  -3.22999991E-02  -1.28955202E-08
  -3.22499983E-02  -1.09552758E-08
  -3.22000012E-02  -8.79704132E-09
  -3.21500003E-02  -7.78354892E-09
  -3.20999995E-02  -8.81230111E-09
  -3.20499986E-02  -1.18871970E-08
  -3.20000015E-02  -1.60800635E-08
  -3.19500007E-02  -1.99155412E-08
  -3.18999998E-02  -2.20198473E-08
  -3.18499990E-02  -2.17467448E-08
  -3.18000019E-02  -1.94933580E-08
  -3.17500010E-02  -1.65494569E-08
  -3.17000002E-02  -1.45316781E-08
  -3.16499993E-02  -1.46463428E-08
  -3.15999985E-02  -1.71125745E-08
  -3.15500014E-02  -2.10162430E-08
  -3.15000005E-02  -2.46778864E-08
  -3.14499997E-02  -2.63856617E-08
  -3.13999988E-02  -2.51719463E-08
  -3.13500017E-02  -2.12808917E-08
  -3.13000008E-02  -1.61032307E-08
  -3.12500000E-02  -1.15897887E-08
  -3.11999992E-02  -9.39250722E-09
  -3.11500002E-02  -1.01134914E-08
  -3.10999993E-02  -1.30053364E-08
  -3.10500003E-02  -1.62714979E-08
  -3.09999995E-02  -1.78480235E-08
  -3.09500005E-02  -1.63265046E-08
  -3.08999997E-02  -1.16047740E-08
  -3.08500007E-02  -4.96405717E-09
  -3.07999998E-02   1.47683044E-09
  -3.07500008E-02   5.69874503E-09
  -3.07000000E-02   6.69669031E-09
  -3.06499992E-02   4.95752772E-09
  -3.06000002E-02   2.27482699E-09
  -3.05499993E-02   9.68834235E-10
  -3.05000003E-02   2.84909807E-09
  -3.04499995E-02   8.38066061E-09
  -3.04000005E-02   1.64327378E-08
  -3.03499997E-02   2.47349039E-08
  -3.03000007E-02   3.08508525E-08
  -3.02499998E-02   3.32438894E-08
  -3.02000009E-02   3.19593489E-08
  -3.01500000E-02   2.86128330E-08
  -3.00999992E-02   2.56790109E-08
  -3.00500002E-02   2.53890970E-08
  -2.99999993E-02   2.87244983E-08
  -2.99500003E-02   3.49573739E-08
  -2.98999995E-02   4.19500523E-08
  -2.98500005E-02   4.70889923E-08
  -2.97999997E-02   4.84444165E-08
  -2.97500007E-02   4.56414604E-08
  -2.96999998E-02   4.00513365E-08
  -2.96500009E-02   3.42088065E-08
  -2.96000000E-02   3.07055181E-08
  -2.95499992E-02   3.10440313E-08
  -2.95000002E-02   3.49595091E-08
  -2.94499993E-02   4.05133598E-08
  -2.94000003E-02   4.49236310E-08
  -2.93499995E-02   4.57713583E-08
  -2.93000005E-02   4.20547899E-08
  -2.92499997E-02   3.46286591E-08
  -2.92000007E-02   2.58350514E-08
  -2.91499998E-02   1.84864959E-08
  -2.91000009E-02   1.46455221E-08
  -2.90500000E-02   1.47345203E-08
  -2.89999992E-02   1.73648349E-08
  -2.89500002E-02   1.99590442E-08
  -2.88999993E-02   1.98937471E-08
  -2.88500004E-02   1.56630318E-08
  -2.87999995E-02   7.55508633E-09
  -2.87500005E-02  -2.45141263E-09
  -2.86999997E-02  -1.15241727E-08
  -2.86500007E-02  -1.71826979E-08
  -2.85999998E-02  -1.83509670E-08
  -2.85500009E-02  -1.58060374E-08
  -2.85000000E-02  -1.18346239E-08
  -2.84499992E-02  -9.25072108E-09
  -2.84000002E-02  -1.01991269E-08
  -2.83499993E-02  -1.52559956E-08
  -2.83000004E-02  -2.32045476E-08
  -2.82499995E-02  -3.15717656E-08
  -2.82000005E-02  -3.76868243E-08
  -2.81499997E-02  -3.98045330E-08
  -2.81000007E-02  -3.78181966E-08
  -2.80499998E-02  -3.32685985E-08
  -2.80000009E-02  -2.86585902E-08
  -2.79500000E-02  -2.63734012E-08
  -2.78999992E-02  -2.76666565E-08
  -2.78500002E-02  -3.21348743E-08
  -2.77999993E-02  -3.78916134E-08
  -2.77500004E-02  -4.23590869E-08
  -2.76999995E-02  -4.33412133E-08
  -2.76500005E-02  -3.99325053E-08
  -2.75999997E-02  -3.28931087E-08
  -2.75500007E-02  -2.43454412E-08
  -2.74999999E-02  -1.69259451E-08
  -2.74500009E-02  -1.27423290E-08
  -2.74000000E-02  -1.25572219E-08
  -2.73499992E-02  -1.55187063E-08
  -2.73000002E-02  -1.95350989E-08
  -2.72499993E-02  -2.21352963E-08
  -2.72000004E-02  -2.14683347E-08
  -2.71499995E-02  -1.70475563E-08
  -2.71000005E-02  -9.94915617E-09
  -2.70499997E-02  -2.39075093E-09
  -2.70000007E-02   3.14270321E-09
  -2.69499999E-02   4.88416152E-09
  -2.69000009E-02   2.49684784E-09
  -2.68500000E-02  -2.76668866E-09
  -2.67999992E-02  -8.52823945E-09
  -2.67500002E-02  -1.22020616E-08
  -2.66999993E-02  -1.20213928E-08
  -2.66500004E-02  -7.77756171E-09
  -2.65999995E-02  -9.75039050E-10
  -2.65500005E-02   5.68054181E-09
  -2.64999997E-02   9.28907529E-09
  -2.64500007E-02   7.88450905E-09
  -2.63999999E-02   1.24626420E-09
  -2.63500009E-02  -8.94415297E-09
  -2.63000000E-02  -1.96989607E-08
  -2.62499992E-02  -2.78755188E-08
  -2.62000002E-02  -3.14512860E-08
  -2.61499994E-02  -3.04120782E-08
  -2.61000004E-02  -2.68649405E-08
  -2.60499995E-02  -2.42773535E-08
  -2.60000005E-02  -2.60974300E-08
  -2.59499997E-02  -3.42864830E-08
  -2.59000007E-02  -4.83732201E-08
  -2.58499999E-02  -6.54685266E-08
  -2.58000009E-02  -8.13086345E-08
  -2.57500000E-02  -9.19622778E-08
  -2.56999992E-02  -9.55256212E-08
  -2.56500002E-02  -9.30782562E-08
  -2.55999994E-02  -8.84329552E-08
  -2.55500004E-02  -8.66939374E-08
  -2.54999995E-02  -9.21519572E-08
  -2.54500005E-02  -1.06376163E-07
  -2.53999997E-02  -1.27342545E-07
  -2.53500007E-02  -1.50053239E-07
  -2.52999999E-02  -1.68486281E-07
  -2.52500009E-02  -1.78120331E-07
  -2.52000000E-02  -1.77970634E-07
  -2.51499992E-02  -1.71206693E-07
  -2.51000002E-02  -1.63978285E-07
  -2.50499994E-02  -1.62840550E-07
  -2.50000004E-02  -1.71816637E-07
  -2.49499995E-02  -1.90373498E-07
  -2.49000005E-02  -2.13272230E-07
  -2.48499997E-02  -2.32492255E-07
  -2.48000007E-02  -2.40523207E-07
  -2.47499999E-02  -2.33659719E-07
  -2.47000009E-02  -2.13839087E-07
  -2.46500000E-02  -1.88108032E-07
  -2.45999992E-02  -1.65797047E-07
  -2.45500002E-02  -1.54505500E-07
  -2.44999994E-02  -1.56604258E-07
  -2.44500004E-02  -1.67843083E-07
  -2.43999995E-02  -1.78811760E-07
  -2.43500005E-02  -1.78779288E-07
  -2.42999997E-02  -1.60345337E-07
  -2.42500007E-02  -1.22877637E-07
  -2.41999999E-02  -7.31290228E-08
  -2.41500009E-02  -2.25954864E-08
  -2.41000000E-02   1.73932353E-08
  -2.40499992E-02   4.07855865E-08
  -2.40000002E-02   4.98427859E-08
  -2.39499994E-02   5.46147270E-08
  -2.39000004E-02   6.88869051E-08
  -2.38499995E-02   1.04212504E-07
  -2.38000005E-02   1.64595434E-07
  -2.37499997E-02   2.44244205E-07
  -2.37000007E-02   3.29574078E-07
  -2.36499999E-02   4.04790313E-07
  -2.36000009E-02   4.58743415E-07
  -2.35500000E-02   4.90051832E-07
  -2.34999992E-02   5.08105813E-07
  -2.34500002E-02   5.29288968E-07
  -2.33999994E-02   5.69869030E-07
  -2.33500004E-02   6.38581412E-07
  -2.32999995E-02   7.32220769E-07
  -2.32500006E-02   8.36376898E-07
  -2.31999997E-02   9.31237764E-07
  -2.31500007E-02   1.00010072E-06
  -2.30999999E-02   1.03689388E-06
  -2.30500009E-02   1.04927051E-06
  -2.30000000E-02   1.05567005E-06
  -2.29499992E-02   1.07737219E-06
  -2.29000002E-02   1.12887949E-06
  -2.28499994E-02   1.21087498E-06
  -2.28000004E-02   1.30904880E-06
  -2.27499995E-02   1.39959695E-06
  -2.27000006E-02   1.45922536E-06
  -2.26499997E-02   1.47537037E-06
  -2.26000007E-02   1.45205058E-06
  -2.25499999E-02   1.40851978E-06
  -2.25000009E-02   1.37101256E-06
  -2.24500000E-02   1.36100164E-06
  -2.23999992E-02   1.38510268E-06
  -2.23500002E-02   1.43124919E-06
  -2.22999994E-02   1.47312858E-06
  -2.22500004E-02   1.48122979E-06
  -2.21999995E-02   1.43580507E-06
  -2.21500006E-02   1.33598689E-06
  -2.20999997E-02   1.20078482E-06
  -2.20500007E-02   1.06118341E-06
  -2.19999999E-02   9.46539956E-07
  -2.19500009E-02   8.71161717E-07
  -2.19000001E-02   8.27135295E-07
  -2.18499992E-02   7.86877365E-07
  -2.18000002E-02   7.14633416E-07
  -2.17499994E-02   5.82101677E-07
  -2.17000004E-02   3.81287037E-07
  -2.16499995E-02   1.28684093E-07
  -2.16000006E-02  -1.41399823E-07
  -2.15499997E-02  -3.91776069E-07
  -2.15000007E-02  -5.99147086E-07
  -2.14499999E-02  -7.65195523E-07
  -2.14000009E-02  -9.16784529E-07
  -2.13500001E-02  -1.09478231E-06
  -2.12999992E-02  -1.33614014E-06
  -2.12500002E-02  -1.65706570E-06
  -2.11999994E-02  -2.04493858E-06
  -2.11500004E-02  -2.46293075E-06
  -2.10999995E-02  -2.86567956E-06
  -2.10500006E-02  -3.21933771E-06
  -2.09999997E-02  -3.51712811E-06
  -2.09500007E-02  -3.78321488E-06
  -2.08999999E-02  -4.06274921E-06
  -2.08500009E-02  -4.40216400E-06
  -2.08000001E-02  -4.82824044E-06
  -2.07499992E-02  -5.33534967E-06
  -2.07000002E-02  -5.88688499E-06
  -2.06499994E-02  -6.43071326E-06
  -2.06000004E-02  -6.92207777E-06
  -2.05499995E-02  -7.34385230E-06
  -2.05000006E-02  -7.71495343E-06
  -2.04499997E-02  -8.08269760E-06
  -2.04000007E-02  -8.50209562E-06
  -2.03499999E-02  -9.01102885E-06
  -2.03000009E-02  -9.61238038E-06
  -2.02500001E-02  -1.02713930E-05
  -2.01999992E-02  -1.09298999E-05
  -2.01500002E-02  -1.15315161E-05
  -2.00999994E-02  -1.20467575E-05
  -2.00500004E-02  -1.24867684E-05
  -1.99999996E-02  -1.28991360E-05
  -1.99500006E-02  -1.33472049E-05
  -1.98999997E-02  -1.38817322E-05
  -1.98500007E-02  -1.45174799E-05
  -1.97999999E-02  -1.52254906E-05
  -1.97500009E-02  -1.59448409E-05
  -1.97000001E-02  -1.66091504E-05
  -1.96499992E-02  -1.71762240E-05
  -1.96000002E-02  -1.76475351E-05
  -1.95499994E-02  -1.80685383E-05
  -1.95000004E-02  -1.85091467E-05
  -1.94499996E-02  -1.90326591E-05
  -1.94000006E-02  -1.96669225E-05
  -1.93499997E-02  -2.03907748E-05
  -1.93000007E-02  -2.11421902E-05
  -1.92499999E-02  -2.18451223E-05
  -1.92000009E-02  -2.24433825E-05
  -1.91500001E-02  -2.29263460E-05
  -1.90999992E-02  -2.33347728E-05
  -1.90500002E-02  -2.37436707E-05
  -1.89999994E-02  -2.42293718E-05
  -1.89500004E-02  -2.48353281E-05
  -1.88999996E-02  -2.55520008E-05
  -1.88500006E-02  -2.63202564E-05
  -1.87999997E-02  -2.70572145E-05
  -1.87500007E-02  -2.76933824E-05
  -1.86999999E-02  -2.82046440E-05
  -1.86500009E-02  -2.86244212E-05
  -1.86000001E-02  -2.90301832E-05
  -1.85499992E-02  -2.95099089E-05
  -1.85000002E-02  -3.01230393E-05
  -1.84499994E-02  -3.08734852E-05
  -1.84000004E-02  -3.17072554E-05
  -1.83499996E-02  -3.25359943E-05
  -1.83000006E-02  -3.32765230E-05
  -1.82499997E-02  -3.38888603E-05
  -1.82000007E-02  -3.43955180E-05
  -1.81499999E-02  -3.48730428E-05
  -1.81000009E-02  -3.54191397E-05
  -1.80500001E-02  -3.61096463E-05
  -1.79999992E-02  -3.69646950E-05
  -1.79500002E-02  -3.79394478E-05
  -1.78999994E-02  -3.89438574E-05
  -1.78500004E-02  -3.98833217E-05
  -1.77999996E-02  -4.07020816E-05
  -1.77500006E-02  -4.14098540E-05
  -1.76999997E-02  -4.20793294E-05
  -1.76500008E-02  -4.28151943E-05
  -1.75999999E-02  -4.37085218E-05
  -1.75500009E-02  -4.47961902E-05
  -1.75000001E-02  -4.60439587E-05
  -1.74499992E-02  -4.73615182E-05
  -1.74000002E-02  -4.86430690E-05
  -1.73499994E-02  -4.98151894E-05
  -1.73000004E-02  -5.08710691E-05
  -1.72499996E-02  -5.18752568E-05
  -1.72000006E-02  -5.29361168E-05
  -1.71499997E-02  -5.41584559E-05
  -1.71000008E-02  -5.55969782E-05
  -1.70499999E-02  -5.72316312E-05
  -1.70000009E-02  -5.89763949E-05
  -1.69500001E-02  -6.07179645E-05
  -1.68999992E-02  -6.23672604E-05
  -1.68500002E-02  -6.39006830E-05
  -1.67999994E-02  -6.53726311E-05
  -1.67500004E-02  -6.68928260E-05
  -1.66999996E-02  -6.85782070E-05
  -1.66500006E-02  -7.05011626E-05
  -1.65999997E-02  -7.26570797E-05
  -1.65500008E-02  -7.49661194E-05
  -1.64999999E-02  -7.73084976E-05
  -1.64500009E-02  -7.95785018E-05
  -1.64000001E-02  -8.17330656E-05
  -1.63499992E-02  -8.38120177E-05
  -1.63000003E-02  -8.59215361E-05
  -1.62499994E-02  -8.81877422E-05
  -1.62000004E-02  -9.07005960E-05
  -1.61499996E-02  -9.34732743E-05
  -1.61000006E-02  -9.64359933E-05
  -1.60499997E-02  -9.94677102E-05
  -1.60000008E-02  -1.02450802E-04
  -1.59499999E-02  -1.05324674E-04
  -1.59000009E-02  -1.08114153E-04
  -1.58500001E-02  -1.10920038E-04
  -1.57999992E-02  -1.13875096E-04
  -1.57500003E-02  -1.17084834E-04
  -1.56999994E-02  -1.20579949E-04
  -1.56500004E-02  -1.24302504E-04
  -1.55999996E-02  -1.28131549E-04
  -1.55499997E-02  -1.31937268E-04
  -1.54999997E-02  -1.35639842E-04
  -1.54499998E-02  -1.39246215E-04
  -1.53999999E-02  -1.42848163E-04
  -1.53500000E-02  -1.46581733E-04
  -1.53000001E-02  -1.50566499E-04
  -1.52500002E-02  -1.54851776E-04
  -1.52000003E-02  -1.59394956E-04
  -1.51500003E-02  -1.64080499E-04
  -1.51000004E-02  -1.68771920E-04
  -1.50499996E-02  -1.73374559E-04
  -1.49999997E-02  -1.77878712E-04
  -1.49499997E-02  -1.82366100E-04
  -1.48999998E-02  -1.86974619E-04
  -1.48499999E-02  -1.91836647E-04
  -1.48000000E-02  -1.97020825E-04
  -1.47500001E-02  -2.02501134E-04
  -1.47000002E-02  -2.08168814E-04
  -1.46500003E-02  -2.13881882E-04
  -1.46000003E-02  -2.19529655E-04
  -1.45500004E-02  -2.25084237E-04
  -1.44999996E-02  -2.30614038E-04
  -1.44499997E-02  -2.36254491E-04
  -1.43999998E-02  -2.42148759E-04
  -1.43499998E-02  -2.48383498E-04
  -1.42999999E-02  -2.54950341E-04
  -1.42500000E-02  -2.61751091E-04
  -1.42000001E-02  -2.68643227E-04
  -1.41500002E-02  -2.75504834E-04
  -1.41000003E-02  -2.82292225E-04
  -1.40500003E-02  -2.89061922E-04
  -1.40000004E-02  -2.95946811E-04
  -1.39499996E-02  -3.03098728E-04
  -1.38999997E-02  -3.10621661E-04
  -1.38499998E-02  -3.18525039E-04
  -1.37999998E-02  -3.26721900E-04
  -1.37499999E-02  -3.35070305E-04
  -1.37000000E-02  -3.43437889E-04
  -1.36500001E-02  -3.51764727E-04
  -1.36000002E-02  -3.60093429E-04
  -1.35500003E-02  -3.68551118E-04
  -1.35000004E-02  -3.77293327E-04
  -1.34500004E-02  -3.86437285E-04
  -1.33999996E-02  -3.96009593E-04
  -1.33499997E-02  -4.05936065E-04
  -1.32999998E-02  -4.16077994E-04
  -1.32499998E-02  -4.26296639E-04
  -1.31999999E-02  -4.36518720E-04
  -1.31500000E-02  -4.46772960E-04
  -1.31000001E-02  -4.57180198E-04
  -1.30500002E-02  -4.67900711E-04
  -1.30000003E-02  -4.79065988E-04
  -1.29500004E-02  -4.90721199E-04
  -1.29000004E-02  -5.02805866E-04
  -1.28499996E-02  -5.15185529E-04
  -1.27999997E-02  -5.27714554E-04
  -1.27499998E-02  -5.40303241E-04
  -1.26999998E-02  -5.52963756E-04
  -1.26499999E-02  -5.65806520E-04
  -1.26000000E-02  -5.78992127E-04
  -1.25500001E-02  -5.92661614E-04
  -1.25000002E-02  -6.06874295E-04
  -1.24500003E-02  -6.21583546E-04
  -1.24000004E-02  -6.36659563E-04
  -1.23500004E-02  -6.51952927E-04
  -1.22999996E-02  -6.67366316E-04
  -1.22499997E-02  -6.82899845E-04
  -1.21999998E-02  -6.98657008E-04
  -1.21499998E-02  -7.14799447E-04
  -1.20999999E-02  -7.31476350E-04
  -1.20500000E-02  -7.48759543E-04
  -1.20000001E-02  -7.66613637E-04
  -1.19500002E-02  -7.84916454E-04
  -1.19000003E-02  -8.03515548E-04
  -1.18500004E-02  -8.22300615E-04
  -1.18000004E-02  -8.41258094E-04
  -1.17499996E-02  -8.60480533E-04
  -1.16999997E-02  -8.80127307E-04
  -1.16499998E-02  -9.00356215E-04
  -1.15999999E-02  -9.21253639E-04
  -1.15499999E-02  -9.42798739E-04
  -1.15000000E-02  -9.64876730E-04
  -1.14500001E-02  -9.87332663E-04
  -1.14000002E-02  -1.01004669E-03
  -1.13500003E-02  -1.03299203E-03
  -1.13000004E-02  -1.05625158E-03
  -1.12500004E-02  -1.07998168E-03
  -1.11999996E-02  -1.10434531E-03
  -1.11499997E-02  -1.12943770E-03
  -1.10999998E-02  -1.15524733E-03
  -1.10499999E-02  -1.18166523E-03
  -1.09999999E-02  -1.20853260E-03
  -1.09500000E-02  -1.23572128E-03
  -1.09000001E-02  -1.26319763E-03
  -1.08500002E-02  -1.29104010E-03
  -1.08000003E-02  -1.31940807E-03
  -1.07500004E-02  -1.34847220E-03
  -1.07000005E-02  -1.37833925E-03
  -1.06499996E-02  -1.40901038E-03
  -1.05999997E-02  -1.44037977E-03
  -1.05499998E-02  -1.47228839E-03
  -1.04999999E-02  -1.50459830E-03
  -1.04499999E-02  -1.53725804E-03
  -1.04000000E-02  -1.57033163E-03
  -1.03500001E-02  -1.60397263E-03
  -1.03000002E-02  -1.63835438E-03
  -1.02500003E-02  -1.67359563E-03
  -1.02000004E-02  -1.70971104E-03
  -1.01500005E-02  -1.74660166E-03
  -1.00999996E-02  -1.78410788E-03
  -1.00499997E-02  -1.82208442E-03
  -9.99999978E-03  -1.86047237E-03
  -9.94999986E-03  -1.89933239E-03
  -9.89999995E-03  -1.93881942E-03
  -9.85000003E-03  -1.97911798E-03
  -9.80000012E-03  -2.02035881E-03
  -9.75000020E-03  -2.06256262E-03
  -9.70000029E-03  -2.10563978E-03
  -9.65000037E-03  -2.14942894E-03
  -9.60000046E-03  -2.19377945E-03
  -9.54999961E-03  -2.23862729E-03
  -9.49999969E-03  -2.28402438E-03
  -9.44999978E-03  -2.33012275E-03
  -9.39999986E-03  -2.37710564E-03
  -9.34999995E-03  -2.42510694E-03
  -9.30000003E-03  -2.47415830E-03
  -9.25000012E-03  -2.52417265E-03
  -9.20000020E-03  -2.57498468E-03
  -9.15000029E-03  -2.62643746E-03
  -9.10000037E-03  -2.67844880E-03
  -9.05000046E-03  -2.73105362E-03
  -8.99999961E-03  -2.78440001E-03
  -8.94999970E-03  -2.83868215E-03
  -8.89999978E-03  -2.89405533E-03
  -8.84999987E-03  -2.95056170E-03
  -8.79999995E-03  -3.00812256E-03
  -8.75000004E-03  -3.06657958E-03
  -8.70000012E-03  -3.12577281E-03
  -8.65000021E-03  -3.18561704E-03
  -8.60000029E-03  -3.24614509E-03
  -8.55000038E-03  -3.30749853E-03
  -8.50000046E-03  -3.36986640E-03
  -8.44999962E-03  -3.43340752E-03
  -8.39999970E-03  -3.49818775E-03
  -8.34999979E-03  -3.56413820E-03
  -8.29999987E-03  -3.63109610E-03
  -8.24999996E-03  -3.69888870E-03
  -8.20000004E-03  -3.76740494E-03
  -8.15000013E-03  -3.83666228E-03
  -8.10000021E-03  -3.90679343E-03
  -8.05000030E-03  -3.97799071E-03
  -8.00000038E-03  -4.05041827E-03
  -7.95000046E-03  -4.12413897E-03
  -7.89999962E-03  -4.19909228E-03
  -7.84999970E-03  -4.27511474E-03
  -7.79999979E-03  -4.35202103E-03
  -7.74999987E-03  -4.42969333E-03
  -7.69999996E-03  -4.50814795E-03
  -7.65000004E-03  -4.58751339E-03
  -7.60000013E-03  -4.66798572E-03
  -7.55000021E-03  -4.74976143E-03
  -7.49999983E-03  -4.83292807E-03
  -7.44999992E-03  -4.91743907E-03
  -7.40000000E-03  -5.00312587E-03
  -7.35000009E-03  -5.08979382E-03
  -7.30000017E-03  -5.17731812E-03
  -7.24999979E-03  -5.26568200E-03
  -7.19999988E-03  -5.35500050E-03
  -7.14999996E-03  -5.44547243E-03
  -7.10000005E-03  -5.53729478E-03
  -7.05000013E-03  -5.63056767E-03
  -7.00000022E-03  -5.72524220E-03
  -6.94999984E-03  -5.82114980E-03
  -6.89999992E-03  -5.91808185E-03
  -6.85000001E-03  -6.01588516E-03
  -6.80000009E-03  -6.11454668E-03
  -6.75000018E-03  -6.21417444E-03
  -6.69999979E-03  -6.31495286E-03
  -6.64999988E-03  -6.41707517E-03
  -6.59999996E-03  -6.52065268E-03
  -6.55000005E-03  -6.62566070E-03
  -6.50000013E-03  -6.73194602E-03
  -6.45000022E-03  -6.83931075E-03
  -6.39999984E-03  -6.94761192E-03
  -6.34999992E-03  -7.05680670E-03
  -6.30000001E-03  -7.16697145E-03
  -6.25000009E-03  -7.27829058E-03
  -6.20000018E-03  -7.39096664E-03
  -6.14999980E-03  -7.50513002E-03
  -6.09999988E-03  -7.62077793E-03
  -6.04999997E-03  -7.73776742E-03
  -6.00000005E-03  -7.85588473E-03
  -5.95000014E-03  -7.97494594E-03
  -5.90000022E-03  -8.09487142E-03
  -5.84999984E-03  -8.21573846E-03
  -5.79999993E-03  -8.33771471E-03
  -5.75000001E-03  -8.46097805E-03
  -5.70000010E-03  -8.58567189E-03
  -5.65000018E-03  -8.71180184E-03
  -5.59999980E-03  -8.83925613E-03
  -5.54999989E-03  -8.96783173E-03
  -5.49999997E-03  -9.09731537E-03
  -5.45000006E-03  -9.22762230E-03
  -5.40000014E-03  -9.35879815E-03
  -5.35000023E-03  -9.49099474E-03
  -5.29999984E-03  -9.62441415E-03
  -5.24999993E-03  -9.75921657E-03
  -5.20000001E-03  -9.89543926E-03
  -5.15000010E-03  -1.00329779E-02
  -5.10000018E-03  -1.01716099E-02
  -5.04999980E-03  -1.03111332E-02
  -4.99999989E-03  -1.04514481E-02
  -4.94999997E-03  -1.05925677E-02
  -4.90000006E-03  -1.07346447E-02
  -4.85000014E-03  -1.08778663E-02
  -4.80000023E-03  -1.10223740E-02
  -4.74999985E-03  -1.11681893E-02
  -4.69999993E-03  -1.13151735E-02
  -4.65000002E-03  -1.14631131E-02
  -4.60000010E-03  -1.16118127E-02
  -4.55000019E-03  -1.17611475E-02
  -4.49999981E-03  -1.19111091E-02
  -4.44999989E-03  -1.20618567E-02
  -4.39999998E-03  -1.22135980E-02
  -4.35000006E-03  -1.23664727E-02
  -4.30000015E-03  -1.25205079E-02
  -4.25000023E-03  -1.26755545E-02
  -4.19999985E-03  -1.28313955E-02
  -4.14999994E-03  -1.29878251E-02
  -4.10000002E-03  -1.31447017E-02
  -4.05000011E-03  -1.33020505E-02
  -4.00000019E-03  -1.34600205E-02
  -3.94999981E-03  -1.36187868E-02
  -3.89999989E-03  -1.37784751E-02
  -3.84999998E-03  -1.39390826E-02
  -3.80000006E-03  -1.41005088E-02
  -3.74999992E-03  -1.42625328E-02
  -3.70000000E-03  -1.44248987E-02
  -3.65000009E-03  -1.45874601E-02
  -3.59999994E-03  -1.47502283E-02
  -3.55000002E-03  -1.49132973E-02
  -3.50000011E-03  -1.50768161E-02
  -3.44999996E-03  -1.52409291E-02
  -3.40000005E-03  -1.54056391E-02
  -3.34999990E-03  -1.55707719E-02
  -3.29999998E-03  -1.57361124E-02
  -3.25000007E-03  -1.59014594E-02
  -3.19999992E-03  -1.60666835E-02
  -3.15000000E-03  -1.62317809E-02
  -3.10000009E-03  -1.63968168E-02
  -3.04999994E-03  -1.65619068E-02
  -3.00000003E-03  -1.67271513E-02
  -2.95000011E-03  -1.68925654E-02
  -2.89999996E-03  -1.70580186E-02
  -2.85000005E-03  -1.72232948E-02
  -2.79999990E-03  -1.73881538E-02
  -2.74999999E-03  -1.75524093E-02
  -2.70000007E-03  -1.77160334E-02
  -2.64999992E-03  -1.78791340E-02
  -2.60000001E-03  -1.80418622E-02
  -2.55000009E-03  -1.82043295E-02
  -2.49999994E-03  -1.83665119E-02
  -2.45000003E-03  -1.85282156E-02
  -2.40000011E-03  -1.86891276E-02
  -2.34999997E-03  -1.88490786E-02
  -2.30000005E-03  -1.90079119E-02
  -2.24999990E-03  -1.91655532E-02
  -2.19999999E-03  -1.93220638E-02
  -2.15000007E-03  -1.94775574E-02
  -2.09999993E-03  -1.96321495E-02
  -2.05000001E-03  -1.97857879E-02
  -2.00000009E-03  -1.99382827E-02
  -1.94999995E-03  -2.00893451E-02
  -1.90000003E-03  -2.02387460E-02
  -1.85000000E-03  -2.03863289E-02
  -1.79999997E-03  -2.05320455E-02
  -1.75000005E-03  -2.06759665E-02
  -1.70000002E-03  -2.08181869E-02
  -1.64999999E-03  -2.09587850E-02
  -1.59999996E-03  -2.10976973E-02
  -1.55000004E-03  -2.12347619E-02
  -1.50000001E-03  -2.13697311E-02
  -1.44999998E-03  -2.15022508E-02
  -1.39999995E-03  -2.16321740E-02
  -1.35000004E-03  -2.17595268E-02
  -1.30000000E-03  -2.18843445E-02
  -1.24999997E-03  -2.20067445E-02
  -1.20000006E-03  -2.21267715E-02
  -1.15000003E-03  -2.22442523E-02
  -1.09999999E-03  -2.23588720E-02
  -1.04999996E-03  -2.24702992E-02
  -1.00000005E-03  -2.25782879E-02
  -9.50000016E-04  -2.26827599E-02
  -8.99999985E-04  -2.27837544E-02
  -8.50000011E-04  -2.28813533E-02
  -7.99999980E-04  -2.29755677E-02
  -7.50000007E-04  -2.30664033E-02
  -6.99999975E-04  -2.31537521E-02
  -6.50000002E-04  -2.32373029E-02
  -6.00000028E-04  -2.33167373E-02
  -5.49999997E-04  -2.33918298E-02
  -5.00000024E-04  -2.34624408E-02
  -4.49999992E-04  -2.35285629E-02
  -3.99999990E-04  -2.35903189E-02
  -3.49999988E-04  -2.36477908E-02
  -3.00000014E-04  -2.37009339E-02
  -2.50000012E-04  -2.37495974E-02
  -1.99999995E-04  -2.37934291E-02
  -1.50000007E-04  -2.38320008E-02
  -9.99999975E-05  -2.38650609E-02
  -4.99999987E-05  -2.38925051E-02
   0.00000000      -2.39142310E-02
   4.99999987E-05  -2.39303503E-02
   9.99999975E-05  -2.39410326E-02
   1.50000007E-04  -2.39462461E-02
   1.99999995E-04  -2.39459164E-02
   2.50000012E-04  -2.39397287E-02
   3.00000014E-04  -2.39271671E-02
   3.49999988E-04  -2.39078701E-02
   3.99999990E-04  -2.38816123E-02
   4.49999992E-04  -2.38483213E-02
   5.00000024E-04  -2.38081217E-02
   5.49999997E-04  -2.37611979E-02
   6.00000028E-04  -2.37077717E-02
   6.50000002E-04  -2.36477759E-02
   6.99999975E-04  -2.35807430E-02
   7.50000007E-04  -2.35062242E-02
   7.99999980E-04  -2.34236140E-02
   8.50000011E-04  -2.33325083E-02
   8.99999985E-04  -2.32329816E-02
   9.50000016E-04  -2.31252331E-02
   1.00000005E-03  -2.30095610E-02
   1.04999996E-03  -2.28862353E-02
   1.09999999E-03  -2.27552801E-02
   1.15000003E-03  -2.26162355E-02
   1.20000006E-03  -2.24683937E-02
   1.24999997E-03  -2.23109368E-02
   1.30000000E-03  -2.21433528E-02
   1.35000004E-03  -2.19656453E-02
   1.39999995E-03  -2.17781253E-02
   1.44999998E-03  -2.15813909E-02
   1.50000001E-03  -2.13759504E-02
   1.55000004E-03  -2.11616084E-02
   1.59999996E-03  -2.09377054E-02
   1.64999999E-03  -2.07035840E-02
   1.70000002E-03  -2.04585679E-02
   1.75000005E-03  -2.02022232E-02
   1.79999997E-03  -1.99344307E-02
   1.85000000E-03  -1.96554568E-02
   1.90000003E-03  -1.93658546E-02
   1.94999995E-03  -1.90658998E-02
   2.00000009E-03  -1.87554844E-02
   2.05000001E-03  -1.84343476E-02
   2.09999993E-03  -1.81018692E-02
   2.15000007E-03  -1.77572686E-02
   2.19999999E-03  -1.73999052E-02
   2.24999990E-03  -1.70293972E-02
   2.30000005E-03  -1.66460704E-02
   2.34999997E-03  -1.62505414E-02
   2.40000011E-03  -1.58433244E-02
   2.45000003E-03  -1.54246558E-02
   2.49999994E-03  -1.49941063E-02
   2.55000009E-03  -1.45508656E-02
   2.60000001E-03  -1.40941069E-02
   2.64999992E-03  -1.36231631E-02
   2.70000007E-03  -1.31377243E-02
   2.74999999E-03  -1.26377959E-02
   2.79999990E-03  -1.21238986E-02