  -3.99999991E-02   0.00000000    
  -3.99499983E-02   0.00000000    
  -3.99000011E-02   0.00000000    
  -3.98500003E-02   0.00000000    
  -3.97999994E-02   1.45875757E-19
  -3.97499986E-02   1.10432665E-18
  -3.97000015E-02   4.49196296E-18
  -3.96500006E-02   1.30695827E-17
  -3.95999998E-02   3.07568218E-17
  -3.95499989E-02   6.29907566E-17
  -3.95000018E-02   1.17656622E-16
  -3.94500010E-02   2.05568848E-16
  -3.94000001E-02   3.38725458E-16
  -3.93499993E-02   5.26100793E-16
  -3.92999984E-02   7.69970154E-16
  -3.92500013E-02   1.06714865E-15
  -3.92000005E-02   1.41627053E-15
  -3.91499996E-02   1.82652702E-15
  -3.90999988E-02   2.32108140E-15
  -3.90500017E-02   2.93282045E-15
  -3.90000008E-02   3.69678594E-15
  -3.89500000E-02   4.64502238E-15
  -3.88999991E-02   5.80434325E-15
  -3.88499983E-02   7.19297499E-15
  -3.88000011E-02   8.81529973E-15
  -3.87500003E-02   1.06615588E-14
  -3.86999995E-02   1.27198065E-14
  -3.86499986E-02   1.49960051E-14
  -3.86000015E-02   1.75257876E-14
  -3.85500006E-02   2.03641340E-14
  -3.84999998E-02   2.35580412E-14
  -3.84499989E-02   2.71234282E-14
  -3.84000018E-02   3.10426327E-14
  -3.83500010E-02   3.52773332E-14
  -3.83000001E-02   3.97780936E-14
  -3.82499993E-02   4.44819928E-14
  -3.81999984E-02   4.93104330E-14
  -3.81500013E-02   5.41831493E-14
  -3.81000005E-02   5.90440714E-14
  -3.80499996E-02   6.38744971E-14
  -3.79999988E-02   6.86764895E-14
  -3.79500017E-02   7.34402231E-14
  -3.79000008E-02   7.81259077E-14
  -3.78500000E-02   8.26718997E-14
  -3.77999991E-02   8.70065467E-14
  -3.77499983E-02   9.10347847E-14
  -3.77000012E-02   9.46054148E-14
  -3.76500003E-02   9.75000313E-14
  -3.75999995E-02   9.94733741E-14
  -3.75499986E-02   1.00322000E-13
  -3.75000015E-02   9.99208108E-14
  -3.74500006E-02   9.81899430E-14
  -3.73999998E-02   9.50181977E-14
  -3.73499990E-02   9.02047805E-14
  -3.73000018E-02   8.34563945E-14
  -3.72500010E-02   7.44260475E-14
  -3.72000001E-02   6.27661104E-14
  -3.71499993E-02   4.81956495E-14
  -3.70999984E-02   3.05971780E-14
  -3.70500013E-02   1.01162610E-14
  -3.70000005E-02  -1.28230980E-14
  -3.69499996E-02  -3.76642619E-14
  -3.68999988E-02  -6.39976963E-14
  -3.68500017E-02  -9.18251071E-14
  -3.68000008E-02  -1.21639379E-13
  -3.67500000E-02  -1.54261708E-13
  -3.66999991E-02  -1.90523040E-13
  -3.66499983E-02  -2.30941270E-13
  -3.66000012E-02  -2.75509514E-13
  -3.65500003E-02  -3.23647874E-13
  -3.64999995E-02  -3.74341725E-13
  -3.64499986E-02  -4.26467347E-13
  -3.64000015E-02  -4.79219420E-13
  -3.63500006E-02  -5.32438405E-13
  -3.62999998E-02  -5.86605200E-13
  -3.62499990E-02  -6.42427084E-13
  -3.62000018E-02  -7.00202266E-13
  -3.61500010E-02  -7.59328418E-13
  -3.61000001E-02  -8.18247813E-13
  -3.60499993E-02  -8.74864688E-13
  -3.59999985E-02  -9.27221190E-13
  -3.59500013E-02  -9.74130065E-13
  -3.59000005E-02  -1.01551883E-12
  -3.58499996E-02  -1.05233758E-12
  -3.57999988E-02  -1.08599598E-12
  -3.57500017E-02  -1.11746354E-12
  -3.57000008E-02  -1.14638941E-12
  -3.56500000E-02  -1.17072964E-12
  -3.55999991E-02  -1.18720322E-12
  -3.55499983E-02  -1.19246334E-12
  -3.55000012E-02  -1.18441791E-12
  -3.54500003E-02  -1.16299960E-12
  -3.53999995E-02  -1.12997816E-12
  -3.53499986E-02  -1.08790212E-12
  -3.53000015E-02  -1.03864768E-12
  -3.52500007E-02  -9.82186988E-13
  -3.51999998E-02  -9.16079062E-13
  -3.51499990E-02  -8.35980319E-13
  -3.51000018E-02  -7.37117669E-13
  -3.50500010E-02  -6.16230699E-13
  -3.50000001E-02  -4.73116500E-13
  -3.49499993E-02  -3.10931023E-13
  -3.48999985E-02  -1.34933609E-13
  -3.48500013E-02   4.98113242E-14
  -3.48000005E-02   2.40660194E-13
  -3.47499996E-02   4.38457864E-13
  -3.46999988E-02   6.46957260E-13
  -3.46500017E-02   8.70877589E-13
  -3.46000008E-02   1.11345427E-12
  -3.45500000E-02   1.37448516E-12
  -3.44999991E-02   1.64971520E-12
  -3.44499983E-02   1.93195785E-12
  -3.44000012E-02   2.21364919E-12
  -3.43500003E-02   2.48979743E-12
  -3.42999995E-02   2.75988759E-12
  -3.42499986E-02   3.02764671E-12
  -3.42000015E-02   3.29861919E-12
  -3.41500007E-02   3.57667021E-12
  -3.40999998E-02   3.86111672E-12
  -3.40499990E-02   4.14585553E-12
  -3.40000018E-02   4.42085908E-12
  -3.39500010E-02   4.67536036E-12
  -3.39000002E-02   4.90139526E-12
  -3.38499993E-02   5.09621425E-12
  -3.37999985E-02   5.26245714E-12
  -3.37500013E-02   5.40581382E-12
  -3.37000005E-02   5.53100838E-12
  -3.36499996E-02   5.63789987E-12
  -3.35999988E-02   5.71968948E-12
  -3.35500017E-02   5.76434300E-12
  -3.35000008E-02   5.75872379E-12
  -3.34500000E-02   5.69351510E-12
  -3.33999991E-02   5.56661314E-12
  -3.33499983E-02   5.38344673E-12
  -3.33000012E-02   5.15411151E-12
  -3.32500003E-02   4.88851667E-12
  -3.31999995E-02   4.59150253E-12
  -3.31499986E-02   4.25996348E-12
  -3.31000015E-02   3.88333679E-12
  -3.30500007E-02   3.44752243E-12
  -3.29999998E-02   2.94074227E-12
  -3.29499990E-02   2.35872129E-12
  -3.29000019E-02   1.70669316E-12
  -3.28500010E-02   9.97208609E-13
  -3.28000002E-02   2.44817919E-13
  -3.27499993E-02  -5.39831255E-13
  -3.26999985E-02  -1.35376140E-12
  -3.26500013E-02  -2.20173836E-12
  -3.26000005E-02  -3.09275522E-12
  -3.25499997E-02  -4.03441343E-12
  -3.24999988E-02  -5.02751269E-12
  -3.24500017E-02  -6.06319075E-12
  -3.24000008E-02  -7.12404614E-12
  -3.23500000E-02  -8.18907268E-12
  -3.22999991E-02  -9.24032725E-12
  -3.22499983E-02  -1.02682429E-11
  -3.22000012E-02  -1.12729904E-11
  -3.21500003E-02  -1.22612415E-11
  -3.20999995E-02  -1.32399673E-11
  -3.20499986E-02  -1.42102068E-11
  -3.20000015E-02  -1.51635128E-11
  -3.19500007E-02  -1.60824930E-11
  -3.18999998E-02  -1.69450703E-11
  -3.18499990E-02  -1.77308238E-11
  -3.18000019E-02  -1.84268139E-11
  -3.17500010E-02  -1.90304023E-11
  -3.17000002E-02  -1.95475476E-11
  -3.16499993E-02  -1.99870519E-11
  -3.15999985E-02  -2.03532746E-11
  -3.15500014E-02  -2.06407547E-11
  -3.15000005E-02  -2.08333420E-11
  -3.14499997E-02  -2.09082474E-11
  -3.13999988E-02  -2.08430512E-11
  -3.13500017E-02  -2.06226477E-11
  -3.13000008E-02  -2.02434319E-11
  -3.12500000E-02  -1.97132727E-11
  -3.11999992E-02  -1.90473123E-11
  -3.11500002E-02  -1.82611114E-11
  -3.10999993E-02  -1.73636782E-11
  -3.10500003E-02  -1.63534360E-11
  -3.09999995E-02  -1.52190482E-11
  -3.09500005E-02  -1.39449789E-11
  -3.08999997E-02  -1.25192235E-11
  -3.08500007E-02  -1.09396762E-11
  -3.07999998E-02  -9.21636725E-12
  -3.07500008E-02  -7.36894139E-12
  -3.07000000E-02  -5.42070078E-12
  -3.06499992E-02  -3.39163810E-12
  -3.06000002E-02  -1.29301170E-12
  -3.05499993E-02   8.74564527E-13
  -3.05000003E-02   3.11860585E-12
  -3.04499995E-02   5.44844204E-12
  -3.04000005E-02   7.86745235E-12
  -3.03499997E-02   1.03672765E-11
  -3.03000007E-02   1.29267924E-11
  -3.02499998E-02   1.55163590E-11
  -3.02000009E-02   1.81053245E-11
  -3.01500000E-02   2.06692389E-11
  -3.00999992E-02   2.31940300E-11
  -3.00500002E-02   2.56757185E-11
  -2.99999993E-02   2.81159072E-11
  -2.99500003E-02   3.05148094E-11
  -2.98999995E-02   3.28642703E-11
  -2.98500005E-02   3.51437143E-11
  -2.97999997E-02   3.73214688E-11
  -2.97500007E-02   3.93615036E-11
  -2.96999998E-02   4.12331592E-11
  -2.96500009E-02   4.29192931E-11
  -2.96000000E-02   4.44189373E-11
  -2.95499992E-02   4.57431766E-11
  -2.95000002E-02   4.69060693E-11
  -2.94499993E-02   4.79143183E-11
  -2.94000003E-02   4.87597601E-11
  -2.93499995E-02   4.94174354E-11
  -2.93000005E-02   4.98504640E-11
  -2.92499997E-02   5.00204461E-11
  -2.92000007E-02   4.98997892E-11
  -2.91499998E-02   4.94806106E-11
  -2.91000009E-02   4.87756883E-11
  -2.90500000E-02   4.78104327E-11
  -2.89999992E-02   4.66091575E-11
  -2.89500002E-02   4.51820803E-11
  -2.88999993E-02   4.35187962E-11
  -2.88500004E-02   4.15910396E-11
  -2.87999995E-02   3.93634604E-11
  -2.87500005E-02   3.68081537E-11
  -2.86999997E-02   3.39174661E-11
  -2.86500007E-02   3.07096050E-11
  -2.85999998E-02   2.72241413E-11
  -2.85500009E-02   2.35082353E-11
  -2.85000000E-02   1.95990169E-11
  -2.84499992E-02   1.55101522E-11
  -2.84000002E-02   1.12290984E-11
  -2.83499993E-02   6.72659888E-12
  -2.83000004E-02   1.97423176E-12
  -2.82499995E-02  -3.03824197E-12
  -2.82000005E-02  -8.29300083E-12
  -2.81499997E-02  -1.37459879E-11
  -2.81000007E-02  -1.93393010E-11
  -2.80499998E-02  -2.50193928E-11
  -2.80000009E-02  -3.07536219E-11
  -2.79500000E-02  -3.65375681E-11
  -2.78999992E-02  -4.23893073E-11
  -2.78500002E-02  -4.83318455E-11
  -2.77999993E-02  -5.43716669E-11
  -2.77500004E-02  -6.04837361E-11
  -2.76999995E-02  -6.66102798E-11
  -2.76500005E-02  -7.26743526E-11
  -2.75999997E-02  -7.86019722E-11
  -2.75500007E-02  -8.43430395E-11
  -2.74999999E-02  -8.98821226E-11
  -2.74500009E-02  -9.52343759E-11
  -2.74000000E-02  -1.00428332E-10
  -2.73499992E-02  -1.05482206E-10
  -2.73000002E-02  -1.10383619E-10
  -2.72499993E-02  -1.15081701E-10
  -2.72000004E-02  -1.19496663E-10
  -2.71499995E-02  -1.23543301E-10
  -2.71000005E-02  -1.27158228E-10
  -2.70499997E-02  -1.30317701E-10
  -2.70000007E-02  -1.33038289E-10
  -2.69499999E-02  -1.35360029E-10
  -2.69000009E-02  -1.37319850E-10
  -2.68500000E-02  -1.38926995E-10
  -2.67999992E-02  -1.40150003E-10
  -2.67500002E-02  -1.40921053E-10
  -2.66999993E-02  -1.41155712E-10
  -2.66500004E-02  -1.40780901E-10
  -2.65999995E-02  -1.39759190E-10
  -2.65500005E-02  -1.38098630E-10
  -2.64999997E-02  -1.35843198E-10
  -2.64500007E-02  -1.33047892E-10
  -2.63999999E-02  -1.29750446E-10
  -2.63500009E-02  -1.25952387E-10
  -2.63000000E-02  -1.21617855E-10
  -2.62499992E-02  -1.16689436E-10
  -2.62000002E-02  -1.11113216E-10
  -2.61499994E-02  -1.04862320E-10
  -2.61000004E-02  -9.79496484E-11
  -2.60499995E-02  -9.04241543E-11
  -2.60000005E-02  -8.23519516E-11
  -2.59499997E-02  -7.37897798E-11
  -2.59000007E-02  -6.47625356E-11
  -2.58499999E-02  -5.52549742E-11
  -2.58000009E-02  -4.52227006E-11
  -2.57500000E-02  -3.46167192E-11
  -2.56999992E-02  -2.34100656E-11
  -2.56500002E-02  -1.16147977E-11
  -2.55999994E-02   7.17845000E-13
  -2.55500004E-02   1.35120725E-11
  -2.54999995E-02   2.66913124E-11
  -2.54500005E-02   4.02010439E-11
  -2.53999997E-02   5.40221513E-11
  -2.53500007E-02   6.81686582E-11
  -2.52999999E-02   8.26703359E-11
  -2.52500009E-02   9.75472897E-11
  -2.52000000E-02   1.12787085E-10
  -2.51499992E-02   1.28335231E-10
  -2.51000002E-02   1.44104020E-10
  -2.50499994E-02   1.59994698E-10
  -2.50000004E-02   1.75923470E-10
  -2.49499995E-02   1.91840654E-10
  -2.49000005E-02   2.07735829E-10
  -2.48499997E-02   2.23628199E-10
  -2.48000007E-02   2.39545689E-10
  -2.47499999E-02   2.55499844E-10
  -2.47000009E-02   2.71465600E-10
  -2.46500000E-02   2.87374152E-10
  -2.45999992E-02   3.03122555E-10
  -2.45500002E-02   3.18596316E-10
  -2.44999994E-02   3.33695738E-10
  -2.44500004E-02   3.48354956E-10
  -2.43999995E-02   3.62544883E-10
  -2.43500005E-02   3.76261466E-10
  -2.42999997E-02   3.89503707E-10
  -2.42500007E-02   4.02250705E-10
  -2.41999999E-02   4.14444701E-10
  -2.41500009E-02   4.25986912E-10
  -2.41000000E-02   4.36748554E-10
  -2.40499992E-02   4.46593790E-10
  -2.40000002E-02   4.55407295E-10
  -2.39499994E-02   4.63112576E-10
  -2.39000004E-02   4.69673578E-10
  -2.38499995E-02   4.75077422E-10
  -2.38000005E-02   4.79306317E-10
  -2.37499997E-02   4.82310802E-10
  -2.37000007E-02   4.83995399E-10
  -2.36499999E-02   4.84221219E-10
  -2.36000009E-02   4.82825835E-10
  -2.35500000E-02   4.79653040E-10
  -2.34999992E-02   4.74581818E-10
  -2.34500002E-02   4.67541283E-10
  -2.33999994E-02   4.58503874E-10
  -2.33500004E-02   4.47455961E-10
  -2.32999995E-02   4.34358910E-10
  -2.32500006E-02   4.19118379E-10
  -2.31999997E-02   4.01576133E-10
  -2.31500007E-02   3.81530058E-10
  -2.30999999E-02   3.58773733E-10
  -2.30500009E-02   3.33139877E-10
  -2.30000000E-02   3.04529790E-10
  -2.29499992E-02   2.72916051E-10
  -2.29000002E-02   2.38315062E-10
  -2.28499994E-02   2.00739494E-10
  -2.28000004E-02   1.60147701E-10
  -2.27499995E-02   1.16413955E-10
  -2.27000006E-02   6.93358149E-11
  -2.26499997E-02   1.86762290E-11
  -2.26000007E-02  -3.57754625E-11
  -2.25499999E-02  -9.41514575E-11
  -2.25000009E-02  -1.56486490E-10
  -2.24500000E-02  -2.22740409E-10
  -2.23999992E-02  -2.92852159E-10
  -2.23500002E-02  -3.66804226E-10
  -2.22999994E-02  -4.44670856E-10
  -2.22500004E-02  -5.26627408E-10
  -2.21999995E-02  -6.12916329E-10
  -2.21500006E-02  -7.03778369E-10
  -2.20999997E-02  -7.99379674E-10
  -2.20500007E-02  -8.99768537E-10
  -2.19999999E-02  -1.00488196E-09
  -2.19500009E-02  -1.11460052E-09
  -2.19000001E-02  -1.22882760E-09
  -2.18499992E-02  -1.34755573E-09
  -2.18000002E-02  -1.47089285E-09
  -2.17499994E-02  -1.59903624E-09
  -2.17000004E-02  -1.73220482E-09
  -2.16499995E-02  -1.87055793E-09
  -2.16000006E-02  -2.01413886E-09
  -2.15499997E-02  -2.16286389E-09
  -2.15000007E-02  -2.31657071E-09
  -2.14499999E-02  -2.47510190E-09
  -2.14000009E-02  -2.63838884E-09
  -2.13500001E-02  -2.80649770E-09
  -2.12999992E-02  -2.97960745E-09
  -2.12500002E-02  -3.15793547E-09
  -2.11999994E-02  -3.34164119E-09
  -2.11500004E-02  -3.53075258E-09
  -2.10999995E-02  -3.72514730E-09
  -2.10500006E-02  -3.92459665E-09
  -2.09999997E-02  -4.12885726E-09
  -2.09500007E-02  -4.33777325E-09
  -2.08999999E-02  -4.55134108E-09
  -2.08500009E-02  -4.76971085E-09
  -2.08000001E-02  -4.99311525E-09
  -2.07499992E-02  -5.22176213E-09
  -2.07000002E-02  -5.45573409E-09
  -2.06499994E-02  -5.69494496E-09
  -2.06000004E-02  -5.93917004E-09
  -2.05499995E-02  -6.18814244E-09
  -2.05000006E-02  -6.44166809E-09
  -2.04499997E-02  -6.69971278E-09
  -2.04000007E-02  -6.96242086E-09
  -2.03499999E-02  -7.23005833E-09
  -2.03000009E-02  -7.50290763E-09
  -2.02500001E-02  -7.78115439E-09
  -2.01999992E-02  -8.06481815E-09
  -2.01500002E-02  -8.35375680E-09
  -2.00999994E-02  -8.64775274E-09
  -2.00500004E-02  -8.94663010E-09
  -1.99999996E-02  -9.25036758E-09
  -1.99500006E-02  -9.55913748E-09
  -1.98999997E-02  -9.87326843E-09
  -1.98500007E-02  -1.01931477E-08
  -1.97999999E-02  -1.05191029E-08
  -1.97500009E-02  -1.08513198E-08
  -1.97000001E-02  -1.11898286E-08
  -1.96499992E-02  -1.15345724E-08
  -1.96000002E-02  -1.18855272E-08
  -1.95499994E-02  -1.22428050E-08
  -1.95000004E-02  -1.26067166E-08
  -1.94499996E-02  -1.29777504E-08
  -1.94000006E-02  -1.33564848E-08
  -1.93499997E-02  -1.37434739E-08
  -1.93000007E-02  -1.41391334E-08
  -1.92499999E-02  -1.45437218E-08
  -1.92000009E-02  -1.49573935E-08
  -1.91500001E-02  -1.53803033E-08
  -1.90999992E-02  -1.58127325E-08
  -1.90500002E-02  -1.62551732E-08
  -1.89999994E-02  -1.67083094E-08
  -1.89500004E-02  -1.71729440E-08
  -1.88999996E-02  -1.76498727E-08
  -1.88500006E-02  -1.81397919E-08
  -1.87999997E-02  -1.86432381E-08
  -1.87500007E-02  -1.91606127E-08
  -1.86999999E-02  -1.96922887E-08
  -1.86500009E-02  -2.02387227E-08
  -1.86000001E-02  -2.08005702E-08
  -1.85499992E-02  -2.13787068E-08
  -1.85000002E-02  -2.19741825E-08
  -1.84499994E-02  -2.25880790E-08
  -1.84000004E-02  -2.32214088E-08
  -1.83499996E-02  -2.38750246E-08
  -1.83000006E-02  -2.45496281E-08
  -1.82499997E-02  -2.52458392E-08
  -1.82000007E-02  -2.59643045E-08
  -1.81499999E-02  -2.67058127E-08
  -1.81000009E-02  -2.74713177E-08
  -1.80500001E-02  -2.82619546E-08
  -1.79999992E-02  -2.90789401E-08
  -1.79500002E-02  -2.99234735E-08
  -1.78999994E-02  -3.07966275E-08
  -1.78500004E-02  -3.16993152E-08
  -1.77999996E-02  -3.26323573E-08
  -1.77500006E-02  -3.35965886E-08
  -1.76999997E-02  -3.45929330E-08
  -1.76500008E-02  -3.56224596E-08
  -1.75999999E-02  -3.66863944E-08
  -1.75500009E-02  -3.77860694E-08
  -1.75000001E-02  -3.89228312E-08
  -1.74499992E-02  -4.00979303E-08
  -1.74000002E-02  -4.13124610E-08
  -1.73499994E-02  -4.25673790E-08
  -1.73000004E-02  -4.38635972E-08
  -1.72499996E-02  -4.52020963E-08
  -1.72000006E-02  -4.65839669E-08
  -1.71499997E-02  -4.80104525E-08
  -1.71000008E-02  -4.94829031E-08
  -1.70499999E-02  -5.10026688E-08
  -1.70000009E-02  -5.25710604E-08
  -1.69500001E-02  -5.41892327E-08
  -1.68999992E-02  -5.58582265E-08
  -1.68500002E-02  -5.75789869E-08
  -1.67999994E-02  -5.93524625E-08
  -1.67500004E-02  -6.11796835E-08
  -1.66999996E-02  -6.30618402E-08
  -1.66500006E-02  -6.50002860E-08
  -1.65999997E-02  -6.69964493E-08
  -1.65500008E-02  -6.90516870E-08
  -1.64999999E-02  -7.11672996E-08
  -1.64500009E-02  -7.33444097E-08
  -1.64000001E-02  -7.55840261E-08
  -1.63499992E-02  -7.78870870E-08
  -1.63000003E-02  -8.02545728E-08
  -1.62499994E-02  -8.26876132E-08
  -1.62000004E-02  -8.51874518E-08
  -1.61499996E-02  -8.77554811E-08
  -1.61000006E-02  -9.03931507E-08
  -1.60499997E-02  -9.31018675E-08
  -1.60000008E-02  -9.58829247E-08
  -1.59499999E-02  -9.87374520E-08
  -1.59000009E-02  -1.01666579E-07
  -1.58500001E-02  -1.04671393E-07
  -1.57999992E-02  -1.07753017E-07
  -1.57500003E-02  -1.10912772E-07
  -1.56999994E-02  -1.14152094E-07
  -1.56500004E-02  -1.17472574E-07
  -1.55999996E-02  -1.20875768E-07
  -1.55499997E-02  -1.24363225E-07
  -1.54999997E-02  -1.27936389E-07
  -1.54499998E-02  -1.31596650E-07
  -1.53999999E-02  -1.35345360E-07
  -1.53500000E-02  -1.39183925E-07
  -1.53000001E-02  -1.43113866E-07
  -1.52500002E-02  -1.47136859E-07
  -1.52000003E-02  -1.51254838E-07
  -1.51500003E-02  -1.55469806E-07
  -1.51000004E-02  -1.59783639E-07
  -1.50499996E-02  -1.64198170E-07
  -1.49999997E-02  -1.68715246E-07
  -1.49499997E-02  -1.73336630E-07
  -1.48999998E-02  -1.78064241E-07
  -1.48499999E-02  -1.82900024E-07
  -1.48000000E-02  -1.87846197E-07
  -1.47500001E-02  -1.92905105E-07
  -1.47000002E-02  -1.98079420E-07
  -1.46500003E-02  -2.03371798E-07
  -1.46000003E-02  -2.08784869E-07
  -1.45500004E-02  -2.14321176E-07
  -1.44999996E-02  -2.19983107E-07
  -1.44499997E-02  -2.25773192E-07
  -1.43999998E-02  -2.31694116E-07
  -1.43499998E-02  -2.37748736E-07
  -1.42999999E-02  -2.43940121E-07
  -1.42500000E-02  -2.50271597E-07
  -1.42000001E-02  -2.56746546E-07
  -1.41500002E-02  -2.63368662E-07
  -1.41000003E-02  -2.70141442E-07
  -1.40500003E-02  -2.77068295E-07
  -1.40000004E-02  -2.84152577E-07
  -1.39499996E-02  -2.91397669E-07
  -1.38999997E-02  -2.98807322E-07
  -1.38499998E-02  -3.06385630E-07
  -1.37999998E-02  -3.14136827E-07
  -1.37499999E-02  -3.22065318E-07
  -1.37000000E-02  -3.30175538E-07
  -1.36500001E-02  -3.38472233E-07
  -1.36000002E-02  -3.46960121E-07
  -1.35500003E-02  -3.55643692E-07
  -1.35000004E-02  -3.64527409E-07
  -1.34500004E-02  -3.73615734E-07
  -1.33999996E-02  -3.82913754E-07
  -1.33499997E-02  -3.92426784E-07
  -1.32999998E-02  -4.02160310E-07
  -1.32499998E-02  -4.12119931E-07
  -1.31999999E-02  -4.22311246E-07
  -1.31500000E-02  -4.32739910E-07
  -1.31000001E-02  -4.43411750E-07
  -1.30500002E-02  -4.54332621E-07
  -1.30000003E-02  -4.65508293E-07
  -1.29500004E-02  -4.76944763E-07
  -1.29000004E-02  -4.88648539E-07
  -1.28499996E-02  -5.00626413E-07
  -1.27999997E-02  -5.12885379E-07
  -1.27499998E-02  -5.25432370E-07
  -1.26999998E-02  -5.38273923E-07
  -1.26499999E-02  -5.51417088E-07
  -1.26000000E-02  -5.64868799E-07
  -1.25500001E-02  -5.78636218E-07
  -1.25000002E-02  -5.92726281E-07
  -1.24500003E-02  -6.07146660E-07
  -1.24000004E-02  -6.21905315E-07
  -1.23500004E-02  -6.37010885E-07
  -1.22999996E-02  -6.52471897E-07
  -1.22499997E-02  -6.68296991E-07
  -1.21999998E-02  -6.84494239E-07
  -1.21499998E-02  -7.01071656E-07
  -1.20999999E-02  -7.18037370E-07
  -1.20500000E-02  -7.35399624E-07
  -1.20000001E-02  -7.53166887E-07
  -1.19500002E-02  -7.71347459E-07
  -1.19000003E-02  -7.89950434E-07
  -1.18500004E-02  -8.08985249E-07
  -1.18000004E-02  -8.28462248E-07
  -1.17499996E-02  -8.48391494E-07
  -1.16999997E-02  -8.68782990E-07
  -1.16499998E-02  -8.89646856E-07
  -1.15999999E-02  -9.10993720E-07
  -1.15499999E-02  -9.32834666E-07
  -1.15000000E-02  -9.55180781E-07
  -1.14500001E-02  -9.78042635E-07
  -1.14000002E-02  -1.00143086E-06
  -1.13500003E-02  -1.02535591E-06
  -1.13000004E-02  -1.04982826E-06
  -1.12500004E-02  -1.07485789E-06
  -1.11999996E-02  -1.10045460E-06
  -1.11499997E-02  -1.12662792E-06
  -1.10999998E-02  -1.15338833E-06
  -1.10499999E-02  -1.18074774E-06
  -1.09999999E-02  -1.20871857E-06
  -1.09500000E-02  -1.23731445E-06
  -1.09000001E-02  -1.26654913E-06
  -1.08500002E-02  -1.29643729E-06
  -1.08000003E-02  -1.32699358E-06
  -1.07500004E-02  -1.35823257E-06
  -1.07000005E-02  -1.39016743E-06
  -1.06499996E-02  -1.42281181E-06
  -1.05999997E-02  -1.45617889E-06
  -1.05499998E-02  -1.49028062E-06
  -1.04999999E-02  -1.52512973E-06
  -1.04499999E-02  -1.56073793E-06
  -1.04000000E-02  -1.59711726E-06
  -1.03500001E-02  -1.63428058E-06
  -1.03000002E-02  -1.67224016E-06
  -1.02500003E-02  -1.71100965E-06
  -1.02000004E-02  -1.75060302E-06
  -1.01500005E-02  -1.79103540E-06
  -1.00999996E-02  -1.83232305E-06
  -1.00499997E-02  -1.87448302E-06
  -9.99999978E-03  -1.91753315E-06
  -9.94999986E-03  -1.96149108E-06
  -9.89999995E-03  -2.00637396E-06
  -9.85000003E-03  -2.05219862E-06
  -9.80000012E-03  -2.09898144E-06
  -9.75000020E-03  -2.14673855E-06
  -9.70000029E-03  -2.19548565E-06
  -9.65000037E-03  -2.24523819E-06
  -9.60000046E-03  -2.29601255E-06
  -9.54999961E-03  -2.34782465E-06
  -9.49999969E-03  -2.40069198E-06
  -9.44999978E-03  -2.45463070E-06
  -9.39999986E-03  -2.50965741E-06
  -9.34999995E-03  -2.56578824E-06
  -9.30000003E-03  -2.62304093E-06
  -9.25000012E-03  -2.68143185E-06
  -9.20000020E-03  -2.74097806E-06
  -9.15000029E-03  -2.80169638E-06
  -9.10000037E-03  -2.86360569E-06
  -9.05000046E-03  -2.92672553E-06
  -8.99999961E-03  -2.99107592E-06
  -8.94999970E-03  -3.05667595E-06
  -8.89999978E-03  -3.12354496E-06
  -8.84999987E-03  -3.19170226E-06
  -8.79999995E-03  -3.26116879E-06
  -8.75000004E-03  -3.33196635E-06
  -8.70000012E-03  -3.40411589E-06
  -8.65000021E-03  -3.47763739E-06
  -8.60000029E-03  -3.55255179E-06
  -8.55000038E-03  -3.62887909E-06
  -8.50000046E-03  -3.70664020E-06
  -8.44999962E-03  -3.78585514E-06
  -8.39999970E-03  -3.86654301E-06
  -8.34999979E-03  -3.94872222E-06
  -8.29999987E-03  -4.03241211E-06
  -8.24999996E-03  -4.11763449E-06
  -8.20000004E-03  -4.20441029E-06
  -8.15000013E-03  -4.29276042E-06
  -8.10000021E-03  -4.38270763E-06
  -8.05000030E-03  -4.47427374E-06
  -8.00000038E-03  -4.56747875E-06
  -7.95000046E-03  -4.66234678E-06
  -7.89999962E-03  -4.75889919E-06
  -7.84999970E-03  -4.85715918E-06
  -7.79999979E-03  -4.95714994E-06
  -7.74999987E-03  -5.05889511E-06
  -7.69999996E-03  -5.16241926E-06
  -7.65000004E-03  -5.26774966E-06
  -7.60000013E-03  -5.37491087E-06
  -7.55000021E-03  -5.48392791E-06
  -7.49999983E-03  -5.59482623E-06
  -7.44999992E-03  -5.70763132E-06
  -7.40000000E-03  -5.82236817E-06
  -7.35000009E-03  -5.93906225E-06
  -7.30000017E-03  -6.05774039E-06
  -7.24999979E-03  -6.17842670E-06
  -7.19999988E-03  -6.30114528E-06
  -7.14999996E-03  -6.42592295E-06
  -7.10000005E-03  -6.55278654E-06
  -7.05000013E-03  -6.68176290E-06
  -7.00000022E-03  -6.81287474E-06
  -6.94999984E-03  -6.94614846E-06
  -6.89999992E-03  -7.08161087E-06
  -6.85000001E-03  -7.21929109E-06
  -6.80000009E-03  -7.35922049E-06
  -6.75000018E-03  -7.50142817E-06
  -6.69999979E-03  -7.64594006E-06
  -6.64999988E-03  -7.79278616E-06
  -6.59999996E-03  -7.94199605E-06
  -6.55000005E-03  -8.09360699E-06
  -6.50000013E-03  -8.24764811E-06
  -6.45000022E-03  -8.40414850E-06
  -6.39999984E-03  -8.56314000E-06
  -6.34999992E-03  -8.72465444E-06
  -6.30000001E-03  -8.88872728E-06
  -6.25000009E-03  -9.05539218E-06
  -6.20000018E-03  -9.22468644E-06
  -6.14999980E-03  -9.39664005E-06
  -6.09999988E-03  -9.57128123E-06
  -6.04999997E-03  -9.74864633E-06
  -6.00000005E-03  -9.92876903E-06
  -5.95000014E-03  -1.01116839E-05
  -5.90000022E-03  -1.02974227E-05
  -5.84999984E-03  -1.04860192E-05
  -5.79999993E-03  -1.06775096E-05
  -5.75000001E-03  -1.08719305E-05
  -5.70000010E-03  -1.10693200E-05
  -5.65000018E-03  -1.12697135E-05
  -5.59999980E-03  -1.14731465E-05
  -5.54999989E-03  -1.16796546E-05
  -5.49999997E-03  -1.18892794E-05
  -5.45000006E-03  -1.21020648E-05
  -5.40000014E-03  -1.23180480E-05
  -5.35000023E-03  -1.25372690E-05
  -5.29999984E-03  -1.27597687E-05
  -5.24999993E-03  -1.29855871E-05
  -5.20000001E-03  -1.32147688E-05
  -5.15000010E-03  -1.34473585E-05
  -5.10000018E-03  -1.36833960E-05
  -5.04999980E-03  -1.39229242E-05
  -4.99999989E-03  -1.41659857E-05
  -4.94999997E-03  -1.44126225E-05
  -4.90000006E-03  -1.46628790E-05
  -4.85000014E-03  -1.49168000E-05
  -4.80000023E-03  -1.51744252E-05
  -4.74999985E-03  -1.54357949E-05
  -4.69999993E-03  -1.57009526E-05
  -4.65000002E-03  -1.59699393E-05
  -4.60000010E-03  -1.62428023E-05
  -4.55000019E-03  -1.65195888E-05
  -4.49999981E-03  -1.68003407E-05
  -4.44999989E-03  -1.70851108E-05
  -4.39999998E-03  -1.73739445E-05
  -4.35000006E-03  -1.76668964E-05
  -4.30000015E-03  -1.79640119E-05
  -4.25000023E-03  -1.82653421E-05
  -4.19999985E-03  -1.85709305E-05
  -4.14999994E-03  -1.88808317E-05
  -4.10000002E-03  -1.91951040E-05
  -4.05000011E-03  -1.95137964E-05
  -4.00000019E-03  -1.98369544E-05
  -3.94999981E-03  -2.01646235E-05
  -3.89999989E-03  -2.04968601E-05
  -3.84999998E-03  -2.08337151E-05
  -3.80000006E-03  -2.11752395E-05
  -3.74999992E-03  -2.15214841E-05
  -3.70000000E-03  -2.18724872E-05
  -3.65000009E-03  -2.22283052E-05
  -3.59999994E-03  -2.25890035E-05
  -3.55000002E-03  -2.29546295E-05
  -3.50000011E-03  -2.33252304E-05
  -3.44999996E-03  -2.37008553E-05
  -3.40000005E-03  -2.40815643E-05
  -3.34999990E-03  -2.44674175E-05
  -3.29999998E-03  -2.48584693E-05
  -3.25000007E-03  -2.52547652E-05
  -3.19999992E-03  -2.56563562E-05
  -3.15000000E-03  -2.60633042E-05
  -3.10000009E-03  -2.64756800E-05
  -3.04999994E-03  -2.68935437E-05
  -3.00000003E-03  -2.73169444E-05
  -2.95000011E-03  -2.77459276E-05
  -2.89999996E-03  -2.81805569E-05
  -2.85000005E-03  -2.86208888E-05
  -2.79999990E-03  -2.90669868E-05
  -2.74999999E-03  -2.95189056E-05
  -2.70000007E-03  -2.99766962E-05
  -2.64999992E-03  -3.04404166E-05
  -2.60000001E-03  -3.09101342E-05
  -2.55000009E-03  -3.13859127E-05
  -2.49999994E-03  -3.18678030E-05
  -2.45000003E-03  -3.23558597E-05
  -2.40000011E-03  -3.28501374E-05
  -2.34999997E-03  -3.33506941E-05
  -2.30000005E-03  -3.38576065E-05
  -2.24999990E-03  -3.43709289E-05
  -2.19999999E-03  -3.48907015E-05
  -2.15000007E-03  -3.54169861E-05
  -2.09999993E-03  -3.59498517E-05
  -2.05000001E-03  -3.64893749E-05
  -2.00000009E-03  -3.70356065E-05
  -1.94999995E-03  -3.75886084E-05
  -1.90000003E-03  -3.81484351E-05
  -1.85000000E-03  -3.87151485E-05
  -1.79999997E-03  -3.92888214E-05
  -1.75000005E-03  -3.98695229E-05
  -1.70000002E-03  -4.04573220E-05
  -1.64999999E-03  -4.10522589E-05
  -1.59999996E-03  -4.16544026E-05
  -1.55000004E-03  -4.22638259E-05
  -1.50000001E-03  -4.28805870E-05
  -1.44999998E-03  -4.35047441E-05
  -1.39999995E-03  -4.41363591E-05
  -1.35000004E-03  -4.47754755E-05
  -1.30000000E-03  -4.54221663E-05
  -1.24999997E-03  -4.60765150E-05
  -1.20000006E-03  -4.67385798E-05
  -1.15000003E-03  -4.74084154E-05
  -1.09999999E-03  -4.80860763E-05
  -1.04999996E-03  -4.87716243E-05
  -1.00000005E-03  -4.94651322E-05
  -9.50000016E-04  -5.01666764E-05
  -8.99999985E-04  -5.08763005E-05
  -8.50000011E-04  -5.15940847E-05
  -7.99999980E-04  -5.23200906E-05
  -7.50000007E-04  -5.30544021E-05
  -6.99999975E-04  -5.37970700E-05
  -6.50000002E-04  -5.45481707E-05
  -6.00000028E-04  -5.53077480E-05
  -5.49999997E-04  -5.60758745E-05
  -5.00000024E-04  -5.68526229E-05
  -4.49999992E-04  -5.76380517E-05
  -3.99999990E-04  -5.84322115E-05
  -3.49999988E-04  -5.92351898E-05
  -3.00000014E-04  -6.00470630E-05
  -2.50000012E-04  -6.08678929E-05
  -1.99999995E-04  -6.16977268E-05
  -1.50000007E-04  -6.25366083E-05
  -9.99999975E-05  -6.33846284E-05
  -4.99999987E-05  -6.42418527E-05
   0.00000000      -6.51083392E-05
   4.99999987E-05  -6.59841389E-05
   9.99999975E-05  -6.68693247E-05
   1.50000007E-04  -6.77639837E-05
   1.99999995E-04  -6.86681960E-05
   2.50000012E-04  -6.95820199E-05
   3.00000014E-04  -7.05054990E-05
   3.49999988E-04  -7.14386770E-05
   3.99999990E-04  -7.23816338E-05
   4.49999992E-04  -7.33344496E-05
   5.00000024E-04  -7.42972406E-05
   5.49999997E-04  -7.52700143E-05
   6.00000028E-04  -7.62528216E-05
   6.50000002E-04  -7.72457497E-05
   6.99999975E-04  -7.82488642E-05
   7.50000007E-04  -7.92622741E-05
   7.99999980E-04  -8.02860159E-05
   8.50000011E-04  -8.13201186E-05
   8.99999985E-04  -8.23646405E-05
   9.50000016E-04  -8.34196617E-05
   1.00000005E-03  -8.44852766E-05
   1.04999996E-03  -8.55615363E-05
   1.09999999E-03  -8.66484916E-05
   1.15000003E-03  -8.77462007E-05
   1.20000006E-03  -8.88547365E-05
   1.24999997E-03  -8.99741499E-05
   1.30000000E-03  -9.11045281E-05
   1.35000004E-03  -9.22459294E-05
   1.39999995E-03  -9.33984047E-05
   1.44999998E-03  -9.45619977E-05
   1.50000001E-03  -9.57367738E-05
   1.55000004E-03  -9.69228277E-05
   1.59999996E-03  -9.81202465E-05
   1.64999999E-03  -9.93290814E-05
   1.70000002E-03  -1.00549340E-04
   1.75000005E-03  -1.01781094E-04
   1.79999997E-03  -1.03024431E-04
   1.85000000E-03  -1.04279410E-04
   1.90000003E-03  -1.05546118E-04
   1.94999995E-03  -1.06824569E-04
   2.00000009E-03  -1.08114793E-04
   2.05000001E-03  -1.09416869E-04
   2.09999993E-03  -1.10730878E-04
   2.15000007E-03  -1.12056870E-04
   2.19999999E-03  -1.13394875E-04
   2.24999990E-03  -1.14744915E-04
   2.30000005E-03  -1.16107040E-04
   2.34999997E-03  -1.17481351E-04
   2.40000011E-03  -1.18867916E-04
   2.45000003E-03  -1.20266777E-04
   2.49999994E-03  -1.21677971E-04
   2.55000009E-03  -1.23101505E-04
   2.60000001E-03  -1.24537473E-04
   2.64999992E-03  -1.25985913E-04
   2.70000007E-03  -1.27446881E-04
   2.74999999E-03  -1.28920423E-04
   2.79999990E-03  -1.30406537E-04