  -3.99999991E-02   0.00000000    
  -3.99499983E-02   0.00000000    
  -3.99000011E-02   0.00000000    
  -3.98500003E-02  -1.12860396E-15
  -3.97999994E-02  -8.66889687E-15
  -3.97499986E-02  -3.45882584E-14
  -3.97000015E-02  -9.63183594E-14
  -3.96500006E-02  -2.13133561E-13
  -3.95999998E-02  -4.06902295E-13
  -3.95499989E-02  -7.09603979E-13
  -3.95000018E-02  -1.16529778E-12
  -3.94500010E-02  -1.80868352E-12
  -3.94000001E-02  -2.62508873E-12
  -3.93499993E-02  -3.53212772E-12
  -3.92999984E-02  -4.42452889E-12
  -3.92500013E-02  -5.26844063E-12
  -3.92000005E-02  -6.16773429E-12
  -3.91499996E-02  -7.33125973E-12
  -3.90999988E-02  -8.95869663E-12
  -3.90500017E-02  -1.11434247E-11
  -3.90000008E-02  -1.38663542E-11
  -3.89500000E-02  -1.70479724E-11
  -3.88999991E-02  -2.05691384E-11
  -3.88499983E-02  -2.42443478E-11
  -3.88000011E-02  -2.78421522E-11
  -3.87500003E-02  -3.12280722E-11
  -3.86999995E-02  -3.45391354E-11
  -3.86499986E-02  -3.81823219E-11
  -3.86000015E-02  -4.25695763E-11
  -3.85500006E-02  -4.77769907E-11
  -3.84999998E-02  -5.34379832E-11
  -3.84499989E-02  -5.89722438E-11
  -3.84000018E-02  -6.39147554E-11
  -3.83500010E-02  -6.80270631E-11
  -3.83000001E-02  -7.11536732E-11
  -3.82499993E-02  -7.30973615E-11
  -3.81999984E-02  -7.37402639E-11
  -3.81500013E-02  -7.32770233E-11
  -3.81000005E-02  -7.22074761E-11
  -3.80499996E-02  -7.09760375E-11
  -3.79999988E-02  -6.95902572E-11
  -3.79500017E-02  -6.76345577E-11
  -3.79000008E-02  -6.46545179E-11
  -3.78500000E-02  -6.04315140E-11
  -3.77999991E-02  -5.47810582E-11
  -3.77499983E-02  -4.71234128E-11
  -3.77000012E-02  -3.64564212E-11
  -3.76500003E-02  -2.19667010E-11
  -3.75999995E-02  -3.73400139E-12
  -3.75499986E-02   1.72635916E-11
  -3.75000015E-02   3.99862886E-11
  -3.74500006E-02   6.42779163E-11
  -3.73999998E-02   9.10700682E-11
  -3.73499990E-02   1.21761712E-10
  -3.73000018E-02   1.57433747E-10
  -3.72500010E-02   1.98444233E-10
  -3.72000001E-02   2.44249759E-10
  -3.71499993E-02   2.93041369E-10
  -3.70999984E-02   3.41406320E-10
  -3.70500013E-02   3.84916793E-10
  -3.70000005E-02   4.20136315E-10
  -3.69499996E-02   4.47107157E-10
  -3.68999988E-02   4.70384842E-10
  -3.68500017E-02   4.97393904E-10
  -3.68000008E-02   5.34859546E-10
  -3.67500000E-02   5.85488491E-10
  -3.66999991E-02   6.46667331E-10
  -3.66499983E-02   7.11381842E-10
  -3.66000012E-02   7.70487174E-10
  -3.65500003E-02   8.15568446E-10
  -3.64999995E-02   8.42012182E-10
  -3.64499986E-02   8.51431758E-10
  -3.64000015E-02   8.51741733E-10
  -3.63500006E-02   8.53585536E-10
  -3.62999998E-02   8.64136374E-10
  -3.62499990E-02   8.81827611E-10
  -3.62000018E-02   8.95741870E-10
  -3.61500010E-02   8.90540863E-10
  -3.61000001E-02   8.54109894E-10
  -3.60499993E-02   7.83605514E-10
  -3.59999985E-02   6.87096435E-10
  -3.59500013E-02   5.80589576E-10
  -3.59000005E-02   4.81843565E-10
  -3.58499996E-02   4.02784972E-10
  -3.57999988E-02   3.42872064E-10
  -3.57500017E-02   2.86664914E-10
  -3.57000008E-02   2.08493195E-10
  -3.56500000E-02   8.38763642E-11
  -3.55999991E-02  -9.74398826E-11
  -3.55499983E-02  -3.24386545E-10
  -3.55000012E-02  -5.68309400E-10
  -3.54500003E-02  -7.96077759E-10
  -3.53999995E-02  -9.85708071E-10
  -3.53499986E-02  -1.13688980E-09
  -3.53000015E-02  -1.27203004E-09
  -3.52500007E-02  -1.42775425E-09
  -3.51999998E-02  -1.63982150E-09
  -3.51499990E-02  -1.92642924E-09
  -3.51000018E-02  -2.27656471E-09
  -3.50500010E-02  -2.65008149E-09
  -3.50000001E-02  -2.99223979E-09
  -3.49499993E-02  -3.25773142E-09
  -3.48999985E-02  -3.43242434E-09
  -3.48500013E-02  -3.54075214E-09
  -3.48000005E-02  -3.63415320E-09
  -3.47499996E-02  -3.76636367E-09
  -3.46999988E-02  -3.96777544E-09
  -3.46500017E-02  -4.23035562E-09
  -3.46000008E-02  -4.50899673E-09
  -3.45500000E-02  -4.73865880E-09
  -3.44999991E-02  -4.86130691E-09
  -3.44499983E-02  -4.85246909E-09
  -3.44000012E-02  -4.73525130E-09
  -3.43500003E-02  -4.57272442E-09
  -3.42999995E-02  -4.43911308E-09
  -3.42499986E-02  -4.38243708E-09
  -3.42000015E-02  -4.39784609E-09
  -3.41500007E-02  -4.42629977E-09
  -3.40999998E-02  -4.37975656E-09
  -3.40499990E-02  -4.18032053E-09
  -3.40000018E-02  -3.79482401E-09
  -3.39500010E-02  -3.25002736E-09
  -3.39000002E-02  -2.62236544E-09
  -3.38499993E-02  -2.00577088E-09
  -3.37999985E-02  -1.46956092E-09
  -3.37500013E-02  -1.02381781E-09
  -3.37000005E-02  -6.09623907E-10
  -3.36499996E-02  -1.22597543E-10
  -3.35999988E-02   5.38215694E-10
  -3.35500017E-02   1.41912848E-09
  -3.35000008E-02   2.48463494E-09
  -3.34500000E-02   3.62890451E-09
  -3.33999991E-02   4.72049422E-09
  -3.33499983E-02   5.65884051E-09
  -3.33000012E-02   6.41737463E-09
  -3.32500003E-02   7.05552372E-09
  -3.31999995E-02   7.69454633E-09
  -3.31499986E-02   8.46572146E-09
  -3.31000015E-02   9.45063672E-09
  -3.30500007E-02   1.06391633E-08
  -3.29999998E-02   1.19266677E-08
  -3.29499990E-02   1.31556934E-08
  -3.29000019E-02   1.41846233E-08
  -3.28500010E-02   1.49499222E-08
  -3.28000002E-02   1.54909152E-08
  -3.27499993E-02   1.59257603E-08
  -3.26999985E-02   1.63918212E-08
  -3.26500013E-02   1.69790351E-08
  -3.26000005E-02   1.76852968E-08
  -3.25499997E-02   1.84115923E-08
  -3.24999988E-02   1.89990566E-08
  -3.24500017E-02   1.92944771E-08
  -3.24000008E-02   1.92178611E-08
  -3.23500000E-02   1.88008311E-08
  -3.22999991E-02   1.81743918E-08
  -3.22499983E-02   1.75081993E-08
  -3.22000012E-02   1.69293202E-08
  -3.21500003E-02   1.64609268E-08
  -3.20999995E-02   1.60110520E-08
  -3.20499986E-02   1.54149991E-08
  -3.20000015E-02   1.45093058E-08
  -3.19500007E-02   1.32033566E-08
  -3.18999998E-02   1.15193286E-08
  -3.18499990E-02   9.58506341E-09
  -3.18000019E-02   7.58163310E-09
  -3.17500010E-02   5.66491831E-09
  -3.17000002E-02   3.89390165E-09
  -3.16499993E-02   2.20026197E-09
  -3.15999985E-02   4.17543167E-10
  -3.15500014E-02  -1.64071434E-09
  -3.15000005E-02  -4.09137835E-09
  -3.14499997E-02  -6.92460400E-09
  -3.13999988E-02  -1.00050750E-08
  -3.13500017E-02  -1.31271483E-08
  -3.13000008E-02  -1.60961449E-08
  -3.12500000E-02  -1.88015505E-08
  -3.11999992E-02  -2.12545039E-08
  -3.11500002E-02  -2.35760211E-08
  -3.10999993E-02  -2.59390500E-08
  -3.10500003E-02  -2.84853900E-08
  -3.09999995E-02  -3.12531370E-08
  -3.09500005E-02  -3.41504247E-08
  -3.08999997E-02  -3.69906843E-08
  -3.08500007E-02  -3.95725372E-08
  -3.07999998E-02  -4.17637160E-08
  -3.07500008E-02  -4.35486527E-08
  -3.07000000E-02  -4.50215616E-08
  -3.06499992E-02  -4.63345522E-08
  -3.06000002E-02  -4.76267950E-08
  -3.05499993E-02  -4.89623915E-08
  -3.05000003E-02  -5.02984712E-08
  -3.04499995E-02  -5.14956611E-08
  -3.04000005E-02  -5.23706696E-08
  -3.03499997E-02  -5.27720765E-08
  -3.03000007E-02  -5.26439123E-08
  -3.02499998E-02  -5.20438412E-08
  -3.02000009E-02  -5.11058715E-08
  -3.01500000E-02  -4.99689321E-08
  -3.00999992E-02  -4.87094027E-08
  -3.00500002E-02  -4.73084789E-08
  -2.99999993E-02  -4.56632741E-08
  -2.99500003E-02  -4.36307452E-08
  -2.98999995E-02  -4.10850021E-08
  -2.98500005E-02  -3.79701213E-08
  -2.97999997E-02  -3.43302808E-08
  -2.97500007E-02  -3.03016030E-08
  -2.96999998E-02  -2.60626329E-08
  -2.96500009E-02  -2.17607639E-08
  -2.96000000E-02  -1.74509935E-08
  -2.95499992E-02  -1.30786102E-08
  -2.95000002E-02  -8.51232329E-09
  -2.94499993E-02  -3.60781449E-09
  -2.94000003E-02   1.73129910E-09
  -2.93499995E-02   7.51737872E-09
  -2.93000005E-02   1.36733105E-08
  -2.92499997E-02   2.00548307E-08
  -2.92000007E-02   2.64948063E-08
  -2.91499998E-02   3.28597807E-08
  -2.91000009E-02   3.90975252E-08
  -2.90500000E-02   4.52505340E-08
  -2.89999992E-02   5.14232035E-08
  -2.89500002E-02   5.77182320E-08
  -2.88999993E-02   6.41763833E-08
  -2.88500004E-02   7.07491878E-08
  -2.87999995E-02   7.73131035E-08
  -2.87500005E-02   8.37090397E-08
  -2.86999997E-02   8.97873207E-08
  -2.86500007E-02   9.54462465E-08
  -2.85999998E-02   1.00657047E-07
  -2.85500009E-02   1.05466896E-07
  -2.85000000E-02   1.09970429E-07
  -2.84499992E-02   1.14254519E-07
  -2.84000002E-02   1.18342655E-07
  -2.83499993E-02   1.22170647E-07
  -2.83000004E-02   1.25609091E-07
  -2.82499995E-02   1.28516589E-07
  -2.82000005E-02   1.30790710E-07
  -2.81499997E-02   1.32392913E-07
  -2.81000007E-02   1.33343306E-07
  -2.80499998E-02   1.33696318E-07
  -2.80000009E-02   1.33508806E-07
  -2.79500000E-02   1.32805752E-07
  -2.78999992E-02   1.31551701E-07
  -2.78500002E-02   1.29645713E-07
  -2.77999993E-02   1.26953793E-07
  -2.77500004E-02   1.23367187E-07
  -2.76999995E-02   1.18853748E-07
  -2.76500005E-02   1.13470207E-07
  -2.75999997E-02   1.07328894E-07
  -2.75500007E-02   1.00541413E-07
  -2.74999999E-02   9.31736466E-08
  -2.74500009E-02   8.52306883E-08
  -2.74000000E-02   7.66667654E-08
  -2.73499992E-02   6.74096228E-08
  -2.73000002E-02   5.73908920E-08
  -2.72499993E-02   4.65815084E-08
  -2.72000004E-02   3.50208822E-08
  -2.71499995E-02   2.28168453E-08
  -2.71000005E-02   1.01092716E-08
  -2.70499997E-02  -2.98372682E-09
  -2.70000007E-02  -1.64015539E-08
  -2.69499999E-02  -3.01359009E-08
  -2.69000009E-02  -4.41951684E-08
  -2.68500000E-02  -5.85706985E-08
  -2.67999992E-02  -7.32262251E-08
  -2.67500002E-02  -8.81100206E-08
  -2.66999993E-02  -1.03169697E-07
  -2.66500004E-02  -1.18354663E-07
  -2.65999995E-02  -1.33609518E-07
  -2.65500005E-02  -1.48866334E-07
  -2.64999997E-02  -1.64037928E-07
  -2.64500007E-02  -1.79007841E-07
  -2.63999999E-02  -1.93621474E-07
  -2.63500009E-02  -2.07696658E-07
  -2.63000000E-02  -2.21067324E-07
  -2.62499992E-02  -2.33646986E-07
  -2.62000002E-02  -2.45464520E-07
  -2.61499994E-02  -2.56638543E-07
  -2.61000004E-02  -2.67292847E-07
  -2.60499995E-02  -2.77456564E-07
  -2.60000005E-02  -2.87010494E-07
  -2.59499997E-02  -2.95704211E-07
  -2.59000007E-02  -3.03232895E-07
  -2.58499999E-02  -3.09341090E-07
  -2.58000009E-02  -3.13917013E-07
  -2.57500000E-02  -3.17039280E-07
  -2.56999992E-02  -3.18946974E-07
  -2.56500002E-02  -3.19926528E-07
  -2.55999994E-02  -3.20150434E-07
  -2.55500004E-02  -3.19544853E-07
  -2.54999995E-02  -3.17765910E-07
  -2.54500005E-02  -3.14321113E-07
  -2.53999997E-02  -3.08782660E-07
  -2.53500007E-02  -3.00987978E-07
  -2.52999999E-02  -2.91124849E-07
  -2.52500009E-02  -2.79655382E-07
  -2.52000000E-02  -2.67116860E-07
  -2.51499992E-02  -2.53880074E-07
  -2.51000002E-02  -2.39969097E-07
  -2.50499994E-02  -2.25023442E-07
  -2.50000004E-02  -2.08434258E-07
  -2.49499995E-02  -1.89625169E-07
  -2.49000005E-02  -1.68361765E-07
  -2.48499997E-02  -1.44933679E-07
  -2.48000007E-02  -1.20091883E-07
  -2.47499999E-02  -9.47469161E-08
  -2.47000009E-02  -6.95615512E-08
  -2.46500000E-02  -4.46360033E-08
  -2.45999992E-02  -1.94446077E-08
  -2.45500002E-02   6.93788982E-09
  -2.44999994E-02   3.54136063E-08
  -2.44500004E-02   6.64191404E-08
  -2.43999995E-02   9.96533700E-08
  -2.43500005E-02   1.34105804E-07
  -2.42999997E-02   1.68408675E-07
  -2.42500007E-02   2.01393917E-07
  -2.41999999E-02   2.32609423E-07
  -2.41500009E-02   2.62537554E-07
  -2.41000000E-02   2.92382708E-07
  -2.40499992E-02   3.23496323E-07
  -2.40000002E-02   3.56699474E-07
  -2.39499994E-02   3.91827058E-07
  -2.39000004E-02   4.27706283E-07
  -2.38499995E-02   4.62583614E-07
  -2.38000005E-02   4.94828214E-07
  -2.37499997E-02   5.23611391E-07
  -2.37000007E-02   5.49267497E-07
  -2.36499999E-02   5.73154580E-07
  -2.36000009E-02   5.97034841E-07
  -2.35500000E-02   6.22219943E-07
  -2.34999992E-02   6.48869843E-07
  -2.34500002E-02   6.75800038E-07
  -2.33999994E-02   7.00919145E-07
  -2.33500004E-02   7.22112475E-07
  -2.32999995E-02   7.38176823E-07
  -2.32500006E-02   7.49350875E-07
  -2.31999997E-02   7.57201690E-07
  -2.31500007E-02   7.63911999E-07
  -2.30999999E-02   7.71256680E-07
  -2.30500009E-02   7.79723109E-07
  -2.30000000E-02   7.88159866E-07
  -2.29499992E-02   7.94150310E-07
  -2.29000002E-02   7.95005747E-07
  -2.28499994E-02   7.88954935E-07
  -2.28000004E-02   7.75977526E-07
  -2.27499995E-02   7.57861244E-07
  -2.27000006E-02   7.37417054E-07
  -2.26499997E-02   7.17189948E-07
  -2.26000007E-02   6.98263534E-07
  -2.25499999E-02   6.79701770E-07
  -2.25000009E-02   6.58891224E-07
  -2.24500000E-02   6.32643093E-07
  -2.23999992E-02   5.98588883E-07
  -2.23500002E-02   5.56283169E-07
  -2.22999994E-02   5.07498441E-07
  -2.22500004E-02   4.55530909E-07
  -2.21999995E-02   4.03769519E-07
  -2.21500006E-02   3.54139132E-07
  -2.20999997E-02   3.06163884E-07
  -2.20500007E-02   2.57121826E-07
  -2.19999999E-02   2.03230229E-07
  -2.19500009E-02   1.41336614E-07
  -2.19000001E-02   7.03574301E-08
  -2.18499992E-02  -8.17794543E-09
  -2.18000002E-02  -9.07133497E-08
  -2.17499994E-02  -1.73163670E-07
  -2.17000004E-02  -2.52693837E-07
  -2.16499995E-02  -3.28990410E-07
  -2.16000006E-02  -4.04454482E-07
  -2.15499997E-02  -4.83152860E-07
  -2.15000007E-02  -5.68956295E-07
  -2.14499999E-02  -6.63703929E-07
  -2.14000009E-02  -7.66271171E-07
  -2.13500001E-02  -8.72981559E-07
  -2.12999992E-02  -9.79194510E-07
  -2.12500002E-02  -1.08133543E-06
  -2.11999994E-02  -1.17846798E-06
  -2.11500004E-02  -1.27274143E-06
  -2.10999995E-02  -1.36846677E-06
  -2.10500006E-02  -1.47020148E-06
  -2.09999997E-02  -1.58064324E-06
  -2.09500007E-02  -1.69927659E-06
  -2.08999999E-02  -1.82244514E-06
  -2.08500009E-02  -1.94484733E-06
  -2.08000001E-02  -2.06186428E-06
  -2.07499992E-02  -2.17163210E-06
  -2.07000002E-02  -2.27585633E-06
  -2.06499994E-02  -2.37905215E-06
  -2.06000004E-02  -2.48655101E-06
  -2.05499995E-02  -2.60208799E-06
  -2.05000006E-02  -2.72606030E-06
  -2.04499997E-02  -2.85520969E-06
  -2.04000007E-02  -2.98389841E-06
  -2.03499999E-02  -3.10653513E-06
  -2.03000009E-02  -3.22004234E-06
  -2.02500001E-02  -3.32525428E-06
  -2.01999992E-02  -3.42658041E-06
  -2.01500002E-02  -3.53005839E-06
  -2.00999994E-02  -3.64063953E-06
  -2.00500004E-02  -3.75992886E-06
  -1.99999996E-02  -3.88540093E-06
  -1.99500006E-02  -4.01144143E-06
  -1.98999997E-02  -4.13176667E-06
  -1.98500007E-02  -4.24212840E-06
  -1.97999999E-02  -4.34221556E-06
  -1.97500009E-02  -4.43585850E-06
  -1.97000001E-02  -4.52936592E-06
  -1.96499992E-02  -4.62874323E-06
  -1.96000002E-02  -4.73696900E-06
  -1.95499994E-02  -4.85256760E-06
  -1.95000004E-02  -4.97017345E-06
  -1.94499996E-02  -5.08291896E-06
  -1.94000006E-02  -5.18549859E-06
  -1.93499997E-02  -5.27652037E-06
  -1.93000007E-02  -5.35914342E-06
  -1.92499999E-02  -5.43973874E-06
  -1.92000009E-02  -5.52518168E-06
  -1.91500001E-02  -5.61983961E-06
  -1.90999992E-02  -5.72352610E-06
  -1.90500002E-02  -5.83155361E-06
  -1.89999994E-02  -5.93679442E-06
  -1.89500004E-02  -6.03282570E-06
  -1.88999996E-02  -6.11693122E-06
  -1.88500006E-02  -6.19146203E-06
  -1.87999997E-02  -6.26288465E-06
  -1.87500007E-02  -6.33900481E-06
  -1.86999999E-02  -6.42558371E-06
  -1.86500009E-02  -6.52377639E-06
  -1.86000001E-02  -6.62965431E-06
  -1.85499992E-02  -6.73597560E-06
  -1.85000002E-02  -6.83535973E-06
  -1.84499994E-02  -6.92360527E-06
  -1.84000004E-02  -7.00169949E-06
  -1.83499996E-02  -7.07569052E-06
  -1.83000006E-02  -7.15430542E-06
  -1.82499997E-02  -7.24521624E-06
  -1.82000007E-02  -7.35170670E-06
  -1.81499999E-02  -7.47129980E-06
  -1.81000009E-02  -7.59704335E-06
  -1.80500001E-02  -7.72088424E-06
  -1.79999992E-02  -7.83723681E-06
  -1.79500002E-02  -7.94545304E-06
  -1.78999994E-02  -8.05042964E-06
  -1.78500004E-02  -8.16077682E-06
  -1.77999996E-02  -8.28533575E-06
  -1.77500006E-02  -8.42938971E-06
  -1.76999997E-02  -8.59220927E-06
  -1.76500008E-02  -8.76757986E-06
  -1.75999999E-02  -8.94682307E-06
  -1.75500009E-02  -9.12284759E-06
  -1.75000001E-02  -9.29358430E-06
  -1.74499992E-02  -9.46305136E-06
  -1.74000002E-02  -9.63991533E-06
  -1.73499994E-02  -9.83398149E-06
  -1.73000004E-02  -1.00519583E-05
  -1.72499996E-02  -1.02949807E-05
  -1.72000006E-02  -1.05583213E-05
  -1.71499997E-02  -1.08334352E-05
  -1.71000008E-02  -1.11119325E-05
  -1.70499999E-02  -1.13897704E-05
  -1.70000009E-02  -1.16695064E-05
  -1.69500001E-02  -1.19595361E-05
  -1.68999992E-02  -1.22706670E-05
  -1.68500002E-02  -1.26113118E-05
  -1.67999994E-02  -1.29840719E-05
  -1.67500004E-02  -1.33850217E-05
  -1.66999996E-02  -1.38056694E-05
  -1.66500006E-02  -1.42367899E-05
  -1.65999997E-02  -1.46726388E-05
  -1.65500008E-02  -1.51137265E-05
  -1.64999999E-02  -1.55672024E-05
  -1.64500009E-02  -1.60442632E-05
  -1.64000001E-02  -1.65553847E-05
  -1.63499992E-02  -1.71057873E-05
  -1.63000003E-02  -1.76930516E-05
  -1.62499994E-02  -1.83085540E-05
  -1.62000004E-02  -1.89418697E-05
  -1.61499996E-02  -1.95854300E-05
  -1.61000006E-02  -2.02379670E-05
  -1.60499997E-02  -2.09052905E-05
  -1.60000008E-02  -2.15979890E-05
  -1.59499999E-02  -2.23272782E-05
  -1.59000009E-02  -2.31003723E-05
  -1.58500001E-02  -2.39172059E-05
  -1.57999992E-02  -2.47704011E-05
  -1.57500003E-02  -2.56487438E-05
  -1.56999994E-02  -2.65424587E-05
  -1.56500004E-02  -2.74478825E-05
  -1.55999996E-02  -2.83689260E-05
  -1.55499997E-02  -2.93155153E-05
  -1.54999997E-02  -3.02995686E-05
  -1.54499998E-02  -3.13296478E-05
  -1.53999999E-02  -3.24069588E-05
  -1.53500000E-02  -3.35253535E-05
  -1.53000001E-02  -3.46741253E-05
  -1.52500002E-02  -3.58423749E-05
  -1.52000003E-02  -3.70244234E-05
  -1.51500003E-02  -3.82223116E-05
  -1.51000004E-02  -3.94449235E-05
  -1.50499996E-02  -4.07045009E-05
  -1.49999997E-02  -4.20112483E-05
  -1.49499997E-02  -4.33683417E-05
  -1.48999998E-02  -4.47705170E-05
  -1.48499999E-02  -4.62065509E-05
  -1.48000000E-02  -4.76641071E-05
  -1.47500001E-02  -4.91353785E-05
  -1.47000002E-02  -5.06209326E-05
  -1.46500003E-02  -5.21288603E-05
  -1.46000003E-02  -5.36712141E-05
  -1.45500004E-02  -5.52585007E-05
  -1.44999996E-02  -5.68954783E-05
  -1.44499997E-02  -5.85801463E-05
  -1.43999998E-02  -6.03029803E-05
  -1.43499998E-02  -6.20508436E-05
  -1.42999999E-02  -6.38133060E-05
  -1.42500000E-02  -6.55878393E-05
  -1.42000001E-02  -6.73814138E-05
  -1.41500002E-02  -6.92067988E-05
  -1.41000003E-02  -7.10764361E-05
  -1.40500003E-02  -7.29970925E-05
  -1.40000004E-02  -7.49674000E-05
  -1.39499996E-02  -7.69787512E-05
  -1.38999997E-02  -7.90193662E-05
  -1.38499998E-02  -8.10783822E-05
  -1.37999998E-02  -8.31509169E-05
  -1.37499999E-02  -8.52420490E-05
  -1.37000000E-02  -8.73634417E-05
  -1.36500001E-02  -8.95272678E-05
  -1.36000002E-02  -9.17430007E-05
  -1.35500003E-02  -9.40135142E-05
  -1.35000004E-02  -9.63323691E-05
  -1.34500004E-02  -9.86879604E-05
  -1.33999996E-02  -1.01068792E-04
  -1.33499997E-02  -1.03468592E-04
  -1.32999998E-02  -1.05890249E-04
  -1.32499998E-02  -1.08345448E-04
  -1.31999999E-02  -1.10848989E-04
  -1.31500000E-02  -1.13411181E-04
  -1.31000001E-02  -1.16033858E-04
  -1.30500002E-02  -1.18711447E-04
  -1.30000003E-02  -1.21435529E-04
  -1.29500004E-02  -1.24196784E-04
  -1.29000004E-02  -1.26987637E-04
  -1.28499996E-02  -1.29808497E-04
  -1.27999997E-02  -1.32668851E-04
  -1.27499998E-02  -1.35584050E-04
  -1.26999998E-02  -1.38569056E-04
  -1.26499999E-02  -1.41630677E-04
  -1.26000000E-02  -1.44764752E-04
  -1.25500001E-02  -1.47958548E-04
  -1.25000002E-02  -1.51200395E-04
  -1.24500003E-02  -1.54485955E-04
  -1.24000004E-02  -1.57816889E-04
  -1.23500004E-02  -1.61201504E-04
  -1.22999996E-02  -1.64651443E-04
  -1.22499997E-02  -1.68179991E-04
  -1.21999998E-02  -1.71800537E-04
  -1.21499998E-02  -1.75517969E-04
  -1.20999999E-02  -1.79324954E-04
  -1.20500000E-02  -1.83207914E-04
  -1.20000001E-02  -1.87156445E-04
  -1.19500002E-02  -1.91168743E-04
  -1.19000003E-02  -1.95252680E-04
  -1.18500004E-02  -1.99419970E-04
  -1.18000004E-02  -2.03681077E-04
  -1.17499996E-02  -2.08044134E-04
  -1.16999997E-02  -2.12512881E-04
  -1.16499998E-02  -2.17085268E-04
  -1.15999999E-02  -2.21754119E-04
  -1.15499999E-02  -2.26513439E-04
  -1.15000000E-02  -2.31363927E-04
  -1.14500001E-02  -2.36313674E-04
  -1.14000002E-02  -2.41377638E-04
  -1.13500003E-02  -2.46575859E-04
  -1.13000004E-02  -2.51922378E-04
  -1.12500004E-02  -2.57418636E-04
  -1.11999996E-02  -2.63055554E-04
  -1.11499997E-02  -2.68815289E-04
  -1.10999998E-02  -2.74682796E-04
  -1.10499999E-02  -2.80653738E-04
  -1.09999999E-02  -2.86728813E-04
  -1.09500000E-02  -2.92914134E-04
  -1.09000001E-02  -2.99223117E-04
  -1.08500002E-02  -3.05674068E-04
  -1.08000003E-02  -3.12283373E-04
  -1.07500004E-02  -3.19058017E-04
  -1.07000005E-02  -3.25999339E-04
  -1.06499996E-02  -3.33105709E-04
  -1.05999997E-02  -3.40378290E-04
  -1.05499998E-02  -3.47824447E-04
  -1.04999999E-02  -3.55453987E-04
  -1.04499999E-02  -3.63276165E-04
  -1.04000000E-02  -3.71294387E-04
  -1.03500001E-02  -3.79507692E-04
  -1.03000002E-02  -3.87909822E-04
  -1.02500003E-02  -3.96482763E-04
  -1.02000004E-02  -4.05206636E-04
  -1.01500005E-02  -4.14071750E-04
  -1.00999996E-02  -4.23082616E-04
  -1.00499997E-02  -4.32251953E-04
  -9.99999978E-03  -4.41600190E-04
  -9.94999986E-03  -4.51150321E-04
  -9.89999995E-03  -4.60918411E-04
  -9.85000003E-03  -4.70921019E-04
  -9.80000012E-03  -4.81162482E-04
  -9.75000020E-03  -4.91631799E-04
  -9.70000029E-03  -5.02325885E-04
  -9.65000037E-03  -5.13250823E-04
  -9.60000046E-03  -5.24410745E-04
  -9.54999961E-03  -5.35811996E-04
  -9.49999969E-03  -5.47466450E-04
  -9.44999978E-03  -5.59380976E-04
  -9.39999986E-03  -5.71556157E-04
  -9.34999995E-03  -5.83985355E-04
  -9.30000003E-03  -5.96656813E-04
  -9.25000012E-03  -6.09558425E-04
  -9.20000020E-03  -6.22677791E-04
  -9.15000029E-03  -6.36022713E-04
  -9.10000037E-03  -6.49613212E-04
  -9.05000046E-03  -6.63461396E-04
  -8.99999961E-03  -6.77574775E-04
  -8.94999970E-03  -6.91950321E-04
  -8.89999978E-03  -7.06585881E-04
  -8.84999987E-03  -7.21487042E-04
  -8.79999995E-03  -7.36661430E-04
  -8.75000004E-03  -7.52114633E-04
  -8.70000012E-03  -7.67847581E-04
  -8.65000021E-03  -7.83870637E-04
  -8.60000029E-03  -8.00208130E-04
  -8.55000038E-03  -8.16892483E-04
  -8.50000046E-03  -8.33940227E-04
  -8.44999962E-03  -8.51337914E-04
  -8.39999970E-03  -8.69058480E-04
  -8.34999979E-03  -8.87087721E-04
  -8.29999987E-03  -9.05430119E-04
  -8.24999996E-03  -9.24094289E-04
  -8.20000004E-03  -9.43084888E-04
  -8.15000013E-03  -9.62400052E-04
  -8.10000021E-03  -9.82037280E-04
  -8.05000030E-03  -1.00200693E-03
  -8.00000038E-03  -1.02231780E-03
  -7.95000046E-03  -1.04296545E-03
  -7.89999962E-03  -1.06393243E-03
  -7.84999970E-03  -1.08520873E-03
  -7.79999979E-03  -1.10680109E-03
  -7.74999987E-03  -1.12872943E-03
  -7.69999996E-03  -1.15100946E-03
  -7.65000004E-03  -1.17364828E-03
  -7.60000013E-03  -1.19665475E-03
  -7.55000021E-03  -1.22003898E-03
  -7.49999983E-03  -1.24380866E-03
  -7.44999992E-03  -1.26796239E-03
  -7.40000000E-03  -1.29249878E-03
  -7.35000009E-03  -1.31740875E-03
  -7.30000017E-03  -1.34269230E-03
  -7.24999979E-03  -1.36838807E-03
  -7.19999988E-03  -1.39452692E-03
  -7.14999996E-03  -1.42109848E-03
  -7.10000005E-03  -1.44807820E-03
  -7.05000013E-03  -1.47544267E-03
  -7.00000022E-03  -1.50318595E-03
  -6.94999984E-03  -1.53132051E-03
  -6.89999992E-03  -1.55984727E-03
  -6.85000001E-03  -1.58874248E-03
  -6.80000009E-03  -1.61799986E-03
  -6.75000018E-03  -1.64763571E-03
  -6.69999979E-03  -1.67767634E-03
  -6.64999988E-03  -1.70815387E-03
  -6.59999996E-03  -1.73905247E-03
  -6.55000005E-03  -1.77032466E-03
  -6.50000013E-03  -1.80194981E-03
  -6.45000022E-03  -1.83396740E-03
  -6.39999984E-03  -1.86643226E-03
  -6.34999992E-03  -1.89934100E-03
  -6.30000001E-03  -1.93266128E-03
  -6.25000009E-03  -1.96640217E-03
  -6.20000018E-03  -2.00060918E-03
  -6.14999980E-03  -2.03531003E-03
  -6.09999988E-03  -2.07048305E-03
  -6.04999997E-03  -2.10607843E-03
  -6.00000005E-03  -2.14207731E-03
  -5.95000014E-03  -2.17850623E-03
  -5.90000022E-03  -2.21541664E-03
  -5.84999984E-03  -2.25281273E-03
  -5.79999993E-03  -2.29064375E-03
  -5.75000001E-03  -2.32887897E-03
  -5.70000010E-03  -2.36755190E-03
  -5.65000018E-03  -2.40668026E-03
  -5.59999980E-03  -2.44624261E-03
  -5.54999989E-03  -2.48620799E-03
  -5.49999997E-03  -2.52656965E-03
  -5.45000006E-03  -2.56735971E-03
  -5.40000014E-03  -2.60861032E-03
  -5.35000023E-03  -2.65034148E-03
  -5.29999984E-03  -2.69254600E-03
  -5.24999993E-03  -2.73521338E-03
  -5.20000001E-03  -2.77834409E-03
  -5.15000010E-03  -2.82194861E-03
  -5.10000018E-03  -2.86604883E-03
  -5.04999980E-03  -2.91065266E-03
  -4.99999989E-03  -2.95577385E-03
  -4.94999997E-03  -3.00142611E-03
  -4.90000006E-03  -3.04760458E-03
  -4.85000014E-03  -3.09430948E-03
  -4.80000023E-03  -3.14156432E-03
  -4.74999985E-03  -3.18936608E-03
  -4.69999993E-03  -3.23767401E-03
  -4.65000002E-03  -3.28644319E-03
  -4.60000010E-03  -3.33564961E-03
  -4.55000019E-03  -3.38533032E-03
  -4.49999981E-03  -3.43552115E-03
  -4.44999989E-03  -3.48623516E-03
  -4.39999998E-03  -3.53748910E-03
  -4.35000006E-03  -3.58924293E-03
  -4.30000015E-03  -3.64146219E-03
  -4.25000023E-03  -3.69418552E-03
  -4.19999985E-03  -3.74746881E-03
  -4.14999994E-03  -3.80136515E-03
  -4.10000002E-03  -3.85586568E-03
  -4.05000011E-03  -3.91089870E-03
  -4.00000019E-03  -3.96648282E-03
  -3.94999981E-03  -4.02270537E-03
  -3.89999989E-03  -4.07961849E-03
  -3.84999998E-03  -4.13721614E-03
  -3.80000006E-03  -4.19540750E-03
  -3.74999992E-03  -4.25411575E-03
  -3.70000000E-03  -4.31337440E-03
  -3.65000009E-03  -4.37329989E-03
  -3.59999994E-03  -4.43393365E-03
  -3.55000002E-03  -4.49517416E-03
  -3.50000011E-03  -4.55694320E-03
  -3.44999996E-03  -4.61926544E-03
  -3.40000005E-03  -4.68223868E-03
  -3.34999990E-03  -4.74591041E-03
  -3.29999998E-03  -4.81019774E-03
  -3.25000007E-03  -4.87503177E-03
  -3.19999992E-03  -4.94042877E-03
  -3.15000000E-03  -5.00648003E-03
  -3.10000009E-03  -5.07326378E-03
  -3.04999994E-03  -5.14078513E-03
  -3.00000003E-03  -5.20897331E-03
  -2.95000011E-03  -5.27778314E-03
  -2.89999996E-03  -5.34724817E-03
  -2.85000005E-03  -5.41743916E-03
  -2.79999990E-03  -5.48838452E-03
  -2.74999999E-03  -5.56007912E-03
  -2.70000007E-03  -5.63248945E-03
  -2.64999992E-03  -5.70554798E-03
  -2.60000001E-03  -5.77934040E-03
  -2.55000009E-03  -5.85392676E-03
  -2.49999994E-03  -5.92919486E-03
  -2.45000003E-03  -6.00522384E-03
  -2.40000011E-03  -6.08208217E-03
  -2.34999997E-03  -6.15969440E-03
  -2.30000005E-03  -6.23798277E-03
  -2.24999990E-03  -6.31689047E-03
  -2.19999999E-03  -6.39649527E-03
  -2.15000007E-03  -6.47688657E-03
  -2.09999993E-03  -6.55808253E-03
  -2.05000001E-03  -6.63994486E-03
  -2.00000009E-03  -6.72243582E-03
  -1.94999995E-03  -6.80566812E-03
  -1.90000003E-03  -6.88972417E-03
  -1.85000000E-03  -6.97460258E-03
  -1.79999997E-03  -7.06023816E-03
  -1.75000005E-03  -7.14659598E-03
  -1.70000002E-03  -7.23367184E-03
  -1.64999999E-03  -7.32155330E-03
  -1.59999996E-03  -7.41029391E-03
  -1.55000004E-03  -7.49994675E-03
  -1.50000001E-03  -7.59051926E-03
  -1.44999998E-03  -7.68186664E-03
  -1.39999995E-03  -7.77388783E-03
  -1.35000004E-03  -7.86671694E-03
  -1.30000000E-03  -7.96049740E-03
  -1.24999997E-03  -8.05508904E-03
  -1.20000006E-03  -8.15036986E-03
  -1.15000003E-03  -8.24637432E-03
  -1.09999999E-03  -8.34315643E-03
  -1.04999996E-03  -8.44076462E-03
  -1.00000005E-03  -8.53922404E-03
  -9.50000016E-04  -8.63843411E-03
  -8.99999985E-04  -8.73833802E-03
  -8.50000011E-04  -8.83903820E-03
  -7.99999980E-04  -8.94055702E-03
  -7.50000007E-04  -9.04291216E-03
  -6.99999975E-04  -9.14618373E-03
  -6.50000002E-04  -9.25029069E-03
  -6.00000028E-04  -9.35513433E-03
  -5.49999997E-04  -9.46085341E-03
  -5.00000024E-04  -9.56753734E-03
  -4.49999992E-04  -9.67505295E-03
  -3.99999990E-04  -9.78336670E-03
  -3.49999988E-04  -9.89251863E-03
  -3.00000014E-04  -1.00025050E-02
  -2.50000012E-04  -1.01133790E-02
  -1.99999995E-04  -1.02251992E-02
  -1.50000007E-04  -1.03378948E-02
  -9.99999975E-05  -1.04513075E-02
  -4.99999987E-05  -1.05654495E-02
   0.00000000      -1.06804995E-02
   4.99999987E-05  -1.07965106E-02
   9.99999975E-05  -1.09134400E-02
   1.50000007E-04  -1.10311536E-02
   1.99999995E-04  -1.11494856E-02
   2.50000012E-04  -1.12684397E-02
   3.00000014E-04  -1.13882674E-02
   3.49999988E-04  -1.15091428E-02
   3.99999990E-04  -1.16310548E-02
   4.49999992E-04  -1.17538869E-02
   5.00000024E-04  -1.18772695E-02
   5.49999997E-04  -1.20012676E-02
   6.00000028E-04  -1.21262837E-02
   6.50000002E-04  -1.22525198E-02
   6.99999975E-04  -1.23796789E-02
   7.50000007E-04  -1.25074480E-02
   7.99999980E-04  -1.26359770E-02
   8.50000011E-04  -1.27655389E-02
   8.99999985E-04  -1.28962584E-02
   9.50000016E-04  -1.30278906E-02
   1.00000005E-03  -1.31602064E-02
   1.04999996E-03  -1.32933455E-02
   1.09999999E-03  -1.34274233E-02
   1.15000003E-03  -1.35623394E-02
   1.20000006E-03  -1.36979921E-02
   1.24999997E-03  -1.38344374E-02
   1.30000000E-03  -1.39718782E-02
   1.35000004E-03  -1.41101321E-02
   1.39999995E-03  -1.42491292E-02
   1.44999998E-03  -1.43889887E-02
   1.50000001E-03  -1.45297488E-02
   1.55000004E-03  -1.46714263E-02
   1.59999996E-03  -1.48139084E-02
   1.64999999E-03  -1.49572017E-02
   1.70000002E-03  -1.51014421E-02
   1.75000005E-03  -1.52467471E-02
   1.79999997E-03  -1.53931528E-02
   1.85000000E-03  -1.55403251E-02
   1.90000003E-03  -1.56881548E-02
   1.94999995E-03  -1.58369578E-02
   2.00000009E-03  -1.59869269E-02
   2.05000001E-03  -1.61380097E-02
   2.09999993E-03  -1.62898451E-02
   2.15000007E-03  -1.64422411E-02
   2.19999999E-03  -1.65954623E-02
   2.24999990E-03  -1.67498700E-02
   2.30000005E-03  -1.69056151E-02
   2.34999997E-03  -1.70623288E-02
   2.40000011E-03  -1.72194783E-02
   2.45000003E-03  -1.73770040E-02
   2.49999994E-03  -1.75355412E-02
   2.55000009E-03  -1.76956560E-02
   2.60000001E-03  -1.78568903E-02
   2.64999992E-03  -1.80187020E-02
   2.70000007E-03  -1.81810502E-02
   2.74999999E-03  -1.83443315E-02
   2.79999990E-03  -1.85090639E-02