  -3.99999991E-02   0.00000000    
  -3.99499983E-02   0.00000000    
  -3.99000011E-02   0.00000000    
  -3.98500003E-02   0.00000000    
  -3.97999994E-02   0.00000000    
  -3.97499986E-02  -4.61562200E-24
  -3.97000015E-02  -1.86146325E-23
  -3.96500006E-02   6.21950938E-23
  -3.95999998E-02   8.81369324E-22
  -3.95499989E-02   4.59738139E-21
  -3.95000018E-02   1.63095735E-20
  -3.94500010E-02   4.51599708E-20
  -3.94000001E-02   1.03669977E-19
  -3.93499993E-02   2.03945994E-19
  -3.92999984E-02   3.50798638E-19
  -3.92500013E-02   5.34347199E-19
  -3.92000005E-02   7.26957910E-19
  -3.91499996E-02   8.89365156E-19
  -3.90999988E-02   9.87160031E-19
  -3.90500017E-02   1.01218917E-18
  -3.90000008E-02   9.97054766E-19
  -3.89500000E-02   1.00949680E-18
  -3.88999991E-02   1.12019776E-18
  -3.88499983E-02   1.35142576E-18
  -3.88000011E-02   1.62870001E-18
  -3.87500003E-02   1.76421267E-18
  -3.86999995E-02   1.49207108E-18
  -3.86499986E-02   5.51654557E-19
  -3.86000015E-02  -1.21430145E-18
  -3.85500006E-02  -3.80031093E-18
  -3.84999998E-02  -7.06638477E-18
  -3.84499989E-02  -1.08685593E-17
  -3.84000018E-02  -1.52523767E-17
  -3.83500010E-02  -2.06212884E-17
  -3.83000001E-02  -2.77782139E-17
  -3.82499993E-02  -3.77778647E-17
  -3.81999984E-02  -5.16125200E-17
  -3.81500013E-02  -6.98485603E-17
  -3.81000005E-02  -9.23859497E-17
  -3.80499996E-02  -1.18489176E-16
  -3.79999988E-02  -1.47132799E-16
  -3.79500017E-02  -1.77556529E-16
  -3.79000008E-02  -2.09800572E-16
  -3.78500000E-02  -2.44959811E-16
  -3.77999991E-02  -2.84985850E-16
  -3.77499983E-02  -3.32056635E-16
  -3.77000012E-02  -3.87745425E-16
  -3.76500003E-02  -4.52351063E-16
  -3.75999995E-02  -5.24720711E-16
  -3.75499986E-02  -6.02696129E-16
  -3.75000015E-02  -6.84025533E-16
  -3.74500006E-02  -7.67337523E-16
  -3.73999998E-02  -8.52702509E-16
  -3.73499990E-02  -9.41455416E-16
  -3.73000018E-02  -1.03527448E-15
  -3.72500010E-02  -1.13485548E-15
  -3.72000001E-02  -1.23873857E-15
  -3.71499993E-02  -1.34282050E-15
  -3.70999984E-02  -1.44082295E-15
  -3.70500013E-02  -1.52558966E-15
  -3.70000005E-02  -1.59073275E-15
  -3.69499996E-02  -1.63199045E-15
  -3.68999988E-02  -1.64778391E-15
  -3.68500017E-02  -1.63878450E-15
  -3.68000008E-02  -1.60668523E-15
  -3.67500000E-02  -1.55262230E-15
  -3.66999991E-02  -1.47575512E-15
  -3.66499983E-02  -1.37238131E-15
  -3.66000012E-02  -1.23577004E-15
  -3.65500003E-02  -1.05671839E-15
  -3.64999995E-02  -8.24720247E-16
  -3.64499986E-02  -5.29544140E-16
  -3.64000015E-02  -1.62899537E-16
  -3.63500006E-02   2.80269385E-16
  -3.62999998E-02   8.01405400E-16
  -3.62499990E-02   1.39930256E-15
  -3.62000018E-02   2.07240502E-15
  -3.61500010E-02   2.82174648E-15
  -3.61000001E-02   3.65315019E-15
  -3.60499993E-02   4.57708737E-15
  -3.59999985E-02   5.60518378E-15
  -3.59500013E-02   6.74383111E-15
  -3.59000005E-02   7.98717680E-15
  -3.58499996E-02   9.31301968E-15
  -3.57999988E-02   1.06848903E-14
  -3.57500017E-02   1.20614578E-14
  -3.57000008E-02   1.34109346E-14
  -3.56500000E-02   1.47247801E-14
  -3.55999991E-02   1.60236492E-14
  -3.55499983E-02   1.73504094E-14
  -3.55000012E-02   1.87501483E-14
  -3.54500003E-02   2.02436233E-14
  -3.53999995E-02   2.18055249E-14
  -3.53499986E-02   2.33592053E-14
  -3.53000015E-02   2.47940808E-14
  -3.52500007E-02   2.60018938E-14
  -3.51999998E-02   2.69178312E-14
  -3.51499990E-02   2.75470954E-14
  -3.51000018E-02   2.79609811E-14
  -3.50500010E-02   2.82583862E-14
  -3.50000001E-02   2.85054268E-14
  -3.49499993E-02   2.86792583E-14
  -3.48999985E-02   2.86450483E-14
  -3.48500013E-02   2.81843064E-14
  -3.48000005E-02   2.70704259E-14
  -3.47499996E-02   2.51631669E-14
  -3.46999988E-02   2.24792278E-14
  -3.46500017E-02   1.92001854E-14
  -3.46000008E-02   1.56032600E-14
  -3.45500000E-02   1.19358936E-14
  -3.44999991E-02   8.28623194E-15
  -3.44499983E-02   4.51219660E-15
  -3.44000012E-02   2.73027492E-16
  -3.43500003E-02  -4.83613165E-15
  -3.42999995E-02  -1.10965475E-14
  -3.42499986E-02  -1.85087693E-14
  -3.42000015E-02  -2.67474370E-14
  -3.41500007E-02  -3.52666640E-14
  -3.40999998E-02  -4.35265227E-14
  -3.40499990E-02  -5.12472450E-14
  -3.40000018E-02  -5.85702954E-14
  -3.39500010E-02  -6.60335569E-14
  -3.39000002E-02  -7.43452337E-14
  -3.38499993E-02  -8.40373371E-14
  -3.37999985E-02  -9.51499350E-14
  -3.37500013E-02  -1.07103650E-13
  -3.37000005E-02  -1.18848480E-13
  -3.36499996E-02  -1.29255005E-13
  -3.35999988E-02  -1.37592371E-13
  -3.35500017E-02  -1.43875160E-13
  -3.35000008E-02  -1.48895897E-13
  -3.34500000E-02  -1.53888350E-13
  -3.33999991E-02  -1.59938062E-13
  -3.33499983E-02  -1.67392277E-13
  -3.33000012E-02  -1.75553569E-13
  -3.32500003E-02  -1.82838675E-13
  -3.31999995E-02  -1.87382512E-13
  -3.31499986E-02  -1.87850319E-13
  -3.31000015E-02  -1.84092664E-13
  -3.30500007E-02  -1.77310383E-13
  -3.29999998E-02  -1.69593696E-13
  -3.29499990E-02  -1.62983261E-13
  -3.29000019E-02  -1.58448301E-13
  -3.28500010E-02  -1.55260611E-13
  -3.28000002E-02  -1.51107981E-13
  -3.27499993E-02  -1.42974974E-13
  -3.26999985E-02  -1.28456206E-13
  -3.26500013E-02  -1.06924005E-13
  -3.26000005E-02  -7.99813029E-14
  -3.25499997E-02  -5.09108069E-14
  -3.24999988E-02  -2.32805007E-14
  -3.24500017E-02   7.16269536E-16
  -3.24000008E-02   2.14222205E-14
  -3.23500000E-02   4.17755091E-14
  -3.22999991E-02   6.61277944E-14
  -3.22499983E-02   9.82592913E-14
  -3.22000012E-02   1.39455328E-13
  -3.21500003E-02   1.87565309E-13
  -3.20999995E-02   2.37589055E-13
  -3.20499986E-02   2.83662525E-13
  -3.20000015E-02   3.21638739E-13
  -3.19500007E-02   3.51099792E-13
  -3.18999998E-02   3.75794637E-13
  -3.18499990E-02   4.02148394E-13
  -3.18000019E-02   4.36367359E-13
  -3.17500010E-02   4.81376224E-13
  -3.17000002E-02   5.35016476E-13
  -3.16499993E-02   5.90466044E-13
  -3.15999985E-02   6.38881146E-13
  -3.15500014E-02   6.73209806E-13
  -3.15000005E-02   6.91486202E-13
  -3.14499997E-02   6.98010443E-13
  -3.13999988E-02   7.01680142E-13
  -3.13500017E-02   7.12019094E-13
  -3.13000008E-02   7.34577926E-13
  -3.12500000E-02   7.67819564E-13
  -3.11999992E-02   8.03077711E-13
  -3.11500002E-02   8.27864849E-13
  -3.10999993E-02   8.31253469E-13
  -3.10500003E-02   8.08976258E-13
  -3.09999995E-02   7.65832764E-13
  -3.09500005E-02   7.14063465E-13
  -3.08999997E-02   6.68131132E-13
  -3.08500007E-02   6.38072548E-13
  -3.07999998E-02   6.24416426E-13
  -3.07500008E-02   6.17163276E-13
  -3.07000000E-02   5.99610747E-13
  -3.06499992E-02   5.55600054E-13
  -3.06000002E-02   4.77054540E-13
  -3.05499993E-02   3.68311040E-13
  -3.05000003E-02   2.44989657E-13
  -3.04499995E-02   1.27531720E-13
  -3.04000005E-02   3.20400682E-14
  -3.03499997E-02  -3.74962478E-14
  -3.03000007E-02  -9.18629661E-14
  -3.02499998E-02  -1.52558535E-13
  -3.02000009E-02  -2.42421236E-13
  -3.01500000E-02  -3.74933916E-13
  -3.00999992E-02  -5.47089121E-13
  -3.00500002E-02  -7.39378068E-13
  -2.99999993E-02  -9.23398510E-13
  -2.99500003E-02  -1.07406738E-12
  -2.98999995E-02  -1.18108095E-12
  -2.98500005E-02  -1.25426221E-12
  -2.97999997E-02  -1.31991477E-12
  -2.97500007E-02  -1.40929466E-12
  -2.96999998E-02  -1.54403693E-12
  -2.96500009E-02  -1.72509880E-12
  -2.96000000E-02  -1.93056920E-12
  -2.95499992E-02  -2.12392257E-12
  -2.95000002E-02  -2.26955325E-12
  -2.94499993E-02  -2.34885635E-12
  -2.94000003E-02  -2.36945251E-12
  -2.93499995E-02  -2.36286576E-12
  -2.93000005E-02  -2.37102547E-12
  -2.92499997E-02  -2.42714984E-12
  -2.92000007E-02  -2.53949769E-12
  -2.91499998E-02  -2.68566224E-12
  -2.91000009E-02  -2.82065777E-12
  -2.90500000E-02  -2.89588167E-12
  -2.89999992E-02  -2.88084487E-12
  -2.89500002E-02  -2.77782051E-12
  -2.88999993E-02  -2.62226894E-12
  -2.88500004E-02  -2.46804205E-12
  -2.87999995E-02  -2.36333674E-12
  -2.87500005E-02  -2.32795250E-12
  -2.86999997E-02  -2.34239429E-12
  -2.86500007E-02  -2.35449269E-12
  -2.85999998E-02  -2.30144788E-12
  -2.85500009E-02  -2.13800852E-12
  -2.85000000E-02  -1.85815859E-12
  -2.84499992E-02  -1.50000672E-12
  -2.84000002E-02  -1.13073396E-12
  -2.83499993E-02  -8.17450816E-13
  -2.83000004E-02  -5.96594063E-13
  -2.82499995E-02  -4.55816699E-13
  -2.82000005E-02  -3.37319067E-13
  -2.81499997E-02  -1.62195886E-13
  -2.81000007E-02   1.34277314E-13
  -2.80499998E-02   5.72012489E-13
  -2.80000009E-02   1.11437292E-12
  -2.79500000E-02   1.68163118E-12
  -2.78999992E-02   2.18469990E-12
  -2.78500002E-02   2.56470062E-12
  -2.77999993E-02   2.82057602E-12
  -2.77500004E-02   3.01155108E-12
  -2.76999995E-02   3.23212355E-12
  -2.76500005E-02   3.56970204E-12
  -2.75999997E-02   4.06340803E-12
  -2.75500007E-02   4.68290120E-12
  -2.74999999E-02   5.33782220E-12
  -2.74500009E-02   5.91497684E-12
  -2.74000000E-02   6.32760381E-12
  -2.73499992E-02   6.55485301E-12
  -2.73000002E-02   6.65306005E-12
  -2.72499993E-02   6.73244446E-12
  -2.72000004E-02   6.90828904E-12
  -2.71499995E-02   7.24767945E-12
  -2.71000005E-02   7.73583021E-12
  -2.70499997E-02   8.27813425E-12
  -2.70000007E-02   8.73856109E-12
  -2.69499999E-02   8.99850940E-12
  -2.69000009E-02   9.01025782E-12
  -2.68500000E-02   8.82052677E-12
  -2.67999992E-02   8.55219194E-12
  -2.67500002E-02   8.35070728E-12
  -2.66999993E-02   8.31806152E-12
  -2.66500004E-02   8.46372538E-12
  -2.65999995E-02   8.69552087E-12
  -2.65500005E-02   8.85621004E-12
  -2.64999997E-02   8.79110673E-12
  -2.64500007E-02   8.41737617E-12
  -2.63999999E-02   7.76372196E-12
  -2.63500009E-02   6.96134643E-12
  -2.63000000E-02   6.18832893E-12
  -2.62499992E-02   5.59073187E-12
  -2.62000002E-02   5.21519633E-12
  -2.61499994E-02   4.98391866E-12
  -2.61000004E-02   4.72497128E-12
  -2.60499995E-02   4.24639794E-12
  -2.60000005E-02   3.42233165E-12
  -2.59499997E-02   2.25271841E-12
  -2.59000007E-02   8.68704902E-13
  -2.58499999E-02  -5.20789791E-13
  -2.58000009E-02  -1.71943200E-12
  -2.57500000E-02  -2.63140096E-12
  -2.56999992E-02  -3.30715988E-12
  -2.56500002E-02  -3.92487822E-12
  -2.55999994E-02  -4.71348091E-12
  -2.55500004E-02  -5.84983537E-12
  -2.54999995E-02  -7.37537722E-12
  -2.54500005E-02  -9.17041356E-12
  -2.53999997E-02  -1.09997324E-11
  -2.53500007E-02  -1.26115542E-11
  -2.52999999E-02  -1.38472619E-11
  -2.52500009E-02  -1.47129618E-11
  -2.52000000E-02  -1.53793922E-11
  -2.51499992E-02  -1.61076950E-11
  -2.51000002E-02  -1.71318584E-11
  -2.50499994E-02  -1.85491188E-11
  -2.50000004E-02  -2.02678933E-11
  -2.49499995E-02  -2.20385914E-11
  -2.49000005E-02  -2.35564276E-11
  -2.48499997E-02  -2.45925537E-11
  -2.48000007E-02  -2.50956790E-11
  -2.47499999E-02  -2.52175607E-11
  -2.47000009E-02  -2.52483555E-11
  -2.46500000E-02  -2.54877525E-11
  -2.45999992E-02  -2.61074964E-11
  -2.45500002E-02  -2.70666250E-11
  -2.44999994E-02  -2.81192448E-11
  -2.44500004E-02  -2.89144195E-11
  -2.43999995E-02  -2.91465845E-11
  -2.43500005E-02  -2.86907598E-11
  -2.42999997E-02  -2.76615363E-11
  -2.42500007E-02  -2.63669208E-11
  -2.41999999E-02  -2.51742533E-11
  -2.41500009E-02  -2.43453504E-11
  -2.41000000E-02  -2.39137061E-11
  -2.40499992E-02  -2.36601468E-11
  -2.40000002E-02  -2.32010869E-11
  -2.39499994E-02  -2.21536331E-11
  -2.39000004E-02  -2.03061786E-11
  -2.38499995E-02  -1.77184135E-11
  -2.38000005E-02  -1.47037278E-11
  -2.37499997E-02  -1.16980956E-11
  -2.37000007E-02  -9.07041022E-12
  -2.36499999E-02  -6.95720391E-12
  -2.36000009E-02  -5.19641405E-12
  -2.35500000E-02  -3.39297188E-12
  -2.34999992E-02  -1.09109000E-12
  -2.34500002E-02   2.02036890E-12
  -2.33999994E-02   5.96018417E-12
  -2.33500004E-02   1.04325385E-11
  -2.32999995E-02   1.49441553E-11
  -2.32500006E-02   1.90128122E-11
  -2.31999997E-02   2.23768972E-11
  -2.31500007E-02   2.51124347E-11
  -2.30999999E-02   2.76023163E-11
  -2.30500009E-02   3.03669659E-11
  -2.30000000E-02   3.38277427E-11
  -2.29499992E-02   3.81067573E-11
  -2.29000002E-02   4.29536788E-11
  -2.28499994E-02   4.78362384E-11
  -2.28000004E-02   5.21590271E-11
  -2.27499995E-02   5.55169001E-11
  -2.27000006E-02   5.78708921E-11
  -2.26499997E-02   5.95657412E-11
  -2.26000007E-02   6.11764736E-11
  -2.25499999E-02   6.32473934E-11
  -2.25000009E-02   6.60369398E-11
  -2.24500000E-02   6.93825830E-11
  -2.23999992E-02   7.27497992E-11
  -2.23500002E-02   7.54489110E-11
  -2.22999994E-02   7.69278946E-11
  -2.22500004E-02   7.70127850E-11
  -2.21999995E-02   7.59867586E-11
  -2.21500006E-02   7.44677167E-11
  -2.20999997E-02   7.31332356E-11
  -2.20500007E-02   7.24111951E-11
  -2.19999999E-02   7.22733054E-11
  -2.19500009E-02   7.22269397E-11
  -2.19000001E-02   7.15146206E-11
  -2.18499992E-02   6.94383856E-11
  -2.18000002E-02   6.56677143E-11
  -2.17499994E-02   6.03932460E-11
  -2.17000004E-02   5.42531645E-11
  -2.16499995E-02   4.80587896E-11
  -2.16000006E-02   4.24363322E-11
  -2.15499997E-02   3.75424795E-11
  -2.15000007E-02   3.29830850E-11
  -2.14499999E-02   2.79770495E-11
  -2.14000009E-02   2.16991702E-11
  -2.13500001E-02   1.36537864E-11
  -2.12999992E-02   3.91322304E-12
  -2.12500002E-02  -6.88923658E-12
  -2.11999994E-02  -1.78154904E-11
  -2.11500004E-02  -2.80202979E-11
  -2.10999995E-02  -3.71166604E-11
  -2.10500006E-02  -4.53448182E-11
  -2.09999997E-02  -5.34640492E-11
  -2.09500007E-02  -6.24080163E-11
  -2.08999999E-02  -7.28514332E-11
  -2.08500009E-02  -8.48791801E-11
  -2.08000001E-02  -9.79085146E-11
  -2.07499992E-02  -1.10905785E-10
  -2.07000002E-02  -1.22808694E-10
  -2.06499994E-02  -1.32970607E-10
  -2.06000004E-02  -1.41429410E-10
  -2.05499995E-02  -1.48875828E-10
  -2.05000006E-02  -1.56328048E-10
  -2.04499997E-02  -1.64650488E-10
  -2.04000007E-02  -1.74127990E-10
  -2.03499999E-02  -1.84287197E-10
  -2.03000009E-02  -1.94051497E-10
  -2.02500001E-02  -2.02168796E-10
  -2.01999992E-02  -2.07728307E-10
  -2.01500002E-02  -2.10537476E-10
  -2.00999994E-02  -2.11187789E-10
  -2.00500004E-02  -2.10772497E-10
  -1.99999996E-02  -2.10373940E-10
  -1.99500006E-02  -2.10544457E-10
  -1.98999997E-02  -2.11012527E-10
  -1.98500007E-02  -2.10750972E-10
  -1.97999999E-02  -2.08385711E-10
  -1.97500009E-02  -2.02770481E-10
  -1.97000001E-02  -1.93474847E-10
  -1.96499992E-02  -1.80965867E-10
  -1.96000002E-02  -1.66395245E-10
  -1.95499994E-02  -1.51078511E-10
  -1.95000004E-02  -1.35891853E-10
  -1.94499996E-02  -1.20854868E-10
  -1.94000006E-02  -1.05089597E-10
  -1.93499997E-02  -8.71833508E-11
  -1.93000007E-02  -6.58020582E-11
  -1.92499999E-02  -4.02864235E-11
  -1.92000009E-02  -1.09643353E-11
  -1.91500001E-02   2.09657465E-11
  -1.90999992E-02   5.39373095E-11
  -1.90500002E-02   8.66875946E-11
  -1.89999994E-02   1.18802440E-10
  -1.89500004E-02   1.50887552E-10
  -1.88999996E-02   1.84282353E-10
  -1.88500006E-02   2.20434074E-10
  -1.87999997E-02   2.60205024E-10
  -1.87500007E-02   3.03420400E-10
  -1.86999999E-02   3.48863521E-10
  -1.86500009E-02   3.94729444E-10
  -1.86000001E-02   4.39343228E-10
  -1.85499992E-02   4.81827800E-10
  -1.85000002E-02   5.22421717E-10
  -1.84499994E-02   5.62298319E-10
  -1.84000004E-02   6.02957462E-10
  -1.83499996E-02   6.45452913E-10
  -1.83000006E-02   6.89796831E-10
  -1.82499997E-02   7.34810490E-10
  -1.82000007E-02   7.78496434E-10
  -1.81499999E-02   8.18774992E-10
  -1.81000009E-02   8.54263993E-10
  -1.80500001E-02   8.84754603E-10
  -1.79999992E-02   9.11165976E-10
  -1.79500002E-02   9.34989530E-10
  -1.78999994E-02   9.57462554E-10
  -1.78500004E-02   9.78835568E-10
  -1.77999996E-02   9.98060412E-10
  -1.77500006E-02   1.01304776E-09
  -1.76999997E-02   1.02138786E-09
  -1.76500008E-02   1.02122155E-09
  -1.75999999E-02   1.01187592E-09
  -1.75500009E-02   9.93977900E-10
  -1.75000001E-02   9.68987002E-10
  -1.74499992E-02   9.38345956E-10
  -1.74000002E-02   9.02622754E-10
  -1.73499994E-02   8.61025251E-10
  -1.73000004E-02   8.11512024E-10
  -1.72499996E-02   7.51459284E-10
  -1.72000006E-02   6.78594569E-10
  -1.71499997E-02   5.91787397E-10
  -1.71000008E-02   4.91341967E-10
  -1.70499999E-02   3.78654441E-10
  -1.70000009E-02   2.55379606E-10
  -1.69500001E-02   1.22470784E-10
  -1.68999992E-02  -2.04804680E-11
  -1.68500002E-02  -1.75305923E-10
  -1.67999994E-02  -3.44687279E-10
  -1.67500004E-02  -5.31193811E-10
  -1.66999996E-02  -7.36352868E-10
  -1.66500006E-02  -9.60168944E-10
  -1.65999997E-02  -1.20130883E-09
  -1.65500008E-02  -1.45788082E-09
  -1.64999999E-02  -1.72846859E-09
  -1.64500009E-02  -2.01296202E-09
  -1.64000001E-02  -2.31281305E-09
  -1.63499992E-02  -2.63059485E-09
  -1.63000003E-02  -2.96905256E-09
  -1.62499994E-02  -3.33005890E-09
  -1.62000004E-02  -3.71393960E-09
  -1.61499996E-02  -4.11947187E-09
  -1.61000006E-02  -4.54456961E-09
  -1.60499997E-02  -4.98734654E-09
  -1.60000008E-02  -5.44710499E-09
  -1.59499999E-02  -5.92479310E-09
  -1.59000009E-02  -6.42273701E-09
  -1.58500001E-02  -6.94374513E-09
  -1.57999992E-02  -7.48998374E-09
  -1.57500003E-02  -8.06211808E-09
  -1.56999994E-02  -8.65910454E-09
  -1.56500004E-02  -9.27873778E-09
  -1.55999996E-02  -9.91870674E-09
  -1.55499997E-02  -1.05777174E-08
  -1.54999997E-02  -1.12561516E-08
  -1.54499998E-02  -1.19560051E-08
  -1.53999999E-02  -1.26800881E-08
  -1.53500000E-02  -1.34308626E-08
  -1.53000001E-02  -1.42094185E-08
  -1.52500002E-02  -1.50150452E-08
  -1.52000003E-02  -1.58455986E-08
  -1.51500003E-02  -1.66985092E-08
  -1.51000004E-02  -1.75719830E-08
  -1.50499996E-02  -1.84658759E-08
  -1.49999997E-02  -1.93818437E-08
  -1.49499997E-02  -2.03226893E-08
  -1.48999998E-02  -2.12911946E-08
  -1.48499999E-02  -2.22889724E-08
  -1.48000000E-02  -2.33158062E-08
  -1.47500001E-02  -2.43698182E-08
  -1.47000002E-02  -2.54483705E-08
  -1.46500003E-02  -2.65493334E-08
  -1.46000003E-02  -2.76721259E-08
  -1.45500004E-02  -2.88181017E-08
  -1.44999996E-02  -2.99900833E-08
  -1.44499997E-02  -3.11912487E-08
  -1.43999998E-02  -3.24238698E-08
  -1.43499998E-02  -3.36884511E-08
  -1.42999999E-02  -3.49836533E-08
  -1.42500000E-02  -3.63070605E-08
  -1.42000001E-02  -3.76564486E-08
  -1.41500002E-02  -3.90309722E-08
  -1.41000003E-02  -4.04317966E-08
  -1.40500003E-02  -4.18618136E-08
  -1.40000004E-02  -4.33246683E-08
  -1.39499996E-02  -4.48234161E-08
  -1.38999997E-02  -4.63594496E-08
  -1.38499998E-02  -4.79322182E-08
  -1.37999998E-02  -4.95397856E-08
  -1.37499999E-02  -5.11800629E-08
  -1.37000000E-02  -5.28521085E-08
  -1.36500001E-02  -5.45569740E-08
  -1.36000002E-02  -5.62976794E-08
  -1.35500003E-02  -5.80783670E-08
  -1.35000004E-02  -5.99029306E-08
  -1.34500004E-02  -6.17738181E-08
  -1.33999996E-02  -6.36914805E-08
  -1.33499997E-02  -6.56547314E-08
  -1.32999998E-02  -6.76618654E-08
  -1.32499998E-02  -6.97120228E-08
  -1.31999999E-02  -7.18062765E-08
  -1.31500000E-02  -7.39477812E-08
  -1.31000001E-02  -7.61411698E-08
  -1.30500002E-02  -7.83911887E-08
  -1.30000003E-02  -8.07013834E-08
  -1.29500004E-02  -8.30733384E-08
  -1.29000004E-02  -8.55067626E-08
  -1.28499996E-02  -8.80004905E-08
  -1.27999997E-02  -9.05538755E-08
  -1.27499998E-02  -9.31680262E-08
  -1.26999998E-02  -9.58462323E-08
  -1.26499999E-02  -9.85935316E-08
  -1.26000000E-02  -1.01415488E-07
  -1.25500001E-02  -1.04316747E-07
  -1.25000002E-02  -1.07300053E-07
  -1.24500003E-02  -1.10366166E-07
  -1.24000004E-02  -1.13514631E-07
  -1.23500004E-02  -1.16745134E-07
  -1.22999996E-02  -1.20058885E-07
  -1.22499997E-02  -1.23459287E-07
  -1.21999998E-02  -1.26951704E-07
  -1.21499998E-02  -1.30542389E-07
  -1.20999999E-02  -1.34237013E-07
  -1.20500000E-02  -1.38039539E-07
  -1.20000001E-02  -1.41951801E-07
  -1.19500002E-02  -1.45974170E-07
  -1.19000003E-02  -1.50106715E-07
  -1.18500004E-02  -1.54350772E-07
  -1.18000004E-02  -1.58709781E-07
  -1.17499996E-02  -1.63189327E-07
  -1.16999997E-02  -1.67796173E-07
  -1.16499998E-02  -1.72536929E-07
  -1.15999999E-02  -1.77416638E-07
  -1.15499999E-02  -1.82438271E-07
  -1.15000000E-02  -1.87603021E-07
  -1.14500001E-02  -1.92911557E-07
  -1.14000002E-02  -1.98365427E-07
  -1.13500003E-02  -2.03968128E-07
  -1.13000004E-02  -2.09725428E-07
  -1.12500004E-02  -2.15644647E-07
  -1.11999996E-02  -2.21733202E-07
  -1.11499997E-02  -2.27997347E-07
  -1.10999998E-02  -2.34441188E-07
  -1.10499999E-02  -2.41066942E-07
  -1.09999999E-02  -2.47875903E-07
  -1.09500000E-02  -2.54869946E-07
  -1.09000001E-02  -2.62052652E-07
  -1.08500002E-02  -2.69429933E-07
  -1.08000003E-02  -2.77009519E-07
  -1.07500004E-02  -2.84799597E-07
  -1.07000005E-02  -2.92807528E-07
  -1.06499996E-02  -3.01038654E-07
  -1.05999997E-02  -3.09496357E-07
  -1.05499998E-02  -3.18182884E-07
  -1.04999999E-02  -3.27100651E-07
  -1.04499999E-02  -3.36253606E-07
  -1.04000000E-02  -3.45648090E-07
  -1.03500001E-02  -3.55292315E-07
  -1.03000002E-02  -3.65195461E-07
  -1.02500003E-02  -3.75366056E-07
  -1.02000004E-02  -3.85810949E-07
  -1.01500005E-02  -3.96534858E-07
  -1.00999996E-02  -4.07541222E-07
  -1.00499997E-02  -4.18833281E-07
  -9.99999978E-03  -4.30415582E-07
  -9.94999986E-03  -4.42294919E-07
  -9.89999995E-03  -4.54480102E-07
  -9.85000003E-03  -4.66981248E-07
  -9.80000012E-03  -4.79808250E-07
  -9.75000020E-03  -4.92969491E-07
  -9.70000029E-03  -5.06471395E-07
  -9.65000037E-03  -5.20318792E-07
  -9.60000046E-03  -5.34516062E-07
  -9.54999961E-03  -5.49068773E-07
  -9.49999969E-03  -5.63984543E-07
  -9.44999978E-03  -5.79273092E-07
  -9.39999986E-03  -5.94945789E-07
  -9.34999995E-03  -6.11014059E-07
  -9.30000003E-03  -6.27488191E-07
  -9.25000012E-03  -6.44376541E-07
  -9.20000020E-03  -6.61685817E-07
  -9.15000029E-03  -6.79422158E-07
  -9.10000037E-03  -6.97592327E-07
  -9.05000046E-03  -7.16205136E-07
  -8.99999961E-03  -7.35271556E-07
  -8.94999970E-03  -7.54804205E-07
  -8.89999978E-03  -7.74816272E-07
  -8.84999987E-03  -7.95319920E-07
  -8.79999995E-03  -8.16325723E-07
  -8.75000004E-03  -8.37842435E-07
  -8.70000012E-03  -8.59878071E-07
  -8.65000021E-03  -8.82441157E-07
  -8.60000029E-03  -9.05541867E-07
  -8.55000038E-03  -9.29192709E-07
  -8.50000046E-03  -9.53408005E-07
  -8.44999962E-03  -9.78202820E-07
  -8.39999970E-03  -1.00359159E-06
  -8.34999979E-03  -1.02958722E-06
  -8.29999987E-03  -1.05620109E-06
  -8.24999996E-03  -1.08344364E-06
  -8.20000004E-03  -1.11132533E-06
  -8.15000013E-03  -1.13985823E-06
  -8.10000021E-03  -1.16905665E-06
  -8.05000030E-03  -1.19893673E-06
  -8.00000038E-03  -1.22951576E-06
  -7.95000046E-03  -1.26081056E-06
  -7.89999962E-03  -1.29283671E-06
  -7.84999970E-03  -1.32560820E-06
  -7.79999979E-03  -1.35913808E-06
  -7.74999987E-03  -1.39343899E-06
  -7.69999996E-03  -1.42852525E-06
  -7.65000004E-03  -1.46441300E-06
  -7.60000013E-03  -1.50112055E-06
  -7.55000021E-03  -1.53866733E-06
  -7.49999983E-03  -1.57707291E-06
  -7.44999992E-03  -1.61635558E-06
  -7.40000000E-03  -1.65653228E-06
  -7.35000009E-03  -1.69761881E-06
  -7.30000017E-03  -1.73963065E-06
  -7.24999979E-03  -1.78258449E-06
  -7.19999988E-03  -1.82649887E-06
  -7.14999996E-03  -1.87139460E-06
  -7.10000005E-03  -1.91729350E-06
  -7.05000013E-03  -1.96421797E-06
  -7.00000022E-03  -2.01218927E-06
  -6.94999984E-03  -2.06122786E-06
  -6.89999992E-03  -2.11135193E-06
  -6.85000001E-03  -2.16258081E-06
  -6.80000009E-03  -2.21493315E-06
  -6.75000018E-03  -2.26843053E-06
  -6.69999979E-03  -2.32309571E-06
  -6.64999988E-03  -2.37895392E-06
  -6.59999996E-03  -2.43603017E-06
  -6.55000005E-03  -2.49434902E-06
  -6.50000013E-03  -2.55393411E-06
  -6.45000022E-03  -2.61480773E-06
  -6.39999984E-03  -2.67699124E-06
  -6.34999992E-03  -2.74050694E-06
  -6.30000001E-03  -2.80537847E-06
  -6.25000009E-03  -2.87163243E-06
  -6.20000018E-03  -2.93929656E-06
  -6.14999980E-03  -3.00839906E-06
  -6.09999988E-03  -3.07896835E-06
  -6.04999997E-03  -3.15103125E-06
  -6.00000005E-03  -3.22461437E-06
  -5.95000014E-03  -3.29974137E-06
  -5.90000022E-03  -3.37643905E-06
  -5.84999984E-03  -3.45473359E-06
  -5.79999993E-03  -3.53465543E-06
  -5.75000001E-03  -3.61623506E-06
  -5.70000010E-03  -3.69950521E-06
  -5.65000018E-03  -3.78449704E-06
  -5.59999980E-03  -3.87124192E-06
  -5.54999989E-03  -3.95976940E-06
  -5.49999997E-03  -4.05010769E-06
  -5.45000006E-03  -4.14228634E-06
  -5.40000014E-03  -4.23633537E-06
  -5.35000023E-03  -4.33228797E-06
  -5.29999984E-03  -4.43017962E-06
  -5.24999993E-03  -4.53004486E-06
  -5.20000001E-03  -4.63192100E-06
  -5.15000010E-03  -4.73584169E-06
  -5.10000018E-03  -4.84184102E-06
  -5.04999980E-03  -4.94995220E-06
  -4.99999989E-03  -5.06020751E-06
  -4.94999997E-03  -5.17264198E-06
  -4.90000006E-03  -5.28729106E-06
  -4.85000014E-03  -5.40419433E-06
  -4.80000023E-03  -5.52339088E-06
  -4.74999985E-03  -5.64492075E-06
  -4.69999993E-03  -5.76882303E-06
  -4.65000002E-03  -5.89513638E-06
  -4.60000010E-03  -6.02389719E-06
  -4.55000019E-03  -6.15514227E-06
  -4.49999981E-03  -6.28890984E-06
  -4.44999989E-03  -6.42523992E-06
  -4.39999998E-03  -6.56417524E-06
  -4.35000006E-03  -6.70575855E-06
  -4.30000015E-03  -6.85003442E-06
  -4.25000023E-03  -6.99704560E-06
  -4.19999985E-03  -7.14683529E-06
  -4.14999994E-03  -7.29944350E-06
  -4.10000002E-03  -7.45491252E-06
  -4.05000011E-03  -7.61328329E-06
  -4.00000019E-03  -7.77459991E-06
  -3.94999981E-03  -7.93890649E-06
  -3.89999989E-03  -8.10625170E-06
  -3.84999998E-03  -8.27668282E-06
  -3.80000006E-03  -8.45024715E-06
  -3.74999992E-03  -8.62699198E-06
  -3.70000000E-03  -8.80696280E-06
  -3.65000009E-03  -8.99020415E-06
  -3.59999994E-03  -9.17676152E-06
  -3.55000002E-03  -9.36668130E-06
  -3.50000011E-03  -9.56001168E-06
  -3.44999996E-03  -9.75680450E-06
  -3.40000005E-03  -9.95711162E-06
  -3.34999990E-03  -1.01609830E-05
  -3.29999998E-03  -1.03684688E-05
  -3.25000007E-03  -1.05796189E-05
  -3.19999992E-03  -1.07944797E-05
  -3.15000000E-03  -1.10131004E-05
  -3.10000009E-03  -1.12355310E-05
  -3.04999994E-03  -1.14618242E-05
  -3.00000003E-03  -1.16920319E-05
  -2.95000011E-03  -1.19262086E-05
  -2.89999996E-03  -1.21644089E-05
  -2.85000005E-03  -1.24066837E-05
  -2.79999990E-03  -1.26530858E-05
  -2.74999999E-03  -1.29036680E-05
  -2.70000007E-03  -1.31584811E-05
  -2.64999992E-03  -1.34175798E-05
  -2.60000001E-03  -1.36810140E-05
  -2.55000009E-03  -1.39488384E-05
  -2.49999994E-03  -1.42211084E-05
  -2.45000003E-03  -1.44978803E-05
  -2.40000011E-03  -1.47792125E-05
  -2.34999997E-03  -1.50651585E-05
  -2.30000005E-03  -1.53557721E-05
  -2.24999990E-03  -1.56511069E-05
  -2.19999999E-03  -1.59512147E-05
  -2.15000007E-03  -1.62561482E-05
  -2.09999993E-03  -1.65659676E-05
  -2.05000001E-03  -1.68807255E-05
  -2.00000009E-03  -1.72004802E-05
  -1.94999995E-03  -1.75252881E-05
  -1.90000003E-03  -1.78552073E-05
  -1.85000000E-03  -1.81902906E-05
  -1.79999997E-03  -1.85305926E-05
  -1.75000005E-03  -1.88761678E-05
  -1.70000002E-03  -1.92270691E-05
  -1.64999999E-03  -1.95833527E-05
  -1.59999996E-03  -1.99450751E-05
  -1.55000004E-03  -2.03122945E-05
  -1.50000001E-03  -2.06850655E-05
  -1.44999998E-03  -2.10634444E-05
  -1.39999995E-03  -2.14474858E-05
  -1.35000004E-03  -2.18372443E-05
  -1.30000000E-03  -2.22327744E-05
  -1.24999997E-03  -2.26341290E-05
  -1.20000006E-03  -2.30413625E-05
  -1.15000003E-03  -2.34545278E-05
  -1.09999999E-03  -2.38736775E-05
  -1.04999996E-03  -2.42988663E-05
  -1.00000005E-03  -2.47301523E-05
  -9.50000016E-04  -2.51675883E-05
  -8.99999985E-04  -2.56112307E-05
  -8.50000011E-04  -2.60611268E-05
  -7.99999980E-04  -2.65173330E-05
  -7.50000007E-04  -2.69798911E-05
  -6.99999975E-04  -2.74488539E-05
  -6.50000002E-04  -2.79242722E-05
  -6.00000028E-04  -2.84061971E-05
  -5.49999997E-04  -2.88946812E-05
  -5.00000024E-04  -2.93897774E-05
  -4.49999992E-04  -2.98915365E-05
  -3.99999990E-04  -3.04000041E-05
  -3.49999988E-04  -3.09152274E-05
  -3.00000014E-04  -3.14372483E-05
  -2.50000012E-04  -3.19661121E-05
  -1.99999995E-04  -3.25018664E-05
  -1.50000007E-04  -3.30445582E-05
  -9.99999975E-05  -3.35942386E-05
  -4.99999987E-05  -3.41509476E-05
   0.00000000      -3.47147325E-05
   4.99999987E-05  -3.52856332E-05
   9.99999975E-05  -3.58636862E-05
   1.50000007E-04  -3.64489279E-05
   1.99999995E-04  -3.70413945E-05
   2.50000012E-04  -3.76411335E-05
   3.00000014E-04  -3.82481740E-05
   3.49999988E-04  -3.88625667E-05
   3.99999990E-04  -3.94843482E-05
   4.49999992E-04  -4.01135512E-05
   5.00000024E-04  -4.07502012E-05
   5.49999997E-04  -4.13943308E-05
   6.00000028E-04  -4.20459728E-05
   6.50000002E-04  -4.27051491E-05
   6.99999975E-04  -4.33718997E-05
   7.50000007E-04  -4.40462391E-05
   7.99999980E-04  -4.47282073E-05
   8.50000011E-04  -4.54178262E-05
   8.99999985E-04  -4.61151249E-05
   9.50000016E-04  -4.68201251E-05
   1.00000005E-03  -4.75328343E-05
   1.04999996E-03  -4.82532778E-05
   1.09999999E-03  -4.89814665E-05
   1.15000003E-03  -4.97174151E-05
   1.20000006E-03  -5.04611344E-05
   1.24999997E-03  -5.12126353E-05
   1.30000000E-03  -5.19719433E-05
   1.35000004E-03  -5.27390621E-05
   1.39999995E-03  -5.35140134E-05
   1.44999998E-03  -5.42967864E-05
   1.50000001E-03  -5.50873774E-05
   1.55000004E-03  -5.58857864E-05
   1.59999996E-03  -5.66920135E-05
   1.64999999E-03  -5.75060585E-05
   1.70000002E-03  -5.83279070E-05
   1.75000005E-03  -5.91575663E-05
   1.79999997E-03  -5.99950363E-05
   1.85000000E-03  -6.08402916E-05
   1.90000003E-03  -6.16933175E-05
   1.94999995E-03  -6.25540997E-05
   2.00000009E-03  -6.34226089E-05
   2.05000001E-03  -6.42988307E-05
   2.09999993E-03  -6.51827286E-05
   2.15000007E-03  -6.60742808E-05
   2.19999999E-03  -6.69734582E-05
   2.24999990E-03  -6.78802389E-05
   2.30000005E-03  -6.87945940E-05
   2.34999997E-03  -6.97164942E-05
   2.40000011E-03  -7.06458886E-05
   2.45000003E-03  -7.15827191E-05
   2.49999994E-03  -7.25269419E-05
   2.55000009E-03  -7.34784990E-05
   2.60000001E-03  -7.44373392E-05
   2.64999992E-03  -7.54034190E-05
   2.70000007E-03  -7.63766802E-05
   2.74999999E-03  -7.73570791E-05
   2.79999990E-03  -7.83445430E-05