  -3.99999991E-02   0.00000000    
  -3.99499983E-02   0.00000000    
  -3.99000011E-02   0.00000000    
  -3.98500003E-02   0.00000000    
  -3.97999994E-02   0.00000000    
  -3.97499986E-02   7.04302779E-23
  -3.97000015E-02   8.06477671E-22
  -3.96500006E-02   4.88546885E-21
  -3.95999998E-02   2.06769966E-20
  -3.95499989E-02   6.82839728E-20
  -3.95000018E-02   1.86592934E-19
  -3.94500010E-02   4.37371232E-19
  -3.94000001E-02   9.00908978E-19
  -3.93499993E-02   1.65952376E-18
  -3.92999984E-02   2.77169922E-18
  -3.92500013E-02   4.24892158E-18
  -3.92000005E-02   6.05390619E-18
  -3.91499996E-02   8.13589125E-18
  -3.90999988E-02   1.05024285E-17
  -3.90500017E-02   1.33022926E-17
  -3.90000008E-02   1.68741900E-17
  -3.89500000E-02   2.17167998E-17
  -3.88999991E-02   2.83653434E-17
  -3.88499983E-02   3.72101011E-17
  -3.88000011E-02   4.83385523E-17
  -3.87500003E-02   6.14963654E-17
  -3.86999995E-02   7.62249383E-17
  -3.86499986E-02   9.21511959E-17
  -3.86000015E-02   1.09312229E-16
  -3.85500006E-02   1.28342287E-16
  -3.84999998E-02   1.50374183E-16
  -3.84499989E-02   1.76621590E-16
  -3.84000018E-02   2.07772431E-16
  -3.83500010E-02   2.43460218E-16
  -3.83000001E-02   2.82102232E-16
  -3.82499993E-02   3.21266362E-16
  -3.81999984E-02   3.58487372E-16
  -3.81500013E-02   3.92210295E-16
  -3.81000005E-02   4.22420916E-16
  -3.80499996E-02   4.50611205E-16
  -3.79999988E-02   4.79000679E-16
  -3.79500017E-02   5.09281471E-16
  -3.79000008E-02   5.41410490E-16
  -3.78500000E-02   5.73002278E-16
  -3.77999991E-02   5.99644005E-16
  -3.77499983E-02   6.16044363E-16
  -3.77000012E-02   6.17523864E-16
  -3.76500003E-02   6.01166335E-16
  -3.75999995E-02   5.66082018E-16
  -3.75499986E-02   5.12645516E-16
  -3.75000015E-02   4.41057017E-16
  -3.74500006E-02   3.49900417E-16
  -3.73999998E-02   2.35362001E-16
  -3.73499990E-02   9.14666013E-17
  -3.73000018E-02  -8.87635075E-17
  -3.72500010E-02  -3.11680834E-16
  -3.72000001E-02  -5.81488383E-16
  -3.71499993E-02  -8.99266928E-16
  -3.70999984E-02  -1.26273247E-15
  -3.70500013E-02  -1.66667920E-15
  -3.70000005E-02  -2.10397732E-15
  -3.69499996E-02  -2.56703711E-15
  -3.68999988E-02  -3.04968326E-15
  -3.68500017E-02  -3.54925101E-15
  -3.68000008E-02  -4.06834499E-15
  -3.67500000E-02  -4.61533388E-15
  -3.66999991E-02  -5.20261612E-15
  -3.66499983E-02  -5.84230387E-15
  -3.66000012E-02  -6.54018872E-15
  -3.65500003E-02  -7.29017202E-15
  -3.64999995E-02  -8.07194447E-15
  -3.64499986E-02  -8.85399898E-15
  -3.64000015E-02  -9.60192568E-15
  -3.63500006E-02  -1.02891972E-14
  -3.62999998E-02  -1.09055636E-14
  -3.62499990E-02  -1.14581899E-14
  -3.62000018E-02  -1.19632155E-14
  -3.61500010E-02  -1.24299798E-14
  -3.61000001E-02  -1.28446931E-14
  -3.60499993E-02  -1.31623812E-14
  -3.59999985E-02  -1.33137291E-14
  -3.59500013E-02  -1.32271394E-14
  -3.59000005E-02  -1.28582608E-14
  -3.58499996E-02  -1.22134019E-14
  -3.57999988E-02  -1.13533001E-14
  -3.57500017E-02  -1.03707199E-14
  -3.57000008E-02  -9.34742785E-15
  -3.56500000E-02  -8.30765934E-15
  -3.55999991E-02  -7.19055163E-15
  -3.55499983E-02  -5.85888327E-15
  -3.55000012E-02  -4.14669680E-15
  -3.54500003E-02  -1.92943793E-15
  -3.53999995E-02   8.13878331E-16
  -3.53499986E-02   3.97835028E-15
  -3.53000015E-02   7.36806178E-15
  -3.52500007E-02   1.07798936E-14
  -3.51999998E-02   1.41020914E-14
  -3.51499990E-02   1.73805994E-14
  -3.51000018E-02   2.08147471E-14
  -3.50500010E-02   2.46729110E-14
  -3.50000001E-02   2.91572322E-14
  -3.49499993E-02   3.42763605E-14
  -3.48999985E-02   3.97902943E-14
  -3.48500013E-02   4.52658879E-14
  -3.48000005E-02   5.02329840E-14
  -3.47499996E-02   5.43803758E-14
  -3.46999988E-02   5.77026220E-14
  -3.46500017E-02   6.05201246E-14
  -3.46000008E-02   6.33459078E-14
  -3.45500000E-02   6.66435020E-14
  -3.44999991E-02   7.05787628E-14
  -3.44499983E-02   7.48846853E-14
  -3.44000012E-02   7.89179309E-14
  -3.43500003E-02   8.19030241E-14
  -3.42999995E-02   8.32680753E-14
  -3.42499986E-02   8.29205614E-14
  -3.42000015E-02   8.13221086E-14
  -3.41500007E-02   7.93023687E-14
  -3.40999998E-02   7.76715457E-14
  -3.40499990E-02   7.67959643E-14
  -3.40000018E-02   7.63386072E-14
  -3.39500010E-02   7.53100788E-14
  -3.39000002E-02   7.24424183E-14
  -3.38499993E-02   6.67436755E-14
  -3.37999985E-02   5.79880721E-14
  -3.37500013E-02   4.69004481E-14
  -3.37000005E-02   3.49138443E-14
  -3.36499996E-02   2.35706213E-14
  -3.35999988E-02   1.38154377E-14
  -3.35500017E-02   5.50577896E-15
  -3.35000008E-02  -2.60489652E-15
  -3.34500000E-02  -1.23565564E-14
  -3.33999991E-02  -2.53362564E-14
  -3.33499983E-02  -4.20676372E-14
  -3.33000012E-02  -6.16272441E-14
  -3.32500003E-02  -8.19129107E-14
  -3.31999995E-02  -1.00500107E-13
  -3.31499986E-02  -1.15734909E-13
  -3.31000015E-02  -1.27566076E-13
  -3.30500007E-02  -1.37695221E-13
  -3.29999998E-02  -1.48908568E-13
  -3.29499990E-02  -1.63829521E-13
  -3.29000019E-02  -1.83627256E-13
  -3.28500010E-02  -2.07286472E-13
  -3.28000002E-02  -2.31831454E-13
  -3.27499993E-02  -2.53481535E-13
  -3.26999985E-02  -2.69274051E-13
  -3.26500013E-02  -2.78430463E-13
  -3.26000005E-02  -2.82802969E-13
  -3.25499997E-02  -2.86118595E-13
  -3.24999988E-02  -2.92281661E-13
  -3.24500017E-02  -3.03462225E-13
  -3.24000008E-02  -3.18856405E-13
  -3.23500000E-02  -3.34758263E-13
  -3.22999991E-02  -3.46015127E-13
  -3.22499983E-02  -3.48290461E-13
  -3.22000012E-02  -3.40132328E-13
  -3.21500003E-02  -3.23857830E-13
  -3.20999995E-02  -3.04743644E-13
  -3.20499986E-02  -2.88770256E-13
  -3.20000015E-02  -2.79864944E-13
  -3.19500007E-02  -2.77895762E-13
  -3.18999998E-02  -2.78410135E-13
  -3.18499990E-02  -2.74367199E-13
  -3.18000019E-02  -2.59198316E-13
  -3.17500010E-02  -2.29862245E-13
  -3.17000002E-02  -1.88469384E-13
  -3.16499993E-02  -1.41620859E-13
  -3.15999985E-02  -9.76160071E-14
  -3.15500014E-02  -6.26907245E-14
  -3.15000005E-02  -3.79788940E-14
  -3.14499997E-02  -1.86670391E-14
  -3.13999988E-02   4.11459976E-15
  -3.13500017E-02   3.93637420E-14
  -3.13000008E-02   9.19374982E-14
  -3.12500000E-02   1.59911038E-13
  -3.11999992E-02   2.34904381E-13
  -3.11500002E-02   3.05419616E-13
  -3.10999993E-02   3.61836537E-13
  -3.10500003E-02   4.00855889E-13
  -3.09999995E-02   4.27297276E-13
  -3.09500005E-02   4.52258809E-13
  -3.08999997E-02   4.88268605E-13
  -3.08500007E-02   5.43492280E-13
  -3.07999998E-02   6.17618153E-13
  -3.07500008E-02   7.01417873E-13
  -3.07000000E-02   7.80393111E-13
  -3.06499992E-02   8.41048151E-13
  -3.06000002E-02   8.77032117E-13
  -3.05499993E-02   8.92297629E-13
  -3.05000003E-02   8.99647923E-13
  -3.04499995E-02   9.15088968E-13
  -3.04000005E-02   9.50369449E-13
  -3.03499997E-02   1.00706271E-12
  -3.03000007E-02   1.07501519E-12
  -3.02499998E-02   1.13612255E-12
  -3.02000009E-02   1.17198569E-12
  -3.01500000E-02   1.17213173E-12
  -3.00999992E-02   1.13904502E-12
  -3.00500002E-02   1.08753328E-12
  -2.99999993E-02   1.03842737E-12
  -2.99500003E-02   1.00923068E-12
  -2.98999995E-02   1.00586011E-12
  -2.98500005E-02   1.01933100E-12
  -2.97999997E-02   1.02914617E-12
  -2.97500007E-02   1.01215499E-12
  -2.96999998E-02   9.53067378E-13
  -2.96500009E-02   8.51869519E-13
  -2.96000000E-02   7.24579576E-13
  -2.95499992E-02   5.96680474E-13
  -2.95000002E-02   4.91895858E-13
  -2.94499993E-02   4.21243634E-13
  -2.94000003E-02   3.77403078E-13
  -2.93499995E-02   3.37228455E-13
  -2.93000005E-02   2.71634901E-13
  -2.92499997E-02   1.58670792E-13
  -2.92000007E-02  -6.05422220E-15
  -2.91499998E-02  -2.06465975E-13
  -2.91000009E-02  -4.12295930E-13
  -2.90500000E-02  -5.92051744E-13
  -2.89999992E-02  -7.27048413E-13
  -2.89500002E-02  -8.20141101E-13
  -2.88999993E-02  -8.94961514E-13
  -2.88500004E-02  -9.85627270E-13
  -2.87999995E-02  -1.12124361E-12
  -2.87500005E-02  -1.31207339E-12
  -2.86999997E-02  -1.54376089E-12
  -2.86500007E-02  -1.78257225E-12
  -2.85999998E-02  -1.98969508E-12
  -2.85500009E-02  -2.13843353E-12
  -2.85000000E-02  -2.22656333E-12
  -2.84499992E-02  -2.27802412E-12
  -2.84000002E-02  -2.33276289E-12
  -2.83499993E-02  -2.42889042E-12
  -2.83000004E-02  -2.58498106E-12
  -2.82499995E-02  -2.79056292E-12
  -2.82000005E-02  -3.00941693E-12
  -2.81499997E-02  -3.19465071E-12
  -2.81000007E-02  -3.30910906E-12
  -2.80499998E-02  -3.34204344E-12
  -2.80000009E-02  -3.31433730E-12
  -2.79500000E-02  -3.26953135E-12
  -2.78999992E-02  -3.25424865E-12
  -2.78500002E-02  -3.29657655E-12
  -2.77999993E-02  -3.39216133E-12
  -2.77500004E-02  -3.50461717E-12
  -2.76999995E-02  -3.58054471E-12
  -2.76500005E-02  -3.57284146E-12
  -2.75999997E-02  -3.46199480E-12
  -2.75500007E-02  -3.26563169E-12
  -2.74999999E-02  -3.03160296E-12
  -2.74500009E-02  -2.81719635E-12
  -2.74000000E-02  -2.66344954E-12
  -2.73499992E-02  -2.57601948E-12
  -2.73000002E-02  -2.52147890E-12
  -2.72499993E-02  -2.44115492E-12
  -2.72000004E-02  -2.27677989E-12
  -2.71499995E-02  -1.99668971E-12
  -2.71000005E-02  -1.61073477E-12
  -2.70499997E-02  -1.16684971E-12
  -2.70000007E-02  -7.30328504E-13
  -2.69499999E-02  -3.54716256E-13
  -2.69000009E-02  -5.72754870E-14
  -2.68500000E-02   1.89720445E-13
  -2.67999992E-02   4.47488319E-13
  -2.67500002E-02   7.83660734E-13
  -2.66999993E-02   1.24147654E-12
  -2.66500004E-02   1.81905966E-12
  -2.65999995E-02   2.46843496E-12
  -2.65500005E-02   3.11524764E-12
  -2.64999997E-02   3.69080721E-12
  -2.64500007E-02   4.16229464E-12
  -2.63999999E-02   4.54744489E-12
  -2.63500009E-02   4.90669311E-12
  -2.63000000E-02   5.31579425E-12
  -2.62499992E-02   5.83083148E-12
  -2.62000002E-02   6.46124387E-12
  -2.61499994E-02   7.16325480E-12
  -2.61000004E-02   7.85713335E-12
  -2.60499995E-02   8.46101227E-12
  -2.60000005E-02   8.92634664E-12
  -2.59499997E-02   9.25898941E-12
  -2.59000007E-02   9.51605808E-12
  -2.58499999E-02   9.77944808E-12
  -2.58000009E-02   1.01175015E-11
  -2.57500000E-02   1.05518910E-11
  -2.56999992E-02   1.10448369E-11
  -2.56500002E-02   1.15128592E-11
  -2.55999994E-02   1.18614172E-11
  -2.55500004E-02   1.20252254E-11
  -2.54999995E-02   1.19961749E-11
  -2.54500005E-02   1.18260480E-11
  -2.53999997E-02   1.16023528E-11
  -2.53500007E-02   1.14077827E-11
  -2.52999999E-02   1.12813344E-11
  -2.52500009E-02   1.11987190E-11
  -2.52000000E-02   1.10812739E-11
  -2.51499992E-02   1.08297798E-11
  -2.51000002E-02   1.03682974E-11
  -2.50499994E-02   9.67831457E-12
  -2.50000004E-02   8.80760742E-12
  -2.49499995E-02   7.84938954E-12
  -2.49000005E-02   6.90078290E-12
  -2.48499997E-02   6.01909234E-12
  -2.48000007E-02   5.19569370E-12
  -2.47499999E-02   4.35958518E-12
  -2.47000009E-02   3.40939863E-12
  -2.46500000E-02   2.25972821E-12
  -2.45999992E-02   8.80942671E-13
  -2.45500002E-02  -6.85611778E-13
  -2.44999994E-02  -2.34417217E-12
  -2.44500004E-02  -3.98565903E-12
  -2.43999995E-02  -5.53489633E-12
  -2.43500005E-02  -6.98247710E-12
  -2.42999997E-02  -8.38668544E-12
  -2.42500007E-02  -9.84429899E-12
  -2.41999999E-02  -1.14433229E-11
  -2.41500009E-02  -1.32190743E-11
  -2.41000000E-02  -1.51336894E-11
  -2.40499992E-02  -1.70886274E-11
  -2.40000002E-02  -1.89647499E-11
  -2.39499994E-02  -2.06718826E-11
  -2.39000004E-02  -2.21853560E-11
  -2.38499995E-02  -2.35527292E-11
  -2.38000005E-02  -2.48675178E-11
  -2.37499997E-02  -2.62217782E-11
  -2.37000007E-02  -2.76591961E-11
  -2.36499999E-02  -2.91501441E-11
  -2.36000009E-02  -3.06002688E-11
  -2.35500000E-02  -3.18886896E-11
  -2.34999992E-02  -3.29183694E-11
  -2.34500002E-02  -3.36554708E-11
  -2.33999994E-02  -3.41395488E-11
  -2.33500004E-02  -3.44599280E-11
  -2.32999995E-02  -3.47091418E-11
  -2.32500006E-02  -3.49350375E-11
  -2.31999997E-02  -3.51138459E-11
  -2.31500007E-02  -3.51567490E-11
  -2.30999999E-02  -3.49470036E-11
  -2.30500009E-02  -3.43903482E-11
  -2.30000000E-02  -3.34553392E-11
  -2.29499992E-02  -3.21847549E-11
  -2.29000002E-02  -3.06728462E-11
  -2.28499994E-02  -2.90191499E-11
  -2.28000004E-02  -2.72806396E-11
  -2.27499995E-02  -2.54447227E-11
  -2.27000006E-02  -2.34358609E-11
  -2.26499997E-02  -2.11526317E-11
  -2.26000007E-02  -1.85176405E-11
  -2.25499999E-02  -1.55165342E-11
  -2.25000009E-02  -1.22074460E-11
  -2.24500000E-02  -8.69627634E-12
  -2.23999992E-02  -5.08952125E-12
  -2.23500002E-02  -1.44730007E-12
  -2.22999994E-02   2.24080346E-12
  -2.22500004E-02   6.04516090E-12
  -2.21999995E-02   1.00555675E-11
  -2.21500006E-02   1.43301274E-11
  -2.20999997E-02   1.88583333E-11
  -2.20500007E-02   2.35563964E-11
  -2.19999999E-02   2.82976906E-11
  -2.19500009E-02   3.29638157E-11
  -2.19000001E-02   3.74915932E-11
  -2.18499992E-02   4.18927219E-11
  -2.18000002E-02   4.62358450E-11
  -2.17499994E-02   5.05990250E-11
  -2.17000004E-02   5.50154818E-11
  -2.16499995E-02   5.94394603E-11
  -2.16000006E-02   6.37500122E-11
  -2.15499997E-02   6.77921747E-11
  -2.15000007E-02   7.14365095E-11
  -2.14499999E-02   7.46282550E-11
  -2.14000009E-02   7.74010717E-11
  -2.13500001E-02   7.98471914E-11
  -2.12999992E-02   8.20569376E-11
  -2.12500002E-02   8.40563591E-11
  -2.11999994E-02   8.57740337E-11
  -2.11500004E-02   8.70551409E-11
  -2.10999995E-02   8.77183257E-11
  -2.10500006E-02   8.76295148E-11
  -2.09999997E-02   8.67570460E-11
  -2.09500007E-02   8.51797868E-11
  -2.08999999E-02   8.30415459E-11
  -2.08500009E-02   8.04714559E-11
  -2.08000001E-02   7.75074865E-11
  -2.07499992E-02   7.40613265E-11
  -2.07000002E-02   6.99446334E-11
  -2.06499994E-02   6.49477833E-11
  -2.06000004E-02   5.89361268E-11
  -2.05499995E-02   5.19179040E-11
  -2.05000006E-02   4.40492400E-11
  -2.04499997E-02   3.55697312E-11
  -2.04000007E-02   2.66956474E-11
  -2.03499999E-02   1.75199300E-11
  -2.03000009E-02   7.96765171E-12
  -2.02500001E-02  -2.16797088E-12
  -2.01999992E-02  -1.31214310E-11
  -2.01500002E-02  -2.50286215E-11
  -2.00999994E-02  -3.78375629E-11
  -2.00500004E-02  -5.13015637E-11
  -1.99999996E-02  -6.50629689E-11
  -1.99500006E-02  -7.87932081E-11
  -1.98999997E-02  -9.23255916E-11
  -1.98500007E-02  -1.05717171E-10
  -1.97999999E-02  -1.19205867E-10
  -1.97500009E-02  -1.33076911E-10
  -1.97000001E-02  -1.47496668E-10
  -1.96499992E-02  -1.62390532E-10
  -1.96000002E-02  -1.77425269E-10
  -1.95499994E-02  -1.92110314E-10
  -1.95000004E-02  -2.05977124E-10
  -1.94499996E-02  -2.18756485E-10
  -1.94000006E-02  -2.30470643E-10
  -1.93499997E-02  -2.41392073E-10
  -1.93000007E-02  -2.51881516E-10
  -1.92499999E-02  -2.62174837E-10
  -1.92000009E-02  -2.72216250E-10
  -1.91500001E-02  -2.81618673E-10
  -1.90999992E-02  -2.89777174E-10
  -1.90500002E-02  -2.96090763E-10
  -1.89999994E-02  -3.00194536E-10
  -1.89500004E-02  -3.02095238E-10
  -1.88999996E-02  -3.02141673E-10
  -1.88500006E-02  -3.00835912E-10
  -1.87999997E-02  -2.98564840E-10
  -1.87500007E-02  -2.95373476E-10
  -1.86999999E-02  -2.90887342E-10
  -1.86500009E-02  -2.84427482E-10
  -1.86000001E-02  -2.75274692E-10
  -1.85499992E-02  -2.62967537E-10
  -1.85000002E-02  -2.47498660E-10
  -1.84499994E-02  -2.29313776E-10
  -1.84000004E-02  -2.09105094E-10
  -1.83499996E-02  -1.87485666E-10
  -1.83000006E-02  -1.64690095E-10
  -1.82499997E-02  -1.40441242E-10
  -1.82000007E-02  -1.14052157E-10
  -1.81499999E-02  -8.47274056E-11
  -1.81000009E-02  -5.19337871E-11
  -1.80500001E-02  -1.56731260E-11
  -1.79999992E-02   2.34728955E-11
  -1.79500002E-02   6.45550141E-11
  -1.78999994E-02   1.06640467E-10
  -1.78500004E-02   1.49198390E-10
  -1.77999996E-02   1.92310223E-10
  -1.77500006E-02   2.36600683E-10
  -1.76999997E-02   2.82910667E-10
  -1.76500008E-02   3.31849881E-10
  -1.75999999E-02   3.83431398E-10
  -1.75500009E-02   4.36956804E-10
  -1.75000001E-02   4.91215402E-10
  -1.74499992E-02   5.44918333E-10
  -1.74000002E-02   5.97176808E-10
  -1.73499994E-02   6.47808862E-10
  -1.73000004E-02   6.97326086E-10
  -1.72499996E-02   7.46595619E-10
  -1.72000006E-02   7.96317845E-10
  -1.71499997E-02   8.46553438E-10
  -1.71000008E-02   8.96516694E-10
  -1.70499999E-02   9.44738510E-10
  -1.70000009E-02   9.89540783E-10
  -1.69500001E-02   1.02961417E-09
  -1.68999992E-02   1.06444298E-09
  -1.68500002E-02   1.09437703E-09
  -1.67999994E-02   1.12030607E-09
  -1.67500004E-02   1.14307230E-09
  -1.66999996E-02   1.16287968E-09
  -1.66500006E-02   1.17896870E-09
  -1.65999997E-02   1.18971533E-09
  -1.65500008E-02   1.19311971E-09
  -1.64999999E-02   1.18748222E-09
  -1.64500009E-02   1.17195764E-09
  -1.64000001E-02   1.14674004E-09
  -1.63499992E-02   1.11277898E-09
  -1.63000003E-02   1.07113884E-09
  -1.62499994E-02   1.02228626E-09
  -1.62000004E-02   9.65625579E-10
  -1.61499996E-02   8.99497532E-10
  -1.61000006E-02   8.21662627E-10
  -1.60499997E-02   7.30059291E-10
  -1.60000008E-02   6.23509189E-10
  -1.59499999E-02   5.02041630E-10
  -1.59000009E-02   3.66687125E-10
  -1.58500001E-02   2.18811025E-10
  -1.57999992E-02   5.92837029E-11
  -1.57500003E-02  -1.12148499E-10
  -1.56999994E-02  -2.96994290E-10
  -1.56500004E-02  -4.97581643E-10
  -1.55999996E-02  -7.16231130E-10
  -1.55499997E-02  -9.54406998E-10
  -1.54999997E-02  -1.21222510E-09
  -1.54499998E-02  -1.48855084E-09
  -1.53999999E-02  -1.78165971E-09
  -1.53500000E-02  -2.09017803E-09
  -1.53000001E-02  -2.41388176E-09
  -1.52500002E-02  -2.75399659E-09
  -1.52000003E-02  -3.11284221E-09
  -1.51500003E-02  -3.49296903E-09
  -1.51000004E-02  -3.89615895E-09
  -1.50499996E-02  -4.32274527E-09
  -1.49999997E-02  -4.77155826E-09
  -1.49499997E-02  -5.24054133E-09
  -1.48999998E-02  -5.72777159E-09
  -1.48499999E-02  -6.23244345E-09
  -1.48000000E-02  -6.75536604E-09
  -1.47500001E-02  -7.29873317E-09
  -1.47000002E-02  -7.86526133E-09
  -1.46500003E-02  -8.45706261E-09
  -1.46000003E-02  -9.07476316E-09
  -1.45500004E-02  -9.71725456E-09
  -1.44999996E-02  -1.03822249E-08
  -1.44499997E-02  -1.10672440E-08
  -1.43999998E-02  -1.17709087E-08
  -1.43499998E-02  -1.24935662E-08
  -1.42999999E-02  -1.32372575E-08
  -1.42500000E-02  -1.40048977E-08
  -1.42000001E-02  -1.47990402E-08
  -1.41500002E-02  -1.56207829E-08
  -1.41000003E-02  -1.64693041E-08
  -1.40500003E-02  -1.73422396E-08
  -1.40000004E-02  -1.82367845E-08
  -1.39499996E-02  -1.91510097E-08
  -1.38999997E-02  -2.00847996E-08
  -1.38499998E-02  -2.10400266E-08
  -1.37999998E-02  -2.20198100E-08
  -1.37499999E-02  -2.30272352E-08
  -1.37000000E-02  -2.40640379E-08
  -1.36500001E-02  -2.51298946E-08
  -1.36000002E-02  -2.62226276E-08
  -1.35500003E-02  -2.73392580E-08
  -1.35000004E-02  -2.84774480E-08
  -1.34500004E-02  -2.96366878E-08
  -1.33999996E-02  -3.08187253E-08
  -1.33499997E-02  -3.20269713E-08
  -1.32999998E-02  -3.32651844E-08
  -1.32499998E-02  -3.45359652E-08
  -1.31999999E-02  -3.58397862E-08
  -1.31500000E-02  -3.71749600E-08
  -1.31000001E-02  -3.85385981E-08
  -1.30500002E-02  -3.99281177E-08
  -1.30000003E-02  -4.13427230E-08
  -1.29500004E-02  -4.27840519E-08
  -1.29000004E-02  -4.42557990E-08
  -1.28499996E-02  -4.57624516E-08
  -1.27999997E-02  -4.73076049E-08
  -1.27499998E-02  -4.88927370E-08
  -1.26999998E-02  -5.05168956E-08
  -1.26499999E-02  -5.21774943E-08
  -1.26000000E-02  -5.38719007E-08
  -1.25500001E-02  -5.55990631E-08
  -1.25000002E-02  -5.73605412E-08
  -1.24500003E-02  -5.91603175E-08
  -1.24000004E-02  -6.10036253E-08
  -1.23500004E-02  -6.28951966E-08
  -1.22999996E-02  -6.48377423E-08
  -1.22499997E-02  -6.68313049E-08
  -1.21999998E-02  -6.88739092E-08
  -1.21499998E-02  -7.09630541E-08
  -1.20999999E-02  -7.30975671E-08
  -1.20500000E-02  -7.52788978E-08
  -1.20000001E-02  -7.75112312E-08
  -1.19500002E-02  -7.98004933E-08
  -1.19000003E-02  -8.21525035E-08
  -1.18500004E-02  -8.45712052E-08
  -1.18000004E-02  -8.70577779E-08
  -1.17499996E-02  -8.96109071E-08
  -1.16999997E-02  -9.22283405E-08
  -1.16499998E-02  -9.49087706E-08
  -1.15999999E-02  -9.76534622E-08
  -1.15499999E-02  -1.00466721E-07
  -1.15000000E-02  -1.03355042E-07
  -1.14500001E-02  -1.06325324E-07
  -1.14000002E-02  -1.09382874E-07
  -1.13500003E-02  -1.12530145E-07
  -1.13000004E-02  -1.15766781E-07
  -1.12500004E-02  -1.19090934E-07
  -1.11999996E-02  -1.22501262E-07
  -1.11499997E-02  -1.25998795E-07
  -1.10999998E-02  -1.29587718E-07
  -1.10499999E-02  -1.33274909E-07
  -1.09999999E-02  -1.37068056E-07
  -1.09500000E-02  -1.40973668E-07
  -1.09000001E-02  -1.44995440E-07
  -1.08500002E-02  -1.49133982E-07
  -1.08000003E-02  -1.53387930E-07
  -1.07500004E-02  -1.57755977E-07
  -1.07000005E-02  -1.62238948E-07
  -1.06499996E-02  -1.66840920E-07
  -1.05999997E-02  -1.71569070E-07
  -1.05499998E-02  -1.76431968E-07
  -1.04999999E-02  -1.81437414E-07
  -1.04499999E-02  -1.86590555E-07
  -1.04000000E-02  -1.91893264E-07
  -1.03500001E-02  -1.97344917E-07
  -1.03000002E-02  -2.02944449E-07
  -1.02500003E-02  -2.08692498E-07
  -1.02000004E-02  -2.14593015E-07
  -1.01500005E-02  -2.20653220E-07
  -1.00999996E-02  -2.26882335E-07
  -1.00499997E-02  -2.33289271E-07
  -9.99999978E-03  -2.39880563E-07
  -9.94999986E-03  -2.46659425E-07
  -9.89999995E-03  -2.53626098E-07
  -9.85000003E-03  -2.60779927E-07
  -9.80000012E-03  -2.68121568E-07
  -9.75000020E-03  -2.75654855E-07
  -9.70000029E-03  -2.83387180E-07
  -9.65000037E-03  -2.91328377E-07
  -9.60000046E-03  -2.99488704E-07
  -9.54999961E-03  -3.07876348E-07
  -9.49999969E-03  -3.16496198E-07
  -9.44999978E-03  -3.25349902E-07
  -9.39999986E-03  -3.34437772E-07
  -9.34999995E-03  -3.43760831E-07
  -9.30000003E-03  -3.53323117E-07
  -9.25000012E-03  -3.63132415E-07
  -9.20000020E-03  -3.73199327E-07
  -9.15000029E-03  -3.83535394E-07
  -9.10000037E-03  -3.94150447E-07
  -9.05000046E-03  -4.05051082E-07
  -8.99999961E-03  -4.16240539E-07
  -8.94999970E-03  -4.27720124E-07
  -8.89999978E-03  -4.39491430E-07
  -8.84999987E-03  -4.51558719E-07
  -8.79999995E-03  -4.63930064E-07
  -8.75000004E-03  -4.76616748E-07
  -8.70000012E-03  -4.89631589E-07
  -8.65000021E-03  -5.02986154E-07
  -8.60000029E-03  -5.16689227E-07
  -8.55000038E-03  -5.30746263E-07
  -8.50000046E-03  -5.45160049E-07
  -8.44999962E-03  -5.59933540E-07
  -8.39999970E-03  -5.75071795E-07
  -8.34999979E-03  -5.90583795E-07
  -8.29999987E-03  -6.06481990E-07
  -8.24999996E-03  -6.22780703E-07
  -8.20000004E-03  -6.39493692E-07
  -8.15000013E-03  -6.56632210E-07
  -8.10000021E-03  -6.74203932E-07
  -8.05000030E-03  -6.92213803E-07
  -8.00000038E-03  -7.10666200E-07
  -7.95000046E-03  -7.29567319E-07
  -7.89999962E-03  -7.48926823E-07
  -7.84999970E-03  -7.68758241E-07
  -7.79999979E-03  -7.89077262E-07
  -7.74999987E-03  -8.09899575E-07
  -7.69999996E-03  -8.31238594E-07
  -7.65000004E-03  -8.53104325E-07
  -7.60000013E-03  -8.75504043E-07
  -7.55000021E-03  -8.98443943E-07
  -7.49999983E-03  -9.21931701E-07
  -7.44999992E-03  -9.45978286E-07
  -7.40000000E-03  -9.70598535E-07
  -7.35000009E-03  -9.95810183E-07
  -7.30000017E-03  -1.02163108E-06
  -7.24999979E-03  -1.04807737E-06
  -7.19999988E-03  -1.07516178E-06
  -7.14999996E-03  -1.10289432E-06
  -7.10000005E-03  -1.13128351E-06
  -7.05000013E-03  -1.16033914E-06
  -7.00000022E-03  -1.19007393E-06
  -6.94999984E-03  -1.22050426E-06
  -6.89999992E-03  -1.25164934E-06
  -6.85000001E-03  -1.28352963E-06
  -6.80000009E-03  -1.31616366E-06
  -6.75000018E-03  -1.34956679E-06
  -6.69999979E-03  -1.38375196E-06
  -6.64999988E-03  -1.41873022E-06
  -6.59999996E-03  -1.45451315E-06
  -6.55000005E-03  -1.49111531E-06
  -6.50000013E-03  -1.52855500E-06
  -6.45000022E-03  -1.56685314E-06
  -6.39999984E-03  -1.60603201E-06
  -6.34999992E-03  -1.64611299E-06
  -6.30000001E-03  -1.68711426E-06
  -6.25000009E-03  -1.72905209E-06
  -6.20000018E-03  -1.77193999E-06
  -6.14999980E-03  -1.81579264E-06
  -6.09999988E-03  -1.86062675E-06
  -6.04999997E-03  -1.90646290E-06
  -6.00000005E-03  -1.95332473E-06
  -5.95000014E-03  -2.00123623E-06
  -5.90000022E-03  -2.05022207E-06
  -5.84999984E-03  -2.10030339E-06
  -5.79999993E-03  -2.15149998E-06
  -5.75000001E-03  -2.20382890E-06
  -5.70000010E-03  -2.25730764E-06
  -5.65000018E-03  -2.31195531E-06
  -5.59999980E-03  -2.36779533E-06
  -5.54999989E-03  -2.42485339E-06
  -5.49999997E-03  -2.48315632E-06
  -5.45000006E-03  -2.54273141E-06
  -5.40000014E-03  -2.60360275E-06
  -5.35000023E-03  -2.66579355E-06
  -5.29999984E-03  -2.72932402E-06
  -5.24999993E-03  -2.79421511E-06
  -5.20000001E-03  -2.86048976E-06
  -5.15000010E-03  -2.92817322E-06
  -5.10000018E-03  -2.99729436E-06
  -5.04999980E-03  -3.06788297E-06
  -4.99999989E-03  -3.13996929E-06
  -4.94999997E-03  -3.21358220E-06
  -4.90000006E-03  -3.28874739E-06
  -4.85000014E-03  -3.36549010E-06
  -4.80000023E-03  -3.44383443E-06
  -4.74999985E-03  -3.52380675E-06
  -4.69999993E-03  -3.60543640E-06
  -4.65000002E-03  -3.68875567E-06
  -4.60000010E-03  -3.77379774E-06
  -4.55000019E-03  -3.86059628E-06
  -4.49999981E-03  -3.94918334E-06
  -4.44999989E-03  -4.03958848E-06
  -4.39999998E-03  -4.13184125E-06
  -4.35000006E-03  -4.22596941E-06
  -4.30000015E-03  -4.32200386E-06
  -4.25000023E-03  -4.41997599E-06
  -4.19999985E-03  -4.51992219E-06
  -4.14999994E-03  -4.62187973E-06
  -4.10000002E-03  -4.72588499E-06
  -4.05000011E-03  -4.83197528E-06
  -4.00000019E-03  -4.94018377E-06
  -3.94999981E-03  -5.05054277E-06
  -3.89999989E-03  -5.16308546E-06
  -3.84999998E-03  -5.27784550E-06
  -3.80000006E-03  -5.39486018E-06
  -3.74999992E-03  -5.51416997E-06
  -3.70000000E-03  -5.63581489E-06
  -3.65000009E-03  -5.75983813E-06
  -3.59999994E-03  -5.88627881E-06
  -3.55000002E-03  -6.01517468E-06
  -3.50000011E-03  -6.14656301E-06
  -3.44999996E-03  -6.28048156E-06
  -3.40000005E-03  -6.41696852E-06
  -3.34999990E-03  -6.55606345E-06
  -3.29999998E-03  -6.69781139E-06
  -3.25000007E-03  -6.84225733E-06
  -3.19999992E-03  -6.98944723E-06
  -3.15000000E-03  -7.13942427E-06
  -3.10000009E-03  -7.29223211E-06
  -3.04999994E-03  -7.44791078E-06
  -3.00000003E-03  -7.60650119E-06
  -2.95000011E-03  -7.76804609E-06
  -2.89999996E-03  -7.93258823E-06
  -2.85000005E-03  -8.10017627E-06
  -2.79999990E-03  -8.27086114E-06
  -2.74999999E-03  -8.44469196E-06
  -2.70000007E-03  -8.62171692E-06
  -2.64999992E-03  -8.80198331E-06
  -2.60000001E-03  -8.98553481E-06
  -2.55000009E-03  -9.17241596E-06
  -2.49999994E-03  -9.36267224E-06
  -2.45000003E-03  -9.55635278E-06
  -2.40000011E-03  -9.75351031E-06
  -2.34999997E-03  -9.95419941E-06
  -2.30000005E-03  -1.01584728E-05
  -2.24999990E-03  -1.03663833E-05
  -2.19999999E-03  -1.05779800E-05
  -2.15000007E-03  -1.07933092E-05
  -2.09999993E-03  -1.10124201E-05
  -2.05000001E-03  -1.12353609E-05
  -2.00000009E-03  -1.14621835E-05
  -1.94999995E-03  -1.16929423E-05
  -1.90000003E-03  -1.19276965E-05
  -1.85000000E-03  -1.21665034E-05
  -1.79999997E-03  -1.24094176E-05
  -1.75000005E-03  -1.26564928E-05
  -1.70000002E-03  -1.29077762E-05
  -1.64999999E-03  -1.31633205E-05
  -1.59999996E-03  -1.34231750E-05
  -1.55000004E-03  -1.36873959E-05
  -1.50000001E-03  -1.39560416E-05
  -1.44999998E-03  -1.42291710E-05
  -1.39999995E-03  -1.45068470E-05
  -1.35000004E-03  -1.47891278E-05
  -1.30000000E-03  -1.50760661E-05
  -1.24999997E-03  -1.53677138E-05
  -1.20000006E-03  -1.56641217E-05
  -1.15000003E-03  -1.59653446E-05
  -1.09999999E-03  -1.62714350E-05
  -1.04999996E-03  -1.65824549E-05
  -1.00000005E-03  -1.68984698E-05
  -9.50000016E-04  -1.72195414E-05
  -8.99999985E-04  -1.75457299E-05
  -8.50000011E-04  -1.78770933E-05
  -7.99999980E-04  -1.82136810E-05
  -7.50000007E-04  -1.85555436E-05
  -6.99999975E-04  -1.89027305E-05
  -6.50000002E-04  -1.92553016E-05
  -6.00000028E-04  -1.96133224E-05
  -5.49999997E-04  -1.99768529E-05
  -5.00000024E-04  -2.03459567E-05
  -4.49999992E-04  -2.07206976E-05
  -3.99999990E-04  -2.11011284E-05
  -3.49999988E-04  -2.14873035E-05
  -3.00000014E-04  -2.18792684E-05
  -2.50000012E-04  -2.22770777E-05
  -1.99999995E-04  -2.26807879E-05
  -1.50000007E-04  -2.30904589E-05
  -9.99999975E-05  -2.35061561E-05
  -4.99999987E-05  -2.39279416E-05
   0.00000000      -2.43558788E-05
   4.99999987E-05  -2.47900207E-05
   9.99999975E-05  -2.52304144E-05
   1.50000007E-04  -2.56771109E-05
   1.99999995E-04  -2.61301593E-05
   2.50000012E-04  -2.65896106E-05
   3.00000014E-04  -2.70555247E-05
   3.49999988E-04  -2.75279654E-05
   3.99999990E-04  -2.80069926E-05
   4.49999992E-04  -2.84926609E-05
   5.00000024E-04  -2.89850213E-05
   5.49999997E-04  -2.94841193E-05
   6.00000028E-04  -2.99900039E-05
   6.50000002E-04  -3.05027188E-05
   6.99999975E-04  -3.10223149E-05
   7.50000007E-04  -3.15488360E-05
   7.99999980E-04  -3.20823456E-05
   8.50000011E-04  -3.26228983E-05
   8.99999985E-04  -3.31705487E-05
   9.50000016E-04  -3.37253477E-05
   1.00000005E-03  -3.42873354E-05
   1.04999996E-03  -3.48565482E-05
   1.09999999E-03  -3.54330259E-05
   1.15000003E-03  -3.60168051E-05
   1.20000006E-03  -3.66079294E-05
   1.24999997E-03  -3.72064496E-05
   1.30000000E-03  -3.78124168E-05
   1.35000004E-03  -3.84258856E-05
   1.39999995E-03  -3.90469031E-05
   1.44999998E-03  -3.96754876E-05
   1.50000001E-03  -4.03116683E-05
   1.55000004E-03  -4.09554741E-05
   1.59999996E-03  -4.16069379E-05
   1.64999999E-03  -4.22660924E-05
   1.70000002E-03  -4.29329812E-05
   1.75000005E-03  -4.36076443E-05
   1.79999997E-03  -4.42901219E-05
   1.85000000E-03  -4.49804465E-05
   1.90000003E-03  -4.56786292E-05
   1.94999995E-03  -4.63846991E-05
   2.00000009E-03  -4.70986633E-05
   2.05000001E-03  -4.78205366E-05
   2.09999993E-03  -4.85503479E-05
   2.15000007E-03  -4.92881263E-05
   2.19999999E-03  -5.00338974E-05
   2.24999990E-03  -5.07876866E-05
   2.30000005E-03  -5.15495158E-05
   2.34999997E-03  -5.23193994E-05
   2.40000011E-03  -5.30973266E-05
   2.45000003E-03  -5.38832974E-05
   2.49999994E-03  -5.46773081E-05
   2.55000009E-03  -5.54793769E-05
   2.60000001E-03  -5.62895038E-05
   2.64999992E-03  -5.71077071E-05
   2.70000007E-03  -5.79339903E-05
   2.74999999E-03  -5.87683717E-05
   2.79999990E-03  -5.96108293E-05