  -3.99999991E-02   0.00000000    
  -3.99499983E-02   0.00000000    
  -3.99000011E-02   0.00000000    
  -3.98500003E-02   0.00000000    
  -3.97999994E-02   0.00000000    
  -3.97499986E-02  -4.90560625E-20
  -3.97000015E-02  -3.77662905E-19
  -3.96500006E-02  -1.51393026E-18
  -3.95999998E-02  -4.24637427E-18
  -3.95499989E-02  -9.52373488E-18
  -3.95000018E-02  -1.85642888E-17
  -3.94500010E-02  -3.31176714E-17
  -3.94000001E-02  -5.52292646E-17
  -3.93499993E-02  -8.59857158E-17
  -3.92999984E-02  -1.23955834E-16
  -3.92500013E-02  -1.65126969E-16
  -3.92000005E-02  -2.05333280E-16
  -3.91499996E-02  -2.43683941E-16
  -3.90999988E-02  -2.83947679E-16
  -3.90500017E-02  -3.32389943E-16
  -3.90000008E-02  -3.93870903E-16
  -3.89500000E-02  -4.69352179E-16
  -3.88999991E-02  -5.55731117E-16
  -3.88499983E-02  -6.46075598E-16
  -3.88000011E-02  -7.28873545E-16
  -3.87500003E-02  -7.88339970E-16
  -3.86999995E-02  -8.08976180E-16
  -3.86499986E-02  -7.83251525E-16
  -3.86000015E-02  -7.15530553E-16
  -3.85500006E-02  -6.15911273E-16
  -3.84999998E-02  -4.86125073E-16
  -3.84499989E-02  -3.08018793E-16
  -3.84000018E-02  -4.39036400E-17
  -3.83500010E-02   3.52264115E-16
  -3.83000001E-02   9.22399927E-16
  -3.82499993E-02   1.69784536E-15
  -3.81999984E-02   2.69741136E-15
  -3.81500013E-02   3.92474410E-15
  -3.81000005E-02   5.36615574E-15
  -3.80499996E-02   6.99686484E-15
  -3.79999988E-02   8.79902654E-15
  -3.79500017E-02   1.07812564E-14
  -3.79000008E-02   1.29825570E-14
  -3.78500000E-02   1.54547768E-14
  -3.77999991E-02   1.82373732E-14
  -3.77499983E-02   2.13452946E-14
  -3.77000012E-02   2.47764320E-14
  -3.76500003E-02   2.85251999E-14
  -3.75999995E-02   3.25855642E-14
  -3.75499986E-02   3.69430506E-14
  -3.75000015E-02   4.15703306E-14
  -3.74500006E-02   4.64356913E-14
  -3.73999998E-02   5.15149480E-14
  -3.73499990E-02   5.67888394E-14
  -3.73000018E-02   6.22227964E-14
  -3.72500010E-02   6.77461559E-14
  -3.72000001E-02   7.32485090E-14
  -3.71499993E-02   7.85896684E-14
  -3.70999984E-02   8.36037714E-14
  -3.70500013E-02   8.80896240E-14
  -3.70000005E-02   9.18077802E-14
  -3.69499996E-02   9.45135422E-14
  -3.68999988E-02   9.60266412E-14
  -3.68500017E-02   9.62963230E-14
  -3.68000008E-02   9.54104891E-14
  -3.67500000E-02   9.35315329E-14
  -3.66999991E-02   9.07896466E-14
  -3.66499983E-02   8.71839967E-14
  -3.66000012E-02   8.25266233E-14
  -3.65500003E-02   7.64413963E-14
  -3.64999995E-02   6.84230437E-14
  -3.64499986E-02   5.79571520E-14
  -3.64000015E-02   4.46752620E-14
  -3.63500006E-02   2.84743373E-14
  -3.62999998E-02   9.51509294E-15
  -3.62499990E-02  -1.19319812E-14
  -3.62000018E-02  -3.57218392E-14
  -3.61500010E-02  -6.20080566E-14
  -3.61000001E-02  -9.12320892E-14
  -3.60499993E-02  -1.23911013E-13
  -3.59999985E-02  -1.60319688E-13
  -3.59500013E-02  -2.00217420E-13
  -3.59000005E-02  -2.42752866E-13
  -3.58499996E-02  -2.86619713E-13
  -3.57999988E-02  -3.30451297E-13
  -3.57500017E-02  -3.73339245E-13
  -3.57000008E-02  -4.15257997E-13
  -3.56500000E-02  -4.57149672E-13
  -3.55999991E-02  -5.00528384E-13
  -3.55499983E-02  -5.46703579E-13
  -3.55000012E-02  -5.95957799E-13
  -3.54500003E-02  -6.47095984E-13
  -3.53999995E-02  -6.97634387E-13
  -3.53499986E-02  -7.44598719E-13
  -3.53000015E-02  -7.85602106E-13
  -3.52500007E-02  -8.19735881E-13
  -3.51999998E-02  -8.47849839E-13
  -3.51499990E-02  -8.72024620E-13
  -3.51000018E-02  -8.94366016E-13
  -3.50500010E-02  -9.15590412E-13
  -3.50000001E-02  -9.34063048E-13
  -3.49499993E-02  -9.45854506E-13
  -3.48999985E-02  -9.45953168E-13
  -3.48500013E-02  -9.30184640E-13
  -3.48000005E-02  -8.96960512E-13
  -3.47499996E-02  -8.47970728E-13
  -3.46999988E-02  -7.87385131E-13
  -3.46500017E-02  -7.19828385E-13
  -3.46000008E-02  -6.47990342E-13
  -3.45500000E-02  -5.70965909E-13
  -3.44999991E-02  -4.84176880E-13
  -3.44499983E-02  -3.81088444E-13
  -3.44000012E-02  -2.56120293E-13
  -3.43500003E-02  -1.07494038E-13
  -3.42999995E-02   6.13957534E-14
  -3.42499986E-02   2.42965560E-13
  -3.42000015E-02   4.28587585E-13
  -3.41500007E-02   6.12573577E-13
  -3.40999998E-02   7.95100693E-13
  -3.40499990E-02   9.82522765E-13
  -3.40000018E-02   1.18465925E-12
  -3.39500010E-02   1.41007084E-12
  -3.39000002E-02   1.66136733E-12
  -3.38499993E-02   1.93274238E-12
  -3.37999985E-02   2.21110305E-12
  -3.37500013E-02   2.48063961E-12
  -3.37000005E-02   2.72904963E-12
  -3.36499996E-02   2.95264724E-12
  -3.35999988E-02   3.15780149E-12
  -3.35500017E-02   3.35763969E-12
  -3.35000008E-02   3.56517745E-12
  -3.34500000E-02   3.78588176E-12
  -3.33999991E-02   4.01321424E-12
  -3.33499983E-02   4.22952992E-12
  -3.33000012E-02   4.41231296E-12
  -3.32500003E-02   4.54321606E-12
  -3.31999995E-02   4.61587756E-12
  -3.31499986E-02   4.63877591E-12
  -3.31000015E-02   4.63138469E-12
  -3.30500007E-02   4.61486144E-12
  -3.29999998E-02   4.60117448E-12
  -3.29499990E-02   4.58567863E-12
  -3.29000019E-02   4.54697738E-12
  -3.28500010E-02   4.45470917E-12
  -3.28000002E-02   4.28216317E-12
  -3.27499993E-02   4.01805455E-12
  -3.26999985E-02   3.67180938E-12
  -3.26500013E-02   3.26948061E-12
  -3.26000005E-02   2.84168414E-12
  -3.25499997E-02   2.40876481E-12
  -3.24999988E-02   1.97003481E-12
  -3.24500017E-02   1.50245734E-12
  -3.24000008E-02   9.70121010E-13
  -3.23500000E-02   3.40883842E-13
  -3.22999991E-02  -3.97117208E-13
  -3.22499983E-02  -1.22696287E-12
  -3.22000012E-02  -2.10715299E-12
  -3.21500003E-02  -2.98750781E-12
  -3.20999995E-02  -3.83008902E-12
  -3.20499986E-02  -4.62562280E-12
  -3.20000015E-02  -5.39745028E-12
  -3.19500007E-02  -6.19043141E-12
  -3.18999998E-02  -7.04910392E-12
  -3.18499990E-02  -7.99459283E-12
  -3.18000019E-02  -9.01085890E-12
  -3.17500010E-02  -1.00471905E-11
  -3.17000002E-02  -1.10367800E-11
  -3.16499993E-02  -1.19237493E-11
  -3.15999985E-02  -1.26865523E-11
  -3.15500014E-02  -1.33465365E-11
  -3.15000005E-02  -1.39568530E-11
  -3.14499997E-02  -1.45757642E-11
  -3.13999988E-02  -1.52361179E-11
  -3.13500017E-02  -1.59250217E-11
  -3.13000008E-02  -1.65838194E-11
  -3.12500000E-02  -1.71292980E-11
  -3.11999992E-02  -1.74873657E-11
  -3.11500002E-02  -1.76243412E-11
  -3.10999993E-02  -1.75612511E-11
  -3.10500003E-02  -1.73638031E-11
  -3.09999995E-02  -1.71113783E-11
  -3.09500005E-02  -1.68583932E-11
  -3.08999997E-02  -1.66055850E-11
  -3.08500007E-02  -1.62952221E-11
  -3.07999998E-02  -1.58336382E-11
  -3.07500008E-02  -1.51318073E-11
  -3.07000000E-02  -1.41458832E-11
  -3.06499992E-02  -1.28987897E-11
  -3.06000002E-02  -1.14720889E-11
  -3.05499993E-02  -9.97066318E-12
  -3.05000003E-02  -8.47534369E-12
  -3.04499995E-02  -7.00479475E-12
  -3.04000005E-02  -5.50468395E-12
  -3.03499997E-02  -3.87044173E-12
  -3.03000007E-02  -1.99481555E-12
  -3.02499998E-02   1.80499821E-13
  -3.02000009E-02   2.63280738E-12
  -3.01500000E-02   5.26160192E-12
  -3.00999992E-02   7.92703316E-12
  -3.00500002E-02   1.05072912E-11
  -2.99999993E-02   1.29492823E-11
  -2.99500003E-02   1.52891658E-11
  -2.98999995E-02   1.76324476E-11
  -2.98500005E-02   2.01013928E-11
  -2.97999997E-02   2.27726570E-11
  -2.97500007E-02   2.56332039E-11
  -2.96999998E-02   2.85753209E-11
  -2.96500009E-02   3.14345078E-11
  -2.96000000E-02   3.40546306E-11
  -2.95499992E-02   3.63515468E-11
  -2.95000002E-02   3.83460416E-11
  -2.94499993E-02   4.01499806E-11
  -2.94000003E-02   4.19106555E-11
  -2.93499995E-02   4.37374442E-11
  -2.93000005E-02   4.56437631E-11
  -2.92499997E-02   4.75310485E-11
  -2.92000007E-02   4.92229799E-11
  -2.91499998E-02   5.05357180E-11
  -2.91000009E-02   5.13534423E-11
  -2.90500000E-02   5.16750462E-11
  -2.89999992E-02   5.16100947E-11
  -2.89500002E-02   5.13243718E-11
  -2.88999993E-02   5.09584597E-11
  -2.88500004E-02   5.05557957E-11
  -2.87999995E-02   5.00336161E-11
  -2.87500005E-02   4.92113086E-11
  -2.86999997E-02   4.78849044E-11
  -2.86500007E-02   4.59150877E-11
  -2.85999998E-02   4.32894068E-11
  -2.85500009E-02   4.01299514E-11
  -2.85000000E-02   3.66417244E-11
  -2.84499992E-02   3.30233375E-11
  -2.84000002E-02   2.93789090E-11
  -2.83499993E-02   2.56707433E-11
  -2.83000004E-02   2.17350374E-11
  -2.82499995E-02   1.73553012E-11
  -2.82000005E-02   1.23619708E-11
  -2.81499997E-02   6.71408545E-12
  -2.81000007E-02   5.26027464E-13
  -2.80499998E-02  -5.97369636E-12
  -2.80000009E-02  -1.25343728E-11
  -2.79500000E-02  -1.89854920E-11
  -2.78999992E-02  -2.53042379E-11
  -2.78500002E-02  -3.16174101E-11
  -2.77999993E-02  -3.81357203E-11
  -2.77500004E-02  -4.50481839E-11
  -2.76999995E-02  -5.24226912E-11
  -2.76500005E-02  -6.01570183E-11
  -2.75999997E-02  -6.80033252E-11
  -2.75500007E-02  -7.56566962E-11
  -2.74999999E-02  -8.28698013E-11
  -2.74500009E-02  -8.95433450E-11
  -2.74000000E-02  -9.57518093E-11
  -2.73499992E-02  -1.01692356E-10
  -2.73000002E-02  -1.07578439E-10
  -2.72499993E-02  -1.13524704E-10
  -2.72000004E-02  -1.19474014E-10
  -2.71499995E-02  -1.25199143E-10
  -2.71000005E-02  -1.30380193E-10
  -2.70499997E-02  -1.34724648E-10
  -2.70000007E-02  -1.38078535E-10
  -2.69499999E-02  -1.40478740E-10
  -2.69000009E-02  -1.42122647E-10
  -2.68500000E-02  -1.43266329E-10
  -2.67999992E-02  -1.44094930E-10
  -2.67500002E-02  -1.44622772E-10
  -2.66999993E-02  -1.44667653E-10
  -2.66500004E-02  -1.43912438E-10
  -2.65999995E-02  -1.42028514E-10
  -2.65500005E-02  -1.38808673E-10
  -2.64999997E-02  -1.34251429E-10
  -2.64500007E-02  -1.28559094E-10
  -2.63999999E-02  -1.22048482E-10
  -2.63500009E-02  -1.15010980E-10
  -2.63000000E-02  -1.07582415E-10
  -2.62499992E-02  -9.96797575E-11
  -2.62000002E-02  -9.10346729E-11
  -2.61499994E-02  -8.13118253E-11
  -2.61000004E-02  -7.02619421E-11
  -2.60499995E-02  -5.78432163E-11
  -2.60000005E-02  -4.42574380E-11
  -2.59499997E-02  -2.98830578E-11
  -2.59000007E-02  -1.51320675E-11
  -2.58499999E-02  -2.91165068E-13
  -2.58000009E-02   1.45843372E-11
  -2.57500000E-02   2.96762441E-11
  -2.56999992E-02   4.53036463E-11
  -2.56500002E-02   6.17581264E-11
  -2.55999994E-02   7.91446075E-11
  -2.55500004E-02   9.72980863E-11
  -2.54999995E-02   1.15814941E-10
  -2.54500005E-02   1.34188202E-10
  -2.53999997E-02   1.51989837E-10
  -2.53500007E-02   1.69020811E-10
  -2.52999999E-02   1.85362406E-10
  -2.52500009E-02   2.01303890E-10
  -2.52000000E-02   2.17175111E-10
  -2.51499992E-02   2.33155661E-10
  -2.51000002E-02   2.49143761E-10
  -2.50499994E-02   2.64745947E-10
  -2.50000004E-02   2.79396312E-10
  -2.49499995E-02   2.92557700E-10
  -2.49000005E-02   3.03918668E-10
  -2.48499997E-02   3.13497478E-10
  -2.48000007E-02   3.21604798E-10
  -2.47499999E-02   3.28676364E-10
  -2.47000009E-02   3.35047101E-10
  -2.46500000E-02   3.40764222E-10
  -2.45999992E-02   3.45523998E-10
  -2.45500002E-02   3.48764129E-10
  -2.44999994E-02   3.49876572E-10
  -2.44500004E-02   3.48450602E-10
  -2.43999995E-02   3.44439366E-10
  -2.43500005E-02   3.38172296E-10
  -2.42999997E-02   3.30202893E-10
  -2.42500007E-02   3.21053906E-10
  -2.41999999E-02   3.10970749E-10
  -2.41500009E-02   2.99794606E-10
  -2.41000000E-02   2.87015606E-10
  -2.40499992E-02   2.71989403E-10
  -2.40000002E-02   2.54225196E-10
  -2.39499994E-02   2.33619152E-10
  -2.39000004E-02   2.10528164E-10
  -2.38499995E-02   1.85645679E-10
  -2.38000005E-02   1.59728716E-10
  -2.37499997E-02   1.33292530E-10
  -2.37000007E-02   1.06408729E-10
  -2.36499999E-02   7.87006293E-11
  -2.36000009E-02   4.95440217E-11
  -2.35500000E-02   1.83885910E-11
  -2.34999992E-02  -1.49411108E-11
  -2.34500002E-02  -5.01019816E-11
  -2.33999994E-02  -8.63148233E-11
  -2.33500004E-02  -1.22641883E-10
  -2.32999995E-02  -1.58339938E-10
  -2.32500006E-02  -1.93131885E-10
  -2.31999997E-02  -2.27272853E-10
  -2.31500007E-02  -2.61374700E-10
  -2.30999999E-02  -2.96060981E-10
  -2.30500009E-02  -3.31603911E-10
  -2.30000000E-02  -3.67707115E-10
  -2.29499992E-02  -4.03537953E-10
  -2.29000002E-02  -4.38002468E-10
  -2.28499994E-02  -4.70145367E-10
  -2.28000004E-02  -4.99497277E-10
  -2.27499995E-02  -5.26210908E-10
  -2.27000006E-02  -5.50920087E-10
  -2.26499997E-02  -5.74378267E-10
  -2.26000007E-02  -5.97035033E-10
  -2.25499999E-02  -6.18740281E-10
  -2.25000009E-02  -6.38714304E-10
  -2.24500000E-02  -6.55805799E-10
  -2.23999992E-02  -6.68929578E-10
  -2.23500002E-02  -6.77490175E-10
  -2.22999994E-02  -6.81601275E-10
  -2.22500004E-02  -6.81994072E-10
  -2.21999995E-02  -6.79651890E-10
  -2.21500006E-02  -6.75328626E-10
  -2.20999997E-02  -6.69166111E-10
  -2.20500007E-02  -6.60586141E-10
  -2.19999999E-02  -6.48511078E-10
  -2.19500009E-02  -6.31819486E-10
  -2.19000001E-02  -6.09837403E-10
  -2.18499992E-02  -5.82643656E-10
  -2.18000002E-02  -5.51047541E-10
  -2.17499994E-02  -5.16244492E-10
  -2.17000004E-02  -4.79297657E-10
  -2.16499995E-02  -4.40679743E-10
  -2.16000006E-02  -4.00083328E-10
  -2.15499997E-02  -3.56590618E-10
  -2.15000007E-02  -3.09131942E-10
  -2.14499999E-02  -2.57029509E-10
  -2.14000009E-02  -2.00381559E-10
  -2.13500001E-02  -1.40110062E-10
  -2.12999992E-02  -7.76450640E-11
  -2.12500002E-02  -1.43827467E-11
  -2.11999994E-02   4.88412435E-11
  -2.11500004E-02   1.12024397E-10
  -2.10999995E-02   1.75889456E-10
  -2.10500006E-02   2.41439063E-10
  -2.09999997E-02   3.09370835E-10
  -2.09500007E-02   3.79617421E-10
  -2.08999999E-02   4.51222587E-10
  -2.08500009E-02   5.22615007E-10
  -2.08000001E-02   5.92160432E-10
  -2.07499992E-02   6.58747168E-10
  -2.07000002E-02   7.22138183E-10
  -2.06499994E-02   7.82929221E-10
  -2.06000004E-02   8.42126036E-10
  -2.05499995E-02   9.00529262E-10
  -2.05000006E-02   9.58200741E-10
  -2.04499997E-02   1.01425701E-09
  -2.04000007E-02   1.06708697E-09
  -2.03499999E-02   1.11490206E-09
  -2.03000009E-02   1.15637422E-09
  -2.02500001E-02   1.19107635E-09
  -2.01999992E-02   1.21952404E-09
  -2.01500002E-02   1.24279975E-09
  -2.00999994E-02   1.26192334E-09
  -2.00500004E-02   1.27725508E-09
  -1.99999996E-02   1.28819788E-09
  -1.99500006E-02   1.29333599E-09
  -1.98999997E-02   1.29094835E-09
  -1.98500007E-02   1.27966870E-09
  -1.97999999E-02   1.25899569E-09
  -1.97500009E-02   1.22942101E-09
  -1.97000001E-02   1.19211718E-09
  -1.96499992E-02   1.14832455E-09
  -1.96000002E-02   1.09871323E-09
  -1.95499994E-02   1.04301157E-09
  -1.95000004E-02   9.80067028E-10
  -1.94499996E-02   9.08314701E-10
  -1.94000006E-02   8.26442748E-10
  -1.93499997E-02   7.33953232E-10
  -1.93000007E-02   6.31367236E-10
  -1.92499999E-02   5.19978893E-10
  -1.92000009E-02   4.01271544E-10
  -1.91500001E-02   2.76253798E-10
  -1.90999992E-02   1.45019038E-10
  -1.90500002E-02   6.72734221E-12
  -1.89999994E-02  -1.39981166E-10
  -1.89500004E-02  -2.96328434E-10
  -1.88999996E-02  -4.62793442E-10
  -1.88500006E-02  -6.38833986E-10
  -1.87999997E-02  -8.23060842E-10
  -1.87500007E-02  -1.01378839E-09
  -1.86999999E-02  -1.20971300E-09
  -1.86500009E-02  -1.41041734E-09
  -1.86000001E-02  -1.61647229E-09
  -1.85499992E-02  -1.82909221E-09
  -1.85000002E-02  -2.04949724E-09
  -1.84499994E-02  -2.27827357E-09
  -1.84000004E-02  -2.51501353E-09
  -1.83499996E-02  -2.75839973E-09
  -1.83000006E-02  -3.00669423E-09
  -1.82499997E-02  -3.25841465E-09
  -1.82000007E-02  -3.51288776E-09
  -1.81499999E-02  -3.77043818E-09
  -1.81000009E-02  -4.03213285E-09
  -1.80500001E-02  -4.29919433E-09
  -1.79999992E-02  -4.57235005E-09
  -1.79500002E-02  -4.85141038E-09
  -1.78999994E-02  -5.13526466E-09
  -1.78500004E-02  -5.42229861E-09
  -1.77999996E-02  -5.71103964E-09
  -1.77500006E-02  -6.00073458E-09
  -1.76999997E-02  -6.29161878E-09
  -1.76500008E-02  -6.58474208E-09
  -1.75999999E-02  -6.88144786E-09
  -1.75500009E-02  -7.18273263E-09
  -1.75000001E-02  -7.48877671E-09
  -1.74499992E-02  -7.79885845E-09
  -1.74000002E-02  -8.11168288E-09
  -1.73499994E-02  -8.42598258E-09
  -1.73000004E-02  -8.74109940E-09
  -1.72499996E-02  -9.05730246E-09
  -1.72000006E-02  -9.37569311E-09
  -1.71499997E-02  -9.69773861E-09
  -1.71000008E-02  -1.00246629E-08
  -1.70499999E-02  -1.03569437E-08
  -1.70000009E-02  -1.06941638E-08
  -1.69500001E-02  -1.10352714E-08
  -1.68999992E-02  -1.13791385E-08
  -1.68500002E-02  -1.17251675E-08
  -1.67999994E-02  -1.20736585E-08
  -1.67500004E-02  -1.24258026E-08
  -1.66999996E-02  -1.27832713E-08
  -1.66500006E-02  -1.31476279E-08
  -1.65999997E-02  -1.35197835E-08
  -1.65500008E-02  -1.38997738E-08
  -1.64999999E-02  -1.42869183E-08
  -1.64500009E-02  -1.46803201E-08
  -1.64000001E-02  -1.50794435E-08
  -1.63499992E-02  -1.54845505E-08
  -1.63000003E-02  -1.58967630E-08
  -1.62499994E-02  -1.63177720E-08
  -1.62000004E-02  -1.67492704E-08
  -1.61499996E-02  -1.71924075E-08
  -1.61000006E-02  -1.76475137E-08
  -1.60499997E-02  -1.81141662E-08
  -1.60000008E-02  -1.85916189E-08
  -1.59499999E-02  -1.90793603E-08
  -1.59000009E-02  -1.95775787E-08
  -1.58500001E-02  -2.00872847E-08
  -1.57999992E-02  -2.06101074E-08
  -1.57500003E-02  -2.11477733E-08
  -1.56999994E-02  -2.17015987E-08
  -1.56500004E-02  -2.22721326E-08
  -1.55999996E-02  -2.28591901E-08
  -1.55499997E-02  -2.34621851E-08
  -1.54999997E-02  -2.40806504E-08
  -1.54499998E-02  -2.47147049E-08
  -1.53999999E-02  -2.53652690E-08
  -1.53500000E-02  -2.60338755E-08
  -1.53000001E-02  -2.67222475E-08
  -1.52500002E-02  -2.74317546E-08
  -1.52000003E-02  -2.81630719E-08
  -1.51500003E-02  -2.89161335E-08
  -1.51000004E-02  -2.96904226E-08
  -1.50499996E-02  -3.04854773E-08
  -1.49999997E-02  -3.13013722E-08
  -1.49499997E-02  -3.21389599E-08
  -1.48999998E-02  -3.29997789E-08
  -1.48499999E-02  -3.38856694E-08
  -1.48000000E-02  -3.47982265E-08
  -1.47500001E-02  -3.57383989E-08
  -1.47000002E-02  -3.67063926E-08
  -1.46500003E-02  -3.77019056E-08
  -1.46000003E-02  -3.87245969E-08
  -1.45500004E-02  -3.97745943E-08
  -1.44999996E-02  -4.08527754E-08
  -1.44499997E-02  -4.19607424E-08
  -1.43999998E-02  -4.31005134E-08
  -1.43499998E-02  -4.42739889E-08
  -1.42999999E-02  -4.54825440E-08
  -1.42500000E-02  -4.67268109E-08
  -1.42000001E-02  -4.80068501E-08
  -1.41500002E-02  -4.93226153E-08
  -1.41000003E-02  -5.06744655E-08
  -1.40500003E-02  -5.20634380E-08
  -1.40000004E-02  -5.34912914E-08
  -1.39499996E-02  -5.49602213E-08
  -1.38999997E-02  -5.64724623E-08
  -1.38499998E-02  -5.80298014E-08
  -1.37999998E-02  -5.96333933E-08
  -1.37499999E-02  -6.12837994E-08
  -1.37000000E-02  -6.29814352E-08
  -1.36500001E-02  -6.47270397E-08
  -1.36000002E-02  -6.65220767E-08
  -1.35500003E-02  -6.83686920E-08
  -1.35000004E-02  -7.02694294E-08
  -1.34500004E-02  -7.22268680E-08
  -1.33999996E-02  -7.42432036E-08
  -1.33499997E-02  -7.63199637E-08
  -1.32999998E-02  -7.84581502E-08
  -1.32499998E-02  -8.06585234E-08
  -1.31999999E-02  -8.29221278E-08
  -1.31500000E-02  -8.52507185E-08
  -1.31000001E-02  -8.76468320E-08
  -1.30500002E-02  -9.01135735E-08
  -1.30000003E-02  -9.26540054E-08
  -1.29500004E-02  -9.52707637E-08
  -1.29000004E-02  -9.79658665E-08
  -1.28499996E-02  -1.00740728E-07
  -1.27999997E-02  -1.03596442E-07
  -1.27499998E-02  -1.06534308E-07
  -1.26999998E-02  -1.09556254E-07
  -1.26499999E-02  -1.12665099E-07
  -1.26000000E-02  -1.15864225E-07
  -1.25500001E-02  -1.19157271E-07
  -1.25000002E-02  -1.22547462E-07
  -1.24500003E-02  -1.26037335E-07
  -1.24000004E-02  -1.29628731E-07
  -1.23500004E-02  -1.33323113E-07
  -1.22999996E-02  -1.37121930E-07
  -1.22499997E-02  -1.41027115E-07
  -1.21999998E-02  -1.45041128E-07
  -1.21499998E-02  -1.49166880E-07
  -1.20999999E-02  -1.53407385E-07
  -1.20500000E-02  -1.57765555E-07
  -1.20000001E-02  -1.62243850E-07
  -1.19500002E-02  -1.66844174E-07
  -1.19000003E-02  -1.71568416E-07
  -1.18500004E-02  -1.76418794E-07
  -1.18000004E-02  -1.81398292E-07
  -1.17499996E-02  -1.86510775E-07
  -1.16999997E-02  -1.91760478E-07
  -1.16499998E-02  -1.97151508E-07
  -1.15999999E-02  -2.02687360E-07
  -1.15499999E-02  -2.08370352E-07
  -1.15000000E-02  -2.14201833E-07
  -1.14500001E-02  -2.20182244E-07
  -1.14000002E-02  -2.26311769E-07
  -1.13500003E-02  -2.32591191E-07
  -1.13000004E-02  -2.39022057E-07
  -1.12500004E-02  -2.45607112E-07
  -1.11999996E-02  -2.52349764E-07
  -1.11499997E-02  -2.59253937E-07
  -1.10999998E-02  -2.66323497E-07
  -1.10499999E-02  -2.73562279E-07
  -1.09999999E-02  -2.80974149E-07
  -1.09500000E-02  -2.88563001E-07
  -1.09000001E-02  -2.96333099E-07
  -1.08500002E-02  -3.04288932E-07
  -1.08000003E-02  -3.12434764E-07
  -1.07500004E-02  -3.20774234E-07
  -1.07000005E-02  -3.29309870E-07
  -1.06499996E-02  -3.38042724E-07
  -1.05999997E-02  -3.46972854E-07
  -1.05499998E-02  -3.56099690E-07
  -1.04999999E-02  -3.65423119E-07
  -1.04499999E-02  -3.74944051E-07
  -1.04000000E-02  -3.84665043E-07
  -1.03500001E-02  -3.94590501E-07
  -1.03000002E-02  -4.04725995E-07
  -1.02500003E-02  -4.15077807E-07
  -1.02000004E-02  -4.25652217E-07
  -1.01500005E-02  -4.36455082E-07
  -1.00999996E-02  -4.47491800E-07
  -1.00499997E-02  -4.58767573E-07
  -9.99999978E-03  -4.70287347E-07
  -9.94999986E-03  -4.82056066E-07
  -9.89999995E-03  -4.94078790E-07
  -9.85000003E-03  -5.06360436E-07
  -9.80000012E-03  -5.18905381E-07
  -9.75000020E-03  -5.31717262E-07
  -9.70000029E-03  -5.44798866E-07
  -9.65000037E-03  -5.58152919E-07
  -9.60000046E-03  -5.71782550E-07
  -9.54999961E-03  -5.85691680E-07
  -9.49999969E-03  -5.99885084E-07
  -9.44999978E-03  -6.14368560E-07
  -9.39999986E-03  -6.29148360E-07
  -9.34999995E-03  -6.44231079E-07
  -9.30000003E-03  -6.59623197E-07
  -9.25000012E-03  -6.75330398E-07
  -9.20000020E-03  -6.91358480E-07
  -9.15000029E-03  -7.07713696E-07
  -9.10000037E-03  -7.24403378E-07
  -9.05000046E-03  -7.41435997E-07
  -8.99999961E-03  -7.58821159E-07
  -8.94999970E-03  -7.76568641E-07
  -8.89999978E-03  -7.94688390E-07
  -8.84999987E-03  -8.13189615E-07
  -8.79999995E-03  -8.32080673E-07
  -8.75000004E-03  -8.51368839E-07
  -8.70000012E-03  -8.71060820E-07
  -8.65000021E-03  -8.91163211E-07
  -8.60000029E-03  -9.11683173E-07
  -8.55000038E-03  -9.32628552E-07
  -8.50000046E-03  -9.54007305E-07
  -8.44999962E-03  -9.75826879E-07
  -8.39999970E-03  -9.98094720E-07
  -8.34999979E-03  -1.02081822E-06
  -8.29999987E-03  -1.04400556E-06
  -8.24999996E-03  -1.06766470E-06
  -8.20000004E-03  -1.09180496E-06
  -8.15000013E-03  -1.11643635E-06
  -8.10000021E-03  -1.14157012E-06
  -8.05000030E-03  -1.16721810E-06
  -8.00000038E-03  -1.19339234E-06
  -7.95000046E-03  -1.22010533E-06
  -7.89999962E-03  -1.24736835E-06
  -7.84999970E-03  -1.27519161E-06
  -7.79999979E-03  -1.30358694E-06
  -7.74999987E-03  -1.33256606E-06
  -7.69999996E-03  -1.36214237E-06
  -7.65000004E-03  -1.39232907E-06
  -7.60000013E-03  -1.42313797E-06
  -7.55000021E-03  -1.45458159E-06
  -7.49999983E-03  -1.48667073E-06
  -7.44999992E-03  -1.51941640E-06
  -7.40000000E-03  -1.55282873E-06
  -7.35000009E-03  -1.58691762E-06
  -7.30000017E-03  -1.62169249E-06
  -7.24999979E-03  -1.65716426E-06
  -7.19999988E-03  -1.69334578E-06
  -7.14999996E-03  -1.73025023E-06
  -7.10000005E-03  -1.76789092E-06
  -7.05000013E-03  -1.80628035E-06
  -7.00000022E-03  -1.84543069E-06
  -6.94999984E-03  -1.88535591E-06
  -6.89999992E-03  -1.92607013E-06
  -6.85000001E-03  -1.96758810E-06
  -6.80000009E-03  -2.00992554E-06
  -6.75000018E-03  -2.05309789E-06
  -6.69999979E-03  -2.09712130E-06
  -6.64999988E-03  -2.14201259E-06
  -6.59999996E-03  -2.18778700E-06
  -6.55000005E-03  -2.23445954E-06
  -6.50000013E-03  -2.28204476E-06
  -6.45000022E-03  -2.33055789E-06
  -6.39999984E-03  -2.38001439E-06
  -6.34999992E-03  -2.43043110E-06
  -6.30000001E-03  -2.48182437E-06
  -6.25000009E-03  -2.53420944E-06
  -6.20000018E-03  -2.58760110E-06
  -6.14999980E-03  -2.64201390E-06
  -6.09999988E-03  -2.69746351E-06
  -6.04999997E-03  -2.75396383E-06
  -6.00000005E-03  -2.81152938E-06
  -5.95000014E-03  -2.87017497E-06
  -5.90000022E-03  -2.92991899E-06
  -5.84999984E-03  -2.99078147E-06
  -5.79999993E-03  -3.05278195E-06
  -5.75000001E-03  -3.11593908E-06
  -5.70000010E-03  -3.18026878E-06
  -5.65000018E-03  -3.24578809E-06
  -5.59999980E-03  -3.31251613E-06
  -5.54999989E-03  -3.38047312E-06
  -5.49999997E-03  -3.44967907E-06
  -5.45000006E-03  -3.52015377E-06
  -5.40000014E-03  -3.59191881E-06
  -5.35000023E-03  -3.66499557E-06
  -5.29999984E-03  -3.73940679E-06
  -5.24999993E-03  -3.81517066E-06
  -5.20000001E-03  -3.89230217E-06
  -5.15000010E-03  -3.97082022E-06
  -5.10000018E-03  -4.05074297E-06
  -5.04999980E-03  -4.13208954E-06
  -4.99999989E-03  -4.21487994E-06
  -4.94999997E-03  -4.29913371E-06
  -4.90000006E-03  -4.38486995E-06
  -4.85000014E-03  -4.47210778E-06
  -4.80000023E-03  -4.56086673E-06
  -4.74999985E-03  -4.65116227E-06
  -4.69999993E-03  -4.74301078E-06
  -4.65000002E-03  -4.83642953E-06
  -4.60000010E-03  -4.93144398E-06
  -4.55000019E-03  -5.02808143E-06
  -4.49999981E-03  -5.12636780E-06
  -4.44999989E-03  -5.22632854E-06
  -4.39999998E-03  -5.32798640E-06
  -4.35000006E-03  -5.43136275E-06
  -4.30000015E-03  -5.53647942E-06
  -4.25000023E-03  -5.64335551E-06
  -4.19999985E-03  -5.75200920E-06
  -4.14999994E-03  -5.86245960E-06
  -4.10000002E-03  -5.97473036E-06
  -4.05000011E-03  -6.08884557E-06
  -4.00000019E-03  -6.20482797E-06
  -3.94999981E-03  -6.32269666E-06
  -3.89999989E-03  -6.44246893E-06
  -3.84999998E-03  -6.56415932E-06
  -3.80000006E-03  -6.68778512E-06
  -3.74999992E-03  -6.81336041E-06
  -3.70000000E-03  -6.94090795E-06
  -3.65000009E-03  -7.07045228E-06
  -3.59999994E-03  -7.20201979E-06
  -3.55000002E-03  -7.33563775E-06
  -3.50000011E-03  -7.47133026E-06
  -3.44999996E-03  -7.60912008E-06
  -3.40000005E-03  -7.74902492E-06
  -3.34999990E-03  -7.89106343E-06
  -3.29999998E-03  -8.03525290E-06
  -3.25000007E-03  -8.18161425E-06
  -3.19999992E-03  -8.33017384E-06
  -3.15000000E-03  -8.48095624E-06
  -3.10000009E-03  -8.63399146E-06
  -3.04999994E-03  -8.78930314E-06
  -3.00000003E-03  -8.94690947E-06
  -2.95000011E-03  -9.10682411E-06
  -2.89999996E-03  -9.26905977E-06
  -2.85000005E-03  -9.43363921E-06
  -2.79999990E-03  -9.60058424E-06
  -2.74999999E-03  -9.76991214E-06
  -2.70000007E-03  -9.94164748E-06
  -2.64999992E-03  -1.01158221E-05
  -2.60000001E-03  -1.02924669E-05
  -2.55000009E-03  -1.04716028E-05
  -2.49999994E-03  -1.06532443E-05
  -2.45000003E-03  -1.08373979E-05
  -2.40000011E-03  -1.10240780E-05
  -2.34999997E-03  -1.12133093E-05
  -2.30000005E-03  -1.14051227E-05
  -2.24999990E-03  -1.15995435E-05
  -2.19999999E-03  -1.17965974E-05
  -2.15000007E-03  -1.19963124E-05
  -2.09999993E-03  -1.21987214E-05
  -2.05000001E-03  -1.24038497E-05
  -2.00000009E-03  -1.26117166E-05
  -1.94999995E-03  -1.28223301E-05
  -1.90000003E-03  -1.30357030E-05
  -1.85000000E-03  -1.32518689E-05
  -1.79999997E-03  -1.34708698E-05
  -1.75000005E-03  -1.36927347E-05
  -1.70000002E-03  -1.39174917E-05
  -1.64999999E-03  -1.41451601E-05
  -1.59999996E-03  -1.43757525E-05
  -1.55000004E-03  -1.46092916E-05
  -1.50000001E-03  -1.48457912E-05
  -1.44999998E-03  -1.50852611E-05
  -1.39999995E-03  -1.53277178E-05
  -1.35000004E-03  -1.55731923E-05
  -1.30000000E-03  -1.58217263E-05
  -1.24999997E-03  -1.60733580E-05
  -1.20000006E-03  -1.63281293E-05
  -1.15000003E-03  -1.65860511E-05
  -1.09999999E-03  -1.68471361E-05
  -1.04999996E-03  -1.71114007E-05
  -1.00000005E-03  -1.73788630E-05
  -9.50000016E-04  -1.76495669E-05
  -8.99999985E-04  -1.79235467E-05
  -8.50000011E-04  -1.82008298E-05
  -7.99999980E-04  -1.84814526E-05
  -7.50000007E-04  -1.87654568E-05
  -6.99999975E-04  -1.90528681E-05
  -6.50000002E-04  -1.93436899E-05
  -6.00000028E-04  -1.96379333E-05
  -5.49999997E-04  -1.99356091E-05
  -5.00000024E-04  -2.02367391E-05
  -4.49999992E-04  -2.05413653E-05
  -3.99999990E-04  -2.08495348E-05
  -3.49999988E-04  -2.11612769E-05
  -3.00000014E-04  -2.14766151E-05
  -2.50000012E-04  -2.17955785E-05
  -1.99999995E-04  -2.21181945E-05
  -1.50000007E-04  -2.24444757E-05
  -9.99999975E-05  -2.27744313E-05
  -4.99999987E-05  -2.31080830E-05
   0.00000000      -2.34454619E-05
   4.99999987E-05  -2.37866207E-05
   9.99999975E-05  -2.41316084E-05
   1.50000007E-04  -2.44804633E-05
   1.99999995E-04  -2.48331980E-05
   2.50000012E-04  -2.51898164E-05
   3.00000014E-04  -2.55503364E-05
   3.49999988E-04  -2.59147910E-05
   3.99999990E-04  -2.62831963E-05
   4.49999992E-04  -2.66555671E-05
   5.00000024E-04  -2.70319379E-05
   5.49999997E-04  -2.74123613E-05
   6.00000028E-04  -2.77968848E-05
   6.50000002E-04  -2.81855391E-05
   6.99999975E-04  -2.85783244E-05
   7.50000007E-04  -2.89752388E-05
   7.99999980E-04  -2.93763042E-05
   8.50000011E-04  -2.97815513E-05
   8.99999985E-04  -3.01910059E-05
   9.50000016E-04  -3.06046932E-05
   1.00000005E-03  -3.10226460E-05
   1.04999996E-03  -3.14449171E-05
   1.09999999E-03  -3.18715465E-05
   1.15000003E-03  -3.23025488E-05
   1.20000006E-03  -3.27379239E-05
   1.24999997E-03  -3.31776646E-05
   1.30000000E-03  -3.36218000E-05
   1.35000004E-03  -3.40703773E-05
   1.39999995E-03  -3.45234366E-05
   1.44999998E-03  -3.49810216E-05
   1.50000001E-03  -3.54431577E-05
   1.55000004E-03  -3.59098703E-05
   1.59999996E-03  -3.63811960E-05
   1.64999999E-03  -3.68571527E-05
   1.70000002E-03  -3.73377516E-05
   1.75000005E-03  -3.78229815E-05
   1.79999997E-03  -3.83128572E-05
   1.85000000E-03  -3.88074259E-05
   1.90000003E-03  -3.93067494E-05
   1.94999995E-03  -3.98108787E-05
   2.00000009E-03  -4.03198210E-05
   2.05000001E-03  -4.08335618E-05
   2.09999993E-03  -4.13521266E-05
   2.15000007E-03  -4.18755408E-05
   2.19999999E-03  -4.24038335E-05
   2.24999990E-03  -4.29370084E-05
   2.30000005E-03  -4.34750909E-05
   2.34999997E-03  -4.40181393E-05
   2.40000011E-03  -4.45662154E-05
   2.45000003E-03  -4.51193664E-05
   2.49999994E-03  -4.56775997E-05
   2.55000009E-03  -4.62409153E-05
   2.60000001E-03  -4.68093167E-05
   2.64999992E-03  -4.73828259E-05
   2.70000007E-03  -4.79614864E-05
   2.74999999E-03  -4.85453165E-05
   2.79999990E-03  -4.91343417E-05