  -3.99999991E-02   0.00000000    
  -3.99499983E-02   0.00000000    
  -3.99000011E-02   0.00000000    
  -3.98500003E-02   0.00000000    
  -3.97999994E-02  -7.69579309E-20
  -3.97499986E-02  -5.32125908E-19
  -3.97000015E-02  -1.42209656E-18
  -3.96500006E-02   6.43081034E-20
  -3.95999998E-02   1.53477754E-17
  -3.95499989E-02   7.08302516E-17
  -3.95000018E-02   2.07230131E-16
  -3.94500010E-02   4.62144776E-16
  -3.94000001E-02   8.32717138E-16
  -3.93499993E-02   1.23095000E-15
  -3.92999984E-02   1.46032969E-15
  -3.92500013E-02   1.24473810E-15
  -3.92000005E-02   3.19413133E-16
  -3.91499996E-02  -1.44649235E-15
  -3.90999988E-02  -3.96424167E-15
  -3.90500017E-02  -6.95253706E-15
  -3.90000008E-02  -1.01113796E-14
  -3.89500000E-02  -1.33947546E-14
  -3.88999991E-02  -1.72514760E-14
  -3.88499983E-02  -2.26749754E-14
  -3.88000011E-02  -3.09656712E-14
  -3.87500003E-02  -4.32528938E-14
  -3.86999995E-02  -5.99827737E-14
  -3.86499986E-02  -8.06634016E-14
  -3.86000015E-02  -1.04098770E-13
  -3.85500006E-02  -1.29131121E-13
  -3.84999998E-02  -1.55620823E-13
  -3.84499989E-02  -1.85162852E-13
  -3.84000018E-02  -2.21021132E-13
  -3.83500010E-02  -2.67039429E-13
  -3.83000001E-02  -3.25795218E-13
  -3.82499993E-02  -3.96769613E-13
  -3.81999984E-02  -4.75515569E-13
  -3.81500013E-02  -5.54515852E-13
  -3.81000005E-02  -6.25694808E-13
  -3.80499996E-02  -6.83691656E-13
  -3.79999988E-02  -7.28456954E-13
  -3.79500017E-02  -7.65805767E-13
  -3.79000008E-02  -8.05312956E-13
  -3.78500000E-02  -8.56092215E-13
  -3.77999991E-02  -9.22090421E-13
  -3.77499983E-02  -9.99018685E-13
  -3.77000012E-02  -1.07456427E-12
  -3.76500003E-02  -1.13214592E-12
  -3.75999995E-02  -1.15675839E-12
  -3.75499986E-02  -1.14024632E-12
  -3.75000015E-02  -1.08339011E-12
  -3.74500006E-02  -9.93576749E-13
  -3.73999998E-02  -8.78918845E-13
  -3.73499990E-02  -7.41476108E-13
  -3.73000018E-02  -5.72805854E-13
  -3.72500010E-02  -3.54162852E-13
  -3.72000001E-02  -6.16888878E-14
  -3.71499993E-02   3.25282363E-13
  -3.70999984E-02   8.16157200E-13
  -3.70500013E-02   1.40464842E-12
  -3.70000005E-02   2.06988528E-12
  -3.69499996E-02   2.78261507E-12
  -3.68999988E-02   3.51396104E-12
  -3.68500017E-02   4.24346365E-12
  -3.68000008E-02   4.96397107E-12
  -3.67500000E-02   5.68264229E-12
  -3.66999991E-02   6.41871582E-12
  -3.66499983E-02   7.19906209E-12
  -3.66000012E-02   8.05210499E-12
  -3.65500003E-02   9.00035255E-12
  -3.64999995E-02   1.00522732E-11
  -3.64499986E-02   1.11954968E-11
  -3.64000015E-02   1.23943789E-11
  -3.63500006E-02   1.35947295E-11
  -3.62999998E-02   1.47361984E-11
  -3.62499990E-02   1.57688515E-11
  -3.62000018E-02   1.66665154E-11
  -3.61500010E-02   1.74282342E-11
  -3.61000001E-02   1.80627301E-11
  -3.60499993E-02   1.85592774E-11
  -3.59999985E-02   1.88585241E-11
  -3.59500013E-02   1.88425994E-11
  -3.59000005E-02   1.83599073E-11
  -3.58499996E-02   1.72848610E-11
  -3.57999988E-02   1.55922532E-11
  -3.57500017E-02   1.34097898E-11
  -3.57000008E-02   1.10116386E-11
  -3.56500000E-02   8.73555134E-12
  -3.55999991E-02   6.84103468E-12
  -3.55499983E-02   5.36218596E-12
  -3.55000012E-02   4.02690771E-12
  -3.54500003E-02   2.29995992E-12
  -3.53999995E-02  -4.40281898E-13
  -3.53499986E-02  -4.64622785E-12
  -3.53000015E-02  -1.03733541E-11
  -3.52500007E-02  -1.71961369E-11
  -3.51999998E-02  -2.43353636E-11
  -3.51499990E-02  -3.09721242E-11
  -3.51000018E-02  -3.66256921E-11
  -3.50500010E-02  -4.14185942E-11
  -3.50000001E-02  -4.60775341E-11
  -3.49499993E-02  -5.16252839E-11
  -3.48999985E-02  -5.88673624E-11
  -3.48500013E-02  -6.78990614E-11
  -3.48000005E-02  -7.78876338E-11
  -3.47499996E-02  -8.72890510E-11
  -3.46999988E-02  -9.44657130E-11
  -3.46500017E-02  -9.84614751E-11
  -3.46000008E-02  -9.95688115E-11
  -3.45500000E-02  -9.93659738E-11
  -3.44999991E-02  -1.00116013E-10
  -3.44499983E-02  -1.03723384E-10
  -3.44000012E-02  -1.10698423E-10
  -3.43500003E-02  -1.19647542E-10
  -3.42999995E-02  -1.27625521E-10
  -3.42499986E-02  -1.31308187E-10
  -3.42000015E-02  -1.28528188E-10
  -3.41500007E-02  -1.19466659E-10
  -3.40999998E-02  -1.06857918E-10
  -3.40499990E-02  -9.49605256E-11
  -3.40000018E-02  -8.76239289E-11
  -3.39500010E-02  -8.62776933E-11
  -3.39000002E-02  -8.88277021E-11
  -3.38499993E-02  -9.01345318E-11
  -3.37999985E-02  -8.40630204E-11
  -3.37500013E-02  -6.63158348E-11
  -3.37000005E-02  -3.67721860E-11
  -3.36499996E-02  -1.23379402E-13
  -3.35999988E-02   3.57277055E-11
  -3.35500017E-02   6.30122829E-11
  -3.35000008E-02   7.77822737E-11
  -3.34500000E-02   8.21918783E-11
  -3.33999991E-02   8.40981243E-11
  -3.33499983E-02   9.38560202E-11
  -3.33000012E-02   1.19535604E-10
  -3.32500003E-02   1.62702102E-10
  -3.31999995E-02   2.16875601E-10
  -3.31499986E-02   2.69723244E-10
  -3.31000015E-02   3.08339382E-10
  -3.30500007E-02   3.25392241E-10
  -3.29999998E-02   3.23242877E-10
  -3.29499990E-02   3.13806980E-10
  -3.29000019E-02   3.13754023E-10
  -3.28500010E-02   3.36859929E-10
  -3.28000002E-02   3.86910060E-10
  -3.27499993E-02   4.54651566E-10
  -3.26999985E-02   5.20704646E-10
  -3.26500013E-02   5.63656677E-10
  -3.26000005E-02   5.69971015E-10
  -3.25499997E-02   5.41112988E-10
  -3.24999988E-02   4.94167873E-10
  -3.24500017E-02   4.54995180E-10
  -3.24000008E-02   4.46473636E-10
  -3.23500000E-02   4.77021811E-10
  -3.22999991E-02   5.34961964E-10
  -3.22499983E-02   5.92024874E-10
  -3.22000012E-02   6.15207552E-10
  -3.21500003E-02   5.82094595E-10
  -3.20999995E-02   4.92612118E-10
  -3.20499986E-02   3.71218833E-10
  -3.20000015E-02   2.57570326E-10
  -3.19500007E-02   1.89041005E-10
  -3.18999998E-02   1.82706128E-10
  -3.18499990E-02   2.25351945E-10
  -3.18000019E-02   2.77011997E-10
  -3.17500010E-02   2.87554841E-10
  -3.17000002E-02   2.19565241E-10
  -3.16499993E-02   6.71658840E-11
  -3.15999985E-02  -1.38523998E-10
  -3.15500014E-02  -3.41013967E-10
  -3.15000005E-02  -4.83034557E-10
  -3.14499997E-02  -5.33452837E-10
  -3.13999988E-02  -5.03882991E-10
  -3.13500017E-02  -4.46249260E-10
  -3.13000008E-02  -4.30931762E-10
  -3.12500000E-02  -5.14362775E-10
  -3.11999992E-02  -7.10683068E-10
  -3.11500002E-02  -9.81290604E-10
  -3.10999993E-02  -1.24867960E-09
  -3.10500003E-02  -1.42989709E-09
  -3.09999995E-02  -1.47523682E-09
  -3.09500005E-02  -1.39417544E-09
  -3.08999997E-02  -1.25524557E-09
  -3.08500007E-02  -1.15790999E-09
  -3.07999998E-02  -1.18765664E-09
  -3.07500008E-02  -1.37434208E-09
  -3.07000000E-02  -1.67375280E-09
  -3.06499992E-02  -1.98281902E-09
  -3.06000002E-02  -2.18370988E-09
  -3.05499993E-02  -2.19802110E-09
  -3.05000003E-02  -2.02613615E-09
  -3.04499995E-02  -1.75209447E-09
  -3.04000005E-02  -1.50925361E-09
  -3.03499997E-02  -1.42025269E-09
  -3.03000007E-02  -1.53787161E-09
  -3.02499998E-02  -1.81478821E-09
  -3.02000009E-02  -2.11848827E-09
  -3.01500000E-02  -2.28736119E-09
  -3.00999992E-02  -2.20431651E-09
  -3.00500002E-02  -1.85443194E-09
  -2.99999993E-02  -1.33846567E-09
  -2.99500003E-02  -8.33035696E-10
  -2.98999995E-02  -5.12773324E-10
  -2.98500005E-02  -4.68632522E-10
  -2.97999997E-02  -6.60476840E-10
  -2.97500007E-02  -9.28297605E-10
  -2.96999998E-02  -1.06036324E-09
  -2.96500009E-02  -8.89718688E-10
  -2.96000000E-02  -3.75442732E-10
  -2.95499992E-02   3.70366848E-10
  -2.95000002E-02   1.12573340E-09
  -2.94499993E-02   1.65591563E-09
  -2.94000003E-02   1.82208015E-09
  -2.93499995E-02   1.65125758E-09
  -2.93000005E-02   1.33258460E-09
  -2.92499997E-02   1.13742282E-09
  -2.92000007E-02   1.29649347E-09
  -2.91499998E-02   1.88914595E-09
  -2.91000009E-02   2.79723844E-09
  -2.90500000E-02   3.74873510E-09
  -2.89999992E-02   4.43549331E-09
  -2.89500002E-02   4.65417749E-09
  -2.88999993E-02   4.40571757E-09
  -2.88500004E-02   3.90468458E-09
  -2.87999995E-02   3.48951623E-09
  -2.87500005E-02   3.47035334E-09
  -2.86999997E-02   3.98226518E-09
  -2.86500007E-02   4.91256147E-09
  -2.85999998E-02   5.93980465E-09
  -2.85500009E-02   6.67193900E-09
  -2.85000000E-02   6.82412882E-09
  -2.84499992E-02   6.35551123E-09
  -2.84000002E-02   5.49925749E-09
  -2.83499993E-02   4.66685934E-09
  -2.83000004E-02   4.26512781E-09
  -2.82499995E-02   4.50676474E-09
  -2.82000005E-02   5.30210986E-09
  -2.81499997E-02   6.28595798E-09
  -2.81000007E-02   6.97311409E-09
  -2.80499998E-02   6.97634484E-09
  -2.80000009E-02   6.18855100E-09
  -2.79500000E-02   4.84330664E-09
  -2.78999992E-02   3.42057982E-09
  -2.78500002E-02   2.43478127E-09
  -2.77999993E-02   2.19833507E-09
  -2.77500004E-02   2.66912270E-09
  -2.76999995E-02   3.45580631E-09
  -2.76500005E-02   3.98495370E-09
  -2.75999997E-02   3.75921427E-09
  -2.75500007E-02   2.59084798E-09
  -2.74999999E-02   7.01777914E-10
  -2.74500009E-02  -1.36125577E-09
  -2.74000000E-02  -2.96451019E-09
  -2.73499992E-02  -3.67417163E-09
  -2.73000002E-02  -3.46204132E-09
  -2.72499993E-02  -2.73217715E-09
  -2.72000004E-02  -2.14960849E-09
  -2.71499995E-02  -2.34276132E-09
  -2.71000005E-02  -3.61194852E-09
  -2.70499997E-02  -5.77821657E-09
  -2.70000007E-02  -8.24693647E-09
  -2.69499999E-02  -1.02643742E-08
  -2.69000009E-02  -1.12559917E-08
  -2.68500000E-02  -1.10939435E-08
  -2.67999992E-02  -1.01686322E-08
  -2.67500002E-02  -9.22499499E-09
  -2.66999993E-02  -9.03085784E-09
  -2.66500004E-02  -1.00238680E-08
  -2.65999995E-02  -1.20980070E-08
  -2.65500005E-02  -1.46317980E-08
  -2.64999997E-02  -1.67528817E-08
  -2.64500007E-02  -1.77253199E-08
  -2.63999999E-02  -1.72864549E-08
  -2.63500009E-02  -1.57781255E-08
  -2.63000000E-02  -1.40063987E-08
  -2.62499992E-02  -1.28860176E-08
  -2.62000002E-02  -1.30255522E-08
  -2.61499994E-02  -1.44405305E-08
  -2.61000004E-02  -1.65286078E-08
  -2.60499995E-02  -1.83250659E-08
  -2.60000005E-02  -1.89297946E-08
  -2.59499997E-02  -1.79160793E-08
  -2.59000007E-02  -1.55349831E-08
  -2.58499999E-02  -1.26173845E-08
  -2.58000009E-02  -1.02106563E-08
  -2.57500000E-02  -9.10840026E-09
  -2.56999992E-02  -9.48398338E-09
  -2.56500002E-02  -1.07964828E-08
  -2.55999994E-02  -1.20180861E-08
  -2.55500004E-02  -1.20874706E-08
  -2.54999995E-02  -1.03891740E-08
  -2.54500005E-02  -7.04284098E-09
  -2.53999997E-02  -2.86745472E-09
  -2.53500007E-02   9.70393987E-10
  -2.52999999E-02   3.47218854E-09
  -2.52500009E-02   4.25788915E-09
  -2.52000000E-02   3.74670828E-09
  -2.51499992E-02   2.98126834E-09
  -2.51000002E-02   3.16706861E-09
  -2.50499994E-02   5.12882137E-09
  -2.50000004E-02   8.92652441E-09
  -2.49499995E-02   1.38069947E-08
  -2.49000005E-02   1.85192146E-08
  -2.48499997E-02   2.18590017E-08
  -2.48000007E-02   2.32032384E-08
  -2.47499999E-02   2.27943939E-08
  -2.47000009E-02   2.16434284E-08
  -2.46500000E-02   2.10877626E-08
  -2.45999992E-02   2.21956693E-08
  -2.45500002E-02   2.52803112E-08
  -2.44999994E-02   2.97419280E-08
  -2.44500004E-02   3.43139632E-08
  -2.43999995E-02   3.76100537E-08
  -2.43500005E-02   3.87332904E-08
  -2.42999997E-02   3.76778040E-08
  -2.42500007E-02   3.53410243E-08
  -2.41999999E-02   3.31351124E-08
  -2.41500009E-02   3.23639391E-08
  -2.41000000E-02   3.36384183E-08
  -2.40499992E-02   3.65899027E-08
  -2.40000002E-02   4.00132549E-08
  -2.39499994E-02   4.23828048E-08
  -2.39000004E-02   4.25186215E-08
  -2.38499995E-02   4.01110078E-08
  -2.38000005E-02   3.58695189E-08
  -2.37499997E-02   3.12249746E-08
  -2.37000007E-02   2.77092482E-08
  -2.36499999E-02   2.62813877E-08
  -2.36000009E-02   2.68958793E-08
  -2.35500000E-02   2.85068609E-08
  -2.34999992E-02   2.95132310E-08
  -2.34500002E-02   2.84556219E-08
  -2.33999994E-02   2.46630272E-08
  -2.33500004E-02   1.85643021E-08
  -2.32999995E-02   1.15222916E-08
  -2.32500006E-02   5.25565502E-09
  -2.31999997E-02   1.09497056E-09
  -2.31500007E-02  -6.03667727E-10
  -2.30999999E-02  -6.27725150E-10
  -2.30500009E-02  -5.78439074E-10
  -2.30000000E-02  -2.17737806E-09
  -2.29499992E-02  -6.50606369E-09
  -2.29000002E-02  -1.35097427E-08
  -2.28499994E-02  -2.19872636E-08
  -2.28000004E-02  -3.00813809E-08
  -2.27499995E-02  -3.60654333E-08
  -2.27000006E-02  -3.90891195E-08
  -2.26499997E-02  -3.95571931E-08
  -2.26000007E-02  -3.89682207E-08
  -2.25499999E-02  -3.92722868E-08
  -2.25000009E-02  -4.20174402E-08
  -2.24500000E-02  -4.76527013E-08
  -2.23999992E-02  -5.52954802E-08
  -2.23500002E-02  -6.30756247E-08
  -2.22999994E-02  -6.89197250E-08
  -2.22500004E-02  -7.14438144E-08
  -2.21999995E-02  -7.05672463E-08
  -2.21500006E-02  -6.75726000E-08
  -2.20999997E-02  -6.45711253E-08
  -2.20500007E-02  -6.35919193E-08
  -2.19999999E-02  -6.56830679E-08
  -2.19500009E-02  -7.04186220E-08
  -2.19000001E-02  -7.60381766E-08
  -2.18499992E-02  -8.01759086E-08
  -2.18000002E-02  -8.08763332E-08
  -2.17499994E-02  -7.74597808E-08
  -2.17000004E-02  -7.08534955E-08
  -2.16499995E-02  -6.32272901E-08
  -2.16000006E-02  -5.70728744E-08
  -2.15499997E-02  -5.41148601E-08
  -2.15000007E-02  -5.45275718E-08
  -2.14499999E-02  -5.68121372E-08
  -2.14000009E-02  -5.84091495E-08
  -2.13500001E-02  -5.68004914E-08
  -2.12999992E-02  -5.06300530E-08
  -2.12500002E-02  -4.03489331E-08
  -2.11999994E-02  -2.80843580E-08
  -2.11500004E-02  -1.67638632E-08
  -2.10999995E-02  -8.85706175E-09
  -2.10500006E-02  -5.27898392E-09
  -2.09999997E-02  -4.94581709E-09
  -2.09500007E-02  -5.20225285E-09
  -2.08999999E-02  -2.96077052E-09
  -2.08500009E-02   3.92816091E-09
  -2.08000001E-02   1.56751430E-08
  -2.07499992E-02   3.03772651E-08
  -2.07000002E-02   4.47759376E-08
  -2.06499994E-02   5.56418840E-08
  -2.06000004E-02   6.11921678E-08
  -2.05499995E-02   6.19097165E-08
  -2.05000006E-02   6.03796906E-08
  -2.04499997E-02   6.01823231E-08
  -2.04000007E-02   6.43041602E-08
  -2.03499999E-02   7.37608019E-08
  -2.03000009E-02   8.70534578E-08
  -2.02500001E-02   1.00730809E-07
  -2.01999992E-02   1.10842734E-07
  -2.01500002E-02   1.14666022E-07
  -2.00999994E-02   1.11939485E-07
  -2.00500004E-02   1.05040073E-07
  -1.99999996E-02   9.79863941E-08
  -1.99500006E-02   9.46778513E-08
  -1.98999997E-02   9.71338565E-08
  -1.98500007E-02   1.04522556E-07
  -1.97999999E-02   1.13439668E-07
  -1.97500009E-02   1.19352038E-07
  -1.97000001E-02   1.18594244E-07
  -1.96499992E-02   1.10038606E-07
  -1.96000002E-02   9.56777626E-08
  -1.95499994E-02   7.98243533E-08
  -1.95000004E-02   6.72446063E-08
  -1.94499996E-02   6.10329991E-08
  -1.94000006E-02   6.11765856E-08
  -1.93499997E-02   6.44765734E-08
  -1.93000007E-02   6.59034143E-08
  -1.92499999E-02   6.08186710E-08
  -1.92000009E-02   4.70890278E-08
  -1.91500001E-02   2.61375028E-08
  -1.90999992E-02   2.42749931E-09
  -1.90500002E-02  -1.84330506E-08
  -1.89999994E-02  -3.21529292E-08
  -1.89500004E-02  -3.76917306E-08
  -1.88999996E-02  -3.77807154E-08
  -1.88500006E-02  -3.77573635E-08
  -1.87999997E-02  -4.31932641E-08
  -1.87500007E-02  -5.73521852E-08
  -1.86999999E-02  -7.96200439E-08
  -1.86500009E-02  -1.05640019E-07
  -1.86000001E-02  -1.29136524E-07
  -1.85499992E-02  -1.44649022E-07
  -1.85000002E-02  -1.49966453E-07
  -1.84499994E-02  -1.47157124E-07
  -1.84000004E-02  -1.41695182E-07
  -1.83499996E-02  -1.40031474E-07
  -1.83000006E-02  -1.46666238E-07
  -1.82499997E-02  -1.62032435E-07
  -1.82000007E-02  -1.82162893E-07
  -1.81499999E-02  -2.00332380E-07
  -1.81000009E-02  -2.09979632E-07
  -1.80500001E-02  -2.07620531E-07
  -1.79999992E-02  -1.94438883E-07
  -1.79500002E-02  -1.75809717E-07
  -1.78999994E-02  -1.58926426E-07
  -1.78500004E-02  -1.49562638E-07
  -1.77999996E-02  -1.49411918E-07
  -1.77500006E-02  -1.55218331E-07
  -1.76999997E-02  -1.60125992E-07
  -1.76500008E-02  -1.56684450E-07
  -1.75999999E-02  -1.40187439E-07
  -1.75500009E-02  -1.10845129E-07
  -1.75000001E-02  -7.37885983E-08
  -1.74499992E-02  -3.68626480E-08
  -1.74000002E-02  -7.16035276E-09
  -1.73499994E-02   1.21615873E-08
  -1.73000004E-02   2.33469244E-08
  -1.72499996E-02   3.30922560E-08
  -1.72000006E-02   4.95722752E-08
  -1.71499997E-02   7.87434544E-08
  -1.71000008E-02   1.21579120E-07
  -1.70499999E-02   1.73496005E-07
  -1.70000009E-02   2.26266920E-07
  -1.69500001E-02   2.71598537E-07
  -1.68999992E-02   3.04788074E-07
  -1.68500002E-02   3.26814131E-07
  -1.67999994E-02   3.43896943E-07
  -1.67500004E-02   3.64686059E-07
  -1.66999996E-02   3.96306319E-07
  -1.66500006E-02   4.41025151E-07
  -1.65999997E-02   4.95049392E-07
  -1.65500008E-02   5.50021809E-07
  -1.64999999E-02   5.96583391E-07
  -1.64500009E-02   6.28427642E-07
  -1.64000001E-02   6.45030184E-07
  -1.63499992E-02   6.51815355E-07
  -1.63000003E-02   6.57650617E-07
  -1.62499994E-02   6.70761722E-07
  -1.62000004E-02   6.94888968E-07
  -1.61499996E-02   7.27412385E-07
  -1.61000006E-02   7.60309547E-07
  -1.60499997E-02   7.83546113E-07
  -1.60000008E-02   7.89405021E-07
  -1.59499999E-02   7.75818080E-07
  -1.59000009E-02   7.47195884E-07
  -1.58500001E-02   7.12355813E-07
  -1.57999992E-02   6.80449830E-07
  -1.57500003E-02   6.56703776E-07
  -1.56999994E-02   6.39874713E-07
  -1.56500004E-02   6.22586299E-07
  -1.55999996E-02   5.94422943E-07
  -1.55499997E-02   5.46418050E-07
  -1.54999997E-02   4.74939640E-07
  -1.54499998E-02   3.83227643E-07
  -1.53999999E-02   2.79872268E-07
  -1.53500000E-02   1.74895263E-07
  -1.53000001E-02   7.51701776E-08
  -1.52500002E-02  -1.87760865E-08
  -1.52000003E-02  -1.13136018E-07
  -1.51500003E-02  -2.18181341E-07
  -1.51000004E-02  -3.43766175E-07
  -1.50499996E-02  -4.94976518E-07
  -1.49999997E-02  -6.69877068E-07
  -1.49499997E-02  -8.60372324E-07
  -1.48999998E-02  -1.05581887E-06
  -1.48499999E-02  -1.24779308E-06
  -1.48000000E-02  -1.43388866E-06
  -1.47500001E-02  -1.61884282E-06
  -1.47000002E-02  -1.81246969E-06
  -1.46500003E-02  -2.02530509E-06
  -1.46000003E-02  -2.26389852E-06
  -1.45500004E-02  -2.52784730E-06
  -1.44999996E-02  -2.80990935E-06
  -1.44499997E-02  -3.09915572E-06
  -1.43999998E-02  -3.38577115E-06
  -1.43499998E-02  -3.66536551E-06
  -1.42999999E-02  -3.94087510E-06
  -1.42500000E-02  -4.22119501E-06
  -1.42000001E-02  -4.51714095E-06
  -1.41500002E-02  -4.83652911E-06
  -1.41000003E-02  -5.18057277E-06
  -1.40500003E-02  -5.54320286E-06
  -1.40000004E-02  -5.91362686E-06
  -1.39499996E-02  -6.28100679E-06
  -1.38999997E-02  -6.63916308E-06
  -1.38499998E-02  -6.98921394E-06
  -1.37999998E-02  -7.33897969E-06
  -1.37499999E-02  -7.69938742E-06
  -1.37000000E-02  -8.07948800E-06
  -1.36500001E-02  -8.48228956E-06
  -1.36000002E-02  -8.90327556E-06
  -1.35500003E-02  -9.33226238E-06
  -1.35000004E-02  -9.75779312E-06
  -1.34500004E-02  -1.01721043E-05
  -1.33999996E-02  -1.05744812E-05
  -1.33499997E-02  -1.09714711E-05
  -1.32999998E-02  -1.13738761E-05
  -1.32499998E-02  -1.17918389E-05
  -1.31999999E-02  -1.22302190E-05
  -1.31500000E-02  -1.26863333E-05
  -1.31000001E-02  -1.31510469E-05
  -1.30500002E-02  -1.36127364E-05
  -1.30000003E-02  -1.40624006E-05
  -1.29500004E-02  -1.44976266E-05
  -1.29000004E-02  -1.49236457E-05
  -1.28499996E-02  -1.53510264E-05
  -1.27999997E-02  -1.57910072E-05
  -1.27499998E-02  -1.62505312E-05
  -1.26999998E-02  -1.67292128E-05
  -1.26499999E-02  -1.72195614E-05
  -1.26000000E-02  -1.77103575E-05
  -1.25500001E-02  -1.81917148E-05
  -1.25000002E-02  -1.86595571E-05
  -1.24500003E-02  -1.91175477E-05
  -1.24000004E-02  -1.95755383E-05
  -1.23500004E-02  -2.00453105E-05
  -1.22999996E-02  -2.05355136E-05
  -1.22499997E-02  -2.10479629E-05
  -1.21999998E-02  -2.15770760E-05
  -1.21499998E-02  -2.21125356E-05
  -1.20999999E-02  -2.26441643E-05
  -1.20500000E-02  -2.31667545E-05
  -1.20000001E-02  -2.36826436E-05
  -1.19500002E-02  -2.42010319E-05
  -1.19000003E-02  -2.47342123E-05
  -1.18500004E-02  -2.52923910E-05
  -1.18000004E-02  -2.58794407E-05
  -1.17499996E-02  -2.64914815E-05
  -1.16999997E-02  -2.71189074E-05
  -1.16499998E-02  -2.77509189E-05
  -1.15999999E-02  -2.83807058E-05
  -1.15499999E-02  -2.90088210E-05
  -1.15000000E-02  -2.96433427E-05
  -1.14500001E-02  -3.02967692E-05
  -1.14000002E-02  -3.09809002E-05
  -1.13500003E-02  -3.17021804E-05
  -1.13000004E-02  -3.24594293E-05
  -1.12500004E-02  -3.32448581E-05
  -1.11999996E-02  -3.40481674E-05
  -1.11499997E-02  -3.48617868E-05
  -1.10999998E-02  -3.56846067E-05
  -1.10499999E-02  -3.65229862E-05
  -1.09999999E-02  -3.73883449E-05
  -1.09500000E-02  -3.82924190E-05
  -1.09000001E-02  -3.92423208E-05
  -1.08500002E-02  -4.02377846E-05
  -1.08000003E-02  -4.12716472E-05
  -1.07500004E-02  -4.23333768E-05
  -1.07000005E-02  -4.34142785E-05
  -1.06499996E-02  -4.45119840E-05
  -1.05999997E-02  -4.56320522E-05
  -1.05499998E-02  -4.67860518E-05
  -1.04999999E-02  -4.79872215E-05
  -1.04499999E-02  -4.92451982E-05
  -1.04000000E-02  -5.05623248E-05
  -1.03500001E-02  -5.19333444E-05
  -1.03000002E-02  -5.33483799E-05
  -1.02500003E-02  -5.47978379E-05
  -1.02000004E-02  -5.62772220E-05
  -1.01500005E-02  -5.77894825E-05
  -1.00999996E-02  -5.93440964E-05
  -1.00499997E-02  -6.09531744E-05
  -9.99999978E-03  -6.26263136E-05
  -9.94999986E-03  -6.43667372E-05
  -9.89999995E-03  -6.61701124E-05
  -9.85000003E-03  -6.80269004E-05
  -9.80000012E-03  -6.99272132E-05
  -9.75000020E-03  -7.18655210E-05
  -9.70000029E-03  -7.38435774E-05
  -9.65000037E-03  -7.58701499E-05
  -9.60000046E-03  -7.79574984E-05
  -9.54999961E-03  -8.01164861E-05
  -9.49999969E-03  -8.23522059E-05
  -9.44999978E-03  -8.46621406E-05
  -9.39999986E-03  -8.70381409E-05
  -9.34999995E-03  -8.94706609E-05
  -9.30000003E-03  -9.19536760E-05
  -9.25000012E-03  -9.44882413E-05
  -9.20000020E-03  -9.70823312E-05
  -9.15000029E-03  -9.97480820E-05
  -9.10000037E-03  -1.02497019E-04
  -9.05000046E-03  -1.05335312E-04
  -8.99999961E-03  -1.08261826E-04
  -8.94999970E-03  -1.11268724E-04
  -8.89999978E-03  -1.14345799E-04
  -8.84999987E-03  -1.17485630E-04
  -8.79999995E-03  -1.20687160E-04
  -8.75000004E-03  -1.23956735E-04
  -8.70000012E-03  -1.27305437E-04
  -8.65000021E-03  -1.30744796E-04
  -8.60000029E-03  -1.34282105E-04
  -8.55000038E-03  -1.37917945E-04
  -8.50000046E-03  -1.41646567E-04
  -8.44999962E-03  -1.45459300E-04
  -8.39999970E-03  -1.49349507E-04
  -8.34999979E-03  -1.53316287E-04
  -8.29999987E-03  -1.57366041E-04
  -8.24999996E-03  -1.61510397E-04
  -8.20000004E-03  -1.65761987E-04
  -8.15000013E-03  -1.70129948E-04
  -8.10000021E-03  -1.74616856E-04
  -8.05000030E-03  -1.79218579E-04
  -8.00000038E-03  -1.83927608E-04
  -7.95000046E-03  -1.88737729E-04
  -7.89999962E-03  -1.93647633E-04
  -7.84999970E-03  -1.98662819E-04
  -7.79999979E-03  -2.03794407E-04
  -7.74999987E-03  -2.09054851E-04
  -7.69999996E-03  -2.14453103E-04
  -7.65000004E-03  -2.19991882E-04
  -7.60000013E-03  -2.25667769E-04
  -7.55000021E-03  -2.31473648E-04
  -7.49999983E-03  -2.37402986E-04
  -7.44999992E-03  -2.43454429E-04
  -7.40000000E-03  -2.49633129E-04
  -7.35000009E-03  -2.55950028E-04
  -7.30000017E-03  -2.62418180E-04
  -7.24999979E-03  -2.69048323E-04
  -7.19999988E-03  -2.75845872E-04
  -7.14999996E-03  -2.82809749E-04
  -7.10000005E-03  -2.89934978E-04
  -7.05000013E-03  -2.97216640E-04
  -7.00000022E-03  -3.04654066E-04
  -6.94999984E-03  -3.12252581E-04
  -6.89999992E-03  -3.20022751E-04
  -6.85000001E-03  -3.27977876E-04
  -6.80000009E-03  -3.36129218E-04
  -6.75000018E-03  -3.44482920E-04
  -6.69999979E-03  -3.53038864E-04
  -6.64999988E-03  -3.61792510E-04
  -6.59999996E-03  -3.70739173E-04
  -6.55000005E-03  -3.79877602E-04
  -6.50000013E-03  -3.89212946E-04
  -6.45000022E-03  -3.98755481E-04
  -6.39999984E-03  -4.08516644E-04
  -6.34999992E-03  -4.18507378E-04
  -6.30000001E-03  -4.28734114E-04
  -6.25000009E-03  -4.39197378E-04
  -6.20000018E-03  -4.49894054E-04
  -6.14999980E-03  -4.60820418E-04
  -6.09999988E-03  -4.71976033E-04
  -6.04999997E-03  -4.83366690E-04
  -6.00000005E-03  -4.95003187E-04
  -5.95000014E-03  -5.06898155E-04
  -5.90000022E-03  -5.19062916E-04
  -5.84999984E-03  -5.31504629E-04
  -5.79999993E-03  -5.44224808E-04
  -5.75000001E-03  -5.57220832E-04
  -5.70000010E-03  -5.70491364E-04
  -5.65000018E-03  -5.84037742E-04
  -5.59999980E-03  -5.97865321E-04
  -5.54999989E-03  -6.11985102E-04
  -5.49999997E-03  -6.26409310E-04
  -5.45000006E-03  -6.41147548E-04
  -5.40000014E-03  -6.56206510E-04
  -5.35000023E-03  -6.71587361E-04
  -5.29999984E-03  -6.87287597E-04
  -5.24999993E-03  -7.03306228E-04
  -5.20000001E-03  -7.19644420E-04
  -5.15000010E-03  -7.36307120E-04
  -5.10000018E-03  -7.53304514E-04
  -5.04999980E-03  -7.70648068E-04
  -4.99999989E-03  -7.88347621E-04
  -4.94999997E-03  -8.06409982E-04
  -4.90000006E-03  -8.24838586E-04
  -4.85000014E-03  -8.43633199E-04
  -4.80000023E-03  -8.62794463E-04
  -4.74999985E-03  -8.82326392E-04
  -4.69999993E-03  -9.02236090E-04
  -4.65000002E-03  -9.22536303E-04
  -4.60000010E-03  -9.43239836E-04
  -4.55000019E-03  -9.64356062E-04
  -4.49999981E-03  -9.85890278E-04
  -4.44999989E-03  -1.00784458E-03
  -4.39999998E-03  -1.03021949E-03
  -4.35000006E-03  -1.05301442E-03
  -4.30000015E-03  -1.07623509E-03
  -4.25000023E-03  -1.09989115E-03
  -4.19999985E-03  -1.12399319E-03
  -4.14999994E-03  -1.14855263E-03
  -4.10000002E-03  -1.17357809E-03
  -4.05000011E-03  -1.19907607E-03
  -4.00000019E-03  -1.22504798E-03
  -3.94999981E-03  -1.25149149E-03
  -3.89999989E-03  -1.27841101E-03
  -3.84999998E-03  -1.30581495E-03
  -3.80000006E-03  -1.33371446E-03
  -3.74999992E-03  -1.36212201E-03
  -3.70000000E-03  -1.39105238E-03
  -3.65000009E-03  -1.42051582E-03
  -3.59999994E-03  -1.45051582E-03
  -3.55000002E-03  -1.48105097E-03
  -3.50000011E-03  -1.51212141E-03
  -3.44999996E-03  -1.54373341E-03
  -3.40000005E-03  -1.57589850E-03
  -3.34999990E-03  -1.60863006E-03
  -3.29999998E-03  -1.64194603E-03
  -3.25000007E-03  -1.67586189E-03
  -3.19999992E-03  -1.71038334E-03
  -3.15000000E-03  -1.74550922E-03
  -3.10000009E-03  -1.78123859E-03
  -3.04999994E-03  -1.81757286E-03
  -3.00000003E-03  -1.85451796E-03
  -2.95000011E-03  -1.89208868E-03
  -2.89999996E-03  -1.93030247E-03
  -2.85000005E-03  -1.96917588E-03
  -2.79999990E-03  -2.00872193E-03
  -2.74999999E-03  -2.04894622E-03
  -2.70000007E-03  -2.08984595E-03
  -2.64999992E-03  -2.13141763E-03
  -2.60000001E-03  -2.17366288E-03
  -2.55000009E-03  -2.21659127E-03
  -2.49999994E-03  -2.26021605E-03
  -2.45000003E-03  -2.30455655E-03
  -2.40000011E-03  -2.34963582E-03
  -2.34999997E-03  -2.39546713E-03
  -2.30000005E-03  -2.44205841E-03
  -2.24999990E-03  -2.48941290E-03
  -2.19999999E-03  -2.53752829E-03
  -2.15000007E-03  -2.58639990E-03
  -2.09999993E-03  -2.63603334E-03
  -2.05000001E-03  -2.68644607E-03
  -2.00000009E-03  -2.73765880E-03
  -1.94999995E-03  -2.78969482E-03
  -1.90000003E-03  -2.84256949E-03
  -1.85000000E-03  -2.89628445E-03
  -1.79999997E-03  -2.95083621E-03
  -1.75000005E-03  -3.00621986E-03
  -1.70000002E-03  -3.06243589E-03
  -1.64999999E-03  -3.11948569E-03
  -1.59999996E-03  -3.17738391E-03
  -1.55000004E-03  -3.23615992E-03
  -1.50000001E-03  -3.29583511E-03
  -1.44999998E-03  -3.35643045E-03
  -1.39999995E-03  -3.41795105E-03
  -1.35000004E-03  -3.48039251E-03
  -1.30000000E-03  -3.54374689E-03
  -1.24999997E-03  -3.60800442E-03
  -1.20000006E-03  -3.67316976E-03
  -1.15000003E-03  -3.73925851E-03
  -1.09999999E-03  -3.80630302E-03
  -1.04999996E-03  -3.87433660E-03
  -1.00000005E-03  -3.94338043E-03
  -9.50000016E-04  -4.01343405E-03
  -8.99999985E-04  -4.08448232E-03
  -8.50000011E-04  -4.15651128E-03
  -7.99999980E-04  -4.22950927E-03
  -7.50000007E-04  -4.30347398E-03
  -6.99999975E-04  -4.37842496E-03
  -6.50000002E-04  -4.45439713E-03
  -6.00000028E-04  -4.53142915E-03
  -5.49999997E-04  -4.60954104E-03
  -5.00000024E-04  -4.68873652E-03
  -4.49999992E-04  -4.76900209E-03
  -3.99999990E-04  -4.85030841E-03
  -3.49999988E-04  -4.93263500E-03
  -3.00000014E-04  -5.01597673E-03
  -2.50000012E-04  -5.10035595E-03
  -1.99999995E-04  -5.18581225E-03
  -1.50000007E-04  -5.27239405E-03
  -9.99999975E-05  -5.36012417E-03
  -4.99999987E-05  -5.44900028E-03
   0.00000000      -5.53901168E-03
   4.99999987E-05  -5.63012110E-03
   9.99999975E-05  -5.72229270E-03
   1.50000007E-04  -5.81552787E-03
   1.99999995E-04  -5.90984756E-03
   2.50000012E-04  -6.00527972E-03
   3.00000014E-04  -6.10187370E-03
   3.49999988E-04  -6.19966350E-03
   3.99999990E-04  -6.29865099E-03
   4.49999992E-04  -6.39881846E-03
   5.00000024E-04  -6.50011981E-03
   5.49999997E-04  -6.60251919E-03
   6.00000028E-04  -6.70601381E-03
   6.50000002E-04  -6.81061158E-03
   6.99999975E-04  -6.91633951E-03
   7.50000007E-04  -7.02323625E-03
   7.99999980E-04  -7.13133439E-03
   8.50000011E-04  -7.24064093E-03
   8.99999985E-04  -7.35113909E-03
   9.50000016E-04  -7.46279163E-03
   1.00000005E-03  -7.57555757E-03
   1.04999996E-03  -7.68940710E-03
   1.09999999E-03  -7.80435000E-03
   1.15000003E-03  -7.92041980E-03
   1.20000006E-03  -8.03766213E-03
   1.24999997E-03  -8.15610029E-03
   1.30000000E-03  -8.27574264E-03
   1.35000004E-03  -8.39658547E-03
   1.39999995E-03  -8.51855986E-03
   1.44999998E-03  -8.64159968E-03
   1.50000001E-03  -8.76568258E-03
   1.55000004E-03  -8.89082532E-03
   1.59999996E-03  -9.01704747E-03
   1.64999999E-03  -9.14440770E-03
   1.70000002E-03  -9.27295536E-03
   1.75000005E-03  -9.40268487E-03
   1.79999997E-03  -9.53354966E-03
   1.85000000E-03  -9.66547430E-03
   1.90000003E-03  -9.79838800E-03
   1.94999995E-03  -9.93224327E-03
   2.00000009E-03  -1.00670485E-02
   2.05000001E-03  -1.02028493E-02
   2.09999993E-03  -1.03397071E-02
   2.15000007E-03  -1.04776723E-02
   2.19999999E-03  -1.06167588E-02
   2.24999990E-03  -1.07569294E-02
   2.30000005E-03  -1.08980807E-02
   2.34999997E-03  -1.10401018E-02
   2.40000011E-03  -1.11829340E-02
   2.45000003E-03  -1.13265719E-02
   2.49999994E-03  -1.14710703E-02
   2.55000009E-03  -1.16164936E-02
   2.60000001E-03  -1.17628723E-02
   2.64999992E-03  -1.19102336E-02
   2.70000007E-03  -1.20585384E-02
   2.74999999E-03  -1.22076850E-02
   2.79999990E-03  -1.23575609E-02