  -3.99999991E-02   0.00000000    
  -3.99499983E-02   0.00000000    
  -3.99000011E-02   0.00000000    
  -3.98500003E-02   0.00000000    
  -3.97999994E-02   0.00000000    
  -3.97499986E-02  -1.69913217E-21
  -3.97000015E-02  -1.30522000E-20
  -3.96500006E-02  -5.21450716E-20
  -3.95999998E-02  -1.45513930E-19
  -3.95499989E-02  -3.23956576E-19
  -3.95000018E-02  -6.25209887E-19
  -3.94500010E-02  -1.10134301E-18
  -3.94000001E-02  -1.80812045E-18
  -3.93499993E-02  -2.75854519E-18
  -3.92999984E-02  -3.86681583E-18
  -3.92500013E-02  -4.94755874E-18
  -3.92000005E-02  -5.80644270E-18
  -3.91499996E-02  -6.36859464E-18
  -3.90999988E-02  -6.73334490E-18
  -3.90500017E-02  -7.09616245E-18
  -3.90000008E-02  -7.59761918E-18
  -3.89500000E-02  -8.21317722E-18
  -3.88999991E-02  -8.72625915E-18
  -3.88499983E-02  -8.72902938E-18
  -3.88000011E-02  -7.60984326E-18
  -3.87500003E-02  -4.59835286E-18
  -3.86999995E-02   1.02904308E-18
  -3.86499986E-02   9.64065604E-18
  -3.86000015E-02   2.11021318E-17
  -3.85500006E-02   3.50315655E-17
  -3.84999998E-02   5.13803138E-17
  -3.84499989E-02   7.09356808E-17
  -3.84000018E-02   9.53591148E-17
  -3.83500010E-02   1.26742387E-16
  -3.83000001E-02   1.67008811E-16
  -3.82499993E-02   2.17471170E-16
  -3.81999984E-02   2.78585431E-16
  -3.81500013E-02   3.49803617E-16
  -3.81000005E-02   4.29603941E-16
  -3.80499996E-02   5.15952597E-16
  -3.79999988E-02   6.07238926E-16
  -3.79500017E-02   7.03204371E-16
  -3.79000008E-02   8.05145262E-16
  -3.78500000E-02   9.15111950E-16
  -3.77999991E-02   1.03462660E-15
  -3.77499983E-02   1.16381385E-15
  -3.77000012E-02   1.30138693E-15
  -3.76500003E-02   1.44516262E-15
  -3.75999995E-02   1.59249616E-15
  -3.75499986E-02   1.74044592E-15
  -3.75000015E-02   1.88595803E-15
  -3.74500006E-02   2.02624596E-15
  -3.73999998E-02   2.15900630E-15
  -3.73499990E-02   2.28191375E-15
  -3.73000018E-02   2.39143617E-15
  -3.72500010E-02   2.48176630E-15
  -3.72000001E-02   2.54468052E-15
  -3.71499993E-02   2.57030157E-15
  -3.70999984E-02   2.54797654E-15
  -3.70500013E-02   2.46674248E-15
  -3.70000005E-02   2.31580078E-15
  -3.69499996E-02   2.08588640E-15
  -3.68999988E-02   1.77158794E-15
  -3.68500017E-02   1.37327207E-15
  -3.68000008E-02   8.96838696E-16
  -3.67500000E-02   3.50689640E-16
  -3.66999991E-02  -2.58930163E-16
  -3.66499983E-02  -9.32156370E-16
  -3.66000012E-02  -1.67766088E-15
  -3.65500003E-02  -2.51204582E-15
  -3.64999995E-02  -3.45636368E-15
  -3.64499986E-02  -4.53015158E-15
  -3.64000015E-02  -5.74448300E-15
  -3.63500006E-02  -7.09710653E-15
  -3.62999998E-02  -8.57306525E-15
  -3.62499990E-02  -1.01518474E-14
  -3.62000018E-02  -1.18178621E-14
  -3.61500010E-02  -1.35679855E-14
  -3.61000001E-02  -1.54105668E-14
  -3.60499993E-02  -1.73548530E-14
  -3.59999985E-02  -1.93952842E-14
  -3.59500013E-02  -2.14983586E-14
  -3.59000005E-02  -2.35994492E-14
  -3.58499996E-02  -2.56134581E-14
  -3.57999988E-02  -2.74578215E-14
  -3.57500017E-02  -2.90804503E-14
  -3.57000008E-02  -3.04804095E-14
  -3.56500000E-02  -3.17089054E-14
  -3.55999991E-02  -3.28445563E-14
  -3.55499983E-02  -3.39493346E-14
  -3.55000012E-02  -3.50234436E-14
  -3.54500003E-02  -3.59817055E-14
  -3.53999995E-02  -3.66663554E-14
  -3.53499986E-02  -3.68948375E-14
  -3.53000015E-02  -3.65237829E-14
  -3.52500007E-02  -3.55011600E-14
  -3.51999998E-02  -3.38809011E-14
  -3.51499990E-02  -3.17888551E-14
  -3.51000018E-02  -2.93497187E-14
  -3.50500010E-02  -2.66048068E-14
  -3.50000001E-02  -2.34599632E-14
  -3.49499993E-02  -1.96951796E-14
  -3.48999985E-02  -1.50412469E-14
  -3.48500013E-02  -9.29523538E-15
  -3.48000005E-02  -2.42202231E-15
  -3.47499996E-02   5.41084858E-15
  -3.46999988E-02   1.38904840E-14
  -3.46500017E-02   2.26905066E-14
  -3.46000008E-02   3.16214916E-14
  -3.45500000E-02   4.07290101E-14
  -3.44999991E-02   5.02858185E-14
  -3.44499983E-02   6.06688433E-14
  -3.44000012E-02   7.21657163E-14
  -3.43500003E-02   8.47959127E-14
  -3.42999995E-02   9.82366044E-14
  -3.42499986E-02   1.11904111E-13
  -3.42000015E-02   1.25171534E-13
  -3.41500007E-02   1.37631754E-13
  -3.40999998E-02   1.49280572E-13
  -3.40499990E-02   1.60519493E-13
  -3.40000018E-02   1.71955373E-13
  -3.39500010E-02   1.84071373E-13
  -3.39000002E-02   1.96913449E-13
  -3.38499993E-02   2.09944692E-13
  -3.37999985E-02   2.22155261E-13
  -3.37500013E-02   2.32405024E-13
  -3.37000005E-02   2.39862519E-13
  -3.36499996E-02   2.44342822E-13
  -3.35999988E-02   2.46372611E-13
  -3.35500017E-02   2.46922654E-13
  -3.35000008E-02   2.46903897E-13
  -3.34500000E-02   2.46647646E-13
  -3.33999991E-02   2.45620147E-13
  -3.33499983E-02   2.42531906E-13
  -3.33000012E-02   2.35824652E-13
  -3.32500003E-02   2.24336283E-13
  -3.31999995E-02   2.07841990E-13
  -3.31499986E-02   1.87202345E-13
  -3.31000015E-02   1.64012548E-13
  -3.30500007E-02   1.39873681E-13
  -3.29999998E-02   1.15598896E-13
  -3.29499990E-02   9.07278267E-14
  -3.29000019E-02   6.36118897E-14
  -3.28500010E-02   3.20823554E-14
  -3.28000002E-02  -5.56621052E-15
  -3.27499993E-02  -4.97208137E-14
  -3.26999985E-02  -9.91427806E-14
  -3.26500013E-02  -1.51397341E-13
  -3.26000005E-02  -2.03870598E-13
  -3.25499997E-02  -2.54932794E-13
  -3.24999988E-02  -3.04702471E-13
  -3.24500017E-02  -3.55014331E-13
  -3.24000008E-02  -4.08540606E-13
  -3.23500000E-02  -4.67412946E-13
  -3.22999991E-02  -5.31961356E-13
  -3.22499983E-02  -6.00183802E-13
  -3.22000012E-02  -6.68265410E-13
  -3.21500003E-02  -7.31990640E-13
  -3.20999995E-02  -7.88452474E-13
  -3.20499986E-02  -8.37271441E-13
  -3.20000015E-02  -8.80711736E-13
  -3.19500007E-02  -9.22560097E-13
  -3.18999998E-02  -9.66207583E-13
  -3.18499990E-02  -1.01278079E-12
  -3.18000019E-02  -1.06020282E-12
  -3.17500010E-02  -1.10368615E-12
  -3.17000002E-02  -1.13752757E-12
  -3.16499993E-02  -1.15745033E-12
  -3.15999985E-02  -1.16243451E-12
  -3.15500014E-02  -1.15513718E-12
  -3.15000005E-02  -1.14061668E-12
  -3.14499997E-02  -1.12385296E-12
  -3.13999988E-02  -1.10716406E-12
  -3.13500017E-02  -1.08873511E-12
  -3.13000008E-02  -1.06302933E-12
  -3.12500000E-02  -1.02300178E-12
  -3.11999992E-02  -9.63188405E-13
  -3.11500002E-02  -8.82271036E-13
  -3.10999993E-02  -7.83885543E-13
  -3.10500003E-02  -6.75184626E-13
  -3.09999995E-02  -5.63694165E-13
  -3.09500005E-02  -4.53830197E-13
  -3.08999997E-02  -3.44692618E-13
  -3.08500007E-02  -2.30250335E-13
  -3.07999998E-02  -1.01975855E-13
  -3.07500008E-02   4.71667349E-14
  -3.07000000E-02   2.19174451E-13
  -3.06499992E-02   4.09589490E-13
  -3.06000002E-02   6.08994029E-13
  -3.05499993E-02   8.06871334E-13
  -3.05000003E-02   9.96154656E-13
  -3.04499995E-02   1.17637172E-12
  -3.04000005E-02   1.35383718E-12
  -3.03499997E-02   1.53863933E-12
  -3.03000007E-02   1.73964543E-12
  -3.02499998E-02   1.95974291E-12
  -3.02000009E-02   2.19354808E-12
  -3.01500000E-02   2.42878330E-12
  -3.00999992E-02   2.65088147E-12
  -3.00500002E-02   2.84883987E-12
  -2.99999993E-02   3.01967500E-12
  -2.99500003E-02   3.16935280E-12
  -2.98999995E-02   3.30961127E-12
  -2.98500005E-02   3.45197525E-12
  -2.97999997E-02   3.60161575E-12
  -2.97500007E-02   3.75389867E-12
  -2.96999998E-02   3.89534368E-12
  -2.96500009E-02   4.00874906E-12
  -2.96000000E-02   4.08030163E-12
  -2.95499992E-02   4.10546900E-12
  -2.95000002E-02   4.09088605E-12
  -2.94499993E-02   4.05119471E-12
  -2.94000003E-02   4.00208035E-12
  -2.93499995E-02   3.95257785E-12
  -2.93000005E-02   3.90017706E-12
  -2.92499997E-02   3.83110687E-12
  -2.92000007E-02   3.72586293E-12
  -2.91499998E-02   3.56763620E-12
  -2.91000009E-02   3.34986574E-12
  -2.90500000E-02   3.07940977E-12
  -2.89999992E-02   2.77371333E-12
  -2.89500002E-02   2.45304970E-12
  -2.88999993E-02   2.13123139E-12
  -2.88500004E-02   1.80902439E-12
  -2.87999995E-02   1.47342175E-12
  -2.87500005E-02   1.10334203E-12
  -2.86999997E-02   6.79372899E-13
  -2.86500007E-02   1.93223868E-13
  -2.85999998E-02  -3.47465925E-13
  -2.85500009E-02  -9.21335382E-13
  -2.85000000E-02  -1.50175651E-12
  -2.84499992E-02  -2.06789013E-12
  -2.84000002E-02  -2.61338499E-12
  -2.83499993E-02  -3.14868010E-12
  -2.83000004E-02  -3.69565272E-12
  -2.82499995E-02  -4.27679680E-12
  -2.82000005E-02  -4.90369897E-12
  -2.81499997E-02  -5.57003185E-12
  -2.81000007E-02  -6.25239790E-12
  -2.80499998E-02  -6.91886565E-12
  -2.80000009E-02  -7.54152556E-12
  -2.79500000E-02  -8.10747389E-12
  -2.78999992E-02  -8.62317336E-12
  -2.78500002E-02  -9.11007207E-12
  -2.77999993E-02  -9.59324981E-12
  -2.77500004E-02  -1.00880762E-11
  -2.76999995E-02  -1.05909092E-11
  -2.76500005E-02  -1.10781419E-11
  -2.75999997E-02  -1.15143086E-11
  -2.75500007E-02  -1.18658113E-11
  -2.74999999E-02  -1.21142081E-11
  -2.74500009E-02  -1.22630534E-11
  -2.74000000E-02  -1.23350366E-11
  -2.73499992E-02  -1.23605119E-11
  -2.73000002E-02  -1.23623932E-11
  -2.72499993E-02  -1.23442020E-11
  -2.72000004E-02  -1.22866968E-11
  -2.71499995E-02  -1.21548301E-11
  -2.71000005E-02  -1.19121232E-11
  -2.70499997E-02  -1.15361679E-11
  -2.70000007E-02  -1.10283128E-11
  -2.69499999E-02  -1.04130524E-11
  -2.69000009E-02  -9.72715658E-12
  -2.68500000E-02  -9.00319923E-12
  -2.67999992E-02  -8.25475539E-12
  -2.67500002E-02  -7.46998470E-12
  -2.66999993E-02  -6.61665601E-12
  -2.66500004E-02  -5.65664703E-12
  -2.65999995E-02  -4.56362552E-12
  -2.65500005E-02  -3.33611719E-12
  -2.64999997E-02  -2.00004553E-12
  -2.64500007E-02  -5.99402093E-13
  -2.63999999E-02   8.21048579E-13
  -2.63500009E-02   2.23351524E-12
  -2.63000000E-02   3.63751976E-12
  -2.62499992E-02   5.05812189E-12
  -2.62000002E-02   6.53256095E-12
  -2.61499994E-02   8.09102525E-12
  -2.61000004E-02   9.73998746E-12
  -2.60499995E-02   1.14555258E-11
  -2.60000005E-02   1.31898060E-11
  -2.59499997E-02   1.48880890E-11
  -2.59000007E-02   1.65089730E-11
  -2.58499999E-02   1.80389800E-11
  -2.58000009E-02   1.94949699E-11
  -2.57500000E-02   2.09130976E-11
  -2.56999992E-02   2.23289477E-11
  -2.56500002E-02   2.37574370E-11
  -2.55999994E-02   2.51813362E-11
  -2.55500004E-02   2.65537141E-11
  -2.54999995E-02   2.78135015E-11
  -2.54500005E-02   2.89076488E-11
  -2.53999997E-02   2.98102792E-11
  -2.53500007E-02   3.05303526E-11
  -2.52999999E-02   3.11041921E-11
  -2.52500009E-02   3.15759432E-11
  -2.52000000E-02   3.19742843E-11
  -2.51499992E-02   3.22956835E-11
  -2.51000002E-02   3.25016646E-11
  -2.50499994E-02   3.25317794E-11
  -2.50000004E-02   3.23269571E-11
  -2.49499995E-02   3.18533533E-11
  -2.49000005E-02   3.11161895E-11
  -2.48499997E-02   3.01572031E-11
  -2.48000007E-02   2.90363861E-11
  -2.47499999E-02   2.78054923E-11
  -2.47000009E-02   2.64848352E-11
  -2.46500000E-02   2.50535825E-11
  -2.45999992E-02   2.34582527E-11
  -2.45500002E-02   2.16361859E-11
  -2.44999994E-02   1.95441181E-11
  -2.44500004E-02   1.71794558E-11
  -2.43999995E-02   1.45847258E-11
  -2.43500005E-02   1.18326633E-11
  -2.42999997E-02   8.99798205E-12
  -2.42500007E-02   6.12774241E-12
  -2.41999999E-02   3.22342391E-12
  -2.41500009E-02   2.43013942E-13
  -2.41000000E-02  -2.87713560E-12
  -2.40499992E-02  -6.18964732E-12
  -2.40000002E-02  -9.70681955E-12
  -2.39499994E-02  -1.33877597E-11
  -2.39000004E-02  -1.71482516E-11
  -2.38499995E-02  -2.08897240E-11
  -2.38000005E-02  -2.45352020E-11
  -2.37499997E-02  -2.80566109E-11
  -2.37000007E-02  -3.14809845E-11
  -2.36499999E-02  -3.48722058E-11
  -2.36000009E-02  -3.82954744E-11
  -2.35500000E-02  -4.17797290E-11
  -2.34999992E-02  -4.52949345E-11
  -2.34500002E-02  -4.87547780E-11
  -2.33999994E-02  -5.20447296E-11
  -2.33500004E-02  -5.50637348E-11
  -2.32999995E-02  -5.77613998E-11
  -2.32500006E-02  -6.01539721E-11
  -2.31999997E-02  -6.23110452E-11
  -2.31500007E-02  -6.43180856E-11
  -2.30999999E-02  -6.62305349E-11
  -2.30500009E-02  -6.80399417E-11
  -2.30000000E-02  -6.96678895E-11
  -2.29499992E-02  -7.09914905E-11
  -2.29000002E-02  -7.18903617E-11
  -2.28499994E-02  -7.22948784E-11
  -2.28000004E-02  -7.22139362E-11
  -2.27499995E-02  -7.17290533E-11
  -2.27000006E-02  -7.09562131E-11
  -2.26499997E-02  -6.99914987E-11
  -2.26000007E-02  -6.88645113E-11
  -2.25499999E-02  -6.75208500E-11
  -2.25000009E-02  -6.58425606E-11
  -2.24500000E-02  -6.36988864E-11
  -2.23999992E-02  -6.10053466E-11
  -2.23500002E-02  -5.77649352E-11
  -2.22999994E-02  -5.40721010E-11
  -2.22500004E-02  -5.00763910E-11
  -2.21999995E-02  -4.59207672E-11
  -2.21500006E-02  -4.16815887E-11
  -2.20999997E-02  -3.73375220E-11
  -2.20500007E-02  -3.27824295E-11
  -2.19999999E-02  -2.78777921E-11
  -2.19500009E-02  -2.25221630E-11
  -2.19000001E-02  -1.67067159E-11
  -2.18499992E-02  -1.05312686E-11
  -2.18000002E-02  -4.17218256E-12
  -2.17499994E-02   2.18473308E-12
  -2.17000004E-02   8.41711683E-12
  -2.16499995E-02   1.45116957E-11
  -2.16000006E-02   2.05612211E-11
  -2.15499997E-02   2.67124725E-11
  -2.15000007E-02   3.30875535E-11
  -2.14499999E-02   3.97137254E-11
  -2.14000009E-02   4.64939788E-11
  -2.13500001E-02   5.32332060E-11
  -2.12999992E-02   5.97097510E-11
  -2.12500002E-02   6.57612020E-11
  -2.11999994E-02   7.13459083E-11
  -2.11500004E-02   7.65515568E-11
  -2.10999995E-02   8.15453954E-11
  -2.10500006E-02   8.64871508E-11
  -2.09999997E-02   9.14432974E-11
  -2.09500007E-02   9.63418512E-11
  -2.08999999E-02   1.00989356E-10
  -2.08500009E-02   1.05144310E-10
  -2.08000001E-02   1.08615124E-10
  -2.07499992E-02   1.11338612E-10
  -2.07000002E-02   1.13402829E-10
  -2.06499994E-02   1.15002542E-10
  -2.06000004E-02   1.16345850E-10
  -2.05499995E-02   1.17553606E-10
  -2.05000006E-02   1.18597077E-10
  -2.04499997E-02   1.19303581E-10
  -2.04000007E-02   1.19428856E-10
  -2.03499999E-02   1.18765386E-10
  -2.03000009E-02   1.17237983E-10
  -2.02500001E-02   1.14942764E-10
  -2.01999992E-02   1.12110751E-10
  -2.01500002E-02   1.09010655E-10
  -2.00999994E-02   1.05833980E-10
  -2.00500004E-02   1.02614257E-10
  -1.99999996E-02   9.92178700E-11
  -1.99500006E-02   9.54120186E-11
  -1.98999997E-02   9.09801193E-11
  -1.98500007E-02   8.58330004E-11
  -1.97999999E-02   8.00649963E-11
  -1.97500009E-02   7.39282455E-11
  -1.97000001E-02   6.77351231E-11
  -1.96499992E-02   6.17320986E-11
  -1.96000002E-02   5.60018178E-11
  -1.95499994E-02   5.04387851E-11
  -1.95000004E-02   4.48110195E-11
  -1.94499996E-02   3.88812142E-11
  -1.94000006E-02   3.25330596E-11
  -1.93499997E-02   2.58450952E-11
  -1.93000007E-02   1.90773716E-11
  -1.92499999E-02   1.25754398E-11
  -1.92000009E-02   6.63380809E-12
  -1.91500001E-02   1.38018026E-12
  -1.90999992E-02  -3.26647173E-12
  -1.90500002E-02  -7.54393076E-12
  -1.89999994E-02  -1.17231043E-11
  -1.89500004E-02  -1.59681452E-11
  -1.88999996E-02  -2.02438812E-11
  -1.88500006E-02  -2.43136275E-11
  -1.87999997E-02  -2.78299640E-11
  -1.87500007E-02  -3.04786509E-11
  -1.86999999E-02  -3.21109909E-11
  -1.86500009E-02  -3.28045958E-11
  -1.86000001E-02  -3.28238270E-11
  -1.85499992E-02  -3.24969288E-11
  -1.85000002E-02  -3.20646114E-11
  -1.84499994E-02  -3.15687997E-11
  -1.84000004E-02  -3.08324165E-11
  -1.83499996E-02  -2.95406859E-11
  -1.83000006E-02  -2.73882497E-11
  -1.82499997E-02  -2.42259685E-11
  -1.82000007E-02  -2.01408369E-11
  -1.81499999E-02  -1.54318155E-11
  -1.81000009E-02  -1.04921028E-11
  -1.80500001E-02  -5.65005724E-12
  -1.79999992E-02  -1.04123405E-12
  -1.79500002E-02   3.43032699E-12
  -1.78999994E-02   8.02247071E-12
  -1.78500004E-02   1.30079844E-11
  -1.77999996E-02   1.85164401E-11
  -1.77500006E-02   2.44368224E-11
  -1.76999997E-02   3.04254226E-11
  -1.76500008E-02   3.60165786E-11
  -1.75999999E-02   4.07872937E-11
  -1.75500009E-02   4.45011666E-11
  -1.75000001E-02   4.71667358E-11
  -1.74499992E-02   4.89823113E-11
  -1.74000002E-02   5.01924440E-11
  -1.73499994E-02   5.09198864E-11
  -1.73000004E-02   5.10504590E-11
  -1.72499996E-02   5.02224304E-11
  -1.72000006E-02   4.79268084E-11
  -1.71499997E-02   4.36737591E-11
  -1.71000008E-02   3.71500400E-11
  -1.70499999E-02   2.82962282E-11
  -1.70000009E-02   1.72685390E-11
  -1.69500001E-02   4.30131972E-12
  -1.68999992E-02  -1.04679130E-11
  -1.68500002E-02  -2.71317361E-11
  -1.67999994E-02  -4.60426697E-11
  -1.67500004E-02  -6.77262552E-11
  -1.66999996E-02  -9.27159391E-11
  -1.66500006E-02  -1.21383389E-10
  -1.65999997E-02  -1.53840357E-10
  -1.65500008E-02  -1.89956800E-10
  -1.64999999E-02  -2.29487443E-10
  -1.64500009E-02  -2.72250000E-10
  -1.64000001E-02  -3.18273102E-10
  -1.63499992E-02  -3.67849168E-10
  -1.63000003E-02  -4.21464474E-10
  -1.62499994E-02  -4.79640938E-10
  -1.62000004E-02  -5.42759448E-10
  -1.61499996E-02  -6.10944739E-10
  -1.61000006E-02  -6.84064028E-10
  -1.60499997E-02  -7.61841035E-10
  -1.60000008E-02  -8.44031456E-10
  -1.59499999E-02  -9.30584720E-10
  -1.59000009E-02  -1.02171560E-09
  -1.58500001E-02  -1.11785403E-09
  -1.57999992E-02  -1.21949295E-09
  -1.57500003E-02  -1.32700573E-09
  -1.56999994E-02  -1.44051293E-09
  -1.56500004E-02  -1.55986213E-09
  -1.55999996E-02  -1.68472902E-09
  -1.55499997E-02  -1.81479043E-09
  -1.54999997E-02  -1.94989469E-09
  -1.54499998E-02  -2.09015649E-09
  -1.53999999E-02  -2.23592789E-09
  -1.53500000E-02  -2.38765963E-09
  -1.53000001E-02  -2.54571497E-09
  -1.52500002E-02  -2.71022071E-09
  -1.52000003E-02  -2.88102342E-09
  -1.51500003E-02  -3.05777492E-09
  -1.51000004E-02  -3.24010219E-09
  -1.50499996E-02  -3.42778761E-09
  -1.49999997E-02  -3.62088182E-09
  -1.49499997E-02  -3.81969478E-09
  -1.48999998E-02  -4.02467037E-09
  -1.48499999E-02  -4.23620383E-09
  -1.48000000E-02  -4.45447457E-09
  -1.47500001E-02  -4.67938310E-09
  -1.47000002E-02  -4.91060703E-09
  -1.46500003E-02  -5.14776444E-09
  -1.46000003E-02  -5.39060219E-09
  -1.45500004E-02  -5.63913538E-09
  -1.44999996E-02  -5.89365445E-09
  -1.44499997E-02  -6.15461992E-09
  -1.43999998E-02  -6.42247544E-09
  -1.43499998E-02  -6.69747724E-09
  -1.42999999E-02  -6.97960800E-09
  -1.42500000E-02  -7.26861682E-09
  -1.42000001E-02  -7.56416885E-09
  -1.41500002E-02  -7.86603138E-09
  -1.41000003E-02  -8.17423462E-09
  -1.40500003E-02  -8.48909831E-09
  -1.40000004E-02  -8.81114914E-09
  -1.39499996E-02  -9.14093601E-09
  -1.38999997E-02  -9.47885148E-09
  -1.38499998E-02  -9.82501547E-09
  -1.37999998E-02  -1.01792983E-08
  -1.37499999E-02  -1.05414566E-08
  -1.37000000E-02  -1.09113225E-08
  -1.36500001E-02  -1.12889786E-08
  -1.36000002E-02  -1.16748184E-08
  -1.35500003E-02  -1.20694681E-08
  -1.35000004E-02  -1.24735982E-08
  -1.34500004E-02  -1.28877442E-08
  -1.33999996E-02  -1.33121922E-08
  -1.33499997E-02  -1.37469449E-08
  -1.32999998E-02  -1.41918655E-08
  -1.32499998E-02  -1.46468642E-08
  -1.31999999E-02  -1.51120805E-08
  -1.31500000E-02  -1.55879878E-08
  -1.31000001E-02  -1.60753242E-08
  -1.30500002E-02  -1.65749263E-08
  -1.30000003E-02  -1.70875154E-08
  -1.29500004E-02  -1.76135533E-08
  -1.29000004E-02  -1.81532069E-08
  -1.28499996E-02  -1.87064622E-08
  -1.27999997E-02  -1.92733296E-08
  -1.27499998E-02  -1.98540029E-08
  -1.26999998E-02  -2.04489865E-08
  -1.26499999E-02  -2.10590780E-08
  -1.26000000E-02  -2.16852154E-08
  -1.25500001E-02  -2.23282690E-08
  -1.25000002E-02  -2.29888517E-08
  -1.24500003E-02  -2.36672655E-08
  -1.24000004E-02  -2.43636151E-08
  -1.23500004E-02  -2.50779824E-08
  -1.22999996E-02  -2.58106390E-08
  -1.22499997E-02  -2.65621694E-08
  -1.21999998E-02  -2.73334511E-08
  -1.21499998E-02  -2.81254913E-08
  -1.20999999E-02  -2.89392386E-08
  -1.20500000E-02  -2.97754053E-08
  -1.20000001E-02  -3.06343821E-08
  -1.19500002E-02  -3.15162971E-08
  -1.19000003E-02  -3.24212230E-08
  -1.18500004E-02  -3.33494405E-08
  -1.18000004E-02  -3.43015785E-08
  -1.17499996E-02  -3.52786209E-08
  -1.16999997E-02  -3.62817829E-08
  -1.16499998E-02  -3.73122582E-08
  -1.15999999E-02  -3.83710095E-08
  -1.15499999E-02  -3.94586621E-08
  -1.15000000E-02  -4.05755429E-08
  -1.14500001E-02  -4.17218509E-08
  -1.14000002E-02  -4.28978773E-08
  -1.13500003E-02  -4.41041976E-08
  -1.13000004E-02  -4.53416931E-08
  -1.12500004E-02  -4.66114933E-08
  -1.11999996E-02  -4.79147353E-08
  -1.11499997E-02  -4.92523391E-08
  -1.10999998E-02  -5.06249336E-08
  -1.10499999E-02  -5.20329024E-08
  -1.09999999E-02  -5.34765867E-08
  -1.09500000E-02  -5.49565158E-08
  -1.09000001E-02  -5.64735991E-08
  -1.08500002E-02  -5.80291513E-08
  -1.08000003E-02  -5.96248029E-08
  -1.07500004E-02  -6.12622557E-08
  -1.07000005E-02  -6.29430019E-08
  -1.06499996E-02  -6.46680860E-08
  -1.05999997E-02  -6.64381687E-08
  -1.05499998E-02  -6.82536836E-08
  -1.04999999E-02  -7.01151563E-08
  -1.04499999E-02  -7.20233757E-08
  -1.04000000E-02  -7.39795212E-08
  -1.03500001E-02  -7.59850636E-08
  -1.03000002E-02  -7.80416300E-08
  -1.02500003E-02  -8.01507483E-08
  -1.02000004E-02  -8.23136901E-08
  -1.01500005E-02  -8.45313721E-08
  -1.00999996E-02  -8.68046044E-08
  -1.00499997E-02  -8.91343532E-08
  -9.99999978E-03  -9.15219829E-08
  -9.94999986E-03  -9.39693265E-08
  -9.89999995E-03  -9.64786580E-08
  -9.85000003E-03  -9.90522651E-08
  -9.80000012E-03  -1.01692386E-07
  -9.75000020E-03  -1.04400954E-07
  -9.70000029E-03  -1.07179510E-07
  -9.65000037E-03  -1.10029376E-07
  -9.60000046E-03  -1.12951909E-07
  -9.54999961E-03  -1.15948758E-07
  -9.49999969E-03  -1.19022026E-07
  -9.44999978E-03  -1.22174256E-07
  -9.39999986E-03  -1.25408178E-07
  -9.34999995E-03  -1.28726242E-07
  -9.30000003E-03  -1.32130623E-07
  -9.25000012E-03  -1.35623026E-07
  -9.20000020E-03  -1.39204914E-07
  -9.15000029E-03  -1.42877823E-07
  -9.10000037E-03  -1.46643586E-07
  -9.05000046E-03  -1.50504590E-07
  -8.99999961E-03  -1.54463621E-07
  -8.94999970E-03  -1.58523846E-07
  -8.89999978E-03  -1.62688451E-07
  -8.84999987E-03  -1.66960334E-07
  -8.79999995E-03  -1.71342052E-07
  -8.75000004E-03  -1.75835922E-07
  -8.70000012E-03  -1.80444218E-07
  -8.65000021E-03  -1.85169583E-07
  -8.60000029E-03  -1.90015186E-07
  -8.55000038E-03  -1.94984665E-07
  -8.50000046E-03  -2.00081928E-07
  -8.44999962E-03  -2.05310755E-07
  -8.39999970E-03  -2.10674457E-07
  -8.34999979E-03  -2.16176062E-07
  -8.29999987E-03  -2.21818226E-07
  -8.24999996E-03  -2.27603465E-07
  -8.20000004E-03  -2.33534479E-07
  -8.15000013E-03  -2.39614508E-07
  -8.10000021E-03  -2.45847190E-07
  -8.05000030E-03  -2.52236532E-07
  -8.00000038E-03  -2.58786542E-07
  -7.95000046E-03  -2.65500915E-07
  -7.89999962E-03  -2.72382721E-07
  -7.84999970E-03  -2.79434857E-07
  -7.79999979E-03  -2.86660310E-07
  -7.74999987E-03  -2.94062204E-07
  -7.69999996E-03  -3.01644150E-07
  -7.65000004E-03  -3.09410439E-07
  -7.60000013E-03  -3.17365760E-07
  -7.55000021E-03  -3.25515032E-07
  -7.49999983E-03  -3.33862687E-07
  -7.44999992E-03  -3.42412761E-07
  -7.40000000E-03  -3.51168808E-07
  -7.35000009E-03  -3.60134266E-07
  -7.30000017E-03  -3.69313000E-07
  -7.24999979E-03  -3.78709274E-07
  -7.19999988E-03  -3.88327692E-07
  -7.14999996E-03  -3.98173142E-07
  -7.10000005E-03  -4.08250656E-07
  -7.05000013E-03  -4.18565037E-07
  -7.00000022E-03  -4.29120576E-07
  -6.94999984E-03  -4.39921109E-07
  -6.89999992E-03  -4.50970248E-07
  -6.85000001E-03  -4.62271515E-07
  -6.80000009E-03  -4.73829346E-07
  -6.75000018E-03  -4.85648798E-07
  -6.69999979E-03  -4.97735300E-07
  -6.64999988E-03  -5.10094139E-07
  -6.59999996E-03  -5.22730431E-07
  -6.55000005E-03  -5.35648951E-07
  -6.50000013E-03  -5.48854246E-07
  -6.45000022E-03  -5.62350749E-07
  -6.39999984E-03  -5.76142781E-07
  -6.34999992E-03  -5.90235572E-07
  -6.30000001E-03  -6.04634693E-07
  -6.25000009E-03  -6.19346508E-07
  -6.20000018E-03  -6.34377329E-07
  -6.14999980E-03  -6.49733408E-07
  -6.09999988E-03  -6.65420373E-07
  -6.04999997E-03  -6.81442998E-07
  -6.00000005E-03  -6.97806684E-07
  -5.95000014E-03  -7.14516432E-07
  -5.90000022E-03  -7.31578098E-07
  -5.84999984E-03  -7.48997763E-07
  -5.79999993E-03  -7.66782023E-07
  -5.75000001E-03  -7.84937583E-07
  -5.70000010E-03  -8.03471039E-07
  -5.65000018E-03  -8.22388586E-07
  -5.59999980E-03  -8.41695794E-07
  -5.54999989E-03  -8.61397837E-07
  -5.49999997E-03  -8.81500682E-07
  -5.45000006E-03  -9.02010584E-07
  -5.40000014E-03  -9.22934476E-07
  -5.35000023E-03  -9.44279748E-07
  -5.29999984E-03  -9.66054358E-07
  -5.24999993E-03  -9.88265811E-07
  -5.20000001E-03  -1.01092155E-06
  -5.15000010E-03  -1.03402874E-06
  -5.10000018E-03  -1.05759443E-06
  -5.04999980E-03  -1.08162567E-06
  -4.99999989E-03  -1.10612984E-06
  -4.94999997E-03  -1.13111514E-06
  -4.90000006E-03  -1.15659100E-06
  -4.85000014E-03  -1.18256617E-06
  -4.80000023E-03  -1.20904906E-06
  -4.74999985E-03  -1.23604741E-06
  -4.69999993E-03  -1.26356895E-06
  -4.65000002E-03  -1.29162152E-06
  -4.60000010E-03  -1.32021250E-06
  -4.55000019E-03  -1.34935021E-06
  -4.49999981E-03  -1.37904317E-06
  -4.44999989E-03  -1.40930115E-06
  -4.39999998E-03  -1.44013381E-06
  -4.35000006E-03  -1.47155095E-06
  -4.30000015E-03  -1.50356175E-06
  -4.25000023E-03  -1.53617509E-06
  -4.19999985E-03  -1.56939973E-06
  -4.14999994E-03  -1.60324487E-06
  -4.10000002E-03  -1.63772052E-06
  -4.05000011E-03  -1.67283702E-06
  -4.00000019E-03  -1.70860585E-06
  -3.94999981E-03  -1.74503805E-06
  -3.89999989E-03  -1.78214464E-06
  -3.84999998E-03  -1.81993653E-06
  -3.80000006E-03  -1.85842418E-06
  -3.74999992E-03  -1.89761738E-06
  -3.70000000E-03  -1.93752680E-06
  -3.65000009E-03  -1.97816280E-06
  -3.59999994E-03  -2.01953753E-06
  -3.55000002E-03  -2.06166328E-06
  -3.50000011E-03  -2.10455210E-06
  -3.44999996E-03  -2.14821648E-06
  -3.40000005E-03  -2.19266803E-06
  -3.34999990E-03  -2.23791722E-06
  -3.29999998E-03  -2.28397539E-06
  -3.25000007E-03  -2.33085393E-06
  -3.19999992E-03  -2.37856534E-06
  -3.15000000E-03  -2.42712213E-06
  -3.10000009E-03  -2.47653770E-06
  -3.04999994E-03  -2.52682503E-06
  -3.00000003E-03  -2.57799820E-06
  -2.95000011E-03  -2.63007155E-06
  -2.89999996E-03  -2.68305689E-06
  -2.85000005E-03  -2.73696583E-06
  -2.79999990E-03  -2.79181177E-06
  -2.74999999E-03  -2.84760858E-06
  -2.70000007E-03  -2.90437174E-06
  -2.64999992E-03  -2.96211624E-06
  -2.60000001E-03  -3.02085868E-06
  -2.55000009E-03  -3.08061271E-06
  -2.49999994E-03  -3.14139334E-06
  -2.45000003E-03  -3.20321442E-06
  -2.40000011E-03  -3.26609074E-06
  -2.34999997E-03  -3.33003618E-06
  -2.30000005E-03  -3.39506482E-06
  -2.24999990E-03  -3.46119077E-06
  -2.19999999E-03  -3.52843085E-06
  -2.15000007E-03  -3.59680212E-06
  -2.09999993E-03  -3.66632116E-06
  -2.05000001E-03  -3.73700254E-06
  -2.00000009E-03  -3.80885967E-06
  -1.94999995E-03  -3.88190665E-06
  -1.90000003E-03  -3.95616053E-06
  -1.85000000E-03  -4.03163676E-06
  -1.79999997E-03  -4.10835264E-06
  -1.75000005E-03  -4.18632453E-06
  -1.70000002E-03  -4.26557199E-06
  -1.64999999E-03  -4.34611229E-06
  -1.59999996E-03  -4.42796500E-06
  -1.55000004E-03  -4.51114420E-06
  -1.50000001E-03  -4.59566490E-06
  -1.44999998E-03  -4.68154167E-06
  -1.39999995E-03  -4.76879313E-06
  -1.35000004E-03  -4.85743931E-06
  -1.30000000E-03  -4.94749656E-06
  -1.24999997E-03  -5.03898355E-06
  -1.20000006E-03  -5.13191890E-06
  -1.15000003E-03  -5.22631854E-06
  -1.09999999E-03  -5.32219883E-06
  -1.04999996E-03  -5.41957615E-06
  -1.00000005E-03  -5.51846733E-06
  -9.50000016E-04  -5.61888737E-06
  -8.99999985E-04  -5.72085582E-06
  -8.50000011E-04  -5.82438952E-06
  -7.99999980E-04  -5.92950892E-06
  -7.50000007E-04  -6.03623585E-06
  -6.99999975E-04  -6.14458713E-06
  -6.50000002E-04  -6.25457733E-06
  -6.00000028E-04  -6.36622281E-06
  -5.49999997E-04  -6.47954084E-06
  -5.00000024E-04  -6.59454827E-06
  -4.49999992E-04  -6.71126463E-06
  -3.99999990E-04  -6.82970722E-06
  -3.49999988E-04  -6.94989467E-06
  -3.00000014E-04  -7.07184881E-06
  -2.50000012E-04  -7.19558830E-06
  -1.99999995E-04  -7.32112721E-06
  -1.50000007E-04  -7.44848376E-06
  -9.99999975E-05  -7.57767248E-06
  -4.99999987E-05  -7.70870702E-06
   0.00000000      -7.84160329E-06
   4.99999987E-05  -7.97638222E-06
   9.99999975E-05  -8.11306654E-06
   1.50000007E-04  -8.25167444E-06
   1.99999995E-04  -8.39222048E-06
   2.50000012E-04  -8.53471556E-06
   3.00000014E-04  -8.67917424E-06
   3.49999988E-04  -8.82561653E-06
   3.99999990E-04  -8.97405607E-06
   4.49999992E-04  -9.12450651E-06
   5.00000024E-04  -9.27698147E-06
   5.49999997E-04  -9.43150098E-06
   6.00000028E-04  -9.58808687E-06
   6.50000002E-04  -9.74675550E-06
   6.99999975E-04  -9.90752142E-06
   7.50000007E-04  -1.00703937E-05
   7.99999980E-04  -1.02353852E-05
   8.50000011E-04  -1.04025121E-05
   8.99999985E-04  -1.05717909E-05
   9.50000016E-04  -1.07432370E-05
   1.00000005E-03  -1.09168641E-05
   1.04999996E-03  -1.10926867E-05
   1.09999999E-03  -1.12707239E-05
   1.15000003E-03  -1.14509921E-05
   1.20000006E-03  -1.16334968E-05
   1.24999997E-03  -1.18182443E-05
   1.30000000E-03  -1.20052482E-05
   1.35000004E-03  -1.21945232E-05
   1.39999995E-03  -1.23860837E-05
   1.44999998E-03  -1.25799424E-05
   1.50000001E-03  -1.27761132E-05
   1.55000004E-03  -1.29746086E-05
   1.59999996E-03  -1.31754359E-05
   1.64999999E-03  -1.33786089E-05
   1.70000002E-03  -1.35841346E-05
   1.75000005E-03  -1.37920242E-05
   1.79999997E-03  -1.40022839E-05
   1.85000000E-03  -1.42149265E-05
   1.90000003E-03  -1.44299693E-05
   1.94999995E-03  -1.46474240E-05
   2.00000009E-03  -1.48673007E-05
   2.05000001E-03  -1.50896067E-05
   2.09999993E-03  -1.53143501E-05
   2.15000007E-03  -1.55415346E-05
   2.19999999E-03  -1.57711675E-05
   2.24999990E-03  -1.60032560E-05
   2.30000005E-03  -1.62378092E-05
   2.34999997E-03  -1.64748326E-05
   2.40000011E-03  -1.67143462E-05
   2.45000003E-03  -1.69563555E-05
   2.49999994E-03  -1.72008622E-05
   2.55000009E-03  -1.74478701E-05
   2.60000001E-03  -1.76973826E-05
   2.64999992E-03  -1.79494109E-05
   2.70000007E-03  -1.82039585E-05
   2.74999999E-03  -1.84610253E-05
   2.79999990E-03  -1.87206151E-05