  -3.99999991E-02   0.00000000    
  -3.99499983E-02   0.00000000    
  -3.99000011E-02   0.00000000    
  -3.98500003E-02   0.00000000    
  -3.97999994E-02   2.38434501E-19
  -3.97499986E-02   2.10811053E-18
  -3.97000015E-02   9.44105156E-18
  -3.96500006E-02   2.81745062E-17
  -3.95999998E-02   6.14144944E-17
  -3.95499989E-02   9.88326976E-17
  -3.95000018E-02   1.04771087E-16
  -3.94500010E-02   1.55930560E-17
  -3.94000001E-02  -2.41880422E-16
  -3.93499993E-02  -7.07469023E-16
  -3.92999984E-02  -1.33454350E-15
  -3.92500013E-02  -1.95912474E-15
  -3.92000005E-02  -2.32765840E-15
  -3.91499996E-02  -2.19863347E-15
  -3.90999988E-02  -1.48893643E-15
  -3.90500017E-02  -3.90325620E-16
  -3.90000008E-02   6.32473308E-16
  -3.89500000E-02   1.00944029E-15
  -3.88999991E-02   3.57681473E-16
  -3.88499983E-02  -1.23468255E-15
  -3.88000011E-02  -3.10353952E-15
  -3.87500003E-02  -4.19648032E-15
  -3.86999995E-02  -3.52737384E-15
  -3.86499986E-02  -7.11915628E-16
  -3.86000015E-02   3.69562042E-15
  -3.85500006E-02   8.30360628E-15
  -3.84999998E-02   1.14767077E-14
  -3.84499989E-02   1.22144692E-14
  -3.84000018E-02   1.08960929E-14
  -3.83500010E-02   9.44589205E-15
  -3.83000001E-02   1.06936300E-14
  -3.82499993E-02   1.71015766E-14
  -3.81999984E-02   2.94145100E-14
  -3.81500013E-02   4.59368092E-14
  -3.81000005E-02   6.29273584E-14
  -3.80499996E-02   7.60905417E-14
  -3.79999988E-02   8.25662577E-14
  -3.79500017E-02   8.24792573E-14
  -3.79000008E-02   7.92038012E-14
  -3.78500000E-02   7.80384058E-14
  -3.77999991E-02   8.37514872E-14
  -3.77499983E-02   9.80922497E-14
  -3.77000012E-02   1.18516755E-13
  -3.76500003E-02   1.38906044E-13
  -3.75999995E-02   1.52116343E-13
  -3.75499986E-02   1.53245499E-13
  -3.75000015E-02   1.42038616E-13
  -3.74500006E-02   1.23181738E-13
  -3.73999998E-02   1.04225466E-13
  -3.73499990E-02   9.20505940E-14
  -3.73000018E-02   8.95335306E-14
  -3.72500010E-02   9.40019682E-14
  -3.72000001E-02   9.82163298E-14
  -3.71499993E-02   9.33876186E-14
  -3.70999984E-02   7.27588833E-14
  -3.70500013E-02   3.40466621E-14
  -3.70000005E-02  -2.03040133E-14
  -3.69499996E-02  -8.48894658E-14
  -3.68999988E-02  -1.53904450E-13
  -3.68500017E-02  -2.22956866E-13
  -3.68000008E-02  -2.89296880E-13
  -3.67500000E-02  -3.50852458E-13
  -3.66999991E-02  -4.05402328E-13
  -3.66499983E-02  -4.51146688E-13
  -3.66000012E-02  -4.88800135E-13
  -3.65500003E-02  -5.23813415E-13
  -3.64999995E-02  -5.66500622E-13
  -3.64499986E-02  -6.28483322E-13
  -3.64000015E-02  -7.15939027E-13
  -3.63500006E-02  -8.22663660E-13
  -3.62999998E-02  -9.27389675E-13
  -3.62499990E-02  -9.98844887E-13
  -3.62000018E-02  -1.00851098E-12
  -3.61500010E-02  -9.46304992E-13
  -3.61000001E-02  -8.31037875E-13
  -3.60499993E-02  -7.07982609E-13
  -3.59999985E-02  -6.31085462E-13
  -3.59500013E-02  -6.35466560E-13
  -3.59000005E-02  -7.12895834E-13
  -3.58499996E-02  -8.04577542E-13
  -3.57999988E-02  -8.19593633E-13
  -3.57500017E-02  -6.75317820E-13
  -3.57000008E-02  -3.43282314E-13
  -3.56500000E-02   1.22832896E-13
  -3.55999991E-02   5.96189276E-13
  -3.55499983E-02   9.26418339E-13
  -3.55000012E-02   1.01272961E-12
  -3.54500003E-02   8.67102993E-13
  -3.53999995E-02   6.32224741E-13
  -3.53499986E-02   5.35202796E-13
  -3.53000015E-02   7.87799350E-13
  -3.52500007E-02   1.47390899E-12
  -3.51999998E-02   2.47953264E-12
  -3.51499990E-02   3.50916778E-12
  -3.51000018E-02   4.19647130E-12
  -3.50500010E-02   4.27052491E-12
  -3.50000001E-02   3.70399978E-12
  -3.49499993E-02   2.76580885E-12
  -3.48999985E-02   1.93569401E-12
  -3.48500013E-02   1.70041975E-12
  -3.48000005E-02   2.31383380E-12
  -3.47499996E-02   3.63443433E-12
  -3.46999988E-02   5.13333299E-12
  -3.46500017E-02   6.09487721E-12
  -3.46000008E-02   5.93957218E-12
  -3.45500000E-02   4.52766167E-12
  -3.44999991E-02   2.29055685E-12
  -3.44499983E-02   1.00509126E-13
  -3.44000012E-02  -1.09439085E-12
  -3.43500003E-02  -7.23187948E-13
  -3.42999995E-02   1.07737885E-12
  -3.42499986E-02   3.43365527E-12
  -3.42000015E-02   5.06211609E-12
  -3.41500007E-02   4.83993271E-12
  -3.40999998E-02   2.37191386E-12
  -3.40499990E-02  -1.72370148E-12
  -3.40000018E-02  -5.98595652E-12
  -3.39500010E-02  -8.71250815E-12
  -3.39000002E-02  -8.75196356E-12
  -3.38499993E-02  -6.12478731E-12
  -3.37999985E-02  -2.14993344E-12
  -3.37500013E-02   1.04378908E-12
  -3.37000005E-02   1.45757375E-12
  -3.36499996E-02  -1.78909220E-12
  -3.35999988E-02  -7.89523395E-12
  -3.35500017E-02  -1.45625751E-11
  -3.35000008E-02  -1.89242025E-11
  -3.34500000E-02  -1.88540381E-11
  -3.33999991E-02  -1.40682795E-11
  -3.33499983E-02  -6.46486250E-12
  -3.33000012E-02   5.46223114E-13
  -3.32500003E-02   3.50951755E-12
  -3.31999995E-02   5.69140004E-13
  -3.31499986E-02  -7.47723237E-12
  -3.31000015E-02  -1.72815998E-11
  -3.30500007E-02  -2.42757290E-11
  -3.29999998E-02  -2.47172074E-11
  -3.29499990E-02  -1.75465614E-11
  -3.29000019E-02  -5.15090618E-12
  -3.28500010E-02   7.43698939E-12
  -3.28000002E-02   1.46740224E-11
  -3.27499993E-02   1.30872717E-11
  -3.26999985E-02   3.11373670E-12
  -3.26500013E-02  -1.07452458E-11
  -3.26000005E-02  -2.16845361E-11
  -3.25499997E-02  -2.36102318E-11
  -3.24999988E-02  -1.40921224E-11
  -3.24500017E-02   4.15235121E-12
  -3.24000008E-02   2.40764891E-11
  -3.23500000E-02   3.72403462E-11
  -3.22999991E-02   3.76595560E-11
  -3.22499983E-02   2.48255739E-11
  -3.22000012E-02   4.39929300E-12
  -3.21500003E-02  -1.39458453E-11
  -3.20999995E-02  -2.07507518E-11
  -3.20499986E-02  -1.12438531E-11
  -3.20000015E-02   1.20297591E-11
  -3.19500007E-02   3.98127920E-11
  -3.18999998E-02   5.99492123E-11
  -3.18499990E-02   6.28669755E-11
  -3.18000019E-02   4.62812809E-11
  -3.17500010E-02   1.68439481E-11
  -3.17000002E-02  -1.22752529E-11
  -3.16499993E-02  -2.70541159E-11
  -3.15999985E-02  -1.91208299E-11
  -3.15500014E-02   9.89185036E-12
  -3.15000005E-02   4.83431351E-11
  -3.14499997E-02   7.92573021E-11
  -3.13999988E-02   8.78316517E-11
  -3.13500017E-02   6.84761345E-11
  -3.13000008E-02   2.80628593E-11
  -3.12500000E-02  -1.64005875E-11
  -3.11999992E-02  -4.49804742E-11
  -3.11500002E-02  -4.38867033E-11
  -3.10999993E-02  -1.23043329E-11
  -3.10500003E-02   3.63471510E-11
  -3.09999995E-02   7.96889568E-11
  -3.09500005E-02   9.61743393E-11
  -3.08999997E-02   7.51419066E-11
  -3.08500007E-02   2.24750895E-11
  -3.07999998E-02  -4.10469922E-11
  -3.07500008E-02  -8.84119097E-11
  -3.07000000E-02  -9.84769974E-11
  -3.06499992E-02  -6.61175281E-11
  -3.06000002E-02  -5.59416402E-12
  -3.05499993E-02   5.48397473E-11
  -3.05000003E-02   8.51306248E-11
  -3.04499995E-02   6.71880676E-11
  -3.04000005E-02   3.94897830E-12
  -3.03499997E-02  -8.07258774E-11
  -3.03000007E-02  -1.51813381E-10
  -3.02499998E-02  -1.78601745E-10
  -3.02000009E-02  -1.49062679E-10
  -3.01500000E-02  -7.64265110E-11
  -3.00999992E-02   5.51634953E-12
  -3.00500002E-02   5.68572342E-11
  -2.99999993E-02   4.96433693E-11
  -2.99500003E-02  -1.85393489E-11
  -2.98999995E-02  -1.21977178E-10
  -2.98500005E-02  -2.17026813E-10
  -2.97999997E-02  -2.61106914E-10
  -2.97500007E-02  -2.32231595E-10
  -2.96999998E-02  -1.40145895E-10
  -2.96500009E-02  -2.35101730E-11
  -2.96000000E-02   6.63031019E-11
  -2.95499992E-02   8.80673034E-11
  -2.95000002E-02   3.00846466E-11
  -2.94499993E-02  -8.29559754E-11
  -2.94000003E-02  -1.99413222E-10
  -2.93499995E-02  -2.62915967E-10
  -2.93000005E-02  -2.37845715E-10
  -2.92499997E-02  -1.26595484E-10
  -2.92000007E-02   2.96741867E-11
  -2.91499998E-02   1.67918415E-10
  -2.91000009E-02   2.30866506E-10
  -2.90500000E-02   1.93350294E-10
  -2.89999992E-02   7.52389887E-11
  -2.89500002E-02  -6.55321838E-11
  -2.88999993E-02  -1.57581614E-10
  -2.88500004E-02  -1.47951790E-10
  -2.87999995E-02  -2.70608726E-11
  -2.87500005E-02   1.64916233E-10
  -2.86999997E-02   3.53959806E-10
  -2.86500007E-02   4.64161570E-10
  -2.85999998E-02   4.51915866E-10
  -2.85500009E-02   3.26924737E-10
  -2.85000000E-02   1.49924392E-10
  -2.84499992E-02   7.17802207E-12
  -2.84000002E-02  -2.76781514E-11
  -2.83499993E-02   7.23285043E-11
  -2.83000004E-02   2.73182449E-10
  -2.82499995E-02   4.92573760E-10
  -2.82000005E-02   6.34978292E-10
  -2.81499997E-02   6.34168662E-10
  -2.81000007E-02   4.84228047E-10
  -2.80499998E-02   2.44579357E-10
  -2.80000009E-02   1.57104850E-11
  -2.79500000E-02  -1.04609828E-10
  -2.78999992E-02  -6.56323051E-11
  -2.78500002E-02   1.11533539E-10
  -2.77999993E-02   3.40511230E-10
  -2.77500004E-02   5.05935238E-10
  -2.76999995E-02   5.14214948E-10
  -2.76500005E-02   3.36475514E-10
  -2.75999997E-02   2.40422508E-11
  -2.75500007E-02  -3.11539156E-10
  -2.74999999E-02  -5.46284851E-10
  -2.74500009E-02  -5.98896877E-10
  -2.74000000E-02  -4.68708627E-10
  -2.73499992E-02  -2.38752518E-10
  -2.73000002E-02  -4.12870640E-11
  -2.72499993E-02   9.55407357E-14
  -2.72000004E-02  -1.73373788E-10
  -2.71499995E-02  -5.26504340E-10
  -2.71000005E-02  -9.42088074E-10
  -2.70499997E-02  -1.27004041E-09
  -2.70000007E-02  -1.39302181E-09
  -2.69499999E-02  -1.27970290E-09
  -2.69000009E-02  -1.00135777E-09
  -2.68500000E-02  -7.03074599E-10
  -2.67999992E-02  -5.40912592E-10
  -2.67500002E-02  -6.11990125E-10
  -2.66999993E-02  -9.08587650E-10
  -2.66500004E-02  -1.31764721E-09
  -2.65999995E-02  -1.66743930E-09
  -2.65500005E-02  -1.80209514E-09
  -2.64999997E-02  -1.65157288E-09
  -2.64500007E-02  -1.26557098E-09
  -2.63999999E-02  -7.95001176E-10
  -2.63500009E-02  -4.27564179E-10
  -2.63000000E-02  -3.04736236E-10
  -2.62499992E-02  -4.56709337E-10
  -2.62000002E-02  -7.85009113E-10
  -2.61499994E-02  -1.10215448E-09
  -2.61000004E-02  -1.21250676E-09
  -2.60499995E-02  -9.99501371E-10
  -2.60000005E-02  -4.80462004E-10
  -2.59499997E-02   1.96569691E-10
  -2.59000007E-02   8.14453227E-10
  -2.58499999E-02   1.18135202E-09
  -2.58000009E-02   1.21677379E-09
  -2.57500000E-02   9.90516891E-10
  -2.56999992E-02   6.95618396E-10
  -2.56500002E-02   5.65309854E-10
  -2.55999994E-02   7.69335984E-10
  -2.55500004E-02   1.33533729E-09
  -2.54999995E-02   2.13122808E-09
  -2.54500005E-02   2.91834823E-09
  -2.53999997E-02   3.45383278E-09
  -2.53500007E-02   3.59797947E-09
  -2.52999999E-02   3.37879191E-09
  -2.52500009E-02   2.98355296E-09
  -2.52000000E-02   2.67898703E-09
  -2.51499992E-02   2.69354450E-09
  -2.51000002E-02   3.11327564E-09
  -2.50499994E-02   3.83822663E-09
  -2.50000004E-02   4.62061500E-09
  -2.49499995E-02   5.17012744E-09
  -2.49000005E-02   5.28123278E-09
  -2.48499997E-02   4.92625229E-09
  -2.48000007E-02   4.27162972E-09
  -2.47499999E-02   3.60796104E-09
  -2.47000009E-02   3.22265659E-09
  -2.46500000E-02   3.27058469E-09
  -2.45999992E-02   3.70049813E-09
  -2.45500002E-02   4.27170210E-09
  -2.44999994E-02   4.65599115E-09
  -2.44500004E-02   4.58160043E-09
  -2.43999995E-02   3.95591737E-09
  -2.43500005E-02   2.91150259E-09
  -2.42999997E-02   1.75280501E-09
  -2.42500007E-02   8.24788904E-10
  -2.41999999E-02   3.60225627E-10
  -2.41500009E-02   3.73400533E-10
  -2.41000000E-02   6.49005905E-10
  -2.40499992E-02   8.33579705E-10
  -2.40000002E-02   5.91130589E-10
  -2.39499994E-02  -2.45107795E-10
  -2.39000004E-02  -1.59281555E-09
  -2.38499995E-02  -3.15010773E-09
  -2.38000005E-02  -4.52383464E-09
  -2.37499997E-02  -5.40157474E-09
  -2.37000007E-02  -5.69134295E-09
  -2.36499999E-02  -5.56570656E-09
  -2.36000009E-02  -5.38840350E-09
  -2.35500000E-02  -5.55366642E-09
  -2.34999992E-02  -6.30825925E-09
  -2.34500002E-02  -7.63553487E-09
  -2.33999994E-02  -9.25477472E-09
  -2.33500004E-02  -1.07385327E-08
  -2.32999995E-02  -1.16979013E-08
  -2.32500006E-02  -1.19541621E-08
  -2.31999997E-02  -1.16197167E-08
  -2.31500007E-02  -1.10503109E-08
  -2.30999999E-02  -1.06875540E-08
  -2.30500009E-02  -1.08602016E-08
  -2.30000000E-02  -1.16325038E-08
  -2.29499992E-02  -1.27683979E-08
  -2.29000002E-02  -1.38296121E-08
  -2.28499994E-02  -1.43660168E-08
  -2.28000004E-02  -1.41144891E-08
  -2.27499995E-02  -1.31173357E-08
  -2.27000006E-02  -1.17059260E-08
  -2.26499997E-02  -1.03548201E-08
  -2.26000007E-02  -9.46983025E-09
  -2.25499999E-02  -9.20410237E-09
  -2.25000009E-02  -9.38507760E-09
  -2.24500000E-02  -9.58662660E-09
  -2.23999992E-02  -9.31598532E-09
  -2.23500002E-02  -8.23316704E-09
  -2.22999994E-02  -6.30492769E-09
  -2.22500004E-02  -3.82346199E-09
  -2.21999995E-02  -1.27993227E-09
  -2.21500006E-02   8.52024062E-10
  -2.20999997E-02   2.32663111E-09
  -2.20500007E-02   3.23570126E-09
  -2.19999999E-02   3.96755206E-09
  -2.19500009E-02   5.03217068E-09
  -2.19000001E-02   6.82991930E-09
  -2.18499992E-02   9.46712753E-09
  -2.18000002E-02   1.27017206E-08
  -2.17499994E-02   1.60441864E-08
  -2.17000004E-02   1.89696632E-08
  -2.16499995E-02   2.11466009E-08
  -2.16000006E-02   2.25794849E-08
  -2.15499997E-02   2.36011388E-08
  -2.15000007E-02   2.47174423E-08
  -2.14499999E-02   2.63736641E-08
  -2.14000009E-02   2.87471469E-08
  -2.13500001E-02   3.16594964E-08
  -2.12999992E-02   3.46480213E-08
  -2.12500002E-02   3.71644830E-08
  -2.11999994E-02   3.88119439E-08
  -2.11500004E-02   3.95132638E-08
  -2.10999995E-02   3.95356317E-08
  -2.10500006E-02   3.93602591E-08
  -2.09999997E-02   3.94564168E-08
  -2.09500007E-02   4.00617495E-08
  -2.08999999E-02   4.10678851E-08
  -2.08500009E-02   4.20625561E-08
  -2.08000001E-02   4.25085389E-08
  -2.07499992E-02   4.19780442E-08
  -2.07000002E-02   4.03366016E-08
  -2.06499994E-02   3.77938321E-08
  -2.06000004E-02   3.47992639E-08
  -2.05499995E-02   3.18316218E-08
  -2.05000006E-02   2.91778299E-08
  -2.04499997E-02   2.68019651E-08
  -2.04000007E-02   2.43625973E-08
  -2.03499999E-02   2.13690754E-08
  -2.03000009E-02   1.74042860E-08
  -2.02500001E-02   1.23119319E-08
  -2.01999992E-02   6.26370911E-09
  -2.01500002E-02  -3.22491839E-10
  -2.00999994E-02  -6.97400049E-09
  -2.00500004E-02  -1.33753986E-08
  -1.99999996E-02  -1.95039433E-08
  -1.99500006E-02  -2.56276902E-08
  -1.98999997E-02  -3.21693534E-08
  -1.98500007E-02  -3.95007014E-08
  -1.97999999E-02  -4.77630735E-08
  -1.97500009E-02  -5.67960790E-08
  -1.97000001E-02  -6.62052528E-08
  -1.96499992E-02  -7.55346647E-08
  -1.96000002E-02  -8.44624282E-08
  -1.95499994E-02  -9.29279977E-08
  -1.95000004E-02  -1.01133459E-07
  -1.94499996E-02  -1.09420718E-07
  -1.94000006E-02  -1.18085097E-07
  -1.93499997E-02  -1.27213895E-07
  -1.93000007E-02  -1.36625601E-07
  -1.92499999E-02  -1.45936639E-07
  -1.92000009E-02  -1.54721363E-07
  -1.91500001E-02  -1.62687584E-07
  -1.90999992E-02  -1.69783192E-07
  -1.90500002E-02  -1.76184258E-07
  -1.89999994E-02  -1.82172087E-07
  -1.89500004E-02  -1.87960396E-07
  -1.88999996E-02  -1.93557469E-07
  -1.88500006E-02  -1.98730447E-07
  -1.87999997E-02  -2.03088405E-07
  -1.87500007E-02  -2.06243001E-07
  -1.86999999E-02  -2.07966906E-07
  -1.86500009E-02  -2.08271473E-07
  -1.86000001E-02  -2.07364550E-07
  -1.85499992E-02  -2.05508314E-07
  -1.85000002E-02  -2.02847474E-07
  -1.84499994E-02  -1.99294064E-07
  -1.84000004E-02  -1.94528496E-07
  -1.83499996E-02  -1.88119316E-07
  -1.83000006E-02  -1.79705040E-07
  -1.82499997E-02  -1.69148024E-07
  -1.82000007E-02  -1.56581891E-07
  -1.81499999E-02  -1.42323685E-07
  -1.81000009E-02  -1.26689557E-07
  -1.80500001E-02  -1.09802571E-07
  -1.79999992E-02  -9.14889497E-08
  -1.79500002E-02  -7.13200947E-08
  -1.78999994E-02  -4.87871503E-08
  -1.78500004E-02  -2.35286173E-08
  -1.77999996E-02   4.49946214E-09
  -1.77500006E-02   3.49990188E-08
  -1.76999997E-02   6.74723140E-08
  -1.76500008E-02   1.01471031E-07
  -1.75999999E-02   1.36836078E-07
  -1.75500009E-02   1.73809653E-07
  -1.75000001E-02   2.12955641E-07
  -1.74499992E-02   2.54915022E-07
  -1.74000002E-02   3.00104801E-07
  -1.73499994E-02   3.48502482E-07
  -1.73000004E-02   3.99626146E-07
  -1.72499996E-02   4.52733047E-07
  -1.72000006E-02   5.07154482E-07
  -1.71499997E-02   5.62615696E-07
  -1.71000008E-02   6.19387038E-07
  -1.70499999E-02   6.78181607E-07
  -1.70000009E-02   7.39834945E-07
  -1.69500001E-02   8.04901617E-07
  -1.68999992E-02   8.73357692E-07
  -1.68500002E-02   9.44556575E-07
  -1.67999994E-02   1.01747219E-06
  -1.67500004E-02   1.09113626E-06
  -1.66999996E-02   1.16507374E-06
  -1.66500006E-02   1.23953180E-06
  -1.65999997E-02   1.31538582E-06
  -1.65500008E-02   1.39374401E-06
  -1.64999999E-02   1.47542016E-06
  -1.64500009E-02   1.56051169E-06
  -1.64000001E-02   1.64828452E-06
  -1.63499992E-02   1.73743535E-06
  -1.63000003E-02   1.82663507E-06
  -1.62499994E-02   1.91511231E-06
  -1.62000004E-02   2.00300997E-06
  -1.61499996E-02   2.09134396E-06
  -1.61000006E-02   2.18155560E-06
  -1.60499997E-02   2.27484452E-06
  -1.60000008E-02   2.37158110E-06
  -1.59499999E-02   2.47106709E-06
  -1.59000009E-02   2.57177726E-06
  -1.58500001E-02   2.67199448E-06
  -1.57999992E-02   2.77056347E-06
  -1.57500003E-02   2.86742784E-06
  -1.56999994E-02   2.96369717E-06
  -1.56500004E-02   3.06118386E-06
  -1.55999996E-02   3.16160049E-06
  -1.55499997E-02   3.26576537E-06
  -1.54999997E-02   3.37318352E-06
  -1.54499998E-02   3.48220760E-06
  -1.53999999E-02   3.59073169E-06
  -1.53500000E-02   3.69712848E-06
  -1.53000001E-02   3.80101460E-06
  -1.52500002E-02   3.90349032E-06
  -1.52000003E-02   4.00671888E-06
  -1.51500003E-02   4.11300380E-06
  -1.51000004E-02   4.22377570E-06
  -1.50499996E-02   4.33893138E-06
  -1.49999997E-02   4.45683827E-06
  -1.49499997E-02   4.57503256E-06
  -1.48999998E-02   4.69133010E-06
  -1.48499999E-02   4.80486324E-06
  -1.48000000E-02   4.91656647E-06
  -1.47500001E-02   5.02887906E-06
  -1.47000002E-02   5.14474777E-06
  -1.46500003E-02   5.26638451E-06
  -1.46000003E-02   5.39429220E-06
  -1.45500004E-02   5.52702659E-06
  -1.44999996E-02   5.66183508E-06
  -1.44499997E-02   5.79590551E-06
  -1.43999998E-02   5.92770357E-06
  -1.43499998E-02   6.05778587E-06
  -1.42999999E-02   6.18869490E-06
  -1.42500000E-02   6.32397996E-06
  -1.42000001E-02   6.46672743E-06
  -1.41500002E-02   6.61823879E-06
  -1.41000003E-02   6.77746220E-06
  -1.40500003E-02   6.94147184E-06
  -1.40000004E-02   7.10681252E-06
  -1.39499996E-02   7.27111501E-06
  -1.38999997E-02   7.43429655E-06
  -1.38499998E-02   7.59877548E-06
  -1.37999998E-02   7.76858633E-06
  -1.37499999E-02   7.94773405E-06
  -1.37000000E-02   8.13850602E-06
  -1.36500001E-02   8.34050297E-06
  -1.36000002E-02   8.55082362E-06
  -1.35500003E-02   8.76538888E-06
  -1.35000004E-02   8.98085909E-06
  -1.34500004E-02   9.19625472E-06
  -1.33999996E-02   9.41358212E-06
  -1.33499997E-02   9.63716047E-06
  -1.32999998E-02   9.87186650E-06
  -1.32499998E-02   1.01210953E-05
  -1.31999999E-02   1.03853117E-05
  -1.31500000E-02   1.06618563E-05
  -1.31000001E-02   1.09461735E-05
  -1.30500002E-02   1.12338903E-05
  -1.30000003E-02   1.15228677E-05
  -1.29500004E-02   1.18143716E-05
  -1.29000004E-02   1.21127314E-05
  -1.28499996E-02   1.24235930E-05
  -1.27999997E-02   1.27515868E-05
  -1.27499998E-02   1.30983435E-05
  -1.26999998E-02   1.34617812E-05
  -1.26499999E-02   1.38370442E-05
  -1.26000000E-02   1.42187037E-05
  -1.25500001E-02   1.46032808E-05
  -1.25000002E-02   1.49909538E-05
  -1.24500003E-02   1.53857018E-05
  -1.24000004E-02   1.57937648E-05
  -1.23500004E-02   1.62210763E-05
  -1.22999996E-02   1.66706850E-05
  -1.22499997E-02   1.71414449E-05
  -1.21999998E-02   1.76285484E-05
  -1.21499998E-02   1.81256673E-05
  -1.20999999E-02   1.86278321E-05
  -1.20500000E-02   1.91337858E-05
  -1.20000001E-02   1.96467972E-05
  -1.19500002E-02   2.01734056E-05
  -1.19000003E-02   2.07207067E-05
  -1.18500004E-02   2.12933828E-05
  -1.18000004E-02   2.18916466E-05
  -1.17499996E-02   2.25111107E-05
  -1.16999997E-02   2.31447902E-05
  -1.16499998E-02   2.37862878E-05
  -1.15999999E-02   2.44327512E-05
  -1.15499999E-02   2.50863795E-05
  -1.15000000E-02   2.57537704E-05
  -1.14500001E-02   2.64431765E-05
  -1.14000002E-02   2.71610352E-05
  -1.13500003E-02   2.79092765E-05
  -1.13000004E-02   2.86844279E-05
  -1.12500004E-02   2.94792044E-05
  -1.11999996E-02   3.02857952E-05
  -1.11499997E-02   3.10994255E-05
  -1.10999998E-02   3.19207466E-05
  -1.10499999E-02   3.27558264E-05
  -1.09999999E-02   3.36136654E-05
  -1.09500000E-02   3.45024891E-05
  -1.09000001E-02   3.54262884E-05
  -1.08500002E-02   3.63831350E-05
  -1.08000003E-02   3.73661569E-05
  -1.07500004E-02   3.83665865E-05
  -1.07000005E-02   3.93779192E-05
  -1.06499996E-02   4.03990853E-05
  -1.05999997E-02   4.14352216E-05
  -1.05499998E-02   4.24957980E-05
  -1.04999999E-02   4.35907496E-05
  -1.04499999E-02   4.47262646E-05
  -1.04000000E-02   4.59023504E-05
  -1.03500001E-02   4.71127860E-05
  -1.03000002E-02   4.83479635E-05
  -1.02500003E-02   4.95995082E-05
  -1.02000004E-02   5.08641133E-05
  -1.01500005E-02   5.21453876E-05
  -1.00999996E-02   5.34526444E-05
  -1.00499997E-02   5.47971649E-05
  -9.99999978E-03   5.61876004E-05
  -9.94999986E-03   5.76263046E-05
  -9.89999995E-03   5.91085773E-05
  -9.85000003E-03   6.06248977E-05
  -9.80000012E-03   6.21652653E-05
  -9.75000020E-03   6.37240591E-05
  -9.70000029E-03   6.53030511E-05
  -9.65000037E-03   6.69110013E-05
  -9.60000046E-03   6.85602936E-05
  -9.54999961E-03   7.02618854E-05
  -9.49999969E-03   7.20209791E-05
  -9.44999978E-03   7.38349190E-05
  -9.39999986E-03   7.56946174E-05
  -9.34999995E-03   7.75888984E-05
  -9.30000003E-03   7.95096639E-05
  -9.25000012E-03   8.14559389E-05
  -9.20000020E-03   8.34346938E-05
  -9.15000029E-03   8.54583923E-05
  -9.10000037E-03   8.75399346E-05
  -9.05000046E-03   8.96874117E-05
  -8.99999961E-03   9.19007871E-05
  -8.94999970E-03   9.41720136E-05
  -8.89999978E-03   9.64889477E-05
  -8.84999987E-03   9.88412503E-05
  -8.79999995E-03   1.01225378E-04
  -8.75000004E-03   1.03646351E-04
  -8.70000012E-03   1.06116400E-04
  -8.65000021E-03   1.08650362E-04
  -8.60000029E-03   1.11259440E-04
  -8.55000038E-03   1.13946764E-04
  -8.50000046E-03   1.16706498E-04
  -8.44999962E-03   1.19526725E-04
  -8.39999970E-03   1.22394878E-04
  -8.34999979E-03   1.25304068E-04
  -8.29999987E-03   1.28256608E-04
  -8.24999996E-03   1.31263616E-04
  -8.20000004E-03   1.34340968E-04
  -8.15000013E-03   1.37502488E-04
  -8.10000021E-03   1.40754419E-04
  -8.05000030E-03   1.44092992E-04
  -8.00000038E-03   1.47506493E-04
  -7.95000046E-03   1.50980894E-04
  -7.89999962E-03   1.54506241E-04
  -7.84999970E-03   1.58081501E-04
  -7.79999979E-03   1.61715652E-04
  -7.74999987E-03   1.65424513E-04
  -7.69999996E-03   1.69224222E-04
  -7.65000004E-03   1.73124747E-04
  -7.60000013E-03   1.77126160E-04
  -7.55000021E-03   1.81218988E-04
  -7.49999983E-03   1.85388591E-04
  -7.44999992E-03   1.89622282E-04
  -7.40000000E-03   1.93915985E-04
  -7.35000009E-03   1.98276044E-04
  -7.30000017E-03   2.02717143E-04
  -7.24999979E-03   2.07257166E-04
  -7.19999988E-03   2.11909777E-04
  -7.14999996E-03   2.16678818E-04
  -7.10000005E-03   2.21557377E-04
  -7.05000013E-03   2.26530959E-04
  -7.00000022E-03   2.31584490E-04
  -6.94999984E-03   2.36708860E-04
  -6.89999992E-03   2.41906324E-04
  -6.85000001E-03   2.47190357E-04
  -6.80000009E-03   2.52579892E-04
  -6.75000018E-03   2.58091750E-04
  -6.69999979E-03   2.63733848E-04
  -6.64999988E-03   2.69502401E-04
  -6.59999996E-03   2.75384460E-04
  -6.55000005E-03   2.81363435E-04
  -6.50000013E-03   2.87426868E-04
  -6.45000022E-03   2.93573132E-04
  -6.39999984E-03   2.99812877E-04
  -6.34999992E-03   3.06165603E-04
  -6.30000001E-03   3.12651333E-04
  -6.25000009E-03   3.19282553E-04
  -6.20000018E-03   3.26060021E-04
  -6.14999980E-03   3.32972442E-04
  -6.09999988E-03   3.40002414E-04
  -6.04999997E-03   3.47134774E-04
  -6.00000005E-03   3.54363176E-04
  -5.95000014E-03   3.61695187E-04
  -5.90000022E-03   3.69148736E-04
  -5.84999984E-03   3.76745098E-04
  -5.79999993E-03   3.84500512E-04
  -5.75000001E-03   3.92420217E-04
  -5.70000010E-03   4.00496996E-04
  -5.65000018E-03   4.08713531E-04
  -5.59999980E-03   4.17051313E-04
  -5.54999989E-03   4.25499689E-04
  -5.49999997E-03   4.34062036E-04
  -5.45000006E-03   4.42754419E-04
  -5.40000014E-03   4.51599044E-04
  -5.35000023E-03   4.60615731E-04
  -5.29999984E-03   4.69814520E-04
  -5.24999993E-03   4.79192124E-04
  -5.20000001E-03   4.88733174E-04
  -5.15000010E-03   4.98419104E-04
  -5.10000018E-03   5.08235942E-04
  -5.04999980E-03   5.18181536E-04
  -4.99999989E-03   5.28267876E-04
  -4.94999997E-03   5.38516266E-04
  -4.90000006E-03   5.48949989E-04
  -4.85000014E-03   5.59583830E-04
  -4.80000023E-03   5.70418895E-04
  -4.74999985E-03   5.81442902E-04
  -4.69999993E-03   5.92635770E-04
  -4.65000002E-03   6.03979686E-04
  -4.60000010E-03   6.15467085E-04
  -4.55000019E-03   6.27105357E-04
  -4.49999981E-03   6.38914411E-04
  -4.44999989E-03   6.50919566E-04
  -4.39999998E-03   6.63140498E-04
  -4.35000006E-03   6.75582793E-04
  -4.30000015E-03   6.88236789E-04
  -4.25000023E-03   7.01082463E-04
  -4.19999985E-03   7.14099675E-04
  -4.14999994E-03   7.27276667E-04
  -4.10000002E-03   7.40617281E-04
  -4.05000011E-03   7.54139503E-04
  -4.00000019E-03   7.67867605E-04
  -3.94999981E-03   7.81824056E-04
  -3.89999989E-03   7.96019682E-04
  -3.84999998E-03   8.10450001E-04
  -3.80000006E-03   8.25097552E-04
  -3.74999992E-03   8.39938468E-04
  -3.70000000E-03   8.54958198E-04
  -3.65000009E-03   8.70155694E-04
  -3.59999994E-03   8.85544054E-04
  -3.55000002E-03   9.01145861E-04
  -3.50000011E-03   9.16984107E-04
  -3.44999996E-03   9.33074043E-04
  -3.40000005E-03   9.49415844E-04
  -3.34999990E-03   9.65995714E-04
  -3.29999998E-03   9.82790836E-04
  -3.25000007E-03   9.99781652E-04
  -3.19999992E-03   1.01695990E-03
  -3.15000000E-03   1.03433279E-03
  -3.10000009E-03   1.05192198E-03
  -3.04999994E-03   1.06975215E-03
  -3.00000003E-03   1.08784228E-03
  -2.95000011E-03   1.10620039E-03
  -2.89999996E-03   1.12481753E-03
  -2.85000005E-03   1.14367099E-03
  -2.79999990E-03   1.16273784E-03
  -2.74999999E-03   1.18200446E-03
  -2.70000007E-03   1.20146980E-03
  -2.64999992E-03   1.22114783E-03
  -2.60000001E-03   1.24106498E-03
  -2.55000009E-03   1.26124721E-03
  -2.49999994E-03   1.28170685E-03
  -2.45000003E-03   1.30244088E-03
  -2.40000011E-03   1.32342963E-03
  -2.34999997E-03   1.34464586E-03
  -2.30000005E-03   1.36606768E-03
  -2.24999990E-03   1.38768891E-03
  -2.19999999E-03   1.40951981E-03
  -2.15000007E-03   1.43158506E-03
  -2.09999993E-03   1.45391375E-03
  -2.05000001E-03   1.47652114E-03
  -2.00000009E-03   1.49940909E-03
  -1.94999995E-03   1.52255874E-03
  -1.90000003E-03   1.54594239E-03
  -1.85000000E-03   1.56953593E-03
  -1.79999997E-03   1.59332529E-03
  -1.75000005E-03   1.61731744E-03
  -1.70000002E-03   1.64153380E-03
  -1.64999999E-03   1.66600524E-03
  -1.59999996E-03   1.69075362E-03
  -1.55000004E-03   1.71578268E-03
  -1.50000001E-03   1.74107868E-03
  -1.44999998E-03   1.76661648E-03
  -1.39999995E-03   1.79236522E-03
  -1.35000004E-03   1.81830267E-03
  -1.30000000E-03   1.84442964E-03
  -1.24999997E-03   1.87076372E-03
  -1.20000006E-03   1.89733272E-03
  -1.15000003E-03   1.92416296E-03
  -1.09999999E-03   1.95126585E-03
  -1.04999996E-03   1.97862741E-03
  -1.00000005E-03   2.00622203E-03
  -9.50000016E-04   2.03402201E-03
  -8.99999985E-04   2.06200196E-03
  -8.50000011E-04   2.09015026E-03
  -7.99999980E-04   2.11847597E-03
  -7.50000007E-04   2.14700866E-03
  -6.99999975E-04   2.17577722E-03
  -6.50000002E-04   2.20479933E-03
  -6.00000028E-04   2.23407079E-03
  -5.49999997E-04   2.26356485E-03
  -5.00000024E-04   2.29324703E-03
  -4.49999992E-04   2.32308754E-03
  -3.99999990E-04   2.35307054E-03
  -3.49999988E-04   2.38320138E-03
  -3.00000014E-04   2.41350243E-03
  -2.50000012E-04   2.44400511E-03
  -1.99999995E-04   2.47472594E-03
  -1.50000007E-04   2.50566145E-03
  -9.99999975E-05   2.53679231E-03
  -4.99999987E-05   2.56808591E-03
   0.00000000       2.59951223E-03
   4.99999987E-05   2.63104914E-03
   9.99999975E-05   2.66268873E-03
   1.50000007E-04   2.69445032E-03
   1.99999995E-04   2.72636651E-03
   2.50000012E-04   2.75845919E-03
   3.00000014E-04   2.79072695E-03
   3.49999988E-04   2.82314792E-03
   3.99999990E-04   2.85568205E-03
   4.49999992E-04   2.88829510E-03
   5.00000024E-04   2.92096729E-03
   5.49999997E-04   2.95369118E-03
   6.00000028E-04   2.98648467E-03
   6.50000002E-04   3.01937759E-03
   6.99999975E-04   3.05239111E-03
   7.50000007E-04   3.08552640E-03
   7.99999980E-04   3.11875506E-03
   8.50000011E-04   3.15204123E-03
   8.99999985E-04   3.18534975E-03
   9.50000016E-04   3.21865175E-03
   1.00000005E-03   3.25194001E-03
   1.04999996E-03   3.28523247E-03
   1.09999999E-03   3.31855356E-03
   1.15000003E-03   3.35191726E-03
   1.20000006E-03   3.38532520E-03
   1.24999997E-03   3.41875851E-03
   1.30000000E-03   3.45218088E-03
   1.35000004E-03   3.48555436E-03
   1.39999995E-03   3.51884612E-03
   1.44999998E-03   3.55203892E-03
   1.50000001E-03   3.58514255E-03
   1.55000004E-03   3.61818820E-03
   1.59999996E-03   3.65119032E-03
   1.64999999E-03   3.68414493E-03
   1.70000002E-03   3.71703203E-03
   1.75000005E-03   3.74981388E-03
   1.79999997E-03   3.78245139E-03
   1.85000000E-03   3.81491240E-03
   1.90000003E-03   3.84719716E-03
   1.94999995E-03   3.87932267E-03
   2.00000009E-03   3.91129358E-03
   2.05000001E-03   3.94310383E-03
   2.09999993E-03   3.97473574E-03
   2.15000007E-03   4.00617486E-03
   2.19999999E-03   4.03740583E-03
   2.24999990E-03   4.06841096E-03
   2.30000005E-03   4.09915810E-03
   2.34999997E-03   4.12961375E-03
   2.40000011E-03   4.15977603E-03
   2.45000003E-03   4.18964913E-03
   2.49999994E-03   4.21923026E-03
   2.55000009E-03   4.24851337E-03
   2.60000001E-03   4.27749520E-03
   2.64999992E-03   4.30615386E-03
   2.70000007E-03   4.33444185E-03
   2.74999999E-03   4.36233822E-03
   2.79999990E-03   4.38984111E-03