  -3.99999991E-02   0.00000000    
  -3.99499983E-02   0.00000000    
  -3.99000011E-02   0.00000000    
  -3.98500003E-02  -7.85921384E-15
  -3.97999994E-02  -5.79515209E-14
  -3.97499986E-02  -2.22183776E-13
  -3.97000015E-02  -5.97813953E-13
  -3.96500006E-02  -1.28978447E-12
  -3.95999998E-02  -2.42573518E-12
  -3.95499989E-02  -4.20072180E-12
  -3.95000018E-02  -6.87295576E-12
  -3.94500010E-02  -1.06305442E-11
  -3.94000001E-02  -1.53855782E-11
  -3.93499993E-02  -2.07114794E-11
  -3.92999984E-02  -2.61027797E-11
  -3.92500013E-02  -3.14486527E-11
  -3.92000005E-02  -3.73343023E-11
  -3.91499996E-02  -4.48606603E-11
  -3.90999988E-02  -5.50990156E-11
  -3.90500017E-02  -6.86379426E-11
  -3.90000008E-02  -8.55324492E-11
  -3.89500000E-02  -1.05490464E-10
  -3.88999991E-02  -1.27923089E-10
  -3.88499983E-02  -1.51841165E-10
  -3.88000011E-02  -1.76043166E-10
  -3.87500003E-02  -1.99881361E-10
  -3.86999995E-02  -2.24114657E-10
  -3.86499986E-02  -2.50874044E-10
  -3.86000015E-02  -2.82375429E-10
  -3.85500006E-02  -3.19279964E-10
  -3.84999998E-02  -3.60125013E-10
  -3.84499989E-02  -4.02283706E-10
  -3.84000018E-02  -4.43395570E-10
  -3.83500010E-02  -4.81868878E-10
  -3.83000001E-02  -5.16329868E-10
  -3.82499993E-02  -5.45256895E-10
  -3.81999984E-02  -5.67767944E-10
  -3.81500013E-02  -5.84867543E-10
  -3.81000005E-02  -5.99464922E-10
  -3.80499996E-02  -6.14588713E-10
  -3.79999988E-02  -6.31318553E-10
  -3.79500017E-02  -6.48420484E-10
  -3.79000008E-02  -6.63737842E-10
  -3.78500000E-02  -6.75318634E-10
  -3.77999991E-02  -6.80688061E-10
  -3.77499983E-02  -6.75361045E-10
  -3.77000012E-02  -6.53329502E-10
  -3.76500003E-02  -6.10372863E-10
  -3.75999995E-02  -5.47441759E-10
  -3.75499986E-02  -4.70297634E-10
  -3.75000015E-02  -3.84771437E-10
  -3.74500006E-02  -2.91374619E-10
  -3.73999998E-02  -1.83774704E-10
  -3.73499990E-02  -5.20116450E-11
  -3.73000018E-02   1.12549019E-10
  -3.72500010E-02   3.13589960E-10
  -3.72000001E-02   5.47688284E-10
  -3.71499993E-02   8.02426015E-10
  -3.70999984E-02   1.05600795E-09
  -3.70500013E-02   1.28230260E-09
  -3.70000005E-02   1.46288737E-09
  -3.69499996E-02   1.60069202E-09
  -3.68999988E-02   1.72509784E-09
  -3.68500017E-02   1.88214644E-09
  -3.68000008E-02   2.11380380E-09
  -3.67500000E-02   2.43807041E-09
  -3.66999991E-02   2.84037749E-09
  -3.66499983E-02   3.27866800E-09
  -3.66000012E-02   3.69792308E-09
  -3.65500003E-02   4.04891987E-09
  -3.64999995E-02   4.30711822E-09
  -3.64499986E-02   4.48572512E-09
  -3.64000015E-02   4.63402650E-09
  -3.63500006E-02   4.81533968E-09
  -3.62999998E-02   5.07125986E-09
  -3.62499990E-02   5.39190381E-09
  -3.62000018E-02   5.71262815E-09
  -3.61500010E-02   5.94243232E-09
  -3.61000001E-02   6.00884009E-09
  -3.60499993E-02   5.89469229E-09
  -3.59999985E-02   5.64919578E-09
  -3.59500013E-02   5.37013944E-09
  -3.59000005E-02   5.16514476E-09
  -3.58499996E-02   5.10449105E-09
  -3.57999988E-02   5.18148147E-09
  -3.57500017E-02   5.29970601E-09
  -3.57000008E-02   5.30241140E-09
  -3.56500000E-02   5.04036946E-09
  -3.55999991E-02   4.44844428E-09
  -3.55499983E-02   3.58793217E-09
  -3.55000012E-02   2.62613065E-09
  -3.54500003E-02   1.75987813E-09
  -3.53999995E-02   1.12151288E-09
  -3.53499986E-02   7.12631232E-10
  -3.53000015E-02   3.94542565E-10
  -3.52500007E-02  -6.13257986E-11
  -3.51999998E-02  -8.80873874E-10
  -3.51499990E-02  -2.18447904E-09
  -3.51000018E-02  -3.91572952E-09
  -3.50500010E-02  -5.84146775E-09
  -3.50000001E-02  -7.63805108E-09
  -3.49499993E-02  -9.03448072E-09
  -3.48999985E-02  -9.94411309E-09
  -3.48500013E-02  -1.05135927E-08
  -3.48000005E-02  -1.10590070E-08
  -3.47499996E-02  -1.19193091E-08
  -3.46999988E-02  -1.32977407E-08
  -3.46500017E-02  -1.51628488E-08
  -3.46000008E-02  -1.72499703E-08
  -3.45500000E-02  -1.91635543E-08
  -3.44999991E-02  -2.05439274E-08
  -3.44499983E-02  -2.12339302E-08
  -3.44000012E-02  -2.13694804E-08
  -3.43500003E-02  -2.13377174E-08
  -3.42999995E-02  -2.16043006E-08
  -3.42499986E-02  -2.24838512E-08
  -3.42000015E-02  -2.39688376E-08
  -3.41500007E-02  -2.57087933E-08
  -3.40999998E-02  -2.71547407E-08
  -3.40499990E-02  -2.77999312E-08
  -3.40000018E-02  -2.74048144E-08
  -3.39500010E-02  -2.61080935E-08
  -3.39000002E-02  -2.43759786E-08
  -3.38499993E-02  -2.28047501E-08
  -3.37999985E-02  -2.18506369E-08
  -3.37500013E-02  -2.15998277E-08
  -3.37000005E-02  -2.16919531E-08
  -3.36499996E-02  -2.14546674E-08
  -3.35999988E-02  -2.02060573E-08
  -3.35500017E-02  -1.75860553E-08
  -3.35000008E-02  -1.37509772E-08
  -3.34500000E-02  -9.32893052E-09
  -3.33999991E-02  -5.15367038E-09
  -3.33499983E-02  -1.90008342E-09
  -3.33000012E-02   2.17882032E-10
  -3.32500003E-02   1.55830548E-09
  -3.31999995E-02   2.92052849E-09
  -3.31499986E-02   5.21581311E-09
  -3.31000015E-02   9.06591513E-09
  -3.30500007E-02   1.45022190E-08
  -3.29999998E-02   2.09156887E-08
  -3.29499990E-02   2.73035248E-08
  -3.29000019E-02   3.27113163E-08
  -3.28500010E-02   3.66627475E-08
  -3.28000002E-02   3.93677837E-08
  -3.27499993E-02   4.16107433E-08
  -3.26999985E-02   4.43761650E-08
  -3.26500013E-02   4.83859068E-08
  -3.26000005E-02   5.37500249E-08
  -3.25499997E-02   5.98799303E-08
  -3.24999988E-02   6.57072050E-08
  -3.24500017E-02   7.01298575E-08
  -3.24000008E-02   7.25040579E-08
  -3.23500000E-02   7.29570360E-08
  -3.22999991E-02   7.23563431E-08
  -3.22499983E-02   7.19253634E-08
  -3.22000012E-02   7.26746237E-08
  -3.21500003E-02   7.49208908E-08
  -3.20999995E-02   7.81248914E-08
  -3.20499986E-02   8.11191754E-08
  -3.20000015E-02   8.26160687E-08
  -3.19500007E-02   8.17686825E-08
  -3.18999998E-02   7.85468330E-08
  -3.18499990E-02   7.37696269E-08
  -3.18000019E-02   6.87681236E-08
  -3.17500010E-02   6.48014620E-08
  -3.17000002E-02   6.24703418E-08
  -3.16499993E-02   6.14015647E-08
  -3.15999985E-02   6.03741555E-08
  -3.15500014E-02   5.78513060E-08
  -3.15000005E-02   5.26759933E-08
  -3.14499997E-02   4.46034143E-08
  -3.13999988E-02   3.44259163E-08
  -3.13500017E-02   2.36473312E-08
  -3.13000008E-02   1.38600598E-08
  -3.12500000E-02   6.08900486E-09
  -3.11999992E-02   3.68349101E-10
  -3.11500002E-02  -4.27344338E-09
  -3.10999993E-02  -9.39655731E-09
  -3.10500003E-02  -1.64555356E-08
  -3.09999995E-02  -2.61233044E-08
  -3.09500005E-02  -3.79512812E-08
  -3.08999997E-02  -5.05420452E-08
  -3.08500007E-02  -6.21617744E-08
  -3.07999998E-02  -7.15016313E-08
  -3.07500008E-02  -7.82342582E-08
  -3.07000000E-02  -8.31274605E-08
  -3.06499992E-02  -8.76888961E-08
  -3.06000002E-02  -9.35065358E-08
  -3.05499993E-02  -1.01554235E-07
  -3.05000003E-02  -1.11740469E-07
  -3.04499995E-02  -1.22897362E-07
  -3.04000005E-02  -1.33242324E-07
  -3.03499997E-02  -1.41137519E-07
  -3.03000007E-02  -1.45811967E-07
  -3.02499998E-02  -1.47699041E-07
  -3.02000009E-02  -1.48219030E-07
  -3.01500000E-02  -1.49110292E-07
  -3.00999992E-02  -1.51630800E-07
  -3.00500002E-02  -1.55990989E-07
  -2.99999993E-02  -1.61245353E-07
  -2.99500003E-02  -1.65672944E-07
  -2.98999995E-02  -1.67485524E-07
  -2.98500005E-02  -1.65591729E-07
  -2.97999997E-02  -1.60113373E-07
  -2.97500007E-02  -1.52407878E-07
  -2.96999998E-02  -1.44540309E-07
  -2.96500009E-02  -1.38406136E-07
  -2.96000000E-02  -1.34893426E-07
  -2.95499992E-02  -1.33479190E-07
  -2.95000002E-02  -1.32448733E-07
  -2.94499993E-02  -1.29625860E-07
  -2.94000003E-02  -1.23275143E-07
  -2.93499995E-02  -1.12804045E-07
  -2.93000005E-02  -9.90021363E-08
  -2.92499997E-02  -8.37337950E-08
  -2.92000007E-02  -6.91938524E-08
  -2.91499998E-02  -5.69937768E-08
  -2.91000009E-02  -4.74536641E-08
  -2.90500000E-02  -3.94344788E-08
  -2.89999992E-02  -3.08319628E-08
  -2.89500002E-02  -1.95308534E-08
  -2.88999993E-02  -4.37284520E-09
  -2.88500004E-02   1.43094940E-08
  -2.87999995E-02   3.48177842E-08
  -2.87500005E-02   5.47849446E-08
  -2.86999997E-02   7.21333961E-08
  -2.86500007E-02   8.59141238E-08
  -2.85999998E-02   9.67086109E-08
  -2.85500009E-02   1.06418220E-07
  -2.85000000E-02   1.17479338E-07
  -2.84499992E-02   1.31790785E-07
  -2.84000002E-02   1.49819229E-07
  -2.83499993E-02   1.70327411E-07
  -2.83000004E-02   1.90885117E-07
  -2.82499995E-02   2.08931880E-07
  -2.82000005E-02   2.22891785E-07
  -2.81499997E-02   2.32833244E-07
  -2.81000007E-02   2.40408127E-07
  -2.80499998E-02   2.48127321E-07
  -2.80000009E-02   2.58268045E-07
  -2.79500000E-02   2.71835489E-07
  -2.78999992E-02   2.88005936E-07
  -2.78500002E-02   3.04333781E-07
  -2.77999993E-02   3.17710771E-07
  -2.77500004E-02   3.25709067E-07
  -2.76999995E-02   3.27701997E-07
  -2.76500005E-02   3.25204127E-07
  -2.75999997E-02   3.21237792E-07
  -2.75500007E-02   3.19025730E-07
  -2.74999999E-02   3.20607199E-07
  -2.74500009E-02   3.25964493E-07
  -2.74000000E-02   3.33002419E-07
  -2.73499992E-02   3.38379209E-07
  -2.73000002E-02   3.38878152E-07
  -2.72499993E-02   3.32796873E-07
  -2.72000004E-02   3.20766901E-07
  -2.71499995E-02   3.05581466E-07
  -2.71000005E-02   2.91030574E-07
  -2.70499997E-02   2.80234502E-07
  -2.70000007E-02   2.74243405E-07
  -2.69499999E-02   2.71572077E-07
  -2.69000009E-02   2.68867694E-07
  -2.68500000E-02   2.62374499E-07
  -2.67999992E-02   2.49550851E-07
  -2.67500002E-02   2.30155592E-07
  -2.66999993E-02   2.06379269E-07
  -2.66500004E-02   1.81966200E-07
  -2.65999995E-02   1.60645797E-07
  -2.65500005E-02   1.44511162E-07
  -2.64999997E-02   1.33066862E-07
  -2.64500007E-02   1.23440557E-07
  -2.63999999E-02   1.11715330E-07
  -2.63500009E-02   9.47752596E-08
  -2.63000000E-02   7.17878095E-08
  -2.62499992E-02   4.46233024E-08
  -2.62000002E-02   1.70432362E-08
  -2.61499994E-02  -6.93644386E-09
  -2.61000004E-02  -2.47899763E-08
  -2.60499995E-02  -3.66136561E-08
  -2.60000005E-02  -4.51692053E-08
  -2.59499997E-02  -5.47877050E-08
  -2.59000007E-02  -6.95331295E-08
  -2.58499999E-02  -9.13810752E-08
  -2.58000009E-02  -1.19256228E-07
  -2.57500000E-02  -1.49441036E-07
  -2.56999992E-02  -1.77210296E-07
  -2.56500002E-02  -1.98939773E-07
  -2.55999994E-02  -2.13707608E-07
  -2.55500004E-02  -2.23669076E-07
  -2.54999995E-02  -2.33098163E-07
  -2.54500005E-02  -2.46552702E-07
  -2.53999997E-02  -2.66942038E-07
  -2.53500007E-02  -2.94268546E-07
  -2.52999999E-02  -3.25563434E-07
  -2.52500009E-02  -3.56115038E-07
  -2.52000000E-02  -3.81530953E-07
  -2.51499992E-02  -3.99736876E-07
  -2.51000002E-02  -4.11994108E-07
  -2.50499994E-02  -4.22431157E-07
  -2.50000004E-02  -4.36286200E-07
  -2.49499995E-02  -4.57689907E-07
  -2.49000005E-02  -4.88000808E-07
  -2.48499997E-02  -5.25372400E-07
  -2.48000007E-02  -5.65650737E-07
  -2.47499999E-02  -6.04181537E-07
  -2.47000009E-02  -6.37781852E-07
  -2.46500000E-02  -6.66093342E-07
  -2.45999992E-02  -6.91749335E-07
  -2.45500002E-02  -7.19238074E-07
  -2.44999994E-02  -7.52910353E-07
  -2.44500004E-02  -7.95015808E-07
  -2.43999995E-02  -8.44717249E-07
  -2.43500005E-02  -8.98543533E-07
  -2.42999997E-02  -9.52030291E-07
  -2.42500007E-02  -1.00174680E-06
  -2.41999999E-02  -1.04679100E-06
  -2.41500009E-02  -1.08916072E-06
  -2.41000000E-02  -1.13291253E-06
  -2.40499992E-02  -1.18247783E-06
  -2.40000002E-02  -1.24078963E-06
  -2.39499994E-02  -1.30798060E-06
  -2.39000004E-02  -1.38123846E-06
  -2.38499995E-02  -1.45596061E-06
  -2.38000005E-02  -1.52775499E-06
  -2.37499997E-02  -1.59439492E-06
  -2.37000007E-02  -1.65681593E-06
  -2.36499999E-02  -1.71867566E-06
  -2.36000009E-02  -1.78474784E-06
  -2.35500000E-02  -1.85890337E-06
  -2.34999992E-02  -1.94253016E-06
  -2.34500002E-02  -2.03397326E-06
  -2.33999994E-02  -2.12915074E-06
  -2.33500004E-02  -2.22312678E-06
  -2.32999995E-02  -2.31208833E-06
  -2.32500006E-02  -2.39495853E-06
  -2.31999997E-02  -2.47391495E-06
  -2.31500007E-02  -2.55349096E-06
  -2.30999999E-02  -2.63862444E-06
  -2.30500009E-02  -2.73254750E-06
  -2.30000000E-02  -2.83546660E-06
  -2.29499992E-02  -2.94457095E-06
  -2.29000002E-02  -3.05525646E-06
  -2.28499994E-02  -3.16298542E-06
  -2.28000004E-02  -3.26506211E-06
  -2.27499995E-02  -3.36168205E-06
  -2.27000006E-02  -3.45588865E-06
  -2.26499997E-02  -3.55235943E-06
  -2.26000007E-02  -3.65541882E-06
  -2.25499999E-02  -3.76711409E-06
  -2.25000009E-02  -3.88623357E-06
  -2.24500000E-02  -4.00878707E-06
  -2.23999992E-02  -4.12974305E-06
  -2.23500002E-02  -4.24519567E-06
  -2.22999994E-02  -4.35399443E-06
  -2.22500004E-02  -4.45818750E-06
  -2.21999995E-02  -4.56217958E-06
  -2.21500006E-02  -4.67098016E-06
  -2.20999997E-02  -4.78821312E-06
  -2.20500007E-02  -4.91458286E-06
  -2.19999999E-02  -5.04747004E-06
  -2.19500009E-02  -5.18202069E-06
  -2.19000001E-02  -5.31332626E-06
  -2.18499992E-02  -5.43874785E-06
  -2.18000002E-02  -5.55931319E-06
  -2.17499994E-02  -5.67941834E-06
  -2.17000004E-02  -5.80493861E-06
  -2.16499995E-02  -5.94076755E-06
  -2.16000006E-02  -6.08880509E-06
  -2.15499997E-02  -6.24708855E-06
  -2.15000007E-02  -6.41046881E-06
  -2.14499999E-02  -6.57275041E-06
  -2.14000009E-02  -6.72943133E-06
  -2.13500001E-02  -6.87995589E-06
  -2.12999992E-02  -7.02848092E-06
  -2.12500002E-02  -7.18250612E-06
  -2.11999994E-02  -7.34995365E-06
  -2.11500004E-02  -7.53595577E-06
  -2.10999995E-02  -7.74078944E-06
  -2.10500006E-02  -7.95996220E-06
  -2.09999997E-02  -8.18636454E-06
  -2.09500007E-02  -8.41336441E-06
  -2.08999999E-02  -8.63769947E-06
  -2.08500009E-02  -8.86115777E-06
  -2.08000001E-02  -9.09021037E-06
  -2.07499992E-02  -9.33350293E-06
  -2.07000002E-02  -9.59829231E-06
  -2.06499994E-02  -9.88739794E-06
  -2.06000004E-02  -1.01979404E-05
  -2.05499995E-02  -1.05227964E-05
  -2.05000006E-02  -1.08540899E-05
  -2.04499997E-02  -1.11869995E-05
  -2.04000007E-02  -1.15221983E-05
  -2.03499999E-02  -1.18657363E-05
  -2.03000009E-02  -1.22266592E-05
  -2.02500001E-02  -1.26134746E-05
  -2.01999992E-02  -1.30307235E-05
  -2.01500002E-02  -1.34769707E-05
  -2.00999994E-02  -1.39453905E-05
  -2.00500004E-02  -1.44269279E-05
  -1.99999996E-02  -1.49146854E-05
  -1.99500006E-02  -1.54073241E-05
  -1.98999997E-02  -1.59099418E-05
  -1.98500007E-02  -1.64320318E-05
  -1.97999999E-02  -1.69832601E-05
  -1.97500009E-02  -1.75691894E-05
  -1.97000001E-02  -1.81887281E-05
  -1.96499992E-02  -1.88344802E-05
  -1.96000002E-02  -1.94960048E-05
  -1.95499994E-02  -2.01644289E-05
  -1.95000004E-02  -2.08363890E-05
  -1.94499996E-02  -2.15157743E-05
  -1.94000006E-02  -2.22123726E-05
  -1.93499997E-02  -2.29378638E-05
  -1.93000007E-02  -2.37005424E-05
  -1.92499999E-02  -2.45013143E-05
  -1.92000009E-02  -2.53330763E-05
  -1.91500001E-02  -2.61839341E-05
  -1.90999992E-02  -2.70426935E-05
  -1.90500002E-02  -2.79034793E-05
  -1.89999994E-02  -2.87682979E-05
  -1.89500004E-02  -2.96462531E-05
  -1.88999996E-02  -3.05496906E-05
  -1.88500006E-02  -3.14890603E-05
  -1.87999997E-02  -3.24680477E-05
  -1.87500007E-02  -3.34815413E-05
  -1.86999999E-02  -3.45178087E-05
  -1.86500009E-02  -3.55636585E-05
  -1.86000001E-02  -3.66101194E-05
  -1.85499992E-02  -3.76565658E-05
  -1.85000002E-02  -3.87107102E-05
  -1.84499994E-02  -3.97848671E-05
  -1.84000004E-02  -4.08902160E-05
  -1.83499996E-02  -4.20318938E-05
  -1.83000006E-02  -4.32069937E-05
  -1.82499997E-02  -4.44055731E-05
  -1.82000007E-02  -4.56154739E-05
  -1.81499999E-02  -4.68278922E-05
  -1.81000009E-02  -4.80412637E-05
  -1.80500001E-02  -4.92624349E-05
  -1.79999992E-02  -5.05041753E-05
  -1.79500002E-02  -5.17791414E-05
  -1.78999994E-02  -5.30939215E-05
  -1.78500004E-02  -5.44456816E-05
  -1.77999996E-02  -5.58233223E-05
  -1.77500006E-02  -5.72131430E-05
  -1.76999997E-02  -5.86048227E-05
  -1.76500008E-02  -5.99957202E-05
  -1.75999999E-02  -6.13920492E-05
  -1.75500009E-02  -6.28071284E-05
  -1.75000001E-02  -6.42563100E-05
  -1.74499992E-02  -6.57498676E-05
  -1.74000002E-02  -6.72881288E-05
  -1.73499994E-02  -6.88617947E-05
  -1.73000004E-02  -7.04573831E-05
  -1.72499996E-02  -7.20633980E-05
  -1.72000006E-02  -7.36755173E-05
  -1.71499997E-02  -7.52990818E-05
  -1.71000008E-02  -7.69474791E-05
  -1.70499999E-02  -7.86369710E-05
  -1.70000009E-02  -8.03798685E-05
  -1.69500001E-02  -8.21796348E-05
  -1.68999992E-02  -8.40298453E-05
  -1.68500002E-02  -8.59172651E-05
  -1.67999994E-02  -8.78285791E-05
  -1.67500004E-02  -8.97576974E-05
  -1.66999996E-02  -9.17089783E-05
  -1.66500006E-02  -9.36954166E-05
  -1.65999997E-02  -9.57336597E-05
  -1.65500008E-02  -9.78379030E-05
  -1.64999999E-02  -1.00014833E-04
  -1.64500009E-02  -1.02261096E-04
  -1.64000001E-02  -1.04566258E-04
  -1.63499992E-02  -1.06918502E-04
  -1.63000003E-02  -1.09310909E-04
  -1.62499994E-02  -1.11746696E-04
  -1.62000004E-02  -1.14238646E-04
  -1.61499996E-02  -1.16803123E-04
  -1.61000006E-02  -1.19453784E-04
  -1.60499997E-02  -1.22197511E-04
  -1.60000008E-02  -1.25032268E-04
  -1.59499999E-02  -1.27948690E-04
  -1.59000009E-02  -1.30934233E-04
  -1.58500001E-02  -1.33980779E-04
  -1.57999992E-02  -1.37091294E-04
  -1.57500003E-02  -1.40279939E-04
  -1.56999994E-02  -1.43565805E-04
  -1.56500004E-02  -1.46965467E-04
  -1.55999996E-02  -1.50487715E-04
  -1.55499997E-02  -1.54130990E-04
  -1.54999997E-02  -1.57885108E-04
  -1.54499998E-02  -1.61737378E-04
  -1.53999999E-02  -1.65679070E-04
  -1.53500000E-02  -1.69709238E-04
  -1.53000001E-02  -1.73837936E-04
  -1.52500002E-02  -1.78085218E-04
  -1.52000003E-02  -1.82470438E-04
  -1.51500003E-02  -1.87005760E-04
  -1.51000004E-02  -1.91693063E-04
  -1.50499996E-02  -1.96522451E-04
  -1.49999997E-02  -2.01479226E-04
  -1.49499997E-02  -2.06553537E-04
  -1.48999998E-02  -2.11744336E-04
  -1.48499999E-02  -2.17059642E-04
  -1.48000000E-02  -2.22515228E-04
  -1.47500001E-02  -2.28130273E-04
  -1.47000002E-02  -2.33918065E-04
  -1.46500003E-02  -2.39881250E-04
  -1.46000003E-02  -2.46012933E-04
  -1.45500004E-02  -2.52299564E-04
  -1.44999996E-02  -2.58729677E-04
  -1.44499997E-02  -2.65301758E-04
  -1.43999998E-02  -2.72024685E-04
  -1.43499998E-02  -2.78915395E-04
  -1.42999999E-02  -2.85993417E-04
  -1.42500000E-02  -2.93272693E-04
  -1.42000001E-02  -3.00755928E-04
  -1.41500002E-02  -3.08434130E-04
  -1.41000003E-02  -3.16293532E-04
  -1.40500003E-02  -3.24323308E-04
  -1.40000004E-02  -3.32520140E-04
  -1.39499996E-02  -3.40890052E-04
  -1.38999997E-02  -3.49449314E-04
  -1.38499998E-02  -3.58217047E-04
  -1.37999998E-02  -3.67210770E-04
  -1.37499999E-02  -3.76437994E-04
  -1.37000000E-02  -3.85889085E-04
  -1.36500001E-02  -3.95546114E-04
  -1.36000002E-02  -4.05393890E-04
  -1.35500003E-02  -4.15427872E-04
  -1.35000004E-02  -4.25657461E-04
  -1.34500004E-02  -4.36103554E-04
  -1.33999996E-02  -4.46786638E-04
  -1.33499997E-02  -4.57722694E-04
  -1.32999998E-02  -4.68921236E-04
  -1.32499998E-02  -4.80378629E-04
  -1.31999999E-02  -4.92077612E-04
  -1.31500000E-02  -5.03999239E-04
  -1.31000001E-02  -5.16132859E-04
  -1.30500002E-02  -5.28479635E-04
  -1.30000003E-02  -5.41056448E-04
  -1.29500004E-02  -5.53886872E-04
  -1.29000004E-02  -5.66988427E-04
  -1.28499996E-02  -5.80370193E-04
  -1.27999997E-02  -5.94031415E-04
  -1.27499998E-02  -6.07960741E-04
  -1.26999998E-02  -6.22145017E-04
  -1.26499999E-02  -6.36579061E-04
  -1.26000000E-02  -6.51265902E-04
  -1.25500001E-02  -6.66216540E-04
  -1.25000002E-02  -6.81450299E-04
  -1.24500003E-02  -6.96987612E-04
  -1.24000004E-02  -7.12834822E-04
  -1.23500004E-02  -7.28979299E-04
  -1.22999996E-02  -7.45397003E-04
  -1.22499997E-02  -7.62069074E-04
  -1.21999998E-02  -7.78997433E-04
  -1.21499998E-02  -7.96195061E-04
  -1.20999999E-02  -8.13687220E-04
  -1.20500000E-02  -8.31501093E-04
  -1.20000001E-02  -8.49662989E-04
  -1.19500002E-02  -8.68197822E-04
  -1.19000003E-02  -8.87106755E-04
  -1.18500004E-02  -9.06367495E-04
  -1.18000004E-02  -9.25947912E-04
  -1.17499996E-02  -9.45816631E-04
  -1.16999997E-02  -9.65955900E-04
  -1.16499998E-02  -9.86370607E-04
  -1.15999999E-02  -1.00707531E-03
  -1.15499999E-02  -1.02808850E-03
  -1.15000000E-02  -1.04943290E-03
  -1.14500001E-02  -1.07112352E-03
  -1.14000002E-02  -1.09315920E-03
  -1.13500003E-02  -1.11553806E-03
  -1.13000004E-02  -1.13827875E-03
  -1.12500004E-02  -1.16140745E-03
  -1.11999996E-02  -1.18494895E-03
  -1.11499997E-02  -1.20893074E-03
  -1.10999998E-02  -1.23337621E-03
  -1.10499999E-02  -1.25828781E-03
  -1.09999999E-02  -1.28363853E-03
  -1.09500000E-02  -1.30937621E-03
  -1.09000001E-02  -1.33543310E-03
  -1.08500002E-02  -1.36176019E-03
  -1.08000003E-02  -1.38834876E-03
  -1.07500004E-02  -1.41520705E-03
  -1.07000005E-02  -1.44236197E-03
  -1.06499996E-02  -1.46986800E-03
  -1.05999997E-02  -1.49778533E-03
  -1.05499998E-02  -1.52616901E-03
  -1.04999999E-02  -1.55505852E-03
  -1.04499999E-02  -1.58445898E-03
  -1.04000000E-02  -1.61435804E-03
  -1.03500001E-02  -1.64476037E-03
  -1.03000002E-02  -1.67568610E-03
  -1.02500003E-02  -1.70714618E-03
  -1.02000004E-02  -1.73912325E-03
  -1.01500005E-02  -1.77159032E-03
  -1.00999996E-02  -1.80452643E-03
  -1.00499997E-02  -1.83791155E-03
  -9.99999978E-03  -1.87171681E-03
  -9.94999986E-03  -1.90589949E-03
  -9.89999995E-03  -1.94041827E-03
  -9.85000003E-03  -1.97528559E-03
  -9.80000012E-03  -2.01058388E-03
  -9.75000020E-03  -2.04641698E-03
  -9.70000029E-03  -2.08281819E-03
  -9.65000037E-03  -2.11975444E-03
  -9.60000046E-03  -2.15722155E-03
  -9.54999961E-03  -2.19525746E-03
  -9.49999969E-03  -2.23389152E-03
  -9.44999978E-03  -2.27310555E-03
  -9.39999986E-03  -2.31284602E-03
  -9.34999995E-03  -2.35310802E-03
  -9.30000003E-03  -2.39398470E-03
  -9.25000012E-03  -2.43556802E-03
  -9.20000020E-03  -2.47787521E-03
  -9.15000029E-03  -2.52086273E-03
  -9.10000037E-03  -2.56446167E-03
  -9.05000046E-03  -2.60866317E-03
  -8.99999961E-03  -2.65350379E-03
  -8.94999970E-03  -2.69898446E-03
  -8.89999978E-03  -2.74505862E-03
  -8.84999987E-03  -2.79170764E-03
  -8.79999995E-03  -2.83895503E-03
  -8.75000004E-03  -2.88685760E-03
  -8.70000012E-03  -2.93548265E-03
  -8.65000021E-03  -2.98481830E-03
  -8.60000029E-03  -3.03478679E-03
  -8.55000038E-03  -3.08533851E-03
  -8.50000046E-03  -3.13654076E-03
  -8.44999962E-03  -3.18852486E-03
  -8.39999970E-03  -3.24136787E-03
  -8.34999979E-03  -3.29505466E-03
  -8.29999987E-03  -3.34955263E-03
  -8.24999996E-03  -3.40487272E-03
  -8.20000004E-03  -3.46106500E-03
  -8.15000013E-03  -3.51816998E-03
  -8.10000021E-03  -3.57614458E-03
  -8.05000030E-03  -3.63488286E-03
  -8.00000038E-03  -3.69437365E-03
  -7.95000046E-03  -3.75474198E-03
  -7.89999962E-03  -3.81610892E-03
  -7.84999970E-03  -3.87848704E-03
  -7.79999979E-03  -3.94178927E-03
  -7.74999987E-03  -4.00596019E-03
  -7.69999996E-03  -4.07102751E-03
  -7.65000004E-03  -4.13701637E-03
  -7.60000013E-03  -4.20391839E-03
  -7.55000021E-03  -4.27168980E-03
  -7.49999983E-03  -4.34029335E-03
  -7.44999992E-03  -4.40978538E-03
  -7.40000000E-03  -4.48027626E-03
  -7.35000009E-03  -4.55188099E-03
  -7.30000017E-03  -4.62457258E-03
  -7.24999979E-03  -4.69823740E-03
  -7.19999988E-03  -4.77286940E-03
  -7.14999996E-03  -4.84854169E-03
  -7.10000005E-03  -4.92535345E-03
  -7.05000013E-03  -5.00333635E-03
  -7.00000022E-03  -5.08243404E-03
  -6.94999984E-03  -5.16262557E-03
  -6.89999992E-03  -5.24399988E-03
  -6.85000001E-03  -5.32666128E-03
  -6.80000009E-03  -5.41060697E-03
  -6.75000018E-03  -5.49572147E-03
  -6.69999979E-03  -5.58186881E-03
  -6.64999988E-03  -5.66903222E-03
  -6.59999996E-03  -5.75736584E-03
  -6.55000005E-03  -5.84701402E-03
  -6.50000013E-03  -5.93795767E-03
  -6.45000022E-03  -6.03009062E-03
  -6.39999984E-03  -6.12331694E-03
  -6.34999992E-03  -6.21769577E-03
  -6.30000001E-03  -6.31337753E-03
  -6.25000009E-03  -6.41035708E-03
  -6.20000018E-03  -6.50846632E-03
  -6.14999980E-03  -6.60761958E-03
  -6.09999988E-03  -6.70794304E-03
  -6.04999997E-03  -6.80965744E-03
  -6.00000005E-03  -6.91289082E-03
  -5.95000014E-03  -7.01759709E-03
  -5.90000022E-03  -7.12363468E-03
  -5.84999984E-03  -7.23096263E-03
  -5.79999993E-03  -7.33968010E-03
  -5.75000001E-03  -7.44984718E-03
  -5.70000010E-03  -7.56137958E-03
  -5.65000018E-03  -7.67422514E-03
  -5.59999980E-03  -7.78846955E-03
  -5.54999989E-03  -7.90418591E-03
  -5.49999997E-03  -8.02143104E-03
  -5.45000006E-03  -8.14014394E-03
  -5.40000014E-03  -8.26017745E-03
  -5.35000023E-03  -8.38153996E-03
  -5.29999984E-03  -8.50427058E-03
  -5.24999993E-03  -8.62835720E-03
  -5.20000001E-03  -8.75379983E-03
  -5.15000010E-03  -8.88058636E-03
  -5.10000018E-03  -9.00871679E-03
  -5.04999980E-03  -9.13825724E-03
  -4.99999989E-03  -9.26930923E-03
  -4.94999997E-03  -9.40189324E-03
  -4.90000006E-03  -9.53597110E-03
  -4.85000014E-03  -9.67150554E-03
  -4.80000023E-03  -9.80848446E-03
  -4.74999985E-03  -9.94696748E-03
  -4.69999993E-03  -1.00871157E-02
  -4.65000002E-03  -1.02290288E-02
  -4.60000010E-03  -1.03725847E-02
  -4.55000019E-03  -1.05176819E-02
  -4.49999981E-03  -1.06643718E-02
  -4.44999989E-03  -1.08127017E-02
  -4.39999998E-03  -1.09625487E-02
  -4.35000006E-03  -1.11137396E-02
  -4.30000015E-03  -1.12662949E-02
  -4.25000023E-03  -1.14202714E-02
  -4.19999985E-03  -1.15758236E-02
  -4.14999994E-03  -1.17330290E-02
  -4.10000002E-03  -1.18917832E-02
  -4.05000011E-03  -1.20520853E-02
  -4.00000019E-03  -1.22138672E-02
  -3.94999981E-03  -1.23771382E-02
  -3.89999989E-03  -1.25420252E-02
  -3.84999998E-03  -1.27085242E-02
  -3.80000006E-03  -1.28765926E-02
  -3.74999992E-03  -1.30461715E-02
  -3.70000000E-03  -1.32173775E-02
  -3.65000009E-03  -1.33904768E-02
  -3.59999994E-03  -1.35654267E-02
  -3.55000002E-03  -1.37419477E-02
  -3.50000011E-03  -1.39199048E-02
  -3.44999996E-03  -1.40994117E-02
  -3.40000005E-03  -1.42806210E-02
  -3.34999990E-03  -1.44635718E-02
  -3.29999998E-03  -1.46481767E-02
  -3.25000007E-03  -1.48342689E-02
  -3.19999992E-03  -1.50218885E-02
  -3.15000000E-03  -1.52113177E-02
  -3.10000009E-03  -1.54024698E-02
  -3.04999994E-03  -1.55950710E-02
  -3.00000003E-03  -1.57891791E-02
  -2.95000011E-03  -1.59848426E-02
  -2.89999996E-03  -1.61820520E-02
  -2.85000005E-03  -1.63808893E-02
  -2.79999990E-03  -1.65814608E-02
  -2.74999999E-03  -1.67837478E-02
  -2.70000007E-03  -1.69875603E-02
  -2.64999992E-03  -1.71929467E-02
  -2.60000001E-03  -1.73999351E-02
  -2.55000009E-03  -1.76084749E-02
  -2.49999994E-03  -1.78186167E-02
  -2.45000003E-03  -1.80302169E-02
  -2.40000011E-03  -1.82433669E-02
  -2.34999997E-03  -1.84584055E-02
  -2.30000005E-03  -1.86753701E-02
  -2.24999990E-03  -1.88939944E-02
  -2.19999999E-03  -1.91141739E-02
  -2.15000007E-03  -1.93359666E-02
  -2.09999993E-03  -1.95594076E-02
  -2.05000001E-03  -1.97845232E-02
  -2.00000009E-03  -2.00111084E-02
  -1.94999995E-03  -2.02390570E-02
  -1.90000003E-03  -2.04684082E-02
  -1.85000000E-03  -2.06993073E-02
  -1.79999997E-03  -2.09318511E-02
  -1.75000005E-03  -2.11658925E-02
  -1.70000002E-03  -2.14013159E-02
  -1.64999999E-03  -2.16380544E-02
  -1.59999996E-03  -2.18761489E-02
  -1.55000004E-03  -2.21158043E-02
  -1.50000001E-03  -2.23570112E-02
  -1.44999998E-03  -2.25997139E-02
  -1.39999995E-03  -2.28440557E-02
  -1.35000004E-03  -2.30900105E-02
  -1.30000000E-03  -2.33374853E-02
  -1.24999997E-03  -2.35863104E-02
  -1.20000006E-03  -2.38364115E-02
  -1.15000003E-03  -2.40878742E-02
  -1.09999999E-03  -2.43410002E-02
  -1.04999996E-03  -2.45957635E-02
  -1.00000005E-03  -2.48515941E-02
  -9.50000016E-04  -2.51084659E-02
  -8.99999985E-04  -2.53667906E-02
  -8.50000011E-04  -2.56266873E-02
  -7.99999980E-04  -2.58878507E-02
  -7.50000007E-04  -2.61498243E-02
  -6.99999975E-04  -2.64126845E-02
  -6.50000002E-04  -2.66768187E-02
  -6.00000028E-04  -2.69422270E-02
  -5.49999997E-04  -2.72087064E-02
  -5.00000024E-04  -2.74760183E-02
  -4.49999992E-04  -2.77444273E-02
  -3.99999990E-04  -2.80144289E-02
  -3.49999988E-04  -2.82856319E-02
  -3.00000014E-04  -2.85573602E-02
  -2.50000012E-04  -2.88296603E-02
  -1.99999995E-04  -2.91030239E-02
  -1.50000007E-04  -2.93777231E-02
  -9.99999975E-05  -2.96534076E-02
  -4.99999987E-05  -2.99297068E-02
   0.00000000      -3.02065350E-02
   4.99999987E-05  -3.04842498E-02
   9.99999975E-05  -3.07629257E-02
   1.50000007E-04  -3.10421661E-02
   1.99999995E-04  -3.13217118E-02
   2.50000012E-04  -3.16017568E-02
   3.00000014E-04  -3.18827443E-02
   3.49999988E-04  -3.21644917E-02
   3.99999990E-04  -3.24464999E-02
   4.49999992E-04  -3.27281691E-02
   5.00000024E-04  -3.30097601E-02
   5.49999997E-04  -3.32919657E-02
   6.00000028E-04  -3.35751362E-02
   6.50000002E-04  -3.38583067E-02
   6.99999975E-04  -3.41403484E-02
   7.50000007E-04  -3.44219916E-02
   7.99999980E-04  -3.47042792E-02
   8.50000011E-04  -3.49874683E-02
   8.99999985E-04  -3.52704525E-02
   9.50000016E-04  -3.55521068E-02
   1.00000005E-03  -3.58327031E-02
   1.04999996E-03  -3.61132771E-02
   1.09999999E-03  -3.63942273E-02
   1.15000003E-03  -3.66750471E-02
   1.20000006E-03  -3.69548127E-02
   1.24999997E-03  -3.72330546E-02
   1.30000000E-03  -3.75103839E-02
   1.35000004E-03  -3.77877057E-02
   1.39999995E-03  -3.80646326E-02
   1.44999998E-03  -3.83395664E-02
   1.50000001E-03  -3.86119820E-02
   1.55000004E-03  -3.88828367E-02
   1.59999996E-03  -3.91533487E-02
   1.64999999E-03  -3.94234471E-02
   1.70000002E-03  -3.96913216E-02
   1.75000005E-03  -3.99559326E-02
   1.79999997E-03  -4.02181931E-02
   1.85000000E-03  -4.04794365E-02
   1.90000003E-03  -4.07396145E-02
   1.94999995E-03  -4.09970693E-02
   2.00000009E-03  -4.12507020E-02
   2.05000001E-03  -4.15010564E-02
   2.09999993E-03  -4.17498760E-02
   2.15000007E-03  -4.19977829E-02
   2.19999999E-03  -4.22435552E-02
   2.24999990E-03  -4.24852185E-02
   2.30000005E-03  -4.27217558E-02
   2.34999997E-03  -4.29548956E-02
   2.40000011E-03  -4.31866385E-02
   2.45000003E-03  -4.34161499E-02
   2.49999994E-03  -4.36404049E-02
   2.55000009E-03  -4.38581891E-02
   2.60000001E-03  -4.40718420E-02
   2.64999992E-03  -4.42833528E-02
   2.70000007E-03  -4.44922186E-02
   2.74999999E-03  -4.46959063E-02
   2.79999990E-03  -4.48920764E-02