  -3.99999991E-02   0.00000000    
  -3.99499983E-02   0.00000000    
  -3.99000011E-02   0.00000000    
  -3.98500003E-02   8.97977967E-19
  -3.97999994E-02   7.80018744E-18
  -3.97499986E-02   3.47223257E-17
  -3.97000015E-02   1.03472916E-16
  -3.96500006E-02   2.24083254E-16
  -3.95999998E-02   3.48253970E-16
  -3.95499989E-02   3.05543022E-16
  -3.95000018E-02  -2.42034106E-16
  -3.94500010E-02  -1.77411527E-15
  -3.94000001E-02  -4.77243181E-15
  -3.93499993E-02  -9.47505031E-15
  -3.92999984E-02  -1.56132753E-14
  -3.92500013E-02  -2.22946305E-14
  -3.92000005E-02  -2.81997190E-14
  -3.91499996E-02  -3.21435112E-14
  -3.90999988E-02  -3.38304383E-14
  -3.90500017E-02  -3.44206678E-14
  -3.90000008E-02  -3.64832405E-14
  -3.89500000E-02  -4.31378769E-14
  -3.88999991E-02  -5.66156720E-14
  -3.88499983E-02  -7.68796105E-14
  -3.88000011E-02  -1.01080860E-13
  -3.87500003E-02  -1.24348651E-13
  -3.86999995E-02  -1.41798113E-13
  -3.86499986E-02  -1.50960665E-13
  -3.86000015E-02  -1.53444247E-13
  -3.85500006E-02  -1.54782071E-13
  -3.84999998E-02  -1.62170204E-13
  -3.84499989E-02  -1.80860481E-13
  -3.84000018E-02  -2.10844390E-13
  -3.83500010E-02  -2.45605863E-13
  -3.83000001E-02  -2.73911969E-13
  -3.82499993E-02  -2.84149277E-13
  -3.81999984E-02  -2.69332543E-13
  -3.81500013E-02  -2.30386131E-13
  -3.81000005E-02  -1.75974049E-13
  -3.80499996E-02  -1.18750848E-13
  -3.79999988E-02  -6.96378244E-14
  -3.79500017E-02  -3.27404526E-14
  -3.79000008E-02  -3.30108391E-15
  -3.78500000E-02   3.03123818E-14
  -3.77999991E-02   8.14953506E-14
  -3.77499983E-02   1.59596715E-13
  -3.77000012E-02   2.66139297E-13
  -3.76500003E-02   3.94691414E-13
  -3.75999995E-02   5.34085580E-13
  -3.75499986E-02   6.73044194E-13
  -3.75000015E-02   8.03871726E-13
  -3.74500006E-02   9.23878812E-13
  -3.73999998E-02   1.03481720E-12
  -3.73499990E-02   1.14165838E-12
  -3.73000018E-02   1.25182189E-12
  -3.72500010E-02   1.37470200E-12
  -3.72000001E-02   1.52010837E-12
  -3.71499993E-02   1.69419448E-12
  -3.70999984E-02   1.89303542E-12
  -3.70500013E-02   2.09656402E-12
  -3.70000005E-02   2.26747310E-12
  -3.69499996E-02   2.35917254E-12
  -3.68999988E-02   2.33316643E-12
  -3.68500017E-02   2.18029848E-12
  -3.68000008E-02   1.93529264E-12
  -3.67500000E-02   1.67347603E-12
  -3.66999991E-02   1.48472814E-12
  -3.66499983E-02   1.43106360E-12
  -3.66000012E-02   1.50562115E-12
  -3.65500003E-02   1.61553453E-12
  -3.64999995E-02   1.60458907E-12
  -3.64499986E-02   1.31451761E-12
  -3.64000015E-02   6.63039881E-13
  -3.63500006E-02  -2.97391560E-13
  -3.62999998E-02  -1.37465907E-12
  -3.62499990E-02  -2.30050896E-12
  -3.62000018E-02  -2.84518177E-12
  -3.61500010E-02  -2.93579093E-12
  -3.61000001E-02  -2.71933322E-12
  -3.60499993E-02  -2.52767707E-12
  -3.59999985E-02  -2.74373167E-12
  -3.59500013E-02  -3.61826758E-12
  -3.59000005E-02  -5.12088419E-12
  -3.58499996E-02  -6.90582704E-12
  -3.57999988E-02  -8.42899101E-12
  -3.57500017E-02  -9.18233718E-12
  -3.57000008E-02  -8.94749465E-12
  -3.56500000E-02  -7.94500576E-12
  -3.55999991E-02  -6.78834332E-12
  -3.55499983E-02  -6.23517774E-12
  -3.55000012E-02  -6.82849220E-12
  -3.54500003E-02  -8.58946508E-12
  -3.53999995E-02  -1.09227020E-11
  -3.53499986E-02  -1.28125271E-11
  -3.53000015E-02  -1.32557828E-11
  -3.52500007E-02  -1.17514618E-11
  -3.51999998E-02  -8.61437397E-12
  -3.51499990E-02  -4.93493050E-12
  -3.51000018E-02  -2.15719673E-12
  -3.50500010E-02  -1.43059870E-12
  -3.50000001E-02  -3.02131519E-12
  -3.49499993E-02  -6.07676539E-12
  -3.48999985E-02  -8.90171877E-12
  -3.48500013E-02  -9.67547483E-12
  -3.48000005E-02  -7.31661780E-12
  -3.47499996E-02  -2.09471871E-12
  -3.46999988E-02   4.33644396E-12
  -3.46500017E-02   9.56720987E-12
  -3.46000008E-02   1.14944443E-11
  -3.45500000E-02   9.35561871E-12
  -3.44999991E-02   4.23511877E-12
  -3.44499983E-02  -1.25656863E-12
  -3.44000012E-02  -4.06483831E-12
  -3.43500003E-02  -2.09681469E-12
  -3.42999995E-02   4.68616292E-12
  -3.42499986E-02   1.40416134E-11
  -3.42000015E-02   2.22786355E-11
  -3.41500007E-02   2.58577708E-11
  -3.40999998E-02   2.30710867E-11
  -3.40499990E-02   1.50114764E-11
  -3.40000018E-02   5.30460268E-12
  -3.39500010E-02  -1.38204693E-12
  -3.39000002E-02  -1.45510145E-12
  -3.38499993E-02   5.81224045E-12
  -3.37999985E-02   1.76897923E-11
  -3.37500013E-02   2.89865128E-11
  -3.37000005E-02   3.42984321E-11
  -3.36499996E-02   3.05517729E-11
  -3.35999988E-02   1.86633538E-11
  -3.35500017E-02   3.45834884E-12
  -3.35000008E-02  -8.26212362E-12
  -3.34500000E-02  -1.07454106E-11
  -3.33999991E-02  -2.06731073E-12
  -3.33499983E-02   1.46617284E-11
  -3.33000012E-02   3.23571586E-11
  -3.32500003E-02   4.29668558E-11
  -3.31999995E-02   4.11623791E-11
  -3.31499986E-02   2.70356983E-11
  -3.31000015E-02   6.46225608E-12
  -3.30500007E-02  -1.12138406E-11
  -3.29999998E-02  -1.72875100E-11
  -3.29499990E-02  -7.80466577E-12
  -3.29000019E-02   1.42421257E-11
  -3.28500010E-02   3.97961525E-11
  -3.28000002E-02   5.75030960E-11
  -3.27499993E-02   5.88074173E-11
  -3.26999985E-02   4.20967115E-11
  -3.26500013E-02   1.39011172E-11
  -3.26000005E-02  -1.36057268E-11
  -3.25499997E-02  -2.78864085E-11
  -3.24999988E-02  -2.18304524E-11
  -3.24500017E-02   2.59562597E-12
  -3.24000008E-02   3.46637163E-11
  -3.23500000E-02   5.92650720E-11
  -3.22999991E-02   6.35792738E-11
  -3.22499983E-02   4.30859654E-11
  -3.22000012E-02   4.10185601E-12
  -3.21500003E-02  -3.85339399E-11
  -3.20999995E-02  -6.78379714E-11
  -3.20499986E-02  -7.24105984E-11
  -3.20000015E-02  -5.20215121E-11
  -3.19500007E-02  -1.83525417E-11
  -3.18999998E-02   9.71574383E-12
  -3.18499990E-02   1.44027021E-11
  -3.18000019E-02  -1.27151848E-11
  -3.17500010E-02  -6.62925756E-11
  -3.17000002E-02  -1.28885319E-10
  -3.16499993E-02  -1.78258977E-10
  -3.15999985E-02  -1.97274724E-10
  -3.15500014E-02  -1.81945931E-10
  -3.15000005E-02  -1.43871887E-10
  -3.14499997E-02  -1.05644264E-10
  -3.13999988E-02  -9.09784262E-11
  -3.13500017E-02  -1.13830494E-10
  -3.13000008E-02  -1.71437517E-10
  -3.12500000E-02  -2.44660431E-10
  -3.11999992E-02  -3.05827197E-10
  -3.11500002E-02  -3.30849903E-10
  -3.10999993E-02  -3.10282605E-10
  -3.10500003E-02  -2.54219895E-10
  -3.09999995E-02  -1.88513330E-10
  -3.09500005E-02  -1.43631065E-10
  -3.08999997E-02  -1.40902484E-10
  -3.08500007E-02  -1.82296997E-10
  -3.07999998E-02  -2.48550763E-10
  -3.07500008E-02  -3.06863784E-10
  -3.07000000E-02  -3.25085486E-10
  -3.06499992E-02  -2.86224849E-10
  -3.06000002E-02  -1.96711855E-10
  -3.05499993E-02  -8.44036160E-11
  -3.05000003E-02   1.31766820E-11
  -3.04499995E-02   6.54292037E-11
  -3.04000005E-02   6.27676383E-11
  -3.03499997E-02   2.17251408E-11
  -3.03000007E-02  -2.15890378E-11
  -3.02499998E-02  -2.71709755E-11
  -3.02000009E-02   3.08084981E-11
  -3.01500000E-02   1.51636675E-10
  -3.00999992E-02   3.07210812E-10
  -3.00500002E-02   4.53526355E-10
  -2.99999993E-02   5.49765511E-10
  -2.99500003E-02   5.76638071E-10
  -2.98999995E-02   5.45658851E-10
  -2.98500005E-02   4.94843111E-10
  -2.97999997E-02   4.72277051E-10
  -2.97500007E-02   5.14547072E-10
  -2.96999998E-02   6.29580221E-10
  -2.96500009E-02   7.91791521E-10
  -2.96000000E-02   9.52155021E-10
  -2.95499992E-02   1.05917619E-09
  -2.95000002E-02   1.08168841E-09
  -2.94499993E-02   1.02326336E-09
  -2.94000003E-02   9.21463739E-10
  -2.93499995E-02   8.31769487E-10
  -2.93000005E-02   8.02908462E-10
  -2.92499997E-02   8.54413817E-10
  -2.92000007E-02   9.66585145E-10
  -2.91499998E-02   1.08777698E-09
  -2.91000009E-02   1.15630794E-09
  -2.90500000E-02   1.12762055E-09
  -2.89999992E-02   9.94672011E-10
  -2.89500002E-02   7.92190868E-10
  -2.88999993E-02   5.82389748E-10
  -2.88500004E-02   4.27971047E-10
  -2.87999995E-02   3.64143521E-10
  -2.87500005E-02   3.82164744E-10
  -2.86999997E-02   4.32124947E-10
  -2.86500007E-02   4.44286274E-10
  -2.85999998E-02   3.59950791E-10
  -2.85500009E-02   1.58299568E-10
  -2.85000000E-02  -1.32935205E-10
  -2.84499992E-02  -4.48198062E-10
  -2.84000002E-02  -7.12031156E-10
  -2.83499993E-02  -8.72161177E-10
  -2.83000004E-02  -9.23074672E-10
  -2.82499995E-02  -9.09265219E-10
  -2.82000005E-02  -9.06149322E-10
  -2.81499997E-02  -9.86595916E-10
  -2.81000007E-02  -1.18767784E-09
  -2.80499998E-02  -1.49253998E-09
  -2.80000009E-02  -1.83589977E-09
  -2.79500000E-02  -2.13133422E-09
  -2.78999992E-02  -2.30869768E-09
  -2.78500002E-02  -2.34518516E-09
  -2.77999993E-02  -2.27598207E-09
  -2.77500004E-02  -2.17923235E-09
  -2.76999995E-02  -2.14142526E-09
  -2.76500005E-02  -2.21822805E-09
  -2.75999997E-02  -2.40820253E-09
  -2.75500007E-02  -2.65149347E-09
  -2.74999999E-02  -2.85469670E-09
  -2.74500009E-02  -2.93139224E-09
  -2.74000000E-02  -2.84057777E-09
  -2.73499992E-02  -2.60572675E-09
  -2.73000002E-02  -2.30549313E-09
  -2.72499993E-02  -2.03956008E-09
  -2.72000004E-02  -1.88435423E-09
  -2.71499995E-02  -1.85821836E-09
  -2.71000005E-02  -1.91184646E-09
  -2.70499997E-02  -1.94881467E-09
  -2.70000007E-02  -1.86767979E-09
  -2.69499999E-02  -1.60727631E-09
  -2.69000009E-02  -1.17500853E-09
  -2.68500000E-02  -6.45130283E-10
  -2.67999992E-02  -1.27177380E-10
  -2.67500002E-02   2.81895479E-10
  -2.66999993E-02   5.40765044E-10
  -2.66500004E-02   6.82599643E-10
  -2.65999995E-02   8.00825350E-10
  -2.65500005E-02   1.00757702E-09
  -2.64999997E-02   1.38294931E-09
  -2.64500007E-02   1.93761940E-09
  -2.63999999E-02   2.60583155E-09
  -2.63500009E-02   3.27240635E-09
  -2.63000000E-02   3.82224430E-09
  -2.62499992E-02   4.19049906E-09
  -2.62000002E-02   4.39092807E-09
  -2.61499994E-02   4.50937643E-09
  -2.61000004E-02   4.66480188E-09
  -2.60499995E-02   4.95485475E-09
  -2.60000005E-02   5.41026202E-09
  -2.59499997E-02   5.97862204E-09
  -2.59000007E-02   6.54531007E-09
  -2.58499999E-02   6.98259717E-09
  -2.58000009E-02   7.20525994E-09
  -2.57500000E-02   7.20776328E-09
  -2.56999992E-02   7.06603931E-09
  -2.56500002E-02   6.90264068E-09
  -2.55999994E-02   6.83052281E-09
  -2.55500004E-02   6.90054236E-09
  -2.54999995E-02   7.07639369E-09
  -2.54500005E-02   7.24859817E-09
  -2.53999997E-02   7.28167970E-09
  -2.53500007E-02   7.07360348E-09
  -2.52999999E-02   6.60081634E-09
  -2.52500009E-02   5.92844618E-09
  -2.52000000E-02   5.18077714E-09
  -2.51499992E-02   4.48500348E-09
  -2.51000002E-02   3.91346555E-09
  -2.50499994E-02   3.45045592E-09
  -2.50000004E-02   2.99879455E-09
  -2.49499995E-02   2.42343101E-09
  -2.49000005E-02   1.61259828E-09
  -2.48499997E-02   5.28927291E-10
  -2.48000007E-02  -7.72681197E-10
  -2.47499999E-02  -2.16867213E-09
  -2.47000009E-02  -3.52140117E-09
  -2.46500000E-02  -4.73998485E-09
  -2.45999992E-02  -5.81984994E-09
  -2.45500002E-02  -6.84294532E-09
  -2.44999994E-02  -7.93843569E-09
  -2.44500004E-02  -9.22169807E-09
  -2.43999995E-02  -1.07393712E-08
  -2.43500005E-02  -1.24454873E-08
  -2.42999997E-02  -1.42195793E-08
  -2.42500007E-02  -1.59184843E-08
  -2.41999999E-02  -1.74381167E-08
  -2.41500009E-02  -1.87569142E-08
  -2.41000000E-02  -1.99410461E-08
  -2.40499992E-02  -2.11090878E-08
  -2.40000002E-02  -2.23724985E-08
  -2.39499994E-02  -2.37793749E-08
  -2.39000004E-02  -2.52874539E-08
  -2.38499995E-02  -2.67788103E-08
  -2.38000005E-02  -2.81094170E-08
  -2.37499997E-02  -2.91705486E-08
  -2.37000007E-02  -2.99335952E-08
  -2.36499999E-02  -3.04574570E-08
  -2.36000009E-02  -3.08551940E-08
  -2.35500000E-02  -3.12354800E-08
  -2.34999992E-02  -3.16463158E-08
  -2.34500002E-02  -3.20472644E-08
  -2.33999994E-02  -3.23232676E-08
  -2.33500004E-02  -3.23335350E-08
  -2.32999995E-02  -3.19724975E-08
  -2.32500006E-02  -3.12142205E-08
  -2.31999997E-02  -3.01192244E-08
  -2.31500007E-02  -2.88005033E-08
  -2.30999999E-02  -2.73648464E-08
  -2.30500009E-02  -2.58572008E-08
  -2.30000000E-02  -2.42345894E-08
  -2.29499992E-02  -2.23822720E-08
  -2.29000002E-02  -2.01646575E-08
  -2.28499994E-02  -1.74868191E-08
  -2.28000004E-02  -1.43372869E-08
  -2.27499995E-02  -1.07913110E-08
  -2.27000006E-02  -6.97270153E-09
  -2.26499997E-02  -2.99210323E-09
  -2.26000007E-02   1.10871123E-09
  -2.25499999E-02   5.37943379E-09
  -2.25000009E-02   9.93919169E-09
  -2.24500000E-02   1.49197561E-08
  -2.23999992E-02   2.04010480E-08
  -2.23500002E-02   2.63700546E-08
  -2.22999994E-02   3.27239924E-08
  -2.22500004E-02   3.93172392E-08
  -2.21999995E-02   4.60304150E-08
  -2.21500006E-02   5.28285327E-08
  -2.20999997E-02   5.97793743E-08
  -2.20500007E-02   6.70217091E-08
  -2.19999999E-02   7.46970770E-08
  -2.19500009E-02   8.28771576E-08
  -2.19000001E-02   9.15218266E-08
  -2.18499992E-02   1.00489800E-07
  -2.18000002E-02   1.09599092E-07
  -2.17499994E-02   1.18709842E-07
  -2.17000004E-02   1.27790003E-07
  -2.16499995E-02   1.36931732E-07
  -2.16000006E-02   1.46308025E-07
  -2.15499997E-02   1.56087452E-07
  -2.15000007E-02   1.66346737E-07
  -2.14499999E-02   1.77022983E-07
  -2.14000009E-02   1.87930794E-07
  -2.13500001E-02   1.98839260E-07
  -2.12999992E-02   2.09574793E-07
  -2.12500002E-02   2.20102095E-07
  -2.11999994E-02   2.30543080E-07
  -2.11500004E-02   2.41121882E-07
  -2.10999995E-02   2.52058356E-07
  -2.10500006E-02   2.63457792E-07
  -2.09999997E-02   2.75249846E-07
  -2.09500007E-02   2.87208536E-07
  -2.08999999E-02   2.99045951E-07
  -2.08500009E-02   3.10541765E-07
  -2.08000001E-02   3.21647093E-07
  -2.07499992E-02   3.32512968E-07
  -2.07000002E-02   3.43426706E-07
  -2.06499994E-02   3.54680878E-07
  -2.06000004E-02   3.66433483E-07
  -2.05499995E-02   3.78624122E-07
  -2.05000006E-02   3.90988987E-07
  -2.04499997E-02   4.03173033E-07
  -2.04000007E-02   4.14890224E-07
  -2.03499999E-02   4.26060126E-07
  -2.03000009E-02   4.36856652E-07
  -2.02500001E-02   4.47641185E-07
  -2.01999992E-02   4.58805999E-07
  -2.01500002E-02   4.70595694E-07
  -2.00999994E-02   4.82990060E-07
  -2.00500004E-02   4.95703773E-07
  -1.99999996E-02   5.08309256E-07
  -1.99500006E-02   5.20432764E-07
  -1.98999997E-02   5.31933949E-07
  -1.98500007E-02   5.42987834E-07
  -1.97999999E-02   5.54024723E-07
  -1.97500009E-02   5.65550806E-07
  -1.97000001E-02   5.77927722E-07
  -1.96499992E-02   5.91207538E-07
  -1.96000002E-02   6.05102684E-07
  -1.95499994E-02   6.19112654E-07
  -1.95000004E-02   6.32752744E-07
  -1.94499996E-02   6.45784837E-07
  -1.94000006E-02   6.58347290E-07
  -1.93499997E-02   6.70920087E-07
  -1.93000007E-02   6.84130896E-07
  -1.92499999E-02   6.98487327E-07
  -1.92000009E-02   7.14154169E-07
  -1.91500001E-02   7.30877218E-07
  -1.90999992E-02   7.48094806E-07
  -1.90500002E-02   7.65195750E-07
  -1.89999994E-02   7.81808694E-07
  -1.89500004E-02   7.97993039E-07
  -1.88999996E-02   8.14242242E-07
  -1.88500006E-02   8.31291970E-07
  -1.87999997E-02   8.49810704E-07
  -1.87500007E-02   8.70108011E-07
  -1.86999999E-02   8.91995455E-07
  -1.86500009E-02   9.14868394E-07
  -1.86000001E-02   9.37977916E-07
  -1.85499992E-02   9.60779630E-07
  -1.85000002E-02   9.83200721E-07
  -1.84499994E-02   1.00570628E-06
  -1.84000004E-02   1.02912293E-06
  -1.83499996E-02   1.05429251E-06
  -1.83000006E-02   1.08170798E-06
  -1.82499997E-02   1.11129452E-06
  -1.82000007E-02   1.14243790E-06
  -1.81499999E-02   1.17425623E-06
  -1.81000009E-02   1.20600191E-06
  -1.80500001E-02   1.23741620E-06
  -1.79999992E-02   1.26887585E-06
  -1.79500002E-02   1.30125693E-06
  -1.78999994E-02   1.33557194E-06
  -1.78500004E-02   1.37253528E-06
  -1.77999996E-02   1.41224541E-06
  -1.77500006E-02   1.45413162E-06
  -1.76999997E-02   1.49720188E-06
  -1.76500008E-02   1.54048632E-06
  -1.75999999E-02   1.58348246E-06
  -1.75500009E-02   1.62640674E-06
  -1.75000001E-02   1.67013093E-06
  -1.74499992E-02   1.71582747E-06
  -1.74000002E-02   1.76446133E-06
  -1.73499994E-02   1.81636449E-06
  -1.73000004E-02   1.87108276E-06
  -1.72499996E-02   1.92756670E-06
  -1.72000006E-02   1.98463499E-06
  -1.71499997E-02   2.04150842E-06
  -1.71000008E-02   2.09818495E-06
  -1.70499999E-02   2.15547198E-06
  -1.70000009E-02   2.21465734E-06
  -1.69500001E-02   2.27696682E-06
  -1.68999992E-02   2.34302274E-06
  -1.68500002E-02   2.41256089E-06
  -1.67999994E-02   2.48453739E-06
  -1.67500004E-02   2.55758323E-06
  -1.66999996E-02   2.63061611E-06
  -1.66500006E-02   2.70334567E-06
  -1.65999997E-02   2.77643858E-06
  -1.65500008E-02   2.85125634E-06
  -1.64999999E-02   2.92928189E-06
  -1.64500009E-02   3.01146815E-06
  -1.64000001E-02   3.09781831E-06
  -1.63499992E-02   3.18738125E-06
  -1.63000003E-02   3.27866087E-06
  -1.62499994E-02   3.37027836E-06
  -1.62000004E-02   3.46160709E-06
  -1.61499996E-02   3.55308862E-06
  -1.61000006E-02   3.64607672E-06
  -1.60499997E-02   3.74228284E-06
  -1.60000008E-02   3.84303712E-06
  -1.59499999E-02   3.94870540E-06
  -1.59000009E-02   4.05852825E-06
  -1.58500001E-02   4.17094316E-06
  -1.57999992E-02   4.28428075E-06
  -1.57500003E-02   4.39752603E-06
  -1.56999994E-02   4.51080314E-06
  -1.56500004E-02   4.62537082E-06
  -1.55999996E-02   4.74310946E-06
  -1.55499997E-02   4.86572662E-06
  -1.54999997E-02   4.99402631E-06
  -1.54499998E-02   5.12754514E-06
  -1.53999999E-02   5.26476379E-06
  -1.53500000E-02   5.40378778E-06
  -1.53000001E-02   5.54319377E-06
  -1.52500002E-02   5.68270889E-06
  -1.52000003E-02   5.82339317E-06
  -1.51500003E-02   5.96722521E-06
  -1.51000004E-02   6.11627092E-06
  -1.50499996E-02   6.27180589E-06
  -1.49999997E-02   6.43377325E-06
  -1.49499997E-02   6.60080696E-06
  -1.48999998E-02   6.77084972E-06
  -1.48499999E-02   6.94207893E-06
  -1.48000000E-02   7.11375696E-06
  -1.47500001E-02   7.28662326E-06
  -1.47000002E-02   7.46263504E-06
  -1.46500003E-02   7.64416836E-06
  -1.46000003E-02   7.83299947E-06
  -1.45500004E-02   8.02955674E-06
  -1.44999996E-02   8.23275150E-06
  -1.44499997E-02   8.44045826E-06
  -1.43999998E-02   8.65048878E-06
  -1.43499998E-02   8.86159887E-06
  -1.42999999E-02   9.07410231E-06
  -1.42500000E-02   9.28981444E-06
  -1.42000001E-02   9.51133916E-06
  -1.41500002E-02   9.74095110E-06
  -1.41000003E-02   9.97964707E-06
  -1.40500003E-02   1.02267377E-05
  -1.40000004E-02   1.04801429E-05
  -1.39499996E-02   1.07373789E-05
  -1.38999997E-02   1.09966732E-05
  -1.38499998E-02   1.12577891E-05
  -1.37999998E-02   1.15222547E-05
  -1.37499999E-02   1.17927539E-05
  -1.37000000E-02   1.20720042E-05
  -1.36500001E-02   1.23616101E-05
  -1.36000002E-02   1.26614059E-05
  -1.35500003E-02   1.29695663E-05
  -1.35000004E-02   1.32834166E-05
  -1.34500004E-02   1.36006392E-05
  -1.33999996E-02   1.39204021E-05
  -1.33499997E-02   1.42438093E-05
  -1.32999998E-02   1.45734457E-05
  -1.32499998E-02   1.49123598E-05
  -1.31999999E-02   1.52628163E-05
  -1.31500000E-02   1.56252845E-05
  -1.31000001E-02   1.59982992E-05
  -1.30500002E-02   1.63791410E-05
  -1.30000003E-02   1.67650614E-05
  -1.29500004E-02   1.71545653E-05
  -1.29000004E-02   1.75481491E-05
  -1.28499996E-02   1.79481922E-05
  -1.27999997E-02   1.83579650E-05
  -1.27499998E-02   1.87802834E-05
  -1.26999998E-02   1.92163461E-05
  -1.26499999E-02   1.96652090E-05
  -1.26000000E-02   2.01242547E-05
  -1.25500001E-02   2.05903507E-05
  -1.25000002E-02   2.10613634E-05
  -1.24500003E-02   2.15371474E-05
  -1.24000004E-02   2.20196616E-05
  -1.23500004E-02   2.25122822E-05
  -1.22999996E-02   2.30183759E-05
  -1.22499997E-02   2.35399111E-05
  -1.21999998E-02   2.40765894E-05
  -1.21499998E-02   2.46260242E-05
  -1.20999999E-02   2.51848924E-05
  -1.20500000E-02   2.57504071E-05
  -1.20000001E-02   2.63216352E-05
  -1.19500002E-02   2.68999756E-05
  -1.19000003E-02   2.74886552E-05
  -1.18500004E-02   2.80914483E-05
  -1.18000004E-02   2.87110142E-05
  -1.17499996E-02   2.93478552E-05
  -1.16999997E-02   3.00002121E-05
  -1.16499998E-02   3.06647671E-05
  -1.15999999E-02   3.13382370E-05
  -1.15499999E-02   3.20189356E-05
  -1.15000000E-02   3.27075104E-05
  -1.14500001E-02   3.34068318E-05
  -1.14000002E-02   3.41208142E-05
  -1.13500003E-02   3.48527865E-05
  -1.13000004E-02   3.56041382E-05
  -1.12500004E-02   3.63736654E-05
  -1.11999996E-02   3.71581664E-05
  -1.11499997E-02   3.79539779E-05
  -1.10999998E-02   3.87585787E-05
  -1.10499999E-02   3.95717725E-05
  -1.09999999E-02   4.03959675E-05
  -1.09500000E-02   4.12352383E-05
  -1.09000001E-02   4.20936449E-05
  -1.08500002E-02   4.29734864E-05
  -1.08000003E-02   4.38744319E-05
  -1.07500004E-02   4.47937273E-05
  -1.07000005E-02   4.57274073E-05
  -1.06499996E-02   4.66722158E-05
  -1.05999997E-02   4.76271089E-05
  -1.05499998E-02   4.85936689E-05
  -1.04999999E-02   4.95755703E-05
  -1.04499999E-02   5.05772005E-05
  -1.04000000E-02   5.16016917E-05
  -1.03500001E-02   5.26496333E-05
  -1.03000002E-02   5.37189117E-05
  -1.02500003E-02   5.48056196E-05
  -1.02000004E-02   5.59059808E-05
  -1.01500005E-02   5.70179182E-05
  -1.00999996E-02   5.81421409E-05
  -1.00499997E-02   5.92820652E-05
  -9.99999978E-03   6.04422894E-05
  -9.94999986E-03   6.16267571E-05
  -9.89999995E-03   6.28370472E-05
  -9.85000003E-03   6.40718645E-05
  -9.80000012E-03   6.53275929E-05
  -9.75000020E-03   6.65999978E-05
  -9.70000029E-03   6.78861907E-05
  -9.65000037E-03   6.91859896E-05
  -9.60000046E-03   7.05020720E-05
  -9.54999961E-03   7.18389638E-05
  -9.49999969E-03   7.32012268E-05
  -9.44999978E-03   7.45913712E-05
  -9.39999986E-03   7.60088151E-05
  -9.34999995E-03   7.74502550E-05
  -9.30000003E-03   7.89112310E-05
  -9.25000012E-03   8.03881485E-05
  -9.20000020E-03   8.18798217E-05
  -9.15000029E-03   8.33879749E-05
  -9.10000037E-03   8.49167554E-05
  -9.05000046E-03   8.64710601E-05
  -8.99999961E-03   8.80542793E-05
  -8.94999970E-03   8.96668935E-05
  -8.89999978E-03   9.13066033E-05
  -8.84999987E-03   9.29693560E-05
  -8.79999995E-03   9.46509681E-05
  -8.75000004E-03   9.63492057E-05
  -8.70000012E-03   9.80647965E-05
  -8.65000021E-03   9.98012620E-05
  -8.60000029E-03   1.01563484E-04
  -8.55000038E-03   1.03355589E-04
  -8.50000046E-03   1.05179308E-04
  -8.44999962E-03   1.07033258E-04
  -8.39999970E-03   1.08913555E-04
  -8.34999979E-03   1.10815425E-04
  -8.29999987E-03   1.12735397E-04
  -8.24999996E-03   1.14673014E-04
  -8.20000004E-03   1.16631192E-04
  -8.15000013E-03   1.18614596E-04
  -8.10000021E-03   1.20627759E-04
  -8.05000030E-03   1.22673417E-04
  -8.00000038E-03   1.24751081E-04
  -7.95000046E-03   1.26857398E-04
  -7.89999962E-03   1.28987391E-04
  -7.84999970E-03   1.31136985E-04
  -7.79999979E-03   1.33304638E-04
  -7.74999987E-03   1.35492155E-04
  -7.69999996E-03   1.37704119E-04
  -7.65000004E-03   1.39945885E-04
  -7.60000013E-03   1.42221281E-04
  -7.55000021E-03   1.44531048E-04
  -7.49999983E-03   1.46872248E-04
  -7.44999992E-03   1.49239830E-04
  -7.40000000E-03   1.51629094E-04
  -7.35000009E-03   1.54037101E-04
  -7.30000017E-03   1.56464099E-04
  -7.24999979E-03   1.58914045E-04
  -7.19999988E-03   1.61392367E-04
  -7.14999996E-03   1.63903562E-04
  -7.10000005E-03   1.66449521E-04
  -7.05000013E-03   1.69028397E-04
  -7.00000022E-03   1.71635344E-04
  -6.94999984E-03   1.74264409E-04
  -6.89999992E-03   1.76911795E-04
  -6.85000001E-03   1.79577211E-04
  -6.80000009E-03   1.82263553E-04
  -6.75000018E-03   1.84976292E-04
  -6.69999979E-03   1.87720492E-04
  -6.64999988E-03   1.90498991E-04
  -6.59999996E-03   1.93310960E-04
  -6.55000005E-03   1.96151697E-04
  -6.50000013E-03   1.99015514E-04
  -6.45000022E-03   2.01897696E-04
  -6.39999984E-03   2.04796408E-04
  -6.34999992E-03   2.07713965E-04
  -6.30000001E-03   2.10655620E-04
  -6.25000009E-03   2.13626859E-04
  -6.20000018E-03   2.16630768E-04
  -6.14999980E-03   2.19667359E-04
  -6.09999988E-03   2.22733172E-04
  -6.04999997E-03   2.25821612E-04
  -6.00000005E-03   2.28926874E-04
  -5.95000014E-03   2.32046339E-04
  -5.90000022E-03   2.35181127E-04
  -5.84999984E-03   2.38335808E-04
  -5.79999993E-03   2.41516682E-04
  -5.75000001E-03   2.44727795E-04
  -5.70000010E-03   2.47968215E-04
  -5.65000018E-03   2.51234422E-04
  -5.59999980E-03   2.54521030E-04
  -5.54999989E-03   2.57822569E-04
  -5.49999997E-03   2.61136302E-04
  -5.45000006E-03   2.64462549E-04
  -5.40000014E-03   2.67804164E-04
  -5.35000023E-03   2.71166122E-04
  -5.29999984E-03   2.74552905E-04
  -5.24999993E-03   2.77965155E-04
  -5.20000001E-03   2.81400455E-04
  -5.15000010E-03   2.84853886E-04
  -5.10000018E-03   2.88319454E-04
  -5.04999980E-03   2.91793491E-04
  -4.99999989E-03   2.95275502E-04
  -4.94999997E-03   2.98766943E-04
  -4.90000006E-03   3.02271481E-04
  -4.85000014E-03   3.05793365E-04
  -4.80000023E-03   3.09334573E-04
  -4.74999985E-03   3.12893593E-04
  -4.69999993E-03   3.16465419E-04
  -4.65000002E-03   3.20043531E-04
  -4.60000010E-03   3.23623302E-04
  -4.55000019E-03   3.27203190E-04
  -4.49999981E-03   3.30785435E-04
  -4.44999989E-03   3.34373763E-04
  -4.39999998E-03   3.37971433E-04
  -4.35000006E-03   3.41580366E-04
  -4.30000015E-03   3.45199864E-04
  -4.25000023E-03   3.48825764E-04
  -4.19999985E-03   3.52451287E-04
  -4.14999994E-03   3.56070988E-04
  -4.10000002E-03   3.59682192E-04
  -4.05000011E-03   3.63285595E-04
  -4.00000019E-03   3.66885361E-04
  -3.94999981E-03   3.70485184E-04
  -3.89999989E-03   3.74086492E-04
  -3.84999998E-03   3.77688528E-04
  -3.80000006E-03   3.81287013E-04
  -3.74999992E-03   3.84876039E-04
  -3.70000000E-03   3.88449844E-04
  -3.65000009E-03   3.92004818E-04
  -3.59999994E-03   3.95540526E-04
  -3.55000002E-03   3.99058830E-04
  -3.50000011E-03   4.02562437E-04
  -3.44999996E-03   4.06054023E-04
  -3.40000005E-03   4.09533852E-04
  -3.34999990E-03   4.12999332E-04
  -3.29999998E-03   4.16445750E-04
  -3.25000007E-03   4.19866992E-04
  -3.19999992E-03   4.23257938E-04
  -3.15000000E-03   4.26615967E-04
  -3.10000009E-03   4.29939682E-04
  -3.04999994E-03   4.33230307E-04
  -3.00000003E-03   4.36491566E-04
  -2.95000011E-03   4.39725176E-04
  -2.89999996E-03   4.42931923E-04
  -2.85000005E-03   4.46109974E-04
  -2.79999990E-03   4.49251849E-04
  -2.74999999E-03   4.52348031E-04
  -2.70000007E-03   4.55393805E-04
  -2.64999992E-03   4.58387134E-04
  -2.60000001E-03   4.61328164E-04
  -2.55000009E-03   4.64220764E-04
  -2.49999994E-03   4.67068778E-04
  -2.45000003E-03   4.69872874E-04
  -2.40000011E-03   4.72629326E-04
  -2.34999997E-03   4.75331850E-04
  -2.30000005E-03   4.77973750E-04
  -2.24999990E-03   4.80547431E-04
  -2.19999999E-03   4.83048469E-04
  -2.15000007E-03   4.85476659E-04
  -2.09999993E-03   4.87834535E-04
  -2.05000001E-03   4.90126957E-04
  -2.00000009E-03   4.92355146E-04
  -1.94999995E-03   4.94515756E-04
  -1.90000003E-03   4.96603025E-04
  -1.85000000E-03   4.98609559E-04
  -1.79999997E-03   5.00525988E-04
  -1.75000005E-03   5.02346491E-04
  -1.70000002E-03   5.04071242E-04
  -1.64999999E-03   5.05702686E-04
  -1.59999996E-03   5.07245306E-04
  -1.55000004E-03   5.08701720E-04
  -1.50000001E-03   5.10069600E-04
  -1.44999998E-03   5.11342601E-04
  -1.39999995E-03   5.12510596E-04
  -1.35000004E-03   5.13564679E-04
  -1.30000000E-03   5.14499028E-04
  -1.24999997E-03   5.15310909E-04
  -1.20000006E-03   5.16002590E-04
  -1.15000003E-03   5.16576460E-04
  -1.09999999E-03   5.17034554E-04
  -1.04999996E-03   5.17378270E-04
  -1.00000005E-03   5.17601322E-04
  -9.50000016E-04   5.17694978E-04
  -8.99999985E-04   5.17650857E-04
  -8.50000011E-04   5.17461041E-04
  -7.99999980E-04   5.17120527E-04
  -7.50000007E-04   5.16629720E-04
  -6.99999975E-04   5.15991938E-04
  -6.50000002E-04   5.15210384E-04
  -6.00000028E-04   5.14284591E-04
  -5.49999997E-04   5.13209787E-04
  -5.00000024E-04   5.11981198E-04
  -4.49999992E-04   5.10588288E-04
  -3.99999990E-04   5.09021571E-04
  -3.49999988E-04   5.07276156E-04
  -3.00000014E-04   5.05347503E-04
  -2.50000012E-04   5.03235380E-04
  -1.99999995E-04   5.00943570E-04
  -1.50000007E-04   4.98475914E-04
  -9.99999975E-05   4.95832704E-04
  -4.99999987E-05   4.93008934E-04
   0.00000000       4.89992206E-04
   4.99999987E-05   4.86769568E-04
   9.99999975E-05   4.83329612E-04
   1.50000007E-04   4.79670533E-04
   1.99999995E-04   4.75797919E-04
   2.50000012E-04   4.71712643E-04
   3.00000014E-04   4.67417121E-04
   3.49999988E-04   4.62914060E-04
   3.99999990E-04   4.58199560E-04
   4.49999992E-04   4.53261891E-04
   5.00000024E-04   4.48087463E-04
   5.49999997E-04   4.42665332E-04
   6.00000028E-04   4.36989416E-04
   6.50000002E-04   4.31059656E-04
   6.99999975E-04   4.24879137E-04
   7.50000007E-04   4.18454438E-04
   7.99999980E-04   4.11790999E-04
   8.50000011E-04   4.04883322E-04
   8.99999985E-04   3.97718861E-04
   9.50000016E-04   3.90284724E-04
   1.00000005E-03   3.82568920E-04
   1.04999996E-03   3.74563737E-04
   1.09999999E-03   3.66266555E-04
   1.15000003E-03   3.57683602E-04
   1.20000006E-03   3.48822417E-04
   1.24999997E-03   3.39685968E-04
   1.30000000E-03   3.30273004E-04
   1.35000004E-03   3.20573221E-04
   1.39999995E-03   3.10567324E-04
   1.44999998E-03   3.00241372E-04
   1.50000001E-03   2.89586635E-04
   1.55000004E-03   2.78601568E-04
   1.59999996E-03   2.67293246E-04
   1.64999999E-03   2.55670835E-04
   1.70000002E-03   2.43744944E-04
   1.75000005E-03   2.31514452E-04
   1.79999997E-03   2.18967354E-04
   1.85000000E-03   2.06083743E-04
   1.90000003E-03   1.92840482E-04
   1.94999995E-03   1.79227703E-04
   2.00000009E-03   1.65245947E-04
   2.05000001E-03   1.50902750E-04
   2.09999993E-03   1.36211820E-04
   2.15000007E-03   1.21184879E-04
   2.19999999E-03   1.05822975E-04
   2.24999990E-03   9.01124076E-05
   2.30000005E-03   7.40346950E-05
   2.34999997E-03   5.75679333E-05
   2.40000011E-03   4.06943400E-05
   2.45000003E-03   2.34138424E-05
   2.49999994E-03   5.73853958E-06
   2.55000009E-03  -1.23148575E-05
   2.60000001E-03  -3.07368864E-05
   2.64999992E-03  -4.95285058E-05
   2.70000007E-03  -6.87006977E-05
   2.74999999E-03  -8.82695240E-05
   2.79999990E-03  -1.08254797E-04