  -3.99999991E-02   0.00000000    
  -3.99499983E-02   0.00000000    
  -3.99000011E-02   0.00000000    
  -3.98500003E-02   1.45875760E-15
  -3.97999994E-02   1.10432674E-14
  -3.97499986E-02   4.34608777E-14
  -3.97000015E-02   1.19652579E-13
  -3.96500006E-02   2.62648627E-13
  -3.95999998E-02   4.99211729E-13
  -3.95499989E-02   8.68998179E-13
  -3.95000018E-02   1.42578104E-12
  -3.94500010E-02   2.21068845E-12
  -3.94000001E-02   3.20531882E-12
  -3.93499993E-02   4.31244667E-12
  -3.92999984E-02   5.41047849E-12
  -3.92500013E-02   6.46300504E-12
  -3.92000005E-02   7.59378498E-12
  -3.91499996E-02   9.04810862E-12
  -3.90999988E-02   1.10629353E-11
  -3.90500017E-02   1.37570467E-11
  -3.90000008E-02   1.71220191E-11
  -3.89500000E-02   2.10755736E-11
  -3.88999991E-02   2.54795317E-11
  -3.88499983E-02   3.01095711E-11
  -3.88000011E-02   3.46858341E-11
  -3.87500003E-02   3.90450484E-11
  -3.86999995E-02   4.33444461E-11
  -3.86499986E-02   4.80597992E-11
  -3.86000015E-02   5.36812782E-11
  -3.85500006E-02   6.03225386E-11
  -3.84999998E-02   6.75929313E-11
  -3.84499989E-02   7.48458934E-11
  -3.84000018E-02   8.15390325E-11
  -3.83500010E-02   8.73546027E-11
  -3.83000001E-02   9.20466203E-11
  -3.82499993E-02   9.53234366E-11
  -3.81999984E-02   9.70115793E-11
  -3.81500013E-02   9.73364098E-11
  -3.81000005E-02   9.69135050E-11
  -3.80499996E-02   9.63242056E-11
  -3.79999988E-02   9.56573015E-11
  -3.79500017E-02   9.44941417E-11
  -3.79000008E-02   9.23167306E-11
  -3.78500000E-02   8.88063997E-11
  -3.77999991E-02   8.36288677E-11
  -3.77499983E-02   7.59887223E-11
  -3.77000012E-02   6.46524986E-11
  -3.76500003E-02   4.86795881E-11
  -3.75999995E-02   2.82196801E-11
  -3.75499986E-02   4.47435708E-12
  -3.75000015E-02  -2.13205321E-11
  -3.74500006E-02  -4.90260818E-11
  -3.73999998E-02  -7.98516531E-11
  -3.73499990E-02  -1.15618071E-10
  -3.73000018E-02  -1.57787269E-10
  -3.72500010E-02  -2.06902676E-10
  -3.72000001E-02  -2.62303956E-10
  -3.71499993E-02  -3.21689370E-10
  -3.70999984E-02  -3.80793980E-10
  -3.70500013E-02  -4.34202896E-10
  -3.70000005E-02  -4.77805184E-10
  -3.69499996E-02  -5.11745923E-10
  -3.68999988E-02  -5.41608425E-10
  -3.68500017E-02  -5.76416692E-10
  -3.68000008E-02  -6.24366225E-10
  -3.67500000E-02  -6.88837098E-10
  -3.66999991E-02  -7.66795683E-10
  -3.66499983E-02  -8.49864790E-10
  -3.66000012E-02  -9.27066146E-10
  -3.65500003E-02  -9.88321980E-10
  -3.64999995E-02  -1.02819486E-09
  -3.64499986E-02  -1.04877729E-09
  -3.64000015E-02  -1.05971010E-09
  -3.63500006E-02  -1.07385767E-09
  -3.62999998E-02  -1.09988729E-09
  -3.62499990E-02  -1.13597132E-09
  -3.62000018E-02  -1.16901389E-09
  -3.61500010E-02  -1.18045573E-09
  -3.61000001E-02  -1.15536347E-09
  -3.60499993E-02  -1.08973386E-09
  -3.59999985E-02  -9.92653404E-10
  -3.59500013E-02  -8.82975359E-10
  -3.59000005E-02  -7.82073628E-10
  -3.58499996E-02  -7.04771685E-10
  -3.57999988E-02  -6.51259713E-10
  -3.57500017E-02  -6.03934014E-10
  -3.57000008E-02  -5.32661859E-10
  -3.56500000E-02  -4.08138912E-10
  -3.55999991E-02  -2.17338009E-10
  -3.55499983E-02   2.78529734E-11
  -3.55000012E-02   2.94636704E-10
  -3.54500003E-02   5.44395751E-10
  -3.53999995E-02   7.50975782E-10
  -3.53499986E-02   9.13305820E-10
  -3.53000015E-02   1.05715015E-09
  -3.52500007E-02   1.22568533E-09
  -3.51999998E-02   1.46206725E-09
  -3.51499990E-02   1.78961423E-09
  -3.51000018E-02   2.19749552E-09
  -3.50500010E-02   2.64001043E-09
  -3.50000001E-02   3.05299430E-09
  -3.49499993E-02   3.38182815E-09
  -3.48999985E-02   3.60742436E-09
  -3.48500013E-02   3.75593734E-09
  -3.48000005E-02   3.88646493E-09
  -3.47499996E-02   4.06296863E-09
  -3.46999988E-02   4.32419434E-09
  -3.46500017E-02   4.66497196E-09
  -3.46000008E-02   5.03607733E-09
  -3.45500000E-02   5.36260902E-09
  -3.44999991E-02   5.57472690E-09
  -3.44499983E-02   5.63934055E-09
  -3.44000012E-02   5.57839730E-09
  -3.43500003E-02   5.46238432E-09
  -3.42999995E-02   5.37849099E-09
  -3.42499986E-02   5.38731326E-09
  -3.42000015E-02   5.49023182E-09
  -3.41500007E-02   5.62497382E-09
  -3.40999998E-02   5.69185321E-09
  -3.40499990E-02   5.59742119E-09
  -3.40000018E-02   5.29504396E-09
  -3.39500010E-02   4.80535878E-09
  -3.39000002E-02   4.20854063E-09
  -3.38499993E-02   3.61061891E-09
  -3.37999985E-02   3.09598813E-09
  -3.37500013E-02   2.68550826E-09
  -3.37000005E-02   2.32086483E-09
  -3.36499996E-02   1.88681537E-09
  -3.35999988E-02   1.26443156E-09
  -3.35500017E-02   3.90336624E-10
  -3.35000008E-02  -7.08285375E-10
  -3.34500000E-02  -1.92110883E-09
  -3.33999991E-02  -3.10068549E-09
  -3.33499983E-02  -4.12501766E-09
  -3.33000012E-02  -4.94930186E-09
  -3.32500003E-02  -5.62608804E-09
  -3.31999995E-02  -6.28552455E-09
  -3.31499986E-02  -7.08165215E-09
  -3.31000015E-02  -8.12441581E-09
  -3.30500007E-02  -9.42595246E-09
  -3.29999998E-02  -1.08880105E-08
  -3.29499990E-02  -1.23404922E-08
  -3.29000019E-02  -1.36151330E-08
  -3.28500010E-02  -1.46187578E-08
  -3.28000002E-02  -1.53704054E-08
  -3.27499993E-02  -1.59857940E-08
  -3.26999985E-02  -1.66190670E-08
  -3.26500013E-02  -1.73899366E-08
  -3.26000005E-02  -1.83267410E-08
  -3.25499997E-02  -1.93475671E-08
  -3.24999988E-02  -2.02877644E-08
  -3.24500017E-02  -2.09653237E-08
  -3.24000008E-02  -2.12588187E-08
  -3.23500000E-02  -2.11628191E-08
  -3.22999991E-02  -2.07917150E-08
  -3.22499983E-02  -2.03266453E-08
  -3.22000012E-02  -1.99299901E-08
  -3.21500003E-02  -1.96697645E-08
  -3.20999995E-02  -1.94896419E-08
  -3.20499986E-02  -1.92354506E-08
  -3.20000015E-02  -1.87228633E-08
  -3.19500007E-02  -1.78155783E-08
  -3.18999998E-02  -1.64833214E-08
  -3.18499990E-02  -1.48174450E-08
  -3.18000019E-02  -1.29957831E-08
  -3.17500010E-02  -1.12073248E-08
  -3.17000002E-02  -9.56648361E-09
  -3.16499993E-02  -8.05727929E-09
  -3.15999985E-02  -6.53701360E-09
  -3.15500014E-02  -4.80064033E-09
  -3.15000005E-02  -2.67491918E-09
  -3.14499997E-02  -9.70921121E-11
  -3.13999988E-02   2.85600232E-09
  -3.13500017E-02   5.99619066E-09
  -3.13000008E-02   9.09375419E-09
  -3.12500000E-02   1.19611938E-08
  -3.11999992E-02   1.45216061E-08
  -3.11500002E-02   1.68363492E-08
  -3.10999993E-02   1.90767704E-08
  -3.10500003E-02   2.14463327E-08
  -3.09999995E-02   2.40845868E-08
  -3.09500005E-02   2.69982454E-08
  -3.08999997E-02   3.00530267E-08
  -3.08500007E-02   3.30285737E-08
  -3.07999998E-02   3.57073304E-08
  -3.07500008E-02   3.79566423E-08
  -3.07000000E-02   3.97730560E-08
  -3.06499992E-02   4.12769090E-08
  -3.06000002E-02   4.26620232E-08
  -3.05499993E-02   4.41161596E-08
  -3.05000003E-02   4.57387550E-08
  -3.04499995E-02   4.74884629E-08
  -3.04000005E-02   4.91883370E-08
  -3.03499997E-02   5.05934104E-08
  -3.03000007E-02   5.14908756E-08
  -3.02499998E-02   5.17853529E-08
  -3.02000009E-02   5.15287724E-08
  -3.01500000E-02   5.08870421E-08
  -3.00999992E-02   5.00647879E-08
  -3.00500002E-02   4.92187624E-08
  -2.99999993E-02   4.83909233E-08
  -2.99500003E-02   4.74835815E-08
  -2.98999995E-02   4.62889957E-08
  -2.98500005E-02   4.45719799E-08
  -2.97999997E-02   4.21779163E-08
  -2.97500007E-02   3.91169195E-08
  -2.96999998E-02   3.55778944E-08
  -2.96500009E-02   3.18577875E-08
  -2.96000000E-02   2.82388282E-08
  -2.95499992E-02   2.48713103E-08
  -2.95000002E-02   2.17113989E-08
  -2.94499993E-02   1.85369142E-08
  -2.94000003E-02   1.50312047E-08
  -2.93499995E-02   1.09070415E-08
  -2.93000005E-02   6.03006711E-09
  -2.92499997E-02   4.93235730E-10
  -2.92000007E-02  -5.39835376E-09
  -2.91499998E-02  -1.12409966E-08
  -2.91000009E-02  -1.67017991E-08
  -2.90500000E-02  -2.16653433E-08
  -2.89999992E-02  -2.62835460E-08
  -2.89500002E-02  -3.09036139E-08
  -2.88999993E-02  -3.59103396E-08
  -2.88500004E-02  -4.15533137E-08
  -2.87999995E-02  -4.78288591E-08
  -2.87500005E-02  -5.44599814E-08
  -2.86999997E-02  -6.09855348E-08
  -2.86500007E-02  -6.69332394E-08
  -2.85999998E-02  -7.20136910E-08
  -2.85500009E-02  -7.62512471E-08
  -2.85000000E-02  -7.99808220E-08
  -2.84499992E-02  -8.36992342E-08
  -2.84000002E-02  -8.78355735E-08
  -2.83499993E-02  -9.25486958E-08
  -2.83000004E-02  -9.76483889E-08
  -2.82499995E-02  -1.02672217E-07
  -2.82000005E-02  -1.07077469E-07
  -2.81499997E-02  -1.10463063E-07
  -2.81000007E-02  -1.12734021E-07
  -2.80499998E-02  -1.14143099E-07
  -2.80000009E-02  -1.15181777E-07
  -2.79500000E-02  -1.16357029E-07
  -2.78999992E-02  -1.17942804E-07
  -2.78500002E-02  -1.19823540E-07
  -2.77999993E-02  -1.21518866E-07
  -2.77500004E-02  -1.22386069E-07
  -2.76999995E-02  -1.21906098E-07
  -2.76500005E-02  -1.19916805E-07
  -2.75999997E-02  -1.16686870E-07
  -2.75500007E-02  -1.12801601E-07
  -2.74999999E-02  -1.08913333E-07
  -2.74500009E-02  -1.05462007E-07
  -2.74000000E-02  -1.02478332E-07
  -2.73499992E-02  -9.95528779E-08
  -2.73000002E-02  -9.59948494E-08
  -2.72499993E-02  -9.11302749E-08
  -2.72000004E-02  -8.46159480E-08
  -2.71499995E-02  -7.66155992E-08
  -2.71000005E-02  -6.77438194E-08
  -2.70499997E-02  -5.88006586E-08
  -2.70000007E-02  -5.04233064E-08
  -2.69499999E-02  -4.28156639E-08
  -2.69000009E-02  -3.56697676E-08
  -2.68500000E-02  -2.83015638E-08
  -2.67999992E-02  -1.99405505E-08
  -2.67500002E-02  -1.00569943E-08
  -2.66999993E-02   1.40149936E-09
  -2.66500004E-02   1.39651988E-08
  -2.65999995E-02   2.68226508E-08
  -2.65500005E-02   3.91598647E-08
  -2.64999997E-02   5.05073814E-08
  -2.64500007E-02   6.09275190E-08
  -2.63999999E-02   7.09551244E-08
  -2.63500009E-02   8.13260144E-08
  -2.63000000E-02   9.26294774E-08
  -2.62499992E-02   1.05046375E-07
  -2.62000002E-02   1.18271245E-07
  -2.61499994E-02   1.31635645E-07
  -2.61000004E-02   1.44381517E-07
  -2.60499995E-02   1.55976821E-07
  -2.60000005E-02   1.66343597E-07
  -2.59499997E-02   1.75894272E-07
  -2.59000007E-02   1.85348227E-07
  -2.58499999E-02   1.95398329E-07
  -2.58000009E-02   2.06382595E-07
  -2.57500000E-02   2.18126317E-07
  -2.56999992E-02   2.30019253E-07
  -2.56500002E-02   2.41279253E-07
  -2.55999994E-02   2.51268517E-07
  -2.55500004E-02   2.59734435E-07
  -2.54999995E-02   2.66889714E-07
  -2.54500005E-02   2.73308444E-07
  -2.53999997E-02   2.79675788E-07
  -2.53500007E-02   2.86481338E-07
  -2.52999999E-02   2.93786115E-07
  -2.52500009E-02   3.01167404E-07
  -2.52000000E-02   3.07879418E-07
  -2.51499992E-02   3.13169494E-07
  -2.51000002E-02   3.16594594E-07
  -2.50499994E-02   3.18194367E-07
  -2.50000004E-02   3.18459371E-07
  -2.49499995E-02   3.18123313E-07
  -2.49000005E-02   3.17875504E-07
  -2.48499997E-02   3.18098870E-07
  -2.48000007E-02   3.18716531E-07
  -2.47499999E-02   3.19199074E-07
  -2.47000009E-02   3.18743190E-07
  -2.46500000E-02   3.16569611E-07
  -2.45999992E-02   3.12221346E-07
  -2.45500002E-02   3.05731845E-07
  -2.44999994E-02   2.97586524E-07
  -2.44500004E-02   2.88491492E-07
  -2.43999995E-02   2.79065119E-07
  -2.43500005E-02   2.69588128E-07
  -2.42999997E-02   2.59892289E-07
  -2.42500007E-02   2.49409823E-07
  -2.41999999E-02   2.37362329E-07
  -2.41500009E-02   2.23038413E-07
  -2.41000000E-02   2.06068705E-07
  -2.40499992E-02   1.86587499E-07
  -2.40000002E-02   1.65187700E-07
  -2.39499994E-02   1.42662756E-07
  -2.39000004E-02   1.19648362E-07
  -2.38499995E-02   9.63271845E-08
  -2.38000005E-02   7.23337976E-08
  -2.37499997E-02   4.68911665E-08
  -2.37000007E-02   1.91042613E-08
  -2.36499999E-02  -1.16957786E-08
  -2.36000009E-02  -4.56817446E-08
  -2.35500000E-02  -8.24403870E-08
  -2.34999992E-02  -1.21117552E-07
  -2.34500002E-02  -1.60779479E-07
  -2.33999994E-02  -2.00854089E-07
  -2.33500004E-02  -2.41450493E-07
  -2.32999995E-02  -2.83376778E-07
  -2.32500006E-02  -3.27828275E-07
  -2.31999997E-02  -3.75882621E-07
  -2.31500007E-02  -4.28023156E-07
  -2.30999999E-02  -4.83901545E-07
  -2.30500009E-02  -5.42439238E-07
  -2.30000000E-02  -6.02238686E-07
  -2.29499992E-02  -6.62147954E-07
  -2.29000002E-02  -7.21766298E-07
  -2.28499994E-02  -7.81674714E-07
  -2.28000004E-02  -8.43255464E-07
  -2.27499995E-02  -9.08117727E-07
  -2.27000006E-02  -9.77376203E-07
  -2.26499997E-02  -1.05111258E-06
  -2.26000007E-02  -1.12827718E-06
  -2.25499999E-02  -1.20711070E-06
  -2.25000009E-02  -1.28588954E-06
  -2.24500000E-02  -1.36365668E-06
  -2.23999992E-02  -1.44063836E-06
  -2.23500002E-02  -1.51818676E-06
  -2.22999994E-02  -1.59823276E-06
  -2.22500004E-02  -1.68245583E-06
  -2.21999995E-02  -1.77150935E-06
  -2.21500006E-02  -1.86463376E-06
  -2.20999997E-02  -1.95990174E-06
  -2.20500007E-02  -2.05502192E-06
  -2.19999999E-02  -2.14831971E-06
  -2.19500009E-02  -2.23945676E-06
  -2.19000001E-02  -2.32955222E-06
  -2.18499992E-02  -2.42065312E-06
  -2.18000002E-02  -2.51480537E-06
  -2.17499994E-02  -2.61311880E-06
  -2.17000004E-02  -2.71521731E-06
  -2.16499995E-02  -2.81934035E-06
  -2.16000006E-02  -2.92305936E-06
  -2.15499997E-02  -3.02432022E-06
  -2.15000007E-02  -3.12237967E-06
  -2.14499999E-02  -3.21818243E-06
  -2.14000009E-02  -3.31395995E-06
  -2.13500001E-02  -3.41218697E-06
  -2.12999992E-02  -3.51437916E-06
  -2.12500002E-02  -3.62033734E-06
  -2.11999994E-02  -3.72817112E-06
  -2.11500004E-02  -3.83506131E-06
  -2.10999995E-02  -3.93844039E-06
  -2.10500006E-02  -4.03710101E-06
  -2.09999997E-02  -4.13176804E-06
  -2.09500007E-02  -4.22483890E-06
  -2.08999999E-02  -4.31937360E-06
  -2.08500009E-02  -4.41773727E-06
  -2.08000001E-02  -4.52051290E-06
  -2.07499992E-02  -4.62618937E-06
  -2.07000002E-02  -4.73182627E-06
  -2.06499994E-02  -4.83435952E-06
  -2.06000004E-02  -4.93197422E-06
  -2.05499995E-02  -5.02497687E-06
  -2.05000006E-02  -5.11570488E-06
  -2.04499997E-02  -5.20752974E-06
  -2.04000007E-02  -5.30345278E-06
  -2.03499999E-02  -5.40487008E-06
  -2.03000009E-02  -5.51096673E-06
  -2.02500001E-02  -5.61910610E-06
  -2.01999992E-02  -5.72602039E-06
  -2.01500002E-02  -5.82934217E-06
  -2.00999994E-02  -5.92873675E-06
  -2.00500004E-02  -6.02615501E-06
  -1.99999996E-02  -6.12507210E-06
  -1.99500006E-02  -6.22900870E-06
  -1.98999997E-02  -6.34010621E-06
  -1.98500007E-02  -6.45834825E-06
  -1.97999999E-02  -6.58172621E-06
  -1.97500009E-02  -6.70724967E-06
  -1.97000001E-02  -6.83251938E-06
  -1.96499992E-02  -6.95699282E-06
  -1.96000002E-02  -7.08233893E-06
  -1.95499994E-02  -7.21190054E-06
  -1.95000004E-02  -7.34944751E-06
  -1.94499996E-02  -7.49768606E-06
  -1.94000006E-02  -7.65723780E-06
  -1.93499997E-02  -7.82648021E-06
  -1.93000007E-02  -8.00247835E-06
  -1.92499999E-02  -8.18259468E-06
  -1.92000009E-02  -8.36580602E-06
  -1.91500001E-02  -8.55339567E-06
  -1.90999992E-02  -8.74870329E-06
  -1.90500002E-02  -8.95576432E-06
  -1.89999994E-02  -9.17769557E-06
  -1.89500004E-02  -9.41563212E-06
  -1.88999996E-02  -9.66847620E-06
  -1.88500006E-02  -9.93362664E-06
  -1.87999997E-02  -1.02082022E-05
  -1.87500007E-02  -1.04905102E-05
  -1.86999999E-02  -1.07810993E-05
  -1.86500009E-02  -1.10828150E-05
  -1.86000001E-02  -1.13998613E-05
  -1.85499992E-02  -1.17361360E-05
  -1.85000002E-02  -1.20937093E-05
  -1.84499994E-02  -1.24722683E-05
  -1.84000004E-02  -1.28694674E-05
  -1.83499996E-02  -1.32822015E-05
  -1.83000006E-02  -1.37081533E-05
  -1.82499997E-02  -1.41467845E-05
  -1.82000007E-02  -1.45997437E-05
  -1.81499999E-02  -1.50701362E-05
  -1.81000009E-02  -1.55614271E-05
  -1.80500001E-02  -1.60762247E-05
  -1.79999992E-02  -1.66152058E-05
  -1.79500002E-02  -1.71768588E-05
  -1.78999994E-02  -1.77583788E-05
  -1.78500004E-02  -1.83573193E-05
  -1.77999996E-02  -1.89727853E-05
  -1.77500006E-02  -1.96057608E-05
  -1.76999997E-02  -2.02586834E-05
  -1.76500008E-02  -2.09346017E-05
  -1.75999999E-02  -2.16361059E-05
  -1.75500009E-02  -2.23643838E-05
  -1.75000001E-02  -2.31186150E-05
  -1.74499992E-02  -2.38962730E-05
  -1.74000002E-02  -2.46944801E-05
  -1.73499994E-02  -2.55113973E-05
  -1.73000004E-02  -2.63471684E-05
  -1.72499996E-02  -2.72036650E-05
  -1.72000006E-02  -2.80835684E-05
  -1.71499997E-02  -2.89893560E-05
  -1.71000008E-02  -2.99221829E-05
  -1.70499999E-02  -3.08815761E-05
  -1.70000009E-02  -3.18656021E-05
  -1.69500001E-02  -3.28716378E-05
  -1.68999992E-02  -3.38975260E-05
  -1.68500002E-02  -3.49423863E-05
  -1.67999994E-02  -3.60070007E-05
  -1.67500004E-02  -3.70938105E-05
  -1.66999996E-02  -3.82060643E-05
  -1.66500006E-02  -3.93460286E-05
  -1.65999997E-02  -4.05139363E-05
  -1.65500008E-02  -4.17085030E-05
  -1.64999999E-02  -4.29272004E-05
  -1.64500009E-02  -4.41672091E-05
  -1.64000001E-02  -4.54267174E-05
  -1.63499992E-02  -4.67055179E-05
  -1.63000003E-02  -4.80053350E-05
  -1.62499994E-02  -4.93288244E-05
  -1.62000004E-02  -5.06786819E-05
  -1.61499996E-02  -5.20569411E-05
  -1.61000006E-02  -5.34638857E-05
  -1.60499997E-02  -5.48977041E-05
  -1.60000008E-02  -5.63558024E-05
  -1.59499999E-02  -5.78365762E-05
  -1.59000009E-02  -5.93393488E-05
  -1.58500001E-02  -6.08644186E-05
  -1.57999992E-02  -6.24138556E-05
  -1.57500003E-02  -6.39908176E-05
  -1.56999994E-02  -6.55979820E-05
  -1.56500004E-02  -6.72366223E-05
  -1.55999996E-02  -6.89064400E-05
  -1.55499997E-02  -7.06061692E-05
  -1.54999997E-02  -7.23342382E-05
  -1.54499998E-02  -7.40897376E-05
  -1.53999999E-02  -7.58727911E-05
  -1.53500000E-02  -7.76848901E-05
  -1.53000001E-02  -7.95292362E-05
  -1.52500002E-02  -8.14098166E-05
  -1.52000003E-02  -8.33293743E-05
  -1.51500003E-02  -8.52877929E-05
  -1.51000004E-02  -8.72836172E-05
  -1.50499996E-02  -8.93160395E-05
  -1.49999997E-02  -9.13845870E-05
  -1.49499997E-02  -9.34899217E-05
  -1.48999998E-02  -9.56338990E-05
  -1.48499999E-02  -9.78196549E-05
  -1.48000000E-02  -1.00051082E-04
  -1.47500001E-02  -1.02332400E-04
  -1.47000002E-02  -1.04666789E-04
  -1.46500003E-02  -1.07054526E-04
  -1.46000003E-02  -1.09493827E-04
  -1.45500004E-02  -1.11982372E-04
  -1.44999996E-02  -1.14520190E-04
  -1.44499997E-02  -1.17109950E-04
  -1.43999998E-02  -1.19755372E-04
  -1.43499998E-02  -1.22460260E-04
  -1.42999999E-02  -1.25228544E-04
  -1.42500000E-02  -1.28064145E-04
  -1.42000001E-02  -1.30970657E-04
  -1.41500002E-02  -1.33948910E-04
  -1.41000003E-02  -1.36996547E-04
  -1.40500003E-02  -1.40111355E-04
  -1.40000004E-02  -1.43293568E-04
  -1.39499996E-02  -1.46547376E-04
  -1.38999997E-02  -1.49879488E-04
  -1.38499998E-02  -1.53295216E-04
  -1.37999998E-02  -1.56797076E-04
  -1.37499999E-02  -1.60387252E-04
  -1.37000000E-02  -1.64069366E-04
  -1.36500001E-02  -1.67845705E-04
  -1.36000002E-02  -1.71714535E-04
  -1.35500003E-02  -1.75672947E-04
  -1.35000004E-02  -1.79720606E-04
  -1.34500004E-02  -1.83863653E-04
  -1.33999996E-02  -1.88110484E-04
  -1.33499997E-02  -1.92465639E-04
  -1.32999998E-02  -1.96931374E-04
  -1.32499998E-02  -2.01509145E-04
  -1.31999999E-02  -2.06199868E-04
  -1.31500000E-02  -2.11005288E-04
  -1.31000001E-02  -2.15927139E-04
  -1.30500002E-02  -2.20965288E-04
  -1.30000003E-02  -2.26121585E-04
  -1.29500004E-02  -2.31402591E-04
  -1.29000004E-02  -2.36816923E-04
  -1.28499996E-02  -2.42369235E-04
  -1.27999997E-02  -2.48059136E-04
  -1.27499998E-02  -2.53885024E-04
  -1.26999998E-02  -2.59847293E-04
  -1.26499999E-02  -2.65948940E-04
  -1.26000000E-02  -2.72191508E-04
  -1.25500001E-02  -2.78574968E-04
  -1.25000002E-02  -2.85104528E-04
  -1.24500003E-02  -2.91790086E-04
  -1.24000004E-02  -2.98641942E-04
  -1.23500004E-02  -3.05665832E-04
  -1.22999996E-02  -3.12861608E-04
  -1.22499997E-02  -3.20223568E-04
  -1.21999998E-02  -3.27746733E-04
  -1.21499998E-02  -3.35431367E-04
  -1.20999999E-02  -3.43279971E-04
  -1.20500000E-02  -3.51295079E-04
  -1.20000001E-02  -3.59478028E-04
  -1.19500002E-02  -3.67835542E-04
  -1.19000003E-02  -3.76378099E-04
  -1.18500004E-02  -3.85118241E-04
  -1.18000004E-02  -3.94061906E-04
  -1.17499996E-02  -4.03206650E-04
  -1.16999997E-02  -4.12553054E-04
  -1.16499998E-02  -4.22107318E-04
  -1.15999999E-02  -4.31878492E-04
  -1.15499999E-02  -4.41870361E-04
  -1.15000000E-02  -4.52080072E-04
  -1.14500001E-02  -4.62501543E-04
  -1.14000002E-02  -4.73132328E-04
  -1.13500003E-02  -4.83973679E-04
  -1.13000004E-02  -4.95020184E-04
  -1.12500004E-02  -5.06262586E-04
  -1.11999996E-02  -5.17699344E-04
  -1.11499997E-02  -5.29338140E-04
  -1.10999998E-02  -5.41198300E-04
  -1.10499999E-02  -5.53301885E-04
  -1.09999999E-02  -5.65665658E-04
  -1.09500000E-02  -5.78304636E-04
  -1.09000001E-02  -5.91229124E-04
  -1.08500002E-02  -6.04445173E-04
  -1.08000003E-02  -6.17951737E-04
  -1.07500004E-02  -6.31738105E-04
  -1.07000005E-02  -6.45794789E-04
  -1.06499996E-02  -6.60115562E-04
  -1.05999997E-02  -6.74688723E-04
  -1.05499998E-02  -6.89509150E-04
  -1.04999999E-02  -7.04572652E-04
  -1.04499999E-02  -7.19876029E-04
  -1.04000000E-02  -7.35425972E-04
  -1.03500001E-02  -7.51228072E-04
  -1.03000002E-02  -7.67291640E-04
  -1.02500003E-02  -7.83628901E-04
  -1.02000004E-02  -8.00257490E-04
  -1.01500005E-02  -8.17199587E-04
  -1.00999996E-02  -8.34475795E-04
  -1.00499997E-02  -8.52101482E-04
  -9.99999978E-03  -8.70080083E-04
  -9.94999986E-03  -8.88408278E-04
  -9.89999995E-03  -9.07075009E-04
  -9.85000003E-03  -9.26073524E-04
  -9.80000012E-03  -9.45400854E-04
  -9.75000020E-03  -9.65044601E-04
  -9.70000029E-03  -9.84997721E-04
  -9.65000037E-03  -1.00526877E-03
  -9.60000046E-03  -1.02586555E-03
  -9.54999961E-03  -1.04679703E-03
  -9.49999969E-03  -1.06806215E-03
  -9.44999978E-03  -1.08965382E-03
  -9.39999986E-03  -1.11157668E-03
  -9.34999995E-03  -1.13383564E-03
  -9.30000003E-03  -1.15643605E-03
  -9.25000012E-03  -1.17937301E-03
  -9.20000020E-03  -1.20264560E-03
  -9.15000029E-03  -1.22627651E-03
  -9.10000037E-03  -1.25029171E-03
  -9.05000046E-03  -1.27470063E-03
  -8.99999961E-03  -1.29950175E-03
  -8.94999970E-03  -1.32468948E-03
  -8.89999978E-03  -1.35026069E-03
  -8.84999987E-03  -1.37623656E-03
  -8.79999995E-03  -1.40264060E-03
  -8.75000004E-03  -1.42946944E-03
  -8.70000012E-03  -1.45670923E-03
  -8.65000021E-03  -1.48435973E-03
  -8.60000029E-03  -1.51241582E-03
  -8.55000038E-03  -1.54088251E-03
  -8.50000046E-03  -1.56976283E-03
  -8.44999962E-03  -1.59903115E-03
  -8.39999970E-03  -1.62867096E-03
  -8.34999979E-03  -1.65869237E-03
  -8.29999987E-03  -1.68912229E-03
  -8.24999996E-03  -1.71997480E-03
  -8.20000004E-03  -1.75125664E-03
  -8.15000013E-03  -1.78297260E-03
  -8.10000021E-03  -1.81512837E-03
  -8.05000030E-03  -1.84771453E-03
  -8.00000038E-03  -1.88073388E-03
  -7.95000046E-03  -1.91419944E-03
  -7.89999962E-03  -1.94812217E-03
  -7.84999970E-03  -1.98250753E-03
  -7.79999979E-03  -2.01735692E-03
  -7.74999987E-03  -2.05269200E-03
  -7.69999996E-03  -2.08854489E-03
  -7.65000004E-03  -2.12491839E-03
  -7.60000013E-03  -2.16178899E-03
  -7.55000021E-03  -2.19915365E-03
  -7.49999983E-03  -2.23702495E-03
  -7.44999992E-03  -2.27541220E-03
  -7.40000000E-03  -2.31431215E-03
  -7.35000009E-03  -2.35372479E-03
  -7.30000017E-03  -2.39364151E-03
  -7.24999979E-03  -2.43404764E-03
  -7.19999988E-03  -2.47496134E-03
  -7.14999996E-03  -2.51641381E-03
  -7.10000005E-03  -2.55839899E-03
  -7.05000013E-03  -2.60088127E-03
  -7.00000022E-03  -2.64385855E-03
  -6.94999984E-03  -2.68735923E-03
  -6.89999992E-03  -2.73142615E-03
  -6.85000001E-03  -2.77610193E-03
  -6.80000009E-03  -2.82137166E-03
  -6.75000018E-03  -2.86719273E-03
  -6.69999979E-03  -2.91357096E-03
  -6.64999988E-03  -2.96055526E-03
  -6.59999996E-03  -3.00820917E-03
  -6.55000005E-03  -3.05651804E-03
  -6.50000013E-03  -3.10541852E-03
  -6.45000022E-03  -3.15491925E-03
  -6.39999984E-03  -3.20505770E-03
  -6.34999992E-03  -3.25586949E-03
  -6.30000001E-03  -3.30738071E-03
  -6.25000009E-03  -3.35959624E-03
  -6.20000018E-03  -3.41246696E-03
  -6.14999980E-03  -3.46594164E-03
  -6.09999988E-03  -3.52005917E-03
  -6.04999997E-03  -3.57487076E-03
  -6.00000005E-03  -3.63036501E-03
  -5.95000014E-03  -3.68652586E-03
  -5.90000022E-03  -3.74335423E-03
  -5.84999984E-03  -3.80087085E-03
  -5.79999993E-03  -3.85910762E-03
  -5.75000001E-03  -3.91809642E-03
  -5.70000010E-03  -3.97783006E-03
  -5.65000018E-03  -4.03827475E-03
  -5.59999980E-03  -4.09941841E-03
  -5.54999989E-03  -4.16133273E-03
  -5.49999997E-03  -4.22410155E-03
  -5.45000006E-03  -4.28768899E-03
  -5.40000014E-03  -4.35205223E-03
  -5.35000023E-03  -4.41720383E-03
  -5.29999984E-03  -4.48317314E-03
  -5.24999993E-03  -4.55000019E-03
  -5.20000001E-03  -4.61770641E-03
  -5.15000010E-03  -4.68626292E-03
  -5.10000018E-03  -4.75565763E-03
  -5.04999980E-03  -4.82589612E-03
  -4.99999989E-03  -4.89697792E-03
  -4.94999997E-03  -4.96893749E-03
  -4.90000006E-03  -5.04177436E-03
  -4.85000014E-03  -5.11545269E-03
  -4.80000023E-03  -5.18995756E-03
  -4.74999985E-03  -5.26527129E-03
  -4.69999993E-03  -5.34143066E-03
  -4.65000002E-03  -5.41849621E-03
  -4.60000010E-03  -5.49648888E-03
  -4.55000019E-03  -5.57539985E-03
  -4.49999981E-03  -5.65523608E-03
  -4.44999989E-03  -5.73603716E-03
  -4.39999998E-03  -5.81785152E-03
  -4.35000006E-03  -5.90067077E-03
  -4.30000015E-03  -5.98445255E-03
  -4.25000023E-03  -6.06916938E-03
  -4.19999985E-03  -6.15489902E-03
  -4.14999994E-03  -6.24175090E-03
  -4.10000002E-03  -6.32964494E-03
  -4.05000011E-03  -6.41849823E-03
  -4.00000019E-03  -6.50828844E-03
  -3.94999981E-03  -6.59906259E-03
  -3.89999989E-03  -6.69090264E-03
  -3.84999998E-03  -6.78379694E-03
  -3.80000006E-03  -6.87768683E-03
  -3.74999992E-03  -6.97246753E-03
  -3.70000000E-03  -7.06822658E-03
  -3.65000009E-03  -7.16515491E-03
  -3.59999994E-03  -7.26321572E-03
  -3.55000002E-03  -7.36226747E-03
  -3.50000011E-03  -7.46226218E-03
  -3.44999996E-03  -7.56334420E-03
  -3.40000005E-03  -7.66563648E-03
  -3.34999990E-03  -7.76905520E-03
  -3.29999998E-03  -7.87345972E-03
  -3.25000007E-03  -7.97885749E-03
  -3.19999992E-03  -8.08541384E-03
  -3.15000000E-03  -8.19326472E-03
  -3.10000009E-03  -8.30239616E-03
  -3.04999994E-03  -8.41264986E-03
  -3.00000003E-03  -8.52385256E-03
  -2.95000011E-03  -8.63611884E-03
  -2.89999996E-03  -8.74959957E-03
  -2.85000005E-03  -8.86429846E-03
  -2.79999990E-03  -8.98017362E-03
  -2.74999999E-03  -9.09711048E-03
  -2.70000007E-03  -9.21511184E-03
  -2.64999992E-03  -9.33436491E-03
  -2.60000001E-03  -9.45494883E-03
  -2.55000009E-03  -9.57672205E-03
  -2.49999994E-03  -9.69950482E-03
  -2.45000003E-03  -9.82329343E-03
  -2.40000011E-03  -9.94830951E-03
  -2.34999997E-03  -1.00747133E-02
  -2.30000005E-03  -1.02023212E-02
  -2.24999990E-03  -1.03309341E-02
  -2.19999999E-03  -1.04605760E-02
  -2.15000007E-03  -1.05914762E-02
  -2.09999993E-03  -1.07238442E-02
  -2.05000001E-03  -1.08575532E-02
  -2.00000009E-03  -1.09923873E-02
  -1.94999995E-03  -1.11282794E-02
  -1.90000003E-03  -1.12653887E-02
  -1.85000000E-03  -1.14038726E-02
  -1.79999997E-03  -1.15437591E-02
  -1.75000005E-03  -1.16849942E-02
  -1.70000002E-03  -1.18273618E-02
  -1.64999999E-03  -1.19708441E-02
  -1.59999996E-03  -1.21156583E-02
  -1.55000004E-03  -1.22618396E-02
  -1.50000001E-03  -1.24092167E-02
  -1.44999998E-03  -1.25577124E-02
  -1.39999995E-03  -1.27072828E-02
  -1.35000004E-03  -1.28580723E-02
  -1.30000000E-03  -1.30103612E-02
  -1.24999997E-03  -1.31640695E-02
  -1.20000006E-03  -1.33189727E-02
  -1.15000003E-03  -1.34749459E-02
  -1.09999999E-03  -1.36321029E-02
  -1.04999996E-03  -1.37906177E-02
  -1.00000005E-03  -1.39505081E-02
  -9.50000016E-04  -1.41116567E-02
  -8.99999985E-04  -1.42740812E-02
  -8.50000011E-04  -1.44379297E-02
  -7.99999980E-04  -1.46032339E-02
  -7.50000007E-04  -1.47698307E-02
  -6.99999975E-04  -1.49376867E-02
  -6.50000002E-04  -1.51067683E-02
  -6.00000028E-04  -1.52770644E-02
  -5.49999997E-04  -1.54487630E-02
  -5.00000024E-04  -1.56217515E-02
  -4.49999992E-04  -1.57958623E-02
  -3.99999990E-04  -1.59714203E-02
  -3.49999988E-04  -1.61485821E-02
  -3.00000014E-04  -1.63270459E-02
  -2.50000012E-04  -1.65066198E-02
  -1.99999995E-04  -1.66871790E-02
  -1.50000007E-04  -1.68690141E-02
  -9.99999975E-05  -1.70524064E-02
  -4.99999987E-05  -1.72371119E-02
   0.00000000      -1.74228624E-02
   4.99999987E-05  -1.76098719E-02
   9.99999975E-05  -1.77984424E-02
   1.50000007E-04  -1.79887172E-02
   1.99999995E-04  -1.81804411E-02
   2.50000012E-04  -1.83730572E-02
   3.00000014E-04  -1.85665358E-02
   3.49999988E-04  -1.87612772E-02
   3.99999990E-04  -1.89577807E-02
   4.49999992E-04  -1.91561319E-02
   5.00000024E-04  -1.93556156E-02
   5.49999997E-04  -1.95558704E-02
   6.00000028E-04  -1.97573453E-02
   6.50000002E-04  -1.99604575E-02
   6.99999975E-04  -2.01653317E-02
   7.50000007E-04  -2.03714725E-02
   7.99999980E-04  -2.05783807E-02
   8.50000011E-04  -2.07862370E-02
   8.99999985E-04  -2.09954754E-02
   9.50000016E-04  -2.12063584E-02
   1.00000005E-03  -2.14186832E-02
   1.04999996E-03  -2.16321461E-02
   1.09999999E-03  -2.18467191E-02
   1.15000003E-03  -2.20624711E-02
   1.20000006E-03  -2.22794339E-02
   1.24999997E-03  -2.24978644E-02
   1.30000000E-03  -2.27178205E-02
   1.35000004E-03  -2.29388122E-02
   1.39999995E-03  -2.31606197E-02
   1.44999998E-03  -2.33836025E-02
   1.50000001E-03  -2.36083120E-02
   1.55000004E-03  -2.38347724E-02
   1.59999996E-03  -2.40625124E-02
   1.64999999E-03  -2.42909025E-02
   1.70000002E-03  -2.45201513E-02
   1.75000005E-03  -2.47508623E-02
   1.79999997E-03  -2.49831099E-02
   1.85000000E-03  -2.52168532E-02
   1.90000003E-03  -2.54515503E-02
   1.94999995E-03  -2.56868172E-02
   2.00000009E-03  -2.59230845E-02
   2.05000001E-03  -2.61608623E-02
   2.09999993E-03  -2.64000427E-02
   2.15000007E-03  -2.66400184E-02
   2.19999999E-03  -2.68804133E-02
   2.24999990E-03  -2.71216426E-02
   2.30000005E-03  -2.73643546E-02
   2.34999997E-03  -2.76087392E-02
   2.40000011E-03  -2.78543141E-02
   2.45000003E-03  -2.81005651E-02
   2.49999994E-03  -2.83472743E-02
   2.55000009E-03  -2.85949055E-02
   2.60000001E-03  -2.88439449E-02
   2.64999992E-03  -2.90941224E-02
   2.70000007E-03  -2.93451194E-02
   2.74999999E-03  -2.95966640E-02
   2.79999990E-03  -2.98489276E-02