  -3.99999991E-02   0.00000000    
  -3.99499983E-02   0.00000000    
  -3.99000011E-02   0.00000000    
  -3.98500003E-02  -1.62625745E-18
  -3.97999994E-02  -1.50428221E-17
  -3.97499986E-02  -7.10048992E-17
  -3.97000015E-02  -2.23882958E-16
  -3.96500006E-02  -5.15226901E-16
  -3.95999998E-02  -8.70908900E-16
  -3.95499989E-02  -9.44965097E-16
  -3.95000018E-02   9.27967028E-18
  -3.94500010E-02   3.10539791E-15
  -3.94000001E-02   9.50519875E-15
  -3.93499993E-02   1.98141996E-14
  -3.92999984E-02   3.34035269E-14
  -3.92500013E-02   4.80743646E-14
  -3.92000005E-02   6.05064162E-14
  -3.91499996E-02   6.76428585E-14
  -3.90999988E-02   6.85999787E-14
  -3.90500017E-02   6.61357430E-14
  -3.90000008E-02   6.65813365E-14
  -3.89500000E-02   7.76944020E-14
  -3.88999991E-02   1.04991794E-13
  -3.88499983E-02   1.48202224E-13
  -3.88000011E-02   1.99864986E-13
  -3.87500003E-02   2.47398185E-13
  -3.86999995E-02   2.78348498E-13
  -3.86499986E-02   2.86724854E-13
  -3.86000015E-02   2.77252803E-13
  -3.85500006E-02   2.64795916E-13
  -3.84999998E-02   2.68188087E-13
  -3.84499989E-02   3.00584102E-13
  -3.84000018E-02   3.60768571E-13
  -3.83500010E-02   4.30231398E-13
  -3.83000001E-02   4.78584674E-13
  -3.82499993E-02   4.75848527E-13
  -3.81999984E-02   4.06271560E-13
  -3.81500013E-02   2.76868399E-13
  -3.81000005E-02   1.15825670E-13
  -3.80499996E-02  -3.94015570E-14
  -3.79999988E-02  -1.59327724E-13
  -3.79500017E-02  -2.37017410E-13
  -3.79000008E-02  -2.92765080E-13
  -3.78500000E-02  -3.65997624E-13
  -3.77999991E-02  -4.97634323E-13
  -3.77499983E-02  -7.11054913E-13
  -3.77000012E-02  -1.00088709E-12
  -3.76500003E-02  -1.33520267E-12
  -3.75999995E-02  -1.67001211E-12
  -3.75499986E-02  -1.96869712E-12
  -3.75000015E-02  -2.21678361E-12
  -3.74500006E-02  -2.42541100E-12
  -3.73999998E-02  -2.62318466E-12
  -3.73499990E-02  -2.84202089E-12
  -3.73000018E-02  -3.10463439E-12
  -3.72500010E-02  -3.41871713E-12
  -3.72000001E-02  -3.77768043E-12
  -3.71499993E-02  -4.16357096E-12
  -3.70999984E-02  -4.54736639E-12
  -3.70500013E-02  -4.88579142E-12
  -3.70000005E-02  -5.11955148E-12
  -3.69499996E-02  -5.18112983E-12
  -3.68999988E-02  -5.01725788E-12
  -3.68500017E-02  -4.62143691E-12
  -3.68000008E-02  -4.06028249E-12
  -3.67500000E-02  -3.47216917E-12
  -3.66999991E-02  -3.02428850E-12
  -3.66499983E-02  -2.83486949E-12
  -3.66000012E-02  -2.89180940E-12
  -3.65500003E-02  -3.01280138E-12
  -3.64999995E-02  -2.88345563E-12
  -3.64499986E-02  -2.17739065E-12
  -3.64000015E-02  -7.18204467E-13
  -3.63500006E-02   1.39076869E-12
  -3.62999998E-02   3.74574720E-12
  -3.62499990E-02   5.76951898E-12
  -3.62000018E-02   6.95638642E-12
  -3.61500010E-02   7.13578805E-12
  -3.61000001E-02   6.62244912E-12
  -3.60499993E-02   6.15078604E-12
  -3.59999985E-02   6.58217968E-12
  -3.59500013E-02   8.48987113E-12
  -3.59000005E-02   1.18106228E-11
  -3.58499996E-02   1.57541757E-11
  -3.57999988E-02   1.90644306E-11
  -3.57500017E-02   2.05631120E-11
  -3.57000008E-02   1.97501460E-11
  -3.56500000E-02   1.71661626E-11
  -3.55999991E-02   1.42919999E-11
  -3.55499983E-02   1.29559610E-11
  -3.55000012E-02   1.44642406E-11
  -3.54500003E-02   1.88467228E-11
  -3.53999995E-02   2.46176794E-11
  -3.53499986E-02   2.92564827E-11
  -3.53000015E-02   3.02840149E-11
  -3.52500007E-02   2.64917185E-11
  -3.51999998E-02   1.87357005E-11
  -3.51499990E-02   9.83670784E-12
  -3.51000018E-02   3.50275841E-12
  -3.50500010E-02   2.66250910E-12
  -3.50000001E-02   7.94324849E-12
  -3.49499993E-02   1.70592082E-11
  -3.48999985E-02   2.55347792E-11
  -3.48500013E-02   2.85904737E-11
  -3.48000005E-02   2.34260736E-11
  -3.47499996E-02   1.08394353E-11
  -3.46999988E-02  -4.69390542E-12
  -3.46500017E-02  -1.67147823E-11
  -3.46000008E-02  -1.96462430E-11
  -3.45500000E-02  -1.15844591E-11
  -3.44999991E-02   4.34631237E-12
  -3.44499983E-02   2.09008331E-11
  -3.44000012E-02   2.97093738E-11
  -3.43500003E-02   2.51600928E-11
  -3.42999995E-02   7.39865461E-12
  -3.42499986E-02  -1.70976757E-11
  -3.42000015E-02  -3.79175545E-11
  -3.41500007E-02  -4.52586371E-11
  -3.40999998E-02  -3.46661692E-11
  -3.40499990E-02  -9.71318859E-12
  -3.40000018E-02   1.88795785E-11
  -3.39500010E-02   3.76310892E-11
  -3.39000002E-02   3.64497633E-11
  -3.38499993E-02   1.37771522E-11
  -3.37999985E-02  -2.18376116E-11
  -3.37500013E-02  -5.48407153E-11
  -3.37000005E-02  -6.94324875E-11
  -3.36499996E-02  -5.71108612E-11
  -3.35999988E-02  -2.14730941E-11
  -3.35500017E-02   2.22816193E-11
  -3.35000008E-02   5.34224713E-11
  -3.34500000E-02   5.49701222E-11
  -3.33999991E-02   2.20780096E-11
  -3.33499983E-02  -3.45558165E-11
  -3.33000012E-02  -9.23238569E-11
  -3.32500003E-02  -1.26306673E-10
  -3.31999995E-02  -1.20818425E-10
  -3.31499986E-02  -7.76077189E-11
  -3.31000015E-02  -1.65426058E-11
  -3.30500007E-02   3.21958293E-11
  -3.29999998E-02   4.14546557E-11
  -3.29499990E-02   1.60084809E-13
  -3.29000019E-02  -8.00995381E-11
  -3.28500010E-02  -1.68600370E-10
  -3.28000002E-02  -2.28292274E-10
  -3.27499993E-02  -2.32617051E-10
  -3.26999985E-02  -1.78747045E-10
  -3.26500013E-02  -9.07347253E-11
  -3.26000005E-02  -1.02981495E-11
  -3.25499997E-02   2.13966293E-11
  -3.24999988E-02  -1.68968329E-11
  -3.24500017E-02  -1.14978513E-10
  -3.24000008E-02  -2.33508712E-10
  -3.23500000E-02  -3.20103138E-10
  -3.22999991E-02  -3.32706640E-10
  -3.22499983E-02  -2.59847671E-10
  -3.22000012E-02  -1.28075869E-10
  -3.21500003E-02   7.81390230E-12
  -3.20999995E-02   8.84272933E-11
  -3.20499986E-02   7.72156158E-11
  -3.20000015E-02  -2.08380726E-11
  -3.19500007E-02  -1.58629637E-10
  -3.18999998E-02  -2.65968164E-10
  -3.18499990E-02  -2.80701573E-10
  -3.18000019E-02  -1.78244780E-10
  -3.17500010E-02   1.43591103E-11
  -3.17000002E-02   2.27435112E-10
  -3.16499993E-02   3.78084009E-10
  -3.15999985E-02   4.07676226E-10
  -3.15500014E-02   3.10531267E-10
  -3.15000005E-02   1.39880885E-10
  -3.14499997E-02  -1.31235699E-11
  -3.13999988E-02  -5.93397484E-11
  -3.13500017E-02   4.68251445E-11
  -3.13000008E-02   2.83423285E-10
  -3.12500000E-02   5.66738267E-10
  -3.11999992E-02   7.85983112E-10
  -3.11500002E-02   8.52629689E-10
  -3.10999993E-02   7.42429840E-10
  -3.10500003E-02   5.10251785E-10
  -3.09999995E-02   2.69246597E-10
  -3.09500005E-02   1.41856846E-10
  -3.08999997E-02   2.03643186E-10
  -3.08500007E-02   4.45450177E-10
  -3.07999998E-02   7.72441944E-10
  -3.07500008E-02   1.04257636E-09
  -3.07000000E-02   1.12902998E-09
  -3.06499992E-02   9.79156201E-10
  -3.06000002E-02   6.42630504E-10
  -3.05499993E-02   2.54123944E-10
  -3.05000003E-02  -2.40105418E-11
  -3.04499995E-02  -7.48374626E-11
  -3.04000005E-02   1.17050786E-10
  -3.03499997E-02   4.53125010E-10
  -3.03000007E-02   7.60241869E-10
  -3.02499998E-02   8.66357985E-10
  -3.02000009E-02   6.79744594E-10
  -3.01500000E-02   2.35486075E-10
  -3.00999992E-02  -3.13790077E-10
  -3.00500002E-02  -7.61587071E-10
  -2.99999993E-02  -9.39176292E-10
  -2.99500003E-02  -7.94569410E-10
  -2.98999995E-02  -4.21963964E-10
  -2.98500005E-02  -2.56651957E-11
  -2.97999997E-02   1.68261002E-10
  -2.97500007E-02   1.47286974E-11
  -2.96999998E-02  -4.79573492E-10
  -2.96500009E-02  -1.15131615E-09
  -2.96000000E-02  -1.74703618E-09
  -2.95499992E-02  -2.03405204E-09
  -2.95000002E-02  -1.90720706E-09
  -2.94499993E-02  -1.44243884E-09
  -2.94000003E-02  -8.70176653E-10
  -2.93499995E-02  -4.76940820E-10
  -2.93000005E-02  -4.76734485E-10
  -2.92499997E-02  -9.09556486E-10
  -2.92000007E-02  -1.61462277E-09
  -2.91499998E-02  -2.29396369E-09
  -2.91000009E-02  -2.64153366E-09
  -2.90500000E-02  -2.48195087E-09
  -2.89999992E-02  -1.85606086E-09
  -2.89500002E-02  -1.01196096E-09
  -2.88999993E-02  -3.01351250E-10
  -2.88500004E-02  -2.42244055E-11
  -2.87999995E-02  -2.90323543E-10
  -2.87500005E-02  -9.61147384E-10
  -2.86999997E-02  -1.70238978E-09
  -2.86500007E-02  -2.12769602E-09
  -2.85999998E-02  -1.97225036E-09
  -2.85500009E-02  -1.21852606E-09
  -2.85000000E-02  -1.14996429E-10
  -2.84499992E-02   9.25188537E-10
  -2.84000002E-02   1.50452761E-09
  -2.83499993E-02   1.42183643E-09
  -2.83000004E-02   7.71175568E-10
  -2.82499995E-02  -8.92789384E-11
  -2.82000005E-02  -6.89638069E-10
  -2.81499997E-02  -6.57730426E-10
  -2.81000007E-02   1.07204981E-10
  -2.80499998E-02   1.37687006E-09
  -2.80000009E-02   2.68317790E-09
  -2.79500000E-02   3.51983220E-09
  -2.78999992E-02   3.56929797E-09
  -2.78500002E-02   2.85324475E-09
  -2.77999993E-02   1.73522696E-09
  -2.77500004E-02   7.68585029E-10
  -2.76999995E-02   4.52444332E-10
  -2.76500005E-02   1.00280229E-09
  -2.75999997E-02   2.24301622E-09
  -2.75500007E-02   3.66794461E-09
  -2.74999999E-02   4.65938532E-09
  -2.74500009E-02   4.76105466E-09
  -2.74000000E-02   3.89085386E-09
  -2.73499992E-02   2.39193310E-09
  -2.73000002E-02   8.93339236E-10
  -2.72499993E-02   3.61144240E-11
  -2.72000004E-02   1.83721802E-10
  -2.71499995E-02   1.24722010E-09
  -2.71000005E-02   2.70852007E-09
  -2.70499997E-02   3.83853482E-09
  -2.70000007E-02   4.01878397E-09
  -2.69499999E-02   3.02486858E-09
  -2.69000009E-02   1.14230958E-09
  -2.68500000E-02  -9.43649159E-10
  -2.67999992E-02  -2.44260590E-09
  -2.67500002E-02  -2.81143975E-09
  -2.66999993E-02  -2.00740158E-09
  -2.66500004E-02  -5.24007615E-10
  -2.65999995E-02   8.14130541E-10
  -2.65500005E-02   1.21334909E-09
  -2.64999997E-02   2.71776018E-10
  -2.64500007E-02  -1.82406590E-09
  -2.63999999E-02  -4.36143033E-09
  -2.63500009E-02  -6.40320508E-09
  -2.63000000E-02  -7.20139637E-09
  -2.62499992E-02  -6.53940457E-09
  -2.62000002E-02  -4.84610929E-09
  -2.61499994E-02  -3.02242742E-09
  -2.61000004E-02  -2.04888906E-09
  -2.60499995E-02  -2.54396948E-09
  -2.60000005E-02  -4.47090986E-09
  -2.59499997E-02  -7.13034698E-09
  -2.59000007E-02  -9.45163503E-09
  -2.58499999E-02  -1.04613544E-08
  -2.58000009E-02  -9.72346292E-09
  -2.57500000E-02  -7.55152918E-09
  -2.56999992E-02  -4.88978547E-09
  -2.56500002E-02  -2.90579516E-09
  -2.55999994E-02  -2.46911225E-09
  -2.55500004E-02  -3.74742060E-09
  -2.54999995E-02  -6.10621020E-09
  -2.54500005E-02  -8.36710079E-09
  -2.53999997E-02  -9.31987287E-09
  -2.53500007E-02  -8.26544699E-09
  -2.52999999E-02  -5.34595346E-09
  -2.52500009E-02  -1.50637980E-09
  -2.52000000E-02   1.90655580E-09
  -2.51499992E-02   3.73879327E-09
  -2.51000002E-02   3.55463836E-09
  -2.50499994E-02   1.85469695E-09
  -2.50000004E-02  -1.21725352E-10
  -2.49499995E-02  -9.33477295E-10
  -2.49000005E-02   4.17995499E-10
  -2.48499997E-02   4.02382838E-09
  -2.48000007E-02   8.99745700E-09
  -2.47499999E-02   1.38425333E-08
  -2.47000009E-02   1.71063075E-08
  -2.46500000E-02   1.80324520E-08
  -2.45999992E-02   1.69190812E-08
  -2.45500002E-02   1.50118300E-08
  -2.44999994E-02   1.39665230E-08
  -2.44500004E-02   1.51109045E-08
  -2.43999995E-02   1.88322904E-08
  -2.43500005E-02   2.43708360E-08
  -2.42999997E-02   3.01232248E-08
  -2.42500007E-02   3.43345370E-08
  -2.41999999E-02   3.58778109E-08
  -2.41500009E-02   3.47723628E-08
  -2.41000000E-02   3.21998925E-08
  -2.40499992E-02   2.99971141E-08
  -2.40000002E-02   2.98387626E-08
  -2.39499994E-02   3.24706342E-08
  -2.39000004E-02   3.73397775E-08
  -2.38499995E-02   4.27993889E-08
  -2.38000005E-02   4.68120795E-08
  -2.37499997E-02   4.78483706E-08
  -2.37000007E-02   4.55807623E-08
  -2.36499999E-02   4.10554151E-08
  -2.36000009E-02   3.62497588E-08
  -2.35500000E-02   3.31989192E-08
  -2.34999992E-02   3.30728689E-08
  -2.34500002E-02   3.56187364E-08
  -2.33999994E-02   3.92290893E-08
  -2.33500004E-02   4.16218917E-08
  -2.32999995E-02   4.08419893E-08
  -2.32500006E-02   3.61413761E-08
  -2.31999997E-02   2.83388655E-08
  -2.31500007E-02   1.94839522E-08
  -2.30999999E-02   1.19585479E-08
  -2.30500009E-02   7.40696970E-09
  -2.30000000E-02   5.97166760E-09
  -2.29499992E-02   6.18643847E-09
  -2.29000002E-02   5.59164981E-09
  -2.28499994E-02   1.81226822E-09
  -2.28000004E-02  -6.37520303E-09
  -2.27499995E-02  -1.84676576E-08
  -2.27000006E-02  -3.24228466E-08
  -2.26499997E-02  -4.55434304E-08
  -2.26000007E-02  -5.56762991E-08
  -2.25499999E-02  -6.21945304E-08
  -2.25000009E-02  -6.63155078E-08
  -2.24500000E-02  -7.05960090E-08
  -2.23999992E-02  -7.78118689E-08
  -2.23500002E-02  -8.97130548E-08
  -2.22999994E-02  -1.06211395E-07
  -2.22500004E-02  -1.25376147E-07
  -2.21999995E-02  -1.44258166E-07
  -2.21500006E-02  -1.60190268E-07
  -2.20999997E-02  -1.71989441E-07
  -2.20500007E-02  -1.80517745E-07
  -2.19999999E-02  -1.88334567E-07
  -2.19500009E-02  -1.98577268E-07
  -2.19000001E-02  -2.13556973E-07
  -2.18499992E-02  -2.33694706E-07
  -2.18000002E-02  -2.57284228E-07
  -2.17499994E-02  -2.81205843E-07
  -2.17000004E-02  -3.02291198E-07
  -2.16499995E-02  -3.18738444E-07
  -2.16000006E-02  -3.30942470E-07
  -2.15499997E-02  -3.41354905E-07
  -2.15000007E-02  -3.53416397E-07
  -2.14499999E-02  -3.70021326E-07
  -2.14000009E-02  -3.92198075E-07
  -2.13500001E-02  -4.18600337E-07
  -2.12999992E-02  -4.46055708E-07
  -2.12500002E-02  -4.70946389E-07
  -2.11999994E-02  -4.90817570E-07
  -2.11500004E-02  -5.05495279E-07
  -2.10999995E-02  -5.17200704E-07
  -2.10500006E-02  -5.29591830E-07
  -2.09999997E-02  -5.46140939E-07
  -2.09500007E-02  -5.68563053E-07
  -2.08999999E-02  -5.96005862E-07
  -2.08500009E-02  -6.25378732E-07
  -2.08000001E-02  -6.52692052E-07
  -2.07499992E-02  -6.74828755E-07
  -2.07000002E-02  -6.90954153E-07
  -2.06499994E-02  -7.02927252E-07
  -2.06000004E-02  -7.14511373E-07
  -2.05499995E-02  -7.29717840E-07
  -2.05000006E-02  -7.51007235E-07
  -2.04499997E-02  -7.78153037E-07
  -2.04000007E-02  -8.08298296E-07
  -2.03499999E-02  -8.37194591E-07
  -2.03000009E-02  -8.61088211E-07
  -2.02500001E-02  -8.78416529E-07
  -2.01999992E-02  -8.90553508E-07
  -2.01500002E-02  -9.01249223E-07
  -2.00999994E-02  -9.14990437E-07
  -2.00500004E-02  -9.35010689E-07
  -1.99999996E-02  -9.61825208E-07
  -1.99500006E-02  -9.92962100E-07
  -1.98999997E-02  -1.02403487E-06
  -1.98500007E-02  -1.05068682E-06
  -1.97999999E-02  -1.07056280E-06
  -1.97500009E-02  -1.08441088E-06
  -1.97000001E-02  -1.09580708E-06
  -1.96499992E-02  -1.10961275E-06
  -1.96000002E-02  -1.12983128E-06
  -1.95499994E-02  -1.15781779E-06
  -1.95000004E-02  -1.19164463E-06
  -1.94499996E-02  -1.22693734E-06
  -1.94000006E-02  -1.25882048E-06
  -1.93499997E-02  -1.28411318E-06
  -1.93000007E-02  -1.30280432E-06
  -1.92499999E-02  -1.31813192E-06
  -1.92000009E-02  -1.33519779E-06
  -1.91500001E-02  -1.35873199E-06
  -1.90999992E-02  -1.39099780E-06
  -1.90500002E-02  -1.43075749E-06
  -1.89999994E-02  -1.47380399E-06
  -1.89500004E-02  -1.51483164E-06
  -1.88999996E-02  -1.54982024E-06
  -1.88500006E-02  -1.57788452E-06
  -1.87999997E-02  -1.60173761E-06
  -1.87500007E-02  -1.62654828E-06
  -1.86999999E-02  -1.65768449E-06
  -1.86500009E-02  -1.69834118E-06
  -1.86000001E-02  -1.74809816E-06
  -1.85499992E-02  -1.80308939E-06
  -1.85000002E-02  -1.85772114E-06
  -1.84499994E-02  -1.90716412E-06
  -1.84000004E-02  -1.94956669E-06
  -1.83499996E-02  -1.98695716E-06
  -1.83000006E-02  -2.02439719E-06
  -1.82499997E-02  -2.06777918E-06
  -1.82000007E-02  -2.12122745E-06
  -1.81499999E-02  -2.18525247E-06
  -1.81000009E-02  -2.25649228E-06
  -1.80500001E-02  -2.32919774E-06
  -1.79999992E-02  -2.39780138E-06
  -1.79500002E-02  -2.45943670E-06
  -1.78999994E-02  -2.51527604E-06
  -1.78500004E-02  -2.57007036E-06
  -1.77999996E-02  -2.63008019E-06
  -1.77500006E-02  -2.70032001E-06
  -1.76999997E-02  -2.78232415E-06
  -1.76500008E-02  -2.87342368E-06
  -1.75999999E-02  -2.96791700E-06
  -1.75500009E-02  -3.05960089E-06
  -1.75000001E-02  -3.14456656E-06
  -1.74499992E-02  -3.22298138E-06
  -1.74000002E-02  -3.29908562E-06
  -1.73499994E-02  -3.37936399E-06
  -1.73000004E-02  -3.46967545E-06
  -1.72499996E-02  -3.57264503E-06
  -1.72000006E-02  -3.68647216E-06
  -1.71499997E-02  -3.80570441E-06
  -1.71000008E-02  -3.92364700E-06
  -1.70499999E-02  -4.03536660E-06
  -1.70000009E-02  -4.13993666E-06
  -1.69500001E-02  -4.24090149E-06
  -1.68999992E-02  -4.34475987E-06
  -1.68500002E-02  -4.45810747E-06
  -1.67999994E-02  -4.58468412E-06
  -1.67500004E-02  -4.72369902E-06
  -1.66999996E-02  -4.87016086E-06
  -1.66500006E-02  -5.01708428E-06
  -1.65999997E-02  -5.15861484E-06
  -1.65500008E-02  -5.29267345E-06
  -1.64999999E-02  -5.42194448E-06
  -1.64500009E-02  -5.55273255E-06
  -1.64000001E-02  -5.69221902E-06
  -1.63499992E-02  -5.84526470E-06
  -1.63000003E-02  -6.01222746E-06
  -1.62499994E-02  -6.18882086E-06
  -1.62000004E-02  -6.36797949E-06
  -1.61499996E-02  -6.54302858E-06
  -1.61000006E-02  -6.71070438E-06
  -1.60499997E-02  -6.87267357E-06
  -1.60000008E-02  -7.03485011E-06
  -1.59499999E-02  -7.20483195E-06
  -1.59000009E-02  -7.38855761E-06
  -1.58500001E-02  -7.58764600E-06
  -1.57999992E-02  -7.79868697E-06
  -1.57500003E-02  -8.01475653E-06
  -1.56999994E-02  -8.22853144E-06
  -1.56500004E-02  -8.43558792E-06
  -1.55999996E-02  -8.63644709E-06
  -1.55499997E-02  -8.83642133E-06
  -1.54999997E-02  -9.04332228E-06
  -1.54499998E-02  -9.26406301E-06
  -1.53999999E-02  -9.50160666E-06
  -1.53500000E-02  -9.75363946E-06
  -1.53000001E-02  -1.00136585E-05
  -1.52500002E-02  -1.02739014E-05
  -1.52000003E-02  -1.05288063E-05
  -1.51500003E-02  -1.07776295E-05
  -1.51000004E-02  -1.10248566E-05
  -1.50499996E-02  -1.12782536E-05
  -1.49999997E-02  -1.15455641E-05
  -1.49499997E-02  -1.18311082E-05
  -1.48999998E-02  -1.21338362E-05
  -1.48499999E-02  -1.24478802E-05
  -1.48000000E-02  -1.27652247E-05
  -1.47500001E-02  -1.30793005E-05
  -1.47000002E-02  -1.33880349E-05
  -1.46500003E-02  -1.36948684E-05
  -1.46000003E-02  -1.40073362E-05
  -1.45500004E-02  -1.43338448E-05
  -1.44999996E-02  -1.46799721E-05
  -1.44499997E-02  -1.50460346E-05
  -1.43999998E-02  -1.54270565E-05
  -1.43499998E-02  -1.58150124E-05
  -1.42999999E-02  -1.62024535E-05
  -1.42500000E-02  -1.65859547E-05
  -1.42000001E-02  -1.69677132E-05
  -1.41500002E-02  -1.73547069E-05
  -1.41000003E-02  -1.77557540E-05
  -1.40500003E-02  -1.81776286E-05
  -1.40000004E-02  -1.86221532E-05
  -1.39499996E-02  -1.90854280E-05
  -1.38999997E-02  -1.95596076E-05
  -1.38499998E-02  -2.00365375E-05
  -1.37999998E-02  -2.05114557E-05
  -1.37499999E-02  -2.09851441E-05
  -1.37000000E-02  -2.14638367E-05
  -1.36500001E-02  -2.19565518E-05
  -1.36000002E-02  -2.24710457E-05
  -1.35500003E-02  -2.30105688E-05
  -1.35000004E-02  -2.35724983E-05
  -1.34500004E-02  -2.41495709E-05
  -1.33999996E-02  -2.47331263E-05
  -1.33499997E-02  -2.53170547E-05
  -1.32999998E-02  -2.59007738E-05
  -1.32499998E-02  -2.64893843E-05
  -1.31999999E-02  -2.70916480E-05
  -1.31500000E-02  -2.77163035E-05
  -1.31000001E-02  -2.83680820E-05
  -1.30500002E-02  -2.90457683E-05
  -1.30000003E-02  -2.97428724E-05
  -1.29500004E-02  -3.04505284E-05
  -1.29000004E-02  -3.11615222E-05
  -1.28499996E-02  -3.18736675E-05
  -1.27999997E-02  -3.25908368E-05
  -1.27499998E-02  -3.33212811E-05
  -1.26999998E-02  -3.40742226E-05
  -1.26499999E-02  -3.48558679E-05
  -1.26000000E-02  -3.56666242E-05
  -1.25500001E-02  -3.65009691E-05
  -1.25000002E-02  -3.73500952E-05
  -1.24500003E-02  -3.82059225E-05
  -1.24000004E-02  -3.90647110E-05
  -1.23500004E-02  -3.99288219E-05
  -1.22999996E-02  -4.08057604E-05
  -1.22499997E-02  -4.17051378E-05
  -1.21999998E-02  -4.26343977E-05
  -1.21499998E-02  -4.35955844E-05
  -1.20999999E-02  -4.45846126E-05
  -1.20500000E-02  -4.55931149E-05
  -1.20000001E-02  -4.66121346E-05
  -1.19500002E-02  -4.76362802E-05
  -1.19000003E-02  -4.86661847E-05
  -1.18500004E-02  -4.97083347E-05
  -1.18000004E-02  -5.07724544E-05
  -1.17499996E-02  -5.18672387E-05
  -1.16999997E-02  -5.29965473E-05
  -1.16499998E-02  -5.41577865E-05
  -1.15999999E-02  -5.53430655E-05
  -1.15499999E-02  -5.65429364E-05
  -1.15000000E-02  -5.77508436E-05
  -1.14500001E-02  -5.89659103E-05
  -1.14000002E-02  -6.01934153E-05
  -1.13500003E-02  -6.14425371E-05
  -1.13000004E-02  -6.27226109E-05
  -1.12500004E-02  -6.40390936E-05
  -1.11999996E-02  -6.53910392E-05
  -1.11499997E-02  -6.67718414E-05
  -1.10999998E-02  -6.81722668E-05
  -1.10499999E-02  -6.95844428E-05
  -1.09999999E-02  -7.10052482E-05
  -1.09500000E-02  -7.24381025E-05
  -1.09000001E-02  -7.38916569E-05
  -1.08500002E-02  -7.53760178E-05
  -1.08000003E-02  -7.68984901E-05
  -1.07500004E-02  -7.84603981E-05
  -1.07000005E-02  -8.00565685E-05
  -1.06499996E-02  -8.16775719E-05
  -1.05999997E-02  -8.33141967E-05
  -1.05499998E-02  -8.49616190E-05
  -1.04999999E-02  -8.66218470E-05
  -1.04499999E-02  -8.83025423E-05
  -1.04000000E-02  -9.00138475E-05
  -1.03500001E-02  -9.17644356E-05
  -1.03000002E-02  -9.35574208E-05
  -1.02500003E-02  -9.53891431E-05
  -1.02000004E-02  -9.72507769E-05
  -1.01500005E-02  -9.91325869E-05
  -1.00999996E-02  -1.01028214E-04
  -1.00499997E-02  -1.02937694E-04
  -9.99999978E-03  -1.04867489E-04
  -9.94999986E-03  -1.06827312E-04
  -9.89999995E-03  -1.08826811E-04
  -9.85000003E-03  -1.10871151E-04
  -9.80000012E-03  -1.12958602E-04
  -9.75000020E-03  -1.15081464E-04
  -9.70000029E-03  -1.17229640E-04
  -9.65000037E-03  -1.19395401E-04
  -9.60000046E-03  -1.21576602E-04
  -9.54999961E-03  -1.23777951E-04
  -9.49999969E-03  -1.26008817E-04
  -9.44999978E-03  -1.28279295E-04
  -9.39999986E-03  -1.30596047E-04
  -9.34999995E-03  -1.32959438E-04
  -9.30000003E-03  -1.35363603E-04
  -9.25000012E-03  -1.37798634E-04
  -9.20000020E-03  -1.40255230E-04
  -9.15000029E-03  -1.42729317E-04
  -9.10000037E-03  -1.45223414E-04
  -9.05000046E-03  -1.47745479E-04
  -8.99999961E-03  -1.50305757E-04
  -8.94999970E-03  -1.52912558E-04
  -8.89999978E-03  -1.55568938E-04
  -8.84999987E-03  -1.58270544E-04
  -8.79999995E-03  -1.61007949E-04
  -8.75000004E-03  -1.63771809E-04
  -8.70000012E-03  -1.66556158E-04
  -8.65000021E-03  -1.69360806E-04
  -8.60000029E-03  -1.72192042E-04
  -8.55000038E-03  -1.75060253E-04
  -8.50000046E-03  -1.77974813E-04
  -8.44999962E-03  -1.80940304E-04
  -8.39999970E-03  -1.83954951E-04
  -8.34999979E-03  -1.87010897E-04
  -8.29999987E-03  -1.90098042E-04
  -8.24999996E-03  -1.93208078E-04
  -8.20000004E-03  -1.96337947E-04
  -8.15000013E-03  -1.99492133E-04
  -8.10000021E-03  -2.02680327E-04
  -8.05000030E-03  -2.05913224E-04
  -8.00000038E-03  -2.09197911E-04
  -7.95000046E-03  -2.12534796E-04
  -7.89999962E-03  -2.15917680E-04
  -7.84999970E-03  -2.19336638E-04
  -7.79999979E-03  -2.22781498E-04
  -7.74999987E-03  -2.26246484E-04
  -7.69999996E-03  -2.29733632E-04
  -7.65000004E-03  -2.33251136E-04
  -7.60000013E-03  -2.36809778E-04
  -7.55000021E-03  -2.40418187E-04
  -7.49999983E-03  -2.44080598E-04
  -7.44999992E-03  -2.47794407E-04
  -7.40000000E-03  -2.51548772E-04
  -7.35000009E-03  -2.55331892E-04
  -7.30000017E-03  -2.59136898E-04
  -7.24999979E-03  -2.62962305E-04
  -7.19999988E-03  -2.66813469E-04
  -7.14999996E-03  -2.70701072E-04
  -7.10000005E-03  -2.74636346E-04
  -7.05000013E-03  -2.78625463E-04
  -7.00000022E-03  -2.82667199E-04
  -6.94999984E-03  -2.86753027E-04
  -6.89999992E-03  -2.90870143E-04
  -6.85000001E-03  -2.95008067E-04
  -6.80000009E-03  -2.99162144E-04
  -6.75000018E-03  -3.03336274E-04
  -6.69999979E-03  -3.07541777E-04
  -6.64999988E-03  -3.11789801E-04
  -6.59999996E-03  -3.16089136E-04
  -6.55000005E-03  -3.20443272E-04
  -6.50000013E-03  -3.24843859E-04
  -6.45000022E-03  -3.29277216E-04
  -6.39999984E-03  -3.33732081E-04
  -6.34999992E-03  -3.38200683E-04
  -6.30000001E-03  -3.42682819E-04
  -6.25000009E-03  -3.47188383E-04
  -6.20000018E-03  -3.51731200E-04
  -6.14999980E-03  -3.56322125E-04
  -6.09999988E-03  -3.60963546E-04
  -6.04999997E-03  -3.65649525E-04
  -6.00000005E-03  -3.70367983E-04
  -5.95000014E-03  -3.75105534E-04
  -5.90000022E-03  -3.79853533E-04
  -5.84999984E-03  -3.84609826E-04
  -5.79999993E-03  -3.89379857E-04
  -5.75000001E-03  -3.94175557E-04
  -5.70000010E-03  -3.99010489E-04
  -5.65000018E-03  -4.03892132E-04
  -5.59999980E-03  -4.08818043E-04
  -5.54999989E-03  -4.13774716E-04
  -5.49999997E-03  -4.18745418E-04
  -5.45000006E-03  -4.23719175E-04
  -5.40000014E-03  -4.28692583E-04
  -5.35000023E-03  -4.33670997E-04
  -5.29999984E-03  -4.38664021E-04
  -5.24999993E-03  -4.43683530E-04
  -5.20000001E-03  -4.48739622E-04
  -5.15000010E-03  -4.53833374E-04
  -5.10000018E-03  -4.58955794E-04
  -5.04999980E-03  -4.64090466E-04
  -4.99999989E-03  -4.69222490E-04
  -4.94999997E-03  -4.74342465E-04
  -4.90000006E-03  -4.79450828E-04
  -4.85000014E-03  -4.84558608E-04
  -4.80000023E-03  -4.89678641E-04
  -4.74999985E-03  -4.94820066E-04
  -4.69999993E-03  -4.99986985E-04
  -4.65000002E-03  -5.05177013E-04
  -4.60000010E-03  -5.10374259E-04
  -4.55000019E-03  -5.15560969E-04
  -4.49999981E-03  -5.20724105E-04
  -4.44999989E-03  -5.25858079E-04
  -4.39999998E-03  -5.30970516E-04
  -4.35000006E-03  -5.36074862E-04
  -4.30000015E-03  -5.41184330E-04
  -4.25000023E-03  -5.46307652E-04
  -4.19999985E-03  -5.51443489E-04
  -4.14999994E-03  -5.56578743E-04
  -4.10000002E-03  -5.61694615E-04
  -4.05000011E-03  -5.66772826E-04
  -4.00000019E-03  -5.71800454E-04
  -3.94999981E-03  -5.76780876E-04
  -3.89999989E-03  -5.81728877E-04
  -3.84999998E-03  -5.86660870E-04
  -3.80000006E-03  -5.91590826E-04
  -3.74999992E-03  -5.96517464E-04
  -3.70000000E-03  -6.01429027E-04
  -3.65000009E-03  -6.06308924E-04
  -3.59999994E-03  -6.11135853E-04
  -3.55000002E-03  -6.15895726E-04
  -3.50000011E-03  -6.20585750E-04
  -3.44999996E-03  -6.25214365E-04
  -3.40000005E-03  -6.29797287E-04
  -3.34999990E-03  -6.34348835E-04
  -3.29999998E-03  -6.38874946E-04
  -3.25000007E-03  -6.43369800E-04
  -3.19999992E-03  -6.47817855E-04
  -3.15000000E-03  -6.52194081E-04
  -3.10000009E-03  -6.56482531E-04
  -3.04999994E-03  -6.60678430E-04
  -3.00000003E-03  -6.64786610E-04
  -2.95000011E-03  -6.68821740E-04
  -2.89999996E-03  -6.72794587E-04
  -2.85000005E-03  -6.76713069E-04
  -2.79999990E-03  -6.80575555E-04
  -2.74999999E-03  -6.84370170E-04
  -2.70000007E-03  -6.88077358E-04
  -2.64999992E-03  -6.91675174E-04
  -2.60000001E-03  -6.95149065E-04
  -2.55000009E-03  -6.98499498E-04
  -2.49999994E-03  -7.01739104E-04
  -2.45000003E-03  -7.04881502E-04
  -2.40000011E-03  -7.07939558E-04
  -2.34999997E-03  -7.10919325E-04
  -2.30000005E-03  -7.13809277E-04
  -2.24999990E-03  -7.16584618E-04
  -2.19999999E-03  -7.19219272E-04
  -2.15000007E-03  -7.21696299E-04
  -2.09999993E-03  -7.24015816E-04
  -2.05000001E-03  -7.26186787E-04
  -2.00000009E-03  -7.28223298E-04
  -1.94999995E-03  -7.30142230E-04
  -1.90000003E-03  -7.31950626E-04
  -1.85000000E-03  -7.33642722E-04
  -1.79999997E-03  -7.35196867E-04
  -1.75000005E-03  -7.36585527E-04
  -1.70000002E-03  -7.37784023E-04
  -1.64999999E-03  -7.38780014E-04
  -1.59999996E-03  -7.39579496E-04
  -1.55000004E-03  -7.40202959E-04
  -1.50000001E-03  -7.40675430E-04
  -1.44999998E-03  -7.41007447E-04
  -1.39999995E-03  -7.41192722E-04
  -1.35000004E-03  -7.41208147E-04
  -1.30000000E-03  -7.41018914E-04
  -1.24999997E-03  -7.40595278E-04
  -1.20000006E-03  -7.39926472E-04
  -1.15000003E-03  -7.39018957E-04
  -1.09999999E-03  -7.37893395E-04
  -1.04999996E-03  -7.36578426E-04
  -1.00000005E-03  -7.35088368E-04
  -9.50000016E-04  -7.33417866E-04
  -8.99999985E-04  -7.31542532E-04
  -8.50000011E-04  -7.29426218E-04
  -7.99999980E-04  -7.27038365E-04
  -7.50000007E-04  -7.24360172E-04
  -6.99999975E-04  -7.21393910E-04
  -6.50000002E-04  -7.18161871E-04
  -6.00000028E-04  -7.14694499E-04
  -5.49999997E-04  -7.11014087E-04
  -5.00000024E-04  -7.07117433E-04
  -4.49999992E-04  -7.02985562E-04
  -3.99999990E-04  -6.98576681E-04
  -3.49999988E-04  -6.93845795E-04
  -3.00000014E-04  -6.88777771E-04
  -2.50000012E-04  -6.83376507E-04
  -1.99999995E-04  -6.77660457E-04
  -1.50000007E-04  -6.71655929E-04
  -9.99999975E-05  -6.65386498E-04
  -4.99999987E-05  -6.58860372E-04
   0.00000000      -6.52064860E-04
   4.99999987E-05  -6.44963933E-04
   9.99999975E-05  -6.37512770E-04
   1.50000007E-04  -6.29678194E-04
   1.99999995E-04  -6.21451356E-04
   2.50000012E-04  -6.12847332E-04
   3.00000014E-04  -6.03898487E-04
   3.49999988E-04  -5.94639976E-04
   3.99999990E-04  -5.85090369E-04
   4.49999992E-04  -5.75237384E-04
   5.00000024E-04  -5.65040915E-04
   5.49999997E-04  -5.54456783E-04
   6.00000028E-04  -5.43444476E-04
   6.50000002E-04  -5.31982689E-04
   6.99999975E-04  -5.20088419E-04
   7.50000007E-04  -5.07795368E-04
   7.99999980E-04  -4.95146145E-04
   8.50000011E-04  -4.82165575E-04
   8.99999985E-04  -4.68842278E-04
   9.50000016E-04  -4.55143658E-04
   1.00000005E-03  -4.41018405E-04
   1.04999996E-03  -4.26423532E-04
   1.09999999E-03  -4.11339017E-04
   1.15000003E-03  -3.95771029E-04
   1.20000006E-03  -3.79751902E-04
   1.24999997E-03  -3.63313477E-04
   1.30000000E-03  -3.46478308E-04
   1.35000004E-03  -3.29253089E-04
   1.39999995E-03  -3.11618380E-04
   1.44999998E-03  -2.93538178E-04
   1.50000001E-03  -2.74971942E-04
   1.55000004E-03  -2.55882886E-04
   1.59999996E-03  -2.36261345E-04
   1.64999999E-03  -2.16130022E-04
   1.70000002E-03  -1.95515284E-04
   1.75000005E-03  -1.74456349E-04
   1.79999997E-03  -1.52972425E-04
   1.85000000E-03  -1.31042922E-04
   1.90000003E-03  -1.08635060E-04
   1.94999995E-03  -8.57019404E-05
   2.00000009E-03  -6.22089137E-05
   2.05000001E-03  -3.81480822E-05
   2.09999993E-03  -1.35293085E-05
   2.15000007E-03   1.16188894E-05
   2.19999999E-03   3.72628238E-05
   2.24999990E-03   6.33800664E-05
   2.30000005E-03   8.99791266E-05
   2.34999997E-03   1.17081538E-04
   2.40000011E-03   1.44724516E-04
   2.45000003E-03   1.72955668E-04
   2.49999994E-03   2.01800169E-04
   2.55000009E-03   2.31253405E-04
   2.60000001E-03   2.61282083E-04
   2.64999992E-03   2.91843142E-04
   2.70000007E-03   3.22909065E-04
   2.74999999E-03   3.54478514E-04
   2.79999990E-03   3.86581465E-04