  -3.99999991E-02   0.00000000    
  -3.99499983E-02   0.00000000    
  -3.99000011E-02   0.00000000    
  -3.98500003E-02   0.00000000    
  -3.97999994E-02   1.27776936E-18
  -3.97499986E-02   1.55845807E-17
  -3.97000015E-02   9.79856647E-17
  -3.96500006E-02   4.21626399E-16
  -3.95999998E-02   1.39103721E-15
  -3.95499989E-02   3.73781748E-15
  -3.95000018E-02   8.48432754E-15
  -3.94500010E-02   1.66569808E-14
  -3.94000001E-02   2.87391842E-14
  -3.93499993E-02   4.40711649E-14
  -3.92999984E-02   6.06200881E-14
  -3.92500013E-02   7.55697181E-14
  -3.92000005E-02   8.68617989E-14
  -3.91499996E-02   9.52004317E-14
  -3.90999988E-02   1.05415161E-13
  -3.90500017E-02   1.25934500E-13
  -3.90000008E-02   1.65782468E-13
  -3.89500000E-02   2.29862760E-13
  -3.88999991E-02   3.14695183E-13
  -3.88499983E-02   4.07313614E-13
  -3.88000011E-02   4.89090051E-13
  -3.87500003E-02   5.43930352E-13
  -3.86999995E-02   5.67554359E-13
  -3.86499986E-02   5.72903758E-13
  -3.86000015E-02   5.87374875E-13
  -3.85500006E-02   6.40875970E-13
  -3.84999998E-02   7.48572374E-13
  -3.84499989E-02   8.96308472E-13
  -3.84000018E-02   1.03748596E-12
  -3.83500010E-02   1.10623012E-12
  -3.83000001E-02   1.04398077E-12
  -3.82499993E-02   8.28695511E-13
  -3.81999984E-02   4.92082612E-13
  -3.81500013E-02   1.13626136E-13
  -3.81000005E-02  -2.09942984E-13
  -3.80499996E-02  -4.08879934E-13
  -3.79999988E-02  -4.78979812E-13
  -3.79500017E-02  -4.95029690E-13
  -3.79000008E-02  -5.89274885E-13
  -3.78500000E-02  -9.00675097E-13
  -3.77999991E-02  -1.51563224E-12
  -3.77499983E-02  -2.42746209E-12
  -3.77000012E-02  -3.53572813E-12
  -3.76500003E-02  -4.68911195E-12
  -3.75999995E-02  -5.75442385E-12
  -3.75499986E-02  -6.68025617E-12
  -3.75000015E-02  -7.52452180E-12
  -3.74500006E-02  -8.43107962E-12
  -3.73999998E-02  -9.56420967E-12
  -3.73499990E-02  -1.10292721E-11
  -3.73000018E-02  -1.28139947E-11
  -3.72500010E-02  -1.47752748E-11
  -3.72000001E-02  -1.66762749E-11
  -3.71499993E-02  -1.82577252E-11
  -3.70999984E-02  -1.93151970E-11
  -3.70500013E-02  -1.97553154E-11
  -3.70000005E-02  -1.96163884E-11
  -3.69499996E-02  -1.90545184E-11
  -3.68999988E-02  -1.83058655E-11
  -3.68500017E-02  -1.76349612E-11
  -3.68000008E-02  -1.72719981E-11
  -3.67500000E-02  -1.73393973E-11
  -3.66999991E-02  -1.77767748E-11
  -3.66499983E-02  -1.82913858E-11
  -3.66000012E-02  -1.83736741E-11
  -3.65500003E-02  -1.74080212E-11
  -3.64999995E-02  -1.48707002E-11
  -3.64499986E-02  -1.05529448E-11
  -3.64000015E-02  -4.70551289E-12
  -3.63500006E-02   1.99657998E-12
  -3.62999998E-02   8.70864925E-12
  -3.62499990E-02   1.48235434E-11
  -3.62000018E-02   2.03587407E-11
  -3.61500010E-02   2.61061311E-11
  -3.61000001E-02   3.33905056E-11
  -3.60499993E-02   4.34522730E-11
  -3.59999985E-02   5.66823810E-11
  -3.59500013E-02   7.20851781E-11
  -3.59000005E-02   8.73264794E-11
  -3.58499996E-02   9.95047100E-11
  -3.57999988E-02   1.06432800E-10
  -3.57500017E-02   1.07893756E-10
  -3.57000008E-02   1.06214204E-10
  -3.56500000E-02   1.05697472E-10
  -3.55999991E-02   1.10937710E-10
  -3.55499983E-02   1.24613889E-10
  -3.55000012E-02   1.45757906E-10
  -3.54500003E-02   1.69461806E-10
  -3.53999995E-02   1.88459914E-10
  -3.53499986E-02   1.96160199E-10
  -3.53000015E-02   1.89885177E-10
  -3.52500007E-02   1.72741113E-10
  -3.51999998E-02   1.52934623E-10
  -3.51499990E-02   1.40425796E-10
  -3.51000018E-02   1.42124451E-10
  -3.50500010E-02   1.57777263E-10
  -3.50000001E-02   1.78718179E-10
  -3.49499993E-02   1.90595470E-10
  -3.48999985E-02   1.79397330E-10
  -3.48500013E-02   1.38346126E-10
  -3.48000005E-02   7.24018692E-11
  -3.47499996E-02  -2.22803026E-12
  -3.46999988E-02  -6.41197720E-11
  -3.46500017E-02  -9.61036528E-11
  -3.46000008E-02  -9.40598641E-11
  -3.45500000E-02  -7.06430817E-11
  -3.44999991E-02  -5.13900207E-11
  -3.44499983E-02  -6.40345207E-11
  -3.44000012E-02  -1.25298688E-10
  -3.43500003E-02  -2.31256778E-10
  -3.42999995E-02  -3.56457253E-10
  -3.42499986E-02  -4.63409144E-10
  -3.42000015E-02  -5.19186860E-10
  -3.41500007E-02  -5.11990894E-10
  -3.40999998E-02  -4.59568161E-10
  -3.40499990E-02  -4.04305062E-10
  -3.40000018E-02  -3.95633776E-10
  -3.39500010E-02  -4.66666206E-10
  -3.39000002E-02  -6.15671791E-10
  -3.38499993E-02  -8.02007571E-10
  -3.37999985E-02  -9.60297397E-10
  -3.37500013E-02  -1.02827913E-09
  -3.37000005E-02  -9.76566938E-10
  -3.36499996E-02  -8.26232027E-10
  -3.35999988E-02  -6.44306108E-10
  -3.35500017E-02  -5.16792553E-10
  -3.35000008E-02  -5.09562614E-10
  -3.34500000E-02  -6.34539921E-10
  -3.33999991E-02  -8.38008440E-10
  -3.33499983E-02  -1.01912656E-09
  -3.33000012E-02  -1.07309595E-09
  -3.32500003E-02  -9.40967526E-10
  -3.31999995E-02  -6.42912668E-10
  -3.31499986E-02  -2.77216805E-10
  -3.31000015E-02   1.81993812E-11
  -3.30500007E-02   1.27313729E-10
  -3.29999998E-02   1.36166651E-11
  -3.29499990E-02  -2.54103100E-10
  -3.29000019E-02  -5.23381227E-10
  -3.28500010E-02  -6.21646512E-10
  -3.28000002E-02  -4.35715797E-10
  -3.27499993E-02   2.89912989E-11
  -3.26999985E-02   6.39625630E-10
  -3.26500013E-02   1.18651178E-09
  -3.26000005E-02   1.47480361E-09
  -3.25499997E-02   1.41752998E-09
  -3.24999988E-02   1.08597642E-09
  -3.24500017E-02   6.89523494E-10
  -3.24000008E-02   4.88027174E-10
  -3.23500000E-02   6.72171485E-10
  -3.22999991E-02   1.26568522E-09
  -3.22499983E-02   2.09783724E-09
  -3.22000012E-02   2.86564528E-09
  -3.21500003E-02   3.26440830E-09
  -3.20999995E-02   3.13087889E-09
  -3.20499986E-02   2.53245713E-09
  -3.20000015E-02   1.75549664E-09
  -3.19500007E-02   1.18946086E-09
  -3.18999998E-02   1.15261423E-09
  -3.18499990E-02   1.73644044E-09
  -3.18000019E-02   2.74364154E-09
  -3.17500010E-02   3.75666920E-09
  -3.17000002E-02   4.31525127E-09
  -3.16499993E-02   4.12826484E-09
  -3.15999985E-02   3.22307692E-09
  -3.15500014E-02   1.95715155E-09
  -3.15000005E-02   8.75558737E-10
  -3.14499997E-02   4.69239869E-10
  -3.13999988E-02   9.39880840E-10
  -3.13500017E-02   2.08238160E-09
  -3.13000008E-02   3.34921246E-09
  -3.12500000E-02   4.08042800E-09
  -3.11999992E-02   3.80408682E-09
  -3.11500002E-02   2.47158249E-09
  -3.10999993E-02   5.12770160E-10
  -3.10500003E-02  -1.32830269E-09
  -3.09999995E-02  -2.31637132E-09
  -3.09500005E-02  -2.06723705E-09
  -3.08999997E-02  -7.50864482E-10
  -3.08500007E-02   9.49441192E-10
  -3.07999998E-02   2.11988760E-09
  -3.07500008E-02   2.02594763E-09
  -3.07000000E-02   4.66591543E-10
  -3.06499992E-02  -2.09604978E-09
  -3.06000002E-02  -4.70733275E-09
  -3.05499993E-02  -6.33172004E-09
  -3.05000003E-02  -6.32956576E-09
  -3.04499995E-02  -4.78109019E-09
  -3.04000005E-02  -2.49633159E-09
  -3.03499997E-02  -6.85641932E-10
  -3.03000007E-02  -4.21821078E-10
  -3.02499998E-02  -2.13061191E-09
  -3.02000009E-02  -5.34841949E-09
  -3.01500000E-02  -8.87714791E-09
  -3.00999992E-02  -1.12896164E-08
  -3.00500002E-02  -1.15731202E-08
  -2.99999993E-02  -9.62119984E-09
  -2.99500003E-02  -6.33614006E-09
  -2.98999995E-02  -3.27086958E-09
  -2.98500005E-02  -1.94828487E-09
  -2.97999997E-02  -3.15400150E-09
  -2.97500007E-02  -6.52859899E-09
  -2.96999998E-02  -1.06659499E-08
  -2.96500009E-02  -1.37019098E-08
  -2.96000000E-02  -1.41495162E-08
  -2.95499992E-02  -1.16085088E-08
  -2.95000002E-02  -7.01363545E-09
  -2.94499993E-02  -2.28039387E-09
  -2.94000003E-02   5.22456578E-10
  -2.93499995E-02   1.18168586E-10
  -2.93000005E-02  -3.34480887E-09
  -2.92499997E-02  -8.28131430E-09
  -2.92000007E-02  -1.23192203E-08
  -2.91499998E-02  -1.33470186E-08
  -2.91000009E-02  -1.04979687E-08
  -2.90500000E-02  -4.61406824E-09
  -2.89999992E-02   2.05141948E-09
  -2.89500002E-02   6.79586654E-09
  -2.88999993E-02   7.68545494E-09
  -2.88500004E-02   4.48217019E-09
  -2.87999995E-02  -1.16192334E-09
  -2.87500005E-02  -6.36996589E-09
  -2.86999997E-02  -8.30274871E-09
  -2.86500007E-02  -5.46785994E-09
  -2.85999998E-02   1.52403734E-09
  -2.85500009E-02   1.01310738E-08
  -2.85000000E-02   1.69473697E-08
  -2.84499992E-02   1.92196854E-08
  -2.84000002E-02   1.61394631E-08
  -2.83499993E-02   9.30655553E-09
  -2.83000004E-02   2.11201501E-09
  -2.82499995E-02  -1.72884151E-09
  -2.82000005E-02   1.38659681E-10
  -2.81499997E-02   7.56706697E-09
  -2.81000007E-02   1.78565926E-08
  -2.80499998E-02   2.68694631E-08
  -2.80000009E-02   3.08521884E-08
  -2.79500000E-02   2.81642727E-08
  -2.78999992E-02   2.01184776E-08
  -2.78500002E-02   1.05087379E-08
  -2.77999993E-02   3.98316757E-09
  -2.77500004E-02   3.95471034E-09
  -2.76999995E-02   1.09837925E-08
  -2.76500005E-02   2.23924008E-08
  -2.75999997E-02   3.33394290E-08
  -2.75500007E-02   3.89297341E-08
  -2.74999999E-02   3.64392605E-08
  -2.74500009E-02   2.66465587E-08
  -2.74000000E-02   1.36261109E-08
  -2.73499992E-02   3.03329517E-09
  -2.73000002E-02  -4.00499467E-10
  -2.72499993E-02   4.94536412E-09
  -2.72000004E-02   1.67202341E-08
  -2.71499995E-02   2.95128615E-08
  -2.71000005E-02   3.71897428E-08
  -2.70499997E-02   3.56542138E-08
  -2.70000007E-02   2.47880632E-08
  -2.69499999E-02   8.66080985E-09
  -2.69000009E-02  -6.15612894E-09
  -2.68500000E-02  -1.34776617E-08
  -2.67999992E-02  -1.03296962E-08
  -2.67500002E-02   1.57544977E-09
  -2.66999993E-02   1.64346758E-08
  -2.66500004E-02   2.68291380E-08
  -2.65999995E-02   2.70266209E-08
  -2.65500005E-02   1.56442184E-08
  -2.64999997E-02  -3.56008401E-09
  -2.64500007E-02  -2.31949997E-08
  -2.63999999E-02  -3.54440211E-08
  -2.63500009E-02  -3.55825875E-08
  -2.63000000E-02  -2.42225955E-08
  -2.62499992E-02  -7.22233473E-09
  -2.62000002E-02   6.78078660E-09
  -2.61499994E-02   1.01821724E-08
  -2.61000004E-02  -1.10839331E-10
  -2.60499995E-02  -2.11182947E-08
  -2.60000005E-02  -4.49181030E-08
  -2.59499997E-02  -6.20497360E-08
  -2.59000007E-02  -6.57307453E-08
  -2.58499999E-02  -5.50080870E-08
  -2.58000009E-02  -3.53840370E-08
  -2.57500000E-02  -1.65480465E-08
  -2.56999992E-02  -8.14116330E-09
  -2.56500002E-02  -1.53989888E-08
  -2.55999994E-02  -3.66354378E-08
  -2.55500004E-02  -6.37633164E-08
  -2.54999995E-02  -8.57167137E-08
  -2.54500005E-02  -9.33266691E-08
  -2.53999997E-02  -8.34991383E-08
  -2.53500007E-02  -6.07900006E-08
  -2.52999999E-02  -3.55843923E-08
  -2.52500009E-02  -1.95934344E-08
  -2.52000000E-02  -2.06127186E-08
  -2.51499992E-02  -3.88807919E-08
  -2.51000002E-02  -6.67280062E-08
  -2.50499994E-02  -9.17762719E-08
  -2.50000004E-02  -1.02359408E-07
  -2.49499995E-02  -9.27924049E-08
  -2.49000005E-02  -6.61133939E-08
  -2.48499997E-02  -3.29869323E-08
  -2.48000007E-02  -7.14477189E-09
  -2.47499999E-02   6.90538571E-10
  -2.47000009E-02  -1.22872175E-08
  -2.46500000E-02  -3.94710149E-08
  -2.45999992E-02  -6.75282408E-08
  -2.45500002E-02  -8.21888193E-08
  -2.44999994E-02  -7.46244311E-08
  -2.44500004E-02  -4.55704239E-08
  -2.43999995E-02  -5.27328670E-09
  -2.43500005E-02   3.08335757E-08
  -2.42999997E-02   4.89066565E-08
  -2.42500007E-02   4.29489866E-08
  -2.41999999E-02   1.77222113E-08
  -2.41500009E-02  -1.30890143E-08
  -2.41000000E-02  -3.27716378E-08
  -2.40499992E-02  -2.90073725E-08
  -2.40000002E-02   4.63190042E-10
  -2.39499994E-02   4.65262069E-08
  -2.39000004E-02   9.24413825E-08
  -2.38499995E-02   1.21110716E-07
  -2.38000005E-02   1.22707760E-07
  -2.37499997E-02   9.92578251E-08
  -2.37000007E-02   6.40329674E-08
  -2.36499999E-02   3.58926293E-08
  -2.36000009E-02   3.09697050E-08
  -2.35500000E-02   5.53561392E-08
  -2.34999992E-02   1.02091818E-07
  -2.34500002E-02   1.53919771E-07
  -2.33999994E-02   1.90725402E-07
  -2.33500004E-02   1.98450238E-07
  -2.32999995E-02   1.75525358E-07
  -2.32500006E-02   1.33878174E-07
  -2.31999997E-02   9.39204909E-08
  -2.31500007E-02   7.56065575E-08
  -2.30999999E-02   8.94642511E-08
  -2.30500009E-02   1.31615124E-07
  -2.30000000E-02   1.85115525E-07
  -2.29499992E-02   2.27179555E-07
  -2.29000002E-02   2.39200375E-07
  -2.28499994E-02   2.15155211E-07
  -2.28000004E-02   1.64592862E-07
  -2.27499995E-02   1.08731896E-07
  -2.27000006E-02   7.12458501E-08
  -2.26499997E-02   6.77278322E-08
  -2.26000007E-02   9.85163098E-08
  -2.25499999E-02   1.48174095E-07
  -2.25000009E-02   1.92014880E-07
  -2.24500000E-02   2.06926970E-07
  -2.23999992E-02   1.81754302E-07
  -2.23500002E-02   1.22579777E-07
  -2.22999994E-02   5.04249904E-08
  -2.22500004E-02  -7.78547715E-09
  -2.21999995E-02  -3.11127479E-08
  -2.21500006E-02  -1.40952103E-08
  -2.20999997E-02   3.04574108E-08
  -2.20500007E-02   7.67730128E-08
  -2.19999999E-02   9.73428556E-08
  -2.19500009E-02   7.51811484E-08
  -2.19000001E-02   1.16621814E-08
  -2.18499992E-02  -7.36675148E-08
  -2.18000002E-02  -1.51397501E-07
  -2.17499994E-02  -1.95148530E-07
  -2.17000004E-02  -1.93391472E-07
  -2.16499995E-02  -1.54883139E-07
  -2.16000006E-02  -1.05150463E-07
  -2.15499997E-02  -7.54002798E-08
  -2.15000007E-02  -8.86489531E-08
  -2.14499999E-02  -1.49212610E-07
  -2.14000009E-02  -2.40327836E-07
  -2.13500001E-02  -3.31139233E-07
  -2.12999992E-02  -3.90128776E-07
  -2.12500002E-02  -3.99121291E-07
  -2.11999994E-02  -3.61619271E-07
  -2.11500004E-02  -3.01626443E-07
  -2.10999995E-02  -2.53291347E-07
  -2.10500006E-02  -2.45812117E-07
  -2.09999997E-02  -2.90250370E-07
  -2.09500007E-02  -3.74183259E-07
  -2.08999999E-02  -4.66736708E-07
  -2.08500009E-02  -5.31954868E-07
  -2.08000001E-02  -5.44694387E-07
  -2.07499992E-02  -5.01990655E-07
  -2.07000002E-02  -4.24733571E-07
  -2.06499994E-02  -3.48718970E-07
  -2.06000004E-02  -3.08874576E-07
  -2.05499995E-02  -3.23580764E-07
  -2.05000006E-02  -3.86093888E-07
  -2.04499997E-02  -4.67035534E-07
  -2.04000007E-02  -5.27041493E-07
  -2.03499999E-02  -5.34106391E-07
  -2.03000009E-02  -4.77964932E-07
  -2.02500001E-02  -3.75034915E-07
  -2.01999992E-02  -2.61548308E-07
  -2.01500002E-02  -1.77731366E-07
  -2.00999994E-02  -1.49939012E-07
  -2.00500004E-02  -1.78683678E-07
  -1.99999996E-02  -2.38000140E-07
  -1.99500006E-02  -2.86616768E-07
  -1.98999997E-02  -2.86140960E-07
  -1.98500007E-02  -2.18255181E-07
  -1.97999999E-02  -9.32320603E-08
  -1.97500009E-02   5.41685701E-08
  -1.97000001E-02   1.79789609E-07
  -1.96499992E-02   2.49588737E-07
  -1.96000002E-02   2.54931507E-07
  -1.95499994E-02   2.16775291E-07
  -1.95000004E-02   1.76707189E-07
  -1.94499996E-02   1.78636355E-07
  -1.94000006E-02   2.49169460E-07
  -1.93499997E-02   3.85402330E-07
  -1.93000007E-02   5.55680685E-07
  -1.92499999E-02   7.13175325E-07
  -1.92000009E-02   8.16397687E-07
  -1.91500001E-02   8.47601768E-07
  -1.90999992E-02   8.20841251E-07
  -1.90500002E-02   7.75953652E-07
  -1.89999994E-02   7.60968646E-07
  -1.89500004E-02   8.10637573E-07
  -1.88999996E-02   9.30609247E-07
  -1.88500006E-02   1.09437951E-06
  -1.87999997E-02   1.25453539E-06
  -1.87500007E-02   1.36345488E-06
  -1.86999999E-02   1.39434985E-06
  -1.86500009E-02   1.35327605E-06
  -1.86000001E-02   1.27664759E-06
  -1.85499992E-02   1.21519315E-06
  -1.85000002E-02   1.21134588E-06
  -1.84499994E-02   1.28006957E-06
  -1.84000004E-02   1.40169846E-06
  -1.83499996E-02   1.53011308E-06
  -1.83000006E-02   1.61277319E-06
  -1.82499997E-02   1.61381604E-06
  -1.82000007E-02   1.52996245E-06
  -1.81499999E-02   1.39208021E-06
  -1.81000009E-02   1.25157385E-06
  -1.80500001E-02   1.15751482E-06
  -1.79999992E-02   1.13460749E-06
  -1.79500002E-02   1.17181253E-06
  -1.78999994E-02   1.22678750E-06
  -1.78500004E-02   1.24430801E-06
  -1.77999996E-02   1.18059268E-06
  -1.77500006E-02   1.02275726E-06
  -1.76999997E-02   7.94693847E-07
  -1.76500008E-02   5.46653325E-07
  -1.75999999E-02   3.33033711E-07
  -1.75500009E-02   1.88152512E-07
  -1.75000001E-02   1.10776405E-07
  -1.74499992E-02   6.43386500E-08
  -1.74000002E-02  -7.13599224E-09
  -1.73499994E-02  -1.54375712E-07
  -1.73000004E-02  -4.00379122E-07
  -1.72499996E-02  -7.30102556E-07
  -1.72000006E-02  -1.09698613E-06
  -1.71499997E-02  -1.44350270E-06
  -1.71000008E-02  -1.72667740E-06
  -1.70499999E-02  -1.93726419E-06
  -1.70000009E-02  -2.10401504E-06
  -1.69500001E-02  -2.28107001E-06
  -1.68999992E-02  -2.52398149E-06
  -1.68500002E-02  -2.86497016E-06
  -1.67999994E-02  -3.29840668E-06
  -1.67500004E-02  -3.78301593E-06
  -1.66999996E-02  -4.25989720E-06
  -1.66500006E-02  -4.67843302E-06
  -1.65999997E-02  -5.01862587E-06
  -1.65500008E-02  -5.29992030E-06
  -1.64999999E-02  -5.57256908E-06
  -1.64500009E-02  -5.89529782E-06
  -1.64000001E-02  -6.30912882E-06
  -1.63499992E-02  -6.81902475E-06
  -1.63000003E-02  -7.39144889E-06
  -1.62499994E-02  -7.96896620E-06
  -1.62000004E-02  -8.49549815E-06
  -1.61499996E-02  -8.94101140E-06
  -1.61000006E-02  -9.31467002E-06
  -1.60499997E-02  -9.66062908E-06
  -1.60000008E-02  -1.00382895E-05
  -1.59499999E-02  -1.04957644E-05
  -1.59000009E-02  -1.10483361E-05
  -1.58500001E-02  -1.16713973E-05
  -1.57999992E-02  -1.23110722E-05
  -1.57500003E-02  -1.29078353E-05
  -1.56999994E-02  -1.34226202E-05
  -1.56500004E-02  -1.38539126E-05
  -1.55999996E-02  -1.42382087E-05
  -1.55499997E-02  -1.46336934E-05
  -1.54999997E-02  -1.50943679E-05
  -1.54499998E-02  -1.56460537E-05
  -1.53999999E-02  -1.62749129E-05
  -1.53500000E-02  -1.69335763E-05
  -1.53000001E-02  -1.75621135E-05
  -1.52500002E-02  -1.81145315E-05
  -1.52000003E-02  -1.85790286E-05
  -1.51500003E-02  -1.89830844E-05
  -1.51000004E-02  -1.93811975E-05
  -1.50499996E-02  -1.98306880E-05
  -1.49999997E-02  -2.03662785E-05
  -1.49499997E-02  -2.09847822E-05
  -1.48999998E-02  -2.16466124E-05
  -1.48499999E-02  -2.22934777E-05
  -1.48000000E-02  -2.28741810E-05
  -1.47500001E-02  -2.33672581E-05
  -1.47000002E-02  -2.37905024E-05
  -1.46500003E-02  -2.41930666E-05
  -1.46000003E-02  -2.46337713E-05
  -1.45500004E-02  -2.51553192E-05
  -1.44999996E-02  -2.57657721E-05
  -1.44499997E-02  -2.64354821E-05
  -1.43999998E-02  -2.71106765E-05
  -1.43499998E-02  -2.77376785E-05
  -1.42999999E-02  -2.82870114E-05
  -1.42500000E-02  -2.87665953E-05
  -1.42000001E-02  -2.92183759E-05
  -1.41500002E-02  -2.97000206E-05
  -1.41000003E-02  -3.02597091E-05
  -1.40500003E-02  -3.09153656E-05
  -1.40000004E-02  -3.16474325E-05
  -1.39499996E-02  -3.24081157E-05
  -1.38999997E-02  -3.31430820E-05
  -1.38499998E-02  -3.38159771E-05
  -1.37999998E-02  -3.44248037E-05
  -1.37499999E-02  -3.50030095E-05
  -1.37000000E-02  -3.56049459E-05
  -1.36500001E-02  -3.62823193E-05
  -1.36000002E-02  -3.70620583E-05
  -1.35500003E-02  -3.79352896E-05
  -1.35000004E-02  -3.88622684E-05
  -1.34500004E-02  -3.97909462E-05
  -1.33999996E-02  -4.06807012E-05
  -1.33499997E-02  -4.15207578E-05
  -1.32999998E-02  -4.23352649E-05
  -1.32499998E-02  -4.31730441E-05
  -1.31999999E-02  -4.40863623E-05
  -1.31500000E-02  -4.51085216E-05
  -1.31000001E-02  -4.62400349E-05
  -1.30500002E-02  -4.74493791E-05
  -1.30000003E-02  -4.86879107E-05
  -1.29500004E-02  -4.99121743E-05
  -1.29000004E-02  -5.11036014E-05
  -1.28499996E-02  -5.22768969E-05
  -1.27999997E-02  -5.34738465E-05
  -1.27499998E-02  -5.47452983E-05
  -1.26999998E-02  -5.61292909E-05
  -1.26499999E-02  -5.76351376E-05
  -1.26000000E-02  -5.92404867E-05
  -1.25500001E-02  -6.09026210E-05
  -1.25000002E-02  -6.25780522E-05
  -1.24500003E-02  -6.42423256E-05
  -1.24000004E-02  -6.59015714E-05
  -1.23500004E-02  -6.75897754E-05
  -1.22999996E-02  -6.93541151E-05
  -1.22499997E-02  -7.12347464E-05
  -1.21999998E-02  -7.32479966E-05
  -1.21499998E-02  -7.53802597E-05
  -1.20999999E-02  -7.75949229E-05
  -1.20500000E-02  -7.98495676E-05
  -1.20000001E-02  -8.21153080E-05
  -1.19500002E-02  -8.43896196E-05
  -1.19000003E-02  -8.66972769E-05
  -1.18500004E-02  -8.90796437E-05
  -1.18000004E-02  -9.15767232E-05
  -1.17499996E-02  -9.42100014E-05
  -1.16999997E-02  -9.69739704E-05
  -1.16499998E-02  -9.98397300E-05
  -1.15999999E-02  -1.02769001E-04
  -1.15499999E-02  -1.05731859E-04
  -1.15000000E-02  -1.08720349E-04
  -1.14500001E-02  -1.11752321E-04
  -1.14000002E-02  -1.14863622E-04
  -1.13500003E-02  -1.18092823E-04
  -1.13000004E-02  -1.21464815E-04
  -1.12500004E-02  -1.24980608E-04
  -1.11999996E-02  -1.28618209E-04
  -1.11499997E-02  -1.32343179E-04
  -1.10999998E-02  -1.36124421E-04
  -1.10499999E-02  -1.39947995E-04
  -1.09999999E-02  -1.43823549E-04
  -1.09500000E-02  -1.47779399E-04
  -1.09000001E-02  -1.51850385E-04
  -1.08500002E-02  -1.56063281E-04
  -1.08000003E-02  -1.60425843E-04
  -1.07500004E-02  -1.64924946E-04
  -1.07000005E-02  -1.69533887E-04
  -1.06499996E-02  -1.74225439E-04
  -1.05999997E-02  -1.78985283E-04
  -1.05499998E-02  -1.83818469E-04
  -1.04999999E-02  -1.88747610E-04
  -1.04499999E-02  -1.93803891E-04
  -1.04000000E-02  -1.99014059E-04
  -1.03500001E-02  -2.04389537E-04
  -1.03000002E-02  -2.09922669E-04
  -1.02500003E-02  -2.15592096E-04
  -1.02000004E-02  -2.21372917E-04
  -1.01500005E-02  -2.27248762E-04
  -1.00999996E-02  -2.33219078E-04
  -1.00499997E-02  -2.39299785E-04
  -9.99999978E-03  -2.45517236E-04
  -9.94999986E-03  -2.51896505E-04
  -9.89999995E-03  -2.58451968E-04
  -9.85000003E-03  -2.65182724E-04
  -9.80000012E-03  -2.72074743E-04
  -9.75000020E-03  -2.79108703E-04
  -9.70000029E-03  -2.86270573E-04
  -9.65000037E-03  -2.93558754E-04
  -9.60000046E-03  -3.00985994E-04
  -9.54999961E-03  -3.08574789E-04
  -9.49999969E-03  -3.16348742E-04
  -9.44999978E-03  -3.24324938E-04
  -9.39999986E-03  -3.32508236E-04
  -9.34999995E-03  -3.40891303E-04
  -9.30000003E-03  -3.49460373E-04
  -9.25000012E-03  -3.58202640E-04
  -9.20000020E-03  -3.67113826E-04
  -9.15000029E-03  -3.76200740E-04
  -9.10000037E-03  -3.85479099E-04
  -9.05000046E-03  -3.94968083E-04
  -8.99999961E-03  -4.04683553E-04
  -8.94999970E-03  -4.14632144E-04
  -8.89999978E-03  -4.24810220E-04
  -8.84999987E-03  -4.35208844E-04
  -8.79999995E-03  -4.45819140E-04
  -8.75000004E-03  -4.56637528E-04
  -8.70000012E-03  -4.67669946E-04
  -8.65000021E-03  -4.78931033E-04
  -8.60000029E-03  -4.90439590E-04
  -8.55000038E-03  -5.02211798E-04
  -8.50000046E-03  -5.14257350E-04
  -8.44999962E-03  -5.26578340E-04
  -8.39999970E-03  -5.39171509E-04
  -8.34999979E-03  -5.52032550E-04
  -8.29999987E-03  -5.65158320E-04
  -8.24999996E-03  -5.78552485E-04
  -8.20000004E-03  -5.92225755E-04
  -8.15000013E-03  -6.06193033E-04
  -8.10000021E-03  -6.20468287E-04
  -8.05000030E-03  -6.35060249E-04
  -8.00000038E-03  -6.49973110E-04
  -7.95000046E-03  -6.65205705E-04
  -7.89999962E-03  -6.80754078E-04
  -7.84999970E-03  -6.96617470E-04
  -7.79999979E-03  -7.12797802E-04
  -7.74999987E-03  -7.29301712E-04
  -7.69999996E-03  -7.46140548E-04
  -7.65000004E-03  -7.63327756E-04
  -7.60000013E-03  -7.80875504E-04
  -7.55000021E-03  -7.98791298E-04
  -7.49999983E-03  -8.17079679E-04
  -7.44999992E-03  -8.35742219E-04
  -7.40000000E-03  -8.54781596E-04
  -7.35000009E-03  -8.74201418E-04
  -7.30000017E-03  -8.94004945E-04
  -7.24999979E-03  -9.14200151E-04
  -7.19999988E-03  -9.34798096E-04
  -7.14999996E-03  -9.55811236E-04
  -7.10000005E-03  -9.77250049E-04
  -7.05000013E-03  -9.99121810E-04
  -7.00000022E-03  -1.02143257E-03
  -6.94999984E-03  -1.04418548E-03
  -6.89999992E-03  -1.06738007E-03
  -6.85000001E-03  -1.09101739E-03
  -6.80000009E-03  -1.11510092E-03
  -6.75000018E-03  -1.13963976E-03
  -6.69999979E-03  -1.16464810E-03
  -6.64999988E-03  -1.19014084E-03
  -6.59999996E-03  -1.21612893E-03
  -6.55000005E-03  -1.24261761E-03
  -6.50000013E-03  -1.26960792E-03
  -6.45000022E-03  -1.29709882E-03
  -6.39999984E-03  -1.32509216E-03
  -6.34999992E-03  -1.35358993E-03
  -6.30000001E-03  -1.38260261E-03
  -6.25000009E-03  -1.41214672E-03
  -6.20000018E-03  -1.44223904E-03
  -6.14999980E-03  -1.47290062E-03
  -6.09999988E-03  -1.50414486E-03
  -6.04999997E-03  -1.53597002E-03
  -6.00000005E-03  -1.56836736E-03
  -5.95000014E-03  -1.60133536E-03
  -5.90000022E-03  -1.63488055E-03
  -5.84999984E-03  -1.66901702E-03
  -5.79999993E-03  -1.70376257E-03
  -5.75000001E-03  -1.73913571E-03
  -5.70000010E-03  -1.77515403E-03
  -5.65000018E-03  -1.81182998E-03
  -5.59999980E-03  -1.84916740E-03
  -5.54999989E-03  -1.88716035E-03
  -5.49999997E-03  -1.92580267E-03
  -5.45000006E-03  -1.96508900E-03
  -5.40000014E-03  -2.00502644E-03
  -5.35000023E-03  -2.04563932E-03
  -5.29999984E-03  -2.08695442E-03
  -5.24999993E-03  -2.12900038E-03
  -5.20000001E-03  -2.17179698E-03
  -5.15000010E-03  -2.21534655E-03
  -5.10000018E-03  -2.25963793E-03
  -5.04999980E-03  -2.30465783E-03
  -4.99999989E-03  -2.35039950E-03
  -4.94999997E-03  -2.39687040E-03
  -4.90000006E-03  -2.44409684E-03
  -4.85000014E-03  -2.49211467E-03
  -4.80000023E-03  -2.54096091E-03
  -4.74999985E-03  -2.59066187E-03
  -4.69999993E-03  -2.64122081E-03
  -4.65000002E-03  -2.69262097E-03
  -4.60000010E-03  -2.74483790E-03
  -4.55000019E-03  -2.79785949E-03
  -4.49999981E-03  -2.85168807E-03
  -4.44999989E-03  -2.90634297E-03
  -4.39999998E-03  -2.96186027E-03
  -4.35000006E-03  -3.01828189E-03
  -4.30000015E-03  -3.07564298E-03
  -4.25000023E-03  -3.13396170E-03
  -4.19999985E-03  -3.19322757E-03
  -4.14999994E-03  -3.25340871E-03
  -4.10000002E-03  -3.31447320E-03
  -4.05000011E-03  -3.37640266E-03
  -4.00000019E-03  -3.43921199E-03
  -3.94999981E-03  -3.50294914E-03
  -3.89999989E-03  -3.56767909E-03
  -3.84999998E-03  -3.63345491E-03
  -3.80000006E-03  -3.70030035E-03
  -3.74999992E-03  -3.76820657E-03
  -3.70000000E-03  -3.83712887E-03
  -3.65000009E-03  -3.90701275E-03
  -3.59999994E-03  -3.97782773E-03
  -3.55000002E-03  -4.04958567E-03
  -3.50000011E-03  -4.12234059E-03
  -3.44999996E-03  -4.19616140E-03
  -3.40000005E-03  -4.27111005E-03
  -3.34999990E-03  -4.34720702E-03
  -3.29999998E-03  -4.42443788E-03
  -3.25000007E-03  -4.50277049E-03
  -3.19999992E-03  -4.58213454E-03
  -3.15000000E-03  -4.66248952E-03
  -3.10000009E-03  -4.74384334E-03
  -3.04999994E-03  -4.82622487E-03
  -3.00000003E-03  -4.90970444E-03
  -2.95000011E-03  -4.99436120E-03
  -2.89999996E-03  -5.08023798E-03
  -2.85000005E-03  -5.16734831E-03
  -2.79999990E-03  -5.25565352E-03
  -2.74999999E-03  -5.34506794E-03
  -2.70000007E-03  -5.43553010E-03
  -2.64999992E-03  -5.52701391E-03
  -2.60000001E-03  -5.61954034E-03
  -2.55000009E-03  -5.71318064E-03
  -2.49999994E-03  -5.80802746E-03
  -2.45000003E-03  -5.90416463E-03
  -2.40000011E-03  -6.00161776E-03
  -2.34999997E-03  -6.10034214E-03
  -2.30000005E-03  -6.20023813E-03
  -2.24999990E-03  -6.30118465E-03
  -2.19999999E-03  -6.40312815E-03
  -2.15000007E-03  -6.50609843E-03
  -2.09999993E-03  -6.61016395E-03
  -2.05000001E-03  -6.71543879E-03
  -2.00000009E-03  -6.82203192E-03
  -1.94999995E-03  -6.92998758E-03
  -1.90000003E-03  -7.03927735E-03
  -1.85000000E-03  -7.14978809E-03
  -1.79999997E-03  -7.26138847E-03
  -1.75000005E-03  -7.37399235E-03
  -1.70000002E-03  -7.48757273E-03
  -1.64999999E-03  -7.60218734E-03
  -1.59999996E-03  -7.71797216E-03
  -1.55000004E-03  -7.83505011E-03
  -1.50000001E-03  -7.95350224E-03
  -1.44999998E-03  -8.07334110E-03
  -1.39999995E-03  -8.19445588E-03
  -1.35000004E-03  -8.31667893E-03
  -1.30000000E-03  -8.43986403E-03
  -1.24999997E-03  -8.56393389E-03
  -1.20000006E-03  -8.68893322E-03
  -1.15000003E-03  -8.81500449E-03
  -1.09999999E-03  -8.94232746E-03
  -1.04999996E-03  -9.07106139E-03
  -1.00000005E-03  -9.20123234E-03
  -9.50000016E-04  -9.33270715E-03
  -8.99999985E-04  -9.46528930E-03
  -8.50000011E-04  -9.59876738E-03
  -7.99999980E-04  -9.73297656E-03
  -7.50000007E-04  -9.86793078E-03
  -6.99999975E-04  -1.00038126E-02
  -6.50000002E-04  -1.01408493E-02
  -6.00000028E-04  -1.02792401E-02
  -5.49999997E-04  -1.04190689E-02
  -5.00000024E-04  -1.05602220E-02
  -4.49999992E-04  -1.07024424E-02
  -3.99999990E-04  -1.08454609E-02
  -3.49999988E-04  -1.09890932E-02
  -3.00000014E-04  -1.11333029E-02
  -2.50000012E-04  -1.12782735E-02
  -1.99999995E-04  -1.14242984E-02
  -1.50000007E-04  -1.15715917E-02
  -9.99999975E-05  -1.17202196E-02
  -4.99999987E-05  -1.18700946E-02
   0.00000000      -1.20209539E-02
   4.99999987E-05  -1.21724550E-02
   9.99999975E-05  -1.23244068E-02
   1.50000007E-04  -1.24767730E-02
   1.99999995E-04  -1.26296766E-02
   2.50000012E-04  -1.27833877E-02
   3.00000014E-04  -1.29381549E-02
   3.49999988E-04  -1.30941123E-02
   3.99999990E-04  -1.32511836E-02
   4.49999992E-04  -1.34091191E-02
   5.00000024E-04  -1.35675892E-02
   5.49999997E-04  -1.37263248E-02
   6.00000028E-04  -1.38852196E-02
   6.50000002E-04  -1.40443593E-02
   6.99999975E-04  -1.42040094E-02
   7.50000007E-04  -1.43644474E-02
   7.99999980E-04  -1.45258838E-02
   8.50000011E-04  -1.46883279E-02
   8.99999985E-04  -1.48515124E-02
   9.50000016E-04  -1.50150172E-02
   1.00000005E-03  -1.51784969E-02
   1.04999996E-03  -1.53417867E-02
   1.09999999E-03  -1.55048976E-02
   1.15000003E-03  -1.56681016E-02
   1.20000006E-03  -1.58317760E-02
   1.24999997E-03  -1.59961861E-02
   1.30000000E-03  -1.61613859E-02
   1.35000004E-03  -1.63271166E-02
   1.39999995E-03  -1.64929070E-02
   1.44999998E-03  -1.66583341E-02
   1.50000001E-03  -1.68231688E-02
   1.55000004E-03  -1.69874337E-02
   1.59999996E-03  -1.71513632E-02
   1.64999999E-03  -1.73152946E-02
   1.70000002E-03  -1.74795743E-02
   1.75000005E-03  -1.76442638E-02
   1.79999997E-03  -1.78091004E-02
   1.85000000E-03  -1.79736782E-02
   1.90000003E-03  -1.81376226E-02
   1.94999995E-03  -1.83005966E-02
   2.00000009E-03  -1.84624419E-02
   2.05000001E-03  -1.86233651E-02
   2.09999993E-03  -1.87837426E-02
   2.15000007E-03  -1.89439394E-02
   2.19999999E-03  -1.91041213E-02
   2.24999990E-03  -1.92641541E-02
   2.30000005E-03  -1.94236804E-02
   2.34999997E-03  -1.95821151E-02
   2.40000011E-03  -1.97389871E-02
   2.45000003E-03  -1.98941063E-02
   2.49999994E-03  -2.00475771E-02
   2.55000009E-03  -2.01998129E-02
   2.60000001E-03  -2.03512348E-02
   2.64999992E-03  -2.05021389E-02
   2.70000007E-03  -2.06524879E-02
   2.74999999E-03  -2.08019353E-02
   2.79999990E-03  -2.09498890E-02