  -3.99999991E-02   0.00000000    
  -3.99499983E-02   0.00000000    
  -3.99000011E-02   0.00000000    
  -3.98500003E-02   0.00000000    
  -3.97999994E-02   0.00000000    
  -3.97499986E-02   4.59712447E-23
  -3.97000015E-02   4.06805976E-22
  -3.96500006E-02   1.86985228E-21
  -3.95999998E-02   5.85749493E-21
  -3.95499989E-02   1.37736219E-20
  -3.95000018E-02   2.50657908E-20
  -3.94500010E-02   3.42380331E-20
  -3.94000001E-02   2.83207610E-20
  -3.93499993E-02  -1.26708439E-20
  -3.92999984E-02  -1.10078805E-19
  -3.92500013E-02  -2.75882441E-19
  -3.92000005E-02  -5.00874043E-19
  -3.91499996E-02  -7.48906424E-19
  -3.90999988E-02  -9.64229447E-19
  -3.90500017E-02  -1.09374463E-18
  -3.90000008E-02  -1.11709180E-18
  -3.89500000E-02  -1.06944786E-18
  -3.88999991E-02  -1.04058039E-18
  -3.88499983E-02  -1.14233849E-18
  -3.88000011E-02  -1.45306382E-18
  -3.87500003E-02  -1.96346601E-18
  -3.86999995E-02  -2.55458416E-18
  -3.86499986E-02  -3.02844036E-18
  -3.86000015E-02  -3.18770448E-18
  -3.85500006E-02  -2.93235134E-18
  -3.84999998E-02  -2.32373728E-18
  -3.84499989E-02  -1.57223408E-18
  -3.84000018E-02  -9.36202190E-19
  -3.83500010E-02  -5.66328017E-19
  -3.83000001E-02  -3.67552329E-19
  -3.82499993E-02   4.26728261E-20
  -3.81999984E-02   1.23682103E-18
  -3.81500013E-02   3.76376691E-18
  -3.81000005E-02   7.90821558E-18
  -3.80499996E-02   1.35408945E-17
  -3.79999988E-02   2.01488062E-17
  -3.79500017E-02   2.70560323E-17
  -3.79000008E-02   3.37507921E-17
  -3.78500000E-02   4.01698526E-17
  -3.77999991E-02   4.67933889E-17
  -3.77499983E-02   5.44802063E-17
  -3.77000012E-02   6.40951287E-17
  -3.76500003E-02   7.60909814E-17
  -3.75999995E-02   9.02473834E-17
  -3.75499986E-02   1.05708593E-16
  -3.75000015E-02   1.21324579E-16
  -3.74500006E-02   1.36148198E-16
  -3.73999998E-02   1.49856619E-16
  -3.73499990E-02   1.62891450E-16
  -3.73000018E-02   1.76241431E-16
  -3.72500010E-02   1.90960865E-16
  -3.72000001E-02   2.07641604E-16
  -3.71499993E-02   2.26077064E-16
  -3.70999984E-02   2.45261460E-16
  -3.70500013E-02   2.63704623E-16
  -3.70000005E-02   2.79896611E-16
  -3.69499996E-02   2.92702638E-16
  -3.68999988E-02   3.01536768E-16
  -3.68500017E-02   3.06305854E-16
  -3.68000008E-02   3.07244129E-16
  -3.67500000E-02   3.04789586E-16
  -3.66999991E-02   2.99563419E-16
  -3.66499983E-02   2.92375206E-16
  -3.66000012E-02   2.84094718E-16
  -3.65500003E-02   2.75288196E-16
  -3.64999995E-02   2.65703542E-16
  -3.64499986E-02   2.53895717E-16
  -3.64000015E-02   2.37359278E-16
  -3.63500006E-02   2.13374640E-16
  -3.62999998E-02   1.80401355E-16
  -3.62499990E-02   1.39429591E-16
  -3.62000018E-02   9.44878488E-17
  -3.61500010E-02   5.17094093E-17
  -3.61000001E-02   1.69955606E-17
  -3.60499993E-02  -6.86287766E-18
  -3.59999985E-02  -2.21705381E-17
  -3.59500013E-02  -3.60721024E-17
  -3.59000005E-02  -5.75908090E-17
  -3.58499996E-02  -9.28718886E-17
  -3.57999988E-02  -1.40760716E-16
  -3.57500017E-02  -1.91194977E-16
  -3.57000008E-02  -2.27966689E-16
  -3.56500000E-02  -2.35436593E-16
  -3.55999991E-02  -2.06568241E-16
  -3.55499983E-02  -1.48344453E-16
  -3.55000012E-02  -8.11199615E-17
  -3.54500003E-02  -3.08962679E-17
  -3.53999995E-02  -1.69983068E-17
  -3.53499986E-02  -4.05700591E-17
  -3.53000015E-02  -8.00081514E-17
  -3.52500007E-02  -9.71188654E-17
  -3.51999998E-02  -5.30230515E-17
  -3.51499990E-02   7.23285470E-17
  -3.51000018E-02   2.66159801E-16
  -3.50500010E-02   4.82407127E-16
  -3.50000001E-02   6.57443574E-16
  -3.49499993E-02   7.36995162E-16
  -3.48999985E-02   7.02813200E-16
  -3.48500013E-02   5.85875802E-16
  -3.48000005E-02   4.57426961E-16
  -3.47499996E-02   3.98782635E-16
  -3.46999988E-02   4.61525330E-16
  -3.46500017E-02   6.36278815E-16
  -3.46000008E-02   8.46766502E-16
  -3.45500000E-02   9.75851624E-16
  -3.44999991E-02   9.15448857E-16
  -3.44499983E-02   6.19251653E-16
  -3.44000012E-02   1.32835955E-16
  -3.43500003E-02  -4.16770544E-16
  -3.42999995E-02  -8.72555162E-16
  -3.42499986E-02  -1.12048462E-15
  -3.42000015E-02  -1.15124536E-15
  -3.41500007E-02  -1.07915004E-15
  -3.40999998E-02  -1.10333982E-15
  -3.40499990E-02  -1.42266404E-15
  -3.40000018E-02  -2.13966515E-15
  -3.39500010E-02  -3.19891776E-15
  -3.39000002E-02  -4.39391480E-15
  -3.38499993E-02  -5.44757890E-15
  -3.37999985E-02  -6.13631833E-15
  -3.37500013E-02  -6.40275678E-15
  -3.37000005E-02  -6.40115504E-15
  -3.36499996E-02  -6.44549721E-15
  -3.35999988E-02  -6.87379307E-15
  -3.35500017E-02  -7.88426314E-15
  -3.35000008E-02  -9.41915969E-15
  -3.34500000E-02  -1.11577211E-14
  -3.33999991E-02  -1.26341706E-14
  -3.33499983E-02  -1.34382836E-14
  -3.33000012E-02  -1.34116131E-14
  -3.32500003E-02  -1.27450108E-14
  -3.31999995E-02  -1.19201676E-14
  -3.31499986E-02  -1.15064759E-14
  -3.31000015E-02  -1.18948955E-14
  -3.30500007E-02  -1.30891375E-14
  -3.29999998E-02  -1.46595044E-14
  -3.29499990E-02  -1.58978902E-14
  -3.29000019E-02  -1.61204278E-14
  -3.28500010E-02  -1.49886258E-14
  -3.28000002E-02  -1.26983029E-14
  -3.27499993E-02  -9.93385248E-15
  -3.26999985E-02  -7.58705876E-15
  -3.26500013E-02  -6.35153839E-15
  -3.26000005E-02  -6.37341937E-15
  -3.25499997E-02  -7.12910447E-15
  -3.24999988E-02  -7.60909348E-15
  -3.24500017E-02  -6.74903147E-15
  -3.24000008E-02  -3.92674564E-15
  -3.23500000E-02   7.03531008E-16
  -3.22999991E-02   6.21195032E-15
  -3.22499983E-02   1.12579522E-14
  -3.22000012E-02   1.46789590E-14
  -3.21500003E-02   1.60447708E-14
  -3.20999995E-02   1.59136400E-14
  -3.20499986E-02   1.56442970E-14
  -3.20000015E-02   1.68152591E-14
  -3.19500007E-02   2.04920919E-14
  -3.18999998E-02   2.66748971E-14
  -3.18499990E-02   3.42006832E-14
  -3.18000019E-02   4.11837617E-14
  -3.17500010E-02   4.58310859E-14
  -3.17000002E-02   4.72800882E-14
  -3.16499993E-02   4.60679705E-14
  -3.15999985E-02   4.39831988E-14
  -3.15500014E-02   4.33200500E-14
  -3.15000005E-02   4.58381197E-14
  -3.14499997E-02   5.18902446E-14
  -3.13999988E-02   6.01386210E-14
  -3.13500017E-02   6.80359631E-14
  -3.13000008E-02   7.29043765E-14
  -3.12500000E-02   7.31533025E-14
  -3.11999992E-02   6.90797720E-14
  -3.11500002E-02   6.28483946E-14
  -3.10999993E-02   5.76020216E-14
  -3.10500003E-02   5.60552920E-14
  -3.09999995E-02   5.91887718E-14
  -3.09500005E-02   6.56576369E-14
  -3.08999997E-02   7.22392591E-14
  -3.08500007E-02   7.51831391E-14
  -3.07999998E-02   7.18985621E-14
  -3.07500008E-02   6.22199910E-14
  -3.07000000E-02   4.86356425E-14
  -3.06499992E-02   3.53044349E-14
  -3.06000002E-02   2.62368862E-14
  -3.05499993E-02   2.34272491E-14
  -3.05000003E-02   2.57976234E-14
  -3.04499995E-02   2.94941514E-14
  -3.04000005E-02   2.94843021E-14
  -3.03499997E-02   2.17994669E-14
  -3.03000007E-02   5.42805564E-15
  -3.02499998E-02  -1.70359264E-14
  -3.02000009E-02  -4.03639524E-14
  -3.01500000E-02  -5.89341266E-14
  -3.00999992E-02  -6.92856213E-14
  -3.00500002E-02  -7.18274995E-14
  -2.99999993E-02  -7.08636979E-14
  -2.99500003E-02  -7.28221804E-14
  -2.98999995E-02  -8.33969599E-14
  -2.98500005E-02  -1.04853551E-13
  -2.97999997E-02  -1.34746164E-13
  -2.97500007E-02  -1.66717822E-13
  -2.96999998E-02  -1.93135696E-13
  -2.96500009E-02  -2.08457546E-13
  -2.96000000E-02  -2.11826718E-13
  -2.95499992E-02  -2.07663856E-13
  -2.95000002E-02  -2.03873363E-13
  -2.94499993E-02  -2.08354980E-13
  -2.94000003E-02  -2.25325075E-13
  -2.93499995E-02  -2.53120197E-13
  -2.93000005E-02  -2.84567319E-13
  -2.92499997E-02  -3.09887885E-13
  -2.92000007E-02  -3.20943386E-13
  -2.91499998E-02  -3.14953630E-13
  -2.91000009E-02  -2.95963476E-13
  -2.90500000E-02  -2.73272670E-13
  -2.89999992E-02  -2.57390002E-13
  -2.89500002E-02  -2.55230922E-13
  -2.88999993E-02  -2.66710184E-13
  -2.88500004E-02  -2.84352565E-13
  -2.87999995E-02  -2.96251549E-13
  -2.87500005E-02  -2.91195480E-13
  -2.86999997E-02  -2.63737898E-13
  -2.86500007E-02  -2.16904375E-13
  -2.85999998E-02  -1.61192199E-13
  -2.85500009E-02  -1.10141470E-13
  -2.85000000E-02  -7.43270327E-14
  -2.84499992E-02  -5.64266414E-14
  -2.84000002E-02  -4.96565273E-14
  -2.83499993E-02  -4.04430551E-14
  -2.83000004E-02  -1.43161104E-14
  -2.82499995E-02   3.74996224E-14
  -2.82000005E-02   1.13752933E-13
  -2.81499997E-02   2.03162045E-13
  -2.81000007E-02   2.88938849E-13
  -2.80499998E-02   3.55998705E-13
  -2.80000009E-02   3.97712543E-13
  -2.79500000E-02   4.19124479E-13
  -2.78999992E-02   4.35020076E-13
  -2.78500002E-02   4.63489436E-13
  -2.77999993E-02   5.17695966E-13
  -2.77500004E-02   5.99491594E-13
  -2.76999995E-02   6.97845265E-13
  -2.76500005E-02   7.93004442E-13
  -2.75999997E-02   8.64761333E-13
  -2.75500007E-02   9.01271083E-13
  -2.74999999E-02   9.04469858E-13
  -2.74500009E-02   8.89506405E-13
  -2.74000000E-02   8.78193839E-13
  -2.73499992E-02   8.89184451E-13
  -2.73000002E-02   9.29162888E-13
  -2.72499993E-02   9.89071672E-13
  -2.72000004E-02   1.04728184E-12
  -2.71499995E-02   1.07857191E-12
  -2.71000005E-02   1.06511599E-12
  -2.70499997E-02   1.00461913E-12
  -2.70000007E-02   9.11828339E-13
  -2.69499999E-02   8.12470913E-13
  -2.69000009E-02   7.32043820E-13
  -2.68500000E-02   6.84287859E-13
  -2.67999992E-02   6.64515535E-13
  -2.67500002E-02   6.50984746E-13
  -2.66999993E-02   6.14018331E-13
  -2.66500004E-02   5.29078463E-13
  -2.65999995E-02   3.88078567E-13
  -2.65500005E-02   2.03783171E-13
  -2.64999997E-02   5.05391144E-15
  -2.64500007E-02  -1.75277219E-13
  -2.63999999E-02  -3.14748255E-13
  -2.63500009E-02  -4.11466380E-13
  -2.63000000E-02  -4.85429568E-13
  -2.62499992E-02  -5.70037398E-13
  -2.62000002E-02  -6.97224234E-13
  -2.61499994E-02  -8.82642809E-13
  -2.61000004E-02  -1.11754670E-12
  -2.60499995E-02  -1.37126692E-12
  -2.60000005E-02  -1.60357556E-12
  -2.59499997E-02  -1.78177048E-12
  -2.59000007E-02  -1.89500390E-12
  -2.58499999E-02  -1.95933981E-12
  -2.58000009E-02  -2.01093374E-12
  -2.57500000E-02  -2.08996058E-12
  -2.56999992E-02  -2.22214803E-12
  -2.56500002E-02  -2.40610960E-12
  -2.55999994E-02  -2.61235911E-12
  -2.55500004E-02  -2.79487891E-12
  -2.54999995E-02  -2.91052273E-12
  -2.54500005E-02  -2.93785265E-12
  -2.53999997E-02  -2.88696497E-12
  -2.53500007E-02  -2.79558863E-12
  -2.52999999E-02  -2.71271829E-12
  -2.52500009E-02  -2.67666314E-12
  -2.52000000E-02  -2.69714134E-12
  -2.51499992E-02  -2.74956967E-12
  -2.51000002E-02  -2.78453649E-12
  -2.50499994E-02  -2.74875066E-12
  -2.50000004E-02  -2.60850629E-12
  -2.49499995E-02  -2.36525925E-12
  -2.49000005E-02  -2.05609228E-12
  -2.48499997E-02  -1.73834547E-12
  -2.48000007E-02  -1.46475410E-12
  -2.47499999E-02  -1.25989182E-12
  -2.47000009E-02  -1.10849296E-12
  -2.46500000E-02  -9.61274896E-13
  -2.45999992E-02  -7.56245652E-13
  -2.45500002E-02  -4.46482830E-13
  -2.44999994E-02  -2.21851143E-14
  -2.44500004E-02   4.83055002E-13
  -2.43999995E-02   1.00507623E-12
  -2.43500005E-02   1.47597266E-12
  -2.42999997E-02   1.85338897E-12
  -2.42500007E-02   2.13928463E-12
  -2.41999999E-02   2.37944235E-12
  -2.41500009E-02   2.64333520E-12
  -2.41000000E-02   2.99271263E-12
  -2.40499992E-02   3.45259021E-12
  -2.40000002E-02   3.99767502E-12
  -2.39499994E-02   4.56078014E-12
  -2.39000004E-02   5.06016323E-12
  -2.38499995E-02   5.43417611E-12
  -2.38000005E-02   5.66798344E-12
  -2.37499997E-02   5.80018759E-12
  -2.37000007E-02   5.90579408E-12
  -2.36499999E-02   6.06240405E-12
  -2.36000009E-02   6.31423906E-12
  -2.35500000E-02   6.64998221E-12
  -2.34999992E-02   7.00477133E-12
  -2.34500002E-02   7.28616299E-12
  -2.33999994E-02   7.41322281E-12
  -2.33500004E-02   7.35169044E-12
  -2.32999995E-02   7.12943897E-12
  -2.32500006E-02   6.82477339E-12
  -2.31999997E-02   6.53201885E-12
  -2.31500007E-02   6.31911580E-12
  -2.30999999E-02   6.19590533E-12
  -2.30500009E-02   6.10755890E-12
  -2.30000000E-02   5.95679409E-12
  -2.29499992E-02   5.64576814E-12
  -2.29000002E-02   5.11952633E-12
  -2.28499994E-02   4.39168710E-12
  -2.28000004E-02   3.54043878E-12
  -2.27499995E-02   2.67584956E-12
  -2.27000006E-02   1.89228863E-12
  -2.26499997E-02   1.22679330E-12
  -2.26000007E-02   6.42080627E-13
  -2.25499999E-02   4.24400336E-14
  -2.25000009E-02  -6.83718978E-13
  -2.24500000E-02  -1.61293223E-12
  -2.23999992E-02  -2.74981058E-12
  -2.23500002E-02  -4.02103741E-12
  -2.22999994E-02  -5.30366853E-12
  -2.22500004E-02  -6.47599465E-12
  -2.21999995E-02  -7.46890657E-12
  -2.21500006E-02  -8.29490209E-12
  -2.20999997E-02  -9.04129636E-12
  -2.20500007E-02  -9.82979496E-12
  -2.19999999E-02  -1.07596397E-11
  -2.19500009E-02  -1.18592349E-11
  -2.19000001E-02  -1.30680076E-11
  -2.18499992E-02  -1.42572907E-11
  -2.18000002E-02  -1.52818869E-11
  -2.17499994E-02  -1.60400911E-11
  -2.17000004E-02  -1.65157350E-11
  -2.16499995E-02  -1.67831200E-11
  -2.16000006E-02  -1.69719013E-11
  -2.15499997E-02  -1.72065955E-11
  -2.15000007E-02  -1.75470923E-11
  -2.14499999E-02  -1.79566102E-11
  -2.14000009E-02  -1.83119995E-11
  -2.13500001E-02  -1.84526890E-11
  -2.12999992E-02  -1.82474626E-11
  -2.12500002E-02  -1.76497792E-11
  -2.11999994E-02  -1.67169056E-11
  -2.11500004E-02  -1.55836438E-11
  -2.10999995E-02  -1.44014332E-11
  -2.10500006E-02  -1.32691800E-11
  -2.09999997E-02  -1.21863648E-11
  -2.09500007E-02  -1.10497124E-11
  -2.08999999E-02  -9.69578931E-12
  -2.08500009E-02  -7.97155918E-12
  -2.08000001E-02  -5.80218902E-12
  -2.07499992E-02  -3.22603446E-12
  -2.07000002E-02  -3.80679348E-13
  -2.06499994E-02   2.55466264E-12
  -2.06000004E-02   5.43564759E-12
  -2.05499995E-02   8.21464945E-12
  -2.05000006E-02   1.09602900E-11
  -2.04499997E-02   1.38252083E-11
  -2.04000007E-02   1.69754003E-11
  -2.03499999E-02   2.05117312E-11
  -2.03000009E-02   2.44181845E-11
  -2.02500001E-02   2.85602375E-11
  -2.01999992E-02   3.27349085E-11
  -2.01500002E-02   3.67511993E-11
  -2.00999994E-02   4.05058730E-11
  -2.00500004E-02   4.40209778E-11
  -1.99999996E-02   4.74258306E-11
  -1.99500006E-02   5.08905973E-11
  -1.98999997E-02   5.45399316E-11
  -1.98500007E-02   5.83846235E-11
  -1.97999999E-02   6.23016777E-11
  -1.97500009E-02   6.60723976E-11
  -1.97000001E-02   6.94626925E-11
  -1.96499992E-02   7.23106575E-11
  -1.96000002E-02   7.45830828E-11
  -1.95499994E-02   7.63754129E-11
  -1.95000004E-02   7.78543549E-11
  -1.94499996E-02   7.91677002E-11
  -1.94000006E-02   8.03606140E-11
  -1.93499997E-02   8.13354870E-11
  -1.93000007E-02   8.18736606E-11
  -1.92499999E-02   8.17103815E-11
  -1.92000009E-02   8.06307798E-11
  -1.91500001E-02   7.85448026E-11
  -1.90999992E-02   7.55079194E-11
  -1.90500002E-02   7.16777332E-11
  -1.89999994E-02   6.72248091E-11
  -1.89500004E-02   6.22363619E-11
  -1.88999996E-02   5.66551840E-11
  -1.88500006E-02   5.02811924E-11
  -1.87999997E-02   4.28358286E-11
  -1.87500007E-02   3.40617014E-11
  -1.86999999E-02   2.38142978E-11
  -1.86500009E-02   1.21052239E-11
  -1.86000001E-02  -9.22489949E-13
  -1.85499992E-02  -1.50769935E-11
  -1.85000002E-02  -3.02224808E-11
  -1.84499994E-02  -4.63604155E-11
  -1.84000004E-02  -6.36510775E-11
  -1.83499996E-02  -8.23652258E-11
  -1.83000006E-02  -1.02786203E-10
  -1.82499997E-02  -1.25104926E-10
  -1.82000007E-02  -1.49353668E-10
  -1.81499999E-02  -1.75408410E-10
  -1.81000009E-02  -2.03059042E-10
  -1.80500001E-02  -2.32117908E-10
  -1.79999992E-02  -2.62518923E-10
  -1.79500002E-02  -2.94364061E-10
  -1.78999994E-02  -3.27895905E-10
  -1.78500004E-02  -3.63407554E-10
  -1.77999996E-02  -4.01128825E-10
  -1.77500006E-02  -4.41138098E-10
  -1.76999997E-02  -4.83339035E-10
  -1.76500008E-02  -5.27512922E-10
  -1.75999999E-02  -5.73424364E-10
  -1.75500009E-02  -6.20935137E-10
  -1.75000001E-02  -6.70075273E-10
  -1.74499992E-02  -7.21041116E-10
  -1.74000002E-02  -7.74119602E-10
  -1.73499994E-02  -8.29571245E-10
  -1.73000004E-02  -8.87523111E-10
  -1.72499996E-02  -9.47918521E-10
  -1.72000006E-02  -1.01054620E-09
  -1.71499997E-02  -1.07513676E-09
  -1.71000008E-02  -1.14148524E-09
  -1.70499999E-02  -1.20954635E-09
  -1.70000009E-02  -1.27946032E-09
  -1.69500001E-02  -1.35149747E-09
  -1.68999992E-02  -1.42594503E-09
  -1.68500002E-02  -1.50298562E-09
  -1.67999994E-02  -1.58262026E-09
  -1.67500004E-02  -1.66466951E-09
  -1.66999996E-02  -1.74885439E-09
  -1.66500006E-02  -1.83492121E-09
  -1.65999997E-02  -1.92275684E-09
  -1.65500008E-02  -2.01244310E-09
  -1.64999999E-02  -2.10422813E-09
  -1.64500009E-02  -2.19842300E-09
  -1.64000001E-02  -2.29527286E-09
  -1.63499992E-02  -2.39485387E-09
  -1.63000003E-02  -2.49704590E-09
  -1.62499994E-02  -2.60158939E-09
  -1.62000004E-02  -2.70820766E-09
  -1.61499996E-02  -2.81673440E-09
  -1.61000006E-02  -2.92719915E-09
  -1.60499997E-02  -3.03982661E-09
  -1.60000008E-02  -3.15495230E-09
  -1.59499999E-02  -3.27289040E-09
  -1.59000009E-02  -3.39381212E-09
  -1.58500001E-02  -3.51768503E-09
  -1.57999992E-02  -3.64430419E-09
  -1.57500003E-02  -3.77339981E-09
  -1.56999994E-02  -3.90477428E-09
  -1.56500004E-02  -4.03841360E-09
  -1.55999996E-02  -4.17451762E-09
  -1.55499997E-02  -4.31344205E-09
  -1.54999997E-02  -4.45557191E-09
  -1.54499998E-02  -4.60118343E-09
  -1.53999999E-02  -4.75035478E-09
  -1.53500000E-02  -4.90296559E-09
  -1.53000001E-02  -5.05878228E-09
  -1.52500002E-02  -5.21759969E-09
  -1.52000003E-02  -5.37936984E-09
  -1.51500003E-02  -5.54426771E-09
  -1.51000004E-02  -5.71266234E-09
  -1.50499996E-02  -5.88500360E-09
  -1.49999997E-02  -6.06167738E-09
  -1.49499997E-02  -6.24289020E-09
  -1.48999998E-02  -6.42863052E-09
  -1.48499999E-02  -6.61873312E-09
  -1.48000000E-02  -6.81300794E-09
  -1.47500001E-02  -7.01138658E-09
  -1.47000002E-02  -7.21401738E-09
  -1.46500003E-02  -7.42127026E-09
  -1.46000003E-02  -7.63364660E-09
  -1.45500004E-02  -7.85163312E-09
  -1.44999996E-02  -8.07556599E-09
  -1.44499997E-02  -8.30555980E-09
  -1.43999998E-02  -8.54153637E-09
  -1.43499998E-02  -8.78334205E-09
  -1.42999999E-02  -9.03089781E-09
  -1.42500000E-02  -9.28432353E-09
  -1.42000001E-02  -9.54397716E-09
  -1.41500002E-02  -9.81039161E-09
  -1.41000003E-02  -1.00841433E-08
  -1.40500003E-02  -1.03656950E-08
  -1.40000004E-02  -1.06552935E-08
  -1.39499996E-02  -1.09529701E-08
  -1.38999997E-02  -1.12586251E-08
  -1.38499998E-02  -1.15721832E-08
  -1.37999998E-02  -1.18937376E-08
  -1.37499999E-02  -1.22236194E-08
  -1.37000000E-02  -1.25623734E-08
  -1.36500001E-02  -1.29106388E-08
  -1.36000002E-02  -1.32689939E-08
  -1.35500003E-02  -1.36378189E-08
  -1.35000004E-02  -1.40172638E-08
  -1.34500004E-02  -1.44073011E-08
  -1.33999996E-02  -1.48078705E-08
  -1.33499997E-02  -1.52190349E-08
  -1.32999998E-02  -1.56410920E-08
  -1.32499998E-02  -1.60745763E-08
  -1.31999999E-02  -1.65201701E-08
  -1.31500000E-02  -1.69785466E-08
  -1.31000001E-02  -1.74502208E-08
  -1.30500002E-02  -1.79354682E-08
  -1.30000003E-02  -1.84343598E-08
  -1.29500004E-02  -1.89468707E-08
  -1.29000004E-02  -1.94730543E-08
  -1.28499996E-02  -2.00131680E-08
  -1.27999997E-02  -2.05677271E-08
  -1.27499998E-02  -2.11374349E-08
  -1.26999998E-02  -2.17230447E-08
  -1.26499999E-02  -2.23251977E-08
  -1.26000000E-02  -2.29443131E-08
  -1.25500001E-02  -2.35805686E-08
  -1.25000002E-02  -2.42340086E-08
  -1.24500003E-02  -2.49046952E-08
  -1.24000004E-02  -2.55928612E-08
  -1.23500004E-02  -2.62989950E-08
  -1.22999996E-02  -2.70238196E-08
  -1.22499997E-02  -2.77681611E-08
  -1.21999998E-02  -2.85327850E-08
  -1.21499998E-02  -2.93182563E-08
  -1.20999999E-02  -3.01249017E-08
  -1.20500000E-02  -3.09528545E-08
  -1.20000001E-02  -3.18022195E-08
  -1.19500002E-02  -3.26732206E-08
  -1.19000003E-02  -3.35663479E-08
  -1.18500004E-02  -3.44823334E-08
  -1.18000004E-02  -3.54220795E-08
  -1.17499996E-02  -3.63864849E-08
  -1.16999997E-02  -3.73762923E-08
  -1.16499998E-02  -3.83919989E-08
  -1.15999999E-02  -3.94338819E-08
  -1.15499999E-02  -4.05021297E-08
  -1.15000000E-02  -4.15970085E-08
  -1.14500001E-02  -4.27190123E-08
  -1.14000002E-02  -4.38688943E-08
  -1.13500003E-02  -4.50476136E-08
  -1.13000004E-02  -4.62562006E-08
  -1.12500004E-02  -4.74955613E-08
  -1.11999996E-02  -4.87663812E-08
  -1.11499997E-02  -5.00691151E-08
  -1.10999998E-02  -5.14040863E-08
  -1.10499999E-02  -5.27716359E-08
  -1.09999999E-02  -5.41723146E-08
  -1.09500000E-02  -5.56069288E-08
  -1.09000001E-02  -5.70765337E-08
  -1.08500002E-02  -5.85823123E-08
  -1.08000003E-02  -6.01253873E-08
  -1.07500004E-02  -6.17066647E-08
  -1.07000005E-02  -6.33268300E-08
  -1.06499996E-02  -6.49863594E-08
  -1.05999997E-02  -6.66857076E-08
  -1.05499998E-02  -6.84254928E-08
  -1.04999999E-02  -7.02065606E-08
  -1.04499999E-02  -7.20300477E-08
  -1.04000000E-02  -7.38972474E-08
  -1.03500001E-02  -7.58094743E-08
  -1.03000002E-02  -7.77678579E-08
  -1.02500003E-02  -7.97732937E-08
  -1.02000004E-02  -8.18264851E-08
  -1.01500005E-02  -8.39280645E-08
  -1.00999996E-02  -8.60787566E-08
  -1.00499997E-02  -8.82795277E-08
  -9.99999978E-03  -9.05316284E-08
  -9.94999986E-03  -9.28365154E-08
  -9.89999995E-03  -9.51957020E-08
  -9.85000003E-03  -9.76106094E-08
  -9.80000012E-03  -1.00082403E-07
  -9.75000020E-03  -1.02612013E-07
  -9.70000029E-03  -1.05200272E-07
  -9.65000037E-03  -1.07848066E-07
  -9.60000046E-03  -1.10556478E-07
  -9.54999961E-03  -1.13326877E-07
  -9.49999969E-03  -1.16160855E-07
  -9.44999978E-03  -1.19060104E-07
  -9.39999986E-03  -1.22026222E-07
  -9.34999995E-03  -1.25060637E-07
  -9.30000003E-03  -1.28164501E-07
  -9.25000012E-03  -1.31338865E-07
  -9.20000020E-03  -1.34584766E-07
  -9.15000029E-03  -1.37903413E-07
  -9.10000037E-03  -1.41296297E-07
  -9.05000046E-03  -1.44765181E-07
  -8.99999961E-03  -1.48311955E-07
  -8.94999970E-03  -1.51938522E-07
  -8.89999978E-03  -1.55646589E-07
  -8.84999987E-03  -1.59437661E-07
  -8.79999995E-03  -1.63313018E-07
  -8.75000004E-03  -1.67273967E-07
  -8.70000012E-03  -1.71321901E-07
  -8.65000021E-03  -1.75458482E-07
  -8.60000029E-03  -1.79685671E-07
  -8.55000038E-03  -1.84005557E-07
  -8.50000046E-03  -1.88420259E-07
  -8.44999962E-03  -1.92931765E-07
  -8.39999970E-03  -1.97541823E-07
  -8.34999979E-03  -2.02251968E-07
  -8.29999987E-03  -2.07063678E-07
  -8.24999996E-03  -2.11978488E-07
  -8.20000004E-03  -2.16998231E-07
  -8.15000013E-03  -2.22124996E-07
  -8.10000021E-03  -2.27361042E-07
  -8.05000030E-03  -2.32708729E-07
  -8.00000038E-03  -2.38170273E-07
  -7.95000046E-03  -2.43747735E-07
  -7.89999962E-03  -2.49442962E-07
  -7.84999970E-03  -2.55257731E-07
  -7.79999979E-03  -2.61193833E-07
  -7.74999987E-03  -2.67253284E-07
  -7.69999996E-03  -2.73438474E-07
  -7.65000004E-03  -2.79751987E-07
  -7.60000013E-03  -2.86196411E-07
  -7.55000021E-03  -2.92774388E-07
  -7.49999983E-03  -2.99488249E-07
  -7.44999992E-03  -3.06340098E-07
  -7.40000000E-03  -3.13332038E-07
  -7.35000009E-03  -3.20466086E-07
  -7.30000017E-03  -3.27744544E-07
  -7.24999979E-03  -3.35169915E-07
  -7.19999988E-03  -3.42745011E-07
  -7.14999996E-03  -3.50472675E-07
  -7.10000005E-03  -3.58355663E-07
  -7.05000013E-03  -3.66396648E-07
  -7.00000022E-03  -3.74598045E-07
  -6.94999984E-03  -3.82962213E-07
  -6.89999992E-03  -3.91491398E-07
  -6.85000001E-03  -4.00188185E-07
  -6.80000009E-03  -4.09055360E-07
  -6.75000018E-03  -4.18095993E-07
  -6.69999979E-03  -4.27313182E-07
  -6.64999988E-03  -4.36710110E-07
  -6.59999996E-03  -4.46289732E-07
  -6.55000005E-03  -4.56054806E-07
  -6.50000013E-03  -4.66007947E-07
  -6.45000022E-03  -4.76151882E-07
  -6.39999984E-03  -4.86489398E-07
  -6.34999992E-03  -4.97023677E-07
  -6.30000001E-03  -5.07757989E-07
  -6.25000009E-03  -5.18695799E-07
  -6.20000018E-03  -5.29840634E-07
  -6.14999980E-03  -5.41195561E-07
  -6.09999988E-03  -5.52763709E-07
  -6.04999997E-03  -5.64547861E-07
  -6.00000005E-03  -5.76550917E-07
  -5.95000014E-03  -5.88776061E-07
  -5.90000022E-03  -6.01226418E-07
  -5.84999984E-03  -6.13905740E-07
  -5.79999993E-03  -6.26817723E-07
  -5.75000001E-03  -6.39966061E-07
  -5.70000010E-03  -6.53354277E-07
  -5.65000018E-03  -6.66985613E-07
  -5.59999980E-03  -6.80863252E-07
  -5.54999989E-03  -6.94990206E-07
  -5.49999997E-03  -7.09369999E-07
  -5.45000006E-03  -7.24006100E-07
  -5.40000014E-03  -7.38902486E-07
  -5.35000023E-03  -7.54063080E-07
  -5.29999984E-03  -7.69491976E-07
  -5.24999993E-03  -7.85193095E-07
  -5.20000001E-03  -8.01169847E-07
  -5.15000010E-03  -8.17425644E-07
  -5.10000018E-03  -8.33963668E-07
  -5.04999980E-03  -8.50787387E-07
  -4.99999989E-03  -8.67900667E-07
  -4.94999997E-03  -8.85307486E-07
  -4.90000006E-03  -9.03012051E-07
  -4.85000014E-03  -9.21018625E-07
  -4.80000023E-03  -9.39331187E-07
  -4.74999985E-03  -9.57953489E-07
  -4.69999993E-03  -9.76889055E-07
  -4.65000002E-03  -9.96141125E-07
  -4.60000010E-03  -1.01571334E-06
  -4.55000019E-03  -1.03560944E-06
  -4.49999981E-03  -1.05583365E-06
  -4.44999989E-03  -1.07639039E-06
  -4.39999998E-03  -1.09728421E-06
  -4.35000006E-03  -1.11851932E-06
  -4.30000015E-03  -1.14009958E-06
  -4.25000023E-03  -1.16202852E-06
  -4.19999985E-03  -1.18430967E-06
  -4.14999994E-03  -1.20694654E-06
  -4.10000002E-03  -1.22994288E-06
  -4.05000011E-03  -1.25330314E-06
  -4.00000019E-03  -1.27703163E-06
  -3.94999981E-03  -1.30113301E-06
  -3.89999989E-03  -1.32561149E-06
  -3.84999998E-03  -1.35047117E-06
  -3.80000006E-03  -1.37571567E-06
  -3.74999992E-03  -1.40134830E-06
  -3.70000000E-03  -1.42737235E-06
  -3.65000009E-03  -1.45379147E-06
  -3.59999994E-03  -1.48060974E-06
  -3.55000002E-03  -1.50783171E-06
  -3.50000011E-03  -1.53546193E-06
  -3.44999996E-03  -1.56350484E-06
  -3.40000005E-03  -1.59196429E-06
  -3.34999990E-03  -1.62084382E-06
  -3.29999998E-03  -1.65014637E-06
  -3.25000007E-03  -1.67987525E-06
  -3.19999992E-03  -1.71003376E-06
  -3.15000000E-03  -1.74062609E-06
  -3.10000009E-03  -1.77165657E-06
  -3.04999994E-03  -1.80312952E-06
  -3.00000003E-03  -1.83504937E-06
  -2.95000011E-03  -1.86742022E-06
  -2.89999996E-03  -1.90024502E-06
  -2.85000005E-03  -1.93352685E-06
  -2.79999990E-03  -1.96726842E-06
  -2.74999999E-03  -2.00147247E-06
  -2.70000007E-03  -2.03614263E-06
  -2.64999992E-03  -2.07128323E-06
  -2.60000001E-03  -2.10689836E-06
  -2.55000009E-03  -2.14299212E-06
  -2.49999994E-03  -2.17956813E-06
  -2.45000003E-03  -2.21662913E-06
  -2.40000011E-03  -2.25417784E-06
  -2.34999997E-03  -2.29221655E-06
  -2.30000005E-03  -2.33074707E-06
  -2.24999990E-03  -2.36977257E-06
  -2.19999999E-03  -2.40929626E-06
  -2.15000007E-03  -2.44932221E-06
  -2.09999993E-03  -2.48985384E-06
  -2.05000001E-03  -2.53089502E-06
  -2.00000009E-03  -2.57244801E-06
  -1.94999995E-03  -2.61451555E-06
  -1.90000003E-03  -2.65709855E-06
  -1.85000000E-03  -2.70019859E-06
  -1.79999997E-03  -2.74381750E-06
  -1.75000005E-03  -2.78795778E-06
  -1.70000002E-03  -2.83262307E-06
  -1.64999999E-03  -2.87781631E-06
  -1.59999996E-03  -2.92354093E-06
  -1.55000004E-03  -2.96979852E-06
  -1.50000001E-03  -3.01659065E-06
  -1.44999998E-03  -3.06391803E-06
  -1.39999995E-03  -3.11178042E-06
  -1.35000004E-03  -3.16017918E-06
  -1.30000000E-03  -3.20911545E-06
  -1.24999997E-03  -3.25859173E-06
  -1.20000006E-03  -3.30861053E-06
  -1.15000003E-03  -3.35917343E-06
  -1.09999999E-03  -3.41028203E-06
  -1.04999996E-03  -3.46193724E-06
  -1.00000005E-03  -3.51413837E-06
  -9.50000016E-04  -3.56688474E-06
  -8.99999985E-04  -3.62017545E-06
  -8.50000011E-04  -3.67401117E-06
  -7.99999980E-04  -3.72839236E-06
  -7.50000007E-04  -3.78332084E-06
  -6.99999975E-04  -3.83879751E-06
  -6.50000002E-04  -3.89482284E-06
  -6.00000028E-04  -3.95139705E-06
  -5.49999997E-04  -4.00851832E-06
  -5.00000024E-04  -4.06618392E-06
  -4.49999992E-04  -4.12439204E-06
  -3.99999990E-04  -4.18314130E-06
  -3.49999988E-04  -4.24243080E-06
  -3.00000014E-04  -4.30226009E-06
  -2.50000012E-04  -4.36262917E-06
  -1.99999995E-04  -4.42353621E-06
  -1.50000007E-04  -4.48498076E-06
  -9.99999975E-05  -4.54695964E-06
  -4.99999987E-05  -4.60946876E-06
   0.00000000      -4.67250493E-06
   4.99999987E-05  -4.73606451E-06
   9.99999975E-05  -4.80014478E-06
   1.50000007E-04  -4.86474300E-06
   1.99999995E-04  -4.92985737E-06
   2.50000012E-04  -4.99548605E-06
   3.00000014E-04  -5.06162542E-06
   3.49999988E-04  -5.12827091E-06
   3.99999990E-04  -5.19541845E-06
   4.49999992E-04  -5.26306121E-06
   5.00000024E-04  -5.33119282E-06
   5.49999997E-04  -5.39980874E-06
   6.00000028E-04  -5.46890487E-06
   6.50000002E-04  -5.53847758E-06
   6.99999975E-04  -5.60852141E-06
   7.50000007E-04  -5.67903226E-06
   7.99999980E-04  -5.75000377E-06
   8.50000011E-04  -5.82142820E-06
   8.99999985E-04  -5.89329784E-06
   9.50000016E-04  -5.96560312E-06
   1.00000005E-03  -6.03833678E-06
   1.04999996E-03  -6.11149198E-06
   1.09999999E-03  -6.18506328E-06
   1.15000003E-03  -6.25904295E-06
   1.20000006E-03  -6.33342506E-06
   1.24999997E-03  -6.40820053E-06
   1.30000000E-03  -6.48335981E-06
   1.35000004E-03  -6.55889107E-06
   1.39999995E-03  -6.63478249E-06
   1.44999998E-03  -6.71102316E-06
   1.50000001E-03  -6.78760489E-06
   1.55000004E-03  -6.86451767E-06
   1.59999996E-03  -6.94175378E-06
   1.64999999E-03  -7.01930503E-06
   1.70000002E-03  -7.09715869E-06
   1.75000005E-03  -7.17530247E-06
   1.79999997E-03  -7.25372183E-06
   1.85000000E-03  -7.33240222E-06
   1.90000003E-03  -7.41132908E-06
   1.94999995E-03  -7.49049059E-06
   2.00000009E-03  -7.56987265E-06
   2.05000001E-03  -7.64946708E-06
   2.09999993E-03  -7.72926069E-06
   2.15000007E-03  -7.80923892E-06
   2.19999999E-03  -7.88938723E-06
   2.24999990E-03  -7.96968652E-06
   2.30000005E-03  -8.05011859E-06
   2.34999997E-03  -8.13066617E-06
   2.40000011E-03  -8.21131198E-06
   2.45000003E-03  -8.29204146E-06
   2.49999994E-03  -8.37284097E-06
   2.55000009E-03  -8.45369595E-06
   2.60000001E-03  -8.53458823E-06
   2.64999992E-03  -8.61549961E-06
   2.70000007E-03  -8.69640735E-06
   2.74999999E-03  -8.77729053E-06
   2.79999990E-03  -8.85812733E-06