  -3.99999991E-02   0.00000000    
  -3.99499983E-02   0.00000000    
  -3.99000011E-02   0.00000000    
  -3.98500003E-02   0.00000000    
  -3.97999994E-02  -5.47018516E-24
  -3.97499986E-02   1.12145137E-23
  -3.97000015E-02   3.03115221E-22
  -3.96500006E-02   1.71530238E-21
  -3.95999998E-02   5.92630036E-21
  -3.95499989E-02   1.48980511E-20
  -3.95000018E-02   2.88919001E-20
  -3.94500010E-02   4.32035432E-20
  -3.94000001E-02   4.52080765E-20
  -3.93499993E-02   1.45278878E-20
  -3.92999984E-02  -7.11200068E-20
  -3.92500013E-02  -2.24377575E-19
  -3.92000005E-02  -4.35207069E-19
  -3.91499996E-02  -6.64190980E-19
  -3.90999988E-02  -8.49959047E-19
  -3.90500017E-02  -9.32949819E-19
  -3.90000008E-02  -8.87988210E-19
  -3.89500000E-02  -7.49272348E-19
  -3.88999991E-02  -6.09747038E-19
  -3.88499983E-02  -5.86153158E-19
  -3.88000011E-02  -7.58871210E-19
  -3.87500003E-02  -1.11331376E-18
  -3.86999995E-02  -1.51630768E-18
  -3.86499986E-02  -1.74988487E-18
  -3.86000015E-02  -1.59819153E-18
  -3.85500006E-02  -9.52226023E-19
  -3.84999998E-02   1.21845488E-19
  -3.84499989E-02   1.39835151E-18
  -3.84000018E-02   2.60423175E-18
  -3.83500010E-02   3.58925372E-18
  -3.83000001E-02   4.47451110E-18
  -3.82499993E-02   5.69310448E-18
  -3.81999984E-02   7.87736670E-18
  -3.81500013E-02   1.16207924E-17
  -3.81000005E-02   1.72149074E-17
  -3.80499996E-02   2.44917724E-17
  -3.79999988E-02   3.28688951E-17
  -3.79500017E-02   4.16041441E-17
  -3.79000008E-02   5.01624393E-17
  -3.78500000E-02   5.85258738E-17
  -3.77999991E-02   6.72845254E-17
  -3.77499983E-02   7.74343293E-17
  -3.77000012E-02   8.99470970E-17
  -3.76500003E-02   1.05300873E-16
  -3.75999995E-02   1.23200227E-16
  -3.75499986E-02   1.42643856E-16
  -3.75000015E-02   1.62335505E-16
  -3.74500006E-02   1.81261504E-16
  -3.73999998E-02   1.99163029E-16
  -3.73499990E-02   2.16667481E-16
  -3.73000018E-02   2.34999021E-16
  -3.72500010E-02   2.55388322E-16
  -3.72000001E-02   2.78449561E-16
  -3.71499993E-02   3.03811739E-16
  -3.70999984E-02   3.30171828E-16
  -3.70500013E-02   3.55734727E-16
  -3.70000005E-02   3.78820848E-16
  -3.69499996E-02   3.98351734E-16
  -3.68999988E-02   4.14010779E-16
  -3.68500017E-02   4.26061914E-16
  -3.68000008E-02   4.34996364E-16
  -3.67500000E-02   4.41242809E-16
  -3.66999991E-02   4.45085850E-16
  -3.66499983E-02   4.46757046E-16
  -3.66000012E-02   4.46512677E-16
  -3.65500003E-02   4.44508862E-16
  -3.64999995E-02   4.40446492E-16
  -3.64499986E-02   4.33190940E-16
  -3.64000015E-02   4.20717083E-16
  -3.63500006E-02   4.00655928E-16
  -3.62999998E-02   3.71404704E-16
  -3.62499990E-02   3.33346746E-16
  -3.62000018E-02   2.89454822E-16
  -3.61500010E-02   2.44654588E-16
  -3.61000001E-02   2.03863863E-16
  -3.60499993E-02   1.69403638E-16
  -3.59999985E-02   1.39077119E-16
  -3.59500013E-02   1.06221518E-16
  -3.59000005E-02   6.22744777E-17
  -3.58499996E-02   1.11038213E-18
  -3.57999988E-02  -7.67966723E-17
  -3.57500017E-02  -1.62739275E-16
  -3.57000008E-02  -2.42229638E-16
  -3.56500000E-02  -3.01246103E-16
  -3.55999991E-02  -3.33842181E-16
  -3.55499983E-02  -3.47365300E-16
  -3.55000012E-02  -3.61923891E-16
  -3.54500003E-02  -4.03031167E-16
  -3.53999995E-02  -4.89737880E-16
  -3.53499986E-02  -6.23462095E-16
  -3.53000015E-02  -7.83490494E-16
  -3.52500007E-02  -9.32905783E-16
  -3.51999998E-02  -1.03407233E-15
  -3.51499990E-02  -1.06772495E-15
  -3.51000018E-02  -1.04671673E-15
  -3.50500010E-02  -1.01650370E-15
  -3.50000001E-02  -1.03969165E-15
  -3.49499993E-02  -1.16950305E-15
  -3.48999985E-02  -1.42342299E-15
  -3.48500013E-02  -1.77011569E-15
  -3.48000005E-02  -2.13826480E-15
  -3.47499996E-02  -2.44646451E-15
  -3.46999988E-02  -2.64265936E-15
  -3.46500017E-02  -2.73506409E-15
  -3.46000008E-02  -2.79793638E-15
  -3.45500000E-02  -2.94553230E-15
  -3.44999991E-02  -3.28233780E-15
  -3.44499983E-02  -3.85060712E-15
  -3.44000012E-02  -4.60061160E-15
  -3.43500003E-02  -5.40145922E-15
  -3.42999995E-02  -6.09288460E-15
  -3.42499986E-02  -6.55836351E-15
  -3.42000015E-02  -6.78666811E-15
  -3.41500007E-02  -6.89019883E-15
  -3.40999998E-02  -7.06533983E-15
  -3.40499990E-02  -7.50646442E-15
  -3.40000018E-02  -8.30948639E-15
  -3.39500010E-02  -9.41053350E-15
  -3.39000002E-02  -1.05940740E-14
  -3.38499993E-02  -1.15752465E-14
  -3.37999985E-02  -1.21256493E-14
  -3.37500013E-02  -1.21868390E-14
  -3.37000005E-02  -1.19150033E-14
  -3.36499996E-02  -1.16267452E-14
  -3.35999988E-02  -1.16603115E-14
  -3.35500017E-02  -1.22092430E-14
  -3.35000008E-02  -1.32055757E-14
  -3.34500000E-02  -1.43147755E-14
  -3.33999991E-02  -1.50579571E-14
  -3.33499983E-02  -1.50173233E-14
  -3.33000012E-02  -1.40357366E-14
  -3.32500003E-02  -1.23142090E-14
  -3.31999995E-02  -1.03494924E-14
  -3.31499986E-02  -8.72432840E-15
  -3.31000015E-02  -7.83483538E-15
  -3.30500007E-02  -7.67852561E-15
  -3.29999998E-02  -7.81040017E-15
  -3.29499990E-02  -7.50540733E-15
  -3.29000019E-02  -6.07098541E-15
  -3.28500010E-02  -3.17607878E-15
  -3.28000002E-02   9.58217033E-16
  -3.27499993E-02   5.61063486E-15
  -3.26999985E-02   9.85334962E-15
  -3.26500013E-02   1.29710661E-14
  -3.26000005E-02   1.48185450E-14
  -3.25499997E-02   1.59409500E-14
  -3.24999988E-02   1.73774620E-14
  -3.24500017E-02   2.02115207E-14
  -3.24000008E-02   2.50571404E-14
  -3.23500000E-02   3.17183752E-14
  -3.22999991E-02   3.91988315E-14
  -3.22499983E-02   4.60881164E-14
  -3.22000012E-02   5.11765381E-14
  -3.21500003E-02   5.40279796E-14
  -3.20999995E-02   5.52371937E-14
  -3.20499986E-02   5.62230045E-14
  -3.20000015E-02   5.86150933E-14
  -3.19500007E-02   6.34890971E-14
  -3.18999998E-02   7.07976294E-14
  -3.18499990E-02   7.92820196E-14
  -3.18000019E-02   8.69466988E-14
  -3.17500010E-02   9.19200154E-14
  -3.17000002E-02   9.33288481E-14
  -3.16499993E-02   9.17774361E-14
  -3.15999985E-02   8.91733112E-14
  -3.15500014E-02   8.79292028E-14
  -3.15000005E-02   8.98648154E-14
  -3.14499997E-02   9.52983555E-14
  -3.13999988E-02   1.02767641E-13
  -3.13500017E-02   1.09559565E-13
  -3.13000008E-02   1.12862431E-13
  -3.12500000E-02   1.11050471E-13
  -3.11999992E-02   1.04511201E-13
  -3.11500002E-02   9.55960368E-14
  -3.10999993E-02   8.76530565E-14
  -3.10500003E-02   8.35260002E-14
  -3.09999995E-02   8.41805195E-14
  -3.09500005E-02   8.81066731E-14
  -3.08999997E-02   9.18313480E-14
  -3.08500007E-02   9.13806994E-14
  -3.07999998E-02   8.40791941E-14
  -3.07500008E-02   6.98724119E-14
  -3.07000000E-02   5.15259425E-14
  -3.06499992E-02   3.35308902E-14
  -3.06000002E-02   2.01358739E-14
  -3.05499993E-02   1.33596755E-14
  -3.05000003E-02   1.19044645E-14
  -3.04499995E-02   1.15330803E-14
  -3.04000005E-02   6.83174635E-15
  -3.03499997E-02  -6.36772985E-15
  -3.03000007E-02  -2.89846509E-14
  -3.02499998E-02  -5.80586875E-14
  -3.02000009E-02  -8.78706491E-14
  -3.01500000E-02  -1.12406951E-13
  -3.00999992E-02  -1.28112608E-13
  -3.00500002E-02  -1.35677995E-13
  -2.99999993E-02  -1.39973536E-13
  -2.99500003E-02  -1.48047414E-13
  -2.98999995E-02  -1.65991339E-13
  -2.98500005E-02  -1.96050560E-13
  -2.97999997E-02  -2.35325079E-13
  -2.97500007E-02  -2.76756211E-13
  -2.96999998E-02  -3.12080548E-13
  -2.96500009E-02  -3.35508368E-13
  -2.96000000E-02  -3.46476781E-13
  -2.95499992E-02  -3.50158216E-13
  -2.95000002E-02  -3.55360815E-13
  -2.94499993E-02  -3.70635841E-13
  -2.94000003E-02  -4.00277142E-13
  -2.93499995E-02  -4.42042914E-13
  -2.93000005E-02  -4.87740490E-13
  -2.92499997E-02  -5.26565174E-13
  -2.92000007E-02  -5.49813071E-13
  -2.91499998E-02  -5.54883613E-13
  -2.91000009E-02  -5.46698646E-13
  -2.90500000E-02  -5.35749830E-13
  -2.89999992E-02  -5.33487534E-13
  -2.89500002E-02  -5.47020654E-13
  -2.88999993E-02  -5.75516956E-13
  -2.88500004E-02  -6.10040447E-13
  -2.87999995E-02  -6.37080395E-13
  -2.87500005E-02  -6.44353115E-13
  -2.86999997E-02  -6.26343975E-13
  -2.86500007E-02  -5.87047663E-13
  -2.85999998E-02  -5.38515467E-13
  -2.85500009E-02  -4.95662214E-13
  -2.85000000E-02  -4.69517491E-13
  -2.84499992E-02  -4.61922276E-13
  -2.84000002E-02  -4.64162834E-13
  -2.83499993E-02  -4.60359181E-13
  -2.83000004E-02  -4.34298105E-13
  -2.82499995E-02  -3.76765649E-13
  -2.82000005E-02  -2.90065335E-13
  -2.81499997E-02  -1.87528487E-13
  -2.81000007E-02  -8.79999402E-14
  -2.80499998E-02  -7.56832663E-15
  -2.80000009E-02   4.78281152E-14
  -2.79500000E-02   8.55158907E-14
  -2.78999992E-02   1.23303332E-13
  -2.78500002E-02   1.81787636E-13
  -2.77999993E-02   2.75015985E-13
  -2.77500004E-02   4.03663106E-13
  -2.76999995E-02   5.53934828E-13
  -2.76500005E-02   7.02956031E-13
  -2.75999997E-02   8.28490705E-13
  -2.75500007E-02   9.18784580E-13
  -2.74999999E-02   9.78072549E-13
  -2.74500009E-02   1.02506599E-12
  -2.74000000E-02   1.08479501E-12
  -2.73499992E-02   1.17721078E-12
  -2.73000002E-02   1.30756972E-12
  -2.72499993E-02   1.46303217E-12
  -2.72000004E-02   1.61728823E-12
  -2.71499995E-02   1.74146418E-12
  -2.71000005E-02   1.81665219E-12
  -2.70499997E-02   1.84246260E-12
  -2.70000007E-02   1.83757306E-12
  -2.69499999E-02   1.83168368E-12
  -2.69000009E-02   1.85215927E-12
  -2.68500000E-02   1.91116979E-12
  -2.67999992E-02   1.99916299E-12
  -2.67500002E-02   2.08787675E-12
  -2.66999993E-02   2.14192834E-12
  -2.66500004E-02   2.13410192E-12
  -2.65999995E-02   2.05758609E-12
  -2.65500005E-02   1.92951991E-12
  -2.64999997E-02   1.78389551E-12
  -2.64500007E-02   1.65660042E-12
  -2.63999999E-02   1.56903082E-12
  -2.63500009E-02   1.51761622E-12
  -2.63000000E-02   1.47421929E-12
  -2.62499992E-02   1.39766974E-12
  -2.62000002E-02   1.25167639E-12
  -2.61499994E-02   1.02130338E-12
  -2.61000004E-02   7.20532412E-13
  -2.60499995E-02   3.87158811E-13
  -2.60000005E-02   6.68287786E-14
  -2.59499997E-02  -2.07015056E-13
  -2.59000007E-02  -4.28408150E-13
  -2.58499999E-02  -6.22298870E-13
  -2.58000009E-02  -8.34144982E-13
  -2.57500000E-02  -1.10982566E-12
  -2.56999992E-02  -1.47453816E-12
  -2.56500002E-02  -1.92013549E-12
  -2.55999994E-02  -2.40691343E-12
  -2.55500004E-02  -2.87958503E-12
  -2.54999995E-02  -3.29079060E-12
  -2.54500005E-02  -3.62184436E-12
  -2.53999997E-02  -3.89129701E-12
  -2.53500007E-02  -4.14701043E-12
  -2.52999999E-02  -4.44470545E-12
  -2.52500009E-02  -4.82212664E-12
  -2.52000000E-02  -5.28027665E-12
  -2.51499992E-02  -5.78040523E-12
  -2.51000002E-02  -6.25867847E-12
  -2.50499994E-02  -6.65257476E-12
  -2.50000004E-02  -6.92757050E-12
  -2.49499995E-02  -7.09215976E-12
  -2.49000005E-02  -7.19404224E-12
  -2.48499997E-02  -7.29854718E-12
  -2.48000007E-02  -7.45835858E-12
  -2.47499999E-02  -7.68784255E-12
  -2.47000009E-02  -7.95367158E-12
  -2.46500000E-02  -8.18652784E-12
  -2.45999992E-02  -8.30935928E-12
  -2.45500002E-02  -8.27009902E-12
  -2.44999994E-02  -8.06430877E-12
  -2.44500004E-02  -7.73725355E-12
  -2.43999995E-02  -7.36378233E-12
  -2.43500005E-02  -7.01429930E-12
  -2.42999997E-02  -6.72163800E-12
  -2.42500007E-02  -6.46373536E-12
  -2.41999999E-02  -6.17042311E-12
  -2.41500009E-02  -5.75210105E-12
  -2.41000000E-02  -5.13818198E-12
  -2.40499992E-02  -4.30838178E-12
  -2.40000002E-02  -3.30262749E-12
  -2.39499994E-02  -2.20443152E-12
  -2.39000004E-02  -1.10435814E-12
  -2.38499995E-02  -5.93190522E-14
  -2.38000005E-02   9.34162578E-13
  -2.37499997E-02   1.94027845E-12
  -2.37000007E-02   3.05684601E-12
  -2.36499999E-02   4.37206608E-12
  -2.36000009E-02   5.92398569E-12
  -2.35500000E-02   7.68091233E-12
  -2.34999992E-02   9.55220365E-12
  -2.34500002E-02   1.14255289E-11
  -2.33999994E-02   1.32147331E-11
  -2.33500004E-02   1.48971582E-11
  -2.32999995E-02   1.65233886E-11
  -2.32500006E-02   1.81942031E-11
  -2.31999997E-02   2.00140720E-11
  -2.31500007E-02   2.20412907E-11
  -2.30999999E-02   2.42570269E-11
  -2.30500009E-02   2.65676647E-11
  -2.30000000E-02   2.88403728E-11
  -2.29499992E-02   3.09569835E-11
  -2.29000002E-02   3.28625079E-11
  -2.28499994E-02   3.45865003E-11
  -2.28000004E-02   3.62268167E-11
  -2.27499995E-02   3.79020391E-11
  -2.27000006E-02   3.96929607E-11
  -2.26499997E-02   4.15989916E-11
  -2.26000007E-02   4.35295203E-11
  -2.25499999E-02   4.53349545E-11
  -2.25000009E-02   4.68648800E-11
  -2.24500000E-02   4.80278421E-11
  -2.23999992E-02   4.88261653E-11
  -2.23500002E-02   4.93496147E-11
  -2.22999994E-02   4.97294636E-11
  -2.22500004E-02   5.00726023E-11
  -2.21999995E-02   5.04045868E-11
  -2.21500006E-02   5.06473648E-11
  -2.20999997E-02   5.06426290E-11
  -2.20500007E-02   5.02114877E-11
  -2.19999999E-02   4.92248221E-11
  -2.19500009E-02   4.76530690E-11
  -2.19000001E-02   4.55727019E-11
  -2.18499992E-02   4.31253852E-11
  -2.18000002E-02   4.04468993E-11
  -2.17499994E-02   3.75968284E-11
  -2.17000004E-02   3.45205496E-11
  -2.16499995E-02   3.10613063E-11
  -2.16000006E-02   2.70182574E-11
  -2.15499997E-02   2.22256848E-11
  -2.15000007E-02   1.66185486E-11
  -2.14499999E-02   1.02547337E-11
  -2.14000009E-02   3.28305959E-12
  -2.13500001E-02  -4.12995940E-12
  -2.12999992E-02  -1.18827838E-11
  -2.12500002E-02  -1.99942701E-11
  -2.11999994E-02  -2.86063881E-11
  -2.11500004E-02  -3.79318313E-11
  -2.10999995E-02  -4.81686011E-11
  -2.10500006E-02  -5.94189906E-11
  -2.09999997E-02  -7.16492629E-11
  -2.09500007E-02  -8.47088233E-11
  -2.08999999E-02  -9.84018075E-11
  -2.08500009E-02  -1.12580140E-10
  -2.08000001E-02  -1.27217029E-10
  -2.07499992E-02  -1.42427611E-10
  -2.07000002E-02  -1.58426494E-10
  -2.06499994E-02  -1.75439607E-10
  -2.06000004E-02  -1.93608934E-10
  -2.05499995E-02  -2.12932214E-10
  -2.05000006E-02  -2.33265657E-10
  -2.04499997E-02  -2.54389315E-10
  -2.04000007E-02  -2.76107526E-10
  -2.03499999E-02  -2.98340269E-10
  -2.03000009E-02  -3.21164373E-10
  -2.02500001E-02  -3.44785533E-10
  -2.01999992E-02  -3.69451664E-10
  -2.01500002E-02  -3.95345978E-10
  -2.00999994E-02  -4.22506086E-10
  -2.00500004E-02  -4.50806420E-10
  -1.99999996E-02  -4.80013085E-10
  -1.99500006E-02  -5.09887077E-10
  -1.98999997E-02  -5.40292422E-10
  -1.98500007E-02  -5.71259928E-10
  -1.97999999E-02  -6.02977390E-10
  -1.97500009E-02  -6.35710318E-10
  -1.97000001E-02  -6.69686029E-10
  -1.96499992E-02  -7.04993230E-10
  -1.96000002E-02  -7.41540662E-10
  -1.95499994E-02  -7.79096065E-10
  -1.95000004E-02  -8.17388157E-10
  -1.94499996E-02  -8.56227866E-10
  -1.94000006E-02  -8.95595209E-10
  -1.93499997E-02  -9.35652222E-10
  -1.93000007E-02  -9.76676628E-10
  -1.92499999E-02  -1.01894104E-09
  -1.92000009E-02  -1.06259490E-09
  -1.91500001E-02  -1.10759868E-09
  -1.90999992E-02  -1.15374099E-09
  -1.90500002E-02  -1.20073429E-09
  -1.89999994E-02  -1.24834487E-09
  -1.89500004E-02  -1.29650257E-09
  -1.88999996E-02  -1.34533951E-09
  -1.88500006E-02  -1.39513967E-09
  -1.87999997E-02  -1.44622236E-09
  -1.87500007E-02  -1.49880808E-09
  -1.86999999E-02  -1.55292612E-09
  -1.86500009E-02  -1.60840841E-09
  -1.86000001E-02  -1.66497083E-09
  -1.85499992E-02  -1.72234726E-09
  -1.85000002E-02  -1.78042037E-09
  -1.84499994E-02  -1.83928672E-09
  -1.84000004E-02  -1.89923033E-09
  -1.83499996E-02  -1.96061234E-09
  -1.83000006E-02  -2.02372830E-09
  -1.82499997E-02  -2.08869011E-09
  -1.82000007E-02  -2.15539275E-09
  -1.81499999E-02  -2.22357466E-09
  -1.81000009E-02  -2.29295161E-09
  -1.80500001E-02  -2.36336262E-09
  -1.79999992E-02  -2.43486342E-09
  -1.79500002E-02  -2.50772692E-09
  -1.78999994E-02  -2.58235011E-09
  -1.78500004E-02  -2.65910161E-09
  -1.77999996E-02  -2.73818657E-09
  -1.77500006E-02  -2.81957946E-09
  -1.76999997E-02  -2.90306157E-09
  -1.76500008E-02  -2.98834446E-09
  -1.75999999E-02  -3.07522896E-09
  -1.75500009E-02  -3.16372373E-09
  -1.75000001E-02  -3.25407878E-09
  -1.74499992E-02  -3.34670913E-09
  -1.74000002E-02  -3.44204953E-09
  -1.73499994E-02  -3.54039753E-09
  -1.73000004E-02  -3.64181862E-09
  -1.72499996E-02  -3.74615228E-09
  -1.72000006E-02  -3.85312182E-09
  -1.71499997E-02  -3.96249700E-09
  -1.71000008E-02  -4.07423517E-09
  -1.70499999E-02  -4.18854773E-09
  -1.70000009E-02  -4.30585123E-09
  -1.69500001E-02  -4.42663151E-09
  -1.68999992E-02  -4.55127580E-09
  -1.68500002E-02  -4.67994576E-09
  -1.67999994E-02  -4.81255702E-09
  -1.67500004E-02  -4.94885777E-09
  -1.66999996E-02  -5.08859443E-09
  -1.66500006E-02  -5.23167065E-09
  -1.65999997E-02  -5.37824674E-09
  -1.65500008E-02  -5.52871970E-09
  -1.64999999E-02  -5.68360914E-09
  -1.64500009E-02  -5.84337823E-09
  -1.64000001E-02  -6.00828987E-09
  -1.63499992E-02  -6.17834095E-09
  -1.63000003E-02  -6.35332187E-09
  -1.62499994E-02  -6.53296750E-09
  -1.62000004E-02  -6.71712952E-09
  -1.61499996E-02  -6.90590563E-09
  -1.61000006E-02  -7.09965686E-09
  -1.60499997E-02  -7.29891303E-09
  -1.60000008E-02  -7.50420703E-09
  -1.59499999E-02  -7.71589548E-09
  -1.59000009E-02  -7.93407295E-09
  -1.58500001E-02  -8.15858936E-09
  -1.57999992E-02  -8.38918535E-09
  -1.57500003E-02  -8.62567084E-09
  -1.56999994E-02  -8.86807605E-09
  -1.56500004E-02  -9.11671183E-09
  -1.55999996E-02  -9.37210043E-09
  -1.55499997E-02  -9.63482272E-09
  -1.54999997E-02  -9.90533167E-09
  -1.54499998E-02  -1.01838253E-08
  -1.53999999E-02  -1.04702345E-08
  -1.53500000E-02  -1.07643254E-08
  -1.53000001E-02  -1.10658789E-08
  -1.52500002E-02  -1.13748664E-08
  -1.52000003E-02  -1.16915366E-08
  -1.51500003E-02  -1.20163923E-08
  -1.51000004E-02  -1.23500490E-08
  -1.50499996E-02  -1.26930511E-08
  -1.49999997E-02  -1.30457094E-08
  -1.49499997E-02  -1.34080569E-08
  -1.48999998E-02  -1.37799177E-08
  -1.48499999E-02  -1.41610697E-08
  -1.48000000E-02  -1.45514383E-08
  -1.47500001E-02  -1.49512136E-08
  -1.47000002E-02  -1.53608717E-08
  -1.46500003E-02  -1.57810529E-08
  -1.46000003E-02  -1.62123825E-08
  -1.45500004E-02  -1.66552994E-08
  -1.44999996E-02  -1.71099526E-08
  -1.44499997E-02  -1.75762516E-08
  -1.43999998E-02  -1.80540063E-08
  -1.43499998E-02  -1.85431137E-08
  -1.42999999E-02  -1.90437230E-08
  -1.42500000E-02  -1.95562730E-08
  -1.42000001E-02  -2.00814245E-08
  -1.41500002E-02  -2.06198827E-08
  -1.41000003E-02  -2.11722142E-08
  -1.40500003E-02  -2.17387104E-08
  -1.40000004E-02  -2.23194050E-08
  -1.39499996E-02  -2.29141719E-08
  -1.38999997E-02  -2.35229169E-08
  -1.38499998E-02  -2.41457556E-08
  -1.37999998E-02  -2.47831089E-08
  -1.37499999E-02  -2.54356447E-08
  -1.37000000E-02  -2.61041322E-08
  -1.36500001E-02  -2.67892695E-08
  -1.36000002E-02  -2.74915113E-08
  -1.35500003E-02  -2.82110371E-08
  -1.35000004E-02  -2.89478308E-08
  -1.34500004E-02  -2.97018374E-08
  -1.33999996E-02  -3.04731707E-08
  -1.33499997E-02  -3.12622070E-08
  -1.32999998E-02  -3.20696216E-08
  -1.32499998E-02  -3.28962599E-08
  -1.31999999E-02  -3.37429427E-08
  -1.31500000E-02  -3.46102951E-08
  -1.31000001E-02  -3.54986724E-08
  -1.30500002E-02  -3.64081814E-08
  -1.30000003E-02  -3.73388396E-08
  -1.29500004E-02  -3.82907892E-08
  -1.29000004E-02  -3.92644068E-08
  -1.28499996E-02  -4.02603604E-08
  -1.27999997E-02  -4.12795416E-08
  -1.27499998E-02  -4.23228776E-08
  -1.26999998E-02  -4.33911680E-08
  -1.26499999E-02  -4.44849420E-08
  -1.26000000E-02  -4.56044873E-08
  -1.25500001E-02  -4.67499319E-08
  -1.25000002E-02  -4.79214428E-08
  -1.24500003E-02  -4.91194072E-08
  -1.24000004E-02  -5.03444930E-08
  -1.23500004E-02  -5.15976311E-08
  -1.22999996E-02  -5.28798587E-08
  -1.22499997E-02  -5.41921281E-08
  -1.21999998E-02  -5.55351782E-08
  -1.21499998E-02  -5.69094603E-08
  -1.20999999E-02  -5.83152513E-08
  -1.20500000E-02  -5.97528000E-08
  -1.20000001E-02  -6.12224866E-08
  -1.19500002E-02  -6.27250003E-08
  -1.19000003E-02  -6.42612790E-08
  -1.18500004E-02  -6.58324382E-08
  -1.18000004E-02  -6.74395721E-08
  -1.17499996E-02  -6.90836188E-08
  -1.16999997E-02  -7.07652248E-08
  -1.16499998E-02  -7.24848519E-08
  -1.15999999E-02  -7.42428341E-08
  -1.15499999E-02  -7.60396333E-08
  -1.15000000E-02  -7.78759031E-08
  -1.14500001E-02  -7.97526027E-08
  -1.14000002E-02  -8.16709047E-08
  -1.13500003E-02  -8.36320595E-08
  -1.13000004E-02  -8.56371827E-08
  -1.12500004E-02  -8.76871482E-08
  -1.11999996E-02  -8.97825458E-08
  -1.11499997E-02  -9.19238587E-08
  -1.10999998E-02  -9.41115772E-08
  -1.10499999E-02  -9.63463549E-08
  -1.09999999E-02  -9.86291866E-08
  -1.09500000E-02  -1.00961280E-07
  -1.09000001E-02  -1.03343993E-07
  -1.08500002E-02  -1.05778589E-07
  -1.08000003E-02  -1.08266136E-07
  -1.07500004E-02  -1.10807463E-07
  -1.07000005E-02  -1.13403246E-07
  -1.06499996E-02  -1.16054053E-07
  -1.05999997E-02  -1.18760596E-07
  -1.05499998E-02  -1.21523868E-07
  -1.04999999E-02  -1.24345092E-07
  -1.04499999E-02  -1.27225704E-07
  -1.04000000E-02  -1.30167138E-07
  -1.03500001E-02  -1.33170630E-07
  -1.03000002E-02  -1.36237261E-07
  -1.02500003E-02  -1.39367799E-07
  -1.02000004E-02  -1.42562939E-07
  -1.01500005E-02  -1.45823407E-07
  -1.00999996E-02  -1.49150196E-07
  -1.00499997E-02  -1.52544558E-07
  -9.99999978E-03  -1.56007971E-07
  -9.94999986E-03  -1.59542040E-07
  -9.89999995E-03  -1.63148187E-07
  -9.85000003E-03  -1.66827647E-07
  -9.80000012E-03  -1.70581458E-07
  -9.75000020E-03  -1.74410431E-07
  -9.70000029E-03  -1.78315375E-07
  -9.65000037E-03  -1.82297299E-07
  -9.60000046E-03  -1.86357511E-07
  -9.54999961E-03  -1.90497559E-07
  -9.49999969E-03  -1.94719092E-07
  -9.44999978E-03  -1.99023759E-07
  -9.39999986E-03  -2.03413038E-07
  -9.34999995E-03  -2.07888078E-07
  -9.30000003E-03  -2.12449947E-07
  -9.25000012E-03  -2.17099497E-07
  -9.20000020E-03  -2.21837794E-07
  -9.15000029E-03  -2.26666018E-07
  -9.10000037E-03  -2.31585759E-07
  -9.05000046E-03  -2.36598694E-07
  -8.99999961E-03  -2.41706601E-07
  -8.94999970E-03  -2.46911270E-07
  -8.89999978E-03  -2.52213994E-07
  -8.84999987E-03  -2.57616023E-07
  -8.79999995E-03  -2.63118238E-07
  -8.75000004E-03  -2.68721777E-07
  -8.70000012E-03  -2.74427833E-07
  -8.65000021E-03  -2.80238055E-07
  -8.60000029E-03  -2.86154091E-07
  -8.55000038E-03  -2.92177987E-07
  -8.50000046E-03  -2.98311647E-07
  -8.44999962E-03  -3.04556607E-07
  -8.39999970E-03  -3.10914260E-07
  -8.34999979E-03  -3.17385684E-07
  -8.29999987E-03  -3.23972017E-07
  -8.24999996E-03  -3.30674510E-07
  -8.20000004E-03  -3.37494697E-07
  -8.15000013E-03  -3.44434426E-07
  -8.10000021E-03  -3.51495657E-07
  -8.05000030E-03  -3.58680325E-07
  -8.00000038E-03  -3.65990218E-07
  -7.95000046E-03  -3.73426900E-07
  -7.89999962E-03  -3.80991594E-07
  -7.84999970E-03  -3.88685379E-07
  -7.79999979E-03  -3.96509563E-07
  -7.74999987E-03  -4.04465681E-07
  -7.69999996E-03  -4.12555437E-07
  -7.65000004E-03  -4.20780850E-07
  -7.60000013E-03  -4.29143938E-07
  -7.55000021E-03  -4.37646804E-07
  -7.49999983E-03  -4.46290898E-07
  -7.44999992E-03  -4.55077839E-07
  -7.40000000E-03  -4.64008821E-07
  -7.35000009E-03  -4.73085038E-07
  -7.30000017E-03  -4.82307939E-07
  -7.24999979E-03  -4.91679316E-07
  -7.19999988E-03  -5.01200986E-07
  -7.14999996E-03  -5.10875225E-07
  -7.10000005E-03  -5.20704134E-07
  -7.05000013E-03  -5.30689590E-07
  -7.00000022E-03  -5.40833128E-07
  -6.94999984E-03  -5.51136111E-07
  -6.89999992E-03  -5.61599393E-07
  -6.85000001E-03  -5.72224565E-07
  -6.80000009E-03  -5.83013104E-07
  -6.75000018E-03  -5.93966888E-07
  -6.69999979E-03  -6.05087962E-07
  -6.64999988E-03  -6.16378770E-07
  -6.59999996E-03  -6.27841018E-07
  -6.55000005E-03  -6.39476411E-07
  -6.50000013E-03  -6.51286484E-07
  -6.45000022E-03  -6.63272090E-07
  -6.39999984E-03  -6.75434535E-07
  -6.34999992E-03  -6.87775412E-07
  -6.30000001E-03  -7.00296368E-07
  -6.25000009E-03  -7.12999508E-07
  -6.20000018E-03  -7.25887048E-07
  -6.14999980E-03  -7.38960921E-07
  -6.09999988E-03  -7.52223059E-07
  -6.04999997E-03  -7.65674656E-07
  -6.00000005E-03  -7.79317020E-07
  -5.95000014E-03  -7.93151116E-07
  -5.90000022E-03  -8.07178196E-07
  -5.84999984E-03  -8.21399908E-07
  -5.79999993E-03  -8.35818241E-07
  -5.75000001E-03  -8.50435015E-07
  -5.70000010E-03  -8.65252275E-07
  -5.65000018E-03  -8.80272012E-07
  -5.59999980E-03  -8.95495475E-07
  -5.54999989E-03  -9.10923745E-07
  -5.49999997E-03  -9.26557675E-07
  -5.45000006E-03  -9.42398117E-07
  -5.40000014E-03  -9.58446435E-07
  -5.35000023E-03  -9.74704108E-07
  -5.29999984E-03  -9.91173465E-07
  -5.24999993E-03  -1.00785644E-06
  -5.20000001E-03  -1.02475485E-06
  -5.15000010E-03  -1.04186995E-06
  -5.10000018E-03  -1.05920230E-06
  -5.04999980E-03  -1.07675294E-06
  -4.99999989E-03  -1.09452230E-06
  -4.94999997E-03  -1.11251154E-06
  -4.90000006E-03  -1.13072201E-06
  -4.85000014E-03  -1.14915554E-06
  -4.80000023E-03  -1.16781405E-06
  -4.74999985E-03  -1.18669902E-06
  -4.69999993E-03  -1.20581137E-06
  -4.65000002E-03  -1.22515200E-06
  -4.60000010E-03  -1.24472115E-06
  -4.55000019E-03  -1.26451880E-06
  -4.49999981E-03  -1.28454587E-06
  -4.44999989E-03  -1.30480328E-06
  -4.39999998E-03  -1.32529226E-06
  -4.35000006E-03  -1.34601453E-06
  -4.30000015E-03  -1.36697156E-06
  -4.25000023E-03  -1.38816381E-06
  -4.19999985E-03  -1.40959185E-06
  -4.14999994E-03  -1.43125533E-06
  -4.10000002E-03  -1.45315425E-06
  -4.05000011E-03  -1.47528863E-06
  -4.00000019E-03  -1.49765913E-06
  -3.94999981E-03  -1.52026610E-06
  -3.89999989E-03  -1.54311113E-06
  -3.84999998E-03  -1.56619512E-06
  -3.80000006E-03  -1.58951900E-06
  -3.74999992E-03  -1.61308230E-06
  -3.70000000E-03  -1.63688435E-06
  -3.65000009E-03  -1.66092377E-06
  -3.59999994E-03  -1.68520057E-06
  -3.55000002E-03  -1.70971418E-06
  -3.50000011E-03  -1.73446529E-06
  -3.44999996E-03  -1.75945445E-06
  -3.40000005E-03  -1.78468213E-06
  -3.34999990E-03  -1.81014832E-06
  -3.29999998E-03  -1.83585223E-06
  -3.25000007E-03  -1.86179204E-06
  -3.19999992E-03  -1.88796594E-06
  -3.15000000E-03  -1.91437266E-06
  -3.10000009E-03  -1.94101085E-06
  -3.04999994E-03  -1.96788051E-06
  -3.00000003E-03  -1.99498209E-06
  -2.95000011E-03  -2.02231581E-06
  -2.89999996E-03  -2.04988032E-06
  -2.85000005E-03  -2.07767425E-06
  -2.79999990E-03  -2.10569442E-06
  -2.74999999E-03  -2.13393878E-06
  -2.70000007E-03  -2.16240392E-06
  -2.64999992E-03  -2.19108824E-06
  -2.60000001E-03  -2.21999130E-06
  -2.55000009E-03  -2.24911196E-06
  -2.49999994E-03  -2.27844953E-06
  -2.45000003E-03  -2.30800242E-06
  -2.40000011E-03  -2.33776814E-06
  -2.34999997E-03  -2.36774326E-06
  -2.30000005E-03  -2.39792371E-06
  -2.24999990E-03  -2.42830538E-06
  -2.19999999E-03  -2.45888486E-06
  -2.15000007E-03  -2.48966012E-06
  -2.09999993E-03  -2.52062978E-06
  -2.05000001E-03  -2.55179202E-06
  -2.00000009E-03  -2.58314412E-06
  -1.94999995E-03  -2.61468267E-06
  -1.90000003E-03  -2.64640266E-06
  -1.85000000E-03  -2.67829864E-06
  -1.79999997E-03  -2.71036583E-06
  -1.75000005E-03  -2.74259969E-06
  -1.70000002E-03  -2.77499726E-06
  -1.64999999E-03  -2.80755489E-06
  -1.59999996E-03  -2.84026987E-06
  -1.55000004E-03  -2.87313833E-06
  -1.50000001E-03  -2.90615571E-06
  -1.44999998E-03  -2.93931612E-06
  -1.39999995E-03  -2.97261249E-06
  -1.35000004E-03  -3.00603847E-06
  -1.30000000E-03  -3.03958791E-06
  -1.24999997E-03  -3.07325581E-06
  -1.20000006E-03  -3.10703717E-06
  -1.15000003E-03  -3.14092767E-06
  -1.09999999E-03  -3.17492322E-06
  -1.04999996E-03  -3.20901677E-06
  -1.00000005E-03  -3.24320285E-06
  -9.50000016E-04  -3.27747239E-06
  -8.99999985E-04  -3.31181695E-06
  -8.50000011E-04  -3.34622746E-06
  -7.99999980E-04  -3.38069731E-06
  -7.50000007E-04  -3.41522059E-06
  -6.99999975E-04  -3.44979162E-06
  -6.50000002E-04  -3.48440471E-06
  -6.00000028E-04  -3.51905283E-06
  -5.49999997E-04  -3.55372686E-06
  -5.00000024E-04  -3.58841862E-06
  -4.49999992E-04  -3.62311607E-06
  -3.99999990E-04  -3.65781034E-06
  -3.49999988E-04  -3.69248937E-06
  -3.00000014E-04  -3.72714680E-06
  -2.50000012E-04  -3.76177422E-06
  -1.99999995E-04  -3.79636617E-06
  -1.50000007E-04  -3.83091447E-06
  -9.99999975E-05  -3.86540842E-06
  -4.99999987E-05  -3.89983688E-06
   0.00000000      -3.93418668E-06
   4.99999987E-05  -3.96844507E-06
   9.99999975E-05  -4.00260160E-06
   1.50000007E-04  -4.03664671E-06
   1.99999995E-04  -4.07056996E-06
   2.50000012E-04  -4.10436314E-06
   3.00000014E-04  -4.13801672E-06
   3.49999988E-04  -4.17151796E-06
   3.99999990E-04  -4.20485549E-06
   4.49999992E-04  -4.23801384E-06
   5.00000024E-04  -4.27097893E-06
   5.49999997E-04  -4.30373711E-06
   6.00000028E-04  -4.33627611E-06
   6.50000002E-04  -4.36858454E-06
   6.99999975E-04  -4.40065151E-06
   7.50000007E-04  -4.43246563E-06
   7.99999980E-04  -4.46401418E-06
   8.50000011E-04  -4.49528261E-06
   8.99999985E-04  -4.52625500E-06
   9.50000016E-04  -4.55691452E-06
   1.00000005E-03  -4.58724526E-06
   1.04999996E-03  -4.61723175E-06
   1.09999999E-03  -4.64686127E-06
   1.15000003E-03  -4.67612108E-06
   1.20000006E-03  -4.70499799E-06
   1.24999997E-03  -4.73347927E-06
   1.30000000E-03  -4.76154673E-06
   1.35000004E-03  -4.78918355E-06
   1.39999995E-03  -4.81636835E-06
   1.44999998E-03  -4.84308475E-06
   1.50000001E-03  -4.86931549E-06
   1.55000004E-03  -4.89504600E-06
   1.59999996E-03  -4.92026084E-06
   1.64999999E-03  -4.94494634E-06
   1.70000002E-03  -4.96908660E-06
   1.75000005E-03  -4.99266116E-06
   1.79999997E-03  -5.01565273E-06
   1.85000000E-03  -5.03803949E-06
   1.90000003E-03  -5.05980142E-06
   1.94999995E-03  -5.08091807E-06
   2.00000009E-03  -5.10137215E-06
   2.05000001E-03  -5.12114821E-06
   2.09999993E-03  -5.14023077E-06
   2.15000007E-03  -5.15860074E-06
   2.19999999E-03  -5.17623948E-06
   2.24999990E-03  -5.19312471E-06
   2.30000005E-03  -5.20923459E-06
   2.34999997E-03  -5.22454457E-06
   2.40000011E-03  -5.23903464E-06
   2.45000003E-03  -5.25268615E-06
   2.49999994E-03  -5.26548092E-06
   2.55000009E-03  -5.27740031E-06
   2.60000001E-03  -5.28842520E-06
   2.64999992E-03  -5.29853605E-06
   2.70000007E-03  -5.30770740E-06
   2.74999999E-03  -5.31591513E-06
   2.79999990E-03  -5.32313425E-06