  -3.99999991E-02   0.00000000    
  -3.99499983E-02   0.00000000    
  -3.99000011E-02  -9.60194055E-13
  -3.98500003E-02  -4.65990267E-12
  -3.97999994E-02  -1.10414507E-11
  -3.97499986E-02  -1.76533024E-11
  -3.97000015E-02  -2.34494663E-11
  -3.96500006E-02  -3.18879749E-11
  -3.95999998E-02  -4.74483335E-11
  -3.95499989E-02  -6.86312951E-11
  -3.95000018E-02  -8.73820391E-11
  -3.94500010E-02  -9.82059781E-11
  -3.94000001E-02  -1.06681761E-10
  -3.93499993E-02  -1.25154803E-10
  -3.92999984E-02  -1.58532687E-10
  -3.92500013E-02  -1.97292196E-10
  -3.92000005E-02  -2.28116637E-10
  -3.91499996E-02  -2.50739624E-10
  -3.90999988E-02  -2.79877010E-10
  -3.90500017E-02  -3.28147454E-10
  -3.90000008E-02  -3.90153271E-10
  -3.89500000E-02  -4.48145271E-10
  -3.88999991E-02  -4.93296237E-10
  -3.88499983E-02  -5.35908484E-10
  -3.88000011E-02  -5.90619720E-10
  -3.87500003E-02  -6.54826304E-10
  -3.86999995E-02  -7.09230730E-10
  -3.86499986E-02  -7.42518269E-10
  -3.86000015E-02  -7.69752317E-10
  -3.85500006E-02  -8.18413448E-10
  -3.84999998E-02  -8.95077068E-10
  -3.84499989E-02  -9.72130154E-10
  -3.84000018E-02  -1.01266184E-09
  -3.83500010E-02  -1.00616659E-09
  -3.83000001E-02  -9.73738534E-10
  -3.82499993E-02  -9.37940059E-10
  -3.81999984E-02  -8.95602315E-10
  -3.81500013E-02  -8.27525826E-10
  -3.81000005E-02  -7.31428584E-10
  -3.80499996E-02  -6.33097408E-10
  -3.79999988E-02  -5.56903745E-10
  -3.79500017E-02  -4.89750351E-10
  -3.79000008E-02  -3.85206395E-10
  -3.78500000E-02  -2.07938805E-10
  -3.77999991E-02   3.19696943E-11
  -3.77499983E-02   2.95827224E-10
  -3.77000012E-02   5.64631730E-10
  -3.76500003E-02   8.60862659E-10
  -3.75999995E-02   1.21795629E-09
  -3.75499986E-02   1.63625902E-09
  -3.75000015E-02   2.08165440E-09
  -3.74500006E-02   2.53022470E-09
  -3.73999998E-02   3.00361380E-09
  -3.73499990E-02   3.54876883E-09
  -3.73000018E-02   4.18302326E-09
  -3.72500010E-02   4.86866947E-09
  -3.72000001E-02   5.54613555E-09
  -3.71499993E-02   6.18401597E-09
  -3.70999984E-02   6.78553569E-09
  -3.70500013E-02   7.34877581E-09
  -3.70000005E-02   7.83998466E-09
  -3.69499996E-02   8.22584845E-09
  -3.68999988E-02   8.53429949E-09
  -3.68500017E-02   8.86773588E-09
  -3.68000008E-02   9.33763022E-09
  -3.67500000E-02   9.97664973E-09
  -3.66999991E-02   1.07118483E-08
  -3.66499983E-02   1.14180247E-08
  -3.66000012E-02   1.19900925E-08
  -3.65500003E-02   1.23692470E-08
  -3.64999995E-02   1.25265656E-08
  -3.64499986E-02   1.24576616E-08
  -3.64000015E-02   1.22100356E-08
  -3.63500006E-02   1.18958008E-08
  -3.62999998E-02   1.16341310E-08
  -3.62499990E-02   1.14445484E-08
  -3.62000018E-02   1.11880407E-08
  -3.61500010E-02   1.06305862E-08
  -3.61000001E-02   9.59407132E-09
  -3.60499993E-02   8.07697376E-09
  -3.59999985E-02   6.25735552E-09
  -3.59500013E-02   4.39527925E-09
  -3.59000005E-02   2.71802425E-09
  -3.58499996E-02   1.34394584E-09
  -3.57999988E-02   2.38793652E-10
  -3.57500017E-02  -8.09474099E-10
  -3.57000008E-02  -2.16316609E-09
  -3.56500000E-02  -4.20427648E-09
  -3.55999991E-02  -7.12443438E-09
  -3.55499983E-02  -1.07622231E-08
  -3.55000012E-02  -1.46274548E-08
  -3.54500003E-02  -1.81325888E-08
  -3.53999995E-02  -2.08968842E-08
  -3.53499986E-02  -2.29393819E-08
  -3.53000015E-02  -2.46646294E-08
  -3.52500007E-02  -2.66783058E-08
  -3.51999998E-02  -2.95347800E-08
  -3.51499990E-02  -3.35010633E-08
  -3.51000018E-02  -3.83970082E-08
  -3.50500010E-02  -4.35809895E-08
  -3.50000001E-02  -4.81456972E-08
  -3.49499993E-02  -5.13019955E-08
  -3.48999985E-02  -5.27841948E-08
  -3.48500013E-02  -5.30342206E-08
  -3.48000005E-02  -5.30181730E-08
  -3.47499996E-02  -5.37507354E-08
  -3.46999988E-02  -5.57846569E-08
  -3.46500017E-02  -5.89304925E-08
  -3.46000008E-02  -6.23238492E-08
  -3.45500000E-02  -6.47830944E-08
  -3.44999991E-02  -6.53016556E-08
  -3.44499983E-02  -6.34968629E-08
  -3.44000012E-02  -5.98423000E-08
  -3.43500003E-02  -5.55436692E-08
  -3.42999995E-02  -5.20337302E-08
  -3.42499986E-02  -5.02641306E-08
  -3.42000015E-02  -5.01446671E-08
  -3.41500007E-02  -5.04668805E-08
  -3.40999998E-02  -4.94070100E-08
  -3.40499990E-02  -4.53738203E-08
  -3.40000018E-02  -3.77713114E-08
  -3.39500010E-02  -2.73071628E-08
  -3.39000002E-02  -1.57181166E-08
  -3.38499993E-02  -5.04331199E-09
  -3.37999985E-02   3.25783200E-09
  -3.37500013E-02   8.99697117E-09
  -3.37000005E-02   1.34503910E-08
  -3.36499996E-02   1.88942089E-08
  -3.35999988E-02   2.75927565E-08
  -3.35500017E-02   4.06630178E-08
  -3.35000008E-02   5.73900500E-08
  -3.34500000E-02   7.54042659E-08
  -3.33999991E-02   9.16930532E-08
  -3.33499983E-02   1.03966038E-07
  -3.33000012E-02   1.11713405E-07
  -3.32500003E-02   1.16468378E-07
  -3.31999995E-02   1.21170487E-07
  -3.31499986E-02   1.28906663E-07
  -3.31000015E-02   1.41535054E-07
  -3.30500007E-02   1.58749486E-07
  -3.29999998E-02   1.78026497E-07
  -3.29499990E-02   1.95583709E-07
  -3.29000019E-02   2.08017681E-07
  -3.28500010E-02   2.13885443E-07
  -3.28000002E-02   2.14421121E-07
  -3.27499993E-02   2.12966455E-07
  -3.26999985E-02   2.13359414E-07
  -3.26500013E-02   2.18068593E-07
  -3.26000005E-02   2.26964914E-07
  -3.25499997E-02   2.37276481E-07
  -3.24999988E-02   2.44724248E-07
  -3.24500017E-02   2.45357342E-07
  -3.24000008E-02   2.37342874E-07
  -3.23500000E-02   2.21941917E-07
  -3.22999991E-02   2.03153306E-07
  -3.22499983E-02   1.86034811E-07
  -3.22000012E-02   1.74367941E-07
  -3.21500003E-02   1.68773525E-07
  -3.20999995E-02   1.66268322E-07
  -3.20499986E-02   1.61551725E-07
  -3.20000015E-02   1.49424281E-07
  -3.19500007E-02   1.27179476E-07
  -3.18999998E-02   9.58770698E-08
  -3.18499990E-02   5.99700485E-08
  -3.18000019E-02   2.54611390E-08
  -3.17500010E-02  -2.66988609E-09
  -3.17000002E-02  -2.27267130E-08
  -3.16499993E-02  -3.72358215E-08
  -3.15999985E-02  -5.20037950E-08
  -3.15500014E-02  -7.35424734E-08
  -3.15000005E-02  -1.05974557E-07
  -3.14499997E-02  -1.48922823E-07
  -3.13999988E-02  -1.97474193E-07
  -3.13500017E-02  -2.44261827E-07
  -3.13000008E-02  -2.82660068E-07
  -3.12500000E-02  -3.09614705E-07
  -3.11999992E-02  -3.26894138E-07
  -3.11500002E-02  -3.40283151E-07
  -3.10999993E-02  -3.57053125E-07
  -3.10500003E-02  -3.82701415E-07
  -3.09999995E-02  -4.18307991E-07
  -3.09500005E-02  -4.59749970E-07
  -3.08999997E-02  -4.99311568E-07
  -3.08500007E-02  -5.29095587E-07
  -3.07999998E-02  -5.44653233E-07
  -3.07500008E-02  -5.47044579E-07
  -3.07000000E-02  -5.42313956E-07
  -3.06499992E-02  -5.38673362E-07
  -3.06000002E-02  -5.42753980E-07
  -3.05499993E-02  -5.56598536E-07
  -3.05000003E-02  -5.76635898E-07
  -3.04499995E-02  -5.95044071E-07
  -3.04000005E-02  -6.03001808E-07
  -3.03499997E-02  -5.94556354E-07
  -3.03000007E-02  -5.69430881E-07
  -3.02499998E-02  -5.33368848E-07
  -3.02000009E-02  -4.95652216E-07
  -3.01500000E-02  -4.64842884E-07
  -3.00999992E-02  -4.44782643E-07
  -3.00500002E-02  -4.32785356E-07
  -2.99999993E-02  -4.20839086E-07
  -2.99500003E-02  -3.99187854E-07
  -2.98999995E-02  -3.60640058E-07
  -2.98500005E-02  -3.03790927E-07
  -2.97999997E-02  -2.33863076E-07
  -2.97500007E-02  -1.60758432E-07
  -2.96999998E-02  -9.49886285E-08
  -2.96500009E-02  -4.31021192E-08
  -2.96000000E-02  -4.65835148E-09
  -2.95499992E-02   2.77149201E-08
  -2.95000002E-02   6.50463150E-08
  -2.94499993E-02   1.17002386E-07
  -2.94000003E-02   1.87510153E-07
  -2.93499995E-02   2.73009306E-07
  -2.93000005E-02   3.63996520E-07
  -2.92499997E-02   4.49048798E-07
  -2.92000007E-02   5.19566868E-07
  -2.91499998E-02   5.73330794E-07
  -2.91000009E-02   6.15413683E-07
  -2.90500000E-02   6.55965891E-07
  -2.89999992E-02   7.05628565E-07
  -2.89500002E-02   7.70507143E-07
  -2.88999993E-02   8.49061109E-07
  -2.88500004E-02   9.32494686E-07
  -2.87999995E-02   1.00854231E-06
  -2.87500005E-02   1.06684672E-06
  -2.86999997E-02   1.10341375E-06
  -2.86500007E-02   1.12219823E-06
  -2.85999998E-02   1.13326871E-06
  -2.85500009E-02   1.14842226E-06
  -2.85000000E-02   1.17604225E-06
  -2.84499992E-02   1.21726862E-06
  -2.84000002E-02   1.26513896E-06
  -2.83499993E-02   1.30728495E-06
  -2.83000004E-02   1.33122478E-06
  -2.82499995E-02   1.32994444E-06
  -2.82000005E-02   1.30512763E-06
  -2.81499997E-02   1.26642101E-06
  -2.81000007E-02   1.22707036E-06
  -2.80499998E-02   1.19798756E-06
  -2.80000009E-02   1.18290916E-06
  -2.79500000E-02   1.17667412E-06
  -2.78999992E-02   1.16725016E-06
  -2.78500002E-02   1.14068337E-06
  -2.77999993E-02   1.08704705E-06
  -2.77500004E-02   1.00496288E-06
  -2.76999995E-02   9.02650072E-07
  -2.76500005E-02   7.94767402E-07
  -2.75999997E-02   6.96207223E-07
  -2.75500007E-02   6.15602573E-07
  -2.74999999E-02   5.51576647E-07
  -2.74500009E-02   4.93473522E-07
  -2.74000000E-02   4.26177479E-07
  -2.73499992E-02   3.36800554E-07
  -2.73000002E-02   2.20329284E-07
  -2.72499993E-02   8.19634423E-08
  -2.72000004E-02  -6.47578133E-08
  -2.71499995E-02  -2.03396880E-07
  -2.71000005E-02  -3.21507855E-07
  -2.70499997E-02  -4.16064807E-07
  -2.70000007E-02  -4.94897222E-07
  -2.69499999E-02  -5.73204886E-07
  -2.69000009E-02  -6.66570941E-07
  -2.68500000E-02  -7.83684811E-07
  -2.67999992E-02  -9.22145375E-07
  -2.67500002E-02  -1.06926973E-06
  -2.66999993E-02  -1.20743084E-06
  -2.66500004E-02  -1.32148250E-06
  -2.65999995E-02  -1.40512566E-06
  -2.65500005E-02  -1.46357308E-06
  -2.64999997E-02  -1.51133895E-06
  -2.64500007E-02  -1.56585475E-06
  -2.63999999E-02  -1.63944844E-06
  -2.63500009E-02  -1.73322007E-06
  -2.63000000E-02  -1.83581278E-06
  -2.62499992E-02  -1.92798439E-06
  -2.62000002E-02  -1.99104466E-06
  -2.61499994E-02  -2.01526041E-06
  -2.61000004E-02  -2.00431873E-06
  -2.60499995E-02  -1.97386976E-06
  -2.60000005E-02  -1.94487052E-06
  -2.59499997E-02  -1.93461688E-06
  -2.59000007E-02  -1.94919221E-06
  -2.58499999E-02  -1.98048997E-06
  -2.58000009E-02  -2.00925842E-06
  -2.57500000E-02  -2.01321745E-06
  -2.56999992E-02  -1.97696772E-06
  -2.56500002E-02  -1.89922446E-06
  -2.55999994E-02  -1.79383164E-06
  -2.55500004E-02  -1.68383963E-06
  -2.54999995E-02  -1.59128990E-06
  -2.54500005E-02  -1.52748100E-06
  -2.53999997E-02  -1.48811546E-06
  -2.53500007E-02  -1.45535284E-06
  -2.52999999E-02  -1.40574900E-06
  -2.52500009E-02  -1.32066918E-06
  -2.52000000E-02  -1.19485492E-06
  -2.51499992E-02  -1.03942796E-06
  -2.51000002E-02  -8.77768457E-07
  -2.50499994E-02  -7.35685262E-07
  -2.50000004E-02  -6.30048760E-07
  -2.49499995E-02  -5.61203706E-07
  -2.49000005E-02  -5.12940915E-07
  -2.48499997E-02  -4.60167797E-07
  -2.48000007E-02  -3.80640444E-07
  -2.47499999E-02  -2.65280505E-07
  -2.47000009E-02  -1.22462339E-07
  -2.46500000E-02   2.54406345E-08
  -2.45999992E-02   1.51643491E-07
  -2.45500002E-02   2.36564844E-07
  -2.44999994E-02   2.76547695E-07
  -2.44500004E-02   2.85797512E-07
  -2.43999995E-02   2.90189689E-07
  -2.43500005E-02   3.15331476E-07
  -2.42999997E-02   3.74248543E-07
  -2.42500007E-02   4.60639939E-07
  -2.41999999E-02   5.51139578E-07
  -2.41500009E-02   6.15582337E-07
  -2.41000000E-02   6.30431373E-07
  -2.40499992E-02   5.89170668E-07
  -2.40000002E-02   5.05157800E-07
  -2.39499994E-02   4.05851836E-07
  -2.39000004E-02   3.20911141E-07
  -2.38499995E-02   2.69079379E-07
  -2.38000005E-02   2.49490824E-07
  -2.37499997E-02   2.41453989E-07
  -2.37000007E-02   2.13262226E-07
  -2.36499999E-02   1.36453565E-07
  -2.36000009E-02  -1.11686249E-09
  -2.35500000E-02  -1.89676541E-07
  -2.34999992E-02  -4.02060181E-07
  -2.34500002E-02  -6.06066237E-07
  -2.33999994E-02  -7.78802303E-07
  -2.33500004E-02  -9.16564659E-07
  -2.32999995E-02  -1.03610148E-06
  -2.32500006E-02  -1.16702404E-06
  -2.31999997E-02  -1.33856111E-06
  -2.31500007E-02  -1.56624833E-06
  -2.30999999E-02  -1.84450516E-06
  -2.30500009E-02  -2.14867669E-06
  -2.30000000E-02  -2.44602461E-06
  -2.29499992E-02  -2.71077647E-06
  -2.29000002E-02  -2.93593075E-06
  -2.28499994E-02  -3.13613577E-06
  -2.28000004E-02  -3.34041647E-06
  -2.27499995E-02  -3.57832778E-06
  -2.27000006E-02  -3.86619104E-06
  -2.26499997E-02  -4.19953449E-06
  -2.26000007E-02  -4.55476811E-06
  -2.25499999E-02  -4.89929289E-06
  -2.25000009E-02  -5.20574258E-06
  -2.24500000E-02  -5.46429965E-06
  -2.23999992E-02  -5.68739415E-06
  -2.23500002E-02  -5.90423269E-06
  -2.22999994E-02  -6.14732699E-06
  -2.22500004E-02  -6.43719022E-06
  -2.21999995E-02  -6.77258913E-06
  -2.21500006E-02  -7.13118743E-06
  -2.20999997E-02  -7.47994773E-06
  -2.20500007E-02  -7.79002130E-06
  -2.19999999E-02  -8.04947376E-06
  -2.19500009E-02  -8.26836822E-06
  -2.19000001E-02  -8.47415595E-06
  -2.18499992E-02  -8.69957785E-06
  -2.18000002E-02  -8.96811071E-06
  -2.17499994E-02  -9.28317240E-06
  -2.17000004E-02  -9.62619561E-06
  -2.16499995E-02  -9.96498875E-06
  -2.16000006E-02  -1.02687327E-05
  -2.15499997E-02  -1.05222625E-05
  -2.15000007E-02  -1.07327805E-05
  -2.14499999E-02  -1.09262282E-05
  -2.14000009E-02  -1.11353547E-05
  -2.13500001E-02  -1.13853666E-05
  -2.12999992E-02  -1.16837055E-05
  -2.12500002E-02  -1.20176974E-05
  -2.11999994E-02  -1.23610444E-05
  -2.11500004E-02  -1.26864034E-05
  -2.10999995E-02  -1.29784330E-05
  -2.10500006E-02  -1.32414680E-05
  -2.09999997E-02  -1.34979864E-05
  -2.09500007E-02  -1.37781281E-05
  -2.08999999E-02  -1.41054361E-05
  -2.08500009E-02  -1.44859978E-05
  -2.08000001E-02  -1.49063308E-05
  -2.07499992E-02  -1.53405308E-05
  -2.07000002E-02  -1.57627728E-05
  -2.06499994E-02  -1.61595908E-05
  -2.06000004E-02  -1.65363181E-05
  -2.05499995E-02  -1.69152008E-05
  -2.05000006E-02  -1.73261160E-05
  -2.04499997E-02  -1.77938182E-05
  -2.04000007E-02  -1.83270513E-05
  -2.03499999E-02  -1.89145067E-05
  -2.03000009E-02  -1.95302255E-05
  -2.02500001E-02  -2.01462353E-05
  -2.01999992E-02  -2.07461217E-05
  -2.01500002E-02  -2.13324765E-05
  -2.00999994E-02  -2.19252724E-05
  -2.00500004E-02  -2.25524018E-05
  -1.99999996E-02  -2.32372731E-05
  -1.99500006E-02  -2.39889068E-05
  -1.98999997E-02  -2.47983062E-05
  -1.98500007E-02  -2.56425865E-05
  -1.97999999E-02  -2.64953724E-05
  -1.97500009E-02  -2.73388923E-05
  -1.97000001E-02  -2.81715820E-05
  -1.96499992E-02  -2.90084372E-05
  -1.96000002E-02  -2.98740233E-05
  -1.95499994E-02  -3.07903938E-05
  -1.95000004E-02  -3.17661470E-05
  -1.94499996E-02  -3.27927701E-05
  -1.94000006E-02  -3.38492464E-05
  -1.93499997E-02  -3.49125148E-05
  -1.93000007E-02  -3.59677288E-05
  -1.92499999E-02  -3.70140879E-05
  -1.92000009E-02  -3.80644633E-05
  -1.91500001E-02  -3.91391695E-05
  -1.90999992E-02  -4.02562910E-05
  -1.90500002E-02  -4.14226088E-05
  -1.89999994E-02  -4.26300794E-05
  -1.89500004E-02  -4.38582974E-05
  -1.88999996E-02  -4.50841289E-05
  -1.88500006E-02  -4.62934840E-05
  -1.87999997E-02  -4.74878361E-05
  -1.87500007E-02  -4.86823301E-05
  -1.86999999E-02  -4.98979098E-05
  -1.86500009E-02  -5.11509534E-05
  -1.86000001E-02  -5.24452880E-05
  -1.85499992E-02  -5.37711931E-05
  -1.85000002E-02  -5.51091216E-05
  -1.84499994E-02  -5.64373222E-05
  -1.84000004E-02  -5.77409955E-05
  -1.83499996E-02  -5.90197451E-05
  -1.83000006E-02  -6.02890650E-05
  -1.82499997E-02  -6.15728350E-05
  -1.82000007E-02  -6.28922571E-05
  -1.81499999E-02  -6.42560408E-05
  -1.81000009E-02  -6.56564371E-05
  -1.80500001E-02  -6.70748341E-05
  -1.79999992E-02  -6.84913030E-05
  -1.79500002E-02  -6.98929362E-05
  -1.78999994E-02  -7.12789406E-05
  -1.78500004E-02  -7.26602739E-05
  -1.77999996E-02  -7.40556134E-05
  -1.77500006E-02  -7.54843131E-05
  -1.76999997E-02  -7.69566395E-05
  -1.76500008E-02  -7.84689691E-05
  -1.75999999E-02  -8.00064008E-05
  -1.75500009E-02  -8.15526946E-05
  -1.75000001E-02  -8.31012221E-05
  -1.74499992E-02  -8.46581534E-05
  -1.74000002E-02  -8.62396992E-05
  -1.73499994E-02  -8.78663268E-05
  -1.73000004E-02  -8.95553458E-05
  -1.72499996E-02  -9.13144977E-05
  -1.72000006E-02  -9.31384639E-05
  -1.71499997E-02  -9.50119138E-05
  -1.71000008E-02  -9.69182365E-05
  -1.70499999E-02  -9.88494357E-05
  -1.70000009E-02  -1.00812191E-04
  -1.69500001E-02  -1.02826620E-04
  -1.68999992E-02  -1.04918909E-04
  -1.68500002E-02  -1.07110252E-04
  -1.67999994E-02  -1.09408975E-04
  -1.67500004E-02  -1.11810201E-04
  -1.66999996E-02  -1.14300325E-04
  -1.66500006E-02  -1.16864539E-04
  -1.65999997E-02  -1.19494944E-04
  -1.65500008E-02  -1.22195648E-04
  -1.64999999E-02  -1.24986414E-04
  -1.64500009E-02  -1.27895561E-04
  -1.64000001E-02  -1.30948494E-04
  -1.63499992E-02  -1.34157235E-04
  -1.63000003E-02  -1.37516341E-04
  -1.62499994E-02  -1.41011056E-04
  -1.62000004E-02  -1.44624937E-04
  -1.61499996E-02  -1.48345847E-04
  -1.61000006E-02  -1.52174733E-04
  -1.60499997E-02  -1.56128677E-04
  -1.60000008E-02  -1.60233263E-04
  -1.59499999E-02  -1.64512167E-04
  -1.59000009E-02  -1.68977596E-04
  -1.58500001E-02  -1.73627661E-04
  -1.57999992E-02  -1.78449263E-04
  -1.57500003E-02  -1.83426047E-04
  -1.56999994E-02  -1.88549442E-04
  -1.56500004E-02  -1.93823988E-04
  -1.55999996E-02  -1.99265472E-04
  -1.55499997E-02  -2.04894590E-04
  -1.54999997E-02  -2.10730766E-04
  -1.54499998E-02  -2.16784494E-04
  -1.53999999E-02  -2.23050461E-04
  -1.53500000E-02  -2.29509402E-04
  -1.53000001E-02  -2.36138207E-04
  -1.52500002E-02  -2.42923867E-04
  -1.52000003E-02  -2.49870325E-04
  -1.51500003E-02  -2.56998814E-04
  -1.51000004E-02  -2.64336821E-04
  -1.50499996E-02  -2.71904166E-04
  -1.49999997E-02  -2.79709318E-04
  -1.49499997E-02  -2.87746836E-04
  -1.48999998E-02  -2.95996841E-04
  -1.48499999E-02  -3.04433139E-04
  -1.48000000E-02  -3.13033641E-04
  -1.47500001E-02  -3.21793166E-04
  -1.47000002E-02  -3.30727635E-04
  -1.46500003E-02  -3.39865976E-04
  -1.46000003E-02  -3.49236303E-04
  -1.45500004E-02  -3.58849968E-04
  -1.44999996E-02  -3.68700683E-04
  -1.44499997E-02  -3.78773781E-04
  -1.43999998E-02  -3.89048946E-04
  -1.43499998E-02  -3.99507990E-04
  -1.42999999E-02  -4.10144596E-04
  -1.42500000E-02  -4.20967292E-04
  -1.42000001E-02  -4.31995199E-04
  -1.41500002E-02  -4.43252356E-04
  -1.41000003E-02  -4.54755966E-04
  -1.40500003E-02  -4.66504949E-04
  -1.40000004E-02  -4.78479982E-04
  -1.39499996E-02  -4.90652688E-04
  -1.38999997E-02  -5.03004412E-04
  -1.38499998E-02  -5.15534193E-04
  -1.37999998E-02  -5.28263394E-04
  -1.37499999E-02  -5.41223213E-04
  -1.37000000E-02  -5.54429542E-04
  -1.36500001E-02  -5.67883893E-04
  -1.36000002E-02  -5.81585860E-04
  -1.35500003E-02  -5.95530495E-04
  -1.35000004E-02  -6.09701732E-04
  -1.34500004E-02  -6.24079839E-04
  -1.33999996E-02  -6.38652127E-04
  -1.33499997E-02  -6.53429423E-04
  -1.32999998E-02  -6.68451830E-04
  -1.32499998E-02  -6.83762308E-04
  -1.31999999E-02  -6.99375407E-04
  -1.31500000E-02  -7.15275411E-04
  -1.31000001E-02  -7.31431355E-04
  -1.30500002E-02  -7.47817510E-04
  -1.30000003E-02  -7.64425786E-04
  -1.29500004E-02  -7.81256589E-04
  -1.29000004E-02  -7.98313762E-04
  -1.28499996E-02  -8.15621461E-04
  -1.27999997E-02  -8.33225611E-04
  -1.27499998E-02  -8.51171266E-04
  -1.26999998E-02  -8.69475538E-04
  -1.26499999E-02  -8.88126087E-04
  -1.26000000E-02  -9.07093985E-04
  -1.25500001E-02  -9.26346984E-04
  -1.25000002E-02  -9.45879263E-04
  -1.24500003E-02  -9.65711661E-04
  -1.24000004E-02  -9.85858496E-04
  -1.23500004E-02  -1.00632175E-03
  -1.22999996E-02  -1.02709618E-03
  -1.22499997E-02  -1.04818505E-03
  -1.21999998E-02  -1.06960558E-03
  -1.21499998E-02  -1.09135860E-03
  -1.20999999E-02  -1.11343828E-03
  -1.20500000E-02  -1.13585393E-03
  -1.20000001E-02  -1.15865353E-03
  -1.19500002E-02  -1.18190760E-03
  -1.19000003E-02  -1.20566366E-03
  -1.18500004E-02  -1.22992403E-03
  -1.18000004E-02  -1.25466555E-03
  -1.17499996E-02  -1.27984979E-03
  -1.16999997E-02  -1.30541495E-03
  -1.16499998E-02  -1.33129605E-03
  -1.15999999E-02  -1.35743874E-03
  -1.15499999E-02  -1.38383592E-03
  -1.15000000E-02  -1.41053123E-03
  -1.14500001E-02  -1.43758813E-03
  -1.14000002E-02  -1.46505760E-03
  -1.13500003E-02  -1.49298122E-03
  -1.13000004E-02  -1.52141810E-03
  -1.12500004E-02  -1.55042042E-03
  -1.11999996E-02  -1.58001669E-03
  -1.11499997E-02  -1.61022239E-03
  -1.10999998E-02  -1.64105382E-03
  -1.10499999E-02  -1.67253218E-03
  -1.09999999E-02  -1.70464697E-03
  -1.09500000E-02  -1.73732999E-03
  -1.09000001E-02  -1.77047448E-03
  -1.08500002E-02  -1.80397858E-03
  -1.08000003E-02  -1.83778256E-03
  -1.07500004E-02  -1.87183300E-03
  -1.07000005E-02  -1.90610427E-03
  -1.06499996E-02  -1.94064865E-03
  -1.05999997E-02  -1.97560457E-03
  -1.05499998E-02  -2.01112893E-03
  -1.04999999E-02  -2.04734271E-03
  -1.04499999E-02  -2.08431575E-03
  -1.04000000E-02  -2.12206272E-03
  -1.03500001E-02  -2.16058944E-03
  -1.03000002E-02  -2.19989545E-03
  -1.02500003E-02  -2.23995675E-03
  -1.02000004E-02  -2.28069420E-03
  -1.01500005E-02  -2.32203025E-03
  -1.00999996E-02  -2.36395560E-03
  -1.00499997E-02  -2.40647304E-03
  -9.99999978E-03  -2.44955998E-03
  -9.94999986E-03  -2.49315193E-03
  -9.89999995E-03  -2.53714551E-03
  -9.85000003E-03  -2.58152490E-03
  -9.80000012E-03  -2.62640417E-03
  -9.75000020E-03  -2.67193932E-03
  -9.70000029E-03  -2.71821162E-03
  -9.65000037E-03  -2.76520080E-03
  -9.60000046E-03  -2.81292736E-03
  -9.54999961E-03  -2.86148489E-03
  -9.49999969E-03  -2.91094137E-03
  -9.44999978E-03  -2.96123815E-03
  -9.39999986E-03  -3.01222177E-03
  -9.34999995E-03  -3.06380237E-03
  -9.30000003E-03  -3.11607798E-03
  -9.25000012E-03  -3.16923601E-03
  -9.20000020E-03  -3.22337169E-03
  -9.15000029E-03  -3.27846827E-03
  -9.10000037E-03  -3.33445403E-03
  -9.05000046E-03  -3.39132780E-03
  -8.99999961E-03  -3.44914990E-03
  -8.94999970E-03  -3.50789074E-03
  -8.89999978E-03  -3.56743252E-03
  -8.84999987E-03  -3.62767046E-03
  -8.79999995E-03  -3.68862785E-03
  -8.75000004E-03  -3.75045999E-03
  -8.70000012E-03  -3.81330377E-03
  -8.65000021E-03  -3.87715036E-03
  -8.60000029E-03  -3.94188194E-03
  -8.55000038E-03  -4.00742562E-03
  -8.50000046E-03  -4.07385826E-03
  -8.44999962E-03  -4.14132793E-03
  -8.39999970E-03  -4.20988817E-03
  -8.34999979E-03  -4.27948544E-03
  -8.29999987E-03  -4.35011648E-03
  -8.24999996E-03  -4.42190794E-03
  -8.20000004E-03  -4.49501816E-03
  -8.15000013E-03  -4.56944713E-03
  -8.10000021E-03  -4.64502443E-03
  -8.05000030E-03  -4.72157449E-03
  -8.00000038E-03  -4.79909685E-03
  -7.95000046E-03  -4.87779314E-03
  -7.89999962E-03  -4.95779887E-03
  -7.84999970E-03  -5.03910892E-03
  -7.79999979E-03  -5.12169302E-03
  -7.74999987E-03  -5.20556793E-03
  -7.69999996E-03  -5.29075414E-03
  -7.65000004E-03  -5.37720509E-03
  -7.60000013E-03  -5.46482159E-03
  -7.55000021E-03  -5.55341411E-03
  -7.49999983E-03  -5.64291282E-03
  -7.44999992E-03  -5.73349744E-03
  -7.40000000E-03  -5.82536543E-03
  -7.35000009E-03  -5.91866858E-03
  -7.30000017E-03  -6.01337105E-03
  -7.24999979E-03  -6.10940810E-03
  -7.19999988E-03  -6.20682910E-03
  -7.14999996E-03  -6.30567176E-03
  -7.10000005E-03  -6.40594168E-03
  -7.05000013E-03  -6.50754757E-03
  -7.00000022E-03  -6.61042286E-03
  -6.94999984E-03  -6.71467837E-03
  -6.89999992E-03  -6.82054926E-03
  -6.85000001E-03  -6.92812866E-03
  -6.80000009E-03  -7.03732576E-03
  -6.75000018E-03  -7.14794360E-03
  -6.69999979E-03  -7.25979032E-03
  -6.64999988E-03  -7.37289572E-03
  -6.59999996E-03  -7.48737343E-03
  -6.55000005E-03  -7.60327093E-03
  -6.50000013E-03  -7.72056589E-03
  -6.45000022E-03  -7.83929508E-03
  -6.39999984E-03  -7.95954466E-03
  -6.34999992E-03  -8.08140356E-03
  -6.30000001E-03  -8.20481684E-03
  -6.25000009E-03  -8.32956191E-03
  -6.20000018E-03  -8.45546834E-03
  -6.14999980E-03  -8.58252961E-03
  -6.09999988E-03  -8.71094037E-03
  -6.04999997E-03  -8.84091016E-03
  -6.00000005E-03  -8.97262432E-03
  -5.95000014E-03  -9.10616666E-03
  -5.90000022E-03  -9.24154557E-03
  -5.84999984E-03  -9.37870331E-03
  -5.79999993E-03  -9.51748248E-03
  -5.75000001E-03  -9.65770707E-03
  -5.70000010E-03  -9.79921501E-03
  -5.65000018E-03  -9.94202867E-03
  -5.59999980E-03  -1.00864284E-02
  -5.54999989E-03  -1.02325696E-02
  -5.49999997E-03  -1.03804627E-02
  -5.45000006E-03  -1.05300974E-02
  -5.40000014E-03  -1.06814168E-02
  -5.35000023E-03  -1.08343922E-02
  -5.29999984E-03  -1.09889191E-02
  -5.24999993E-03  -1.11447498E-02
  -5.20000001E-03  -1.13017270E-02
  -5.15000010E-03  -1.14599699E-02
  -5.10000018E-03  -1.16197597E-02
  -5.04999980E-03  -1.17814578E-02
  -4.99999989E-03  -1.19452430E-02
  -4.94999997E-03  -1.21109067E-02
  -4.90000006E-03  -1.22781815E-02
  -4.85000014E-03  -1.24469167E-02
  -4.80000023E-03  -1.26170777E-02
  -4.74999985E-03  -1.27888378E-02
  -4.69999993E-03  -1.29624587E-02
  -4.65000002E-03  -1.31380409E-02
  -4.60000010E-03  -1.33154839E-02
  -4.55000019E-03  -1.34948846E-02
  -4.49999981E-03  -1.36764040E-02
  -4.44999989E-03  -1.38600133E-02
  -4.39999998E-03  -1.40452739E-02
  -4.35000006E-03  -1.42315933E-02
  -4.30000015E-03  -1.44189335E-02
  -4.25000023E-03  -1.46076577E-02
  -4.19999985E-03  -1.47982454E-02
  -4.14999994E-03  -1.49910124E-02
  -4.10000002E-03  -1.51858665E-02
  -4.05000011E-03  -1.53826065E-02
  -4.00000019E-03  -1.55811105E-02
  -3.94999981E-03  -1.57813299E-02
  -3.89999989E-03  -1.59832705E-02
  -3.84999998E-03  -1.61867253E-02
  -3.80000006E-03  -1.63915306E-02
  -3.74999992E-03  -1.65978465E-02
  -3.70000000E-03  -1.68061927E-02
  -3.65000009E-03  -1.70172211E-02
  -3.59999994E-03  -1.72308609E-02
  -3.55000002E-03  -1.74463876E-02
  -3.50000011E-03  -1.76632870E-02
  -3.44999996E-03  -1.78815238E-02
  -3.40000005E-03  -1.81013569E-02
  -3.34999990E-03  -1.83229540E-02
  -3.29999998E-03  -1.85461268E-02
  -3.25000007E-03  -1.87708233E-02
  -3.19999992E-03  -1.89975109E-02
  -3.15000000E-03  -1.92267261E-02
  -3.10000009E-03  -1.94582194E-02
  -3.04999994E-03  -1.96912847E-02
  -3.00000003E-03  -1.99254472E-02
  -2.95000011E-03  -2.01606583E-02
  -2.89999996E-03  -2.03973427E-02
  -2.85000005E-03  -2.06357986E-02
  -2.79999990E-03  -2.08762307E-02
  -2.74999999E-03  -2.11188812E-02
  -2.70000007E-03  -2.13636402E-02
  -2.64999992E-03  -2.16104016E-02
  -2.60000001E-03  -2.18590461E-02
  -2.55000009E-03  -2.21091025E-02
  -2.49999994E-03  -2.23599710E-02
  -2.45000003E-03  -2.26114262E-02
  -2.40000011E-03  -2.28642337E-02
  -2.34999997E-03  -2.31192969E-02
  -2.30000005E-03  -2.33768057E-02
  -2.24999990E-03  -2.36364305E-02
  -2.19999999E-03  -2.38979515E-02
  -2.15000007E-03  -2.41611954E-02
  -2.09999993E-03  -2.44259033E-02
  -2.05000001E-03  -2.46919096E-02
  -2.00000009E-03  -2.49586143E-02
  -1.94999995E-03  -2.52259038E-02
  -1.90000003E-03  -2.54943557E-02
  -1.85000000E-03  -2.57647559E-02
  -1.79999997E-03  -2.60376018E-02
  -1.75000005E-03  -2.63123531E-02
  -1.70000002E-03  -2.65882015E-02
  -1.64999999E-03  -2.68646982E-02
  -1.59999996E-03  -2.71415543E-02
  -1.55000004E-03  -2.74191089E-02
  -1.50000001E-03  -2.76977755E-02
  -1.44999998E-03  -2.79775597E-02
  -1.39999995E-03  -2.82587931E-02
  -1.35000004E-03  -2.85420585E-02
  -1.30000000E-03  -2.88272779E-02
  -1.24999997E-03  -2.91137807E-02
  -1.20000006E-03  -2.94010714E-02
  -1.15000003E-03  -2.96888649E-02
  -1.09999999E-03  -2.99771223E-02
  -1.04999996E-03  -3.02657038E-02
  -1.00000005E-03  -3.05547100E-02
  -9.50000016E-04  -3.08447033E-02
  -8.99999985E-04  -3.11361924E-02
  -8.50000011E-04  -3.14294286E-02
  -7.99999980E-04  -3.17239091E-02
  -7.50000007E-04  -3.20184901E-02
  -6.99999975E-04  -3.23123708E-02
  -6.50000002E-04  -3.26058678E-02
  -6.00000028E-04  -3.28994170E-02
  -5.49999997E-04  -3.31929848E-02
  -5.00000024E-04  -3.34867947E-02
  -4.49999992E-04  -3.37814912E-02
  -3.99999990E-04  -3.40777710E-02
  -3.49999988E-04  -3.43752839E-02
  -3.00000014E-04  -3.46729271E-02
  -2.50000012E-04  -3.49695832E-02
  -1.99999995E-04  -3.52650471E-02
  -1.50000007E-04  -3.55599634E-02
  -9.99999975E-05  -3.58547531E-02
  -4.99999987E-05  -3.61498594E-02
   0.00000000      -3.64453122E-02
   4.99999987E-05  -3.67407314E-02
   9.99999975E-05  -3.70360054E-02
   1.50000007E-04  -3.73308733E-02
   1.99999995E-04  -3.76246087E-02
   2.50000012E-04  -3.79167087E-02
   3.00000014E-04  -3.82069834E-02
   3.49999988E-04  -3.84956151E-02
   3.99999990E-04  -3.87834758E-02
   4.49999992E-04  -3.90708819E-02
   5.00000024E-04  -3.93578522E-02
   5.49999997E-04  -3.96441780E-02
   6.00000028E-04  -3.99292149E-02
   6.50000002E-04  -4.02120277E-02
   6.99999975E-04  -4.04917113E-02
   7.50000007E-04  -4.07692827E-02
   7.99999980E-04  -4.10453863E-02
   8.50000011E-04  -4.13198732E-02
   8.99999985E-04  -4.15923037E-02
   9.50000016E-04  -4.18620035E-02
   1.00000005E-03  -4.21300940E-02
   1.04999996E-03  -4.23975736E-02
   1.09999999E-03  -4.26625721E-02
   1.15000003E-03  -4.29229550E-02
   1.20000006E-03  -4.31780107E-02
   1.24999997E-03  -4.34283987E-02
   1.30000000E-03  -4.36765887E-02
   1.35000004E-03  -4.39241081E-02
   1.39999995E-03  -4.41694818E-02
   1.44999998E-03  -4.44095246E-02
   1.50000001E-03  -4.46434356E-02
   1.55000004E-03  -4.48737741E-02
   1.59999996E-03  -4.51020636E-02
   1.64999999E-03  -4.53264900E-02
   1.70000002E-03  -4.55433354E-02
   1.75000005E-03  -4.57515754E-02
   1.79999997E-03  -4.59555425E-02
   1.85000000E-03  -4.61589657E-02
   1.90000003E-03  -4.63602208E-02
   1.94999995E-03  -4.65540960E-02
   2.00000009E-03  -4.67379242E-02
   2.05000001E-03  -4.69145514E-02
   2.09999993E-03  -4.70880345E-02
   2.15000007E-03  -4.72582541E-02
   2.19999999E-03  -4.74209562E-02
   2.24999990E-03  -4.75736111E-02
   2.30000005E-03  -4.77176905E-02
   2.34999997E-03  -4.78571355E-02
   2.40000011E-03  -4.79938872E-02
   2.45000003E-03  -4.81236503E-02
   2.49999994E-03  -4.82405424E-02
   2.55000009E-03  -4.83438261E-02
   2.60000001E-03  -4.84392196E-02
   2.64999992E-03  -4.85316589E-02
   2.70000007E-03  -4.86181453E-02
   2.74999999E-03  -4.86922599E-02
   2.79999990E-03  -4.87521179E-02