  -3.99999991E-02   0.00000000    
  -3.99499983E-02   0.00000000    
  -3.99000011E-02   0.00000000    
  -3.98500003E-02   9.79299193E-17
  -3.97999994E-02  -1.19504199E-16
  -3.97499986E-02  -3.71923104E-15
  -3.97000015E-02  -1.77656843E-14
  -3.96500006E-02  -5.07201601E-14
  -3.95999998E-02  -1.08667368E-13
  -3.95499989E-02  -1.97434761E-13
  -3.95000018E-02  -3.29121631E-13
  -3.94500010E-02  -5.18251349E-13
  -3.94000001E-02  -7.58671609E-13
  -3.93499993E-02  -1.00139320E-12
  -3.92999984E-02  -1.17051854E-12
  -3.92500013E-02  -1.22372587E-12
  -3.92000005E-02  -1.20683335E-12
  -3.91499996E-02  -1.23844750E-12
  -3.90999988E-02  -1.42363844E-12
  -3.90500017E-02  -1.77334980E-12
  -3.90000008E-02  -2.20358605E-12
  -3.89500000E-02  -2.59907894E-12
  -3.88999991E-02  -2.85737775E-12
  -3.88499983E-02  -2.87340356E-12
  -3.88000011E-02  -2.52813374E-12
  -3.87500003E-02  -1.76033190E-12
  -3.86999995E-02  -6.79035333E-13
  -3.86499986E-02   4.38768650E-13
  -3.86000015E-02   1.35028631E-12
  -3.85500006E-02   2.11333165E-12
  -3.84999998E-02   3.15841667E-12
  -3.84499989E-02   5.06027859E-12
  -3.84000018E-02   8.19528820E-12
  -3.83500010E-02   1.25803690E-11
  -3.83000001E-02   1.79827455E-11
  -3.82499993E-02   2.41080680E-11
  -3.81999984E-02   3.06539655E-11
  -3.81500013E-02   3.72690837E-11
  -3.81000005E-02   4.36388287E-11
  -3.80499996E-02   4.97572782E-11
  -3.79999988E-02   5.61189012E-11
  -3.79500017E-02   6.35161646E-11
  -3.79000008E-02   7.25068963E-11
  -3.78500000E-02   8.30200700E-11
  -3.77999991E-02   9.44945719E-11
  -3.77499983E-02   1.06411012E-10
  -3.77000012E-02   1.18665688E-10
  -3.76500003E-02   1.31431407E-10
  -3.75999995E-02   1.44740275E-10
  -3.75499986E-02   1.58316027E-10
  -3.75000015E-02   1.71831674E-10
  -3.74500006E-02   1.85212817E-10
  -3.73999998E-02   1.98539726E-10
  -3.73499990E-02   2.11621456E-10
  -3.73000018E-02   2.23766242E-10
  -3.72500010E-02   2.34055747E-10
  -3.72000001E-02   2.41783593E-10
  -3.71499993E-02   2.46473175E-10
  -3.70999984E-02   2.47429854E-10
  -3.70500013E-02   2.43496473E-10
  -3.70000005E-02   2.33639968E-10
  -3.69499996E-02   2.18092142E-10
  -3.68999988E-02   1.98963582E-10
  -3.68500017E-02   1.79517748E-10
  -3.68000008E-02   1.62432623E-10
  -3.67500000E-02   1.48246915E-10
  -3.66999991E-02   1.34925002E-10
  -3.66499983E-02   1.18507718E-10
  -3.66000012E-02   9.42434186E-11
  -3.65500003E-02   5.78523583E-11
  -3.64999995E-02   6.96819078E-12
  -3.64499986E-02  -5.75029503E-11
  -3.64000015E-02  -1.31108333E-10
  -3.63500006E-02  -2.07648468E-10
  -3.62999998E-02  -2.82665336E-10
  -3.62499990E-02  -3.56532387E-10
  -3.62000018E-02  -4.34762559E-10
  -3.61500010E-02  -5.24869870E-10
  -3.61000001E-02  -6.31534436E-10
  -3.60499993E-02  -7.52926166E-10
  -3.59999985E-02  -8.80165052E-10
  -3.59500013E-02  -1.00010866E-09
  -3.59000005E-02  -1.10035647E-09
  -3.58499996E-02  -1.17485921E-09
  -3.57999988E-02  -1.22815758E-09
  -3.57500017E-02  -1.27590116E-09
  -3.57000008E-02  -1.33989420E-09
  -3.56500000E-02  -1.43838597E-09
  -3.55999991E-02  -1.57574331E-09
  -3.55499983E-02  -1.73736481E-09
  -3.55000012E-02  -1.89372162E-09
  -3.54500003E-02  -2.01248307E-09
  -3.53999995E-02  -2.07305129E-09
  -3.53499986E-02  -2.07644346E-09
  -3.53000015E-02  -2.04577688E-09
  -3.52500007E-02  -2.01679806E-09
  -3.51999998E-02  -2.02183026E-09
  -3.51499990E-02  -2.07327444E-09
  -3.51000018E-02  -2.15388862E-09
  -3.50500010E-02  -2.21975704E-09
  -3.50000001E-02  -2.21712493E-09
  -3.49499993E-02  -2.10711804E-09
  -3.48999985E-02  -1.88663352E-09
  -3.48500013E-02  -1.59373503E-09
  -3.48000005E-02  -1.29287381E-09
  -3.47499996E-02  -1.04573084E-09
  -3.46999988E-02  -8.81304751E-10
  -3.46500017E-02  -7.79523890E-10
  -3.46000008E-02  -6.76738332E-10
  -3.45500000E-02  -4.91986063E-10
  -3.44999991E-02  -1.63875302E-10
  -3.44499983E-02   3.17599724E-10
  -3.44000012E-02   8.99878227E-10
  -3.43500003E-02   1.48576496E-09
  -3.42999995E-02   1.97597938E-09
  -3.42499986E-02   2.31828712E-09
  -3.42000015E-02   2.53882204E-09
  -3.41500007E-02   2.73737100E-09
  -3.40999998E-02   3.04534176E-09
  -3.40499990E-02   3.56409613E-09
  -3.40000018E-02   4.31216129E-09
  -3.39500010E-02   5.20694821E-09
  -3.39000002E-02   6.09185014E-09
  -3.38499993E-02   6.79977941E-09
  -3.37999985E-02   7.22741067E-09
  -3.37500013E-02   7.38710204E-09
  -3.37000005E-02   7.40976436E-09
  -3.36499996E-02   7.49162776E-09
  -3.35999988E-02   7.80422571E-09
  -3.35500017E-02   8.40774295E-09
  -3.35000008E-02   9.21077881E-09
  -3.34500000E-02   1.00003215E-08
  -3.33999991E-02   1.05325695E-08
  -3.33499983E-02   1.06447784E-08
  -3.33000012E-02   1.03364002E-08
  -3.32500003E-02   9.77974413E-09
  -3.31999995E-02   9.25093246E-09
  -3.31499986E-02   9.00753250E-09
  -3.31000015E-02   9.16494791E-09
  -3.30500007E-02   9.62872715E-09
  -3.29999998E-02   1.01195834E-08
  -3.29499990E-02   1.02879252E-08
  -3.29000019E-02   9.87112170E-09
  -3.28500010E-02   8.82105411E-09
  -3.28000002E-02   7.33784544E-09
  -3.27499993E-02   5.78763171E-09
  -3.26999985E-02   4.53720972E-09
  -3.26500013E-02   3.77990395E-09
  -3.26000005E-02   3.43452577E-09
  -3.25499997E-02   3.16825699E-09
  -3.24999988E-02   2.53969556E-09
  -3.24500017E-02   1.20337362E-09
  -3.24000008E-02  -9.14935627E-10
  -3.23500000E-02  -3.55669405E-09
  -3.22999991E-02  -6.22171958E-09
  -3.22499983E-02  -8.38152125E-09
  -3.22000012E-02  -9.72271330E-09
  -3.21500003E-02  -1.03061080E-08
  -3.20999995E-02  -1.05594777E-08
  -3.20499986E-02  -1.10974661E-08
  -3.20000015E-02  -1.24445467E-08
  -3.19500007E-02  -1.47852983E-08
  -3.18999998E-02  -1.78584507E-08
  -3.18499990E-02  -2.10498303E-08
  -3.18000019E-02  -2.36518005E-08
  -3.17500010E-02  -2.51798458E-08
  -3.17000002E-02  -2.56040060E-08
  -3.16499993E-02  -2.53825050E-08
  -3.15999985E-02  -2.52689318E-08
  -3.15500014E-02  -2.59694257E-08
  -3.15000005E-02  -2.78031518E-08
  -3.14499997E-02  -3.05270405E-08
  -3.13999988E-02  -3.34157271E-08
  -3.13500017E-02  -3.55702312E-08
  -3.13000008E-02  -3.63206816E-08
  -3.12500000E-02  -3.55407650E-08
  -3.11999992E-02  -3.37260460E-08
  -3.11500002E-02  -3.17907904E-08
  -3.10999993E-02  -3.06636530E-08
  -3.10500003E-02  -3.08574251E-08
  -3.09999995E-02  -3.22096625E-08
  -3.09500005E-02  -3.39239072E-08
  -3.08999997E-02  -3.49087692E-08
  -3.08500007E-02  -3.42710607E-08
  -3.07999998E-02  -3.17383630E-08
  -3.07500008E-02  -2.78092607E-08
  -3.07000000E-02  -2.35500544E-08
  -3.06499992E-02  -2.01205008E-08
  -3.06000002E-02  -1.82390760E-08
  -3.05499993E-02  -1.78312760E-08
  -3.05000003E-02  -1.80278406E-08
  -3.04499995E-02  -1.75279382E-08
  -3.04000005E-02  -1.51785287E-08
  -3.03499997E-02  -1.05146443E-08
  -3.03000007E-02  -4.00987865E-09
  -3.02499998E-02   3.09330339E-09
  -3.02000009E-02   9.31397359E-09
  -3.01500000E-02   1.35934606E-08
  -3.00999992E-02   1.57857336E-08
  -3.00500002E-02   1.67443002E-08
  -2.99999993E-02   1.79546049E-08
  -2.99500003E-02   2.08678603E-08
  -2.98999995E-02   2.62310866E-08
  -2.98500005E-02   3.37166846E-08
  -2.97999997E-02   4.20275477E-08
  -2.97500007E-02   4.94461716E-08
  -2.96999998E-02   5.45946612E-08
  -2.96500009E-02   5.70677230E-08
  -2.96000000E-02   5.76442218E-08
  -2.95499992E-02   5.79643356E-08
  -2.95000002E-02   5.98017778E-08
  -2.94499993E-02   6.42529656E-08
  -2.94000003E-02   7.12127104E-08
  -2.93499995E-02   7.93823816E-08
  -2.93000005E-02   8.68173231E-08
  -2.92499997E-02   9.17762293E-08
  -2.92000007E-02   9.34954443E-08
  -2.91499998E-02   9.25391248E-08
  -2.91000009E-02   9.05576627E-08
  -2.90500000E-02   8.95477257E-08
  -2.89999992E-02   9.09343285E-08
  -2.89500002E-02   9.48874330E-08
  -2.88999993E-02   1.00192771E-07
  -2.88500004E-02   1.04753838E-07
  -2.87999995E-02   1.06513895E-07
  -2.87500005E-02   1.04386572E-07
  -2.86999997E-02   9.87703288E-08
  -2.86500007E-02   9.14039049E-08
  -2.85999998E-02   8.46160333E-08
  -2.85500009E-02   8.02935745E-08
  -2.85000000E-02   7.90223496E-08
  -2.84499992E-02   7.97867870E-08
  -2.84000002E-02   8.03754077E-08
  -2.83499993E-02   7.83312757E-08
  -2.83000004E-02   7.20377997E-08
  -2.82499995E-02   6.14565749E-08
  -2.82000005E-02   4.81753339E-08
  -2.81499997E-02   3.47288100E-08
  -2.81000007E-02   2.34837199E-08
  -2.80499998E-02   1.55812820E-08
  -2.80000009E-02   1.04160431E-08
  -2.79500000E-02   5.88767879E-09
  -2.78999992E-02  -6.77375322E-10
  -2.78500002E-02  -1.13310303E-08
  -2.77999993E-02  -2.65590359E-08
  -2.77500004E-02  -4.50081679E-08
  -2.76999995E-02  -6.40202060E-08
  -2.76500005E-02  -8.07562586E-08
  -2.75999997E-02  -9.34258040E-08
  -2.75500007E-02  -1.02074310E-07
  -2.74999999E-02  -1.08565935E-07
  -2.74500009E-02  -1.15755768E-07
  -2.74000000E-02  -1.26210708E-07
  -2.73499992E-02  -1.41041141E-07
  -2.73000002E-02  -1.59364049E-07
  -2.72499993E-02  -1.78639212E-07
  -2.72000004E-02  -1.95740924E-07
  -2.71499995E-02  -2.08305295E-07
  -2.71000005E-02  -2.15764544E-07
  -2.70499997E-02  -2.19606775E-07
  -2.70000007E-02  -2.22727891E-07
  -2.69499999E-02  -2.28139385E-07
  -2.69000009E-02  -2.37592232E-07
  -2.68500000E-02  -2.50730068E-07
  -2.67999992E-02  -2.65162214E-07
  -2.67500002E-02  -2.77444173E-07
  -2.66999993E-02  -2.84545365E-07
  -2.66500004E-02  -2.85163992E-07
  -2.65999995E-02  -2.80308683E-07
  -2.65500005E-02  -2.72880129E-07
  -2.64999997E-02  -2.66415782E-07
  -2.64500007E-02  -2.63529273E-07
  -2.63999999E-02  -2.64716761E-07
  -2.63500009E-02  -2.68066543E-07
  -2.63000000E-02  -2.70026192E-07
  -2.62499992E-02  -2.66915663E-07
  -2.62000002E-02  -2.56538812E-07
  -2.61499994E-02  -2.39182981E-07
  -2.61000004E-02  -2.17544653E-07
  -2.60499995E-02  -1.95592719E-07
  -2.60000005E-02  -1.76855295E-07
  -2.59499997E-02  -1.62867323E-07
  -2.59000007E-02  -1.52455456E-07
  -2.58499999E-02  -1.42196015E-07
  -2.58000009E-02  -1.27874543E-07
  -2.57500000E-02  -1.06324869E-07
  -2.56999992E-02  -7.68593509E-08
  -2.56500002E-02  -4.16464694E-08
  -2.55999994E-02  -4.84318097E-09
  -2.55500004E-02   2.91697830E-08
  -2.54999995E-02   5.76934980E-08
  -2.54500005E-02   8.09026304E-08
  -2.53999997E-02   1.01781033E-07
  -2.53500007E-02   1.24803137E-07
  -2.52999999E-02   1.53923622E-07
  -2.52500009E-02   1.90751294E-07
  -2.52000000E-02   2.33712612E-07
  -2.51499992E-02   2.78608695E-07
  -2.51000002E-02   3.20352939E-07
  -2.50499994E-02   3.55159699E-07
  -2.50000004E-02   3.82230553E-07
  -2.49499995E-02   4.04158413E-07
  -2.49000005E-02   4.25823686E-07
  -2.48499997E-02   4.52229926E-07
  -2.48000007E-02   4.86220813E-07
  -2.47499999E-02   5.27094926E-07
  -2.47000009E-02   5.70759482E-07
  -2.46500000E-02   6.11393489E-07
  -2.45999992E-02   6.43916735E-07
  -2.45500002E-02   6.66193216E-07
  -2.44999994E-02   6.79986385E-07
  -2.44500004E-02   6.90203365E-07
  -2.43999995E-02   7.02709997E-07
  -2.43500005E-02   7.21646302E-07
  -2.42999997E-02   7.47432125E-07
  -2.42500007E-02   7.76386344E-07
  -2.41999999E-02   8.02180239E-07
  -2.41500009E-02   8.18527951E-07
  -2.41000000E-02   8.21931735E-07
  -2.40499992E-02   8.13254644E-07
  -2.40000002E-02   7.97390271E-07
  -2.39499994E-02   7.81131291E-07
  -2.39000004E-02   7.70148461E-07
  -2.38499995E-02   7.66394066E-07
  -2.38000005E-02   7.67101426E-07
  -2.37499997E-02   7.65871448E-07
  -2.37000007E-02   7.55409076E-07
  -2.36499999E-02   7.30741306E-07
  -2.36000009E-02   6.91468813E-07
  -2.35500000E-02   6.41996621E-07
  -2.34999992E-02   5.89601427E-07
  -2.34500002E-02   5.41169584E-07
  -2.33999994E-02   5.00054512E-07
  -2.33500004E-02   4.64469935E-07
  -2.32999995E-02   4.28187036E-07
  -2.32500006E-02   3.83246743E-07
  -2.31999997E-02   3.23516559E-07
  -2.31500007E-02   2.47530323E-07
  -2.30999999E-02   1.59295169E-07
  -2.30500009E-02   6.66544295E-08
  -2.30000000E-02  -2.21383800E-08
  -2.29499992E-02  -1.02112899E-07
  -2.29000002E-02  -1.73854886E-07
  -2.28499994E-02  -2.43301116E-07
  -2.28000004E-02  -3.19102043E-07
  -2.27499995E-02  -4.08690624E-07
  -2.27000006E-02  -5.14828514E-07
  -2.26499997E-02  -6.34200262E-07
  -2.26000007E-02  -7.58706449E-07
  -2.25499999E-02  -8.78948129E-07
  -2.25000009E-02  -9.88369152E-07
  -2.24500000E-02  -1.08620213E-06
  -2.23999992E-02  -1.17787317E-06
  -2.23500002E-02  -1.27261831E-06
  -2.22999994E-02  -1.37931647E-06
  -2.22500004E-02  -1.50240169E-06
  -2.21999995E-02  -1.63971856E-06
  -2.21500006E-02  -1.78332448E-06
  -2.20999997E-02  -1.92291350E-06
  -2.20500007E-02  -2.05033120E-06
  -2.19999999E-02  -2.16315880E-06
  -2.19500009E-02  -2.26575094E-06
  -2.19000001E-02  -2.36723804E-06
  -2.18499992E-02  -2.47735284E-06
  -2.18000002E-02  -2.60192928E-06
  -2.17499994E-02  -2.74011472E-06
  -2.17000004E-02  -2.88458091E-06
  -2.16499995E-02  -3.02469743E-06
  -2.16000006E-02  -3.15126158E-06
  -2.15499997E-02  -3.26063582E-06
  -2.15000007E-02  -3.35639561E-06
  -2.14499999E-02  -3.44772002E-06
  -2.14000009E-02  -3.54523627E-06
  -2.13500001E-02  -3.65617143E-06
  -2.12999992E-02  -3.78100208E-06
  -2.12500002E-02  -3.91314688E-06
  -2.11999994E-02  -4.04184357E-06
  -2.11500004E-02  -4.15694376E-06
  -2.10999995E-02  -4.25347844E-06
  -2.10500006E-02  -4.33393370E-06
  -2.09999997E-02  -4.40716258E-06
  -2.09500007E-02  -4.48437459E-06
  -2.08999999E-02  -4.57402393E-06
  -2.08500009E-02  -4.67788823E-06
  -2.08000001E-02  -4.79022992E-06
  -2.07499992E-02  -4.90038474E-06
  -2.07000002E-02  -4.99756698E-06
  -2.06499994E-02  -5.07576624E-06
  -2.06000004E-02  -5.13656278E-06
  -2.05499995E-02  -5.18855131E-06
  -2.05000006E-02  -5.24358893E-06
  -2.04499997E-02  -5.31152045E-06
  -2.04000007E-02  -5.39576376E-06
  -2.03499999E-02  -5.49184779E-06
  -2.03000009E-02  -5.58946113E-06
  -2.02500001E-02  -5.67715324E-06
  -2.01999992E-02  -5.74755177E-06
  -2.01500002E-02  -5.80075266E-06
  -2.00999994E-02  -5.84429836E-06
  -2.00500004E-02  -5.88980765E-06
  -1.99999996E-02  -5.94782250E-06
  -1.99500006E-02  -6.02315458E-06
  -1.98999997E-02  -6.11289533E-06
  -1.98500007E-02  -6.20787978E-06
  -1.97999999E-02  -6.29701526E-06
  -1.97500009E-02  -6.37247513E-06
  -1.97000001E-02  -6.43350313E-06
  -1.96499992E-02  -6.48698369E-06
  -1.96000002E-02  -6.54439373E-06
  -1.95499994E-02  -6.61670583E-06
  -1.95000004E-02  -6.70959480E-06
  -1.94499996E-02  -6.82112886E-06
  -1.94000006E-02  -6.94292476E-06
  -1.93499997E-02  -7.06412129E-06
  -1.93000007E-02  -7.17646299E-06
  -1.92499999E-02  -7.27829456E-06
  -1.92000009E-02  -7.37551636E-06
  -1.91500001E-02  -7.47914237E-06
  -1.90999992E-02  -7.60046123E-06
  -1.90500002E-02  -7.74605360E-06
  -1.89999994E-02  -7.91495859E-06
  -1.89500004E-02  -8.09934591E-06
  -1.88999996E-02  -8.28843986E-06
  -1.88500006E-02  -8.47370757E-06
  -1.87999997E-02  -8.65280890E-06
  -1.87500007E-02  -8.83082339E-06
  -1.86999999E-02  -9.01819658E-06
  -1.86500009E-02  -9.22623622E-06
  -1.86000001E-02  -9.46239288E-06
  -1.85499992E-02  -9.72713497E-06
  -1.85000002E-02  -1.00139332E-05
  -1.84499994E-02  -1.03125558E-05
  -1.84000004E-02  -1.06139369E-05
  -1.83499996E-02  -1.09145940E-05
  -1.83000006E-02  -1.12184562E-05
  -1.82499997E-02  -1.15350140E-05
  -1.82000007E-02  -1.18750431E-05
  -1.81499999E-02  -1.22457868E-05
  -1.81000009E-02  -1.26480218E-05
  -1.80500001E-02  -1.30762674E-05
  -1.79999992E-02  -1.35213086E-05
  -1.79500002E-02  -1.39743588E-05
  -1.78999994E-02  -1.44313690E-05
  -1.78500004E-02  -1.48952458E-05
  -1.77999996E-02  -1.53747405E-05
  -1.77500006E-02  -1.58803596E-05
  -1.76999997E-02  -1.64195444E-05
  -1.76500008E-02  -1.69936648E-05
  -1.75999999E-02  -1.75978985E-05
  -1.75500009E-02  -1.82238600E-05
  -1.75000001E-02  -1.88636186E-05
  -1.74499992E-02  -1.95133507E-05
  -1.74000002E-02  -2.01754337E-05
  -1.73499994E-02  -2.08575912E-05
  -1.73000004E-02  -2.15693108E-05
  -1.72499996E-02  -2.23175866E-05
  -1.72000006E-02  -2.31037302E-05
  -1.71499997E-02  -2.39228320E-05
  -1.71000008E-02  -2.47659755E-05
  -1.70499999E-02  -2.56246385E-05
  -1.70000009E-02  -2.64947394E-05
  -1.69500001E-02  -2.73785299E-05
  -1.68999992E-02  -2.82836427E-05
  -1.68500002E-02  -2.92194636E-05
  -1.67999994E-02  -3.01930704E-05
  -1.67500004E-02  -3.12064294E-05
  -1.66999996E-02  -3.22559572E-05
  -1.66500006E-02  -3.33341341E-05
  -1.65999997E-02  -3.44328364E-05
  -1.65500008E-02  -3.55474549E-05
  -1.64999999E-02  -3.66791573E-05
  -1.64500009E-02  -3.78342957E-05
  -1.64000001E-02  -3.90214154E-05
  -1.63499992E-02  -4.02472178E-05
  -1.63000003E-02  -4.15133545E-05
  -1.62499994E-02  -4.28156636E-05
  -1.62000004E-02  -4.41466254E-05
  -1.61499996E-02  -4.54990877E-05
  -1.61000006E-02  -4.68692560E-05
  -1.60499997E-02  -4.82582218E-05
  -1.60000008E-02  -4.96717839E-05
  -1.59499999E-02  -5.11182952E-05
  -1.59000009E-02  -5.26044932E-05
  -1.58500001E-02  -5.41320478E-05
  -1.57999992E-02  -5.56969790E-05
  -1.57500003E-02  -5.72917706E-05
  -1.56999994E-02  -5.89090741E-05
  -1.56500004E-02  -6.05454625E-05
  -1.55999996E-02  -6.22029547E-05
  -1.55499997E-02  -6.38878992E-05
  -1.54999997E-02  -6.56083648E-05
  -1.54499998E-02  -6.73707036E-05
  -1.53999999E-02  -6.91760433E-05
  -1.53500000E-02  -7.10200256E-05
  -1.53000001E-02  -7.28952073E-05
  -1.52500002E-02  -7.47942177E-05
  -1.52000003E-02  -7.67139063E-05
  -1.51500003E-02  -7.86560413E-05
  -1.51000004E-02  -8.06267708E-05
  -1.50499996E-02  -8.26354590E-05
  -1.49999997E-02  -8.46898256E-05
  -1.49499997E-02  -8.67922572E-05
  -1.48999998E-02  -8.89388175E-05
  -1.48499999E-02  -9.11218449E-05
  -1.48000000E-02  -9.33335468E-05
  -1.47500001E-02  -9.55704018E-05
  -1.47000002E-02  -9.78359967E-05
  -1.46500003E-02  -1.00137942E-04
  -1.46000003E-02  -1.02484773E-04
  -1.45500004E-02  -1.04882762E-04
  -1.44999996E-02  -1.07334694E-04
  -1.44499997E-02  -1.09839348E-04
  -1.43999998E-02  -1.12390335E-04
  -1.43499998E-02  -1.14979390E-04
  -1.42999999E-02  -1.17602023E-04
  -1.42500000E-02  -1.20260986E-04
  -1.42000001E-02  -1.22966128E-04
  -1.41500002E-02  -1.25728868E-04
  -1.41000003E-02  -1.28556319E-04
  -1.40500003E-02  -1.31449589E-04
  -1.40000004E-02  -1.34404574E-04
  -1.39499996E-02  -1.37415715E-04
  -1.38999997E-02  -1.40478718E-04
  -1.38499998E-02  -1.43590718E-04
  -1.37999998E-02  -1.46752718E-04
  -1.37499999E-02  -1.49973464E-04
  -1.37000000E-02  -1.53267174E-04
  -1.36500001E-02  -1.56644950E-04
  -1.36000002E-02  -1.60110299E-04
  -1.35500003E-02  -1.63659148E-04
  -1.35000004E-02  -1.67281352E-04
  -1.34500004E-02  -1.70969957E-04
  -1.33999996E-02  -1.74723813E-04
  -1.33499997E-02  -1.78545451E-04
  -1.32999998E-02  -1.82443240E-04
  -1.32499998E-02  -1.86430814E-04
  -1.31999999E-02  -1.90521096E-04
  -1.31500000E-02  -1.94721273E-04
  -1.31000001E-02  -1.99029892E-04
  -1.30500002E-02  -2.03437405E-04
  -1.30000003E-02  -2.07934863E-04
  -1.29500004E-02  -2.12520390E-04
  -1.29000004E-02  -2.17199209E-04
  -1.28499996E-02  -2.21980459E-04
  -1.27999997E-02  -2.26874778E-04
  -1.27499998E-02  -2.31894621E-04
  -1.26999998E-02  -2.37050292E-04
  -1.26499999E-02  -2.42345151E-04
  -1.26000000E-02  -2.47773278E-04
  -1.25500001E-02  -2.53321195E-04
  -1.25000002E-02  -2.58983608E-04
  -1.24500003E-02  -2.64768081E-04
  -1.24000004E-02  -2.70688790E-04
  -1.23500004E-02  -2.76760926E-04
  -1.22999996E-02  -2.82993540E-04
  -1.22499997E-02  -2.89387011E-04
  -1.21999998E-02  -2.95937207E-04
  -1.21499998E-02  -3.02638975E-04
  -1.20999999E-02  -3.09484458E-04
  -1.20500000E-02  -3.16467020E-04
  -1.20000001E-02  -3.23587068E-04
  -1.19500002E-02  -3.30858369E-04
  -1.19000003E-02  -3.38305807E-04
  -1.18500004E-02  -3.45955661E-04
  -1.18000004E-02  -3.53822834E-04
  -1.17499996E-02  -3.61907441E-04
  -1.16999997E-02  -3.70203430E-04
  -1.16499998E-02  -3.78701807E-04
  -1.15999999E-02  -3.87393171E-04
  -1.15499999E-02  -3.96270480E-04
  -1.15000000E-02  -4.05332132E-04
  -1.14500001E-02  -4.14582057E-04
  -1.14000002E-02  -4.24029276E-04
  -1.13500003E-02  -4.33684851E-04
  -1.13000004E-02  -4.43546567E-04
  -1.12500004E-02  -4.53603861E-04
  -1.11999996E-02  -4.63853183E-04
  -1.11499997E-02  -4.74297296E-04
  -1.10999998E-02  -4.84952470E-04
  -1.10499999E-02  -4.95846791E-04
  -1.09999999E-02  -5.07007935E-04
  -1.09500000E-02  -5.18462097E-04
  -1.09000001E-02  -5.30229765E-04
  -1.08500002E-02  -5.42315654E-04
  -1.08000003E-02  -5.54703060E-04
  -1.07500004E-02  -5.67359442E-04
  -1.07000005E-02  -5.80259133E-04
  -1.06499996E-02  -5.93389443E-04
  -1.05999997E-02  -6.06742164E-04
  -1.05499998E-02  -6.20317936E-04
  -1.04999999E-02  -6.34120894E-04
  -1.04499999E-02  -6.48165296E-04
  -1.04000000E-02  -6.62470702E-04
  -1.03500001E-02  -6.77044212E-04
  -1.03000002E-02  -6.91885652E-04
  -1.02500003E-02  -7.06992694E-04
  -1.02000004E-02  -7.22376455E-04
  -1.01500005E-02  -7.38063711E-04
  -1.00999996E-02  -7.54086999E-04
  -1.00499997E-02  -7.70470186E-04
  -9.99999978E-03  -7.87220953E-04
  -9.94999986E-03  -8.04338371E-04
  -9.89999995E-03  -8.21806723E-04
  -9.85000003E-03  -8.39613611E-04
  -9.80000012E-03  -8.57744366E-04
  -9.75000020E-03  -8.76171864E-04
  -9.70000029E-03  -8.94889992E-04
  -9.65000037E-03  -9.13920172E-04
  -9.60000046E-03  -9.33280680E-04
  -9.54999961E-03  -9.52987524E-04
  -9.49999969E-03  -9.73042857E-04
  -9.44999978E-03  -9.93427704E-04
  -9.39999986E-03  -1.01413054E-03
  -9.34999995E-03  -1.03514339E-03
  -9.30000003E-03  -1.05645938E-03
  -9.25000012E-03  -1.07807678E-03
  -9.20000020E-03  -1.10000547E-03
  -9.15000029E-03  -1.12228352E-03
  -9.10000037E-03  -1.14495342E-03
  -9.05000046E-03  -1.16803625E-03
  -8.99999961E-03  -1.19153445E-03
  -8.94999970E-03  -1.21542823E-03
  -8.89999978E-03  -1.23969780E-03
  -8.84999987E-03  -1.26435538E-03
  -8.79999995E-03  -1.28943147E-03
  -8.75000004E-03  -1.31493690E-03
  -8.70000012E-03  -1.34085689E-03
  -8.65000021E-03  -1.36718573E-03
  -8.60000029E-03  -1.39392191E-03
  -8.55000038E-03  -1.42107683E-03
  -8.50000046E-03  -1.44864956E-03
  -8.44999962E-03  -1.47659425E-03
  -8.39999970E-03  -1.50486547E-03
  -8.34999979E-03  -1.53346150E-03
  -8.29999987E-03  -1.56242540E-03
  -8.24999996E-03  -1.59180665E-03
  -8.20000004E-03  -1.62163354E-03
  -8.15000013E-03  -1.65189058E-03
  -8.10000021E-03  -1.68255367E-03
  -8.05000030E-03  -1.71361456E-03
  -8.00000038E-03  -1.74508651E-03
  -7.95000046E-03  -1.77698175E-03
  -7.89999962E-03  -1.80929666E-03
  -7.84999970E-03  -1.84203323E-03
  -7.79999979E-03  -1.87520951E-03
  -7.74999987E-03  -1.90887530E-03
  -7.69999996E-03  -1.94307452E-03
  -7.65000004E-03  -1.97779876E-03
  -7.60000013E-03  -2.01300019E-03
  -7.55000021E-03  -2.04864237E-03
  -7.49999983E-03  -2.08473112E-03
  -7.44999992E-03  -2.12129322E-03
  -7.40000000E-03  -2.15834030E-03
  -7.35000009E-03  -2.19586515E-03
  -7.30000017E-03  -2.23384798E-03
  -7.24999979E-03  -2.27229972E-03
  -7.19999988E-03  -2.31126207E-03
  -7.14999996E-03  -2.35075038E-03
  -7.10000005E-03  -2.39071227E-03
  -7.05000013E-03  -2.43107090E-03
  -7.00000022E-03  -2.47182650E-03
  -6.94999984E-03  -2.51305010E-03
  -6.89999992E-03  -2.55482155E-03
  -6.85000001E-03  -2.59716623E-03
  -6.80000009E-03  -2.64004292E-03
  -6.75000018E-03  -2.68339575E-03
  -6.69999979E-03  -2.72724056E-03
  -6.64999988E-03  -2.77165743E-03
  -6.59999996E-03  -2.81669851E-03
  -6.55000005E-03  -2.86229700E-03
  -6.50000013E-03  -2.90836277E-03
  -6.45000022E-03  -2.95495219E-03
  -6.39999984E-03  -3.00218794E-03
  -6.34999992E-03  -3.05012520E-03
  -6.30000001E-03  -3.09872208E-03
  -6.25000009E-03  -3.14790430E-03
  -6.20000018E-03  -3.19761829E-03
  -6.14999980E-03  -3.24786291E-03
  -6.09999988E-03  -3.29869869E-03
  -6.04999997E-03  -3.35014053E-03
  -6.00000005E-03  -3.40214674E-03
  -5.95000014E-03  -3.45471967E-03
  -5.90000022E-03  -3.50792892E-03
  -5.84999984E-03  -3.56182479E-03
  -5.79999993E-03  -3.61637515E-03
  -5.75000001E-03  -3.67152691E-03
  -5.70000010E-03  -3.72725003E-03
  -5.65000018E-03  -3.78354080E-03
  -5.59999980E-03  -3.84044182E-03
  -5.54999989E-03  -3.89805762E-03
  -5.49999997E-03  -3.95645341E-03
  -5.45000006E-03  -4.01558448E-03
  -5.40000014E-03  -4.07542661E-03
  -5.35000023E-03  -4.13600123E-03
  -5.29999984E-03  -4.19734418E-03
  -5.24999993E-03  -4.25945921E-03
  -5.20000001E-03  -4.32230346E-03
  -5.15000010E-03  -4.38584248E-03
  -5.10000018E-03  -4.45013773E-03
  -5.04999980E-03  -4.51528374E-03
  -4.99999989E-03  -4.58130240E-03
  -4.94999997E-03  -4.64815320E-03
  -4.90000006E-03  -4.71573882E-03
  -4.85000014E-03  -4.78398800E-03
  -4.80000023E-03  -4.85292869E-03
  -4.74999985E-03  -4.92258696E-03
  -4.69999993E-03  -4.99299262E-03
  -4.65000002E-03  -5.06415777E-03
  -4.60000010E-03  -5.13608940E-03
  -4.55000019E-03  -5.20888343E-03
  -4.49999981E-03  -5.28262556E-03
  -4.44999989E-03  -5.35732787E-03
  -4.39999998E-03  -5.43295592E-03
  -4.35000006E-03  -5.50940493E-03
  -4.30000015E-03  -5.58661576E-03
  -4.25000023E-03  -5.66465221E-03
  -4.19999985E-03  -5.74367866E-03
  -4.14999994E-03  -5.82383852E-03
  -4.10000002E-03  -5.90505358E-03
  -4.05000011E-03  -5.98717760E-03
  -4.00000019E-03  -6.07017661E-03
  -3.94999981E-03  -6.15410181E-03
  -3.89999989E-03  -6.23899605E-03
  -3.84999998E-03  -6.32480578E-03
  -3.80000006E-03  -6.41143508E-03
  -3.74999992E-03  -6.49881875E-03
  -3.70000000E-03  -6.58711744E-03
  -3.65000009E-03  -6.67660823E-03
  -3.59999994E-03  -6.76728459E-03
  -3.55000002E-03  -6.85890112E-03
  -3.50000011E-03  -6.95130276E-03
  -3.44999996E-03  -7.04461569E-03
  -3.40000005E-03  -7.13901315E-03
  -3.34999990E-03  -7.23444158E-03
  -3.29999998E-03  -7.33073521E-03
  -3.25000007E-03  -7.42792059E-03
  -3.19999992E-03  -7.52624776E-03
  -3.15000000E-03  -7.62590487E-03
  -3.10000009E-03  -7.72688584E-03
  -3.04999994E-03  -7.82895740E-03
  -3.00000003E-03  -7.93178938E-03
  -2.95000011E-03  -8.03544745E-03
  -2.89999996E-03  -8.14019050E-03
  -2.85000005E-03  -8.24612658E-03
  -2.79999990E-03  -8.35322402E-03
  -2.74999999E-03  -8.46139994E-03
  -2.70000007E-03  -8.57067760E-03
  -2.64999992E-03  -8.68118275E-03
  -2.60000001E-03  -8.79298430E-03
  -2.55000009E-03  -8.90587363E-03
  -2.49999994E-03  -9.01951175E-03
  -2.45000003E-03  -9.13391542E-03
  -2.40000011E-03  -9.24942922E-03
  -2.34999997E-03  -9.36628319E-03
  -2.30000005E-03  -9.48432554E-03
  -2.24999990E-03  -9.60335229E-03
  -2.19999999E-03  -9.72337928E-03
  -2.15000007E-03  -9.84460954E-03
  -2.09999993E-03  -9.96721629E-03
  -2.05000001E-03  -1.00909844E-02
  -2.00000009E-03  -1.02156410E-02
  -1.94999995E-03  -1.03411768E-02
  -1.90000003E-03  -1.04678925E-02
  -1.85000000E-03  -1.05960388E-02
  -1.79999997E-03  -1.07256528E-02
  -1.75000005E-03  -1.08566359E-02
  -1.70000002E-03  -1.09886965E-02
  -1.64999999E-03  -1.11217443E-02
  -1.59999996E-03  -1.12558501E-02
  -1.55000004E-03  -1.13910837E-02
  -1.50000001E-03  -1.15274368E-02
  -1.44999998E-03  -1.16648125E-02
  -1.39999995E-03  -1.18031036E-02
  -1.35000004E-03  -1.19425971E-02
  -1.30000000E-03  -1.20836841E-02
  -1.24999997E-03  -1.22261578E-02
  -1.20000006E-03  -1.23696933E-02
  -1.15000003E-03  -1.25140874E-02
  -1.09999999E-03  -1.26593085E-02
  -1.04999996E-03  -1.28055718E-02
  -1.00000005E-03  -1.29531724E-02
  -9.50000016E-04  -1.31020946E-02
  -8.99999985E-04  -1.32523188E-02
  -8.50000011E-04  -1.34040043E-02
  -7.99999980E-04  -1.35571072E-02
  -7.50000007E-04  -1.37113873E-02
  -6.99999975E-04  -1.38667263E-02
  -6.50000002E-04  -1.40230171E-02
  -6.00000028E-04  -1.41802542E-02
  -5.49999997E-04  -1.43387178E-02
  -5.00000024E-04  -1.44984499E-02
  -4.49999992E-04  -1.46593479E-02
  -3.99999990E-04  -1.48217380E-02
  -3.49999988E-04  -1.49857663E-02
  -3.00000014E-04  -1.51510425E-02
  -2.50000012E-04  -1.53171709E-02
  -1.99999995E-04  -1.54839680E-02
  -1.50000007E-04  -1.56518295E-02
  -9.99999975E-05  -1.58211198E-02
  -4.99999987E-05  -1.59917083E-02
   0.00000000      -1.61633492E-02
   4.99999987E-05  -1.63361579E-02
   9.99999975E-05  -1.65105816E-02
   1.50000007E-04  -1.66868437E-02
   1.99999995E-04  -1.68643687E-02
   2.50000012E-04  -1.70421991E-02
   3.00000014E-04  -1.72203090E-02
   3.49999988E-04  -1.73995923E-02
   3.99999990E-04  -1.75810326E-02
   4.49999992E-04  -1.77646838E-02
   5.00000024E-04  -1.79492775E-02
   5.49999997E-04  -1.81342624E-02
   6.00000028E-04  -1.83203258E-02
   6.50000002E-04  -1.85082536E-02
   6.99999975E-04  -1.86980683E-02
   7.50000007E-04  -1.88888367E-02
   7.99999980E-04  -1.90798417E-02
   8.50000011E-04  -1.92714985E-02
   8.99999985E-04  -1.94648020E-02
   9.50000016E-04  -1.96602009E-02
   1.00000005E-03  -1.98573004E-02
   1.04999996E-03  -2.00553741E-02
   1.09999999E-03  -2.02540085E-02
   1.15000003E-03  -2.04533543E-02
   1.20000006E-03  -2.06538644E-02
   1.24999997E-03  -2.08559502E-02
   1.30000000E-03  -2.10596174E-02
   1.35000004E-03  -2.12641358E-02
   1.39999995E-03  -2.14693230E-02
   1.44999998E-03  -2.16758978E-02
   1.50000001E-03  -2.18846258E-02
   1.55000004E-03  -2.20953412E-02
   1.59999996E-03  -2.23069564E-02
   1.64999999E-03  -2.25185547E-02
   1.70000002E-03  -2.27308143E-02
   1.75000005E-03  -2.29449105E-02
   1.79999997E-03  -2.31610797E-02
   1.85000000E-03  -2.33789627E-02
   1.90000003E-03  -2.35975645E-02
   1.94999995E-03  -2.38165315E-02
   2.00000009E-03  -2.40366627E-02
   2.05000001E-03  -2.42587887E-02
   2.09999993E-03  -2.44824030E-02
   2.15000007E-03  -2.47063246E-02
   2.19999999E-03  -2.49301270E-02
   2.24999990E-03  -2.51549035E-02
   2.30000005E-03  -2.53821611E-02
   2.34999997E-03  -2.56117713E-02
   2.40000011E-03  -2.58423910E-02
   2.45000003E-03  -2.60731764E-02
   2.49999994E-03  -2.63044164E-02
   2.55000009E-03  -2.65370458E-02
   2.60000001E-03  -2.67713591E-02
   2.64999992E-03  -2.70068385E-02
   2.70000007E-03  -2.72429399E-02
   2.74999999E-03  -2.74797082E-02
   2.79999990E-03  -2.77180374E-02