  -3.99999991E-02   0.00000000    
  -3.99499983E-02   0.00000000    
  -3.99000011E-02   0.00000000    
  -3.98500003E-02   0.00000000    
  -3.97999994E-02   0.00000000    
  -3.97499986E-02   4.46903753E-21
  -3.97000015E-02   3.43934946E-20
  -3.96500006E-02   1.37826669E-19
  -3.95999998E-02   3.86483494E-19
  -3.95499989E-02   8.66687327E-19
  -3.95000018E-02   1.68944413E-18
  -3.94500010E-02   3.01426580E-18
  -3.94000001E-02   5.02753718E-18
  -3.93499993E-02   7.82843814E-18
  -3.92999984E-02   1.12879879E-17
  -3.92500013E-02   1.50445194E-17
  -3.92000005E-02   1.87242125E-17
  -3.91499996E-02   2.22492940E-17
  -3.90999988E-02   2.59585522E-17
  -3.90500017E-02   3.04082677E-17
  -3.90000008E-02   3.60219918E-17
  -3.89500000E-02   4.28735752E-17
  -3.88999991E-02   5.06798672E-17
  -3.88499983E-02   5.88218126E-17
  -3.88000011E-02   6.62686219E-17
  -3.87500003E-02   7.15955856E-17
  -3.86999995E-02   7.33882845E-17
  -3.86499986E-02   7.09293412E-17
  -3.86000015E-02   6.45459289E-17
  -3.85500006E-02   5.50555401E-17
  -3.84999998E-02   4.25185195E-17
  -3.84499989E-02   2.52455986E-17
  -3.84000018E-02  -1.31180971E-19
  -3.83500010E-02  -3.76582676E-17
  -3.83000001E-02  -9.10048757E-17
  -3.82499993E-02  -1.62980614E-16
  -3.81999984E-02  -2.55427682E-16
  -3.81500013E-02  -3.68983328E-16
  -3.81000005E-02  -5.02818927E-16
  -3.80499996E-02  -6.55098617E-16
  -3.79999988E-02  -8.24488901E-16
  -3.79500017E-02  -1.01181124E-15
  -3.79000008E-02  -1.22034313E-15
  -3.78500000E-02  -1.45429416E-15
  -3.77999991E-02  -1.71672096E-15
  -3.77499983E-02  -2.00867553E-15
  -3.77000012E-02  -2.33002162E-15
  -3.76500003E-02  -2.68059882E-15
  -3.75999995E-02  -3.06024936E-15
  -3.75499986E-02  -3.46782277E-15
  -3.75000015E-02  -3.90062357E-15
  -3.74500006E-02  -4.35520286E-15
  -3.73999998E-02  -4.82860068E-15
  -3.73499990E-02  -5.31834878E-15
  -3.73000018E-02  -5.82089512E-15
  -3.72500010E-02  -6.32990178E-15
  -3.72000001E-02  -6.83587987E-15
  -3.71499993E-02  -7.32676469E-15
  -3.70999984E-02  -7.78772595E-15
  -3.70500013E-02  -8.19978630E-15
  -3.70000005E-02  -8.53938299E-15
  -3.69499996E-02  -8.78162086E-15
  -3.68999988E-02  -8.90708677E-15
  -3.68500017E-02  -8.90823958E-15
  -3.68000008E-02  -8.79055451E-15
  -3.67500000E-02  -8.56689123E-15
  -3.66999991E-02  -8.24790031E-15
  -3.66499983E-02  -7.83303967E-15
  -3.66000012E-02  -7.30525005E-15
  -3.65500003E-02  -6.63049514E-15
  -3.64999995E-02  -5.76277595E-15
  -3.64499986E-02  -4.65491403E-15
  -3.64000015E-02  -3.27271953E-15
  -3.63500006E-02  -1.60600644E-15
  -3.62999998E-02   3.31457862E-16
  -3.62499990E-02   2.51582444E-15
  -3.62000018E-02   4.93430827E-15
  -3.61500010E-02   7.60082728E-15
  -3.61000001E-02   1.05554086E-14
  -3.60499993E-02   1.38460122E-14
  -3.59999985E-02   1.75009967E-14
  -3.59500013E-02   2.15050400E-14
  -3.59000005E-02   2.57895427E-14
  -3.58499996E-02   3.02439246E-14
  -3.57999988E-02   3.47474904E-14
  -3.57500017E-02   3.92128177E-14
  -3.57000008E-02   4.36226711E-14
  -3.56500000E-02   4.80391958E-14
  -3.55999991E-02   5.25730413E-14
  -3.55499983E-02   5.73204272E-14
  -3.55000012E-02   6.22958851E-14
  -3.54500003E-02   6.73951116E-14
  -3.53999995E-02   7.24096347E-14
  -3.53499986E-02   7.70904269E-14
  -3.53000015E-02   8.12338952E-14
  -3.52500007E-02   8.47532155E-14
  -3.51999998E-02   8.77017236E-14
  -3.51499990E-02   9.02321566E-14
  -3.51000018E-02   9.25012223E-14
  -3.50500010E-02   9.45558261E-14
  -3.50000001E-02   9.62537680E-14
  -3.49499993E-02   9.72649560E-14
  -3.48999985E-02   9.71651416E-14
  -3.48500013E-02   9.55874309E-14
  -3.48000005E-02   9.23623496E-14
  -3.47499996E-02   8.75771217E-14
  -3.46999988E-02   8.15200365E-14
  -3.46500017E-02   7.45296023E-14
  -3.46000008E-02   6.68130102E-14
  -3.45500000E-02   5.83159213E-14
  -3.44999991E-02   4.87082264E-14
  -3.44499983E-02   3.75044708E-14
  -3.44000012E-02   2.42773195E-14
  -3.43500003E-02   8.87215089E-15
  -3.42999995E-02  -8.48304852E-15
  -3.42499986E-02  -2.72406694E-14
  -3.42000015E-02  -4.67581194E-14
  -3.41500007E-02  -6.65884381E-14
  -3.40999998E-02  -8.66985520E-14
  -3.40499990E-02  -1.07501132E-13
  -3.40000018E-02  -1.29669103E-13
  -3.39500010E-02  -1.53803240E-13
  -3.39000002E-02  -1.80095603E-13
  -3.38499993E-02  -2.08143303E-13
  -3.37999985E-02  -2.37010878E-13
  -3.37500013E-02  -2.65536372E-13
  -3.37000005E-02  -2.92762071E-13
  -3.36499996E-02  -3.18299125E-13
  -3.35999988E-02  -3.42445825E-13
  -3.35500017E-02  -3.65979247E-13
  -3.35000008E-02  -3.89694977E-13
  -3.34500000E-02  -4.13897839E-13
  -3.33999991E-02  -4.38085657E-13
  -3.33499983E-02  -4.60989591E-13
  -3.33000012E-02  -4.80974906E-13
  -3.32500003E-02  -4.96639297E-13
  -3.31999995E-02  -5.07346010E-13
  -3.31499986E-02  -5.13445027E-13
  -3.31000015E-02  -5.16058875E-13
  -3.30500007E-02  -5.16499387E-13
  -3.29999998E-02  -5.15557920E-13
  -3.29499990E-02  -5.12991125E-13
  -3.29000019E-02  -5.07459797E-13
  -3.28500010E-02  -4.96977947E-13
  -3.28000002E-02  -4.79690506E-13
  -3.27499993E-02  -4.54629363E-13
  -3.26999985E-02  -4.22092726E-13
  -3.26500013E-02  -3.83456260E-13
  -3.26000005E-02  -3.40486130E-13
  -3.25499997E-02  -2.94452966E-13
  -3.24999988E-02  -2.45451771E-13
  -3.24500017E-02  -1.92256204E-13
  -3.24000008E-02  -1.32811866E-13
  -3.23500000E-02  -6.51808319E-14
  -3.22999991E-02   1.14723540E-14
  -3.22499983E-02   9.63167195E-14
  -3.22000012E-02   1.87008015E-13
  -3.21500003E-02   2.80532596E-13
  -3.20999995E-02   3.74383874E-13
  -3.20499986E-02   4.67540069E-13
  -3.20000015E-02   5.60784709E-13
  -3.19500007E-02   6.56198620E-13
  -3.18999998E-02   7.56025993E-13
  -3.18499990E-02   8.61406432E-13
  -3.18000019E-02   9.71539038E-13
  -3.17500010E-02   1.08367525E-12
  -3.17000002E-02   1.19398133E-12
  -3.16499993E-02   1.29892169E-12
  -3.15999985E-02   1.39654889E-12
  -3.15500014E-02   1.48709972E-12
  -3.15000005E-02   1.57259687E-12
  -3.14499997E-02   1.65560003E-12
  -3.13999988E-02   1.73765884E-12
  -3.13500017E-02   1.81816671E-12
  -3.13000008E-02   1.89415129E-12
  -3.12500000E-02   1.96111270E-12
  -3.11999992E-02   2.01456386E-12
  -3.11500002E-02   2.05160671E-12
  -3.10999993E-02   2.07185072E-12
  -3.10500003E-02   2.07725200E-12
  -3.09999995E-02   2.07091982E-12
  -3.09500005E-02   2.05540489E-12
  -3.08999997E-02   2.03123282E-12
  -3.08500007E-02   1.99636748E-12
  -3.07999998E-02   1.94686888E-12
  -3.07500008E-02   1.87845898E-12
  -3.07000000E-02   1.78829792E-12
  -3.06499992E-02   1.67616496E-12
  -3.06000002E-02   1.54451397E-12
  -3.05499993E-02   1.39736801E-12
  -3.05000003E-02   1.23852718E-12
  -3.04499995E-02   1.06987032E-12
  -3.04000005E-02   8.90506310E-13
  -3.03499997E-02   6.97168939E-13
  -3.03000007E-02   4.85722031E-13
  -3.02499998E-02   2.53134671E-13
  -3.02000009E-02  -9.49691223E-16
  -3.01500000E-02  -2.73741506E-13
  -3.00999992E-02  -5.60153866E-13
  -3.00500002E-02  -8.54595203E-13
  -2.99999993E-02  -1.15292498E-12
  -2.99500003E-02  -1.45371963E-12
  -2.98999995E-02  -1.75832005E-12
  -2.98500005E-02  -2.06963483E-12
  -2.97999997E-02  -2.39021736E-12
  -2.97500007E-02  -2.72041417E-12
  -2.96999998E-02  -3.05738464E-12
  -2.96500009E-02  -3.39542500E-12
  -2.96000000E-02  -3.72748967E-12
  -2.95499992E-02  -4.04727207E-12
  -2.95000002E-02  -4.35096880E-12
  -2.94499993E-02  -4.63798184E-12
  -2.94000003E-02  -4.91028485E-12
  -2.93499995E-02  -5.17072539E-12
  -2.93000005E-02  -5.42097747E-12
  -2.92499997E-02  -5.65997423E-12
  -2.92000007E-02  -5.88343393E-12
  -2.91499998E-02  -6.08467400E-12
  -2.91000009E-02  -6.25639254E-12
  -2.90500000E-02  -6.39271578E-12
  -2.89999992E-02  -6.49068386E-12
  -2.89500002E-02  -6.55055914E-12
  -2.88999993E-02  -6.57482055E-12
  -2.88500004E-02  -6.56626619E-12
  -2.87999995E-02  -6.52601410E-12
  -2.87500005E-02  -6.45223415E-12
  -2.86999997E-02  -6.34014065E-12
  -2.86500007E-02  -6.18326831E-12
  -2.85999998E-02  -5.97558374E-12
  -2.85500009E-02  -5.71361057E-12
  -2.85000000E-02  -5.39770962E-12
  -2.84499992E-02  -5.03194751E-12
  -2.84000002E-02  -4.62248512E-12
  -2.83499993E-02  -4.17508302E-12
  -2.83000004E-02  -3.69270586E-12
  -2.82499995E-02  -3.17424624E-12
  -2.82000005E-02  -2.61499850E-12
  -2.81499997E-02  -2.00876251E-12
  -2.81000007E-02  -1.35079231E-12
  -2.80499998E-02  -6.40420659E-13
  -2.80000009E-02   1.17760605E-13
  -2.79500000E-02   9.14760997E-13
  -2.78999992E-02   1.73987712E-12
  -2.78500002E-02   2.58421279E-12
  -2.77999993E-02   3.44354861E-12
  -2.77500004E-02   4.31921816E-12
  -2.76999995E-02   5.21643232E-12
  -2.76500005E-02   6.14058587E-12
  -2.75999997E-02   7.09301107E-12
  -2.75500007E-02   8.06803756E-12
  -2.74999999E-02   9.05273946E-12
  -2.74500009E-02   1.00296759E-11
  -2.74000000E-02   1.09816739E-11
  -2.73499992E-02   1.18967327E-11
  -2.73000002E-02   1.27708920E-11
  -2.72499993E-02   1.36077226E-11
  -2.72000004E-02   1.44144054E-11
  -2.71499995E-02   1.51959192E-11
  -2.71000005E-02   1.59498352E-11
  -2.70499997E-02   1.66641163E-11
  -2.70000007E-02   1.73191635E-11
  -2.69499999E-02   1.78933760E-11
  -2.69000009E-02   1.83699965E-11
  -2.68500000E-02   1.87422005E-11
  -2.67999992E-02   1.90140542E-11
  -2.67500002E-02   1.91967345E-11
  -2.66999993E-02   1.93014268E-11
  -2.66500004E-02   1.93319354E-11
  -2.65999995E-02   1.92803221E-11
  -2.65500005E-02   1.91277688E-11
  -2.64999997E-02   1.88506242E-11
  -2.64500007E-02   1.84291749E-11
  -2.63999999E-02   1.78553370E-11
  -2.63500009E-02   1.71356627E-11
  -2.63000000E-02   1.62881219E-11
  -2.62499992E-02   1.53337950E-11
  -2.62000002E-02   1.42870915E-11
  -2.61499994E-02   1.31488570E-11
  -2.61000004E-02   1.19056969E-11
  -2.60499995E-02   1.05360460E-11
  -2.60000005E-02   9.02066009E-12
  -2.59499997E-02   7.35293337E-12
  -2.59000007E-02   5.54438873E-12
  -2.58499999E-02   3.62252676E-12
  -2.58000009E-02   1.62167415E-12
  -2.57500000E-02  -4.29465545E-13
  -2.56999992E-02  -2.51791817E-12
  -2.56500002E-02  -4.64958887E-12
  -2.55999994E-02  -6.84371700E-12
  -2.55500004E-02  -9.12083083E-12
  -2.54999995E-02  -1.14894162E-11
  -2.54500005E-02  -1.39371709E-11
  -2.53999997E-02  -1.64309972E-11
  -2.53500007E-02  -1.89259459E-11
  -2.52999999E-02  -2.13795197E-11
  -2.52500009E-02  -2.37650750E-11
  -2.52000000E-02  -2.60783010E-11
  -2.51499992E-02  -2.83335820E-11
  -2.51000002E-02  -3.05516445E-11
  -2.50499994E-02  -3.27438909E-11
  -2.50000004E-02  -3.49004090E-11
  -2.49499995E-02  -3.69872327E-11
  -2.49000005E-02  -3.89543293E-11
  -2.48499997E-02  -4.07510484E-11
  -2.48000007E-02  -4.23422929E-11
  -2.47499999E-02  -4.37182478E-11
  -2.47000009E-02  -4.48932974E-11
  -2.46500000E-02  -4.58942676E-11
  -2.45999992E-02  -4.67431094E-11
  -2.45500002E-02  -4.74416756E-11
  -2.44999994E-02  -4.79655378E-11
  -2.44500004E-02  -4.82698777E-11
  -2.43999995E-02  -4.83050232E-11
  -2.43500005E-02  -4.80348400E-11
  -2.42999997E-02  -4.74498218E-11
  -2.42500007E-02  -4.65689605E-11
  -2.41999999E-02  -4.54293929E-11
  -2.41500009E-02  -4.40683011E-11
  -2.41000000E-02  -4.25049926E-11
  -2.40499992E-02  -4.07311997E-11
  -2.40000002E-02  -3.87141014E-11
  -2.39499994E-02  -3.64109506E-11
  -2.39000004E-02  -3.37891000E-11
  -2.38499995E-02  -3.08425681E-11
  -2.38000005E-02  -2.75978667E-11
  -2.37499997E-02  -2.41062309E-11
  -2.37000007E-02  -2.04255259E-11
  -2.36499999E-02  -1.65996661E-11
  -2.36000009E-02  -1.26445989E-11
  -2.35500000E-02  -8.54696522E-12
  -2.34999992E-02  -4.27612720E-12
  -2.34500002E-02   1.95631597E-13
  -2.33999994E-02   4.87345624E-12
  -2.33500004E-02   9.72945856E-12
  -2.32999995E-02   1.47059621E-11
  -2.32500006E-02   1.97310900E-11
  -2.31999997E-02   2.47402897E-11
  -2.31500007E-02   2.96943060E-11
  -2.30999999E-02   3.45858689E-11
  -2.30500009E-02   3.94321485E-11
  -2.30000000E-02   4.42562653E-11
  -2.29499992E-02   4.90659284E-11
  -2.29000002E-02   5.38384753E-11
  -2.28499994E-02   5.85186344E-11
  -2.28000004E-02   6.30300534E-11
  -2.27499995E-02   6.72956760E-11
  -2.27000006E-02   7.12585338E-11
  -2.26499997E-02   7.48939036E-11
  -2.26000007E-02   7.82079748E-11
  -2.25499999E-02   8.12233683E-11
  -2.25000009E-02   8.39579586E-11
  -2.24500000E-02   8.64061392E-11
  -2.23999992E-02   8.85306065E-11
  -2.23500002E-02   9.02683206E-11
  -2.22999994E-02   9.15483245E-11
  -2.22500004E-02   9.23138579E-11
  -2.21999995E-02   9.25396357E-11
  -2.21500006E-02   9.22368640E-11
  -2.20999997E-02   9.14438664E-11
  -2.20500007E-02   9.02061065E-11
  -2.19999999E-02   8.85538726E-11
  -2.19500009E-02   8.64869149E-11
  -2.19000001E-02   8.39727454E-11
  -2.18499992E-02   8.09596348E-11
  -2.18000002E-02   7.73990871E-11
  -2.17499994E-02   7.32686273E-11
  -2.17000004E-02   6.85852486E-11
  -2.16499995E-02   6.34037753E-11
  -2.16000006E-02   5.78005803E-11
  -2.15499997E-02   5.18491500E-11
  -2.15000007E-02   4.55975223E-11
  -2.14499999E-02   3.90572089E-11
  -2.14000009E-02   3.22085310E-11
  -2.13500001E-02   2.50206505E-11
  -2.12999992E-02   1.74785013E-11
  -2.12500002E-02   9.60514567E-12
  -2.11999994E-02   1.47010550E-12
  -2.11500004E-02  -6.82062783E-12
  -2.10999995E-02  -1.51494338E-11
  -2.10500006E-02  -2.34167512E-11
  -2.09999997E-02  -3.15632485E-11
  -2.09500007E-02  -3.95749579E-11
  -2.08999999E-02  -4.74687789E-11
  -2.08500009E-02  -5.52637311E-11
  -2.08000001E-02  -6.29498884E-11
  -2.07499992E-02  -7.04684089E-11
  -2.07000002E-02  -7.77116496E-11
  -2.06499994E-02  -8.45444686E-11
  -2.06000004E-02  -9.08382605E-11
  -2.05499995E-02  -9.65036454E-11
  -2.05000006E-02  -1.01507240E-10
  -2.04499997E-02  -1.05865046E-10
  -2.04000007E-02  -1.09614005E-10
  -2.03499999E-02  -1.12773860E-10
  -2.03000009E-02  -1.15315632E-10
  -2.02500001E-02  -1.17151358E-10
  -2.01999992E-02  -1.18150295E-10
  -2.01500002E-02  -1.18176274E-10
  -2.00999994E-02  -1.17130694E-10
  -2.00500004E-02  -1.14982565E-10
  -1.99999996E-02  -1.11771856E-10
  -1.99500006E-02  -1.07583456E-10
  -1.98999997E-02  -1.02502284E-10
  -1.98500007E-02  -9.65687599E-11
  -1.97999999E-02  -8.97549049E-11
  -1.97500009E-02  -8.19726440E-11
  -1.97000001E-02  -7.31119817E-11
  -1.96499992E-02  -6.30934680E-11
  -1.96000002E-02  -5.19120996E-11
  -1.95499994E-02  -3.96530621E-11
  -1.95000004E-02  -2.64708498E-11
  -1.94499996E-02  -1.25396039E-11
  -1.94000006E-02   2.00434612E-12
  -1.93499997E-02   1.71024653E-11
  -1.93000007E-02   3.27776660E-11
  -1.92499999E-02   4.90986314E-11
  -1.92000009E-02   6.61192420E-11
  -1.91500001E-02   8.38195485E-11
  -1.90999992E-02   1.02074599E-10
  -1.90500002E-02   1.20665866E-10
  -1.89999994E-02   1.39331588E-10
  -1.89500004E-02   1.57834856E-10
  -1.88999996E-02   1.76019671E-10
  -1.88500006E-02   1.93829494E-10
  -1.87999997E-02   2.11278828E-10
  -1.87500007E-02   2.28389488E-10
  -1.86999999E-02   2.45118870E-10
  -1.86500009E-02   2.61312999E-10
  -1.86000001E-02   2.76705991E-10
  -1.85499992E-02   2.90967722E-10
  -1.85000002E-02   3.03779696E-10
  -1.84499994E-02   3.14906018E-10
  -1.84000004E-02   3.24227145E-10
  -1.83499996E-02   3.31720623E-10
  -1.83000006E-02   3.37396611E-10
  -1.82499997E-02   3.41215639E-10
  -1.82000007E-02   3.43025747E-10
  -1.81499999E-02   3.42547712E-10
  -1.81000009E-02   3.39416634E-10
  -1.80500001E-02   3.33262806E-10
  -1.79999992E-02   3.23796240E-10
  -1.79500002E-02   3.10856924E-10
  -1.78999994E-02   2.94407776E-10
  -1.78500004E-02   2.74472778E-10
  -1.77999996E-02   2.51046739E-10
  -1.77500006E-02   2.24016861E-10
  -1.76999997E-02   1.93132663E-10
  -1.76500008E-02   1.58039123E-10
  -1.75999999E-02   1.18358906E-10
  -1.75500009E-02   7.37891692E-11
  -1.75000001E-02   2.41686653E-11
  -1.74499992E-02  -3.05134945E-11
  -1.74000002E-02  -9.01748121E-11
  -1.73499994E-02  -1.54735613E-10
  -1.73000004E-02  -2.24213537E-10
  -1.72499996E-02  -2.98772285E-10
  -1.72000006E-02  -3.78704096E-10
  -1.71499997E-02  -4.64351169E-10
  -1.71000008E-02  -5.56001634E-10
  -1.70499999E-02  -6.53805288E-10
  -1.70000009E-02  -7.57747864E-10
  -1.69500001E-02  -8.67694583E-10
  -1.68999992E-02  -9.83484627E-10
  -1.68500002E-02  -1.10503517E-09
  -1.67999994E-02  -1.23240917E-09
  -1.67500004E-02  -1.36581446E-09
  -1.66999996E-02  -1.50553348E-09
  -1.66500006E-02  -1.65181757E-09
  -1.65999997E-02  -1.80478932E-09
  -1.65500008E-02  -1.96440109E-09
  -1.64999999E-02  -2.13046558E-09
  -1.64500009E-02  -2.30274422E-09
  -1.64000001E-02  -2.48105980E-09
  -1.63499992E-02  -2.66537659E-09
  -1.63000003E-02  -2.85581980E-09
  -1.62499994E-02  -3.05261949E-09
  -1.62000004E-02  -3.25600569E-09
  -1.61499996E-02  -3.46610229E-09
  -1.61000006E-02  -3.68286601E-09
  -1.60499997E-02  -3.90610255E-09
  -1.60000008E-02  -4.13554790E-09
  -1.59499999E-02  -4.37097869E-09
  -1.59000009E-02  -4.61230876E-09
  -1.58500001E-02  -4.85962071E-09
  -1.57999992E-02  -5.11313081E-09
  -1.57500003E-02  -5.37308686E-09
  -1.56999994E-02  -5.63965319E-09
  -1.56500004E-02  -5.91283733E-09
  -1.55999996E-02  -6.19247942E-09
  -1.55499997E-02  -6.47832987E-09
  -1.54999997E-02  -6.77015910E-09
  -1.54499998E-02  -7.06785874E-09
  -1.53999999E-02  -7.37149941E-09
  -1.53500000E-02  -7.68131336E-09
  -1.53000001E-02  -7.99760169E-09
  -1.52500002E-02  -8.32062597E-09
  -1.52000003E-02  -8.65051231E-09
  -1.51500003E-02  -8.98722430E-09
  -1.51000004E-02  -9.33061806E-09
  -1.50499996E-02  -9.68053993E-09
  -1.49999997E-02  -1.00369402E-08
  -1.49499997E-02  -1.03999458E-08
  -1.48999998E-02  -1.07698570E-08
  -1.48499999E-02  -1.11470753E-08
  -1.48000000E-02  -1.15319949E-08
  -1.47500001E-02  -1.19249002E-08
  -1.47000002E-02  -1.23259269E-08
  -1.46500003E-02  -1.27350823E-08
  -1.46000003E-02  -1.31523334E-08
  -1.45500004E-02  -1.35777203E-08
  -1.44999996E-02  -1.40114382E-08
  -1.44499997E-02  -1.44538594E-08
  -1.43999998E-02  -1.49054884E-08
  -1.43499998E-02  -1.53668509E-08
  -1.42999999E-02  -1.58383937E-08
  -1.42500000E-02  -1.63204170E-08
  -1.42000001E-02  -1.68131020E-08
  -1.41500002E-02  -1.73165695E-08
  -1.41000003E-02  -1.78309918E-08
  -1.40500003E-02  -1.83566709E-08
  -1.40000004E-02  -1.88940881E-08
  -1.39499996E-02  -1.94438581E-08
  -1.38999997E-02  -2.00066594E-08
  -1.38499998E-02  -2.05831352E-08
  -1.37999998E-02  -2.11737792E-08
  -1.37499999E-02  -2.17789538E-08
  -1.37000000E-02  -2.23989165E-08
  -1.36500001E-02  -2.30339499E-08
  -1.36000002E-02  -2.36844571E-08
  -1.35500003E-02  -2.43510083E-08
  -1.35000004E-02  -2.50343195E-08
  -1.34500004E-02  -2.57351882E-08
  -1.33999996E-02  -2.64543996E-08
  -1.33499997E-02  -2.71926499E-08
  -1.32999998E-02  -2.79504846E-08
  -1.32499998E-02  -2.87283406E-08
  -1.31999999E-02  -2.95266247E-08
  -1.31500000E-02  -3.03458343E-08
  -1.31000001E-02  -3.11866195E-08
  -1.30500002E-02  -3.20497868E-08
  -1.30000003E-02  -3.29362670E-08
  -1.29500004E-02  -3.38469945E-08
  -1.29000004E-02  -3.47828362E-08
  -1.28499996E-02  -3.57445238E-08
  -1.27999997E-02  -3.67326756E-08
  -1.27499998E-02  -3.77478564E-08
  -1.26999998E-02  -3.87906489E-08
  -1.26499999E-02  -3.98617459E-08
  -1.26000000E-02  -4.09620071E-08
  -1.25500001E-02  -4.20924415E-08
  -1.25000002E-02  -4.32541043E-08
  -1.24500003E-02  -4.44479902E-08
  -1.24000004E-02  -4.56750122E-08
  -1.23500004E-02  -4.69359840E-08
  -1.22999996E-02  -4.82316622E-08
  -1.22499997E-02  -4.95628640E-08
  -1.21999998E-02  -5.09304847E-08
  -1.21499998E-02  -5.23355510E-08
  -1.20999999E-02  -5.37792317E-08
  -1.20500000E-02  -5.52627917E-08
  -1.20000001E-02  -5.67874139E-08
  -1.19500002E-02  -5.83541535E-08
  -1.19000003E-02  -5.99639023E-08
  -1.18500004E-02  -6.16174987E-08
  -1.18000004E-02  -6.33158308E-08
  -1.17499996E-02  -6.50598793E-08
  -1.16999997E-02  -6.68507951E-08
  -1.16499998E-02  -6.86899426E-08
  -1.15999999E-02  -7.05788423E-08
  -1.15499999E-02  -7.25191143E-08
  -1.15000000E-02  -7.45123714E-08
  -1.14500001E-02  -7.65601058E-08
  -1.14000002E-02  -7.86636889E-08
  -1.13500003E-02  -8.08244138E-08
  -1.13000004E-02  -8.30435880E-08
  -1.12500004E-02  -8.53226467E-08
  -1.11999996E-02  -8.76630111E-08
  -1.11499997E-02  -9.00661519E-08
  -1.10999998E-02  -9.25334973E-08
  -1.10499999E-02  -9.50664969E-08
  -1.09999999E-02  -9.76666072E-08
  -1.09500000E-02  -1.00335264E-07
  -1.09000001E-02  -1.03074008E-07
  -1.08500002E-02  -1.05884524E-07
  -1.08000003E-02  -1.08768774E-07
  -1.07500004E-02  -1.11729079E-07
  -1.07000005E-02  -1.14767985E-07
  -1.06499996E-02  -1.17888050E-07
  -1.05999997E-02  -1.21091745E-07
  -1.05499998E-02  -1.24381387E-07
  -1.04999999E-02  -1.27759179E-07
  -1.04499999E-02  -1.31227125E-07
  -1.04000000E-02  -1.34787157E-07
  -1.03500001E-02  -1.38441067E-07
  -1.03000002E-02  -1.42190657E-07
  -1.02500003E-02  -1.46037891E-07
  -1.02000004E-02  -1.49984956E-07
  -1.01500005E-02  -1.54034041E-07
  -1.00999996E-02  -1.58187376E-07
  -1.00499997E-02  -1.62447250E-07
  -9.99999978E-03  -1.66816179E-07
  -9.94999986E-03  -1.71296904E-07
  -9.89999995E-03  -1.75892410E-07
  -9.85000003E-03  -1.80605852E-07
  -9.80000012E-03  -1.85440484E-07
  -9.75000020E-03  -1.90399632E-07
  -9.70000029E-03  -1.95486706E-07
  -9.65000037E-03  -2.00704932E-07
  -9.60000046E-03  -2.06057493E-07
  -9.54999961E-03  -2.11547373E-07
  -9.49999969E-03  -2.17177643E-07
  -9.44999978E-03  -2.22951385E-07
  -9.39999986E-03  -2.28871826E-07
  -9.34999995E-03  -2.34942092E-07
  -9.30000003E-03  -2.41165310E-07
  -9.25000012E-03  -2.47544676E-07
  -9.20000020E-03  -2.54083318E-07
  -9.15000029E-03  -2.60784248E-07
  -9.10000037E-03  -2.67650620E-07
  -9.05000046E-03  -2.74685533E-07
  -8.99999961E-03  -2.81892255E-07
  -8.94999970E-03  -2.89274283E-07
  -8.89999978E-03  -2.96835339E-07
  -8.84999987E-03  -3.04579260E-07
  -8.79999995E-03  -3.12510110E-07
  -8.75000004E-03  -3.20632012E-07
  -8.70000012E-03  -3.28949199E-07
  -8.65000021E-03  -3.37465963E-07
  -8.60000029E-03  -3.46186738E-07
  -8.55000038E-03  -3.55116100E-07
  -8.50000046E-03  -3.64258739E-07
  -8.44999962E-03  -3.73619201E-07
  -8.39999970E-03  -3.83201808E-07
  -8.34999979E-03  -3.93011163E-07
  -8.29999987E-03  -4.03051558E-07
  -8.24999996E-03  -4.13327342E-07
  -8.20000004E-03  -4.23842522E-07
  -8.15000013E-03  -4.34601162E-07
  -8.10000021E-03  -4.45607469E-07
  -8.05000030E-03  -4.56866047E-07
  -8.00000038E-03  -4.68381472E-07
  -7.95000046E-03  -4.80158008E-07
  -7.89999962E-03  -4.92200058E-07
  -7.84999970E-03  -5.04512002E-07
  -7.79999979E-03  -5.17098897E-07
  -7.74999987E-03  -5.29965575E-07
  -7.69999996E-03  -5.43117039E-07
  -7.65000004E-03  -5.56558348E-07
  -7.60000013E-03  -5.70295128E-07
  -7.55000021E-03  -5.84333122E-07
  -7.49999983E-03  -5.98678582E-07
  -7.44999992E-03  -6.13337420E-07
  -7.40000000E-03  -6.28315206E-07
  -7.35000009E-03  -6.43617796E-07
  -7.30000017E-03  -6.59251327E-07
  -7.24999979E-03  -6.75221827E-07
  -7.19999988E-03  -6.91535547E-07
  -7.14999996E-03  -7.08198570E-07
  -7.10000005E-03  -7.25216637E-07
  -7.05000013E-03  -7.42596058E-07
  -7.00000022E-03  -7.60342800E-07
  -6.94999984E-03  -7.78462777E-07
  -6.89999992E-03  -7.96961956E-07
  -6.85000001E-03  -8.15846249E-07
  -6.80000009E-03  -8.35121568E-07
  -6.75000018E-03  -8.54794621E-07
  -6.69999979E-03  -8.74872455E-07
  -6.64999988E-03  -8.95362120E-07
  -6.59999996E-03  -9.16270665E-07
  -6.55000005E-03  -9.37604909E-07
  -6.50000013E-03  -9.59371846E-07
  -6.45000022E-03  -9.81579092E-07
  -6.39999984E-03  -1.00423438E-06
  -6.34999992E-03  -1.02734555E-06
  -6.30000001E-03  -1.05092090E-06
  -6.25000009E-03  -1.07496840E-06
  -6.20000018E-03  -1.09949690E-06
  -6.14999980E-03  -1.12451585E-06
  -6.09999988E-03  -1.15003354E-06
  -6.04999997E-03  -1.17605839E-06
  -6.00000005E-03  -1.20259836E-06
  -5.95000014E-03  -1.22966185E-06
  -5.90000022E-03  -1.25725808E-06
  -5.84999984E-03  -1.28539602E-06
  -5.79999993E-03  -1.31408467E-06
  -5.75000001E-03  -1.34333266E-06
  -5.70000010E-03  -1.37314953E-06
  -5.65000018E-03  -1.40354439E-06
  -5.59999980E-03  -1.43452735E-06
  -5.54999989E-03  -1.46610728E-06
  -5.49999997E-03  -1.49829316E-06
  -5.45000006E-03  -1.53109488E-06
  -5.40000014E-03  -1.56452302E-06
  -5.35000023E-03  -1.59858871E-06
  -5.29999984E-03  -1.63330287E-06
  -5.24999993E-03  -1.66867653E-06
  -5.20000001E-03  -1.70472117E-06
  -5.15000010E-03  -1.74144805E-06
  -5.10000018E-03  -1.77886932E-06
  -5.04999980E-03  -1.81699670E-06
  -4.99999989E-03  -1.85584247E-06
  -4.94999997E-03  -1.89541834E-06
  -4.90000006E-03  -1.93573692E-06
  -4.85000014E-03  -1.97681197E-06
  -4.80000023E-03  -2.01865578E-06
  -4.74999985E-03  -2.06128038E-06
  -4.69999993E-03  -2.10469739E-06
  -4.65000002E-03  -2.14891975E-06
  -4.60000010E-03  -2.19395884E-06
  -4.55000019E-03  -2.23982761E-06
  -4.49999981E-03  -2.28653812E-06
  -4.44999989E-03  -2.33410378E-06
  -4.39999998E-03  -2.38253756E-06
  -4.35000006E-03  -2.43185400E-06
  -4.30000015E-03  -2.48206811E-06
  -4.25000023E-03  -2.53319399E-06
  -4.19999985E-03  -2.58524574E-06
  -4.14999994E-03  -2.63823699E-06
  -4.10000002E-03  -2.69218322E-06
  -4.05000011E-03  -2.74710123E-06
  -4.00000019E-03  -2.80300696E-06
  -3.94999981E-03  -2.85991655E-06
  -3.89999989E-03  -2.91784499E-06
  -3.84999998E-03  -2.97680822E-06
  -3.80000006E-03  -3.03682236E-06
  -3.74999992E-03  -3.09790380E-06
  -3.70000000E-03  -3.16006913E-06
  -3.65000009E-03  -3.22333267E-06
  -3.59999994E-03  -3.28770875E-06
  -3.55000002E-03  -3.35321397E-06
  -3.50000011E-03  -3.41986629E-06
  -3.44999996E-03  -3.48768322E-06
  -3.40000005E-03  -3.55668044E-06
  -3.34999990E-03  -3.62687274E-06
  -3.29999998E-03  -3.69827694E-06
  -3.25000007E-03  -3.77091101E-06
  -3.19999992E-03  -3.84479335E-06
  -3.15000000E-03  -3.91994035E-06
  -3.10000009E-03  -3.99636883E-06
  -3.04999994E-03  -4.07409743E-06
  -3.00000003E-03  -4.15314526E-06
  -2.95000011E-03  -4.23353231E-06
  -2.89999996E-03  -4.31527633E-06
  -2.85000005E-03  -4.39839414E-06
  -2.79999990E-03  -4.48290348E-06
  -2.74999999E-03  -4.56882344E-06
  -2.70000007E-03  -4.65617404E-06
  -2.64999992E-03  -4.74497438E-06
  -2.60000001E-03  -4.83524400E-06
  -2.55000009E-03  -4.92699974E-06
  -2.49999994E-03  -5.02026114E-06
  -2.45000003E-03  -5.11505004E-06
  -2.40000011E-03  -5.21138554E-06
  -2.34999997E-03  -5.30928446E-06
  -2.30000005E-03  -5.40876408E-06
  -2.24999990E-03  -5.50984169E-06
  -2.19999999E-03  -5.61253819E-06
  -2.15000007E-03  -5.71687451E-06
  -2.09999993E-03  -5.82286930E-06
  -2.05000001E-03  -5.93054074E-06
  -2.00000009E-03  -6.03990338E-06
  -1.94999995E-03  -6.15097906E-06
  -1.90000003E-03  -6.26378915E-06
  -1.85000000E-03  -6.37835456E-06
  -1.79999997E-03  -6.49469212E-06
  -1.75000005E-03  -6.61282093E-06
  -1.70000002E-03  -6.73276008E-06
  -1.64999999E-03  -6.85453324E-06
  -1.59999996E-03  -6.97816495E-06
  -1.55000004E-03  -7.10367112E-06
  -1.50000001E-03  -7.23107087E-06
  -1.44999998E-03  -7.36038237E-06
  -1.39999995E-03  -7.49162473E-06
  -1.35000004E-03  -7.62482341E-06
  -1.30000000E-03  -7.75999524E-06
  -1.24999997E-03  -7.89715705E-06
  -1.20000006E-03  -8.03632429E-06
  -1.15000003E-03  -8.17751788E-06
  -1.09999999E-03  -8.32075966E-06
  -1.04999996E-03  -8.46606690E-06
  -1.00000005E-03  -8.61345870E-06
  -9.50000016E-04  -8.76294871E-06
  -8.99999985E-04  -8.91455511E-06
  -8.50000011E-04  -9.06829882E-06
  -7.99999980E-04  -9.22420077E-06
  -7.50000007E-04  -9.38228368E-06
  -6.99999975E-04  -9.54256120E-06
  -6.50000002E-04  -9.70505062E-06
  -6.00000028E-04  -9.86977466E-06
  -5.49999997E-04  -1.00367533E-05
  -5.00000024E-04  -1.02060058E-05
  -4.49999992E-04  -1.03775474E-05
  -3.99999990E-04  -1.05513900E-05
  -3.49999988E-04  -1.07275546E-05
  -3.00000014E-04  -1.09060684E-05
  -2.50000012E-04  -1.10869469E-05
  -1.99999995E-04  -1.12702010E-05
  -1.50000007E-04  -1.14558470E-05
  -9.99999975E-05  -1.16439051E-05
  -4.99999987E-05  -1.18343896E-05
   0.00000000      -1.20273153E-05
   4.99999987E-05  -1.22227002E-05
   9.99999975E-05  -1.24205635E-05
   1.50000007E-04  -1.26209206E-05
   1.99999995E-04  -1.28237834E-05
   2.50000012E-04  -1.30291701E-05
   3.00000014E-04  -1.32370978E-05
   3.49999988E-04  -1.34475840E-05
   3.99999990E-04  -1.36606413E-05
   4.49999992E-04  -1.38762807E-05
   5.00000024E-04  -1.40945176E-05
   5.49999997E-04  -1.43153702E-05
   6.00000028E-04  -1.45388594E-05
   6.50000002E-04  -1.47649998E-05
   6.99999975E-04  -1.49937969E-05
   7.50000007E-04  -1.52252669E-05
   7.99999980E-04  -1.54594291E-05
   8.50000011E-04  -1.56962979E-05
   8.99999985E-04  -1.59358879E-05
   9.50000016E-04  -1.61782027E-05
   1.00000005E-03  -1.64232570E-05
   1.04999996E-03  -1.66710688E-05
   1.09999999E-03  -1.69216582E-05
   1.15000003E-03  -1.71750326E-05
   1.20000006E-03  -1.74311972E-05
   1.24999997E-03  -1.76901594E-05
   1.30000000E-03  -1.79519375E-05
   1.35000004E-03  -1.82165477E-05
   1.39999995E-03  -1.84840010E-05
   1.44999998E-03  -1.87543010E-05
   1.50000001E-03  -1.90274532E-05
   1.55000004E-03  -1.93034757E-05
   1.59999996E-03  -1.95823886E-05
   1.64999999E-03  -1.98641992E-05
   1.70000002E-03  -2.01489074E-05
   1.75000005E-03  -2.04365278E-05
   1.79999997E-03  -2.07270659E-05
   1.85000000E-03  -2.10205453E-05
   1.90000003E-03  -2.13169697E-05
   1.94999995E-03  -2.16163498E-05
   2.00000009E-03  -2.19186895E-05
   2.05000001E-03  -2.22240051E-05
   2.09999993E-03  -2.25323074E-05
   2.15000007E-03  -2.28435983E-05
   2.19999999E-03  -2.31578815E-05
   2.24999990E-03  -2.34751697E-05
   2.30000005E-03  -2.37954609E-05
   2.34999997E-03  -2.41187627E-05
   2.40000011E-03  -2.44450894E-05
   2.45000003E-03  -2.47744501E-05
   2.49999994E-03  -2.51068541E-05
   2.55000009E-03  -2.54423012E-05
   2.60000001E-03  -2.57807915E-05
   2.64999992E-03  -2.61223358E-05
   2.70000007E-03  -2.64669416E-05
   2.74999999E-03  -2.68146141E-05
   2.79999990E-03  -2.71653607E-05