  -3.99999991E-02   0.00000000    
  -3.99499983E-02   0.00000000    
  -3.99000011E-02   0.00000000    
  -3.98500003E-02   0.00000000    
  -3.97999994E-02  -5.23933098E-20
  -3.97499986E-02  -4.46399443E-19
  -3.97000015E-02  -1.99704892E-18
  -3.96500006E-02  -6.23553561E-18
  -3.95999998E-02  -1.53831903E-17
  -3.95499989E-02  -3.23895142E-17
  -3.95000018E-02  -6.13941127E-17
  -3.94500010E-02  -1.08192484E-16
  -3.94000001E-02  -1.79411928E-16
  -3.93499993E-02  -2.79775168E-16
  -3.92999984E-02  -4.09222104E-16
  -3.92500013E-02  -5.63255205E-16
  -3.92000005E-02  -7.37916628E-16
  -3.91499996E-02  -9.36280785E-16
  -3.90999988E-02  -1.17101945E-15
  -3.90500017E-02  -1.46074029E-15
  -3.90000008E-02  -1.82351265E-15
  -3.89500000E-02  -2.27278803E-15
  -3.88999991E-02  -2.81672866E-15
  -3.88499983E-02  -3.45739981E-15
  -3.88000011E-02  -4.18800491E-15
  -3.87500003E-02  -4.99262734E-15
  -3.86999995E-02  -5.85444694E-15
  -3.86499986E-02  -6.77010946E-15
  -3.86000015E-02  -7.75777402E-15
  -3.85500006E-02  -8.84771907E-15
  -3.84999998E-02  -1.00593887E-14
  -3.84499989E-02  -1.13826659E-14
  -3.84000018E-02  -1.27779562E-14
  -3.83500010E-02  -1.41916389E-14
  -3.83000001E-02  -1.55703646E-14
  -3.82499993E-02  -1.68641380E-14
  -3.81999984E-02  -1.80250322E-14
  -3.81500013E-02  -1.90136128E-14
  -3.81000005E-02  -1.98111723E-14
  -3.80499996E-02  -2.04209005E-14
  -3.79999988E-02  -2.08475425E-14
  -3.79500017E-02  -2.10691805E-14
  -3.79000008E-02  -2.10278724E-14
  -3.78500000E-02  -2.06484627E-14
  -3.77999991E-02  -1.98640661E-14
  -3.77499983E-02  -1.86184584E-14
  -3.77000012E-02  -1.68430062E-14
  -3.76500003E-02  -1.44381272E-14
  -3.75999995E-02  -1.12871629E-14
  -3.75499986E-02  -7.29379478E-15
  -3.75000015E-02  -2.40445273E-15
  -3.74500006E-02   3.40940608E-15
  -3.73999998E-02   1.01915402E-14
  -3.73499990E-02   1.80233720E-14
  -3.73000018E-02   2.70105356E-14
  -3.72500010E-02   3.72534069E-14
  -3.72000001E-02   4.88269940E-14
  -3.71499993E-02   6.17653105E-14
  -3.70999984E-02   7.60247374E-14
  -3.70500013E-02   9.14294275E-14
  -3.70000005E-02   1.07652439E-13
  -3.69499996E-02   1.24292503E-13
  -3.68999988E-02   1.41039293E-13
  -3.68500017E-02   1.57834330E-13
  -3.68000008E-02   1.74916166E-13
  -3.67500000E-02   1.92711041E-13
  -3.66999991E-02   2.11628011E-13
  -3.66499983E-02   2.31858424E-13
  -3.66000012E-02   2.53249380E-13
  -3.65500003E-02   2.75277116E-13
  -3.64999995E-02   2.97133439E-13
  -3.64499986E-02   3.17932855E-13
  -3.64000015E-02   3.36995297E-13
  -3.63500006E-02   3.54072430E-13
  -3.62999998E-02   3.69355561E-13
  -3.62499990E-02   3.83204075E-13
  -3.62000018E-02   3.95720159E-13
  -3.61500010E-02   4.06423593E-13
  -3.61000001E-02   4.14236272E-13
  -3.60499993E-02   4.17800045E-13
  -3.59999985E-02   4.15969939E-13
  -3.59500013E-02   4.08255542E-13
  -3.59000005E-02   3.95024508E-13
  -3.58499996E-02   3.77365402E-13
  -3.57999988E-02   3.56600383E-13
  -3.57500017E-02   3.33573176E-13
  -3.57000008E-02   3.07997958E-13
  -3.56500000E-02   2.78238912E-13
  -3.55999991E-02   2.41755617E-13
  -3.55499983E-02   1.96105583E-13
  -3.55000012E-02   1.40043562E-13
  -3.54500003E-02   7.41435721E-14
  -3.53999995E-02   5.97567874E-16
  -3.53499986E-02  -7.77424796E-14
  -3.53000015E-02  -1.58660913E-13
  -3.52500007E-02  -2.41653702E-13
  -3.51999998E-02  -3.28310594E-13
  -3.51499990E-02  -4.21762018E-13
  -3.51000018E-02  -5.25298609E-13
  -3.50500010E-02  -6.40660051E-13
  -3.50000001E-02  -7.66775369E-13
  -3.49499993E-02  -8.99671288E-13
  -3.48999985E-02  -1.03377257E-12
  -3.48500013E-02  -1.16408597E-12
  -3.48000005E-02  -1.28823601E-12
  -3.47499996E-02  -1.40732630E-12
  -3.46999988E-02  -1.52516281E-12
  -3.46500017E-02  -1.64615337E-12
  -3.46000008E-02  -1.77279144E-12
  -3.45500000E-02  -1.90383083E-12
  -3.44999991E-02  -2.03401293E-12
  -3.44499983E-02  -2.15562594E-12
  -3.44000012E-02  -2.26138552E-12
  -3.43500003E-02  -2.34742412E-12
  -3.42999995E-02  -2.41491159E-12
  -3.42499986E-02  -2.46930514E-12
  -3.42000015E-02  -2.51735004E-12
  -3.41500007E-02  -2.56314392E-12
  -3.40999998E-02  -2.60516500E-12
  -3.40499990E-02  -2.63579653E-12
  -3.40000018E-02  -2.64370817E-12
  -3.39500010E-02  -2.61813986E-12
  -3.39000002E-02  -2.55325470E-12
  -3.38499993E-02  -2.45060179E-12
  -3.37999985E-02  -2.31843624E-12
  -3.37500013E-02  -2.16791103E-12
  -3.37000005E-02  -2.00760003E-12
  -3.36499996E-02  -1.83879518E-12
  -3.35999988E-02  -1.65395746E-12
  -3.35500017E-02  -1.43939949E-12
  -3.35000008E-02  -1.18124488E-12
  -3.34500000E-02  -8.71992908E-13
  -3.33999991E-02  -5.14553298E-13
  -3.33499983E-02  -1.21715639E-13
  -3.33000012E-02   2.88902772E-13
  -3.32500003E-02   7.02334295E-13
  -3.31999995E-02   1.11290252E-12
  -3.31499986E-02   1.52698167E-12
  -3.31000015E-02   1.96034465E-12
  -3.30500007E-02   2.43087343E-12
  -3.29999998E-02   2.94962470E-12
  -3.29499990E-02   3.51432577E-12
  -3.29000019E-02   4.10859064E-12
  -3.28500010E-02   4.70760800E-12
  -3.28000002E-02   5.28792461E-12
  -3.27499993E-02   5.83681627E-12
  -3.26999985E-02   6.35681004E-12
  -3.26500013E-02   6.86307868E-12
  -3.26000005E-02   7.37471282E-12
  -3.25499997E-02   7.90367164E-12
  -3.24999988E-02   8.44640503E-12
  -3.24500017E-02   8.98215963E-12
  -3.24000008E-02   9.47925505E-12
  -3.23500000E-02   9.90701271E-12
  -3.22999991E-02   1.02481513E-11
  -3.22499983E-02   1.05057759E-11
  -3.22000012E-02   1.07012073E-11
  -3.21500003E-02   1.08631177E-11
  -3.20999995E-02   1.10126691E-11
  -3.20499986E-02   1.11515094E-11
  -3.20000015E-02   1.12583293E-11
  -3.19500007E-02   1.12958731E-11
  -3.18999998E-02   1.12255743E-11
  -3.18499990E-02   1.10235336E-11
  -3.18000019E-02   1.06906818E-11
  -3.17500010E-02   1.02522331E-11
  -3.17000002E-02   9.74606333E-12
  -3.16499993E-02   9.20473073E-12
  -3.15999985E-02   8.63916924E-12
  -3.15500014E-02   8.03186163E-12
  -3.15000005E-02   7.34324927E-12
  -3.14499997E-02   6.52895836E-12
  -3.13999988E-02   5.56020377E-12
  -3.13500017E-02   4.43798167E-12
  -3.13000008E-02   3.19441110E-12
  -3.12500000E-02   1.88027480E-12
  -3.11999992E-02   5.43997627E-13
  -3.11500002E-02  -7.88763803E-13
  -3.10999993E-02  -2.12572234E-12
  -3.10500003E-02  -3.50350153E-12
  -3.09999995E-02  -4.96942461E-12
  -3.09500005E-02  -6.55730982E-12
  -3.08999997E-02  -8.26829924E-12
  -3.08500007E-02  -1.00659724E-11
  -3.07999998E-02  -1.18885561E-11
  -3.07500008E-02  -1.36730783E-11
  -3.07000000E-02  -1.53804903E-11
  -3.06499992E-02  -1.70101936E-11
  -3.06000002E-02  -1.85971221E-11
  -3.05499993E-02  -2.01923131E-11
  -3.05000003E-02  -2.18352923E-11
  -3.04499995E-02  -2.35304571E-11
  -3.04000005E-02  -2.52383184E-11
  -3.03499997E-02  -2.68863994E-11
  -3.03000007E-02  -2.83957354E-11
  -3.02499998E-02  -2.97114763E-11
  -3.02000009E-02  -3.08235555E-11
  -3.01500000E-02  -3.17674324E-11
  -3.00999992E-02  -3.26040410E-11
  -3.00500002E-02  -3.33876607E-11
  -2.99999993E-02  -3.41362251E-11
  -2.99500003E-02  -3.48175724E-11
  -2.98999995E-02  -3.53581608E-11
  -2.98500005E-02  -3.56707996E-11
  -2.97999997E-02  -3.56896630E-11
  -2.97500007E-02  -3.53970950E-11
  -2.96999998E-02  -3.48299549E-11
  -2.96500009E-02  -3.40617187E-11
  -2.96000000E-02  -3.31675867E-11
  -2.95499992E-02  -3.21879988E-11
  -2.95000002E-02  -3.11072799E-11
  -2.94499993E-02  -2.98575956E-11
  -2.94000003E-02  -2.83468578E-11
  -2.93499995E-02  -2.64982619E-11
  -2.93000005E-02  -2.42838770E-11
  -2.92499997E-02  -2.17373185E-11
  -2.92000007E-02  -1.89397803E-11
  -2.91499998E-02  -1.59852496E-11
  -2.91000009E-02  -1.29399443E-11
  -2.90500000E-02  -9.81405669E-12
  -2.89999992E-02  -6.55890533E-12
  -2.89500002E-02  -3.09168988E-12
  -2.88999993E-02   6.62740967E-13
  -2.88500004E-02   4.73185120E-12
  -2.87999995E-02   9.07567597E-12
  -2.87500005E-02   1.35968233E-11
  -2.86999997E-02   1.81761411E-11
  -2.86500007E-02   2.27182786E-11
  -2.85999998E-02   2.71869489E-11
  -2.85500009E-02   3.16142043E-11
  -2.85000000E-02   3.60791640E-11
  -2.84499992E-02   4.06648430E-11
  -2.84000002E-02   4.54116154E-11
  -2.83499993E-02   5.02879023E-11
  -2.83000004E-02   5.51918546E-11
  -2.82499995E-02   5.99842467E-11
  -2.82000005E-02   6.45385551E-11
  -2.81499997E-02   6.87858312E-11
  -2.81000007E-02   7.27341590E-11
  -2.80499998E-02   7.64535657E-11
  -2.80000009E-02   8.00330149E-11
  -2.79500000E-02   8.35283787E-11
  -2.78999992E-02   8.69241762E-11
  -2.78500002E-02   9.01260455E-11
  -2.77999993E-02   9.29879368E-11
  -2.77500004E-02   9.53631965E-11
  -2.76999995E-02   9.71576430E-11
  -2.76500005E-02   9.83613260E-11
  -2.75999997E-02   9.90442173E-11
  -2.75500007E-02   9.93167770E-11
  -2.74999999E-02   9.92726387E-11
  -2.74500009E-02   9.89387669E-11
  -2.74000000E-02   9.82554454E-11
  -2.73499992E-02   9.70950612E-11
  -2.73000002E-02   9.53117169E-11
  -2.72499993E-02   9.27999136E-11
  -2.72000004E-02   8.95373289E-11
  -2.71499995E-02   8.55925955E-11
  -2.71000005E-02   8.10941453E-11
  -2.70499997E-02   7.61727903E-11
  -2.70000007E-02   7.09028877E-11
  -2.69499999E-02   6.52686030E-11
  -2.69000009E-02   5.91712096E-11
  -2.68500000E-02   5.24751249E-11
  -2.67999992E-02   4.50727164E-11
  -2.67500002E-02   3.69391497E-11
  -2.66999993E-02   2.81526087E-11
  -2.66500004E-02   1.88708129E-11
  -2.65999995E-02   9.27338154E-12
  -2.65500005E-02  -5.05292910E-13
  -2.64999997E-02  -1.04237018E-11
  -2.64500007E-02  -2.05398580E-11
  -2.63999999E-02  -3.09728250E-11
  -2.63500009E-02  -4.18344005E-11
  -2.63000000E-02  -5.31606530E-11
  -2.62499992E-02  -6.48741061E-11
  -2.62000002E-02  -7.67946887E-11
  -2.61499994E-02  -8.86956689E-11
  -2.61000004E-02  -1.00381016E-10
  -2.60499995E-02  -1.11749811E-10
  -2.60000005E-02  -1.22819643E-10
  -2.59499997E-02  -1.33698150E-10
  -2.59000007E-02  -1.44514040E-10
  -2.58499999E-02  -1.55336549E-10
  -2.58000009E-02  -1.66118536E-10
  -2.57500000E-02  -1.76688886E-10
  -2.56999992E-02  -1.86799118E-10
  -2.56500002E-02  -1.96205566E-10
  -2.55999994E-02  -2.04751383E-10
  -2.55500004E-02  -2.12411741E-10
  -2.54999995E-02  -2.19281204E-10
  -2.54500005E-02  -2.25507876E-10
  -2.53999997E-02  -2.31203404E-10
  -2.53500007E-02  -2.36368314E-10
  -2.52999999E-02  -2.40866382E-10
  -2.52500009E-02  -2.44460202E-10
  -2.52000000E-02  -2.46893644E-10
  -2.51499992E-02  -2.47986270E-10
  -2.51000002E-02  -2.47697945E-10
  -2.50499994E-02  -2.46134169E-10
  -2.50000004E-02  -2.43487092E-10
  -2.49499995E-02  -2.39936931E-10
  -2.49000005E-02  -2.35557268E-10
  -2.48499997E-02  -2.30267569E-10
  -2.48000007E-02  -2.23855726E-10
  -2.47499999E-02  -2.16061585E-10
  -2.47000009E-02  -2.06685558E-10
  -2.46500000E-02  -1.95674060E-10
  -2.45999992E-02  -1.83143986E-10
  -2.45500002E-02  -1.69333450E-10
  -2.44999994E-02  -1.54499386E-10
  -2.44500004E-02  -1.38805772E-10
  -2.43999995E-02  -1.22252639E-10
  -2.43500005E-02  -1.04679487E-10
  -2.42999997E-02  -8.58448174E-11
  -2.42500007E-02  -6.55474702E-11
  -2.41999999E-02  -4.37359350E-11
  -2.41500009E-02  -2.05554029E-11
  -2.41000000E-02   3.69028245E-12
  -2.40499992E-02   2.86461792E-11
  -2.40000002E-02   5.40368653E-11
  -2.39499994E-02   7.97621691E-11
  -2.39000004E-02   1.05915159E-10
  -2.38499995E-02   1.32712633E-10
  -2.38000005E-02   1.60366512E-10
  -2.37499997E-02   1.88952257E-10
  -2.37000007E-02   2.18333199E-10
  -2.36499999E-02   2.48176674E-10
  -2.36000009E-02   2.78057743E-10
  -2.35500000E-02   3.07604608E-10
  -2.34999992E-02   3.36619815E-10
  -2.34500002E-02   3.65122488E-10
  -2.33999994E-02   3.93291399E-10
  -2.33500004E-02   4.21333718E-10
  -2.32999995E-02   4.49337345E-10
  -2.32500006E-02   4.77174300E-10
  -2.31999997E-02   5.04497166E-10
  -2.31500007E-02   5.30834932E-10
  -2.30999999E-02   5.55746171E-10
  -2.30500009E-02   5.78961767E-10
  -2.30000000E-02   6.00453465E-10
  -2.29499992E-02   6.20391960E-10
  -2.29000002E-02   6.39013620E-10
  -2.28499994E-02   6.56455001E-10
  -2.28000004E-02   6.72630729E-10
  -2.27499995E-02   6.87210955E-10
  -2.27000006E-02   6.99710456E-10
  -2.26499997E-02   7.09650561E-10
  -2.26000007E-02   7.16720849E-10
  -2.25499999E-02   7.20870419E-10
  -2.25000009E-02   7.22283788E-10
  -2.24500000E-02   7.21251336E-10
  -2.23999992E-02   7.17989779E-10
  -2.23500002E-02   7.12492287E-10
  -2.22999994E-02   7.04479308E-10
  -2.22500004E-02   6.93473223E-10
  -2.21999995E-02   6.78966661E-10
  -2.21500006E-02   6.60607069E-10
  -2.20999997E-02   6.38314512E-10
  -2.20500007E-02   6.12279061E-10
  -2.19999999E-02   5.82838999E-10
  -2.19500009E-02   5.50293255E-10
  -2.19000001E-02   5.14732534E-10
  -2.18499992E-02   4.75963602E-10
  -2.18000002E-02   4.33564407E-10
  -2.17499994E-02   3.87046450E-10
  -2.17000004E-02   3.36052103E-10
  -2.16499995E-02   2.80497264E-10
  -2.16000006E-02   2.20593502E-10
  -2.15499997E-02   1.56736277E-10
  -2.15000007E-02   8.93110516E-11
  -2.14499999E-02   1.85044341E-11
  -2.14000009E-02  -5.57930611E-11
  -2.13500001E-02  -1.33949435E-10
  -2.12999992E-02  -2.16435106E-10
  -2.12500002E-02  -3.03618380E-10
  -2.11999994E-02  -3.95604827E-10
  -2.11500004E-02  -4.92192120E-10
  -2.10999995E-02  -5.92963623E-10
  -2.10500006E-02  -6.97478575E-10
  -2.09999997E-02  -8.05475853E-10
  -2.09500007E-02  -9.16993148E-10
  -2.08999999E-02  -1.03234987E-09
  -2.08500009E-02  -1.15199617E-09
  -2.08000001E-02  -1.27629918E-09
  -2.07499992E-02  -1.40536816E-09
  -2.07000002E-02  -1.53899249E-09
  -2.06499994E-02  -1.67672620E-09
  -2.06000004E-02  -1.81807436E-09
  -2.05499995E-02  -1.96270977E-09
  -2.05000006E-02  -2.11061146E-09
  -2.04499997E-02  -2.26207053E-09
  -2.04000007E-02  -2.41755127E-09
  -2.03499999E-02  -2.57747090E-09
  -2.03000009E-02  -2.74200329E-09
  -2.02500001E-02  -2.91099078E-09
  -2.01999992E-02  -3.08400439E-09
  -2.01500002E-02  -3.26052918E-09
  -2.00999994E-02  -3.44018813E-09
  -2.00500004E-02  -3.62289931E-09
  -1.99999996E-02  -3.80890208E-09
  -1.99500006E-02  -3.99863564E-09
  -1.98999997E-02  -4.19253343E-09
  -1.98500007E-02  -4.39081882E-09
  -1.97999999E-02  -4.59339411E-09
  -1.97500009E-02  -4.79988360E-09
  -1.97000001E-02  -5.00979924E-09
  -1.96499992E-02  -5.22276977E-09
  -1.96000002E-02  -5.43871126E-09
  -1.95499994E-02  -5.65787195E-09
  -1.95000004E-02  -5.88072524E-09
  -1.94499996E-02  -6.10776096E-09
  -1.94000006E-02  -6.33927799E-09
  -1.93499997E-02  -6.57526700E-09
  -1.93000007E-02  -6.81543844E-09
  -1.92499999E-02  -7.05937353E-09
  -1.92000009E-02  -7.30674410E-09
  -1.91500001E-02  -7.55749507E-09
  -1.90999992E-02  -7.81190579E-09
  -1.90500002E-02  -8.07050160E-09
  -1.89999994E-02  -8.33385982E-09
  -1.89500004E-02  -8.60238547E-09
  -1.88999996E-02  -8.87617446E-09
  -1.88500006E-02  -9.15503140E-09
  -1.87999997E-02  -9.43862499E-09
  -1.87500007E-02  -9.72670122E-09
  -1.86999999E-02  -1.00192743E-08
  -1.86500009E-02  -1.03166933E-08
  -1.86000001E-02  -1.06195657E-08
  -1.85499992E-02  -1.09285816E-08
  -1.85000002E-02  -1.12442962E-08
  -1.84499994E-02  -1.15669838E-08
  -1.84000004E-02  -1.18966188E-08
  -1.83499996E-02  -1.22330066E-08
  -1.83000006E-02  -1.25760007E-08
  -1.82499997E-02  -1.29257085E-08
  -1.82000007E-02  -1.32825839E-08
  -1.81499999E-02  -1.36473570E-08
  -1.81000009E-02  -1.40208476E-08
  -1.80500001E-02  -1.44037529E-08
  -1.79999992E-02  -1.47965213E-08
  -1.79500002E-02  -1.51993191E-08
  -1.78999994E-02  -1.56121285E-08
  -1.78500004E-02  -1.60349529E-08
  -1.77999996E-02  -1.64680181E-08
  -1.77500006E-02  -1.69118888E-08
  -1.76999997E-02  -1.73674177E-08
  -1.76500008E-02  -1.78355837E-08
  -1.75999999E-02  -1.83172713E-08
  -1.75500009E-02  -1.88131217E-08
  -1.75000001E-02  -1.93235064E-08
  -1.74499992E-02  -1.98486418E-08
  -1.74000002E-02  -2.03887627E-08
  -1.73499994E-02  -2.09443165E-08
  -1.73000004E-02  -2.15160796E-08
  -1.72499996E-02  -2.21050840E-08
  -1.72000006E-02  -2.27125039E-08
  -1.71499997E-02  -2.33394335E-08
  -1.71000008E-02  -2.39867326E-08
  -1.70499999E-02  -2.46549465E-08
  -1.70000009E-02  -2.53444377E-08
  -1.69500001E-02  -2.60555790E-08
  -1.68999992E-02  -2.67889675E-08
  -1.68500002E-02  -2.75455303E-08
  -1.67999994E-02  -2.83264878E-08
  -1.67500004E-02  -2.91331865E-08
  -1.66999996E-02  -2.99669196E-08
  -1.66500006E-02  -3.08287760E-08
  -1.65999997E-02  -3.17195870E-08
  -1.65500008E-02  -3.26399601E-08
  -1.64999999E-02  -3.35904886E-08
  -1.64500009E-02  -3.45719329E-08
  -1.64000001E-02  -3.55853693E-08
  -1.63499992E-02  -3.66321906E-08
  -1.63000003E-02  -3.77139244E-08
  -1.62499994E-02  -3.88320416E-08
  -1.62000004E-02  -3.99877713E-08
  -1.61499996E-02  -4.11820693E-08
  -1.61000006E-02  -4.24157065E-08
  -1.60499997E-02  -4.36894290E-08
  -1.60000008E-02  -4.50041284E-08
  -1.59499999E-02  -4.63609773E-08
  -1.59000009E-02  -4.77614606E-08
  -1.58500001E-02  -4.92072267E-08
  -1.57999992E-02  -5.06998781E-08
  -1.57500003E-02  -5.22407930E-08
  -1.56999994E-02  -5.38310587E-08
  -1.56500004E-02  -5.54715633E-08
  -1.55999996E-02  -5.71631595E-08
  -1.55499997E-02  -5.89068492E-08
  -1.54999997E-02  -6.07039112E-08
  -1.54499998E-02  -6.25559053E-08
  -1.53999999E-02  -6.44645795E-08
  -1.53500000E-02  -6.64315891E-08
  -1.53000001E-02  -6.84583981E-08
  -1.52500002E-02  -7.05461503E-08
  -1.52000003E-02  -7.26957339E-08
  -1.51500003E-02  -7.49080442E-08
  -1.51000004E-02  -7.71840973E-08
  -1.50499996E-02  -7.95252149E-08
  -1.49999997E-02  -8.19330097E-08
  -1.49499997E-02  -8.44092796E-08
  -1.48999998E-02  -8.69558150E-08
  -1.48499999E-02  -8.95741650E-08
  -1.48000000E-02  -9.22656085E-08
  -1.47500001E-02  -9.50310906E-08
  -1.47000002E-02  -9.78715207E-08
  -1.46500003E-02  -1.00787993E-07
  -1.46000003E-02  -1.03781879E-07
  -1.45500004E-02  -1.06854912E-07
  -1.44999996E-02  -1.10008912E-07
  -1.44499997E-02  -1.13245754E-07
  -1.43999998E-02  -1.16567143E-07
  -1.43499998E-02  -1.19974530E-07
  -1.42999999E-02  -1.23469022E-07
  -1.42500000E-02  -1.27051706E-07
  -1.42000001E-02  -1.30723734E-07
  -1.41500002E-02  -1.34486598E-07
  -1.41000003E-02  -1.38342216E-07
  -1.40500003E-02  -1.42292663E-07
  -1.40000004E-02  -1.46340028E-07
  -1.39499996E-02  -1.50486130E-07
  -1.38999997E-02  -1.54732589E-07
  -1.38499998E-02  -1.59080813E-07
  -1.37999998E-02  -1.63532107E-07
  -1.37499999E-02  -1.68087922E-07
  -1.37000000E-02  -1.72750077E-07
  -1.36500001E-02  -1.77520732E-07
  -1.36000002E-02  -1.82402317E-07
  -1.35500003E-02  -1.87397347E-07
  -1.35000004E-02  -1.92508224E-07
  -1.34500004E-02  -1.97736895E-07
  -1.33999996E-02  -2.03085179E-07
  -1.33499997E-02  -2.08554695E-07
  -1.32999998E-02  -2.14147278E-07
  -1.32499998E-02  -2.19865171E-07
  -1.31999999E-02  -2.25711076E-07
  -1.31500000E-02  -2.31687906E-07
  -1.31000001E-02  -2.37798744E-07
  -1.30500002E-02  -2.44046504E-07
  -1.30000003E-02  -2.50433828E-07
  -1.29500004E-02  -2.56963119E-07
  -1.29000004E-02  -2.63636736E-07
  -1.28499996E-02  -2.70457150E-07
  -1.27999997E-02  -2.77427176E-07
  -1.27499998E-02  -2.84550083E-07
  -1.26999998E-02  -2.91829679E-07
  -1.26499999E-02  -2.99269828E-07
  -1.26000000E-02  -3.06874426E-07
  -1.25500001E-02  -3.14647110E-07
  -1.25000002E-02  -3.22591092E-07
  -1.24500003E-02  -3.30709696E-07
  -1.24000004E-02  -3.39006363E-07
  -1.23500004E-02  -3.47484956E-07
  -1.22999996E-02  -3.56149712E-07
  -1.22499997E-02  -3.65005150E-07
  -1.21999998E-02  -3.74056071E-07
  -1.21499998E-02  -3.83307110E-07
  -1.20999999E-02  -3.92762672E-07
  -1.20500000E-02  -4.02426735E-07
  -1.20000001E-02  -4.12303393E-07
  -1.19500002E-02  -4.22397022E-07
  -1.19000003E-02  -4.32712426E-07
  -1.18500004E-02  -4.43255090E-07
  -1.18000004E-02  -4.54030925E-07
  -1.17499996E-02  -4.65046384E-07
  -1.16999997E-02  -4.76307918E-07
  -1.16499998E-02  -4.87821751E-07
  -1.15999999E-02  -4.99593568E-07
  -1.15499999E-02  -5.11628912E-07
  -1.15000000E-02  -5.23933181E-07
  -1.14500001E-02  -5.36512175E-07
  -1.14000002E-02  -5.49371862E-07
  -1.13500003E-02  -5.62518892E-07
  -1.13000004E-02  -5.75959973E-07
  -1.12500004E-02  -5.89701699E-07
  -1.11999996E-02  -6.03750834E-07
  -1.11499997E-02  -6.18114029E-07
  -1.10999998E-02  -6.32797594E-07
  -1.10499999E-02  -6.47808577E-07
  -1.09999999E-02  -6.63154708E-07
  -1.09500000E-02  -6.78844287E-07
  -1.09000001E-02  -6.94886239E-07
  -1.08500002E-02  -7.11290227E-07
  -1.08000003E-02  -7.28065743E-07
  -1.07500004E-02  -7.45221598E-07
  -1.07000005E-02  -7.62765808E-07
  -1.06499996E-02  -7.80706216E-07
  -1.05999997E-02  -7.99050781E-07
  -1.05499998E-02  -8.17807688E-07
  -1.04999999E-02  -8.36985066E-07
  -1.04499999E-02  -8.56591271E-07
  -1.04000000E-02  -8.76635340E-07
  -1.03500001E-02  -8.97127052E-07
  -1.03000002E-02  -9.18075955E-07
  -1.02500003E-02  -9.39491485E-07
  -1.02000004E-02  -9.61382511E-07
  -1.01500005E-02  -9.83758355E-07
  -1.00999996E-02  -1.00662896E-06
  -1.00499997E-02  -1.03000559E-06
  -9.99999978E-03  -1.05389972E-06
  -9.94999986E-03  -1.07832295E-06
  -9.89999995E-03  -1.10328710E-06
  -9.85000003E-03  -1.12880355E-06
  -9.80000012E-03  -1.15488388E-06
  -9.75000020E-03  -1.18153969E-06
  -9.70000029E-03  -1.20878110E-06
  -9.65000037E-03  -1.23661925E-06
  -9.60000046E-03  -1.26506586E-06
  -9.54999961E-03  -1.29413309E-06
  -9.49999969E-03  -1.32383434E-06
  -9.44999978E-03  -1.35418179E-06
  -9.39999986E-03  -1.38518715E-06
  -9.34999995E-03  -1.41686235E-06
  -9.30000003E-03  -1.44921898E-06
  -9.25000012E-03  -1.48226854E-06
  -9.20000020E-03  -1.51602262E-06
  -9.15000029E-03  -1.55049270E-06
  -9.10000037E-03  -1.58569185E-06
  -9.05000046E-03  -1.62163462E-06
  -8.99999961E-03  -1.65833569E-06
  -8.94999970E-03  -1.69580971E-06
  -8.89999978E-03  -1.73406977E-06
  -8.84999987E-03  -1.77312961E-06
  -8.79999995E-03  -1.81300322E-06
  -8.75000004E-03  -1.85370595E-06
  -8.70000012E-03  -1.89525304E-06
  -8.65000021E-03  -1.93765914E-06
  -8.60000029E-03  -1.98093949E-06
  -8.55000038E-03  -2.02510910E-06
  -8.50000046E-03  -2.07018525E-06
  -8.44999962E-03  -2.11618317E-06
  -8.39999970E-03  -2.16311764E-06
  -8.34999979E-03  -2.21100095E-06
  -8.29999987E-03  -2.25984741E-06
  -8.24999996E-03  -2.30967203E-06
  -8.20000004E-03  -2.36049254E-06
  -8.15000013E-03  -2.41232465E-06
  -8.10000021E-03  -2.46518516E-06
  -8.05000030E-03  -2.51908841E-06
  -8.00000038E-03  -2.57405100E-06
  -7.95000046E-03  -2.63008906E-06
  -7.89999962E-03  -2.68721897E-06
  -7.84999970E-03  -2.74545573E-06
  -7.79999979E-03  -2.80481527E-06
  -7.74999987E-03  -2.86531576E-06
  -7.69999996E-03  -2.92697609E-06
  -7.65000004E-03  -2.98981604E-06
  -7.60000013E-03  -3.05385379E-06
  -7.55000021E-03  -3.11910594E-06
  -7.49999983E-03  -3.18559000E-06
  -7.44999992E-03  -3.25332394E-06
  -7.40000000E-03  -3.32232685E-06
  -7.35000009E-03  -3.39261601E-06
  -7.30000017E-03  -3.46420984E-06
  -7.24999979E-03  -3.53712585E-06
  -7.19999988E-03  -3.61138450E-06
  -7.14999996E-03  -3.68700671E-06
  -7.10000005E-03  -3.76401272E-06
  -7.05000013E-03  -3.84241957E-06
  -7.00000022E-03  -3.92224229E-06
  -6.94999984E-03  -4.00349882E-06
  -6.89999992E-03  -4.08620963E-06
  -6.85000001E-03  -4.17039610E-06
  -6.80000009E-03  -4.25607732E-06
  -6.75000018E-03  -4.34327239E-06
  -6.69999979E-03  -4.43199997E-06
  -6.64999988E-03  -4.52228142E-06
  -6.59999996E-03  -4.61413902E-06
  -6.55000005E-03  -4.70759414E-06
  -6.50000013E-03  -4.80266317E-06
  -6.45000022E-03  -4.89936565E-06
  -6.39999984E-03  -4.99772386E-06
  -6.34999992E-03  -5.09776237E-06
  -6.30000001E-03  -5.19950618E-06
  -6.25000009E-03  -5.30297575E-06
  -6.20000018E-03  -5.40819337E-06
  -6.14999980E-03  -5.51517951E-06
  -6.09999988E-03  -5.62395735E-06
  -6.04999997E-03  -5.73454872E-06
  -6.00000005E-03  -5.84697409E-06
  -5.95000014E-03  -5.96125574E-06
  -5.90000022E-03  -6.07741504E-06
  -5.84999984E-03  -6.19547973E-06
  -5.79999993E-03  -6.31547391E-06
  -5.75000001E-03  -6.43741987E-06
  -5.70000010E-03  -6.56133898E-06
  -5.65000018E-03  -6.68725443E-06
  -5.59999980E-03  -6.81518713E-06
  -5.54999989E-03  -6.94515984E-06
  -5.49999997E-03  -7.07719664E-06
  -5.45000006E-03  -7.21132574E-06
  -5.40000014E-03  -7.34757259E-06
  -5.35000023E-03  -7.48596494E-06
  -5.29999984E-03  -7.62652780E-06
  -5.24999993E-03  -7.76928755E-06
  -5.20000001E-03  -7.91426828E-06
  -5.15000010E-03  -8.06149910E-06
  -5.10000018E-03  -8.21100275E-06
  -5.04999980E-03  -8.36280924E-06
  -4.99999989E-03  -8.51694858E-06
  -4.94999997E-03  -8.67345079E-06
  -4.90000006E-03  -8.83234407E-06
  -4.85000014E-03  -8.99365750E-06
  -4.80000023E-03  -9.15741566E-06
  -4.74999985E-03  -9.32364583E-06
  -4.69999993E-03  -9.49237256E-06
  -4.65000002E-03  -9.66362313E-06
  -4.60000010E-03  -9.83742757E-06
  -4.55000019E-03  -1.00138132E-05
  -4.49999981E-03  -1.01928117E-05
  -4.44999989E-03  -1.03744596E-05
  -4.39999998E-03  -1.05587824E-05
  -4.35000006E-03  -1.07458145E-05
  -4.30000015E-03  -1.09355851E-05
  -4.25000023E-03  -1.11281215E-05
  -4.19999985E-03  -1.13234528E-05
  -4.14999994E-03  -1.15216117E-05
  -4.10000002E-03  -1.17226427E-05
  -4.05000011E-03  -1.19265787E-05
  -4.00000019E-03  -1.21334551E-05
  -3.94999981E-03  -1.23433019E-05
  -3.89999989E-03  -1.25561528E-05
  -3.84999998E-03  -1.27720432E-05
  -3.80000006E-03  -1.29910068E-05
  -3.74999992E-03  -1.32130745E-05
  -3.70000000E-03  -1.34382763E-05
  -3.65000009E-03  -1.36666486E-05
  -3.59999994E-03  -1.38982323E-05
  -3.55000002E-03  -1.41330675E-05
  -3.50000011E-03  -1.43711886E-05
  -3.44999996E-03  -1.46126295E-05
  -3.40000005E-03  -1.48574209E-05
  -3.34999990E-03  -1.51056001E-05
  -3.29999998E-03  -1.53572037E-05
  -3.25000007E-03  -1.56122678E-05
  -3.19999992E-03  -1.58708226E-05
  -3.15000000E-03  -1.61329153E-05
  -3.10000009E-03  -1.63985915E-05
  -3.04999994E-03  -1.66678929E-05
  -3.00000003E-03  -1.69408577E-05
  -2.95000011E-03  -1.72175151E-05
  -2.89999996E-03  -1.74979032E-05
  -2.85000005E-03  -1.77820621E-05
  -2.79999990E-03  -1.80700317E-05
  -2.74999999E-03  -1.83618540E-05
  -2.70000007E-03  -1.86575744E-05
  -2.64999992E-03  -1.89572329E-05
  -2.60000001E-03  -1.92608768E-05
  -2.55000009E-03  -1.95685534E-05
  -2.49999994E-03  -1.98802973E-05
  -2.45000003E-03  -2.01961338E-05
  -2.40000011E-03  -2.05161068E-05
  -2.34999997E-03  -2.08402598E-05
  -2.30000005E-03  -2.11686438E-05
  -2.24999990E-03  -2.15012933E-05
  -2.19999999E-03  -2.18382502E-05
  -2.15000007E-03  -2.21795563E-05
  -2.09999993E-03  -2.25252606E-05
  -2.05000001E-03  -2.28754143E-05
  -2.00000009E-03  -2.32300499E-05
  -1.94999995E-03  -2.35892003E-05
  -1.90000003E-03  -2.39528981E-05
  -1.85000000E-03  -2.43212035E-05
  -1.79999997E-03  -2.46941690E-05
  -1.75000005E-03  -2.50718494E-05
  -1.70000002E-03  -2.54542883E-05
  -1.64999999E-03  -2.58415203E-05
  -1.59999996E-03  -2.62335834E-05
  -1.55000004E-03  -2.66305287E-05
  -1.50000001E-03  -2.70324072E-05
  -1.44999998E-03  -2.74392532E-05
  -1.39999995E-03  -2.78511106E-05
  -1.35000004E-03  -2.82680103E-05
  -1.30000000E-03  -2.86900176E-05
  -1.24999997E-03  -2.91171909E-05
  -1.20000006E-03  -2.95495811E-05
  -1.15000003E-03  -2.99872154E-05
  -1.09999999E-03  -3.04301284E-05
  -1.04999996E-03  -3.08783638E-05
  -1.00000005E-03  -3.13319651E-05
  -9.50000016E-04  -3.17909980E-05
  -8.99999985E-04  -3.22554915E-05
  -8.50000011E-04  -3.27255038E-05
  -7.99999980E-04  -3.32010823E-05
  -7.50000007E-04  -3.36822923E-05
  -6.99999975E-04  -3.41691775E-05
  -6.50000002E-04  -3.46617708E-05
  -6.00000028E-04  -3.51601084E-05
  -5.49999997E-04  -3.56642413E-05
  -5.00000024E-04  -3.61742241E-05
  -4.49999992E-04  -3.66901113E-05
  -3.99999990E-04  -3.72119357E-05
  -3.49999988E-04  -3.77397555E-05
  -3.00000014E-04  -3.82736289E-05
  -2.50000012E-04  -3.88136214E-05
  -1.99999995E-04  -3.93597729E-05
  -1.50000007E-04  -3.99120981E-05
  -9.99999975E-05  -4.04706407E-05
  -4.99999987E-05  -4.10354660E-05
   0.00000000      -4.16066323E-05
   4.99999987E-05  -4.21841869E-05
   9.99999975E-05  -4.27681771E-05
   1.50000007E-04  -4.33586574E-05
   1.99999995E-04  -4.39556861E-05
   2.50000012E-04  -4.45593141E-05
   3.00000014E-04  -4.51695705E-05
   3.49999988E-04  -4.57864771E-05
   3.99999990E-04  -4.64100885E-05
   4.49999992E-04  -4.70404811E-05
   5.00000024E-04  -4.76777459E-05
   5.49999997E-04  -4.83218973E-05
   6.00000028E-04  -4.89729828E-05
   6.50000002E-04  -4.96310313E-05
   6.99999975E-04  -5.02961302E-05
   7.50000007E-04  -5.09683450E-05
   7.99999980E-04  -5.16477048E-05
   8.50000011E-04  -5.23342351E-05
   8.99999985E-04  -5.30279904E-05
   9.50000016E-04  -5.37290471E-05
   1.00000005E-03  -5.44374598E-05
   1.04999996E-03  -5.51532903E-05
   1.09999999E-03  -5.58765860E-05
   1.15000003E-03  -5.66073904E-05
   1.20000006E-03  -5.73457401E-05
   1.24999997E-03  -5.80916785E-05
   1.30000000E-03  -5.88452640E-05
   1.35000004E-03  -5.96065620E-05
   1.39999995E-03  -6.03756198E-05
   1.44999998E-03  -6.11524883E-05
   1.50000001E-03  -6.19372222E-05
   1.55000004E-03  -6.27298941E-05
   1.59999996E-03  -6.35305623E-05
   1.64999999E-03  -6.43392777E-05
   1.70000002E-03  -6.51560695E-05
   1.75000005E-03  -6.59809739E-05
   1.79999997E-03  -6.68140565E-05
   1.85000000E-03  -6.76554118E-05
   1.90000003E-03  -6.85050982E-05
   1.94999995E-03  -6.93631446E-05
   2.00000009E-03  -7.02296020E-05
   2.05000001E-03  -7.11045432E-05
   2.09999993E-03  -7.19880190E-05
   2.15000007E-03  -7.28800806E-05
   2.19999999E-03  -7.37807786E-05
   2.24999990E-03  -7.46901351E-05
   2.30000005E-03  -7.56082081E-05
   2.34999997E-03  -7.65351069E-05
   2.40000011E-03  -7.74709042E-05
   2.45000003E-03  -7.84156364E-05
   2.49999994E-03  -7.93693325E-05
   2.55000009E-03  -8.03320145E-05
   2.60000001E-03  -8.13037914E-05
   2.64999992E-03  -8.22847069E-05
   2.70000007E-03  -8.32748483E-05
   2.74999999E-03  -8.42742229E-05
   2.79999990E-03  -8.52828816E-05