  -3.99999991E-02   0.00000000    
  -3.99499983E-02   0.00000000    
  -3.99000011E-02   0.00000000    
  -3.98500003E-02   0.00000000    
  -3.97999994E-02   2.76390283E-18
  -3.97499986E-02   2.16083680E-17
  -3.97000015E-02   8.60205302E-17
  -3.96500006E-02   2.36971364E-16
  -3.95999998E-02   5.22887732E-16
  -3.95499989E-02   1.01808087E-15
  -3.95000018E-02   1.85526812E-15
  -3.94500010E-02   3.22273929E-15
  -3.94000001E-02   5.29747365E-15
  -3.93499993E-02   8.17043153E-15
  -3.92999984E-02   1.18592194E-14
  -3.92500013E-02   1.64101571E-14
  -3.92000005E-02   2.19595968E-14
  -3.91499996E-02   2.86484906E-14
  -3.90999988E-02   3.64898609E-14
  -3.90500017E-02   4.54270749E-14
  -3.90000008E-02   5.56503967E-14
  -3.89500000E-02   6.78890334E-14
  -3.88999991E-02   8.32905928E-14
  -3.88499983E-02   1.02847296E-13
  -3.88000011E-02   1.26789638E-13
  -3.87500003E-02   1.54412128E-13
  -3.86999995E-02   1.84373635E-13
  -3.86499986E-02   2.15160341E-13
  -3.86000015E-02   2.45538480E-13
  -3.85500006E-02   2.75157582E-13
  -3.84999998E-02   3.05311278E-13
  -3.84499989E-02   3.39183569E-13
  -3.84000018E-02   3.80608685E-13
  -3.83500010E-02   4.31267083E-13
  -3.83000001E-02   4.87832160E-13
  -3.82499993E-02   5.41278123E-13
  -3.81999984E-02   5.79359748E-13
  -3.81500013E-02   5.91097158E-13
  -3.81000005E-02   5.70880582E-13
  -3.80499996E-02   5.20417585E-13
  -3.79999988E-02   4.48120572E-13
  -3.79500017E-02   3.66217880E-13
  -3.79000008E-02   2.85853237E-13
  -3.78500000E-02   2.11061095E-13
  -3.77999991E-02   1.34209023E-13
  -3.77499983E-02   3.63901516E-14
  -3.77000012E-02  -1.05777081E-13
  -3.76500003E-02  -3.09928298E-13
  -3.75999995E-02  -5.80455226E-13
  -3.75499986E-02  -9.08458584E-13
  -3.75000015E-02  -1.27887718E-12
  -3.74500006E-02  -1.68017314E-12
  -3.73999998E-02  -2.11161622E-12
  -3.73499990E-02  -2.58589331E-12
  -3.73000018E-02  -3.12689870E-12
  -3.72500010E-02  -3.76278132E-12
  -3.72000001E-02  -4.51472280E-12
  -3.71499993E-02  -5.38461897E-12
  -3.70999984E-02  -6.34802150E-12
  -3.70500013E-02  -7.35784177E-12
  -3.70000005E-02  -8.35814924E-12
  -3.69499996E-02  -9.30061063E-12
  -3.68999988E-02  -1.01551580E-11
  -3.68500017E-02  -1.09123197E-11
  -3.68000008E-02  -1.15810755E-11
  -3.67500000E-02  -1.21864636E-11
  -3.66999991E-02  -1.27659732E-11
  -3.66499983E-02  -1.33602435E-11
  -3.66000012E-02  -1.39972357E-11
  -3.65500003E-02  -1.46761370E-11
  -3.64999995E-02  -1.53600761E-11
  -3.64499986E-02  -1.59822936E-11
  -3.64000015E-02  -1.64627895E-11
  -3.63500006E-02  -1.67287850E-11
  -3.62999998E-02  -1.67332589E-11
  -3.62499990E-02  -1.64655130E-11
  -3.62000018E-02  -1.59449641E-11
  -3.61500010E-02  -1.51911747E-11
  -3.61000001E-02  -1.41753970E-11
  -3.60499993E-02  -1.27790088E-11
  -3.59999985E-02  -1.07943680E-11
  -3.59500013E-02  -7.98972086E-12
  -3.59000005E-02  -4.22320946E-12
  -3.58499996E-02   4.45934712E-13
  -3.57999988E-02   5.71141138E-12
  -3.57500017E-02   1.10799876E-11
  -3.57000008E-02   1.60348748E-11
  -3.56500000E-02   2.02520136E-11
  -3.55999991E-02   2.37849306E-11
  -3.55499983E-02   2.71248198E-11
  -3.55000012E-02   3.10737304E-11
  -3.54500003E-02   3.64431887E-11
  -3.53999995E-02   4.36845352E-11
  -3.53499986E-02   5.26220352E-11
  -3.53000015E-02   6.24447022E-11
  -3.52500007E-02   7.20057347E-11
  -3.51999998E-02   8.03247885E-11
  -3.51499990E-02   8.70685191E-11
  -3.51000018E-02   9.27668151E-11
  -3.50500010E-02   9.86211737E-11
  -3.50000001E-02   1.05939944E-10
  -3.49499993E-02   1.15420784E-10
  -3.48999985E-02   1.26611013E-10
  -3.48500013E-02   1.37850689E-10
  -3.48000005E-02   1.46820375E-10
  -3.47499996E-02   1.51529678E-10
  -3.46999988E-02   1.51320900E-10
  -3.46500017E-02   1.47375015E-10
  -3.46000008E-02   1.42375486E-10
  -3.45500000E-02   1.39367531E-10
  -3.44999991E-02   1.40267270E-10
  -3.44499983E-02   1.44712131E-10
  -3.44000012E-02   1.49867230E-10
  -3.43500003E-02   1.51415713E-10
  -3.42999995E-02   1.45415471E-10
  -3.42499986E-02   1.30240471E-10
  -3.42000015E-02   1.07668860E-10
  -3.41500007E-02   8.24538562E-11
  -3.40999998E-02   6.03595784E-11
  -3.40499990E-02   4.54063939E-11
  -3.40000018E-02   3.75828396E-11
  -3.39500010E-02   3.22310754E-11
  -3.39000002E-02   2.16404516E-11
  -3.38499993E-02  -1.64478565E-12
  -3.37999985E-02  -4.12038841E-11
  -3.37500013E-02  -9.45183376E-11
  -3.37000005E-02  -1.53383431E-10
  -3.36499996E-02  -2.07064865E-10
  -3.35999988E-02  -2.47006693E-10
  -3.35500017E-02  -2.71015904E-10
  -3.35000008E-02  -2.84850421E-10
  -3.34500000E-02  -3.00141356E-10
  -3.33999991E-02  -3.29234140E-10
  -3.33499983E-02  -3.79115850E-10
  -3.33000012E-02  -4.47297699E-10
  -3.32500003E-02  -5.21879540E-10
  -3.31999995E-02  -5.86215521E-10
  -3.31499986E-02  -6.26388941E-10
  -3.31000015E-02  -6.38154918E-10
  -3.30500007E-02  -6.29930941E-10
  -3.29999998E-02  -6.19981844E-10
  -3.29499990E-02  -6.28546881E-10
  -3.29000019E-02  -6.68161582E-10
  -3.28500010E-02  -7.36639694E-10
  -3.28000002E-02  -8.16375523E-10
  -3.27499993E-02  -8.80964912E-10
  -3.26999985E-02  -9.06700937E-10
  -3.26500013E-02  -8.83888351E-10
  -3.26000005E-02  -8.22498958E-10
  -3.25499997E-02  -7.48892504E-10
  -3.24999988E-02  -6.94349134E-10
  -3.24500017E-02  -6.80193124E-10
  -3.24000008E-02  -7.06337766E-10
  -3.23500000E-02  -7.49070805E-10
  -3.22999991E-02  -7.69995845E-10
  -3.22499983E-02  -7.32889416E-10
  -3.22000012E-02  -6.21164620E-10
  -3.21500003E-02  -4.47652249E-10
  -3.20999995E-02  -2.51321131E-10
  -3.20499986E-02  -8.12793305E-11
  -3.20000015E-02   2.54366875E-11
  -3.19500007E-02   6.22507046E-11
  -3.18999998E-02   5.85411233E-11
  -3.18499990E-02   6.85410062E-11
  -3.18000019E-02   1.47587151E-10
  -3.17500010E-02   3.25971833E-10
  -3.17000002E-02   5.92595584E-10
  -3.16499993E-02   8.96885621E-10
  -3.15999985E-02   1.16944832E-09
  -3.15500014E-02   1.35311817E-09
  -3.15000005E-02   1.43048084E-09
  -3.14499997E-02   1.43453671E-09
  -3.13999988E-02   1.43615309E-09
  -3.13500017E-02   1.51252877E-09
  -3.13000008E-02   1.71023651E-09
  -3.12500000E-02   2.02003725E-09
  -3.11999992E-02   2.37634201E-09
  -3.11500002E-02   2.68339462E-09
  -3.10999993E-02   2.85770163E-09
  -3.10500003E-02   2.86779778E-09
  -3.09999995E-02   2.75236878E-09
  -3.09500005E-02   2.60665223E-09
  -3.08999997E-02   2.54130272E-09
  -3.08500007E-02   2.63115796E-09
  -3.07999998E-02   2.87731283E-09
  -3.07500008E-02   3.20127835E-09
  -3.07000000E-02   3.47615270E-09
  -3.06499992E-02   3.58262464E-09
  -3.06000002E-02   3.46502094E-09
  -3.05499993E-02   3.16099524E-09
  -3.05000003E-02   2.78916934E-09
  -3.04499995E-02   2.49785614E-09
  -3.04000005E-02   2.39656739E-09
  -3.03499997E-02   2.50139442E-09
  -3.03000007E-02   2.72072564E-09
  -3.02499998E-02   2.89047852E-09
  -3.02000009E-02   2.84547874E-09
  -3.01500000E-02   2.49586418E-09
  -3.00999992E-02   1.87311189E-09
  -3.00500002E-02   1.12239051E-09
  -2.99999993E-02   4.41711501E-10
  -2.99500003E-02  -6.74337409E-12
  -2.98999995E-02  -1.73259462E-10
  -2.98500005E-02  -1.48775908E-10
  -2.97999997E-02  -1.28797487E-10
  -2.97500007E-02  -3.26531024E-10
  -2.96999998E-02  -8.73169925E-10
  -2.96500009E-02  -1.75112447E-09
  -2.96000000E-02  -2.79306867E-09
  -2.95499992E-02  -3.75066112E-09
  -2.95000002E-02  -4.40463088E-09
  -2.94499993E-02  -4.66712446E-09
  -2.94000003E-02  -4.62825289E-09
  -2.93499995E-02  -4.52227500E-09
  -2.93000005E-02  -4.62499816E-09
  -2.92499997E-02  -5.12665510E-09
  -2.92000007E-02  -6.03824146E-09
  -2.91499998E-02  -7.17646698E-09
  -2.91000009E-02  -8.23799784E-09
  -2.90500000E-02  -8.93271057E-09
  -2.89999992E-02  -9.11695786E-09
  -2.89500002E-02  -8.86513796E-09
  -2.88999993E-02  -8.44366888E-09
  -2.88500004E-02  -8.19491941E-09
  -2.87999995E-02  -8.38068193E-09
  -2.87500005E-02  -9.05572772E-09
  -2.86999997E-02  -1.00312869E-08
  -2.86500007E-02  -1.09494822E-08
  -2.85999998E-02  -1.14392105E-08
  -2.85500009E-02  -1.12849845E-08
  -2.85000000E-02  -1.05314042E-08
  -2.84499992E-02  -9.47245660E-09
  -2.84000002E-02  -8.52586979E-09
  -2.83499993E-02  -8.04573741E-09
  -2.83000004E-02  -8.15690271E-09
  -2.82499995E-02  -8.68800143E-09
  -2.82000005E-02  -9.23755827E-09
  -2.81499997E-02  -9.34785405E-09
  -2.81000007E-02  -8.71113848E-09
  -2.80499998E-02  -7.31483674E-09
  -2.80000009E-02  -5.45700862E-09
  -2.79500000E-02  -3.62033559E-09
  -2.78999992E-02  -2.25744623E-09
  -2.78500002E-02  -1.58309876E-09
  -2.77999993E-02  -1.46876622E-09
  -2.77500004E-02  -1.49118229E-09
  -2.76999995E-02  -1.11762655E-09
  -2.76500005E-02   5.19672916E-11
  -2.75999997E-02   2.09480056E-09
  -2.75500007E-02   4.71556483E-09
  -2.74999999E-02   7.36456984E-09
  -2.74500009E-02   9.47558476E-09
  -2.74000000E-02   1.07189351E-08
  -2.73499992E-02   1.11549339E-08
  -2.73000002E-02   1.12148069E-08
  -2.72499993E-02   1.15125376E-08
  -2.72000004E-02   1.25679795E-08
  -2.71499995E-02   1.45644394E-08
  -2.71000005E-02   1.72518178E-08
  -2.70499997E-02   2.00434318E-08
  -2.70000007E-02   2.22679652E-08
  -2.69499999E-02   2.34669670E-08
  -2.69000009E-02   2.36046223E-08
  -2.68500000E-02   2.30924382E-08
  -2.67999992E-02   2.26125678E-08
  -2.67500002E-02   2.28137882E-08
  -2.66999993E-02   2.40138505E-08
  -2.66500004E-02   2.60426258E-08
  -2.65999995E-02   2.83006951E-08
  -2.65500005E-02   3.00126821E-08
  -2.64999997E-02   3.05663264E-08
  -2.64500007E-02   2.97871541E-08
  -2.63999999E-02   2.80240720E-08
  -2.63500009E-02   2.60030664E-08
  -2.63000000E-02   2.45091858E-08
  -2.62499992E-02   2.40351081E-08
  -2.62000002E-02   2.45526852E-08
  -2.61499994E-02   2.55126054E-08
  -2.61000004E-02   2.60772790E-08
  -2.60499995E-02   2.54883261E-08
  -2.60000005E-02   2.34076829E-08
  -2.59499997E-02   2.00790122E-08
  -2.59000007E-02   1.62333240E-08
  -2.58499999E-02   1.27751738E-08
  -2.58000009E-02   1.03842783E-08
  -2.57500000E-02   9.20877241E-09
  -2.56999992E-02   8.78875817E-09
  -2.56500002E-02   8.24852542E-09
  -2.55999994E-02   6.67857858E-09
  -2.55500004E-02   3.54198915E-09
  -2.54999995E-02  -1.07463660E-09
  -2.54500005E-02  -6.47982379E-09
  -2.53999997E-02  -1.16640555E-08
  -2.53500007E-02  -1.57341837E-08
  -2.52999999E-02  -1.83056912E-08
  -2.52500009E-02  -1.96778753E-08
  -2.52000000E-02  -2.07088107E-08
  -2.51499992E-02  -2.24392434E-08
  -2.51000002E-02  -2.56264663E-08
  -2.50499994E-02  -3.03914760E-08
  -2.50000004E-02  -3.61379975E-08
  -2.49499995E-02  -4.17858566E-08
  -2.49000005E-02  -4.62244500E-08
  -2.48499997E-02  -4.87920460E-08
  -2.48000007E-02  -4.95707368E-08
  -2.47499999E-02  -4.93624661E-08
  -2.47000009E-02  -4.93478147E-08
  -2.46500000E-02  -5.05694295E-08
  -2.45999992E-02  -5.34632605E-08
  -2.45500002E-02  -5.76454049E-08
  -2.44999994E-02  -6.20546388E-08
  -2.44500004E-02  -6.53965628E-08
  -2.43999995E-02  -6.67019435E-08
  -2.43500005E-02  -6.57568506E-08
  -2.42999997E-02  -6.32127239E-08
  -2.42500007E-02  -6.03187544E-08
  -2.41999999E-02  -5.83831650E-08
  -2.41500009E-02  -5.81928425E-08
  -2.41000000E-02  -5.96456502E-08
  -2.40499992E-02  -6.17649079E-08
  -2.40000002E-02  -6.31013961E-08
  -2.39499994E-02  -6.23570457E-08
  -2.39000004E-02  -5.89616462E-08
  -2.38499995E-02  -5.33468096E-08
  -2.38000005E-02  -4.67872816E-08
  -2.37499997E-02  -4.08656469E-08
  -2.37000007E-02  -3.67850070E-08
  -2.36499999E-02  -3.48280373E-08
  -2.36000009E-02  -3.42056019E-08
  -2.35500000E-02  -3.33761996E-08
  -2.34999992E-02  -3.07108401E-08
  -2.34500002E-02  -2.52202774E-08
  -2.33999994E-02  -1.70238614E-08
  -2.33500004E-02  -7.34274153E-09
  -2.32999995E-02   1.99551153E-09
  -2.32500006E-02   9.33953270E-09
  -2.31999997E-02   1.39456739E-08
  -2.31500007E-02   1.63306488E-08
  -2.30999999E-02   1.80755180E-08
  -2.30500009E-02   2.11470006E-08
  -2.30000000E-02   2.70218337E-08
  -2.29499992E-02   3.59967380E-08
  -2.29000002E-02   4.69959964E-08
  -2.28499994E-02   5.79831863E-08
  -2.28000004E-02   6.68166891E-08
  -2.27499995E-02   7.21834326E-08
  -2.27000006E-02   7.41972102E-08
  -2.26499997E-02   7.43804591E-08
  -2.26000007E-02   7.50164517E-08
  -2.25499999E-02   7.81393936E-08
  -2.25000009E-02   8.46005719E-08
  -2.24500000E-02   9.36321101E-08
  -2.23999992E-02   1.03121160E-07
  -2.23500002E-02   1.10497147E-07
  -2.22999994E-02   1.13857290E-07
  -2.22500004E-02   1.12834016E-07
  -2.21999995E-02   1.08805452E-07
  -2.21500006E-02   1.04330020E-07
  -2.20999997E-02   1.02031365E-07
  -2.20500007E-02   1.03415744E-07
  -2.19999999E-02   1.08152165E-07
  -2.19500009E-02   1.14155917E-07
  -2.19000001E-02   1.18465550E-07
  -2.18499992E-02   1.18545167E-07
  -2.18000002E-02   1.13439455E-07
  -2.17499994E-02   1.04256081E-07
  -2.17000004E-02   9.37347764E-08
  -2.16499995E-02   8.50671356E-08
  -2.16000006E-02   8.04740878E-08
  -2.15499997E-02   8.01748641E-08
  -2.15000007E-02   8.22295902E-08
  -2.14499999E-02   8.33557507E-08
  -2.14000009E-02   8.03813762E-08
  -2.13500001E-02   7.16990556E-08
  -2.12999992E-02   5.80612074E-08
  -2.12500002E-02   4.23349391E-08
  -2.11999994E-02   2.82940995E-08
  -2.11500004E-02   1.89624920E-08
  -2.10999995E-02   1.52445132E-08
  -2.10500006E-02   1.54726880E-08
  -2.09999997E-02   1.61041207E-08
  -2.09500007E-02   1.32842883E-08
  -2.08999999E-02   4.60016381E-09
  -2.08500009E-02  -9.76441505E-09
  -2.08000001E-02  -2.70169327E-08
  -2.07499992E-02  -4.29251585E-08
  -2.07000002E-02  -5.36696234E-08
  -2.06499994E-02  -5.75611452E-08
  -2.06000004E-02  -5.58390774E-08
  -2.05499995E-02  -5.21622745E-08
  -2.05000006E-02  -5.09900566E-08
  -2.04499997E-02  -5.55569351E-08
  -2.04000007E-02  -6.63472122E-08
  -2.03499999E-02  -8.07761964E-08
  -2.03000009E-02  -9.42557392E-08
  -2.02500001E-02  -1.02195763E-07
  -2.01999992E-02  -1.02061257E-07
  -2.01500002E-02  -9.45526466E-08
  -2.00999994E-02  -8.33508409E-08
  -2.00500004E-02  -7.35095469E-08
  -1.99999996E-02  -6.91906408E-08
  -1.99500006E-02  -7.17565882E-08
  -1.98999997E-02  -7.90945549E-08
  -1.98500007E-02  -8.65060841E-08
  -1.97999999E-02  -8.87934917E-08
  -1.97500009E-02  -8.26219377E-08
  -1.97000001E-02  -6.80901664E-08
  -1.96499992E-02  -4.87784888E-08
  -1.96000002E-02  -3.02185050E-08
  -1.95499994E-02  -1.74437851E-08
  -1.95000004E-02  -1.27133353E-08
  -1.94499996E-02  -1.44467629E-08
  -1.94000006E-02  -1.78818809E-08
  -1.93499997E-02  -1.71923187E-08
  -1.93000007E-02  -8.13322121E-09
  -1.92499999E-02   9.97491156E-09
  -1.92000009E-02   3.38372992E-08
  -1.91500001E-02   5.75666945E-08
  -1.90999992E-02   7.52612479E-08
  -1.90500002E-02   8.36319742E-08
  -1.89999994E-02   8.34905265E-08
  -1.89500004E-02   7.94030726E-08
  -1.88999996E-02   7.76346170E-08
  -1.88500006E-02   8.32844691E-08
  -1.87999997E-02   9.78997932E-08
  -1.87500007E-02   1.18658825E-07
  -1.86999999E-02   1.39519159E-07
  -1.86500009E-02   1.53842691E-07
  -1.86000001E-02   1.57329808E-07
  -1.85499992E-02   1.49936866E-07
  -1.85000002E-02   1.35895348E-07
  -1.84499994E-02   1.21797413E-07
  -1.84000004E-02   1.13587625E-07
  -1.83499996E-02   1.13808746E-07
  -1.83000006E-02   1.20350265E-07
  -1.82499997E-02   1.27286356E-07
  -1.82000007E-02   1.27452822E-07
  -1.81499999E-02   1.15615684E-07
  -1.81000009E-02   9.08035318E-08
  -1.80500001E-02   5.67384610E-08
  -1.79999992E-02   2.01448263E-08
  -1.79500002E-02  -1.23205073E-08
  -1.78999994E-02  -3.71368820E-08
  -1.78500004E-02  -5.55974324E-08
  -1.77999996E-02  -7.33224894E-08
  -1.77500006E-02  -9.78059091E-08
  -1.76999997E-02  -1.35080668E-07
  -1.76500008E-02  -1.87002968E-07
  -1.75999999E-02  -2.50390826E-07
  -1.75500009E-02  -3.18422764E-07
  -1.75000001E-02  -3.83691628E-07
  -1.74499992E-02  -4.41548394E-07
  -1.74000002E-02  -4.92226775E-07
  -1.73499994E-02  -5.40771339E-07
  -1.73000004E-02  -5.94787650E-07
  -1.72499996E-02  -6.61022398E-07
  -1.72000006E-02  -7.42300017E-07
  -1.71499997E-02  -8.36205402E-07
  -1.71000008E-02  -9.36121239E-07
  -1.70499999E-02  -1.03416153E-06
  -1.70000009E-02  -1.12469638E-06
  -1.69500001E-02  -1.20688253E-06
  -1.68999992E-02  -1.28505053E-06
  -1.68500002E-02  -1.36675249E-06
  -1.67999994E-02  -1.45934041E-06
  -1.67500004E-02  -1.56661133E-06
  -1.66999996E-02  -1.68703116E-06
  -1.66500006E-02  -1.81434791E-06
  -1.65999997E-02  -1.94032486E-06
  -1.65500008E-02  -2.05837910E-06
  -1.64999999E-02  -2.16647868E-06
  -1.64500009E-02  -2.26800080E-06
  -1.64000001E-02  -2.37016980E-06
  -1.63499992E-02  -2.48074980E-06
  -1.63000003E-02  -2.60448451E-06
  -1.62499994E-02  -2.74089666E-06
  -1.62000004E-02  -2.88443653E-06
  -1.61499996E-02  -3.02692411E-06
  -1.61000006E-02  -3.16117689E-06
  -1.60499997E-02  -3.28419878E-06
  -1.60000008E-02  -3.39849589E-06
  -1.59499999E-02  -3.51092172E-06
  -1.59000009E-02  -3.62954779E-06
  -1.58500001E-02  -3.75999798E-06
  -1.57999992E-02  -3.90284777E-06
  -1.57500003E-02  -4.05326909E-06
  -1.56999994E-02  -4.20317156E-06
  -1.56500004E-02  -4.34480171E-06
  -1.55999996E-02  -4.47417824E-06
  -1.55499997E-02  -4.59283319E-06
  -1.54999997E-02  -4.70710165E-06
  -1.54499998E-02  -4.82529776E-06
  -1.53999999E-02  -4.95399854E-06
  -1.53500000E-02  -5.09506845E-06
  -1.53000001E-02  -5.24481811E-06
  -1.52500002E-02  -5.39570192E-06
  -1.52000003E-02  -5.53976633E-06
  -1.51500003E-02  -5.67227335E-06
  -1.51000004E-02  -5.79386870E-06
  -1.50499996E-02  -5.91034814E-06
  -1.49999997E-02  -6.03014996E-06
  -1.49499997E-02  -6.16063744E-06
  -1.48999998E-02  -6.30489512E-06
  -1.48499999E-02  -6.46039598E-06
  -1.48000000E-02  -6.62020602E-06
  -1.47500001E-02  -6.77620073E-06
  -1.47000002E-02  -6.92278127E-06
  -1.46500003E-02  -7.05946422E-06
  -1.46000003E-02  -7.19120453E-06
  -1.45500004E-02  -7.32625085E-06
  -1.44999996E-02  -7.47248532E-06
  -1.44499997E-02  -7.63401749E-06
  -1.43999998E-02  -7.80947084E-06
  -1.43499998E-02  -7.99271311E-06
  -1.42999999E-02  -8.17574892E-06
  -1.42500000E-02  -8.35248557E-06
  -1.42000001E-02  -8.52158973E-06
  -1.41500002E-02  -8.68726966E-06
  -1.41000003E-02  -8.85750615E-06
  -1.40500003E-02  -9.04059743E-06
  -1.40000004E-02  -9.24160668E-06
  -1.39499996E-02  -9.46027467E-06
  -1.38999997E-02  -9.69133544E-06
  -1.38499998E-02  -9.92687819E-06
  -1.37999998E-02  -1.01600981E-05
  -1.37499999E-02  -1.03885423E-05
  -1.37000000E-02  -1.06153966E-05
  -1.36500001E-02  -1.08483182E-05
  -1.36000002E-02  -1.10959136E-05
  -1.35500003E-02  -1.13638825E-05
  -1.35000004E-02  -1.16527681E-05
  -1.34500004E-02  -1.19580409E-05
  -1.33999996E-02  -1.22720776E-05
  -1.33499997E-02  -1.25876222E-05
  -1.32999998E-02  -1.29012742E-05
  -1.32499998E-02  -1.32151845E-05
  -1.31999999E-02  -1.35364880E-05
  -1.31500000E-02  -1.38740843E-05
  -1.31000001E-02  -1.42345752E-05
  -1.30500002E-02  -1.46196662E-05
  -1.30000003E-02  -1.50254891E-05
  -1.29500004E-02  -1.54444024E-05
  -1.29000004E-02  -1.58686616E-05
  -1.28499996E-02  -1.62939959E-05
  -1.27999997E-02  -1.67213511E-05
  -1.27499998E-02  -1.71564570E-05
  -1.26999998E-02  -1.76076428E-05
  -1.26499999E-02  -1.80822026E-05
  -1.26000000E-02  -1.85829904E-05
  -1.25500001E-02  -1.91071504E-05
  -1.25000002E-02  -1.96474830E-05
  -1.24500003E-02  -2.01961066E-05
  -1.24000004E-02  -2.07482535E-05
  -1.23500004E-02  -2.13044787E-05
  -1.22999996E-02  -2.18704954E-05
  -1.22499997E-02  -2.24544765E-05
  -1.21999998E-02  -2.30633868E-05
  -1.21499998E-02  -2.37001150E-05
  -1.20999999E-02  -2.43623326E-05
  -1.20500000E-02  -2.50429985E-05
  -1.20000001E-02  -2.57332777E-05
  -1.19500002E-02  -2.64269966E-05
  -1.19000003E-02  -2.71239824E-05
  -1.18500004E-02  -2.78303869E-05
  -1.18000004E-02  -2.85557435E-05
  -1.17499996E-02  -2.93089251E-05
  -1.16999997E-02  -3.00948068E-05
  -1.16499998E-02  -3.09126226E-05
  -1.15999999E-02  -3.17566046E-05
  -1.15499999E-02  -3.26186928E-05
  -1.15000000E-02  -3.34920987E-05
  -1.14500001E-02  -3.43742249E-05
  -1.14000002E-02  -3.52679999E-05
  -1.13500003E-02  -3.61805760E-05
  -1.13000004E-02  -3.71197602E-05
  -1.12500004E-02  -3.80897109E-05
  -1.11999996E-02  -3.90887253E-05
  -1.11499997E-02  -4.01106481E-05
  -1.10999998E-02  -4.11483925E-05
  -1.10499999E-02  -4.21979385E-05
  -1.09999999E-02  -4.32600100E-05
  -1.09500000E-02  -4.43408244E-05
  -1.09000001E-02  -4.54511755E-05
  -1.08500002E-02  -4.66023484E-05
  -1.08000003E-02  -4.78023649E-05
  -1.07500004E-02  -4.90524944E-05
  -1.07000005E-02  -5.03462506E-05
  -1.06499996E-02  -5.16726323E-05
  -1.05999997E-02  -5.30219913E-05
  -1.05499998E-02  -5.43903661E-05
  -1.04999999E-02  -5.57798703E-05
  -1.04499999E-02  -5.71968558E-05
  -1.04000000E-02  -5.86485839E-05
  -1.03500001E-02  -6.01403844E-05
  -1.03000002E-02  -6.16743346E-05
  -1.02500003E-02  -6.32480514E-05
  -1.02000004E-02  -6.48552741E-05
  -1.01500005E-02  -6.64901163E-05
  -1.00999996E-02  -6.81521851E-05
  -1.00499997E-02  -6.98482982E-05
  -9.99999978E-03  -7.15909991E-05
  -9.94999986E-03  -7.33933775E-05
  -9.89999995E-03  -7.52633059E-05
  -9.85000003E-03  -7.72019630E-05
  -9.80000012E-03  -7.92051433E-05
  -9.75000020E-03  -8.12649378E-05
  -9.70000029E-03  -8.33725717E-05
  -9.65000037E-03  -8.55234030E-05
  -9.60000046E-03  -8.77191123E-05
  -9.54999961E-03  -8.99674633E-05
  -9.49999969E-03  -9.22793261E-05
  -9.44999978E-03  -9.46623113E-05
  -9.39999986E-03  -9.71160625E-05
  -9.34999995E-03  -9.96338058E-05
  -9.30000003E-03  -1.02206162E-04
  -9.25000012E-03  -1.04824430E-04
  -9.20000020E-03  -1.07484317E-04
  -9.15000029E-03  -1.10188674E-04
  -9.10000037E-03  -1.12947477E-04
  -9.05000046E-03  -1.15773379E-04
  -8.99999961E-03  -1.18677519E-04
  -8.94999970E-03  -1.21665857E-04
  -8.89999978E-03  -1.24737315E-04
  -8.84999987E-03  -1.27885534E-04
  -8.79999995E-03  -1.31103632E-04
  -8.75000004E-03  -1.34388305E-04
  -8.70000012E-03  -1.37742842E-04
  -8.65000021E-03  -1.41177210E-04
  -8.60000029E-03  -1.44704041E-04
  -8.55000038E-03  -1.48333100E-04
  -8.50000046E-03  -1.52064807E-04
  -8.44999962E-03  -1.55891277E-04
  -8.39999970E-03  -1.59802497E-04
  -8.34999979E-03  -1.63788325E-04
  -8.29999987E-03  -1.67841426E-04
  -8.24999996E-03  -1.71960113E-04
  -8.20000004E-03  -1.76149697E-04
  -8.15000013E-03  -1.80421936E-04
  -8.10000021E-03  -1.84788601E-04
  -8.05000030E-03  -1.89254453E-04
  -8.00000038E-03  -1.93814340E-04
  -7.95000046E-03  -1.98457361E-04
  -7.89999962E-03  -2.03173855E-04
  -7.84999970E-03  -2.07962992E-04
  -7.79999979E-03  -2.12828978E-04
  -7.74999987E-03  -2.17779350E-04
  -7.69999996E-03  -2.22827715E-04
  -7.65000004E-03  -2.27989221E-04
  -7.60000013E-03  -2.33273444E-04
  -7.55000021E-03  -2.38679786E-04
  -7.49999983E-03  -2.44198280E-04
  -7.44999992E-03  -2.49815057E-04
  -7.40000000E-03  -2.55522726E-04
  -7.35000009E-03  -2.61324196E-04
  -7.30000017E-03  -2.67228374E-04
  -7.24999979E-03  -2.73244223E-04
  -7.19999988E-03  -2.79378524E-04
  -7.14999996E-03  -2.85634655E-04
  -7.10000005E-03  -2.92010867E-04
  -7.05000013E-03  -2.98498548E-04
  -7.00000022E-03  -3.05084570E-04
  -6.94999984E-03  -3.11759184E-04
  -6.89999992E-03  -3.18519451E-04
  -6.85000001E-03  -3.25374276E-04
  -6.80000009E-03  -3.32342315E-04
  -6.75000018E-03  -3.39438790E-04
  -6.69999979E-03  -3.46670044E-04
  -6.64999988E-03  -3.54033371E-04
  -6.59999996E-03  -3.61520593E-04
  -6.55000005E-03  -3.69123445E-04
  -6.50000013E-03  -3.76838550E-04
  -6.45000022E-03  -3.84668179E-04
  -6.39999984E-03  -3.92622664E-04
  -6.34999992E-03  -4.00718563E-04
  -6.30000001E-03  -4.08967520E-04
  -6.25000009E-03  -4.17377567E-04
  -6.20000018E-03  -4.25953272E-04
  -6.14999980E-03  -4.34686139E-04
  -6.09999988E-03  -4.43557015E-04
  -6.04999997E-03  -4.52554930E-04
  -6.00000005E-03  -4.61681979E-04
  -5.95000014E-03  -4.70948056E-04
  -5.90000022E-03  -4.80367133E-04
  -5.84999984E-03  -4.89948376E-04
  -5.79999993E-03  -4.99695016E-04
  -5.75000001E-03  -5.09608304E-04
  -5.70000010E-03  -5.19683235E-04
  -5.65000018E-03  -5.29911194E-04
  -5.59999980E-03  -5.40280889E-04
  -5.54999989E-03  -5.50789060E-04
  -5.49999997E-03  -5.61449036E-04
  -5.45000006E-03  -5.72280842E-04
  -5.40000014E-03  -5.83303103E-04
  -5.35000023E-03  -5.94527170E-04
  -5.29999984E-03  -6.05955080E-04
  -5.24999993E-03  -6.17584388E-04
  -5.20000001E-03  -6.29409391E-04
  -5.15000010E-03  -6.41424675E-04
  -5.10000018E-03  -6.53627561E-04
  -5.04999980E-03  -6.66026084E-04
  -4.99999989E-03  -6.78635202E-04
  -4.94999997E-03  -6.91472495E-04
  -4.90000006E-03  -7.04550708E-04
  -4.85000014E-03  -7.17858667E-04
  -4.80000023E-03  -7.31374603E-04
  -4.74999985E-03  -7.45087047E-04
  -4.69999993E-03  -7.59000832E-04
  -4.65000002E-03  -7.73114094E-04
  -4.60000010E-03  -7.87423400E-04
  -4.55000019E-03  -8.01943999E-04
  -4.49999981E-03  -8.16695683E-04
  -4.44999989E-03  -8.31695041E-04
  -4.39999998E-03  -8.46950861E-04
  -4.35000006E-03  -8.62461457E-04
  -4.30000015E-03  -8.78212391E-04
  -4.25000023E-03  -8.94194469E-04
  -4.19999985E-03  -9.10414325E-04
  -4.14999994E-03  -9.26888781E-04
  -4.10000002E-03  -9.43639374E-04
  -4.05000011E-03  -9.60679608E-04
  -4.00000019E-03  -9.78015014E-04
  -3.94999981E-03  -9.95644019E-04
  -3.89999989E-03  -1.01356115E-03
  -3.84999998E-03  -1.03175628E-03
  -3.80000006E-03  -1.05021754E-03
  -3.74999992E-03  -1.06894202E-03
  -3.70000000E-03  -1.08793820E-03
  -3.65000009E-03  -1.10721588E-03
  -3.59999994E-03  -1.12678891E-03
  -3.55000002E-03  -1.14667451E-03
  -3.50000011E-03  -1.16687641E-03
  -3.44999996E-03  -1.18738564E-03
  -3.40000005E-03  -1.20817311E-03
  -3.34999990E-03  -1.22923288E-03
  -3.29999998E-03  -1.25058182E-03
  -3.25000007E-03  -1.27222936E-03
  -3.19999992E-03  -1.29418960E-03
  -3.15000000E-03  -1.31647941E-03
  -3.10000009E-03  -1.33911695E-03
  -3.04999994E-03  -1.36209978E-03
  -3.00000003E-03  -1.38542790E-03
  -2.95000011E-03  -1.40908745E-03
  -2.89999996E-03  -1.43305201E-03
  -2.85000005E-03  -1.45733508E-03
  -2.79999990E-03  -1.48196041E-03
  -2.74999999E-03  -1.50694407E-03
  -2.70000007E-03  -1.53230131E-03
  -2.64999992E-03  -1.55804446E-03
  -2.60000001E-03  -1.58417050E-03
  -2.55000009E-03  -1.61065964E-03
  -2.49999994E-03  -1.63750222E-03
  -2.45000003E-03  -1.66469114E-03
  -2.40000011E-03  -1.69220637E-03
  -2.34999997E-03  -1.72004895E-03
  -2.30000005E-03  -1.74823566E-03
  -2.24999990E-03  -1.77679956E-03
  -2.19999999E-03  -1.80576264E-03
  -2.15000007E-03  -1.83510571E-03
  -2.09999993E-03  -1.86481362E-03
  -2.05000001E-03  -1.89485925E-03
  -2.00000009E-03  -1.92523689E-03
  -1.94999995E-03  -1.95597205E-03
  -1.90000003E-03  -1.98708451E-03
  -1.85000000E-03  -2.01858301E-03
  -1.79999997E-03  -2.05048430E-03
  -1.75000005E-03  -2.08281376E-03
  -1.70000002E-03  -2.11557769E-03
  -1.64999999E-03  -2.14877608E-03
  -1.59999996E-03  -2.18236865E-03
  -1.55000004E-03  -2.21630046E-03
  -1.50000001E-03  -2.25056801E-03
  -1.44999998E-03  -2.28520832E-03
  -1.39999995E-03  -2.32027611E-03
  -1.35000004E-03  -2.35576509E-03
  -1.30000000E-03  -2.39164964E-03
  -1.24999997E-03  -2.42791884E-03
  -1.20000006E-03  -2.46456033E-03
  -1.15000003E-03  -2.50157388E-03
  -1.09999999E-03  -2.53893808E-03
  -1.04999996E-03  -2.57665082E-03
  -1.00000005E-03  -2.61470047E-03
  -9.50000016E-04  -2.65310239E-03
  -8.99999985E-04  -2.69189943E-03
  -8.50000011E-04  -2.73112627E-03
  -7.99999980E-04  -2.77082995E-03
  -7.50000007E-04  -2.81095318E-03
  -6.99999975E-04  -2.85140472E-03
  -6.50000002E-04  -2.89218011E-03
  -6.00000028E-04  -2.93330266E-03
  -5.49999997E-04  -2.97478563E-03
  -5.00000024E-04  -3.01665394E-03
  -4.49999992E-04  -3.05890129E-03
  -3.99999990E-04  -3.10152653E-03
  -3.49999988E-04  -3.14460299E-03
  -3.00000014E-04  -3.18810879E-03
  -2.50000012E-04  -3.23193124E-03
  -1.99999995E-04  -3.27605521E-03
  -1.50000007E-04  -3.32048838E-03
  -9.99999975E-05  -3.36518954E-03
  -4.99999987E-05  -3.41016240E-03
   0.00000000      -3.45549826E-03
   4.99999987E-05  -3.50129977E-03
   9.99999975E-05  -3.54753295E-03
   1.50000007E-04  -3.59406252E-03
   1.99999995E-04  -3.64081212E-03
   2.50000012E-04  -3.68781644E-03
   3.00000014E-04  -3.73514229E-03
   3.49999988E-04  -3.78277176E-03
   3.99999990E-04  -3.83064384E-03
   4.49999992E-04  -3.87877133E-03
   5.00000024E-04  -3.92723875E-03
   5.49999997E-04  -3.97614017E-03
   6.00000028E-04  -4.02544951E-03
   6.50000002E-04  -4.07499727E-03
   6.99999975E-04  -4.12470894E-03
   7.50000007E-04  -4.17464040E-03
   7.99999980E-04  -4.22486430E-03
   8.50000011E-04  -4.27538203E-03
   8.99999985E-04  -4.32613026E-03
   9.50000016E-04  -4.37712343E-03
   1.00000005E-03  -4.42843931E-03
   1.04999996E-03  -4.48014401E-03
   1.09999999E-03  -4.53214487E-03
   1.15000003E-03  -4.58422117E-03
   1.20000006E-03  -4.63631144E-03
   1.24999997E-03  -4.68857307E-03
   1.30000000E-03  -4.74112527E-03
   1.35000004E-03  -4.79393732E-03
   1.39999995E-03  -4.84694727E-03
   1.44999998E-03  -4.90013137E-03
   1.50000001E-03  -4.95356089E-03
   1.55000004E-03  -5.00726700E-03
   1.59999996E-03  -5.06116403E-03
   1.64999999E-03  -5.11510111E-03
   1.70000002E-03  -5.16910525E-03
   1.75000005E-03  -5.22327190E-03
   1.79999997E-03  -5.27766626E-03
   1.85000000E-03  -5.33237215E-03
   1.90000003E-03  -5.38730714E-03
   1.94999995E-03  -5.44239115E-03
   2.00000009E-03  -5.49761625E-03
   2.05000001E-03  -5.55297406E-03
   2.09999993E-03  -5.60839847E-03
   2.15000007E-03  -5.66381589E-03
   2.19999999E-03  -5.71927149E-03
   2.24999990E-03  -5.77483000E-03
   2.30000005E-03  -5.83051983E-03
   2.34999997E-03  -5.88644529E-03
   2.40000011E-03  -5.94263244E-03
   2.45000003E-03  -5.99890528E-03
   2.49999994E-03  -6.05509104E-03
   2.55000009E-03  -6.11120649E-03
   2.60000001E-03  -6.16741367E-03
   2.64999992E-03  -6.22375309E-03
   2.70000007E-03  -6.28010323E-03
   2.74999999E-03  -6.33648736E-03
   2.79999990E-03  -6.39307778E-03