  -3.99999991E-02   0.00000000    
  -3.99499983E-02   0.00000000    
  -3.99000011E-02   0.00000000    
  -3.98500003E-02   0.00000000    
  -3.97999994E-02  -2.17761562E-18
  -3.97499986E-02  -2.55557682E-17
  -3.97000015E-02  -1.55767850E-16
  -3.96500006E-02  -6.53858772E-16
  -3.95999998E-02  -2.11517574E-15
  -3.95499989E-02  -5.59633864E-15
  -3.95000018E-02  -1.25532756E-14
  -3.94500010E-02  -2.44365566E-14
  -3.94000001E-02  -4.19447734E-14
  -3.93499993E-02  -6.42300815E-14
  -3.92999984E-02  -8.86303360E-14
  -3.92500013E-02  -1.11518196E-13
  -3.92000005E-02  -1.30413069E-13
  -3.91499996E-02  -1.46664134E-13
  -3.90999988E-02  -1.67206296E-13
  -3.90500017E-02  -2.03741632E-13
  -3.90000008E-02  -2.68628788E-13
  -3.89500000E-02  -3.68583148E-13
  -3.88999991E-02  -4.99117024E-13
  -3.88499983E-02  -6.43283658E-13
  -3.88000011E-02  -7.76945782E-13
  -3.87500003E-02  -8.79685864E-13
  -3.86999995E-02  -9.46925806E-13
  -3.86499986E-02  -9.96750534E-13
  -3.86000015E-02  -1.06593488E-12
  -3.85500006E-02  -1.19408563E-12
  -3.84999998E-02  -1.40113973E-12
  -3.84499989E-02  -1.66867941E-12
  -3.84000018E-02  -1.93630528E-12
  -3.83500010E-02  -2.11897015E-12
  -3.83000001E-02  -2.14117808E-12
  -3.82499993E-02  -1.97394770E-12
  -3.81999984E-02  -1.65604368E-12
  -3.81500013E-02  -1.28572619E-12
  -3.81000005E-02  -9.82040187E-13
  -3.80499996E-02  -8.29846445E-13
  -3.79999988E-02  -8.32879555E-13
  -3.79500017E-02  -8.98368402E-13
  -3.79000008E-02  -8.64352264E-13
  -3.78500000E-02  -5.61490036E-13
  -3.77999991E-02   1.16465106E-13
  -3.77499983E-02   1.16620949E-12
  -3.77000012E-02   2.47645914E-12
  -3.76500003E-02   3.87996536E-12
  -3.75999995E-02   5.23368588E-12
  -3.75499986E-02   6.48976619E-12
  -3.75000015E-02   7.72305223E-12
  -3.74500006E-02   9.10105932E-12
  -3.73999998E-02   1.08094610E-11
  -3.73499990E-02   1.29663242E-11
  -3.73000018E-02   1.55619649E-11
  -3.72500010E-02   1.84478613E-11
  -3.72000001E-02   2.13755316E-11
  -3.71499993E-02   2.40662230E-11
  -3.70999984E-02   2.62838588E-11
  -3.70500013E-02   2.78893315E-11
  -3.70000005E-02   2.88683140E-11
  -3.69499996E-02   2.93369357E-11
  -3.68999988E-02   2.95311033E-11
  -3.68500017E-02   2.97757340E-11
  -3.68000008E-02   3.04196841E-11
  -3.67500000E-02   3.17263091E-11
  -3.66999991E-02   3.37347233E-11
  -3.66499983E-02   3.61437200E-11
  -3.66000012E-02   3.82933442E-11
  -3.65500003E-02   3.93021032E-11
  -3.64999995E-02   3.83545452E-11
  -3.64499986E-02   3.50459106E-11
  -3.64000015E-02   2.96243099E-11
  -3.63500006E-02   2.29728181E-11
  -3.62999998E-02   1.62659781E-11
  -3.62499990E-02   1.03919581E-11
  -3.62000018E-02   5.38681122E-12
  -3.61500010E-02   1.92011500E-13
  -3.61000001E-02  -7.04268111E-12
  -3.60499993E-02  -1.81264604E-11
  -3.59999985E-02  -3.37751840E-11
  -3.59500013E-02  -5.28528263E-11
  -3.59000005E-02  -7.23940491E-11
  -3.58499996E-02  -8.85982121E-11
  -3.57999988E-02  -9.85150780E-11
  -3.57500017E-02  -1.01712069E-10
  -3.57000008E-02  -1.01059640E-10
  -3.56500000E-02  -1.02034936E-10
  -3.55999991E-02  -1.10573849E-10
  -3.55499983E-02  -1.30247535E-10
  -3.55000012E-02  -1.60041896E-10
  -3.54500003E-02  -1.93967675E-10
  -3.53999995E-02  -2.23041460E-10
  -3.53499986E-02  -2.39082476E-10
  -3.53000015E-02  -2.38750603E-10
  -3.52500007E-02  -2.25848493E-10
  -3.51999998E-02  -2.10438847E-10
  -3.51499990E-02  -2.04681605E-10
  -3.51000018E-02  -2.16926380E-10
  -3.50500010E-02  -2.46723142E-10
  -3.50000001E-02  -2.83392143E-10
  -3.49499993E-02  -3.09447856E-10
  -3.48999985E-02  -3.07966652E-10
  -3.48500013E-02  -2.70885536E-10
  -3.48000005E-02  -2.04288753E-10
  -3.47499996E-02  -1.27619068E-10
  -3.46999988E-02  -6.62886204E-11
  -3.46500017E-02  -4.03377089E-11
  -3.46000008E-02  -5.41163989E-11
  -3.45500000E-02  -9.21672391E-11
  -3.44999991E-02  -1.24161473E-10
  -3.44499983E-02  -1.17693785E-10
  -3.44000012E-02  -5.37358213E-11
  -3.43500003E-02   6.24373123E-11
  -3.42999995E-02   2.00757563E-10
  -3.42499986E-02   3.17884774E-10
  -3.42000015E-02   3.76645520E-10
  -3.41500007E-02   3.64906383E-10
  -3.40999998E-02   3.04596931E-10
  -3.40499990E-02   2.45237608E-10
  -3.40000018E-02   2.43181336E-10
  -3.39500010E-02   3.34891337E-10
  -3.39000002E-02   5.16498677E-10
  -3.38499993E-02   7.40312589E-10
  -3.37999985E-02   9.32005029E-10
  -3.37500013E-02   1.02261910E-09
  -3.37000005E-02   9.81706161E-10
  -3.36499996E-02   8.35784997E-10
  -3.35999988E-02   6.61604382E-10
  -3.35500017E-02   5.54657931E-10
  -3.35000008E-02   5.85363868E-10
  -3.34500000E-02   7.62614971E-10
  -3.33999991E-02   1.02298880E-09
  -3.33499983E-02   1.25352695E-09
  -3.33000012E-02   1.34068001E-09
  -3.32500003E-02   1.22466570E-09
  -3.31999995E-02   9.33728983E-10
  -3.31499986E-02   5.79809645E-10
  -3.31000015E-02   3.13735982E-10
  -3.30500007E-02   2.57256050E-10
  -3.29999998E-02   4.42030412E-10
  -3.29499990E-02   7.85368326E-10
  -3.29000019E-02   1.11787379E-09
  -3.28500010E-02   1.25488242E-09
  -3.28000002E-02   1.08192011E-09
  -3.27499993E-02   6.14920670E-10
  -3.26999985E-02   4.28784395E-12
  -3.26500013E-02  -5.24248589E-10
  -3.26000005E-02  -7.69604103E-10
  -3.25499997E-02  -6.52321808E-10
  -3.24999988E-02  -2.62259908E-10
  -3.24500017E-02   1.69993838E-10
  -3.24000008E-02   3.71075976E-10
  -3.23500000E-02   1.51706592E-10
  -3.22999991E-02  -4.95258279E-10
  -3.22499983E-02  -1.37461609E-09
  -3.22000012E-02  -2.16277063E-09
  -3.21500003E-02  -2.54891286E-09
  -3.20999995E-02  -2.38235009E-09
  -3.20499986E-02  -1.75685011E-09
  -3.20000015E-02  -9.86880133E-10
  -3.19500007E-02  -4.78023399E-10
  -3.18999998E-02  -5.44013889E-10
  -3.18499990E-02  -1.25227861E-09
  -3.18000019E-02  -2.37295295E-09
  -3.17500010E-02  -3.46348239E-09
  -3.17000002E-02  -4.05953582E-09
  -3.16499993E-02  -3.89062293E-09
  -3.15999985E-02  -3.02090841E-09
  -3.15500014E-02  -1.84335791E-09
  -3.15000005E-02  -9.18950249E-10
  -3.14499997E-02  -7.24953875E-10
  -3.13999988E-02  -1.42382084E-09
  -3.13500017E-02  -2.76282086E-09
  -3.13000008E-02  -4.16117540E-09
  -3.12500000E-02  -4.95752150E-09
  -3.11999992E-02  -4.71329153E-09
  -3.11500002E-02  -3.43386408E-09
  -3.10999993E-02  -1.59807778E-09
  -3.10500003E-02   3.12304453E-11
  -3.09999995E-02   7.42366391E-10
  -3.09500005E-02   2.09066403E-10
  -3.08999997E-02  -1.33221045E-09
  -3.08500007E-02  -3.15531135E-09
  -3.07999998E-02  -4.35032499E-09
  -3.07500008E-02  -4.23500746E-09
  -3.07000000E-02  -2.68663292E-09
  -3.06499992E-02  -2.34295222E-10
  -3.06000002E-02   2.14682139E-09
  -3.05499993E-02   3.46226492E-09
  -3.05000003E-02   3.16118909E-09
  -3.04499995E-02   1.42163892E-09
  -3.04000005E-02  -8.86001217E-10
  -3.03499997E-02  -2.56064081E-09
  -3.03000007E-02  -2.60911426E-09
  -3.02499998E-02  -7.22085225E-10
  -3.02000009E-02   2.53804244E-09
  -3.01500000E-02   5.94221605E-09
  -3.00999992E-02   8.12137291E-09
  -3.00500002E-02   8.18942247E-09
  -2.99999993E-02   6.17920737E-09
  -2.99500003E-02   3.07826054E-09
  -2.98999995E-02   4.24623142E-10
  -2.98500005E-02  -3.75137948E-10
  -2.97999997E-02   1.29462885E-09
  -2.97500007E-02   4.92868768E-09
  -2.96999998E-02   9.07183217E-09
  -2.96500009E-02   1.19394450E-08
  -2.96000000E-02   1.22252235E-08
  -2.95499992E-02   9.73234471E-09
  -2.95000002E-02   5.52615376E-09
  -2.94499993E-02   1.51158497E-09
  -2.94000003E-02  -4.00507544E-10
  -2.93499995E-02   8.25107871E-10
  -2.93000005E-02   4.82331508E-09
  -2.92499997E-02   9.92189797E-09
  -2.92000007E-02   1.38420440E-08
  -2.91499998E-02   1.47143853E-08
  -2.91000009E-02   1.19582024E-08
  -2.90500000E-02   6.61160016E-09
  -2.89999992E-02   9.32958044E-10
  -2.89500002E-02  -2.57889976E-09
  -2.88999993E-02  -2.32298136E-09
  -2.88500004E-02   1.62382430E-09
  -2.87999995E-02   7.46169171E-09
  -2.87500005E-02   1.24142252E-08
  -2.86999997E-02   1.39606602E-08
  -2.86500007E-02   1.10097904E-08
  -2.85999998E-02   4.47250725E-09
  -2.85500009E-02  -3.05920800E-09
  -2.85000000E-02  -8.42141912E-09
  -2.84499992E-02  -9.30258182E-09
  -2.84000002E-02  -5.34331024E-09
  -2.83499993E-02   1.60856028E-09
  -2.83000004E-02   8.24339619E-09
  -2.82499995E-02   1.12389813E-08
  -2.82000005E-02   8.78037287E-09
  -2.81499997E-02   1.45661050E-09
  -2.81000007E-02  -7.90425236E-09
  -2.80499998E-02  -1.54325122E-08
  -2.80000009E-02  -1.79425079E-08
  -2.79500000E-02  -1.44185641E-08
  -2.78999992E-02  -6.57009869E-09
  -2.78500002E-02   1.83796023E-09
  -2.77999993E-02   6.62453115E-09
  -2.77500004E-02   5.09154496E-09
  -2.76999995E-02  -2.67564260E-09
  -2.76500005E-02  -1.37267469E-08
  -2.75999997E-02  -2.34718165E-08
  -2.75500007E-02  -2.77068466E-08
  -2.74999999E-02  -2.45466651E-08
  -2.74500009E-02  -1.53782214E-08
  -2.74000000E-02  -4.35971304E-09
  -2.73499992E-02   3.36359474E-09
  -2.73000002E-02   3.96305211E-09
  -2.72499993E-02  -3.28098437E-09
  -2.72000004E-02  -1.55353099E-08
  -2.71499995E-02  -2.75724119E-08
  -2.71000005E-02  -3.40636035E-08
  -2.70499997E-02  -3.20037223E-08
  -2.70000007E-02  -2.21666401E-08
  -2.69499999E-02  -8.89183216E-09
  -2.69000009E-02   1.76253245E-09
  -2.68500000E-02   4.71848427E-09
  -2.67999992E-02  -1.76942694E-09
  -2.67500002E-02  -1.51928941E-08
  -2.66999993E-02  -2.97714724E-08
  -2.66500004E-02  -3.89590049E-08
  -2.65999995E-02  -3.83889471E-08
  -2.65500005E-02  -2.79340853E-08
  -2.64999997E-02  -1.19123609E-08
  -2.64500007E-02   2.71975975E-09
  -2.63999999E-02   9.43518597E-09
  -2.63500009E-02   5.11455589E-09
  -2.63000000E-02  -8.42146175E-09
  -2.62499992E-02  -2.50711381E-08
  -2.62000002E-02  -3.70766067E-08
  -2.61499994E-02  -3.84883307E-08
  -2.61000004E-02  -2.79237558E-08
  -2.60499995E-02  -9.34388655E-09
  -2.60000005E-02   9.57011892E-09
  -2.59499997E-02   2.07821387E-08
  -2.59000007E-02   1.95376053E-08
  -2.58499999E-02   6.62982069E-09
  -2.58000009E-02  -1.17764589E-08
  -2.57500000E-02  -2.67627378E-08
  -2.56999992E-02  -3.06070049E-08
  -2.56500002E-02  -2.03182022E-08
  -2.55999994E-02   8.59764870E-10
  -2.55500004E-02   2.47189895E-08
  -2.54999995E-02   4.16436059E-08
  -2.54500005E-02   4.49104185E-08
  -2.53999997E-02   3.38093642E-08
  -2.53500007E-02   1.41354342E-08
  -2.52999999E-02  -4.24924185E-09
  -2.52500009E-02  -1.17662911E-08
  -2.52000000E-02  -3.47170492E-09
  -2.51499992E-02   1.85635507E-08
  -2.51000002E-02   4.59783394E-08
  -2.50499994E-02   6.77143177E-08
  -2.50000004E-02   7.49346682E-08
  -2.49499995E-02   6.50813021E-08
  -2.49000005E-02   4.32102283E-08
  -2.48499997E-02   1.99229060E-08
  -2.48000007E-02   6.73200029E-09
  -2.47499999E-02   1.08840572E-08
  -2.47000009E-02   3.19638964E-08
  -2.46500000E-02   6.18649239E-08
  -2.45999992E-02   8.82314382E-08
  -2.45500002E-02   9.99125902E-08
  -2.44999994E-02   9.20183894E-08
  -2.44500004E-02   6.82827945E-08
  -2.43999995E-02   3.95940241E-08
  -2.43500005E-02   1.92541538E-08
  -2.42999997E-02   1.70227032E-08
  -2.42500007E-02   3.46030724E-08
  -2.41999999E-02   6.46492495E-08
  -2.41500009E-02   9.38340605E-08
  -2.41000000E-02   1.08699787E-07
  -2.40499992E-02   1.01721959E-07
  -2.40000002E-02   7.48540998E-08
  -2.39499994E-02   3.88885972E-08
  -2.39000004E-02   8.81527384E-09
  -2.38499995E-02  -2.82942647E-09
  -2.38000005E-02   8.32747382E-09
  -2.37499997E-02   3.63250514E-08
  -2.37000007E-02   6.73036737E-08
  -2.36499999E-02   8.55598756E-08
  -2.36000009E-02   8.05774718E-08
  -2.35500000E-02   5.18870564E-08
  -2.34999992E-02   9.51051682E-09
  -2.34500002E-02  -3.03144425E-08
  -2.33999994E-02  -5.23120924E-08
  -2.33500004E-02  -4.90788921E-08
  -2.32999995E-02  -2.46022758E-08
  -2.32500006E-02   7.27829619E-09
  -2.31999997E-02   2.88910069E-08
  -2.31500007E-02   2.66201461E-08
  -2.30999999E-02  -2.85110890E-09
  -2.30500009E-02  -5.07964977E-08
  -2.30000000E-02  -1.00089096E-07
  -2.29499992E-02  -1.32708863E-07
  -2.29000002E-02  -1.37816954E-07
  -2.28499994E-02  -1.16769769E-07
  -2.28000004E-02  -8.27463822E-08
  -2.27499995E-02  -5.50410029E-08
  -2.27000006E-02  -5.04800681E-08
  -2.26499997E-02  -7.57713181E-08
  -2.26000007E-02  -1.24254257E-07
  -2.25499999E-02  -1.78608815E-07
  -2.25000009E-02  -2.18424759E-07
  -2.24500000E-02  -2.29319369E-07
  -2.23999992E-02  -2.09524060E-07
  -2.23500002E-02  -1.70918241E-07
  -2.22999994E-02  -1.33930570E-07
  -2.22500004E-02  -1.18481431E-07
  -2.21999995E-02  -1.34970207E-07
  -2.21500006E-02  -1.79370687E-07
  -2.20999997E-02  -2.34724951E-07
  -2.20500007E-02  -2.78488130E-07
  -2.19999999E-02  -2.92527915E-07
  -2.19500009E-02  -2.71323927E-07
  -2.19000001E-02  -2.24638413E-07
  -2.18499992E-02  -1.73353413E-07
  -2.18000002E-02  -1.40225112E-07
  -2.17499994E-02  -1.39629591E-07
  -2.17000004E-02  -1.70904727E-07
  -2.16499995E-02  -2.18353449E-07
  -2.16000006E-02  -2.58026319E-07
  -2.15499997E-02  -2.68345502E-07
  -2.15000007E-02  -2.39848248E-07
  -2.14499999E-02  -1.79642456E-07
  -2.14000009E-02  -1.08473742E-07
  -2.13500001E-02  -5.16005407E-08
  -2.12999992E-02  -2.74843703E-08
  -2.12500002E-02  -3.93566957E-08
  -2.11999994E-02  -7.35113517E-08
  -2.11500004E-02  -1.05201579E-07
  -2.10999995E-02  -1.09606582E-07
  -2.10500006E-02  -7.30060563E-08
  -2.09999997E-02   8.71054229E-10
  -2.09500007E-02   9.22583752E-08
  -2.08999999E-02   1.74005677E-07
  -2.08500009E-02   2.23681397E-07
  -2.08000001E-02   2.33717543E-07
  -2.07499992E-02   2.14992070E-07
  -2.07000002E-02   1.92137307E-07
  -2.06499994E-02   1.92568891E-07
  -2.06000004E-02   2.34094358E-07
  -2.05499995E-02   3.16671390E-07
  -2.05000006E-02   4.22092057E-07
  -2.04499997E-02   5.21848904E-07
  -2.04000007E-02   5.89749959E-07
  -2.03499999E-02   6.13658869E-07
  -2.03000009E-02   6.01053955E-07
  -2.02500001E-02   5.75819286E-07
  -2.01999992E-02   5.67600864E-07
  -2.01500002E-02   5.98433076E-07
  -2.00999994E-02   6.72631359E-07
  -2.00500004E-02   7.74548994E-07
  -1.99999996E-02   8.75302987E-07
  -1.99500006E-02   9.45538716E-07
  -1.98999997E-02   9.68544441E-07
  -1.98500007E-02   9.47800004E-07
  -1.97999999E-02   9.05490253E-07
  -1.97500009E-02   8.72554381E-07
  -1.97000001E-02   8.74667592E-07
  -1.96499992E-02   9.20441209E-07
  -1.96000002E-02   9.97193411E-07
  -1.95499994E-02   1.07628216E-06
  -1.95000004E-02   1.12569455E-06
  -1.94499996E-02   1.12428449E-06
  -1.94000006E-02   1.07125118E-06
  -1.93499997E-02   9.86533109E-07
  -1.93000007E-02   9.01858243E-07
  -1.92499999E-02   8.46397540E-07
  -1.92000009E-02   8.33454465E-07
  -1.91500001E-02   8.54213511E-07
  -1.90999992E-02   8.81426502E-07
  -1.90500002E-02   8.81453673E-07
  -1.89999994E-02   8.29291594E-07
  -1.89500004E-02   7.19815830E-07
  -1.88999996E-02   5.70127384E-07
  -1.88500006E-02   4.11870559E-07
  -1.87999997E-02   2.76917120E-07
  -1.87500007E-02   1.82841163E-07
  -1.86999999E-02   1.24751750E-07
  -1.86500009E-02   7.72256783E-08
  -1.86000001E-02   5.54157431E-09
  -1.85499992E-02  -1.18796258E-07
  -1.85000002E-02  -3.05236227E-07
  -1.84499994E-02  -5.39870769E-07
  -1.84000004E-02  -7.91648120E-07
  -1.83499996E-02  -1.02635727E-06
  -1.83000006E-02  -1.22210042E-06
  -1.82499997E-02  -1.37926872E-06
  -1.82000007E-02  -1.52047210E-06
  -1.81499999E-02  -1.68040299E-06
  -1.81000009E-02  -1.89017726E-06
  -1.80500001E-02  -2.16321610E-06
  -1.79999992E-02  -2.48906963E-06
  -1.79500002E-02  -2.83802706E-06
  -1.78999994E-02  -3.17447461E-06
  -1.78500004E-02  -3.47298192E-06
  -1.77999996E-02  -3.72983777E-06
  -1.77500006E-02  -3.96479072E-06
  -1.76999997E-02  -4.21214736E-06
  -1.76500008E-02  -4.50524249E-06
  -1.75999999E-02  -4.86129147E-06
  -1.75500009E-02  -5.27346720E-06
  -1.75000001E-02  -5.71385590E-06
  -1.74499992E-02  -6.14596865E-06
  -1.74000002E-02  -6.54115729E-06
  -1.73499994E-02  -6.89148874E-06
  -1.73000004E-02  -7.21322158E-06
  -1.72499996E-02  -7.53929817E-06
  -1.72000006E-02  -7.90420927E-06
  -1.71499997E-02  -8.32813748E-06
  -1.71000008E-02  -8.80757489E-06
  -1.70499999E-02  -9.31669820E-06
  -1.70000009E-02  -9.81891935E-06
  -1.69500001E-02  -1.02833565E-05
  -1.68999992E-02  -1.06987727E-05
  -1.68500002E-02  -1.10785923E-05
  -1.67999994E-02  -1.14547111E-05
  -1.67500004E-02  -1.18628905E-05
  -1.66999996E-02  -1.23263990E-05
  -1.66500006E-02  -1.28453185E-05
  -1.65999997E-02  -1.33963858E-05
  -1.65500008E-02  -1.39435206E-05
  -1.64999999E-02  -1.44541727E-05
  -1.64500009E-02  -1.49140706E-05
  -1.64000001E-02  -1.53336805E-05
  -1.63499992E-02  -1.57432951E-05
  -1.63000003E-02  -1.61791013E-05
  -1.62499994E-02  -1.66665741E-05
  -1.62000004E-02  -1.72087275E-05
  -1.61499996E-02  -1.77846978E-05
  -1.61000006E-02  -1.83592474E-05
  -1.60499997E-02  -1.88989179E-05
  -1.60000008E-02  -1.93874239E-05
  -1.59499999E-02  -1.98332073E-05
  -1.59000009E-02  -2.02656647E-05
  -1.58500001E-02  -2.07218091E-05
  -1.57999992E-02  -2.12294890E-05
  -1.57500003E-02  -2.17947145E-05
  -1.56999994E-02  -2.23990992E-05
  -1.56500004E-02  -2.30085461E-05
  -1.55999996E-02  -2.35890820E-05
  -1.55499997E-02  -2.41226535E-05
  -1.54999997E-02  -2.46156342E-05
  -1.54499998E-02  -2.50961220E-05
  -1.53999999E-02  -2.56011954E-05
  -1.53500000E-02  -2.61600326E-05
  -1.53000001E-02  -2.67806536E-05
  -1.52500002E-02  -2.74464146E-05
  -1.52000003E-02  -2.81239609E-05
  -1.51500003E-02  -2.87789771E-05
  -1.51000004E-02  -2.93923349E-05
  -1.50499996E-02  -2.99694202E-05
  -1.49999997E-02  -3.05381727E-05
  -1.49499997E-02  -3.11366930E-05
  -1.48999998E-02  -3.17961312E-05
  -1.48499999E-02  -3.25267247E-05
  -1.48000000E-02  -3.33135067E-05
  -1.47500001E-02  -3.41237355E-05
  -1.47000002E-02  -3.49225411E-05
  -1.46500003E-02  -3.56896817E-05
  -1.46000003E-02  -3.64294938E-05
  -1.45500004E-02  -3.71695351E-05
  -1.44999996E-02  -3.79484118E-05
  -1.44499997E-02  -3.87983673E-05
  -1.43999998E-02  -3.97307886E-05
  -1.43499998E-02  -4.07312582E-05
  -1.42999999E-02  -4.17666015E-05
  -1.42500000E-02  -4.28008825E-05
  -1.42000001E-02  -4.38127390E-05
  -1.41500002E-02  -4.48059363E-05
  -1.41000003E-02  -4.58085597E-05
  -1.40500003E-02  -4.68608123E-05
  -1.40000004E-02  -4.79969203E-05
  -1.39499996E-02  -4.92298714E-05
  -1.38999997E-02  -5.05458702E-05
  -1.38499998E-02  -5.19112691E-05
  -1.37999998E-02  -5.32887352E-05
  -1.37499999E-02  -5.46553492E-05
  -1.37000000E-02  -5.60143126E-05
  -1.36500001E-02  -5.73942780E-05
  -1.36000002E-02  -5.88368785E-05
  -1.35500003E-02  -6.03780063E-05
  -1.35000004E-02  -6.20315550E-05
  -1.34500004E-02  -6.37831690E-05
  -1.33999996E-02  -6.55971671E-05
  -1.33499997E-02  -6.74336843E-05
  -1.32999998E-02  -6.92678223E-05
  -1.32499998E-02  -7.11021494E-05
  -1.31999999E-02  -7.29665262E-05
  -1.31500000E-02  -7.49052997E-05
  -1.31000001E-02  -7.69574544E-05
  -1.30500002E-02  -7.91388884E-05
  -1.30000003E-02  -8.14354207E-05
  -1.29500004E-02  -8.38096239E-05
  -1.29000004E-02  -8.62186498E-05
  -1.28499996E-02  -8.86349735E-05
  -1.27999997E-02  -9.10601229E-05
  -1.27499998E-02  -9.35252829E-05
  -1.26999998E-02  -9.60778052E-05
  -1.26499999E-02  -9.87597232E-05
  -1.26000000E-02  -1.01588819E-04
  -1.25500001E-02  -1.04550265E-04
  -1.25000002E-02  -1.07603679E-04
  -1.24500003E-02  -1.10702240E-04
  -1.24000004E-02  -1.13814604E-04
  -1.23500004E-02  -1.16940566E-04
  -1.22999996E-02  -1.20112352E-04
  -1.22499997E-02  -1.23380683E-04
  -1.21999998E-02  -1.26792191E-04
  -1.21499998E-02  -1.30368397E-04
  -1.20999999E-02  -1.34095739E-04
  -1.20500000E-02  -1.37931827E-04
  -1.20000001E-02  -1.41825629E-04
  -1.19500002E-02  -1.45742044E-04
  -1.19000003E-02  -1.49679647E-04
  -1.18500004E-02  -1.53672736E-04
  -1.18000004E-02  -1.57776856E-04
  -1.17499996E-02  -1.62044424E-04
  -1.16999997E-02  -1.66501253E-04
  -1.16499998E-02  -1.71134438E-04
  -1.15999999E-02  -1.75898764E-04
  -1.15499999E-02  -1.80737552E-04
  -1.15000000E-02  -1.85609315E-04
  -1.14500001E-02  -1.90508756E-04
  -1.14000002E-02  -1.95470260E-04
  -1.13500003E-02  -2.00553550E-04
  -1.13000004E-02  -2.05817865E-04
  -1.12500004E-02  -2.11295279E-04
  -1.11999996E-02  -2.16976565E-04
  -1.11499997E-02  -2.22815681E-04
  -1.10999998E-02  -2.28751902E-04
  -1.10499999E-02  -2.34739360E-04
  -1.09999999E-02  -2.40769703E-04
  -1.09500000E-02  -2.46878742E-04
  -1.09000001E-02  -2.53131991E-04
  -1.08500002E-02  -2.59596301E-04
  -1.08000003E-02  -2.66310119E-04
  -1.07500004E-02  -2.73266662E-04
  -1.07000005E-02  -2.80417182E-04
  -1.06499996E-02  -2.87693401E-04
  -1.05999997E-02  -2.95040489E-04
  -1.05499998E-02  -3.02443921E-04
  -1.04999999E-02  -3.09937226E-04
  -1.04499999E-02  -3.17589554E-04
  -1.04000000E-02  -3.25475761E-04
  -1.03500001E-02  -3.33642820E-04
  -1.03000002E-02  -3.42090440E-04
  -1.02500003E-02  -3.50772141E-04
  -1.02000004E-02  -3.59616737E-04
  -1.01500005E-02  -3.68563662E-04
  -1.00999996E-02  -3.77592747E-04
  -1.00499997E-02  -3.86735890E-04
  -9.99999978E-03  -3.96065821E-04
  -9.94999986E-03  -4.05666011E-04
  -9.89999995E-03  -4.15594288E-04
  -9.85000003E-03  -4.25857492E-04
  -9.80000012E-03  -4.36409202E-04
  -9.75000020E-03  -4.47172613E-04
  -9.70000029E-03  -4.58077964E-04
  -9.65000037E-03  -4.69094783E-04
  -9.60000046E-03  -4.80249641E-04
  -9.54999961E-03  -4.91616782E-04
  -9.49999969E-03  -5.03285788E-04
  -9.44999978E-03  -5.15323016E-04
  -9.39999986E-03  -5.27741795E-04
  -9.34999995E-03  -5.40497538E-04
  -9.30000003E-03  -5.53510094E-04
  -9.25000012E-03  -5.66701812E-04
  -9.20000020E-03  -5.80035558E-04
  -9.15000029E-03  -5.93535602E-04
  -9.10000037E-03  -6.07279537E-04
  -9.05000046E-03  -6.21365791E-04
  -8.99999961E-03  -6.35871431E-04
  -8.94999970E-03  -6.50821254E-04
  -8.89999978E-03  -6.66176958E-04
  -8.84999987E-03  -6.81856473E-04
  -8.79999995E-03  -6.97776384E-04
  -8.75000004E-03  -7.13889545E-04
  -8.70000012E-03  -7.30211148E-04
  -8.65000021E-03  -7.46816047E-04
  -8.60000029E-03  -7.63805525E-04
  -8.55000038E-03  -7.81265902E-04
  -8.50000046E-03  -7.99230009E-04
  -8.44999962E-03  -8.17661581E-04
  -8.39999970E-03  -8.36475403E-04
  -8.34999979E-03  -8.55579623E-04
  -8.29999987E-03  -8.74918536E-04
  -8.24999996E-03  -8.94499361E-04
  -8.20000004E-03  -9.14395263E-04
  -8.15000013E-03  -9.34714801E-04
  -8.10000021E-03  -9.55554016E-04
  -8.05000030E-03  -9.76956682E-04
  -8.00000038E-03  -9.98897362E-04
  -7.95000046E-03  -1.02129346E-03
  -7.89999962E-03  -1.04404707E-03
  -7.84999970E-03  -1.06709450E-03
  -7.79999979E-03  -1.09043776E-03
  -7.74999987E-03  -1.11414725E-03
  -7.69999996E-03  -1.13833626E-03
  -7.65000004E-03  -1.16311130E-03
  -7.60000013E-03  -1.18852477E-03
  -7.55000021E-03  -1.21455570E-03
  -7.49999983E-03  -1.24111993E-03
  -7.44999992E-03  -1.26811245E-03
  -7.40000000E-03  -1.29545783E-03
  -7.35000009E-03  -1.32314919E-03
  -7.30000017E-03  -1.35125639E-03
  -7.24999979E-03  -1.37989607E-03
  -7.19999988E-03  -1.40918326E-03
  -7.14999996E-03  -1.43917941E-03
  -7.10000005E-03  -1.46986824E-03
  -7.05000013E-03  -1.50116731E-03
  -7.00000022E-03  -1.53296755E-03
  -6.94999984E-03  -1.56518596E-03
  -6.89999992E-03  -1.59780693E-03
  -6.85000001E-03  -1.63089845E-03
  -6.80000009E-03  -1.66458252E-03
  -6.75000018E-03  -1.69898081E-03
  -6.69999979E-03  -1.73416873E-03
  -6.64999988E-03  -1.77014165E-03
  -6.59999996E-03  -1.80682074E-03
  -6.55000005E-03  -1.84409192E-03
  -6.50000013E-03  -1.88186206E-03
  -6.45000022E-03  -1.92010507E-03
  -6.39999984E-03  -1.95888523E-03
  -6.34999992E-03  -1.99832791E-03
  -6.30000001E-03  -2.03856453E-03
  -6.25000009E-03  -2.07968242E-03
  -6.20000018E-03  -2.12168018E-03
  -6.14999980E-03  -2.16447772E-03
  -6.09999988E-03  -2.20795441E-03
  -6.04999997E-03  -2.25200527E-03
  -6.00000005E-03  -2.29659933E-03
  -5.95000014E-03  -2.34179106E-03
  -5.90000022E-03  -2.38770293E-03
  -5.84999984E-03  -2.43448117E-03
  -5.79999993E-03  -2.48222169E-03
  -5.75000001E-03  -2.53093522E-03
  -5.70000010E-03  -2.58054840E-03
  -5.65000018E-03  -2.63093202E-03
  -5.59999980E-03  -2.68196594E-03
  -5.54999989E-03  -2.73360475E-03
  -5.49999997E-03  -2.78590689E-03
  -5.45000006E-03  -2.83900276E-03
  -5.40000014E-03  -2.89304228E-03
  -5.35000023E-03  -2.94813793E-03
  -5.29999984E-03  -3.00430669E-03
  -5.24999993E-03  -3.06147197E-03
  -5.20000001E-03  -3.11950734E-03
  -5.15000010E-03  -3.17829009E-03
  -5.10000018E-03  -3.23776319E-03
  -5.04999980E-03  -3.29796341E-03
  -4.99999989E-03  -3.35901463E-03
  -4.94999997E-03  -3.42107541E-03
  -4.90000006E-03  -3.48426448E-03
  -4.85000014E-03  -3.54861259E-03
  -4.80000023E-03  -3.61405080E-03
  -4.74999985E-03  -3.68043408E-03
  -4.69999993E-03  -3.74762597E-03
  -4.65000002E-03  -3.81556363E-03
  -4.60000010E-03  -3.88427428E-03
  -4.55000019E-03  -3.95388529E-03
  -4.49999981E-03  -4.02456662E-03
  -4.44999989E-03  -4.09644889E-03
  -4.39999998E-03  -4.16957540E-03
  -4.35000006E-03  -4.24388004E-03
  -4.30000015E-03  -4.31922590E-03
  -4.25000023E-03  -4.39545652E-03
  -4.19999985E-03  -4.47248761E-03
  -4.14999994E-03  -4.55034431E-03
  -4.10000002E-03  -4.62914677E-03
  -4.05000011E-03  -4.70907893E-03
  -4.00000019E-03  -4.79028979E-03
  -3.94999981E-03  -4.87282733E-03
  -3.89999989E-03  -4.95662633E-03
  -3.84999998E-03  -5.04152244E-03
  -3.80000006E-03  -5.12734428E-03
  -3.74999992E-03  -5.21399733E-03
  -3.70000000E-03  -5.30148624E-03
  -3.65000009E-03  -5.38993627E-03
  -3.59999994E-03  -5.47953136E-03
  -3.55000002E-03  -5.57042845E-03
  -3.50000011E-03  -5.66270109E-03
  -3.44999996E-03  -5.75630413E-03
  -3.40000005E-03  -5.85108250E-03
  -3.34999990E-03  -5.94684342E-03
  -3.29999998E-03  -6.04345044E-03
  -3.25000007E-03  -6.14088541E-03
  -3.19999992E-03  -6.23926427E-03
  -3.15000000E-03  -6.33879425E-03
  -3.10000009E-03  -6.43968023E-03
  -3.04999994E-03  -6.54200884E-03
  -3.00000003E-03  -6.64572930E-03
  -2.95000011E-03  -6.75066980E-03
  -2.89999996E-03  -6.85660075E-03
  -2.85000005E-03  -6.96336897E-03
  -2.79999990E-03  -7.07094697E-03
  -2.74999999E-03  -7.17944419E-03
  -2.70000007E-03  -7.28907064E-03
  -2.64999992E-03  -7.40004145E-03
  -2.60000001E-03  -7.51246046E-03
  -2.55000009E-03  -7.62628065E-03
  -2.49999994E-03  -7.74134742E-03
  -2.45000003E-03  -7.85743911E-03
  -2.40000011E-03  -7.97435362E-03
  -2.34999997E-03  -8.09201226E-03
  -2.30000005E-03  -8.21050443E-03
  -2.24999990E-03  -8.33004620E-03
  -2.19999999E-03  -8.45089089E-03
  -2.15000007E-03  -8.57319031E-03
  -2.09999993E-03  -8.69693980E-03
  -2.05000001E-03  -8.82195961E-03
  -2.00000009E-03  -8.94797221E-03
  -1.94999995E-03  -9.07474849E-03
  -1.90000003E-03  -9.20217577E-03
  -1.85000000E-03  -9.33031831E-03
  -1.79999997E-03  -9.45943594E-03
  -1.75000005E-03  -9.58980713E-03
  -1.70000002E-03  -9.72159859E-03
  -1.64999999E-03  -9.85482428E-03
  -1.59999996E-03  -9.98930167E-03
  -1.55000004E-03  -1.01247123E-02
  -1.50000001E-03  -1.02607673E-02
  -1.44999998E-03  -1.03973364E-02
  -1.39999995E-03  -1.05344895E-02
  -1.35000004E-03  -1.06724817E-02
  -1.30000000E-03  -1.08116250E-02
  -1.24999997E-03  -1.09521253E-02
  -1.20000006E-03  -1.10939955E-02
  -1.15000003E-03  -1.12370271E-02
  -1.09999999E-03  -1.13808727E-02
  -1.04999996E-03  -1.15252174E-02
  -1.00000005E-03  -1.16698788E-02
  -9.50000016E-04  -1.18149137E-02
  -8.99999985E-04  -1.19606070E-02
  -8.50000011E-04  -1.21072829E-02
  -7.99999980E-04  -1.22551881E-02
  -7.50000007E-04  -1.24043683E-02
  -6.99999975E-04  -1.25546297E-02
  -6.50000002E-04  -1.27056064E-02
  -6.00000028E-04  -1.28569091E-02
  -5.49999997E-04  -1.30083011E-02
  -5.00000024E-04  -1.31598171E-02
  -4.49999992E-04  -1.33117149E-02
  -3.99999990E-04  -1.34643279E-02
  -3.49999988E-04  -1.36179533E-02
  -3.00000014E-04  -1.37726907E-02
  -2.50000012E-04  -1.39283761E-02
  -1.99999995E-04  -1.40846651E-02
  -1.50000007E-04  -1.42411143E-02
  -9.99999975E-05  -1.43973641E-02
  -4.99999987E-05  -1.45533159E-02
   0.00000000      -1.47091728E-02
   4.99999987E-05  -1.48653574E-02
   9.99999975E-05  -1.50222545E-02
   1.50000007E-04  -1.51800420E-02
   1.99999995E-04  -1.53386397E-02
   2.50000012E-04  -1.54976631E-02
   3.00000014E-04  -1.56566035E-02
   3.49999988E-04  -1.58150289E-02
   3.99999990E-04  -1.59727670E-02
   4.49999992E-04  -1.61299855E-02
   5.00000024E-04  -1.62870791E-02
   5.49999997E-04  -1.64445210E-02
   6.00000028E-04  -1.66025683E-02
   6.50000002E-04  -1.67611502E-02
   6.99999975E-04  -1.69198904E-02
   7.50000007E-04  -1.70782339E-02
   7.99999980E-04  -1.72356535E-02
   8.50000011E-04  -1.73918866E-02
   8.99999985E-04  -1.75470635E-02
   9.50000016E-04  -1.77015718E-02
   1.00000005E-03  -1.78559218E-02
   1.04999996E-03  -1.80104617E-02
   1.09999999E-03  -1.81651823E-02
   1.15000003E-03  -1.83197223E-02
   1.20000006E-03  -1.84734724E-02
   1.24999997E-03  -1.86258554E-02
   1.30000000E-03  -1.87765509E-02
   1.35000004E-03  -1.89255606E-02
   1.39999995E-03  -1.90732777E-02
   1.44999998E-03  -1.92202441E-02
   1.50000001E-03  -1.93668716E-02
   1.55000004E-03  -1.95132867E-02
   1.59999996E-03  -1.96591355E-02
   1.64999999E-03  -1.98037401E-02
   1.70000002E-03  -1.99464522E-02
   1.75000005E-03  -2.00868249E-02
   1.79999997E-03  -2.02248190E-02
   1.85000000E-03  -2.03607921E-02
   1.90000003E-03  -2.04953253E-02
   1.94999995E-03  -2.06289496E-02
   2.00000009E-03  -2.07618047E-02
   2.05000001E-03  -2.08935626E-02
   2.09999993E-03  -2.10235529E-02
   2.15000007E-03  -2.11510621E-02
   2.19999999E-03  -2.12755296E-02
   2.24999990E-03  -2.13968158E-02
   2.30000005E-03  -2.15153191E-02
   2.34999997E-03  -2.16316339E-02
   2.40000011E-03  -2.17462573E-02
   2.45000003E-03  -2.18593888E-02
   2.49999994E-03  -2.19708290E-02
   2.55000009E-03  -2.20799185E-02
   2.60000001E-03  -2.21858248E-02
   2.64999992E-03  -2.22879667E-02
   2.70000007E-03  -2.23861560E-02
   2.74999999E-03  -2.24806499E-02
   2.79999990E-03  -2.25720685E-02