  -3.99999991E-02   0.00000000    
  -3.99499983E-02   0.00000000    
  -3.99000011E-02   0.00000000    
  -3.98500003E-02   0.00000000    
  -3.97999994E-02   3.67267320E-20
  -3.97499986E-02   2.99105821E-19
  -3.97000015E-02   1.30694899E-18
  -3.96500006E-02   4.03427731E-18
  -3.95999998E-02   9.80788135E-18
  -3.95499989E-02   1.99172518E-17
  -3.95000018E-02   3.51084172E-17
  -3.94500010E-02   5.53152616E-17
  -3.94000001E-02   7.99150241E-17
  -3.93499993E-02   1.08479629E-16
  -3.92999984E-02   1.41648274E-16
  -3.92500013E-02   1.81620447E-16
  -3.92000005E-02   2.31949861E-16
  -3.91499996E-02   2.96696768E-16
  -3.90999988E-02   3.79365437E-16
  -3.90500017E-02   4.82222210E-16
  -3.90000008E-02   6.06422439E-16
  -3.89500000E-02   7.52883065E-16
  -3.88999991E-02   9.23260724E-16
  -3.88499983E-02   1.12017831E-15
  -3.88000011E-02   1.34627851E-15
  -3.87500003E-02   1.60261037E-15
  -3.86999995E-02   1.88759641E-15
  -3.86499986E-02   2.19770025E-15
  -3.86000015E-02   2.52983817E-15
  -3.85500006E-02   2.88418361E-15
  -3.84999998E-02   3.26522943E-15
  -3.84499989E-02   3.67945225E-15
  -3.84000018E-02   4.12954566E-15
  -3.83500010E-02   4.60737092E-15
  -3.83000001E-02   5.08936909E-15
  -3.82499993E-02   5.53812799E-15
  -3.81999984E-02   5.91148656E-15
  -3.81500013E-02   6.17652868E-15
  -3.81000005E-02   6.32210061E-15
  -3.80499996E-02   6.36250747E-15
  -3.79999988E-02   6.32817722E-15
  -3.79500017E-02   6.24532342E-15
  -3.79000008E-02   6.11276912E-15
  -3.78500000E-02   5.88686924E-15
  -3.77999991E-02   5.48295142E-15
  -3.77499983E-02   4.79480999E-15
  -3.77000012E-02   3.72530681E-15
  -3.76500003E-02   2.21490010E-15
  -3.75999995E-02   2.54262800E-16
  -3.75499986E-02  -2.12679618E-15
  -3.75000015E-02  -4.89084278E-15
  -3.74500006E-02  -8.03078459E-15
  -3.73999998E-02  -1.15955702E-14
  -3.73499990E-02  -1.56894151E-14
  -3.73000018E-02  -2.04423897E-14
  -3.72500010E-02  -2.59635961E-14
  -3.72000001E-02  -3.22963668E-14
  -3.71499993E-02  -3.93943945E-14
  -3.70999984E-02  -4.71288624E-14
  -3.70500013E-02  -5.53243839E-14
  -3.70000005E-02  -6.38102649E-14
  -3.69499996E-02  -7.24683510E-14
  -3.68999988E-02  -8.12610206E-14
  -3.68500017E-02  -9.02313977E-14
  -3.68000008E-02  -9.94782056E-14
  -3.67500000E-02  -1.09114445E-13
  -3.66999991E-02  -1.19220335E-13
  -3.66499983E-02  -1.29798760E-13
  -3.66000012E-02  -1.40739972E-13
  -3.65500003E-02  -1.51804621E-13
  -3.64999995E-02  -1.62636099E-13
  -3.64499986E-02  -1.72809561E-13
  -3.64000015E-02  -1.81912401E-13
  -3.63500006E-02  -1.89631798E-13
  -3.62999998E-02  -1.95810612E-13
  -3.62499990E-02  -2.00434734E-13
  -3.62000018E-02  -2.03536827E-13
  -3.61500010E-02  -2.05042187E-13
  -3.61000001E-02  -2.04622940E-13
  -3.60499993E-02  -2.01646832E-13
  -3.59999985E-02  -1.95285154E-13
  -3.59500013E-02  -1.84778652E-13
  -3.59000005E-02  -1.69771125E-13
  -3.58499996E-02  -1.50553289E-13
  -3.57999988E-02  -1.28058344E-13
  -3.57500017E-02  -1.03536435E-13
  -3.57000008E-02  -7.79852189E-14
  -3.56500000E-02  -5.15607691E-14
  -3.55999991E-02  -2.32600262E-14
  -3.55499983E-02   8.90146077E-15
  -3.55000012E-02   4.71906449E-14
  -3.54500003E-02   9.31658450E-14
  -3.53999995E-02   1.46818132E-13
  -3.53499986E-02   2.06292299E-13
  -3.53000015E-02   2.68434309E-13
  -3.52500007E-02   3.30045697E-13
  -3.51999998E-02   3.89346216E-13
  -3.51499990E-02   4.46948658E-13
  -3.51000018E-02   5.05767954E-13
  -3.50500010E-02   5.69720432E-13
  -3.50000001E-02   6.41650578E-13
  -3.49499993E-02   7.21385625E-13
  -3.48999985E-02   8.04910175E-13
  -3.48500013E-02   8.85265331E-13
  -3.48000005E-02   9.55025772E-13
  -3.47499996E-02   1.00940393E-12
  -3.46999988E-02   1.04856911E-12
  -3.46500017E-02   1.07792811E-12
  -3.46000008E-02   1.10592709E-12
  -3.45500000E-02   1.14007762E-12
  -3.44999991E-02   1.18288951E-12
  -3.44499983E-02   1.22967489E-12
  -3.44000012E-02   1.26954567E-12
  -3.43500003E-02   1.28955212E-12
  -3.42999995E-02   1.28036058E-12
  -3.42499986E-02   1.24090788E-12
  -3.42000015E-02   1.17962552E-12
  -3.41500007E-02   1.11118796E-12
  -3.40999998E-02   1.04978808E-12
  -3.40499990E-02   1.00177624E-12
  -3.40000018E-02   9.61180679E-13
  -3.39500010E-02   9.10682445E-13
  -3.39000002E-02   8.28284598E-13
  -3.38499993E-02   6.97182438E-13
  -3.37999985E-02   5.14464990E-13
  -3.37500013E-02   2.94312778E-13
  -3.37000005E-02   6.34866237E-14
  -3.36499996E-02  -1.49641814E-13
  -3.35999988E-02  -3.28009972E-13
  -3.35500017E-02  -4.74771481E-13
  -3.35000008E-02  -6.13477747E-13
  -3.34500000E-02  -7.78486000E-13
  -3.33999991E-02  -9.99128948E-13
  -3.33499983E-02  -1.28456609E-12
  -3.33000012E-02  -1.61666579E-12
  -3.32500003E-02  -1.95519881E-12
  -3.31999995E-02  -2.25416604E-12
  -3.31499986E-02  -2.48261481E-12
  -3.31000015E-02  -2.64044212E-12
  -3.30500007E-02  -2.76109691E-12
  -3.29999998E-02  -2.89852235E-12
  -3.29499990E-02  -3.10294260E-12
  -3.29000019E-02  -3.39587538E-12
  -3.28500010E-02  -3.75617246E-12
  -3.28000002E-02  -4.12478732E-12
  -3.27499993E-02  -4.42782009E-12
  -3.26999985E-02  -4.60865981E-12
  -3.26500013E-02  -4.65485246E-12
  -3.26000005E-02  -4.60649487E-12
  -3.25499997E-02  -4.54053722E-12
  -3.24999988E-02  -4.53629148E-12
  -3.24500017E-02  -4.63687812E-12
  -3.24000008E-02  -4.82456002E-12
  -3.23500000E-02  -5.02293996E-12
  -3.22999991E-02  -5.12735384E-12
  -3.22499983E-02  -5.05154902E-12
  -3.22000012E-02  -4.76992881E-12
  -3.21500003E-02  -4.33495037E-12
  -3.20999995E-02  -3.85925363E-12
  -3.20499986E-02  -3.46789437E-12
  -3.20000015E-02  -3.24065818E-12
  -3.19500007E-02  -3.17081214E-12
  -3.18999998E-02  -3.16108923E-12
  -3.18499990E-02  -3.06186391E-12
  -3.18000019E-02  -2.73698447E-12
  -3.17500010E-02  -2.12855168E-12
  -3.17000002E-02  -1.29013987E-12
  -3.16499993E-02  -3.70414365E-13
  -3.15999985E-02   4.48963078E-13
  -3.15500014E-02   1.03545341E-12
  -3.15000005E-02   1.37071355E-12
  -3.14499997E-02   1.56675020E-12
  -3.13999988E-02   1.82187989E-12
  -3.13500017E-02   2.33266249E-12
  -3.13000008E-02   3.19988155E-12
  -3.12500000E-02   4.37225733E-12
  -3.11999992E-02   5.65709805E-12
  -3.11500002E-02   6.79782576E-12
  -3.10999993E-02   7.58697185E-12
  -3.10500003E-02   7.96438089E-12
  -3.09999995E-02   8.05369920E-12
  -3.09500005E-02   8.11581791E-12
  -3.08999997E-02   8.43522561E-12
  -3.08500007E-02   9.18771483E-12
  -3.07999998E-02   1.03498096E-11
  -3.07500008E-02   1.16949133E-11
  -3.07000000E-02   1.28836473E-11
  -3.06499992E-02   1.36124115E-11
  -3.06000002E-02   1.37546528E-11
  -3.05499993E-02   1.34285144E-11
  -3.05000003E-02   1.29545914E-11
  -3.04499995E-02   1.27164668E-11
  -3.04000005E-02   1.29828856E-11
  -3.03499997E-02   1.37720295E-11
  -3.03000007E-02   1.48238539E-11
  -3.02499998E-02   1.57002675E-11
  -3.02000009E-02   1.59746487E-11
  -3.01500000E-02   1.54282750E-11
  -3.00999992E-02   1.41629226E-11
  -3.00500002E-02   1.25723459E-11
  -2.99999993E-02   1.11773837E-11
  -2.99500003E-02   1.03930285E-11
  -2.98999995E-02   1.03313686E-11
  -2.98500005E-02   1.07337160E-11
  -2.97999997E-02   1.10707476E-11
  -2.97500007E-02   1.07737968E-11
  -2.96999998E-02   9.49753731E-12
  -2.96500009E-02   7.29415833E-12
  -2.96000000E-02   4.61337479E-12
  -2.95499992E-02   2.11850351E-12
  -2.95000002E-02   3.93482203E-13
  -2.94499993E-02  -3.29691217E-13
  -2.94000003E-02  -2.95970578E-13
  -2.93499995E-02  -1.38879468E-13
  -2.93000005E-02  -6.07959212E-13
  -2.92499997E-02  -2.22791512E-12
  -2.92000007E-02  -5.04298903E-12
  -2.91499998E-02  -8.56882707E-12
  -2.91000009E-02  -1.19847431E-11
  -2.90500000E-02  -1.44901114E-11
  -2.89999992E-02  -1.56691014E-11
  -2.89500002E-02  -1.56962828E-11
  -2.88999993E-02  -1.52805615E-11
  -2.88500004E-02  -1.53604542E-11
  -2.87999995E-02  -1.66788111E-11
  -2.87500005E-02  -1.94269965E-11
  -2.86999997E-02  -2.31257444E-11
  -2.86500007E-02  -2.68090654E-11
  -2.85999998E-02  -2.94412550E-11
  -2.85500009E-02  -3.03864364E-11
  -2.85000000E-02  -2.97172113E-11
  -2.84499992E-02  -2.82129251E-11
  -2.84000002E-02  -2.70335976E-11
  -2.83499993E-02  -2.72039561E-11
  -2.83000004E-02  -2.91354232E-11
  -2.82499995E-02  -3.24070042E-11
  -2.82000005E-02  -3.59171998E-11
  -2.81499997E-02  -3.83541705E-11
  -2.81000007E-02  -3.87828554E-11
  -2.80499998E-02  -3.70854701E-11
  -2.80000009E-02  -3.40472650E-11
  -2.79500000E-02  -3.10329505E-11
  -2.78999992E-02  -2.93843873E-11
  -2.78500002E-02  -2.98034410E-11
  -2.77999993E-02  -3.20018213E-11
  -2.77500004E-02  -3.47897891E-11
  -2.76999995E-02  -3.65815503E-11
  -2.76500005E-02  -3.61040017E-11
  -2.75999997E-02  -3.29930736E-11
  -2.75500007E-02  -2.80004978E-11
  -2.74999999E-02  -2.27002098E-11
  -2.74500009E-02  -1.88077297E-11
  -2.74000000E-02  -1.74072475E-11
  -2.73499992E-02  -1.84351163E-11
  -2.73000002E-02  -2.06654121E-11
  -2.72499993E-02  -2.22238686E-11
  -2.72000004E-02  -2.14165075E-11
  -2.71499995E-02  -1.75075648E-11
  -2.71000005E-02  -1.10903049E-11
  -2.70499997E-02  -3.86634084E-12
  -2.70000007E-02   2.08825340E-12
  -2.69499999E-02   5.25490068E-12
  -2.69000009E-02   5.38526255E-12
  -2.68500000E-02   3.66176490E-12
  -2.67999992E-02   2.21206820E-12
  -2.67500002E-02   3.17442687E-12
  -2.66999993E-02   7.72270182E-12
  -2.66500004E-02   1.54931953E-11
  -2.65999995E-02   2.46887667E-11
  -2.65500005E-02   3.28376076E-11
  -2.64999997E-02   3.78854448E-11
  -2.64500007E-02   3.91368916E-11
  -2.63999999E-02   3.76130828E-11
  -2.63500009E-02   3.56426139E-11
  -2.63000000E-02   3.58448583E-11
  -2.62499992E-02   3.99460777E-11
  -2.62000002E-02   4.79599832E-11
  -2.61499994E-02   5.81169592E-11
  -2.61000004E-02   6.75995510E-11
  -2.60499995E-02   7.37776160E-11
  -2.60000005E-02   7.53995755E-11
  -2.59499997E-02   7.31977604E-11
  -2.59000007E-02   6.96137870E-11
  -2.58499999E-02   6.77391754E-11
  -2.58000009E-02   6.99254959E-11
  -2.57500000E-02   7.66831321E-11
  -2.56999992E-02   8.63771138E-11
  -2.56500002E-02   9.58838495E-11
  -2.55999994E-02   1.01942538E-10
  -2.55500004E-02   1.02611968E-10
  -2.54999995E-02   9.81771470E-11
  -2.54500005E-02   9.10782422E-11
  -2.53999997E-02   8.48639770E-11
  -2.53500007E-02   8.26127361E-11
  -2.52999999E-02   8.55195081E-11
  -2.52500009E-02   9.22926527E-11
  -2.52000000E-02   9.96581290E-11
  -2.51499992E-02   1.03776307E-10
  -2.51000002E-02   1.01957977E-10
  -2.50499994E-02   9.39123362E-11
  -2.50000004E-02   8.19484272E-11
  -2.49499995E-02   7.00074235E-11
  -2.49000005E-02   6.19283791E-11
  -2.48499997E-02   5.97082522E-11
  -2.48000007E-02   6.25421728E-11
  -2.47499999E-02   6.71004086E-11
  -2.47000009E-02   6.89528989E-11
  -2.46500000E-02   6.45314635E-11
  -2.45999992E-02   5.27595467E-11
  -2.45500002E-02   3.56045228E-11
  -2.44999994E-02   1.72734622E-11
  -2.44500004E-02   2.37749013E-12
  -2.43999995E-02  -6.13512973E-12
  -2.43500005E-02  -8.35058758E-12
  -2.42999997E-02  -7.42748398E-12
  -2.42500007E-02  -8.24727092E-12
  -2.41999999E-02  -1.52482558E-11
  -2.41500009E-02  -3.03983019E-11
  -2.41000000E-02  -5.22249501E-11
  -2.40499992E-02  -7.63694732E-11
  -2.40000002E-02  -9.74563971E-11
  -2.39499994E-02  -1.11471103E-10
  -2.39000004E-02  -1.17587329E-10
  -2.38499995E-02  -1.18606250E-10
  -2.38000005E-02  -1.19772761E-10
  -2.37499997E-02  -1.26459995E-10
  -2.37000007E-02  -1.41735845E-10
  -2.36499999E-02  -1.64904521E-10
  -2.36000009E-02  -1.91704735E-10
  -2.35500000E-02  -2.16116833E-10
  -2.34999992E-02  -2.33004699E-10
  -2.34500002E-02  -2.40423070E-10
  -2.33999994E-02  -2.40542142E-10
  -2.33500004E-02  -2.38738668E-10
  -2.32999995E-02  -2.41218295E-10
  -2.32500006E-02  -2.52204174E-10
  -2.31999997E-02  -2.71948741E-10
  -2.31500007E-02  -2.96484531E-10
  -2.30999999E-02  -3.19268695E-10
  -2.30500009E-02  -3.34027084E-10
  -2.30000000E-02  -3.37545991E-10
  -2.29499992E-02  -3.31152938E-10
  -2.29000002E-02  -3.20189375E-10
  -2.28499994E-02  -3.11665332E-10
  -2.28000004E-02  -3.11109555E-10
  -2.27499995E-02  -3.20014210E-10
  -2.27000006E-02  -3.35038358E-10
  -2.26499997E-02  -3.49368257E-10
  -2.26000007E-02  -3.55670521E-10
  -2.25499999E-02  -3.49344720E-10
  -2.25000009E-02  -3.30617062E-10
  -2.24500000E-02  -3.04506614E-10
  -2.23999992E-02  -2.78632589E-10
  -2.23500002E-02  -2.59802180E-10
  -2.22999994E-02  -2.50889060E-10
  -2.22500004E-02  -2.49414850E-10
  -2.21999995E-02  -2.48510212E-10
  -2.21500006E-02  -2.39875092E-10
  -2.20999997E-02  -2.17450072E-10
  -2.20500007E-02  -1.80162149E-10
  -2.19999999E-02  -1.32491657E-10
  -2.19500009E-02  -8.25595772E-11
  -2.19000001E-02  -3.85455591E-11
  -2.18499992E-02  -5.01458770E-12
  -2.18000002E-02   1.91968542E-11
  -2.17499994E-02   4.05524468E-11
  -2.17000004E-02   6.79877751E-11
  -2.16499995E-02   1.08907487E-10
  -2.16000006E-02   1.65786648E-10
  -2.15499997E-02   2.34917502E-10
  -2.15000007E-02   3.07908060E-10
  -2.14499999E-02   3.75310727E-10
  -2.14000009E-02   4.30789765E-10
  -2.13500001E-02   4.73960704E-10
  -2.12999992E-02   5.10599674E-10
  -2.12500002E-02   5.50077817E-10
  -2.11999994E-02   6.01122874E-10
  -2.11500004E-02   6.67784328E-10
  -2.10999995E-02   7.47419737E-10
  -2.10500006E-02   8.31645142E-10
  -2.09999997E-02   9.09873454E-10
  -2.09500007E-02   9.73895742E-10
  -2.08999999E-02   1.02146080E-09
  -2.08500009E-02   1.05722753E-09
  -2.08000001E-02   1.09061493E-09
  -2.07499992E-02   1.13146759E-09
  -2.07000002E-02   1.18545007E-09
  -2.06499994E-02   1.25124011E-09
  -2.06000004E-02   1.32081635E-09
  -2.05499995E-02   1.38276035E-09
  -2.05000006E-02   1.42713985E-09
  -2.04499997E-02   1.44979906E-09
  -2.04000007E-02   1.45411716E-09
  -2.03499999E-02   1.44940038E-09
  -2.03000009E-02   1.44657941E-09
  -2.02500001E-02   1.45310353E-09
  -2.01999992E-02   1.46931511E-09
  -2.01500002E-02   1.48795987E-09
  -2.00999994E-02   1.49709556E-09
  -2.00500004E-02   1.48514478E-09
  -1.99999996E-02   1.44584611E-09
  -1.99500006E-02   1.38087897E-09
  -1.98999997E-02   1.29894651E-09
  -1.98500007E-02   1.21168275E-09
  -1.97999999E-02   1.12818277E-09
  -1.97500009E-02   1.05060283E-09
  -1.97000001E-02   9.72824266E-10
  -1.96499992E-02   8.82827533E-10
  -1.96000002E-02   7.67759467E-10
  -1.95499994E-02   6.19445883E-10
  -1.95000004E-02   4.37877873E-10
  -1.94499996E-02   2.31076713E-10
  -1.94000006E-02   1.13481871E-11
  -1.93499997E-02  -2.10428397E-10
  -1.93000007E-02  -4.29936392E-10
  -1.92499999E-02  -6.51662335E-10
  -1.92000009E-02  -8.87202645E-10
  -1.91500001E-02  -1.15034837E-09
  -1.90999992E-02  -1.45112966E-09
  -1.90500002E-02  -1.79148318E-09
  -1.89999994E-02  -2.16451435E-09
  -1.89500004E-02  -2.55772226E-09
  -1.88999996E-02  -2.95877656E-09
  -1.88500006E-02  -3.36127393E-09
  -1.87999997E-02  -3.76787401E-09
  -1.87500007E-02  -4.18937951E-09
  -1.86999999E-02  -4.64012828E-09
  -1.86500009E-02  -5.13173459E-09
  -1.86000001E-02  -5.66798075E-09
  -1.85499992E-02  -6.24317265E-09
  -1.85000002E-02  -6.84472745E-09
  -1.84499994E-02  -7.45888062E-09
  -1.84000004E-02  -8.07696043E-09
  -1.83499996E-02  -8.69942429E-09
  -1.83000006E-02  -9.33580502E-09
  -1.82499997E-02  -1.00005844E-08
  -1.82000007E-02  -1.07067830E-08
  -1.81499999E-02  -1.14601706E-08
  -1.81000009E-02  -1.22566828E-08
  -1.80500001E-02  -1.30842519E-08
  -1.79999992E-02  -1.39282381E-08
  -1.79500002E-02  -1.47780730E-08
  -1.78999994E-02  -1.56320930E-08
  -1.78500004E-02  -1.64984044E-08
  -1.77999996E-02  -1.73913275E-08
  -1.77500006E-02  -1.83250339E-08
  -1.76999997E-02  -1.93071692E-08
  -1.76500008E-02  -2.03353903E-08
  -1.75999999E-02  -2.13983569E-08
  -1.75500009E-02  -2.24807817E-08
  -1.75000001E-02  -2.35702853E-08
  -1.74499992E-02  -2.46629703E-08
  -1.74000002E-02  -2.57652317E-08
  -1.73499994E-02  -2.68909179E-08
  -1.73000004E-02  -2.80551600E-08
  -1.72499996E-02  -2.92675839E-08
  -1.72000006E-02  -3.05280174E-08
  -1.71499997E-02  -3.18265947E-08
  -1.71000008E-02  -3.31482646E-08
  -1.70499999E-02  -3.44796796E-08
  -1.70000009E-02  -3.58153578E-08
  -1.69500001E-02  -3.71603512E-08
  -1.68999992E-02  -3.85281851E-08
  -1.68500002E-02  -3.99349744E-08
  -1.67999994E-02  -4.13923864E-08
  -1.67500004E-02  -4.29025775E-08
  -1.66999996E-02  -4.44574333E-08
  -1.66500006E-02  -4.60424303E-08
  -1.65999997E-02  -4.76434430E-08
  -1.65500008E-02  -4.92533978E-08
  -1.64999999E-02  -5.08757907E-08
  -1.64500009E-02  -5.25234505E-08
  -1.64000001E-02  -5.42131602E-08
  -1.63499992E-02  -5.59584521E-08
  -1.63000003E-02  -5.77639589E-08
  -1.62499994E-02  -5.96237797E-08
  -1.62000004E-02  -6.15246307E-08
  -1.61499996E-02  -6.34523971E-08
  -1.61000006E-02  -6.53991137E-08
  -1.60499997E-02  -6.73671749E-08
  -1.60000008E-02  -6.93689231E-08
  -1.59499999E-02  -7.14217592E-08
  -1.59000009E-02  -7.35410097E-08
  -1.58500001E-02  -7.57336949E-08
  -1.57999992E-02  -7.79961269E-08
  -1.57500003E-02  -8.03163687E-08
  -1.56999994E-02  -8.26804296E-08
  -1.56500004E-02  -8.50794208E-08
  -1.55999996E-02  -8.75144366E-08
  -1.55499997E-02  -8.99969663E-08
  -1.54999997E-02  -9.25446173E-08
  -1.54499998E-02  -9.51741086E-08
  -1.53999999E-02  -9.78947412E-08
  -1.53500000E-02  -1.00705279E-07
  -1.53000001E-02  -1.03595632E-07
  -1.52500002E-02  -1.06552655E-07
  -1.52000003E-02  -1.09567303E-07
  -1.51500003E-02  -1.12640066E-07
  -1.51000004E-02  -1.15781980E-07
  -1.50499996E-02  -1.19010956E-07
  -1.49999997E-02  -1.22345071E-07
  -1.49499997E-02  -1.25795680E-07
  -1.48999998E-02  -1.29363769E-07
  -1.48499999E-02  -1.33040857E-07
  -1.48000000E-02  -1.36814464E-07
  -1.47500001E-02  -1.40675184E-07
  -1.47000002E-02  -1.44622533E-07
  -1.46500003E-02  -1.48666572E-07
  -1.46000003E-02  -1.52825024E-07
  -1.45500004E-02  -1.57116688E-07
  -1.44999996E-02  -1.61554553E-07
  -1.44499997E-02  -1.66141589E-07
  -1.43999998E-02  -1.70871147E-07
  -1.43499998E-02  -1.75731799E-07
  -1.42999999E-02  -1.80714352E-07
  -1.42500000E-02  -1.85817953E-07
  -1.42000001E-02  -1.91052266E-07
  -1.41500002E-02  -1.96435053E-07
  -1.41000003E-02  -2.01985912E-07
  -1.40500003E-02  -2.07719381E-07
  -1.40000004E-02  -2.13640234E-07
  -1.39499996E-02  -2.19743427E-07
  -1.38999997E-02  -2.26018400E-07
  -1.38499998E-02  -2.32456046E-07
  -1.37999998E-02  -2.39054884E-07
  -1.37499999E-02  -2.45823827E-07
  -1.37000000E-02  -2.52780296E-07
  -1.36500001E-02  -2.59944159E-07
  -1.36000002E-02  -2.67330904E-07
  -1.35500003E-02  -2.74946814E-07
  -1.35000004E-02  -2.82788250E-07
  -1.34500004E-02  -2.90845804E-07
  -1.33999996E-02  -2.99110866E-07
  -1.33499997E-02  -3.07582070E-07
  -1.32999998E-02  -3.16268313E-07
  -1.32499998E-02  -3.25187216E-07
  -1.31999999E-02  -3.34359385E-07
  -1.31500000E-02  -3.43801645E-07
  -1.31000001E-02  -3.53521784E-07
  -1.30500002E-02  -3.63517586E-07
  -1.30000003E-02  -3.73780665E-07
  -1.29500004E-02  -3.84302808E-07
  -1.29000004E-02  -3.95082651E-07
  -1.28499996E-02  -4.06129004E-07
  -1.27999997E-02  -4.17459461E-07
  -1.27499998E-02  -4.29095223E-07
  -1.26999998E-02  -4.41054112E-07
  -1.26499999E-02  -4.53345280E-07
  -1.26000000E-02  -4.65967986E-07
  -1.25500001E-02  -4.78914956E-07
  -1.25000002E-02  -4.92179140E-07
  -1.24500003E-02  -5.05759886E-07
  -1.24000004E-02  -5.19666855E-07
  -1.23500004E-02  -5.33918922E-07
  -1.22999996E-02  -5.48538765E-07
  -1.22499997E-02  -5.63546109E-07
  -1.21999998E-02  -5.78952211E-07
  -1.21499998E-02  -5.94758433E-07
  -1.20999999E-02  -6.10959148E-07
  -1.20500000E-02  -6.27548616E-07
  -1.20000001E-02  -6.44527404E-07
  -1.19500002E-02  -6.61906427E-07
  -1.19000003E-02  -6.79705749E-07
  -1.18500004E-02  -6.97949588E-07
  -1.18000004E-02  -7.16659486E-07
  -1.17499996E-02  -7.35848175E-07
  -1.16999997E-02  -7.55518272E-07
  -1.16499998E-02  -7.75665683E-07
  -1.15999999E-02  -7.96285747E-07
  -1.15499999E-02  -8.17380226E-07
  -1.15000000E-02  -8.38961739E-07
  -1.14500001E-02  -8.61052285E-07
  -1.14000002E-02  -8.83678922E-07
  -1.13500003E-02  -9.06865864E-07
  -1.13000004E-02  -9.30628971E-07
  -1.12500004E-02  -9.54973871E-07
  -1.11999996E-02  -9.79898459E-07
  -1.11499997E-02  -1.00540046E-06
  -1.10999998E-02  -1.03148329E-06
  -1.10499999E-02  -1.05816139E-06
  -1.09999999E-02  -1.08545908E-06
  -1.09500000E-02  -1.11340546E-06
  -1.09000001E-02  -1.14202703E-06
  -1.08500002E-02  -1.17134152E-06
  -1.08000003E-02  -1.20135587E-06
  -1.07500004E-02  -1.23206939E-06
  -1.07000005E-02  -1.26348061E-06
  -1.06499996E-02  -1.29559430E-06
  -1.05999997E-02  -1.32842740E-06
  -1.05499998E-02  -1.36200708E-06
  -1.04999999E-02  -1.39636677E-06
  -1.04499999E-02  -1.43153716E-06
  -1.04000000E-02  -1.46754041E-06
  -1.03500001E-02  -1.50438746E-06
  -1.03000002E-02  -1.54208044E-06
  -1.02500003E-02  -1.58062073E-06
  -1.02000004E-02  -1.62001561E-06
  -1.01500005E-02  -1.66028428E-06
  -1.00999996E-02  -1.70145722E-06
  -1.00499997E-02  -1.74357126E-06
  -9.99999978E-03  -1.78666028E-06
  -9.94999986E-03  -1.83074962E-06
  -9.89999995E-03  -1.87585215E-06
  -9.85000003E-03  -1.92197126E-06
  -9.80000012E-03  -1.96910946E-06
  -9.75000020E-03  -2.01727494E-06
  -9.70000029E-03  -2.06648883E-06
  -9.65000037E-03  -2.11678412E-06
  -9.60000046E-03  -2.16820126E-06
  -9.54999961E-03  -2.22077915E-06
  -9.49999969E-03  -2.27454711E-06
  -9.44999978E-03  -2.32952220E-06
  -9.39999986E-03  -2.38571170E-06
  -9.34999995E-03  -2.44312014E-06
  -9.30000003E-03  -2.50175935E-06
  -9.25000012E-03  -2.56165345E-06
  -9.20000020E-03  -2.62284084E-06
  -9.15000029E-03  -2.68536701E-06
  -9.10000037E-03  -2.74927606E-06
  -9.05000046E-03  -2.81460234E-06
  -8.99999961E-03  -2.88136675E-06
  -8.94999970E-03  -2.94957840E-06
  -8.89999978E-03  -3.01924388E-06
  -8.84999987E-03  -3.09037523E-06
  -8.79999995E-03  -3.16299838E-06
  -8.75000004E-03  -3.23715290E-06
  -8.70000012E-03  -3.31288788E-06
  -8.65000021E-03  -3.39025155E-06
  -8.60000029E-03  -3.46928209E-06
  -8.55000038E-03  -3.55000475E-06
  -8.50000046E-03  -3.63243157E-06
  -8.44999962E-03  -3.71657075E-06
  -8.39999970E-03  -3.80243705E-06
  -8.34999979E-03  -3.89006027E-06
  -8.29999987E-03  -3.97948452E-06
  -8.24999996E-03  -4.07076368E-06
  -8.20000004E-03  -4.16395278E-06
  -8.15000013E-03  -4.25909639E-06
  -8.10000021E-03  -4.35622360E-06
  -8.05000030E-03  -4.45535261E-06
  -8.00000038E-03  -4.55649479E-06
  -7.95000046E-03  -4.65966832E-06
  -7.89999962E-03  -4.76490368E-06
  -7.84999970E-03  -4.87224952E-06
  -7.79999979E-03  -4.98176360E-06
  -7.74999987E-03  -5.09350593E-06
  -7.69999996E-03  -5.20752656E-06
  -7.65000004E-03  -5.32385866E-06
  -7.60000013E-03  -5.44252271E-06
  -7.55000021E-03  -5.56353325E-06
  -7.49999983E-03  -5.68690939E-06
  -7.44999992E-03  -5.81268478E-06
  -7.40000000E-03  -5.94090989E-06
  -7.35000009E-03  -6.07164748E-06
  -7.30000017E-03  -6.20496212E-06
  -7.24999979E-03  -6.34090929E-06
  -7.19999988E-03  -6.47952857E-06
  -7.14999996E-03  -6.62084403E-06
  -7.10000005E-03  -6.76487389E-06
  -7.05000013E-03  -6.91163996E-06
  -7.00000022E-03  -7.06117817E-06
  -6.94999984E-03  -7.21354309E-06
  -6.89999992E-03  -7.36880202E-06
  -6.85000001E-03  -7.52702681E-06
  -6.80000009E-03  -7.68827795E-06
  -6.75000018E-03  -7.85259999E-06
  -6.69999979E-03  -8.02002251E-06
  -6.64999988E-03  -8.19056550E-06
  -6.59999996E-03  -8.36425534E-06
  -6.55000005E-03  -8.54112750E-06
  -6.50000013E-03  -8.72124019E-06
  -6.45000022E-03  -8.90466345E-06
  -6.39999984E-03  -9.09147184E-06
  -6.34999992E-03  -9.28173176E-06
  -6.30000001E-03  -9.47549051E-06
  -6.25000009E-03  -9.67277992E-06
  -6.20000018E-03  -9.87362273E-06
  -6.14999980E-03  -1.00780426E-05
  -6.09999988E-03  -1.02860777E-05
  -6.04999997E-03  -1.04977871E-05
  -6.00000005E-03  -1.07132464E-05
  -5.95000014E-03  -1.09325319E-05
  -5.90000022E-03  -1.11557174E-05
  -5.84999984E-03  -1.13828546E-05
  -5.79999993E-03  -1.16139790E-05
  -5.75000001E-03  -1.18491143E-05
  -5.70000010E-03  -1.20882869E-05
  -5.65000018E-03  -1.23315403E-05
  -5.59999980E-03  -1.25789347E-05
  -5.54999989E-03  -1.28305483E-05
  -5.49999997E-03  -1.30864655E-05
  -5.45000006E-03  -1.33467611E-05
  -5.40000014E-03  -1.36114922E-05
  -5.35000023E-03  -1.38806945E-05
  -5.29999984E-03  -1.41543924E-05
  -5.24999993E-03  -1.44326123E-05
  -5.20000001E-03  -1.47153924E-05
  -5.15000010E-03  -1.50027954E-05
  -5.10000018E-03  -1.52949015E-05
  -5.04999980E-03  -1.55917951E-05
  -4.99999989E-03  -1.58935491E-05
  -4.94999997E-03  -1.62002270E-05
  -4.90000006E-03  -1.65118636E-05
  -4.85000014E-03  -1.68284823E-05
  -4.80000023E-03  -1.71501088E-05
  -4.74999985E-03  -1.74767847E-05
  -4.69999993E-03  -1.78085738E-05
  -4.65000002E-03  -1.81455562E-05
  -4.60000010E-03  -1.84878245E-05
  -4.55000019E-03  -1.88354607E-05
  -4.49999981E-03  -1.91885247E-05
  -4.44999989E-03  -1.95470529E-05
  -4.39999998E-03  -1.99110709E-05
  -4.35000006E-03  -2.02805986E-05
  -4.30000015E-03  -2.06556761E-05
  -4.25000023E-03  -2.10363596E-05
  -4.19999985E-03  -2.14227348E-05
  -4.14999994E-03  -2.18148925E-05
  -4.10000002E-03  -2.22129129E-05
  -4.05000011E-03  -2.26168559E-05
  -4.00000019E-03  -2.30267578E-05
  -3.94999981E-03  -2.34426334E-05
  -3.89999989E-03  -2.38644989E-05
  -3.84999998E-03  -2.42923907E-05
  -3.80000006E-03  -2.47263670E-05
  -3.74999992E-03  -2.51665060E-05
  -3.70000000E-03  -2.56129042E-05
  -3.65000009E-03  -2.60656470E-05
  -3.59999994E-03  -2.65247945E-05
  -3.55000002E-03  -2.69903794E-05
  -3.50000011E-03  -2.74624199E-05
  -3.44999996E-03  -2.79409251E-05
  -3.40000005E-03  -2.84259222E-05
  -3.34999990E-03  -2.89174586E-05
  -3.29999998E-03  -2.94156180E-05
  -3.25000007E-03  -2.99204930E-05
  -3.19999992E-03  -3.04321711E-05
  -3.15000000E-03  -3.09507159E-05
  -3.10000009E-03  -3.14761601E-05
  -3.04999994E-03  -3.20085055E-05
  -3.00000003E-03  -3.25477486E-05
  -2.95000011E-03  -3.30939038E-05
  -2.89999996E-03  -3.36470112E-05
  -2.85000005E-03  -3.42071471E-05
  -2.79999990E-03  -3.47744099E-05
  -2.74999999E-03  -3.53488831E-05
  -2.70000007E-03  -3.59306323E-05
  -2.64999992E-03  -3.65196793E-05
  -2.60000001E-03  -3.71160168E-05
  -2.55000009E-03  -3.77196302E-05
  -2.49999994E-03  -3.83305160E-05
  -2.45000003E-03  -3.89487031E-05
  -2.40000011E-03  -3.95742718E-05
  -2.34999997E-03  -4.02073056E-05
  -2.30000005E-03  -4.08478954E-05
  -2.24999990E-03  -4.14961032E-05
  -2.19999999E-03  -4.21519435E-05
  -2.15000007E-03  -4.28153944E-05
  -2.09999993E-03  -4.34864196E-05
  -2.05000001E-03  -4.41650081E-05
  -2.00000009E-03  -4.48511673E-05
  -1.94999995E-03  -4.55449554E-05
  -1.90000003E-03  -4.62464632E-05
  -1.85000000E-03  -4.69557672E-05
  -1.79999997E-03  -4.76729292E-05
  -1.75000005E-03  -4.83979529E-05
  -1.70000002E-03  -4.91307983E-05
  -1.64999999E-03  -4.98714071E-05
  -1.59999996E-03  -5.06197284E-05
  -1.55000004E-03  -5.13757695E-05
  -1.50000001E-03  -5.21395596E-05
  -1.44999998E-03  -5.29111821E-05
  -1.39999995E-03  -5.36907100E-05
  -1.35000004E-03  -5.44781942E-05
  -1.30000000E-03  -5.52736346E-05
  -1.24999997E-03  -5.60769622E-05
  -1.20000006E-03  -5.68880969E-05
  -1.15000003E-03  -5.77069659E-05
  -1.09999999E-03  -5.85335365E-05
  -1.04999996E-03  -5.93678305E-05
  -1.00000005E-03  -6.02099208E-05
  -9.50000016E-04  -6.10598654E-05
  -8.99999985E-04  -6.19177081E-05
  -8.50000011E-04  -6.27834379E-05
  -7.99999980E-04  -6.36569603E-05
  -7.50000007E-04  -6.45381588E-05
  -6.99999975E-04  -6.54269315E-05
  -6.50000002E-04  -6.63232058E-05
  -6.00000028E-04  -6.72269671E-05
  -5.49999997E-04  -6.81382589E-05
  -5.00000024E-04  -6.90571542E-05
  -4.49999992E-04  -6.99836601E-05
  -3.99999990E-04  -7.09177402E-05
  -3.49999988E-04  -7.18593074E-05
  -3.00000014E-04  -7.28081868E-05
  -2.50000012E-04  -7.37642331E-05
  -1.99999995E-04  -7.47273298E-05
  -1.50000007E-04  -7.56974405E-05
  -9.99999975E-05  -7.66745798E-05
  -4.99999987E-05  -7.76587840E-05
   0.00000000      -7.86500823E-05
   4.99999987E-05  -7.96484019E-05
   9.99999975E-05  -8.06536336E-05
   1.50000007E-04  -8.16655738E-05
   1.99999995E-04  -8.26840333E-05
   2.50000012E-04  -8.37088301E-05
   3.00000014E-04  -8.47398842E-05
   3.49999988E-04  -8.57771738E-05
   3.99999990E-04  -8.68207280E-05
   4.49999992E-04  -8.78705396E-05
   5.00000024E-04  -8.89265430E-05
   5.49999997E-04  -8.99885636E-05
   6.00000028E-04  -9.10563685E-05
   6.50000002E-04  -9.21297033E-05
   6.99999975E-04  -9.32083276E-05
   7.50000007E-04  -9.42921106E-05
   7.99999980E-04  -9.53809940E-05
   8.50000011E-04  -9.64749706E-05
   8.99999985E-04  -9.75740259E-05
   9.50000016E-04  -9.86780578E-05
   1.00000005E-03  -9.97868774E-05
   1.04999996E-03  -1.00900208E-04
   1.09999999E-03  -1.02017730E-04
   1.15000003E-03  -1.03139151E-04
   1.20000006E-03  -1.04264269E-04
   1.24999997E-03  -1.05392988E-04
   1.30000000E-03  -1.06525244E-04
   1.35000004E-03  -1.07661006E-04
   1.39999995E-03  -1.08800174E-04
   1.44999998E-03  -1.09942506E-04
   1.50000001E-03  -1.11087691E-04
   1.55000004E-03  -1.12235328E-04
   1.59999996E-03  -1.13385067E-04
   1.64999999E-03  -1.14536626E-04
   1.70000002E-03  -1.15689836E-04
   1.75000005E-03  -1.16844611E-04
   1.79999997E-03  -1.18000884E-04
   1.85000000E-03  -1.19158511E-04
   1.90000003E-03  -1.20317243E-04
   1.94999995E-03  -1.21476711E-04
   2.00000009E-03  -1.22636469E-04
   2.05000001E-03  -1.23796068E-04
   2.09999993E-03  -1.24955171E-04
   2.15000007E-03  -1.26113533E-04
   2.19999999E-03  -1.27271021E-04
   2.24999990E-03  -1.28427520E-04
   2.30000005E-03  -1.29582899E-04
   2.34999997E-03  -1.30736866E-04
   2.40000011E-03  -1.31888984E-04
   2.45000003E-03  -1.33038760E-04
   2.49999994E-03  -1.34185655E-04
   2.55000009E-03  -1.35329232E-04
   2.60000001E-03  -1.36469185E-04
   2.64999992E-03  -1.37605341E-04
   2.70000007E-03  -1.38737523E-04
   2.74999999E-03  -1.39865573E-04
   2.79999990E-03  -1.40989199E-04