  -3.99999991E-02   0.00000000    
  -3.99499983E-02   0.00000000    
  -3.99000011E-02   0.00000000    
  -3.98500003E-02   0.00000000    
  -3.97999994E-02  -1.85794414E-22
  -3.97499986E-02  -1.86508872E-21
  -3.97000015E-02  -9.59445985E-21
  -3.96500006E-02  -3.32570841E-20
  -3.95999998E-02  -8.58344642E-20
  -3.95499989E-02  -1.70698969E-19
  -3.95000018E-02  -2.54959114E-19
  -3.94500010E-02  -2.34495803E-19
  -3.94000001E-02   9.08893197E-20
  -3.93499993E-02   1.00528366E-18
  -3.92999984E-02   2.80656488E-18
  -3.92500013E-02   5.68407125E-18
  -3.92000005E-02   9.59019885E-18
  -3.91499996E-02   1.41843955E-17
  -3.90999988E-02   1.89230436E-17
  -3.90500017E-02   2.33100952E-17
  -3.90000008E-02   2.72273894E-17
  -3.89500000E-02   3.11808114E-17
  -3.88999991E-02   3.62894789E-17
  -3.88499983E-02   4.39400360E-17
  -3.88000011E-02   5.51983380E-17
  -3.87500003E-02   7.02333052E-17
  -3.86999995E-02   8.80663265E-17
  -3.86499986E-02   1.06856952E-16
  -3.86000015E-02   1.24692726E-16
  -3.85500006E-02   1.40569366E-16
  -3.84999998E-02   1.55071258E-16
  -3.84499989E-02   1.70313563E-16
  -3.84000018E-02   1.89010571E-16
  -3.83500010E-02   2.12978242E-16
  -3.83000001E-02   2.41746194E-16
  -3.82499993E-02   2.72021058E-16
  -3.81999984E-02   2.98420666E-16
  -3.81500013E-02   3.15300497E-16
  -3.81000005E-02   3.18909096E-16
  -3.80499996E-02   3.08848965E-16
  -3.79999988E-02   2.88056503E-16
  -3.79500017E-02   2.61169957E-16
  -3.79000008E-02   2.31937606E-16
  -3.78500000E-02   2.00846361E-16
  -3.77999991E-02   1.64142359E-16
  -3.77499983E-02   1.14818691E-16
  -3.77000012E-02   4.52145757E-17
  -3.76500003E-02  -4.99483351E-17
  -3.75999995E-02  -1.71537896E-16
  -3.75499986E-02  -3.15978812E-16
  -3.75000015E-02  -4.77227997E-16
  -3.74500006E-02  -6.49789149E-16
  -3.73999998E-02  -8.31323292E-16
  -3.73499990E-02  -1.02368643E-15
  -3.73000018E-02  -1.23206024E-15
  -3.72500010E-02  -1.46275845E-15
  -3.72000001E-02  -1.72080662E-15
  -3.71499993E-02  -2.00826557E-15
  -3.70999984E-02  -2.32365468E-15
  -3.70500013E-02  -2.66214049E-15
  -3.70000005E-02  -3.01586547E-15
  -3.69499996E-02  -3.37410069E-15
  -3.68999988E-02  -3.72361825E-15
  -3.68500017E-02  -4.05019392E-15
  -3.68000008E-02  -4.34188962E-15
  -3.67500000E-02  -4.59356089E-15
  -3.66999991E-02  -4.81050890E-15
  -3.66499983E-02  -5.00838723E-15
  -3.66000012E-02  -5.20739508E-15
  -3.65500003E-02  -5.42144835E-15
  -3.64999995E-02  -5.64637541E-15
  -3.64499986E-02  -5.85332081E-15
  -3.64000015E-02  -5.99277038E-15
  -3.63500006E-02  -6.01051572E-15
  -3.62999998E-02  -5.87076799E-15
  -3.62499990E-02  -5.57638339E-15
  -3.62000018E-02  -5.17491391E-15
  -3.61500010E-02  -4.74373306E-15
  -3.61000001E-02  -4.35687236E-15
  -3.60499993E-02  -4.04648307E-15
  -3.59999985E-02  -3.77769918E-15
  -3.59500013E-02  -3.45282562E-15
  -3.59000005E-02  -2.94885076E-15
  -3.58499996E-02  -2.17574050E-15
  -3.57999988E-02  -1.12962558E-15
  -3.57500017E-02   8.74759975E-17
  -3.57000008E-02   1.29800589E-15
  -3.56500000E-02   2.32330444E-15
  -3.55999991E-02   3.07239263E-15
  -3.55499983E-02   3.60242181E-15
  -3.55000012E-02   4.11465736E-15
  -3.54500003E-02   4.87616285E-15
  -3.53999995E-02   6.09342034E-15
  -3.53499986E-02   7.79325284E-15
  -3.53000015E-02   9.77241986E-15
  -3.52500007E-02   1.16531523E-14
  -3.51999998E-02   1.30349350E-14
  -3.51499990E-02   1.36831346E-14
  -3.51000018E-02   1.36672425E-14
  -3.50500010E-02   1.33727800E-14
  -3.50000001E-02   1.33617355E-14
  -3.49499993E-02   1.41272483E-14
  -3.48999985E-02   1.58470208E-14
  -3.48500013E-02   1.82557996E-14
  -3.48000005E-02   2.07159712E-14
  -3.47499996E-02   2.24792956E-14
  -3.46999988E-02   2.30381476E-14
  -3.46500017E-02   2.24069912E-14
  -3.46000008E-02   2.11876550E-14
  -3.45500000E-02   2.03582658E-14
  -3.44999991E-02   2.08526501E-14
  -3.44499983E-02   2.31074027E-14
  -3.44000012E-02   2.67918266E-14
  -3.43500003E-02   3.08738427E-14
  -3.42999995E-02   3.40309581E-14
  -3.42499986E-02   3.52495268E-14
  -3.42000015E-02   3.43457494E-14
  -3.41500007E-02   3.21482614E-14
  -3.40999998E-02   3.02152746E-14
  -3.40499990E-02   3.01693281E-14
  -3.40000018E-02   3.29265491E-14
  -3.39500010E-02   3.81789835E-14
  -3.39000002E-02   4.44064443E-14
  -3.38499993E-02   4.94692110E-14
  -3.37999985E-02   5.15592953E-14
  -3.37500013E-02   5.00916820E-14
  -3.37000005E-02   4.61014385E-14
  -3.36499996E-02   4.19038278E-14
  -3.35999988E-02   4.01027037E-14
  -3.35500017E-02   4.23535346E-14
  -3.35000008E-02   4.84471031E-14
  -3.34500000E-02   5.61846068E-14
  -3.33999991E-02   6.21845037E-14
  -3.33499983E-02   6.33309730E-14
  -3.33000012E-02   5.82392207E-14
  -3.32500003E-02   4.80437460E-14
  -3.31999995E-02   3.60706609E-14
  -3.31499986E-02   2.64436791E-14
  -3.31000015E-02   2.21839487E-14
  -3.30500007E-02   2.36561327E-14
  -3.29999998E-02   2.81277856E-14
  -3.29499990E-02   3.07518937E-14
  -3.29000019E-02   2.66372956E-14
  -3.28500010E-02   1.31271362E-14
  -3.28000002E-02  -8.77055183E-15
  -3.27499993E-02  -3.45483801E-14
  -3.26999985E-02  -5.80207472E-14
  -3.26500013E-02  -7.40842527E-14
  -3.26000005E-02  -8.11973237E-14
  -3.25499997E-02  -8.23886789E-14
  -3.24999988E-02  -8.41977922E-14
  -3.24500017E-02  -9.38742356E-14
  -3.24000008E-02  -1.16007884E-13
  -3.23500000E-02  -1.50123986E-13
  -3.22999991E-02  -1.90447240E-13
  -3.22499983E-02  -2.28116137E-13
  -3.22000012E-02  -2.55002725E-13
  -3.21500003E-02  -2.67473408E-13
  -3.20999995E-02  -2.68326865E-13
  -3.20499986E-02  -2.65863991E-13
  -3.20000015E-02  -2.70309545E-13
  -3.19500007E-02  -2.89062014E-13
  -3.18999998E-02  -3.22906713E-13
  -3.18499990E-02  -3.65035964E-13
  -3.18000019E-02  -4.03542163E-13
  -3.17500010E-02  -4.26477050E-13
  -3.17000002E-02  -4.27304622E-13
  -3.16499993E-02  -4.08235240E-13
  -3.15999985E-02  -3.79736092E-13
  -3.15500014E-02  -3.56173424E-13
  -3.15000005E-02  -3.49340782E-13
  -3.14499997E-02  -3.62733633E-13
  -3.13999988E-02  -3.89282221E-13
  -3.13500017E-02  -4.13831919E-13
  -3.13000008E-02  -4.19543252E-13
  -3.12500000E-02  -3.95507384E-13
  -3.11999992E-02  -3.42129238E-13
  -3.11500002E-02  -2.71638533E-13
  -3.10999993E-02  -2.03175259E-13
  -3.10500003E-02  -1.54374004E-13
  -3.09999995E-02  -1.33117855E-13
  -3.09500005E-02  -1.33287722E-13
  -3.08999997E-02  -1.36727123E-13
  -3.08500007E-02  -1.20906459E-13
  -3.07999998E-02  -6.91035906E-14
  -3.07500008E-02   2.14431845E-14
  -3.07000000E-02   1.37296451E-13
  -3.06499992E-02   2.53888870E-13
  -3.06000002E-02   3.46005776E-13
  -3.05499993E-02   3.99177111E-13
  -3.05000003E-02   4.16789623E-13
  -3.04499995E-02   4.19395692E-13
  -3.04000005E-02   4.36086090E-13
  -3.03499997E-02   4.91438650E-13
  -3.03000007E-02   5.93793352E-13
  -3.02499998E-02   7.30320914E-13
  -3.02000009E-02   8.71538302E-13
  -3.01500000E-02   9.83726013E-13
  -3.00999992E-02   1.04398705E-12
  -3.00500002E-02   1.05117586E-12
  -2.99999993E-02   1.02745373E-12
  -2.99500003E-02   1.00923837E-12
  -2.98999995E-02   1.03111996E-12
  -2.98500005E-02   1.10973557E-12
  -2.97999997E-02   1.23498976E-12
  -2.97500007E-02   1.37303678E-12
  -2.96999998E-02   1.48028920E-12
  -2.96500009E-02   1.52262838E-12
  -2.96000000E-02   1.49130469E-12
  -2.95499992E-02   1.40809163E-12
  -2.95000002E-02   1.31678110E-12
  -2.94499993E-02   1.26420814E-12
  -2.94000003E-02   1.27893432E-12
  -2.93499995E-02   1.35720157E-12
  -2.93000005E-02   1.46293036E-12
  -2.92499997E-02   1.54246288E-12
  -2.92000007E-02   1.54805736E-12
  -2.91499998E-02   1.45985676E-12
  -2.91000009E-02   1.29624480E-12
  -2.90500000E-02   1.10730717E-12
  -2.89999992E-02   9.53556786E-13
  -2.89500002E-02   8.78896782E-13
  -2.88999993E-02   8.89841965E-13
  -2.88500004E-02   9.50746751E-13
  -2.87999995E-02   9.97957684E-13
  -2.87500005E-02   9.67348597E-13
  -2.86999997E-02   8.23348009E-13
  -2.86500007E-02   5.76351358E-13
  -2.85999998E-02   2.80085173E-13
  -2.85500009E-02   9.21424548E-15
  -2.85000000E-02  -1.73532345E-13
  -2.84499992E-02  -2.46269259E-13
  -2.84000002E-02  -2.39605156E-13
  -2.83499993E-02  -2.24982522E-13
  -2.83000004E-02  -2.83964692E-13
  -2.82499995E-02  -4.71552051E-13
  -2.82000005E-02  -7.89893162E-13
  -2.81499997E-02  -1.18475661E-12
  -2.81000007E-02  -1.56735464E-12
  -2.80499998E-02  -1.85273715E-12
  -2.80000009E-02  -1.99808833E-12
  -2.79500000E-02  -2.02359852E-12
  -2.78999992E-02  -2.00572111E-12
  -2.78500002E-02  -2.04469167E-12
  -2.77999993E-02  -2.21990677E-12
  -2.77500004E-02  -2.55280996E-12
  -2.76999995E-02  -2.99436691E-12
  -2.76500005E-02  -3.44379841E-12
  -2.75999997E-02  -3.79139992E-12
  -2.75500007E-02  -3.96710399E-12
  -2.74999999E-02  -3.97310006E-12
  -2.74500009E-02  -3.88514698E-12
  -2.74000000E-02  -3.82071761E-12
  -2.73499992E-02  -3.88702048E-12
  -2.73000002E-02  -4.13153366E-12
  -2.72499993E-02  -4.51746193E-12
  -2.72000004E-02  -4.93617560E-12
  -2.71499995E-02  -5.25249635E-12
  -2.71000005E-02  -5.36373246E-12
  -2.70499997E-02  -5.24641528E-12
  -2.70000007E-02  -4.96922815E-12
  -2.69499999E-02  -4.66500536E-12
  -2.69000009E-02  -4.47282836E-12
  -2.68500000E-02  -4.47513944E-12
  -2.67999992E-02  -4.65797366E-12
  -2.67500002E-02  -4.91306995E-12
  -2.66999993E-02  -5.08249389E-12
  -2.66500004E-02  -5.02728848E-12
  -2.65999995E-02  -4.69018184E-12
  -2.65500005E-02  -4.12393990E-12
  -2.64999997E-02  -3.47135298E-12
  -2.64500007E-02  -2.90407347E-12
  -2.63999999E-02  -2.54629737E-12
  -2.63500009E-02  -2.41704291E-12
  -2.63000000E-02  -2.41765418E-12
  -2.62499992E-02  -2.37179959E-12
  -2.62000002E-02  -2.10191131E-12
  -2.61499994E-02  -1.50905807E-12
  -2.61000004E-02  -6.20509286E-13
  -2.60499995E-02   4.17513056E-13
  -2.60000005E-02   1.40059893E-12
  -2.59499997E-02   2.15504524E-12
  -2.59000007E-02   2.61598989E-12
  -2.58499999E-02   2.85934926E-12
  -2.58000009E-02   3.07161393E-12
  -2.57500000E-02   3.46889986E-12
  -2.56999992E-02   4.19980804E-12
  -2.56500002E-02   5.27510848E-12
  -2.55999994E-02   6.55671090E-12
  -2.55500004E-02   7.81290310E-12
  -2.54999995E-02   8.81735397E-12
  -2.54500005E-02   9.44900061E-12
  -2.53999997E-02   9.74805913E-12
  -2.53500007E-02   9.90160211E-12
  -2.52999999E-02   1.01627951E-11
  -2.52500009E-02   1.07377631E-11
  -2.52000000E-02   1.16896996E-11
  -2.51499992E-02   1.29037258E-11
  -2.51000002E-02   1.41302386E-11
  -2.50499994E-02   1.50898877E-11
  -2.50000004E-02   1.55951901E-11
  -2.49499995E-02   1.56348823E-11
  -2.49000005E-02   1.53820637E-11
  -2.48499997E-02   1.51200805E-11
  -2.48000007E-02   1.51167395E-11
  -2.47499999E-02   1.55015376E-11
  -2.47000009E-02   1.62009815E-11
  -2.46500000E-02   1.69627767E-11
  -2.45999992E-02   1.74608401E-11
  -2.45500002E-02   1.74366702E-11
  -2.44999994E-02   1.68149435E-11
  -2.44500004E-02   1.57408617E-11
  -2.43999995E-02   1.45201230E-11
  -2.43500005E-02   1.34854706E-11
  -2.42999997E-02   1.28472554E-11
  -2.42500007E-02   1.25944047E-11
  -2.41999999E-02   1.24915868E-11
  -2.41500009E-02   1.21767188E-11
  -2.41000000E-02   1.13182094E-11
  -2.40499992E-02   9.76340189E-12
  -2.40000002E-02   7.61163008E-12
  -2.39499994E-02   5.17706407E-12
  -2.39000004E-02   2.85478217E-12
  -2.38499995E-02   9.47187207E-13
  -2.38000005E-02  -4.72788855E-13
  -2.37499997E-02  -1.59947728E-12
  -2.37000007E-02  -2.81357771E-12
  -2.36499999E-02  -4.51531521E-12
  -2.36000009E-02  -6.94379493E-12
  -2.35500000E-02  -1.00628160E-11
  -2.34999992E-02  -1.35659756E-11
  -2.34500002E-02  -1.70020577E-11
  -2.33999994E-02  -1.99680203E-11
  -2.33500004E-02  -2.22852743E-11
  -2.32999995E-02  -2.40801337E-11
  -2.32500006E-02  -2.57300084E-11
  -2.31999997E-02  -2.76958300E-11
  -2.31500007E-02  -3.03124505E-11
  -2.30999999E-02  -3.36294985E-11
  -2.30500009E-02  -3.73749677E-11
  -2.30000000E-02  -4.10609324E-11
  -2.29499992E-02  -4.41879033E-11
  -2.29000002E-02  -4.64591664E-11
  -2.28499994E-02  -4.79098289E-11
  -2.28000004E-02  -4.88909052E-11
  -2.27499995E-02  -4.99119600E-11
  -2.27000006E-02  -5.14090576E-11
  -2.26499997E-02  -5.35396137E-11
  -2.26000007E-02  -5.60963186E-11
  -2.25499999E-02  -5.85813897E-11
  -2.25000009E-02  -6.04119671E-11
  -2.24500000E-02  -6.11683829E-11
  -2.23999992E-02  -6.07756762E-11
  -2.23500002E-02  -5.95361260E-11
  -2.22999994E-02  -5.79948520E-11
  -2.22500004E-02  -5.66945553E-11
  -2.21999995E-02  -5.59261457E-11
  -2.21500006E-02  -5.55862925E-11
  -2.20999997E-02  -5.52076163E-11
  -2.20500007E-02  -5.41522140E-11
  -2.19999999E-02  -5.18858706E-11
  -2.19500009E-02  -4.82129302E-11
  -2.19000001E-02  -4.33663938E-11
  -2.18499992E-02  -3.79102548E-11
  -2.18000002E-02  -3.24932789E-11
  -2.17499994E-02  -2.75608546E-11
  -2.17000004E-02  -2.31520306E-11
  -2.16499995E-02  -1.88737984E-11
  -2.16000006E-02  -1.40678962E-11
  -2.15499997E-02  -8.10002846E-12
  -2.15000007E-02  -6.45477216E-13
  -2.14499999E-02   8.15560900E-12
  -2.14000009E-02   1.77450207E-11
  -2.13500001E-02   2.73781484E-11
  -2.12999992E-02   3.64417108E-11
  -2.12500002E-02   4.47178093E-11
  -2.11999994E-02   5.24762248E-11
  -2.11500004E-02   6.03505440E-11
  -2.10999995E-02   6.90492524E-11
  -2.10500006E-02   7.90266047E-11
  -2.09999997E-02   9.02586547E-11
  -2.09500007E-02   1.02225631E-10
  -2.08999999E-02   1.14112379E-10
  -2.08500009E-02   1.25141980E-10
  -2.08000001E-02   1.34896802E-10
  -2.07499992E-02   1.43485016E-10
  -2.07000002E-02   1.51475235E-10
  -2.06499994E-02   1.59625743E-10
  -2.06000004E-02   1.68522904E-10
  -2.05499995E-02   1.78288828E-10
  -2.05000006E-02   1.88488114E-10
  -2.04499997E-02   1.98278699E-10
  -2.04000007E-02   2.06744025E-10
  -2.03499999E-02   2.13262519E-10
  -2.03000009E-02   2.17751497E-10
  -2.02500001E-02   2.20675783E-10
  -2.01999992E-02   2.22813476E-10
  -2.01500002E-02   2.24878532E-10
  -2.00999994E-02   2.27165273E-10
  -2.00500004E-02   2.29372119E-10
  -1.99999996E-02   2.30685207E-10
  -1.99500006E-02   2.30089503E-10
  -1.98999997E-02   2.26773031E-10
  -1.98500007E-02   2.20447674E-10
  -1.97999999E-02   2.11443474E-10
  -1.97500009E-02   2.00530800E-10
  -1.97000001E-02   1.88547386E-10
  -1.96499992E-02   1.75989057E-10
  -1.96000002E-02   1.62746872E-10
  -1.95499994E-02   1.48106860E-10
  -1.95000004E-02   1.31017586E-10
  -1.94499996E-02   1.10510726E-10
  -1.94000006E-02   8.60910024E-11
  -1.93499997E-02   5.79244881E-11
  -1.93000007E-02   2.67384986E-11
  -1.92499999E-02  -6.52569578E-12
  -1.92000009E-02  -4.11583476E-11
  -1.91500001E-02  -7.70285780E-11
  -1.90999992E-02  -1.14680695E-10
  -1.90500002E-02  -1.55133142E-10
  -1.89999994E-02  -1.99464043E-10
  -1.89500004E-02  -2.48365051E-10
  -1.88999996E-02  -3.01856068E-10
  -1.88500006E-02  -3.59292290E-10
  -1.87999997E-02  -4.19659973E-10
  -1.87500007E-02  -4.82036355E-10
  -1.86999999E-02  -5.46014733E-10
  -1.86500009E-02  -6.11903528E-10
  -1.86000001E-02  -6.80613732E-10
  -1.85499992E-02  -7.53277829E-10
  -1.85000002E-02  -8.30764735E-10
  -1.84499994E-02  -9.13305154E-10
  -1.84000004E-02  -1.00038855E-09
  -1.83499996E-02  -1.09098475E-09
  -1.83000006E-02  -1.18399501E-09
  -1.82499997E-02  -1.27873334E-09
  -1.82000007E-02  -1.37523481E-09
  -1.81499999E-02  -1.47424672E-09
  -1.81000009E-02  -1.57690760E-09
  -1.80500001E-02  -1.68424963E-09
  -1.79999992E-02  -1.79674164E-09
  -1.79500002E-02  -1.91407223E-09
  -1.78999994E-02  -2.03527328E-09
  -1.78500004E-02  -2.15912954E-09
  -1.77999996E-02  -2.28470087E-09
  -1.77500006E-02  -2.41173059E-09
  -1.76999997E-02  -2.54075516E-09
  -1.76500008E-02  -2.67287170E-09
  -1.75999999E-02  -2.80925638E-09
  -1.75500009E-02  -2.95064306E-09
  -1.75000001E-02  -3.09699111E-09
  -1.74499992E-02  -3.24749139E-09
  -1.74000002E-02  -3.40090556E-09
  -1.73499994E-02  -3.55610097E-09
  -1.73000004E-02  -3.71254250E-09
  -1.72499996E-02  -3.87053189E-09
  -1.72000006E-02  -4.03108569E-09
  -1.71499997E-02  -4.19549728E-09
  -1.71000008E-02  -4.36478320E-09
  -1.70499999E-02  -4.53924009E-09
  -1.70000009E-02  -4.71831996E-09
  -1.69500001E-02  -4.90087082E-09
  -1.68999992E-02  -5.08564657E-09
  -1.68500002E-02  -5.27186872E-09
  -1.67999994E-02  -5.45958789E-09
  -1.67500004E-02  -5.64969094E-09
  -1.66999996E-02  -5.84354920E-09
  -1.66500006E-02  -6.04245320E-09
  -1.65999997E-02  -6.24708374E-09
  -1.65500008E-02  -6.45724407E-09
  -1.64999999E-02  -6.67198119E-09
  -1.64500009E-02  -6.89003654E-09
  -1.64000001E-02  -7.11044112E-09
  -1.63499992E-02  -7.33299244E-09
  -1.63000003E-02  -7.55840901E-09
  -1.62499994E-02  -7.78808307E-09
  -1.62000004E-02  -8.02355249E-09
  -1.61499996E-02  -8.26589908E-09
  -1.61000006E-02  -8.51535198E-09
  -1.60499997E-02  -8.77125661E-09
  -1.60000008E-02  -9.03243613E-09
  -1.59499999E-02  -9.29778921E-09
  -1.59000009E-02  -9.56686019E-09
  -1.58500001E-02  -9.84014115E-09
  -1.57999992E-02  -1.01189661E-08
  -1.57500003E-02  -1.04050484E-08
  -1.56999994E-02  -1.06998517E-08
  -1.56500004E-02  -1.10040599E-08
  -1.55999996E-02  -1.13174048E-08
  -1.55499997E-02  -1.16388854E-08
  -1.54999997E-02  -1.19673365E-08
  -1.54499998E-02  -1.23020616E-08
  -1.53999999E-02  -1.26432775E-08
  -1.53500000E-02  -1.29921727E-08
  -1.53000001E-02  -1.33505473E-08
  -1.52500002E-02  -1.37201912E-08
  -1.52000003E-02  -1.41022536E-08
  -1.51500003E-02  -1.44969086E-08
  -1.51000004E-02  -1.49034243E-08
  -1.50499996E-02  -1.53206443E-08
  -1.49999997E-02  -1.57476467E-08
  -1.49499997E-02  -1.61843321E-08
  -1.48999998E-02  -1.66316418E-08
  -1.48499999E-02  -1.70913488E-08
  -1.48000000E-02  -1.75654726E-08
  -1.47500001E-02  -1.80555997E-08
  -1.47000002E-02  -1.85623712E-08
  -1.46500003E-02  -1.90854017E-08
  -1.46000003E-02  -1.96236272E-08
  -1.45500004E-02  -2.01759622E-08
  -1.44999996E-02  -2.07419699E-08
  -1.44499997E-02  -2.13222737E-08
  -1.43999998E-02  -2.19185026E-08
  -1.43499998E-02  -2.25328005E-08
  -1.42999999E-02  -2.31671340E-08
  -1.42500000E-02  -2.38226363E-08
  -1.42000001E-02  -2.44993430E-08
  -1.41500002E-02  -2.51963836E-08
  -1.41000003E-02  -2.59125610E-08
  -1.40500003E-02  -2.66471201E-08
  -1.40000004E-02  -2.74002918E-08
  -1.39499996E-02  -2.81734494E-08
  -1.38999997E-02  -2.89687563E-08
  -1.38499998E-02  -2.97884757E-08
  -1.37999998E-02  -3.06342329E-08
  -1.37499999E-02  -3.15065520E-08
  -1.37000000E-02  -3.24048521E-08
  -1.36500001E-02  -3.33279502E-08
  -1.36000002E-02  -3.42748301E-08
  -1.35500003E-02  -3.52453107E-08
  -1.35000004E-02  -3.62404329E-08
  -1.34500004E-02  -3.72622750E-08
  -1.33999996E-02  -3.83133383E-08
  -1.33499997E-02  -3.93957222E-08
  -1.32999998E-02  -4.05105176E-08
  -1.32499998E-02  -4.16575752E-08
  -1.31999999E-02  -4.28358575E-08
  -1.31500000E-02  -4.40441745E-08
  -1.31000001E-02  -4.52819862E-08
  -1.30500002E-02  -4.65499461E-08
  -1.30000003E-02  -4.78499587E-08
  -1.29500004E-02  -4.91846563E-08
  -1.29000004E-02  -5.05565936E-08
  -1.28499996E-02  -5.19674899E-08
  -1.27999997E-02  -5.34177502E-08
  -1.27499998E-02  -5.49066712E-08
  -1.26999998E-02  -5.64330271E-08
  -1.26499999E-02  -5.79959973E-08
  -1.26000000E-02  -5.95958483E-08
  -1.25500001E-02  -6.12342319E-08
  -1.25000002E-02  -6.29138555E-08
  -1.24500003E-02  -6.46376748E-08
  -1.24000004E-02  -6.64080630E-08
  -1.23500004E-02  -6.82261145E-08
  -1.22999996E-02  -7.00915876E-08
  -1.22499997E-02  -7.20033952E-08
  -1.21999998E-02  -7.39605355E-08
  -1.21499998E-02  -7.59629302E-08
  -1.20999999E-02  -7.80119436E-08
  -1.20500000E-02  -8.01102615E-08
  -1.20000001E-02  -8.22612094E-08
  -1.19500002E-02  -8.44678070E-08
  -1.19000003E-02  -8.67319372E-08
  -1.18500004E-02  -8.90540051E-08
  -1.18000004E-02  -9.14332361E-08
  -1.17499996E-02  -9.38685787E-08
  -1.16999997E-02  -9.63596563E-08
  -1.16499998E-02  -9.89074636E-08
  -1.15999999E-02  -1.01514587E-07
  -1.15499999E-02  -1.04184593E-07
  -1.15000000E-02  -1.06921121E-07
  -1.14500001E-02  -1.09726876E-07
  -1.14000002E-02  -1.12603082E-07
  -1.13500003E-02  -1.15549462E-07
  -1.13000004E-02  -1.18565055E-07
  -1.12500004E-02  -1.21649293E-07
  -1.11999996E-02  -1.24802881E-07
  -1.11499997E-02  -1.28028248E-07
  -1.10999998E-02  -1.31329159E-07
  -1.10499999E-02  -1.34709822E-07
  -1.09999999E-02  -1.38173803E-07
  -1.09500000E-02  -1.41723163E-07
  -1.09000001E-02  -1.45358257E-07
  -1.08500002E-02  -1.49078389E-07
  -1.08000003E-02  -1.52882876E-07
  -1.07500004E-02  -1.56772074E-07
  -1.07000005E-02  -1.60748129E-07
  -1.06499996E-02  -1.64814807E-07
  -1.05999997E-02  -1.68976797E-07
  -1.05499998E-02  -1.73238433E-07
  -1.04999999E-02  -1.77602715E-07
  -1.04499999E-02  -1.82070877E-07
  -1.04000000E-02  -1.86642708E-07
  -1.03500001E-02  -1.91317625E-07
  -1.03000002E-02  -1.96095698E-07
  -1.02500003E-02  -2.00978775E-07
  -1.02000004E-02  -2.05970650E-07
  -1.01500005E-02  -2.11076326E-07
  -1.00999996E-02  -2.16300919E-07
  -1.00499997E-02  -2.21648463E-07
  -9.99999978E-03  -2.27121120E-07
  -9.94999986E-03  -2.32719316E-07
  -9.89999995E-03  -2.38442595E-07
  -9.85000003E-03  -2.44290845E-07
  -9.80000012E-03  -2.50265572E-07
  -9.75000020E-03  -2.56370299E-07
  -9.70000029E-03  -2.62610229E-07
  -9.65000037E-03  -2.68991158E-07
  -9.60000046E-03  -2.75518062E-07
  -9.54999961E-03  -2.82194065E-07
  -9.49999969E-03  -2.89020392E-07
  -9.44999978E-03  -2.95996955E-07
  -9.39999986E-03  -3.03123556E-07
  -9.34999995E-03  -3.10401418E-07
  -9.30000003E-03  -3.17833866E-07
  -9.25000012E-03  -3.25426214E-07
  -9.20000020E-03  -3.33184801E-07
  -9.15000029E-03  -3.41115737E-07
  -9.10000037E-03  -3.49223455E-07
  -9.05000046E-03  -3.57510089E-07
  -8.99999961E-03  -3.65976121E-07
  -8.94999970E-03  -3.74621351E-07
  -8.89999978E-03  -3.83446803E-07
  -8.84999987E-03  -3.92455490E-07
  -8.79999995E-03  -4.01652755E-07
  -8.75000004E-03  -4.11045392E-07
  -8.70000012E-03  -4.20640305E-07
  -8.65000021E-03  -4.30442952E-07
  -8.60000029E-03  -4.40456631E-07
  -8.55000038E-03  -4.50682336E-07
  -8.50000046E-03  -4.61120237E-07
  -8.44999962E-03  -4.71771187E-07
  -8.39999970E-03  -4.82637745E-07
  -8.34999979E-03  -4.93725281E-07
  -8.29999987E-03  -5.05040873E-07
  -8.24999996E-03  -5.16592308E-07
  -8.20000004E-03  -5.28386067E-07
  -8.15000013E-03  -5.40426754E-07
  -8.10000021E-03  -5.52716301E-07
  -8.05000030E-03  -5.65255561E-07
  -8.00000038E-03  -5.78045331E-07
  -7.95000046E-03  -5.91088110E-07
  -7.89999962E-03  -6.04389015E-07
  -7.84999970E-03  -6.17955493E-07
  -7.79999979E-03  -6.31795899E-07
  -7.74999987E-03  -6.45917964E-07
  -7.69999996E-03  -6.60327373E-07
  -7.65000004E-03  -6.75027366E-07
  -7.60000013E-03  -6.90019078E-07
  -7.55000021E-03  -7.05303535E-07
  -7.49999983E-03  -7.20882952E-07
  -7.44999992E-03  -7.36761990E-07
  -7.40000000E-03  -7.52948154E-07
  -7.35000009E-03  -7.69450423E-07
  -7.30000017E-03  -7.86277383E-07
  -7.24999979E-03  -8.03435967E-07
  -7.19999988E-03  -8.20930609E-07
  -7.14999996E-03  -8.38763356E-07
  -7.10000005E-03  -8.56935230E-07
  -7.05000013E-03  -8.75448279E-07
  -7.00000022E-03  -8.94307107E-07
  -6.94999984E-03  -9.13519102E-07
  -6.89999992E-03  -9.33093588E-07
  -6.85000001E-03  -9.53040399E-07
  -6.80000009E-03  -9.73367605E-07
  -6.75000018E-03  -9.94080665E-07
  -6.69999979E-03  -1.01518276E-06
  -6.64999988E-03  -1.03667503E-06
  -6.59999996E-03  -1.05855975E-06
  -6.55000005E-03  -1.08084112E-06
  -6.50000013E-03  -1.10352630E-06
  -6.45000022E-03  -1.12662485E-06
  -6.39999984E-03  -1.15014689E-06
  -6.34999992E-03  -1.17410161E-06
  -6.30000001E-03  -1.19849585E-06
  -6.25000009E-03  -1.22333313E-06
  -6.20000018E-03  -1.24861549E-06
  -6.14999980E-03  -1.27434475E-06
  -6.09999988E-03  -1.30052479E-06
  -6.04999997E-03  -1.32716229E-06
  -6.00000005E-03  -1.35426683E-06
  -5.95000014E-03  -1.38184930E-06
  -5.90000022E-03  -1.40991938E-06
  -5.84999984E-03  -1.43848524E-06
  -5.79999993E-03  -1.46755156E-06
  -5.75000001E-03  -1.49712093E-06
  -5.70000010E-03  -1.52719520E-06
  -5.65000018E-03  -1.55777764E-06
  -5.59999980E-03  -1.58887474E-06
  -5.54999989E-03  -1.62049582E-06
  -5.49999997E-03  -1.65265158E-06
  -5.45000006E-03  -1.68535360E-06
  -5.40000014E-03  -1.71861018E-06
  -5.35000023E-03  -1.75242724E-06
  -5.29999984E-03  -1.78680727E-06
  -5.24999993E-03  -1.82175233E-06
  -5.20000001E-03  -1.85726503E-06
  -5.15000010E-03  -1.89335128E-06
  -5.10000018E-03  -1.93001961E-06
  -5.04999980E-03  -1.96728161E-06
  -4.99999989E-03  -2.00514796E-06
  -4.94999997E-03  -2.04362846E-06
  -4.90000006E-03  -2.08272945E-06
  -4.85000014E-03  -2.12245413E-06
  -4.80000023E-03  -2.16280478E-06
  -4.74999985E-03  -2.20378320E-06
  -4.69999993E-03  -2.24539485E-06
  -4.65000002E-03  -2.28764748E-06
  -4.60000010E-03  -2.33055243E-06
  -4.55000019E-03  -2.37412132E-06
  -4.49999981E-03  -2.41836437E-06
  -4.44999989E-03  -2.46328841E-06
  -4.39999998E-03  -2.50889752E-06
  -4.35000006E-03  -2.55519330E-06
  -4.30000015E-03  -2.60217757E-06
  -4.25000023E-03  -2.64985442E-06
  -4.19999985E-03  -2.69823090E-06
  -4.14999994E-03  -2.74731747E-06
  -4.10000002E-03  -2.79712594E-06
  -4.05000011E-03  -2.84766725E-06
  -4.00000019E-03  -2.89894911E-06
  -3.94999981E-03  -2.95097493E-06
  -3.89999989E-03  -3.00374609E-06
  -3.84999998E-03  -3.05726417E-06
  -3.80000006E-03  -3.11153190E-06
  -3.74999992E-03  -3.16655519E-06
  -3.70000000E-03  -3.22234359E-06
  -3.65000009E-03  -3.27890939E-06
  -3.59999994E-03  -3.33626303E-06
  -3.55000002E-03  -3.39441294E-06
  -3.50000011E-03  -3.45336298E-06
  -3.44999996E-03  -3.51311451E-06
  -3.40000005E-03  -3.57366685E-06
  -3.34999990E-03  -3.63502181E-06
  -3.29999998E-03  -3.69718532E-06
  -3.25000007E-03  -3.76016624E-06
  -3.19999992E-03  -3.82397548E-06
  -3.15000000E-03  -3.88862463E-06
  -3.10000009E-03  -3.95412098E-06
  -3.04999994E-03  -4.02046862E-06
  -3.00000003E-03  -4.08766709E-06
  -2.95000011E-03  -4.15571549E-06
  -2.89999996E-03  -4.22461562E-06
  -2.85000005E-03  -4.29436932E-06
  -2.79999990E-03  -4.36498613E-06
  -2.74999999E-03  -4.43647423E-06
  -2.70000007E-03  -4.50884545E-06
  -2.64999992E-03  -4.58210707E-06
  -2.60000001E-03  -4.65626226E-06
  -2.55000009E-03  -4.73131013E-06
  -2.49999994E-03  -4.80724975E-06
  -2.45000003E-03  -4.88407841E-06
  -2.40000011E-03  -4.96179882E-06
  -2.34999997E-03  -5.04041736E-06
  -2.30000005E-03  -5.11994267E-06
  -2.24999990E-03  -5.20038338E-06
  -2.19999999E-03  -5.28174724E-06
  -2.15000007E-03  -5.36403695E-06
  -2.09999993E-03  -5.44725117E-06
  -2.05000001E-03  -5.53138671E-06
  -2.00000009E-03  -5.61643947E-06
  -1.94999995E-03  -5.70240991E-06
  -1.90000003E-03  -5.78930167E-06
  -1.85000000E-03  -5.87712111E-06
  -1.79999997E-03  -5.96587597E-06
  -1.75000005E-03  -6.05557307E-06
  -1.70000002E-03  -6.14621240E-06
  -1.64999999E-03  -6.23779260E-06
  -1.59999996E-03  -6.33030731E-06
  -1.55000004E-03  -6.42375198E-06
  -1.50000001E-03  -6.51812388E-06
  -1.44999998E-03  -6.61342347E-06
  -1.39999995E-03  -6.70965437E-06
  -1.35000004E-03  -6.80682160E-06
  -1.30000000E-03  -6.90492925E-06
  -1.24999997E-03  -7.00397777E-06
  -1.20000006E-03  -7.10396444E-06
  -1.15000003E-03  -7.20488197E-06
  -1.09999999E-03  -7.30672218E-06
  -1.04999996E-03  -7.40947826E-06
  -1.00000005E-03  -7.51314656E-06
  -9.50000016E-04  -7.61772799E-06
  -8.99999985E-04  -7.72322528E-06
  -8.50000011E-04  -7.82964344E-06
  -7.99999980E-04  -7.93697745E-06
  -7.50000007E-04  -8.04522460E-06
  -6.99999975E-04  -8.15437306E-06
  -6.50000002E-04  -8.26441101E-06
  -6.00000028E-04  -8.37532934E-06
  -5.49999997E-04  -8.48712079E-06
  -5.00000024E-04  -8.59977990E-06
  -4.49999992E-04  -8.71330758E-06
  -3.99999990E-04  -8.82770291E-06
  -3.49999988E-04  -8.94296318E-06
  -3.00000014E-04  -9.05907928E-06
  -2.50000012E-04  -9.17603847E-06
  -1.99999995E-04  -9.29382531E-06
  -1.50000007E-04  -9.41242433E-06
  -9.99999975E-05  -9.53182462E-06
  -4.99999987E-05  -9.65201707E-06
   0.00000000      -9.77299896E-06
   4.99999987E-05  -9.89476575E-06
   9.99999975E-05  -1.00173093E-05
   1.50000007E-04  -1.01406185E-05
   1.99999995E-04  -1.02646791E-05
   2.50000012E-04  -1.03894699E-05
   3.00000014E-04  -1.05149729E-05
   3.49999988E-04  -1.06411699E-05
   3.99999990E-04  -1.07680471E-05
   4.49999992E-04  -1.08955946E-05
   5.00000024E-04  -1.10238043E-05
   5.49999997E-04  -1.11526660E-05
   6.00000028E-04  -1.12821654E-05
   6.50000002E-04  -1.14122813E-05
   6.99999975E-04  -1.15429930E-05
   7.50000007E-04  -1.16742722E-05
   7.99999980E-04  -1.18060962E-05
   8.50000011E-04  -1.19384431E-05
   8.99999985E-04  -1.20713012E-05
   9.50000016E-04  -1.22046513E-05
   1.00000005E-03  -1.23384825E-05
   1.04999996E-03  -1.24727785E-05
   1.09999999E-03  -1.26075156E-05
   1.15000003E-03  -1.27426611E-05
   1.20000006E-03  -1.28781858E-05
   1.24999997E-03  -1.30140597E-05
   1.30000000E-03  -1.31502547E-05
   1.35000004E-03  -1.32867490E-05
   1.39999995E-03  -1.34235243E-05
   1.44999998E-03  -1.35605624E-05
   1.50000001E-03  -1.36978415E-05
   1.55000004E-03  -1.38353325E-05
   1.59999996E-03  -1.39730009E-05
   1.64999999E-03  -1.41108094E-05
   1.70000002E-03  -1.42487188E-05
   1.75000005E-03  -1.43866946E-05
   1.79999997E-03  -1.45247077E-05
   1.85000000E-03  -1.46627335E-05
   1.90000003E-03  -1.48007521E-05
   1.94999995E-03  -1.49387324E-05
   2.00000009E-03  -1.50766400E-05
   2.05000001E-03  -1.52144348E-05
   2.09999993E-03  -1.53520723E-05
   2.15000007E-03  -1.54895079E-05
   2.19999999E-03  -1.56266960E-05
   2.24999990E-03  -1.57636059E-05
   2.30000005E-03  -1.59002029E-05
   2.34999997E-03  -1.60364598E-05
   2.40000011E-03  -1.61723419E-05
   2.45000003E-03  -1.63078075E-05
   2.49999994E-03  -1.64428147E-05
   2.55000009E-03  -1.65773090E-05
   2.60000001E-03  -1.67112394E-05
   2.64999992E-03  -1.68445549E-05
   2.70000007E-03  -1.69772120E-05
   2.74999999E-03  -1.71091706E-05
   2.79999990E-03  -1.72403979E-05