  -3.99999991E-02   0.00000000    
  -3.99499983E-02   0.00000000    
  -3.99000011E-02   0.00000000    
  -3.98500003E-02  -3.53346990E-18
  -3.97999994E-02  -1.46856769E-17
  -3.97499986E-02   5.38439530E-18
  -3.97000015E-02   2.31985595E-16
  -3.96500006E-02   1.03969536E-15
  -3.95999998E-02   2.86783884E-15
  -3.95499989E-02   5.77032259E-15
  -3.95000018E-02   8.78303117E-15
  -3.94500010E-02   9.58387287E-15
  -3.94000001E-02   5.06419061E-15
  -3.93499993E-02  -6.90243083E-15
  -3.92999984E-02  -2.50218225E-14
  -3.92500013E-02  -4.28873042E-14
  -3.92000005E-02  -4.97346305E-14
  -3.91499996E-02  -3.44854862E-14
  -3.90999988E-02   8.00042609E-15
  -3.90500017E-02   7.16064781E-14
  -3.90000008E-02   1.38477825E-13
  -3.89500000E-02   1.85661667E-13
  -3.88999991E-02   1.97371348E-13
  -3.88499983E-02   1.77266039E-13
  -3.88000011E-02   1.53330636E-13
  -3.87500003E-02   1.70248594E-13
  -3.86999995E-02   2.70210720E-13
  -3.86499986E-02   4.70143781E-13
  -3.86000015E-02   7.47475053E-13
  -3.85500006E-02   1.04475424E-12
  -3.84999998E-02   1.29535651E-12
  -3.84499989E-02   1.46109492E-12
  -3.84000018E-02   1.56347981E-12
  -3.83500010E-02   1.68938778E-12
  -3.83000001E-02   1.96172592E-12
  -3.82499993E-02   2.48324083E-12
  -3.81999984E-02   3.27847124E-12
  -3.81500013E-02   4.26499938E-12
  -3.81000005E-02   5.27505643E-12
  -3.80499996E-02   6.12510780E-12
  -3.79999988E-02   6.70519890E-12
  -3.79500017E-02   7.04506462E-12
  -3.79000008E-02   7.31945494E-12
  -3.78500000E-02   7.78069883E-12
  -3.77999991E-02   8.64196735E-12
  -3.77499983E-02   9.96339903E-12
  -3.77000012E-02   1.15993768E-11
  -3.76500003E-02   1.32419709E-11
  -3.75999995E-02   1.45505049E-11
  -3.75499986E-02   1.53114743E-11
  -3.75000015E-02   1.55510327E-11
  -3.74500006E-02   1.55387665E-11
  -3.73999998E-02   1.56712386E-11
  -3.73499990E-02   1.62832976E-11
  -3.73000018E-02   1.74743969E-11
  -3.72500010E-02   1.90352560E-11
  -3.72000001E-02   2.05162744E-11
  -3.71499993E-02   2.14123667E-11
  -3.70999984E-02   2.13809491E-11
  -3.70500013E-02   2.03896778E-11
  -3.70000005E-02   1.87210299E-11
  -3.69499996E-02   1.68299871E-11
  -3.68999988E-02   1.51250124E-11
  -3.68500017E-02   1.37814335E-11
  -3.68000008E-02   1.26781077E-11
  -3.67500000E-02   1.14813697E-11
  -3.66999991E-02   9.82227494E-12
  -3.66499983E-02   7.46760813E-12
  -3.66000012E-02   4.39630754E-12
  -3.65500003E-02   7.53009471E-13
  -3.64999995E-02  -3.27635597E-12
  -3.64499986E-02  -7.57860268E-12
  -3.64000015E-02  -1.21399965E-11
  -3.63500006E-02  -1.69705812E-11
  -3.62999998E-02  -2.19886314E-11
  -3.62499990E-02  -2.69703045E-11
  -3.62000018E-02  -3.16408254E-11
  -3.61500010E-02  -3.58890244E-11
  -3.61000001E-02  -3.99794503E-11
  -3.60499993E-02  -4.45895265E-11
  -3.59999985E-02  -5.05643860E-11
  -3.59500013E-02  -5.84434931E-11
  -3.59000005E-02  -6.79873102E-11
  -3.58499996E-02  -7.80092865E-11
  -3.57999988E-02  -8.67233160E-11
  -3.57500017E-02  -9.25659965E-11
  -3.57000008E-02  -9.51570003E-11
  -3.56500000E-02  -9.58818094E-11
  -3.55999991E-02  -9.76517339E-11
  -3.55499983E-02  -1.03741273E-10
  -3.55000012E-02  -1.16096840E-10
  -3.54500003E-02  -1.33910494E-10
  -3.53999995E-02  -1.53310087E-10
  -3.53499986E-02  -1.68614622E-10
  -3.53000015E-02  -1.74860362E-10
  -3.52500007E-02  -1.70551143E-10
  -3.51999998E-02  -1.59234431E-10
  -3.51499990E-02  -1.48826396E-10
  -3.51000018E-02  -1.48561552E-10
  -3.50500010E-02  -1.64649003E-10
  -3.50000001E-02  -1.96595309E-10
  -3.49499993E-02  -2.36187375E-10
  -3.48999985E-02  -2.70144990E-10
  -3.48500013E-02  -2.85771629E-10
  -3.48000005E-02  -2.77287193E-10
  -3.47499996E-02  -2.49775978E-10
  -3.46999988E-02  -2.18362536E-10
  -3.46500017E-02  -2.02238767E-10
  -3.46000008E-02  -2.15697418E-10
  -3.45500000E-02  -2.60173827E-10
  -3.44999991E-02  -3.21420168E-10
  -3.44499983E-02  -3.74008685E-10
  -3.44000012E-02  -3.92041816E-10
  -3.43500003E-02  -3.61696700E-10
  -3.42999995E-02  -2.89677587E-10
  -3.42499986E-02  -2.02810366E-10
  -3.42000015E-02  -1.37706735E-10
  -3.41500007E-02  -1.24177377E-10
  -3.40999998E-02  -1.69673511E-10
  -3.40499990E-02  -2.52532495E-10
  -3.40000018E-02  -3.28528038E-10
  -3.39500010E-02  -3.49288404E-10
  -3.39000002E-02  -2.85134749E-10
  -3.38499993E-02  -1.41760714E-10
  -3.37999985E-02   3.81655992E-11
  -3.37500013E-02   1.91159116E-10
  -3.37000005E-02   2.61194955E-10
  -3.36499996E-02   2.27860578E-10
  -3.35999988E-02   1.20692845E-10
  -3.35500017E-02   1.10577719E-11
  -3.35000008E-02  -1.72115464E-11
  -3.34500000E-02   9.32435171E-11
  -3.33999991E-02   3.42467471E-10
  -3.33499983E-02   6.66271815E-10
  -3.33000012E-02   9.59316515E-10
  -3.32500003E-02   1.12049059E-09
  -3.31999995E-02   1.10128751E-09
  -3.31499986E-02   9.34301969E-10
  -3.31000015E-02   7.26041505E-10
  -3.30500007E-02   6.13668227E-10
  -3.29999998E-02   7.02535807E-10
  -3.29499990E-02   1.01236253E-09
  -3.29000019E-02   1.45864465E-09
  -3.28500010E-02   1.88179805E-09
  -3.28000002E-02   2.11497064E-09
  -3.27499993E-02   2.06207984E-09
  -3.26999985E-02   1.74990700E-09
  -3.26500013E-02   1.32689415E-09
  -3.26000005E-02   1.00402375E-09
  -3.25499997E-02   9.60303170E-10
  -3.24999988E-02   1.25438304E-09
  -3.24500017E-02   1.78484905E-09
  -3.24000008E-02   2.32258945E-09
  -3.23500000E-02   2.60660138E-09
  -3.22999991E-02   2.46370568E-09
  -3.22499983E-02   1.89769978E-09
  -3.22000012E-02   1.10304066E-09
  -3.21500003E-02   3.89871663E-10
  -3.20999995E-02   4.80023694E-11
  -3.20499986E-02   2.08752030E-10
  -3.20000015E-02   7.69705633E-10
  -3.19500007E-02   1.42330414E-09
  -3.18999998E-02   1.78464410E-09
  -3.18499990E-02   1.56664437E-09
  -3.18000019E-02   7.24027505E-10
  -3.17500010E-02  -5.04283837E-10
  -3.17000002E-02  -1.68273773E-09
  -3.16499993E-02  -2.36623721E-09
  -3.15999985E-02  -2.30698616E-09
  -3.15500014E-02  -1.58561475E-09
  -3.15000005E-02  -5.99029548E-10
  -3.14499997E-02   1.00680582E-10
  -3.13999988E-02   5.25137919E-11
  -3.13500017E-02  -8.90645446E-10
  -3.13000008E-02  -2.46871479E-09
  -3.12500000E-02  -4.10406686E-09
  -3.11999992E-02  -5.14603204E-09
  -3.11500002E-02  -5.16761611E-09
  -3.10999993E-02  -4.17979118E-09
  -3.10500003E-02  -2.65731304E-09
  -3.09999995E-02  -1.35032696E-09
  -3.09500005E-02  -9.54128443E-10
  -3.08999997E-02  -1.78083914E-09
  -3.08500007E-02  -3.58609853E-09
  -3.07999998E-02  -5.64244118E-09
  -3.07500008E-02  -7.04253855E-09
  -3.07000000E-02  -7.10725701E-09
  -3.06499992E-02  -5.71607250E-09
  -3.06000002E-02  -3.40103945E-09
  -3.05499993E-02  -1.14464227E-09
  -3.05000003E-02   4.45293385E-11
  -3.04499995E-02  -4.03763439E-10
  -3.04000005E-02  -2.32952702E-09
  -3.03499997E-02  -4.86982010E-09
  -3.03000007E-02  -6.81329571E-09
  -3.02499998E-02  -7.13886728E-09
  -3.02000009E-02  -5.50085533E-09
  -3.01500000E-02  -2.43261877E-09
  -3.00999992E-02   8.43358938E-10
  -3.00500002E-02   2.93584201E-09
  -2.99999993E-02   2.91571411E-09
  -2.99500003E-02   7.72641173E-10
  -2.98999995E-02  -2.52413956E-09
  -2.98500005E-02  -5.41319922E-09
  -2.97999997E-02  -6.42492726E-09
  -2.97500007E-02  -4.86459006E-09
  -2.96999998E-02  -1.17950683E-09
  -2.96500009E-02   3.17761550E-09
  -2.96000000E-02   6.35594555E-09
  -2.95499992E-02   6.93240265E-09
  -2.95000002E-02   4.58887239E-09
  -2.94499993E-02   3.20752619E-10
  -2.94000003E-02  -3.94576194E-09
  -2.93499995E-02  -6.18524476E-09
  -2.93000005E-02  -5.19663690E-09
  -2.92499997E-02  -1.19981636E-09
  -2.92000007E-02   4.18689350E-09
  -2.91499998E-02   8.61207461E-09
  -2.91000009E-02   1.00293658E-08
  -2.90500000E-02   7.65257191E-09
  -2.89999992E-02   2.38538389E-09
  -2.89500002E-02  -3.49948115E-09
  -2.88999993E-02  -7.32485095E-09
  -2.88500004E-02  -7.20986693E-09
  -2.87999995E-02  -2.96982972E-09
  -2.87500005E-02   3.71231357E-09
  -2.86999997E-02   9.95905935E-09
  -2.86500007E-02   1.29517623E-08
  -2.85999998E-02   1.12211431E-08
  -2.85500009E-02   5.38706901E-09
  -2.85000000E-02  -2.01814787E-09
  -2.84499992E-02  -7.60824115E-09
  -2.84000002E-02  -8.64399041E-09
  -2.83499993E-02  -4.31358149E-09
  -2.83000004E-02   3.80286069E-09
  -2.82499995E-02   1.23366606E-08
  -2.82000005E-02   1.75789499E-08
  -2.81499997E-02   1.71547967E-08
  -2.81000007E-02   1.11709557E-08
  -2.80499998E-02   2.28885955E-09
  -2.80000009E-02  -5.36205791E-09
  -2.79500000E-02  -7.99121835E-09
  -2.78999992E-02  -3.88583787E-09
  -2.78500002E-02   5.71236569E-09
  -2.77999993E-02   1.70318035E-08
  -2.77500004E-02   2.53643826E-08
  -2.76999995E-02   2.71574230E-08
  -2.76500005E-02   2.16764811E-08
  -2.75999997E-02   1.14641354E-08
  -2.75500007E-02   1.33162670E-09
  -2.74999999E-02  -3.72500231E-09
  -2.74500009E-02  -7.86552545E-10
  -2.74000000E-02   9.56849711E-09
  -2.73499992E-02   2.33662902E-08
  -2.73000002E-02   3.48840850E-08
  -2.72499993E-02   3.91623196E-08
  -2.72000004E-02   3.42812108E-08
  -2.71499995E-02   2.23595134E-08
  -2.71000005E-02   8.76717365E-09
  -2.70499997E-02  -1.68750708E-10
  -2.70000007E-02   9.29512890E-12
  -2.69499999E-02   9.78740466E-09
  -2.69000009E-02   2.52854306E-08
  -2.68500000E-02   3.98204172E-08
  -2.67999992E-02   4.68032617E-08
  -2.67500002E-02   4.27138254E-08
  -2.66999993E-02   2.88118009E-08
  -2.66500004E-02   1.07570441E-08
  -2.65999995E-02  -3.77532849E-09
  -2.65500005E-02  -8.48903525E-09
  -2.64999997E-02  -1.37655776E-09
  -2.64500007E-02   1.41905527E-08
  -2.63999999E-02   3.07581196E-08
  -2.63500009E-02   3.99837212E-08
  -2.63000000E-02   3.63623727E-08
  -2.62499992E-02   1.98218029E-08
  -2.62000002E-02  -4.03037781E-09
  -2.61499994E-02  -2.62131898E-08
  -2.61000004E-02  -3.82927325E-08
  -2.60499995E-02  -3.62106931E-08
  -2.60000005E-02  -2.22892176E-08
  -2.59499997E-02  -4.43560921E-09
  -2.59000007E-02   7.20380999E-09
  -2.58499999E-02   4.73034056E-09
  -2.58000009E-02  -1.38593652E-08
  -2.57500000E-02  -4.35420660E-08
  -2.56999992E-02  -7.42601500E-08
  -2.56500002E-02  -9.52582013E-08
  -2.55999994E-02  -9.98978393E-08
  -2.55500004E-02  -8.87982878E-08
  -2.54999995E-02  -6.98231730E-08
  -2.54500005E-02  -5.48003314E-08
  -2.53999997E-02  -5.43302683E-08
  -2.53500007E-02  -7.29511100E-08
  -2.52999999E-02  -1.06851694E-07
  -2.52500009E-02  -1.45257573E-07
  -2.52000000E-02  -1.75001162E-07
  -2.51499992E-02  -1.86334830E-07
  -2.51000002E-02  -1.77414108E-07
  -2.50499994E-02  -1.55384001E-07
  -2.50000004E-02  -1.33455998E-07
  -2.49499995E-02  -1.25147523E-07
  -2.49000005E-02  -1.38175281E-07
  -2.48499997E-02  -1.70739739E-07
  -2.48000007E-02  -2.11958721E-07
  -2.47499999E-02  -2.46402408E-07
  -2.47000009E-02  -2.60833332E-07
  -2.46500000E-02  -2.50195114E-07
  -2.45999992E-02  -2.20128285E-07
  -2.45500002E-02  -1.84759116E-07
  -2.44999994E-02  -1.60591824E-07
  -2.44500004E-02  -1.59117405E-07
  -2.43999995E-02  -1.81421001E-07
  -2.43500005E-02  -2.17282647E-07
  -2.42999997E-02  -2.49330668E-07
  -2.42500007E-02  -2.60551701E-07
  -2.41999999E-02  -2.41893787E-07
  -2.41500009E-02  -1.96545741E-07
  -2.41000000E-02  -1.38856464E-07
  -2.40499992E-02  -8.82019151E-08
  -2.40000002E-02  -6.03889632E-08
  -2.39499994E-02  -6.03802945E-08
  -2.39000004E-02  -7.96568997E-08
  -2.38499995E-02  -9.95560683E-08
  -2.38000005E-02  -9.92798093E-08
  -2.37499997E-02  -6.51252421E-08
  -2.37000007E-02   3.17324389E-09
  -2.36499999E-02   9.19342327E-08
  -2.36000009E-02   1.79269421E-07
  -2.35500000E-02   2.44692785E-07
  -2.34999992E-02   2.78402979E-07
  -2.34500002E-02   2.86056235E-07
  -2.33999994E-02   2.86742733E-07
  -2.33500004E-02   3.04862539E-07
  -2.32999995E-02   3.59361820E-07
  -2.32500006E-02   4.55083750E-07
  -2.31999997E-02   5.80184974E-07
  -2.31500007E-02   7.10964230E-07
  -2.30999999E-02   8.22159052E-07
  -2.30500009E-02   8.98249766E-07
  -2.30000000E-02   9.40722771E-07
  -2.29499992E-02   9.67907908E-07
  -2.29000002E-02   1.00724321E-06
  -2.28499994E-02   1.08321524E-06
  -2.28000004E-02   1.20626669E-06
  -2.27499995E-02   1.36768188E-06
  -2.27000006E-02   1.54292218E-06
  -2.26499997E-02   1.70216083E-06
  -2.26000007E-02   1.82349129E-06
  -2.25499999E-02   1.90295691E-06
  -2.25000009E-02   1.95680650E-06
  -2.24500000E-02   2.01474040E-06
  -2.23999992E-02   2.10692792E-06
  -2.23500002E-02   2.25044869E-06
  -2.22999994E-02   2.44122953E-06
  -2.22500004E-02   2.65524886E-06
  -2.21999995E-02   2.85872557E-06
  -2.21500006E-02   3.02296144E-06
  -2.20999997E-02   3.13730266E-06
  -2.20500007E-02   3.21435527E-06
  -2.19999999E-02   3.28489932E-06
  -2.19500009E-02   3.38451491E-06
  -2.19000001E-02   3.53769815E-06
  -2.18499992E-02   3.74653177E-06
  -2.18000002E-02   3.98911243E-06
  -2.17499994E-02   4.22869834E-06
  -2.17000004E-02   4.42974624E-06
  -2.16499995E-02   4.57382703E-06
  -2.16000006E-02   4.66827169E-06
  -2.15499997E-02   4.74349281E-06
  -2.15000007E-02   4.83989152E-06
  -2.14499999E-02   4.98996224E-06
  -2.14000009E-02   5.20351205E-06
  -2.13500001E-02   5.46267938E-06
  -2.12999992E-02   5.72924500E-06
  -2.12500002E-02   5.96124528E-06
  -2.11999994E-02   6.13166776E-06
  -2.11500004E-02   6.24089807E-06
  -2.10999995E-02   6.31718967E-06
  -2.10500006E-02   6.40464941E-06
  -2.09999997E-02   6.54385667E-06
  -2.09500007E-02   6.75361025E-06
  -2.08999999E-02   7.02201623E-06
  -2.08500009E-02   7.31114005E-06
  -2.08000001E-02   7.57342059E-06
  -2.07499992E-02   7.77279092E-06
  -2.07000002E-02   7.90112063E-06
  -2.06499994E-02   7.98251676E-06
  -2.06000004E-02   8.06330081E-06
  -2.05499995E-02   8.19182696E-06
  -2.05000006E-02   8.39695895E-06
  -2.04499997E-02   8.67480867E-06
  -2.04000007E-02   8.98988037E-06
  -2.03499999E-02   9.29039470E-06
  -2.03000009E-02   9.53121980E-06
  -2.02500001E-02   9.69432858E-06
  -2.01999992E-02   9.79756169E-06
  -2.01500002E-02   9.88749980E-06
  -2.00999994E-02   1.00193438E-05
  -2.00500004E-02   1.02325621E-05
  -1.99999996E-02   1.05330537E-05
  -1.99500006E-02   1.08900003E-05
  -1.98999997E-02   1.12490980E-05
  -1.98500007E-02   1.15565281E-05
  -1.97999999E-02   1.17832005E-05
  -1.97500009E-02   1.19384122E-05
  -1.97000001E-02   1.20666054E-05
  -1.96499992E-02   1.22283445E-05
  -1.96000002E-02   1.24737462E-05
  -1.95499994E-02   1.28201091E-05
  -1.95000004E-02   1.32437726E-05
  -1.94499996E-02   1.36901654E-05
  -1.94000006E-02   1.40978254E-05
  -1.93499997E-02   1.44259429E-05
  -1.93000007E-02   1.46731991E-05
  -1.92499999E-02   1.48792706E-05
  -1.92000009E-02   1.51079958E-05
  -1.91500001E-02   1.54194968E-05
  -1.90999992E-02   1.58434959E-05
  -1.90500002E-02   1.63657278E-05
  -1.89999994E-02   1.69337709E-05
  -1.89500004E-02   1.74800298E-05
  -1.88999996E-02   1.79518302E-05
  -1.88500006E-02   1.83354095E-05
  -1.87999997E-02   1.86628986E-05
  -1.87500007E-02   1.89989223E-05
  -1.86999999E-02   1.94124204E-05
  -1.86500009E-02   1.99461902E-05
  -1.86000001E-02   2.05975739E-05
  -1.85499992E-02   2.13191342E-05
  -1.85000002E-02   2.20393576E-05
  -1.84499994E-02   2.26943030E-05
  -1.84000004E-02   2.32564907E-05
  -1.83499996E-02   2.37479271E-05
  -1.83000006E-02   2.42311507E-05
  -1.82499997E-02   2.47820844E-05
  -1.82000007E-02   2.54566057E-05
  -1.81499999E-02   2.62655121E-05
  -1.81000009E-02   2.71691570E-05
  -1.80500001E-02   2.80946297E-05
  -1.79999992E-02   2.89679483E-05
  -1.79500002E-02   2.97471797E-05
  -1.78999994E-02   3.04417517E-05
  -1.78500004E-02   3.11090662E-05
  -1.77999996E-02   3.18296516E-05
  -1.77500006E-02   3.26718109E-05
  -1.76999997E-02   3.36612211E-05
  -1.76500008E-02   3.47689893E-05
  -1.75999999E-02   3.59240767E-05
  -1.75500009E-02   3.70445450E-05
  -1.75000001E-02   3.80741003E-05
  -1.74499992E-02   3.90076348E-05
  -1.74000002E-02   3.98942611E-05
  -1.73499994E-02   4.08163141E-05
  -1.73000004E-02   4.18531854E-05
  -1.72499996E-02   4.30461223E-05
  -1.72000006E-02   4.43796198E-05
  -1.71499997E-02   4.57877941E-05
  -1.71000008E-02   4.71833591E-05
  -1.70499999E-02   4.84964003E-05
  -1.70000009E-02   4.97058645E-05
  -1.69500001E-02   5.08496814E-05
  -1.68999992E-02   5.20087451E-05
  -1.68500002E-02   5.32715458E-05
  -1.67999994E-02   5.46950287E-05
  -1.67500004E-02   5.62792302E-05
  -1.66999996E-02   5.79668886E-05
  -1.66500006E-02   5.96686041E-05
  -1.65999997E-02   6.13026132E-05
  -1.65500008E-02   6.28314592E-05
  -1.64999999E-02   6.42794403E-05
  -1.64500009E-02   6.57225537E-05
  -1.64000001E-02   6.72555543E-05
  -1.63499992E-02   6.89503577E-05
  -1.63000003E-02   7.08240841E-05
  -1.62499994E-02   7.28314481E-05
  -1.62000004E-02   7.48845487E-05
  -1.61499996E-02   7.68920145E-05
  -1.61000006E-02   7.87999452E-05
  -1.60499997E-02   8.06165990E-05
  -1.60000008E-02   8.24096496E-05
  -1.59499999E-02   8.42769878E-05
  -1.59000009E-02   8.63038949E-05
  -1.58500001E-02   8.85254922E-05
  -1.57999992E-02   9.09111623E-05
  -1.57500003E-02   9.33782067E-05
  -1.56999994E-02   9.58288510E-05
  -1.56500004E-02   9.81939447E-05
  -1.55999996E-02   1.00464444E-04
  -1.55499997E-02   1.02696373E-04
  -1.54999997E-02   1.04986982E-04
  -1.54499998E-02   1.07432439E-04
  -1.53999999E-02   1.10085828E-04
  -1.53500000E-02   1.12933703E-04
  -1.53000001E-02   1.15902250E-04
  -1.52500002E-02   1.18890530E-04
  -1.52000003E-02   1.21815698E-04
  -1.51500003E-02   1.24650527E-04
  -1.51000004E-02   1.27436462E-04
  -1.50499996E-02   1.30266111E-04
  -1.49999997E-02   1.33243389E-04
  -1.49499997E-02   1.36438161E-04
  -1.48999998E-02   1.39855561E-04
  -1.48499999E-02   1.43434067E-04
  -1.48000000E-02   1.47073457E-04
  -1.47500001E-02   1.50679611E-04
  -1.47000002E-02   1.54207301E-04
  -1.46500003E-02   1.57681119E-04
  -1.46000003E-02   1.61185613E-04
  -1.45500004E-02   1.64829224E-04
  -1.44999996E-02   1.68696643E-04
  -1.44499997E-02   1.72811619E-04
  -1.43999998E-02   1.77127557E-04
  -1.43499998E-02   1.81548603E-04
  -1.42999999E-02   1.85972647E-04
  -1.42500000E-02   1.90337480E-04
  -1.42000001E-02   1.94649096E-04
  -1.41500002E-02   1.98980299E-04
  -1.41000003E-02   2.03439471E-04
  -1.40500003E-02   2.08123165E-04
  -1.40000004E-02   2.13074294E-04
  -1.39499996E-02   2.18263944E-04
  -1.38999997E-02   2.23604176E-04
  -1.38499998E-02   2.28988021E-04
  -1.37999998E-02   2.34338426E-04
  -1.37499999E-02   2.39642046E-04
  -1.37000000E-02   2.44956784E-04
  -1.36500001E-02   2.50387093E-04
  -1.36000002E-02   2.56038242E-04
  -1.35500003E-02   2.61971029E-04
  -1.35000004E-02   2.68175645E-04
  -1.34500004E-02   2.74576392E-04
  -1.33999996E-02   2.81065848E-04
  -1.33499997E-02   2.87553295E-04
  -1.32999998E-02   2.94006604E-04
  -1.32499998E-02   3.00466229E-04
  -1.31999999E-02   3.07028327E-04
  -1.31500000E-02   3.13803816E-04
  -1.31000001E-02   3.20869498E-04
  -1.30500002E-02   3.28234484E-04
  -1.30000003E-02   3.35837627E-04
  -1.29500004E-02   3.43575346E-04
  -1.29000004E-02   3.51348514E-04
  -1.28499996E-02   3.59107245E-04
  -1.27999997E-02   3.66873195E-04
  -1.27499998E-02   3.74730793E-04
  -1.26999998E-02   3.82791623E-04
  -1.26499999E-02   3.91145470E-04
  -1.26000000E-02   3.99820448E-04
  -1.25500001E-02   4.08772146E-04
  -1.25000002E-02   4.17904754E-04
  -1.24500003E-02   4.27114108E-04
  -1.24000004E-02   4.36334376E-04
  -1.23500004E-02   4.45567770E-04
  -1.22999996E-02   4.54884546E-04
  -1.22499997E-02   4.64392826E-04
  -1.21999998E-02   4.74191038E-04
  -1.21499998E-02   4.84325661E-04
  -1.20999999E-02   4.94772452E-04
  -1.20500000E-02   5.05447213E-04
  -1.20000001E-02   5.16244501E-04
  -1.19500002E-02   5.27085038E-04
  -1.19000003E-02   5.37951302E-04
  -1.18500004E-02   5.48896845E-04
  -1.18000004E-02   5.60022425E-04
  -1.17499996E-02   5.71432465E-04
  -1.16999997E-02   5.83190355E-04
  -1.16499998E-02   5.95290214E-04
  -1.15999999E-02   6.07660855E-04
  -1.15499999E-02   6.20199949E-04
  -1.15000000E-02   6.32820127E-04
  -1.14500001E-02   6.45486405E-04
  -1.14000002E-02   6.58232893E-04
  -1.13500003E-02   6.71149697E-04
  -1.13000004E-02   6.84343802E-04
  -1.12500004E-02   6.97892450E-04
  -1.11999996E-02   7.11809145E-04
  -1.11499997E-02   7.26040918E-04
  -1.10999998E-02   7.40492716E-04
  -1.10499999E-02   7.55069195E-04
  -1.09999999E-02   7.69717619E-04
  -1.09500000E-02   7.84454052E-04
  -1.09000001E-02   7.99355155E-04
  -1.08500002E-02   8.14524072E-04
  -1.08000003E-02   8.30047706E-04
  -1.07500004E-02   8.45959352E-04
  -1.07000005E-02   8.62223795E-04
  -1.06499996E-02   8.78754247E-04
  -1.05999997E-02   8.95452686E-04
  -1.05499998E-02   9.12253105E-04
  -1.04999999E-02   9.29154572E-04
  -1.04499999E-02   9.46218614E-04
  -1.04000000E-02   9.63542843E-04
  -1.03500001E-02   9.81222023E-04
  -1.03000002E-02   9.99305281E-04
  -1.02500003E-02   1.01777632E-03
  -1.02000004E-02   1.03656168E-03
  -1.01500005E-02   1.05556520E-03
  -1.00999996E-02   1.07470946E-03
  -1.00499997E-02   1.09397364E-03
  -9.99999978E-03   1.11340184E-03
  -9.94999986E-03   1.13308127E-03
  -9.89999995E-03   1.15311018E-03
  -9.85000003E-03   1.17355143E-03
  -9.80000012E-03   1.19440560E-03
  -9.75000020E-03   1.21561345E-03
  -9.70000029E-03   1.23708195E-03
  -9.65000037E-03   1.25872740E-03
  -9.60000046E-03   1.28051313E-03
  -9.54999961E-03   1.30246510E-03
  -9.49999969E-03   1.32466049E-03
  -9.44999978E-03   1.34719454E-03
  -9.39999986E-03   1.37013744E-03
  -9.34999995E-03   1.39350665E-03
  -9.30000003E-03   1.41726271E-03
  -9.25000012E-03   1.44132541E-03
  -9.20000020E-03   1.46561023E-03
  -9.15000029E-03   1.49006781E-03
  -9.10000037E-03   1.51470327E-03
  -9.05000046E-03   1.53957366E-03
  -8.99999961E-03   1.56476547E-03
  -8.94999970E-03   1.59035879E-03
  -8.89999978E-03   1.61639054E-03
  -8.84999987E-03   1.64283754E-03
  -8.79999995E-03   1.66962924E-03
  -8.75000004E-03   1.69668277E-03
  -8.70000012E-03   1.72393443E-03
  -8.65000021E-03   1.75136747E-03
  -8.60000029E-03   1.77902088E-03
  -8.55000038E-03   1.80697162E-03
  -8.50000046E-03   1.83530222E-03
  -8.44999962E-03   1.86406448E-03
  -8.39999970E-03   1.89325714E-03
  -8.34999979E-03   1.92282454E-03
  -8.29999987E-03   1.95268146E-03
  -8.24999996E-03   1.98275386E-03
  -8.20000004E-03   2.01301137E-03
  -8.15000013E-03   2.04347679E-03
  -8.10000021E-03   2.07421929E-03
  -8.05000030E-03   2.10532639E-03
  -8.00000038E-03   2.13685818E-03
  -7.95000046E-03   2.16882606E-03
  -7.89999962E-03   2.20118882E-03
  -7.84999970E-03   2.23387056E-03
  -7.79999979E-03   2.26679002E-03
  -7.74999987E-03   2.29989667E-03
  -7.69999996E-03   2.33319704E-03
  -7.65000004E-03   2.36674654E-03
  -7.60000013E-03   2.40062224E-03
  -7.55000021E-03   2.43488722E-03
  -7.49999983E-03   2.46957177E-03
  -7.44999992E-03   2.50465493E-03
  -7.40000000E-03   2.54006730E-03
  -7.35000009E-03   2.57572415E-03
  -7.30000017E-03   2.61156377E-03
  -7.24999979E-03   2.64757033E-03
  -7.19999988E-03   2.68378132E-03
  -7.14999996E-03   2.72027077E-03
  -7.10000005E-03   2.75711715E-03
  -7.05000013E-03   2.79435795E-03
  -7.00000022E-03   2.83197942E-03
  -6.94999984E-03   2.86992127E-03
  -6.89999992E-03   2.90809828E-03
  -6.85000001E-03   2.94644246E-03
  -6.80000009E-03   2.98492727E-03
  -6.75000018E-03   3.02357669E-03
  -6.69999979E-03   3.06244846E-03
  -6.64999988E-03   3.10161267E-03
  -6.59999996E-03   3.14112101E-03
  -6.55000005E-03   3.18098115E-03
  -6.50000013E-03   3.22114420E-03
  -6.45000022E-03   3.26153054E-03
  -6.39999984E-03   3.30206170E-03
  -6.34999992E-03   3.34268669E-03
  -6.30000001E-03   3.38340038E-03
  -6.25000009E-03   3.42425285E-03
  -6.20000018E-03   3.46531929E-03
  -6.14999980E-03   3.50665417E-03
  -6.09999988E-03   3.54827242E-03
  -6.04999997E-03   3.59013537E-03
  -6.00000005E-03   3.63217178E-03
  -5.95000014E-03   3.67430132E-03
  -5.90000022E-03   3.71646718E-03
  -5.84999984E-03   3.75865493E-03
  -5.79999993E-03   3.80089227E-03
  -5.75000001E-03   3.84323508E-03
  -5.70000010E-03   3.88573599E-03
  -5.65000018E-03   3.92843364E-03
  -5.59999980E-03   3.97131965E-03
  -5.54999989E-03   4.01431974E-03
  -5.49999997E-03   4.05734451E-03
  -5.45000006E-03   4.10032412E-03
  -5.40000014E-03   4.14322224E-03
  -5.35000023E-03   4.18605283E-03
  -5.29999984E-03   4.22886061E-03
  -5.24999993E-03   4.27170098E-03
  -5.20000001E-03   4.31461306E-03
  -5.15000010E-03   4.35759174E-03
  -5.10000018E-03   4.40058531E-03
  -5.04999980E-03   4.44351370E-03
  -4.99999989E-03   4.48628981E-03
  -4.94999997E-03   4.52884566E-03
  -4.90000006E-03   4.57117986E-03
  -4.85000014E-03   4.61334037E-03
  -4.80000023E-03   4.65537328E-03
  -4.74999985E-03   4.69730655E-03
  -4.69999993E-03   4.73915227E-03
  -4.65000002E-03   4.78089321E-03
  -4.60000010E-03   4.82245116E-03
  -4.55000019E-03   4.86372784E-03
  -4.49999981E-03   4.90465341E-03
  -4.44999989E-03   4.94519435E-03
  -4.39999998E-03   4.98537160E-03
  -4.35000006E-03   5.02522802E-03
  -4.30000015E-03   5.06481715E-03
  -4.25000023E-03   5.10416180E-03
  -4.19999985E-03   5.14322706E-03
  -4.14999994E-03   5.18195098E-03
  -4.10000002E-03   5.22024091E-03
  -4.05000011E-03   5.25798928E-03
  -4.00000019E-03   5.29513787E-03
  -3.94999981E-03   5.33168949E-03
  -3.89999989E-03   5.36767207E-03
  -3.84999998E-03   5.40315174E-03
  -3.80000006E-03   5.43818111E-03
  -3.74999992E-03   5.47273317E-03
  -3.70000000E-03   5.50675346E-03
  -3.65000009E-03   5.54016232E-03
  -3.59999994E-03   5.57284895E-03
  -3.55000002E-03   5.60472207E-03
  -3.50000011E-03   5.63574955E-03
  -3.44999996E-03   5.66595327E-03
  -3.40000005E-03   5.69537422E-03
  -3.34999990E-03   5.72407246E-03
  -3.29999998E-03   5.75206475E-03
  -3.25000007E-03   5.77932224E-03
  -3.19999992E-03   5.80576388E-03
  -3.15000000E-03   5.83125092E-03
  -3.10000009E-03   5.85566927E-03
  -3.04999994E-03   5.87897049E-03
  -3.00000003E-03   5.90115506E-03
  -2.95000011E-03   5.92226861E-03
  -2.89999996E-03   5.94237121E-03
  -2.85000005E-03   5.96149033E-03
  -2.79999990E-03   5.97959710E-03
  -2.74999999E-03   5.99662447E-03
  -2.70000007E-03   6.01246953E-03
  -2.64999992E-03   6.02699723E-03
  -2.60000001E-03   6.04011118E-03
  -2.55000009E-03   6.05178531E-03
  -2.49999994E-03   6.06202055E-03
  -2.45000003E-03   6.07086718E-03
  -2.40000011E-03   6.07839227E-03
  -2.34999997E-03   6.08463027E-03
  -2.30000005E-03   6.08955510E-03
  -2.24999990E-03   6.09304104E-03
  -2.19999999E-03   6.09490136E-03
  -2.15000007E-03   6.09500939E-03
  -2.09999993E-03   6.09332183E-03
  -2.05000001E-03   6.08983496E-03
  -2.00000009E-03   6.08460745E-03
  -1.94999995E-03   6.07772963E-03
  -1.90000003E-03   6.06924435E-03
  -1.85000000E-03   6.05912413E-03
  -1.79999997E-03   6.04724931E-03
  -1.75000005E-03   6.03344291E-03
  -1.70000002E-03   6.01753592E-03
  -1.64999999E-03   5.99941378E-03
  -1.59999996E-03   5.97906159E-03
  -1.55000004E-03   5.95656037E-03
  -1.50000001E-03   5.93204657E-03
  -1.44999998E-03   5.90559235E-03
  -1.39999995E-03   5.87717397E-03
  -1.35000004E-03   5.84668061E-03
  -1.30000000E-03   5.81392366E-03
  -1.24999997E-03   5.77866938E-03
  -1.20000006E-03   5.74075989E-03
  -1.15000003E-03   5.70018310E-03
  -1.09999999E-03   5.65703120E-03
  -1.04999996E-03   5.61144715E-03
  -1.00000005E-03   5.56354690E-03
  -9.50000016E-04   5.51337563E-03
  -8.99999985E-04   5.46082715E-03
  -8.50000011E-04   5.40564209E-03
  -7.99999980E-04   5.34757366E-03
  -7.50000007E-04   5.28644212E-03
  -6.99999975E-04   5.22216503E-03
  -6.50000002E-04   5.15482202E-03
  -6.00000028E-04   5.08457981E-03
  -5.49999997E-04   5.01158880E-03
  -5.00000024E-04   4.93593048E-03
  -4.49999992E-04   4.85755922E-03
  -3.99999990E-04   4.77623474E-03
  -3.49999988E-04   4.69165202E-03
  -3.00000014E-04   4.60356520E-03
  -2.50000012E-04   4.51184576E-03
  -1.99999995E-04   4.41652909E-03
  -1.50000007E-04   4.31778608E-03
  -9.99999975E-05   4.21585143E-03
  -4.99999987E-05   4.11087088E-03
   0.00000000       4.00280859E-03
   4.99999987E-05   3.89146735E-03
   9.99999975E-05   3.77654191E-03
   1.50000007E-04   3.65770655E-03
   1.99999995E-04   3.53475590E-03
   2.50000012E-04   3.40768811E-03
   3.00000014E-04   3.27666290E-03
   3.49999988E-04   3.14192101E-03
   3.99999990E-04   3.00370995E-03
   4.49999992E-04   2.86207837E-03
   5.00000024E-04   2.71686632E-03
   5.49999997E-04   2.56775110E-03
   6.00000028E-04   2.41433084E-03
   6.50000002E-04   2.25629355E-03
   6.99999975E-04   2.09357822E-03
   7.50000007E-04   1.92636228E-03
   7.99999980E-04   1.75497716E-03
   8.50000011E-04   1.57971180E-03
   8.99999985E-04   1.40066165E-03
   9.50000016E-04   1.21768494E-03
   1.00000005E-03   1.03041285E-03
   1.04999996E-03   8.38477281E-04
   1.09999999E-03   6.41561288E-04
   1.15000003E-03   4.39513213E-04
   1.20000006E-03   2.32464561E-04
   1.24999997E-03   2.07270787E-05
   1.30000000E-03  -1.95413159E-04
   1.35000004E-03  -4.15764080E-04
   1.39999995E-03  -6.40341023E-04
   1.44999998E-03  -8.69418029E-04
   1.50000001E-03  -1.10341865E-03
   1.55000004E-03  -1.34275248E-03
   1.59999996E-03  -1.58762967E-03
   1.64999999E-03  -1.83800422E-03
   1.70000002E-03  -2.09363527E-03
   1.75000005E-03  -2.35414156E-03
   1.79999997E-03  -2.61920295E-03
   1.85000000E-03  -2.88878963E-03
   1.90000003E-03  -3.16315331E-03
   1.94999995E-03  -3.44272237E-03
   2.00000009E-03  -3.72796506E-03
   2.05000001E-03  -4.01915144E-03
   2.09999993E-03  -4.31625964E-03
   2.15000007E-03  -4.61901724E-03
   2.19999999E-03  -4.92703449E-03
   2.24999990E-03  -5.23998775E-03
   2.30000005E-03  -5.55776339E-03
   2.34999997E-03  -5.88051556E-03
   2.40000011E-03  -6.20864611E-03
   2.45000003E-03  -6.54267613E-03
   2.49999994E-03  -6.88297069E-03
   2.55000009E-03  -7.22960290E-03
   2.60000001E-03  -7.58233760E-03
   2.64999992E-03  -7.94071238E-03
   2.70000007E-03  -8.30428023E-03
   2.74999999E-03  -8.67281575E-03
   2.79999990E-03  -9.04645026E-03