  -3.99999991E-02   0.00000000    
  -3.99499983E-02   0.00000000    
  -3.99000011E-02   0.00000000    
  -3.98500003E-02  -6.02402024E-17
  -3.97999994E-02  -5.27781147E-16
  -3.97499986E-02  -2.36873166E-15
  -3.97000015E-02  -7.11460157E-15
  -3.96500006E-02  -1.55335119E-14
  -3.95999998E-02  -2.43944354E-14
  -3.95499989E-02  -2.19606776E-14
  -3.95000018E-02   1.52953008E-14
  -3.94500010E-02   1.20981865E-13
  -3.94000001E-02   3.28992069E-13
  -3.93499993E-02   6.56062932E-13
  -3.92999984E-02   1.08297551E-12
  -3.92500013E-02   1.54608292E-12
  -3.92000005E-02   1.95123930E-12
  -3.91499996E-02   2.21387752E-12
  -3.90999988E-02   2.31313623E-12
  -3.90500017E-02   2.33264276E-12
  -3.90000008E-02   2.45738607E-12
  -3.89500000E-02   2.91214752E-12
  -3.88999991E-02   3.85779429E-12
  -3.88499983E-02   5.29157924E-12
  -3.88000011E-02   7.00774118E-12
  -3.87500003E-02   8.65486068E-12
  -3.86999995E-02   9.88193208E-12
  -3.86499986E-02   1.05154158E-11
  -3.86000015E-02   1.06801139E-11
  -3.85500006E-02   1.07874282E-11
  -3.84999998E-02   1.13687011E-11
  -3.84499989E-02   1.28096570E-11
  -3.84000018E-02   1.51064300E-11
  -3.83500010E-02   1.77748996E-11
  -3.83000001E-02   1.99859573E-11
  -3.82499993E-02   2.08908169E-11
  -3.81999984E-02   1.99966519E-11
  -3.81500013E-02   1.74115878E-11
  -3.81000005E-02   1.38274574E-11
  -3.80499996E-02   1.02288854E-11
  -3.79999988E-02   7.45054279E-12
  -3.79500017E-02   5.78451523E-12
  -3.79000008E-02   4.82506006E-12
  -3.78500000E-02   3.63183225E-12
  -3.77999991E-02   1.14206030E-12
  -3.77499983E-02  -3.36026562E-12
  -3.77000012E-02  -9.93950755E-12
  -3.76500003E-02  -1.80055675E-11
  -3.75999995E-02  -2.65961940E-11
  -3.75499986E-02  -3.47868817E-11
  -3.75000015E-02  -4.20252028E-11
  -3.74500006E-02  -4.82565897E-11
  -3.73999998E-02  -5.38422605E-11
  -3.73499990E-02  -5.93770935E-11
  -3.73000018E-02  -6.55277499E-11
  -3.72500010E-02  -7.29321464E-11
  -3.72000001E-02  -8.20991122E-11
  -3.71499993E-02  -9.32083646E-11
  -3.70999984E-02  -1.05784402E-10
  -3.70500013E-02  -1.18376198E-10
  -3.70000005E-02  -1.28515379E-10
  -3.69499996E-02  -1.33224418E-10
  -3.68999988E-02  -1.30128214E-10
  -3.68500017E-02  -1.18837884E-10
  -3.68000008E-02  -1.01918064E-10
  -3.67500000E-02  -8.46783893E-11
  -3.66999991E-02  -7.34142955E-11
  -3.66499983E-02  -7.24898058E-11
  -3.66000012E-02  -8.14628018E-11
  -3.65500003E-02  -9.38254058E-11
  -3.64999995E-02  -9.85224610E-11
  -3.64499986E-02  -8.42397402E-11
  -3.64000015E-02  -4.49729143E-11
  -3.63500006E-02   1.56722170E-11
  -3.62999998E-02   8.39672498E-11
  -3.62499990E-02   1.40491965E-10
  -3.62000018E-02   1.68371525E-10
  -3.61500010E-02   1.61960459E-10
  -3.61000001E-02   1.31652161E-10
  -3.60499993E-02   1.01580827E-10
  -3.59999985E-02   9.99827582E-11
  -3.59500013E-02   1.45707557E-10
  -3.59000005E-02   2.37000031E-10
  -3.58499996E-02   3.48634788E-10
  -3.57999988E-02   4.40321030E-10
  -3.57500017E-02   4.74092876E-10
  -3.57000008E-02   4.33468761E-10
  -3.56500000E-02   3.35049405E-10
  -3.55999991E-02   2.25471447E-10
  -3.55499983E-02   1.62817870E-10
  -3.55000012E-02   1.89251795E-10
  -3.54500003E-02   3.07149112E-10
  -3.53999995E-02   4.71221673E-10
  -3.53499986E-02   6.03090911E-10
  -3.53000015E-02   6.24558960E-10
  -3.52500007E-02   4.95940067E-10
  -3.51999998E-02   2.41282716E-10
  -3.51499990E-02  -5.38430342E-11
  -3.51000018E-02  -2.74828549E-10
  -3.50500010E-02  -3.29134442E-10
  -3.50000001E-02  -1.93645933E-10
  -3.49499993E-02   6.53025342E-11
  -3.48999985E-02   3.12616683E-10
  -3.48500013E-02   4.01129158E-10
  -3.48000005E-02   2.41401316E-10
  -3.47499996E-02  -1.47570567E-10
  -3.46999988E-02  -6.33727570E-10
  -3.46500017E-02  -1.02132081E-09
  -3.46000008E-02  -1.13695087E-09
  -3.45500000E-02  -9.15095943E-10
  -3.44999991E-02  -4.41833153E-10
  -3.44499983E-02   6.91118829E-11
  -3.44000012E-02   3.64170444E-10
  -3.43500003E-02   2.66600547E-10
  -3.42999995E-02  -2.30723399E-10
  -3.42499986E-02  -9.43457423E-10
  -3.42000015E-02  -1.56297497E-09
  -3.41500007E-02  -1.78990789E-09
  -3.40999998E-02  -1.47712609E-09
  -3.40499990E-02  -7.14785064E-10
  -3.40000018E-02   1.89090341E-10
  -3.39500010E-02   8.33683622E-10
  -3.39000002E-02   9.06868913E-10
  -3.38499993E-02   3.42011114E-10
  -3.37999985E-02  -6.27103702E-10
  -3.37500013E-02  -1.54921376E-09
  -3.37000005E-02  -1.95009742E-09
  -3.36499996E-02  -1.55667412E-09
  -3.35999988E-02  -4.46867876E-10
  -3.35500017E-02   9.53004564E-10
  -3.35000008E-02   2.03631645E-09
  -3.34500000E-02   2.28521380E-09
  -3.33999991E-02   1.52235580E-09
  -3.33499983E-02   2.45149612E-11
  -3.33000012E-02  -1.56802793E-09
  -3.32500003E-02  -2.52141774E-09
  -3.31999995E-02  -2.34558395E-09
  -3.31499986E-02  -1.04565323E-09
  -3.31000015E-02   8.38387693E-10
  -3.30500007E-02   2.44026288E-09
  -3.29999998E-02   2.94672331E-09
  -3.29499990E-02   1.98330619E-09
  -3.29000019E-02  -1.74224607E-10
  -3.28500010E-02  -2.67615330E-09
  -3.28000002E-02  -4.45000259E-09
  -3.27499993E-02  -4.68361128E-09
  -3.26999985E-02  -3.22391380E-09
  -3.26500013E-02  -6.98056668E-10
  -3.26000005E-02   1.72106329E-09
  -3.25499997E-02   2.82198709E-09
  -3.24999988E-02   1.91785610E-09
  -3.24500017E-02  -7.93402677E-10
  -3.24000008E-02  -4.25484581E-09
  -3.23500000E-02  -6.97810787E-09
  -3.22999991E-02  -7.70216957E-09
  -3.22499983E-02  -5.99257000E-09
  -3.22000012E-02  -2.49763987E-09
  -3.21500003E-02   1.28144706E-09
  -3.20999995E-02   3.63311270E-09
  -3.20499986E-02   3.41916984E-09
  -3.20000015E-02   6.44508058E-10
  -3.19500007E-02  -3.46697160E-09
  -3.18999998E-02  -6.95851821E-09
  -3.18499990E-02  -8.00000244E-09
  -3.18000019E-02  -5.74582648E-09
  -3.17500010E-02  -7.92654997E-10
  -3.17000002E-02   5.00155029E-09
  -3.16499993E-02   9.29445410E-09
  -3.15999985E-02   1.03101501E-08
  -3.15500014E-02   7.69422481E-09
  -3.15000005E-02   2.76467960E-09
  -3.14499997E-02  -1.99518890E-09
  -3.13999988E-02  -4.01413569E-09
  -3.13500017E-02  -1.81718185E-09
  -3.13000008E-02   4.22425561E-09
  -3.12500000E-02   1.19489938E-08
  -3.11999992E-02   1.82913649E-08
  -3.11500002E-02   2.06355040E-08
  -3.10999993E-02   1.80413426E-08
  -3.10500003E-02   1.17695622E-08
  -3.09999995E-02   4.82310281E-09
  -3.09500005E-02   6.60116961E-10
  -3.08999997E-02   1.62398217E-09
  -3.08500007E-02   7.79709630E-09
  -3.07999998E-02   1.68295653E-08
  -3.07500008E-02   2.48756802E-08
  -3.07000000E-02   2.82686763E-08
  -3.06499992E-02   2.52046402E-08
  -3.06000002E-02   1.66630105E-08
  -3.05499993E-02   6.10068218E-09
  -3.05000003E-02  -2.00447126E-09
  -3.04499995E-02  -4.15275592E-09
  -3.04000005E-02   5.24077171E-10
  -3.03499997E-02   9.73109771E-09
  -3.03000007E-02   1.89010514E-08
  -3.02499998E-02   2.31718964E-08
  -3.02000009E-02   1.95999288E-08
  -3.01500000E-02   8.60665672E-09
  -3.00999992E-02  -6.04139094E-09
  -3.00500002E-02  -1.87835507E-08
  -2.99999993E-02  -2.47124188E-08
  -2.99500003E-02  -2.18421832E-08
  -2.98999995E-02  -1.21519843E-08
  -2.98500005E-02  -8.68113803E-10
  -2.97999997E-02   5.77169379E-09
  -2.97500007E-02   3.32340488E-09
  -2.96999998E-02  -8.74232242E-09
  -2.96500009E-02  -2.66034892E-08
  -2.96000000E-02  -4.36126371E-08
  -2.95499992E-02  -5.31808162E-08
  -2.95000002E-02  -5.17676568E-08
  -2.94499993E-02  -4.06196925E-08
  -2.94000003E-02  -2.54079104E-08
  -2.93499995E-02  -1.38344234E-08
  -2.93000005E-02  -1.22068373E-08
  -2.92499997E-02  -2.24935999E-08
  -2.92000007E-02  -4.12218277E-08
  -2.91499998E-02  -6.08006658E-08
  -2.91000009E-02  -7.27752862E-08
  -2.90500000E-02  -7.16170163E-08
  -2.89999992E-02  -5.73509098E-08
  -2.89500002E-02  -3.57774042E-08
  -2.88999993E-02  -1.60845310E-08
  -2.88500004E-02  -6.82369805E-09
  -2.87999995E-02  -1.20063053E-08
  -2.87500005E-02  -2.90970270E-08
  -2.86999997E-02  -4.98926838E-08
  -2.86500007E-02  -6.40068976E-08
  -2.85999998E-02  -6.34871355E-08
  -2.85500009E-02  -4.65173038E-08
  -2.85000000E-02  -1.84906952E-08
  -2.84499992E-02   1.01384572E-08
  -2.84000002E-02   2.83803701E-08
  -2.83499993E-02   2.96565652E-08
  -2.83000004E-02   1.49440655E-08
  -2.82499995E-02  -7.37818118E-09
  -2.82000005E-02  -2.50411230E-08
  -2.81499997E-02  -2.72974710E-08
  -2.81000007E-02  -9.85810722E-09
  -2.80499998E-02   2.28992860E-08
  -2.80000009E-02   5.95542424E-08
  -2.79500000E-02   8.65128911E-08
  -2.78999992E-02   9.40449709E-08
  -2.78500002E-02   8.08036376E-08
  -2.77999993E-02   5.47278027E-08
  -2.77500004E-02   2.97833953E-08
  -2.76999995E-02   1.98602912E-08
  -2.76500005E-02   3.24762937E-08
  -2.75999997E-02   6.51252847E-08
  -2.75500007E-02   1.06016863E-07
  -2.74999999E-02   1.39035407E-07
  -2.74500009E-02   1.50834325E-07
  -2.74000000E-02   1.36940628E-07
  -2.73499992E-02   1.04078552E-07
  -2.73000002E-02   6.75267131E-08
  -2.72499993E-02   4.45222277E-08
  -2.72000004E-02   4.65454022E-08
  -2.71499995E-02   7.39243831E-08
  -2.71000005E-02   1.15274730E-07
  -2.70499997E-02   1.52196961E-07
  -2.70000007E-02   1.67299262E-07
  -2.69499999E-02   1.52046525E-07
  -2.69000009E-02   1.10893396E-07
  -2.68500000E-02   5.97116809E-08
  -2.67999992E-02   1.90255651E-08
  -2.67500002E-02   4.92573582E-09
  -2.66999993E-02   2.16764331E-08
  -2.66500004E-02   5.94025273E-08
  -2.65999995E-02   9.80683765E-08
  -2.65500005E-02   1.16166227E-07
  -2.64999997E-02   1.00358150E-07
  -2.64500007E-02   5.17612406E-08
  -2.63999999E-02  -1.40646339E-08
  -2.63500009E-02  -7.36276036E-08
  -2.63000000E-02  -1.05794783E-07
  -2.62499992E-02  -1.01354232E-07
  -2.62000002E-02  -6.75195651E-08
  -2.61499994E-02  -2.51867203E-08
  -2.61000004E-02   5.59574505E-11
  -2.60499995E-02  -1.06816636E-08
  -2.60000005E-02  -6.08499207E-08
  -2.59499997E-02  -1.36383903E-07
  -2.59000007E-02  -2.11438319E-07
  -2.58499999E-02  -2.59597954E-07
  -2.58000009E-02  -2.65691483E-07
  -2.57500000E-02  -2.32912939E-07
  -2.56999992E-02  -1.81901669E-07
  -2.56500002E-02  -1.41945804E-07
  -2.55999994E-02  -1.38022841E-07
  -2.55500004E-02  -1.79378489E-07
  -2.54999995E-02  -2.54827171E-07
  -2.54500005E-02  -3.37092473E-07
  -2.53999997E-02  -3.94510465E-07
  -2.53500007E-02  -4.05056369E-07
  -2.52999999E-02  -3.66459915E-07
  -2.52500009E-02  -2.97747363E-07
  -2.52000000E-02  -2.31264110E-07
  -2.51499992E-02  -1.98484102E-07
  -2.51000002E-02  -2.15800583E-07
  -2.50499994E-02  -2.76682243E-07
  -2.50000004E-02  -3.53902806E-07
  -2.49499995E-02  -4.11130799E-07
  -2.49000005E-02  -4.18940033E-07
  -2.48499997E-02  -3.68172550E-07
  -2.48000007E-02  -2.74576593E-07
  -2.47499999E-02  -1.72390884E-07
  -2.47000009E-02  -9.94496432E-08
  -2.46500000E-02  -8.02649112E-08
  -2.45999992E-02  -1.14629934E-07
  -2.45500002E-02  -1.77014698E-07
  -2.44999994E-02  -2.27319347E-07
  -2.44500004E-02  -2.28464870E-07
  -2.43999995E-02  -1.63105497E-07
  -2.43500005E-02  -4.19334327E-08
  -2.42999997E-02   1.00376667E-07
  -2.42500007E-02   2.20089731E-07
  -2.41999999E-02   2.83784431E-07
  -2.41500009E-02   2.83594943E-07
  -2.41000000E-02   2.41367644E-07
  -2.40499992E-02   1.99579716E-07
  -2.40000002E-02   2.02757775E-07
  -2.39499994E-02   2.77497634E-07
  -2.39000004E-02   4.20022161E-07
  -2.38499995E-02   5.97055987E-07
  -2.38000005E-02   7.59961438E-07
  -2.37499997E-02   8.66123003E-07
  -2.37000007E-02   8.98160863E-07
  -2.36499999E-02   8.72295800E-07
  -2.36000009E-02   8.31841703E-07
  -2.35500000E-02   8.28382042E-07
  -2.34999992E-02   8.98777216E-07
  -2.34500002E-02   1.04822016E-06
  -2.33999994E-02   1.24708879E-06
  -2.33500004E-02   1.44333580E-06
  -2.32999995E-02   1.58522471E-06
  -2.32500006E-02   1.64445635E-06
  -2.31999997E-02   1.62932099E-06
  -2.31500007E-02   1.58174703E-06
  -2.30999999E-02   1.55920316E-06
  -2.30500009E-02   1.60922627E-06
  -2.30000000E-02   1.74783463E-06
  -2.29499992E-02   1.95159214E-06
  -2.29000002E-02   2.16719104E-06
  -2.28499994E-02   2.33464039E-06
  -2.28000004E-02   2.41396515E-06
  -2.27499995E-02   2.40351301E-06
  -2.27000006E-02   2.34148797E-06
  -2.26499997E-02   2.28965723E-06
  -2.26000007E-02   2.30616183E-06
  -2.25499999E-02   2.41938892E-06
  -2.25000009E-02   2.61463606E-06
  -2.24500000E-02   2.83981308E-06
  -2.23999992E-02   3.02802027E-06
  -2.23500002E-02   3.12722432E-06
  -2.22999994E-02   3.12387533E-06
  -2.22500004E-02   3.04975856E-06
  -2.21999995E-02   2.96867415E-06
  -2.21500006E-02   2.94851452E-06
  -2.20999997E-02   3.03096476E-06
  -2.20500007E-02   3.21235825E-06
  -2.19999999E-02   3.44448290E-06
  -2.19500009E-02   3.65536334E-06
  -2.19000001E-02   3.78108894E-06
  -2.18499992E-02   3.79464473E-06
  -2.18000002E-02   3.71876376E-06
  -2.17499994E-02   3.61675711E-06
  -2.17000004E-02   3.56501005E-06
  -2.16499995E-02   3.61912021E-06
  -2.16000006E-02   3.78873256E-06
  -2.15499997E-02   4.03248850E-06
  -2.15000007E-02   4.27571194E-06
  -2.14499999E-02   4.44333136E-06
  -2.14000009E-02   4.49354275E-06
  -2.13500001E-02   4.43718091E-06
  -2.12999992E-02   4.33388050E-06
  -2.12500002E-02   4.26633414E-06
  -2.11999994E-02   4.30380805E-06
  -2.11500004E-02   4.47105413E-06
  -2.10999995E-02   4.73661112E-06
  -2.10500006E-02   5.02605417E-06
  -2.09999997E-02   5.25467158E-06
  -2.09500007E-02   5.36526977E-06
  -2.08999999E-02   5.35428080E-06
  -2.08500009E-02   5.27430939E-06
  -2.08000001E-02   5.21160428E-06
  -2.07499992E-02   5.24814823E-06
  -2.07000002E-02   5.42507678E-06
  -2.06499994E-02   5.72379577E-06
  -2.06000004E-02   6.07351740E-06
  -2.05499995E-02   6.38220672E-06
  -2.05000006E-02   6.57749524E-06
  -2.04499997E-02   6.63939727E-06
  -2.04000007E-02   6.61007289E-06
  -2.03499999E-02   6.57595410E-06
  -2.03000009E-02   6.62982711E-06
  -2.02500001E-02   6.82955670E-06
  -2.01999992E-02   7.17179591E-06
  -2.01500002E-02   7.59267687E-06
  -2.00999994E-02   7.99555619E-06
  -2.00500004E-02   8.29376768E-06
  -1.99999996E-02   8.44949864E-06
  -1.99500006E-02   8.49137632E-06
  -1.98999997E-02   8.50260494E-06
  -1.98500007E-02   8.58459680E-06
  -1.97999999E-02   8.81197775E-06
  -1.97500009E-02   9.19899685E-06
  -1.97000001E-02   9.69243865E-06
  -1.96499992E-02   1.01945398E-05
  -1.96000002E-02   1.06060870E-05
  -1.95499994E-02   1.08706699E-05
  -1.95000004E-02   1.10004084E-05
  -1.94499996E-02   1.10713854E-05
  -1.94000006E-02   1.11904774E-05
  -1.93499997E-02   1.14480763E-05
  -1.93000007E-02   1.18776170E-05
  -1.92499999E-02   1.24400012E-05
  -1.92000009E-02   1.30402059E-05
  -1.91500001E-02   1.35690379E-05
  -1.90999992E-02   1.39516496E-05
  -1.90500002E-02   1.41812889E-05
  -1.89999994E-02   1.43230682E-05
  -1.89500004E-02   1.44857740E-05
  -1.88999996E-02   1.47738965E-05
  -1.88500006E-02   1.52410530E-05
  -1.87999997E-02   1.58656821E-05
  -1.87500007E-02   1.65599668E-05
  -1.86999999E-02   1.72083437E-05
  -1.86500009E-02   1.77187922E-05
  -1.86000001E-02   1.80641564E-05
  -1.85499992E-02   1.82949771E-05
  -1.85000002E-02   1.85177651E-05
  -1.84499994E-02   1.88481918E-05
  -1.84000004E-02   1.93597680E-05
  -1.83499996E-02   2.00508111E-05
  -1.83000006E-02   2.08446127E-05
  -1.82499997E-02   2.16230237E-05
  -1.82000007E-02   2.22788494E-05
  -1.81499999E-02   2.27637993E-05
  -1.81000009E-02   2.31106387E-05
  -1.80500001E-02   2.34195413E-05
  -1.79999992E-02   2.38142329E-05
  -1.79500002E-02   2.43872782E-05
  -1.78999994E-02   2.51588517E-05
  -1.78500004E-02   2.60673605E-05
  -1.77999996E-02   2.69963402E-05
  -1.77500006E-02   2.78261032E-05
  -1.76999997E-02   2.84871694E-05
  -1.76500008E-02   2.89917643E-05
  -1.75999999E-02   2.94293350E-05
  -1.75500009E-02   2.99275925E-05
  -1.75000001E-02   3.05962603E-05
  -1.74499992E-02   3.14783611E-05
  -1.74000002E-02   3.25308138E-05
  -1.73499994E-02   3.36432458E-05
  -1.73000004E-02   3.46868037E-05
  -1.72499996E-02   3.55715529E-05
  -1.72000006E-02   3.62869905E-05
  -1.71499997E-02   3.69075242E-05
  -1.71000008E-02   3.75601994E-05
  -1.70499999E-02   3.83688639E-05
  -1.70000009E-02   3.93993614E-05
  -1.69500001E-02   4.06302097E-05
  -1.68999992E-02   4.19618955E-05
  -1.68500002E-02   4.32608540E-05
  -1.67999994E-02   4.44189682E-05
  -1.67500004E-02   4.54020410E-05
  -1.66999996E-02   4.62657263E-05
  -1.66500006E-02   4.71315434E-05
  -1.65999997E-02   4.81335555E-05
  -1.65500008E-02   4.93591979E-05
  -1.64999999E-02   5.08104968E-05
  -1.64500009E-02   5.24030038E-05
  -1.64000001E-02   5.40029578E-05
  -1.63499992E-02   5.54869002E-05
  -1.63000003E-02   5.67968345E-05
  -1.62499994E-02   5.79664447E-05
  -1.62000004E-02   5.91069620E-05
  -1.61499996E-02   6.03584740E-05
  -1.61000006E-02   6.18280683E-05
  -1.60499997E-02   6.35423712E-05
  -1.60000008E-02   6.54356918E-05
  -1.59499999E-02   6.73790855E-05
  -1.59000009E-02   6.92374742E-05
  -1.58500001E-02   7.09299202E-05
  -1.57999992E-02   7.24661368E-05
  -1.57500003E-02   7.39428433E-05
  -1.56999994E-02   7.55015571E-05
  -1.56500004E-02   7.72662170E-05
  -1.55999996E-02   7.92884093E-05
  -1.55499997E-02   8.15245148E-05
  -1.54999997E-02   8.38547858E-05
  -1.54499998E-02   8.61366279E-05
  -1.53999999E-02   8.82679451E-05
  -1.53500000E-02   9.02328466E-05
  -1.53000001E-02   9.21092360E-05
  -1.52500002E-02   9.40348546E-05
  -1.52000003E-02   9.61467595E-05
  -1.51500003E-02   9.85206498E-05
  -1.51000004E-02   1.01137543E-04
  -1.50499996E-02   1.03892278E-04
  -1.49999997E-02   1.06640138E-04
  -1.49499997E-02   1.09261156E-04
  -1.48999998E-02   1.11713758E-04
  -1.48499999E-02   1.14053692E-04
  -1.48000000E-02   1.16409654E-04
  -1.47500001E-02   1.18926953E-04
  -1.47000002E-02   1.21703517E-04
  -1.46500003E-02   1.24746570E-04
  -1.46000003E-02   1.27969586E-04
  -1.45500004E-02   1.31230903E-04
  -1.44999996E-02   1.34396731E-04
  -1.44499997E-02   1.37400522E-04
  -1.43999998E-02   1.40273027E-04
  -1.43499998E-02   1.43129655E-04
  -1.42999999E-02   1.46119404E-04
  -1.42500000E-02   1.49359403E-04
  -1.42000001E-02   1.52883440E-04
  -1.41500002E-02   1.56627284E-04
  -1.41000003E-02   1.60457406E-04
  -1.40500003E-02   1.64230310E-04
  -1.40000004E-02   1.67856764E-04
  -1.39499996E-02   1.71341744E-04
  -1.38999997E-02   1.74782544E-04
  -1.38499998E-02   1.78326707E-04
  -1.37999998E-02   1.82107135E-04
  -1.37499999E-02   1.86183883E-04
  -1.37000000E-02   1.90517909E-04
  -1.36500001E-02   1.94988286E-04
  -1.36000002E-02   1.99446935E-04
  -1.35500003E-02   2.03784206E-04
  -1.35000004E-02   2.07977602E-04
  -1.34500004E-02   2.12102488E-04
  -1.33999996E-02   2.16299566E-04
  -1.33499997E-02   2.20713016E-04
  -1.32999998E-02   2.25427415E-04
  -1.32499998E-02   2.30431076E-04
  -1.31999999E-02   2.35621425E-04
  -1.31500000E-02   2.40850903E-04
  -1.31000001E-02   2.45992938E-04
  -1.30500002E-02   2.50998477E-04
  -1.30000003E-02   2.55917548E-04
  -1.29500004E-02   2.60878180E-04
  -1.29000004E-02   2.66030576E-04
  -1.28499996E-02   2.71480589E-04
  -1.27999997E-02   2.77244369E-04
  -1.27499998E-02   2.83241592E-04
  -1.26999998E-02   2.89331394E-04
  -1.26499999E-02   2.95375503E-04
  -1.26000000E-02   3.01299180E-04
  -1.25500001E-02   3.07125505E-04
  -1.25000002E-02   3.12965567E-04
  -1.24500003E-02   3.18969658E-04
  -1.24000004E-02   3.25261353E-04
  -1.23500004E-02   3.31883697E-04
  -1.22999996E-02   3.38780897E-04
  -1.22499997E-02   3.45822773E-04
  -1.21999998E-02   3.52862495E-04
  -1.21499998E-02   3.59802623E-04
  -1.20999999E-02   3.66638473E-04
  -1.20500000E-02   3.73459887E-04
  -1.20000001E-02   3.80413258E-04
  -1.19500002E-02   3.87637323E-04
  -1.19000003E-02   3.95202951E-04
  -1.18500004E-02   4.03082609E-04
  -1.18000004E-02   4.11162269E-04
  -1.17499996E-02   4.19292541E-04
  -1.16999997E-02   4.27355262E-04
  -1.16499998E-02   4.35316033E-04
  -1.15999999E-02   4.43239434E-04
  -1.15499999E-02   4.51260275E-04
  -1.15000000E-02   4.59524163E-04
  -1.14500001E-02   4.68123704E-04
  -1.14000002E-02   4.77059133E-04
  -1.13500003E-02   4.86238627E-04
  -1.13000004E-02   4.95517743E-04
  -1.12500004E-02   5.04764146E-04
  -1.11999996E-02   5.13917359E-04
  -1.11499997E-02   5.23015740E-04
  -1.10999998E-02   5.32180187E-04
  -1.10499999E-02   5.41562214E-04
  -1.09999999E-02   5.51278063E-04
  -1.09500000E-02   5.61357592E-04
  -1.09000001E-02   5.71730896E-04
  -1.08500002E-02   5.82259498E-04
  -1.08000003E-02   5.92798053E-04
  -1.07500004E-02   6.03257038E-04
  -1.07000005E-02   6.13642449E-04
  -1.06499996E-02   6.24054461E-04
  -1.05999997E-02   6.34641270E-04
  -1.05499998E-02   6.45536173E-04
  -1.04999999E-02   6.56799588E-04
  -1.04499999E-02   6.68391061E-04
  -1.04000000E-02   6.80189405E-04
  -1.03500001E-02   6.92045782E-04
  -1.03000002E-02   7.03849830E-04
  -1.02500003E-02   7.15578324E-04
  -1.02000004E-02   7.27304898E-04
  -1.01500005E-02   7.39170180E-04
  -1.00999996E-02   7.51319400E-04
  -1.00499997E-02   7.63838761E-04
  -9.99999978E-03   7.76719186E-04
  -9.94999986E-03   7.89859041E-04
  -9.89999995E-03   8.03109840E-04
  -9.85000003E-03   8.16342130E-04
  -9.80000012E-03   8.29500263E-04
  -9.75000020E-03   8.42628768E-04
  -9.70000029E-03   8.55852501E-04
  -9.65000037E-03   8.69321055E-04
  -9.60000046E-03   8.83147877E-04
  -9.54999961E-03   8.97354796E-04
  -9.49999969E-03   9.11861018E-04
  -9.44999978E-03   9.26524983E-04
  -9.39999986E-03   9.41202044E-04
  -9.34999995E-03   9.55807220E-04
  -9.30000003E-03   9.70354129E-04
  -9.25000012E-03   9.84948827E-04
  -9.20000020E-03   9.99744632E-04
  -9.15000029E-03   1.01487420E-03
  -9.10000037E-03   1.03039516E-03
  -9.05000046E-03   1.04626361E-03
  -8.99999961E-03   1.06235128E-03
  -8.94999970E-03   1.07850367E-03
  -8.89999978E-03   1.09460624E-03
  -8.84999987E-03   1.11063616E-03
  -8.79999995E-03   1.12667400E-03
  -8.75000004E-03   1.14286388E-03
  -8.70000012E-03   1.15935085E-03
  -8.65000021E-03   1.17621862E-03
  -8.60000029E-03   1.19345123E-03
  -8.55000038E-03   1.21093786E-03
  -8.50000046E-03   1.22852356E-03
  -8.44999962E-03   1.24607631E-03
  -8.39999970E-03   1.26353826E-03
  -8.34999979E-03   1.28095411E-03
  -8.29999987E-03   1.29845331E-03
  -8.24999996E-03   1.31619140E-03
  -8.20000004E-03   1.33428245E-03
  -8.15000013E-03   1.35274499E-03
  -8.10000021E-03   1.37149647E-03
  -8.05000030E-03   1.39039126E-03
  -8.00000038E-03   1.40927837E-03
  -7.95000046E-03   1.42806687E-03
  -7.89999962E-03   1.44676655E-03
  -7.84999970E-03   1.46548462E-03
  -7.79999979E-03   1.48438103E-03
  -7.74999987E-03   1.50359469E-03
  -7.69999996E-03   1.52318215E-03
  -7.65000004E-03   1.54309045E-03
  -7.60000013E-03   1.56317628E-03
  -7.55000021E-03   1.58326491E-03
  -7.49999983E-03   1.60322618E-03
  -7.44999992E-03   1.62303157E-03
  -7.40000000E-03   1.64276536E-03
  -7.35000009E-03   1.66258286E-03
  -7.30000017E-03   1.68264506E-03
  -7.24999979E-03   1.70304708E-03
  -7.19999988E-03   1.72377203E-03
  -7.14999996E-03   1.74470071E-03
  -7.10000005E-03   1.76565396E-03
  -7.05000013E-03   1.78646925E-03
  -7.00000022E-03   1.80707371E-03
  -6.94999984E-03   1.82751392E-03
  -6.89999992E-03   1.84793654E-03
  -6.85000001E-03   1.86852156E-03
  -6.80000009E-03   1.88940181E-03
  -6.75000018E-03   1.91059872E-03
  -6.69999979E-03   1.93201948E-03
  -6.64999988E-03   1.95348426E-03
  -6.59999996E-03   1.97479408E-03
  -6.55000005E-03   1.99582963E-03
  -6.50000013E-03   2.01660162E-03
  -6.45000022E-03   2.03723949E-03
  -6.39999984E-03   2.05792976E-03
  -6.34999992E-03   2.07883725E-03
  -6.30000001E-03   2.10003019E-03
  -6.25000009E-03   2.12143851E-03
  -6.20000018E-03   2.14288617E-03
  -6.14999980E-03   2.16416083E-03
  -6.09999988E-03   2.18510116E-03
  -6.04999997E-03   2.20566825E-03
  -6.00000005E-03   2.22596247E-03
  -5.95000014E-03   2.24616961E-03
  -5.90000022E-03   2.26648222E-03
  -5.84999984E-03   2.28701974E-03
  -5.79999993E-03   2.30776123E-03
  -5.75000001E-03   2.32854974E-03
  -5.70000010E-03   2.34916038E-03
  -5.65000018E-03   2.36939220E-03
  -5.59999980E-03   2.38914532E-03
  -5.54999989E-03   2.40847562E-03
  -5.49999997E-03   2.42756563E-03
  -5.45000006E-03   2.44663446E-03
  -5.40000014E-03   2.46583810E-03
  -5.35000023E-03   2.48520379E-03
  -5.29999984E-03   2.50461092E-03
  -5.24999993E-03   2.52382411E-03
  -5.20000001E-03   2.54259305E-03
  -5.15000010E-03   2.56076548E-03
  -5.10000018E-03   2.57834862E-03
  -5.04999980E-03   2.59550032E-03
  -4.99999989E-03   2.61245621E-03
  -4.94999997E-03   2.62942724E-03
  -4.90000006E-03   2.64650164E-03
  -4.85000014E-03   2.66358559E-03
  -4.80000023E-03   2.68044230E-03
  -4.74999985E-03   2.69680121E-03
  -4.69999993E-03   2.71246000E-03
  -4.65000002E-03   2.72737234E-03
  -4.60000010E-03   2.74166209E-03
  -4.55000019E-03   2.75556138E-03
  -4.49999981E-03   2.76932144E-03
  -4.44999989E-03   2.78308266E-03
  -4.39999998E-03   2.79679825E-03
  -4.35000006E-03   2.81025260E-03
  -4.30000015E-03   2.82315747E-03
  -4.25000023E-03   2.83525721E-03
  -4.19999985E-03   2.84642796E-03
  -4.14999994E-03   2.85675260E-03
  -4.10000002E-03   2.86646048E-03
  -4.05000011E-03   2.87582329E-03
  -4.00000019E-03   2.88504548E-03
  -3.94999981E-03   2.89415708E-03
  -3.89999989E-03   2.90298136E-03
  -3.84999998E-03   2.91120214E-03
  -3.80000006E-03   2.91849696E-03
  -3.74999992E-03   2.92467466E-03
  -3.70000000E-03   2.92974291E-03
  -3.65000009E-03   2.93391012E-03
  -3.59999994E-03   2.93750572E-03
  -3.55000002E-03   2.94080633E-03
  -3.50000011E-03   2.94391066E-03
  -3.44999996E-03   2.94667599E-03
  -3.40000005E-03   2.94877565E-03
  -3.34999990E-03   2.94984295E-03
  -3.29999998E-03   2.94960337E-03
  -3.25000007E-03   2.94799963E-03
  -3.19999992E-03   2.94520706E-03
  -3.15000000E-03   2.94156186E-03
  -3.10000009E-03   2.93740863E-03
  -3.04999994E-03   2.93293130E-03
  -3.00000003E-03   2.92804278E-03
  -2.95000011E-03   2.92242086E-03
  -2.89999996E-03   2.91566155E-03
  -2.85000005E-03   2.90740887E-03
  -2.79999990E-03   2.89751915E-03
  -2.74999999E-03   2.88612512E-03
  -2.70000007E-03   2.87355669E-03
  -2.64999992E-03   2.86020385E-03
  -2.60000001E-03   2.84634344E-03
  -2.55000009E-03   2.83198524E-03
  -2.49999994E-03   2.81685707E-03
  -2.45000003E-03   2.80050980E-03
  -2.40000011E-03   2.78249313E-03
  -2.34999997E-03   2.76256027E-03
  -2.30000005E-03   2.74077733E-03
  -2.24999990E-03   2.71747960E-03
  -2.19999999E-03   2.69310875E-03
  -2.15000007E-03   2.66802614E-03
  -2.09999993E-03   2.64232792E-03
  -2.05000001E-03   2.61579058E-03
  -2.00000009E-03   2.58795451E-03
  -1.94999995E-03   2.55830912E-03
  -1.90000003E-03   2.52650632E-03
  -1.85000000E-03   2.49250140E-03
  -1.79999997E-03   2.45659403E-03
  -1.75000005E-03   2.41926964E-03
  -1.70000002E-03   2.38098018E-03
  -1.64999999E-03   2.34194123E-03
  -1.59999996E-03   2.30200007E-03
  -1.55000004E-03   2.26068357E-03
  -1.50000001E-03   2.21741572E-03
  -1.44999998E-03   2.17174040E-03
  -1.39999995E-03   2.12350371E-03
  -1.35000004E-03   2.07294454E-03
  -1.30000000E-03   2.02059350E-03
  -1.24999997E-03   1.96699868E-03
  -1.20000006E-03   1.91247393E-03
  -1.15000003E-03   1.85697014E-03
  -1.09999999E-03   1.80005934E-03
  -1.04999996E-03   1.74110476E-03
  -1.00000005E-03   1.67953572E-03
  -9.50000016E-04   1.61508110E-03
  -8.99999985E-04   1.54788571E-03
  -8.50000011E-04   1.47847214E-03
  -7.99999980E-04   1.40749151E-03
  -7.50000007E-04   1.33540004E-03
  -6.99999975E-04   1.26224593E-03
  -6.50000002E-04   1.18764455E-03
  -6.00000028E-04   1.11090159E-03
  -5.49999997E-04   1.03132706E-03
  -5.00000024E-04   9.48534580E-04
  -4.49999992E-04   8.62590794E-04
  -3.99999990E-04   7.73991807E-04
  -3.49999988E-04   6.83446764E-04
  -3.00000014E-04   5.91547170E-04
  -2.50000012E-04   4.98494832E-04
  -1.99999995E-04   4.03979124E-04
  -1.50000007E-04   3.07289942E-04
  -9.99999975E-05   2.07649966E-04
  -4.99999987E-05   1.04524705E-04
   0.00000000      -2.15784416E-06
   4.99999987E-05  -1.11962006E-04
   9.99999975E-05  -2.24131960E-04
   1.50000007E-04  -3.37960606E-04
   1.99999995E-04  -4.53085813E-04
   2.50000012E-04  -5.69675292E-04
   3.00000014E-04  -6.88386965E-04
   3.49999988E-04  -8.10099184E-04
   3.99999990E-04  -9.35551943E-04
   4.49999992E-04  -1.06497423E-03
   5.00000024E-04  -1.19800586E-03
   5.49999997E-04  -1.33387395E-03
   6.00000028E-04  -1.47171540E-03
   6.50000002E-04  -1.61097595E-03
   6.99999975E-04  -1.75168202E-03
   7.50000007E-04  -1.89445680E-03
   7.99999980E-04  -2.04025139E-03
   8.50000011E-04  -2.18993891E-03
   8.99999985E-04  -2.34391890E-03
   9.50000016E-04  -2.50195758E-03
   1.00000005E-03  -2.66330945E-03
   1.04999996E-03  -2.82700523E-03
   1.09999999E-03  -2.99230311E-03
   1.15000003E-03  -3.15906340E-03
   1.20000006E-03  -3.32779810E-03
   1.24999997E-03  -3.49946506E-03
   1.30000000E-03  -3.67508340E-03
   1.35000004E-03  -3.85524635E-03
   1.39999995E-03  -4.03985800E-03
   1.44999998E-03  -4.22823196E-03
   1.50000001E-03  -4.41935612E-03
   1.55000004E-03  -4.61232150E-03
   1.59999996E-03  -4.80678631E-03
   1.64999999E-03  -5.00310585E-03
   1.70000002E-03  -5.20222168E-03
   1.75000005E-03  -5.40526211E-03
   1.79999997E-03  -5.61300851E-03
   1.85000000E-03  -5.82558289E-03
   1.90000003E-03  -6.04237709E-03
   1.94999995E-03  -6.26232848E-03
   2.00000009E-03  -6.48438511E-03
   2.05000001E-03  -6.70796121E-03
   2.09999993E-03  -6.93321601E-03
   2.15000007E-03  -7.16101378E-03
   2.19999999E-03  -7.39252754E-03
   2.24999990E-03  -7.62873655E-03
   2.30000005E-03  -7.87002686E-03
   2.34999997E-03  -8.11596494E-03
   2.40000011E-03  -8.36549513E-03
   2.45000003E-03  -8.61742534E-03
   2.49999994E-03  -8.87093786E-03
   2.55000009E-03  -9.12596472E-03
   2.60000001E-03  -9.38321836E-03
   2.64999992E-03  -9.64390952E-03
   2.70000007E-03  -9.90920234E-03
   2.74999999E-03  -1.01797013E-02
   2.79999990E-03  -1.04551716E-02