  -3.99999991E-02   0.00000000    
  -3.99499983E-02   0.00000000    
  -3.99000011E-02   0.00000000    
  -3.98500003E-02   0.00000000    
  -3.97999994E-02   0.00000000    
  -3.97499986E-02  -2.75396517E-21
  -3.97000015E-02  -2.11545933E-20
  -3.96500006E-02  -8.45128752E-20
  -3.95999998E-02  -2.35831984E-19
  -3.95499989E-02  -5.25019393E-19
  -3.95000018E-02  -1.01323276E-18
  -3.94500010E-02  -1.78487626E-18
  -3.94000001E-02  -2.93038948E-18
  -3.93499993E-02  -4.47101378E-18
  -3.92999984E-02  -6.26806408E-18
  -3.92500013E-02  -8.02177838E-18
  -3.92000005E-02  -9.41815686E-18
  -3.91499996E-02  -1.03368725E-17
  -3.90999988E-02  -1.09396613E-17
  -3.90500017E-02  -1.15435660E-17
  -3.90000008E-02  -1.23762714E-17
  -3.89500000E-02  -1.33979759E-17
  -3.88999991E-02  -1.42584249E-17
  -3.88499983E-02  -1.42987152E-17
  -3.88000011E-02  -1.25311940E-17
  -3.87500003E-02  -7.71236072E-18
  -3.86999995E-02   1.32485662E-18
  -3.86499986E-02   1.51722593E-17
  -3.86000015E-02   3.36088049E-17
  -3.85500006E-02   5.60143814E-17
  -3.84999998E-02   8.23096590E-17
  -3.84499989E-02   1.13767616E-16
  -3.84000018E-02   1.53072194E-16
  -3.83500010E-02   2.03597921E-16
  -3.83000001E-02   2.68441496E-16
  -3.82499993E-02   3.49710125E-16
  -3.81999984E-02   4.48127545E-16
  -3.81500013E-02   5.62799236E-16
  -3.81000005E-02   6.91262212E-16
  -3.80499996E-02   8.30230513E-16
  -3.79999988E-02   9.77104703E-16
  -3.79500017E-02   1.13146936E-15
  -3.79000008E-02   1.29541513E-15
  -3.78500000E-02   1.47224099E-15
  -3.77999991E-02   1.66438311E-15
  -3.77499983E-02   1.87201926E-15
  -3.77000012E-02   2.09305589E-15
  -3.76500003E-02   2.32396703E-15
  -3.75999995E-02   2.56049314E-15
  -3.75499986E-02   2.79789890E-15
  -3.75000015E-02   3.03126220E-15
  -3.74500006E-02   3.25608698E-15
  -3.73999998E-02   3.46865328E-15
  -3.73499990E-02   3.66520770E-15
  -3.73000018E-02   3.84005732E-15
  -3.72500010E-02   3.98385260E-15
  -3.72000001E-02   4.08336839E-15
  -3.71499993E-02   4.12273382E-15
  -3.70999984E-02   4.08484942E-15
  -3.70500013E-02   3.95211851E-15
  -3.70000005E-02   3.70721037E-15
  -3.69499996E-02   3.33527778E-15
  -3.68999988E-02   2.82771912E-15
  -3.68500017E-02   2.18529101E-15
  -3.68000008E-02   1.41770678E-15
  -3.67500000E-02   5.38718725E-16
  -3.66999991E-02  -4.41422856E-16
  -3.66499983E-02  -1.52279160E-15
  -3.66000012E-02  -2.71924872E-15
  -3.65500003E-02  -4.05743478E-15
  -3.64999995E-02  -5.57112374E-15
  -3.64499986E-02  -7.29156539E-15
  -3.64000015E-02  -9.23627087E-15
  -3.63500006E-02  -1.14011939E-14
  -3.62999998E-02  -1.37617951E-14
  -3.62499990E-02  -1.62846404E-14
  -3.62000018E-02  -1.89443459E-14
  -3.61500010E-02  -2.17357091E-14
  -3.61000001E-02  -2.46720318E-14
  -3.60499993E-02  -2.77679660E-14
  -3.59999985E-02  -3.10141690E-14
  -3.59500013E-02  -3.43561917E-14
  -3.59000005E-02  -3.76895306E-14
  -3.58499996E-02  -4.08769325E-14
  -3.57999988E-02  -4.37856369E-14
  -3.57500017E-02  -4.63323668E-14
  -3.57000008E-02  -4.85164887E-14
  -3.56500000E-02  -5.04212896E-14
  -3.55999991E-02  -5.21738516E-14
  -3.55499983E-02  -5.38738941E-14
  -3.55000012E-02  -5.55212648E-14
  -3.54500003E-02  -5.69783004E-14
  -3.53999995E-02  -5.79910401E-14
  -3.53499986E-02  -5.82665901E-14
  -3.53000015E-02  -5.75762853E-14
  -3.52500007E-02  -5.58392206E-14
  -3.51999998E-02  -5.31451138E-14
  -3.51499990E-02  -4.96987637E-14
  -3.51000018E-02  -4.57020116E-14
  -3.50500010E-02  -4.12215394E-14
  -3.50000001E-02  -3.61058229E-14
  -3.49499993E-02  -3.00016359E-14
  -3.48999985E-02  -2.24783249E-14
  -3.48500013E-02  -1.32138351E-14
  -3.48000005E-02  -2.15738847E-15
  -3.47499996E-02   1.04158439E-14
  -3.46999988E-02   2.39984729E-14
  -3.46500017E-02   3.80638717E-14
  -3.46000008E-02   5.23078522E-14
  -3.45500000E-02   6.68048787E-14
  -3.44999991E-02   8.19934805E-14
  -3.44499983E-02   9.84767958E-14
  -3.44000012E-02   1.16711098E-13
  -3.43500003E-02   1.36719615E-13
  -3.42999995E-02   1.57975873E-13
  -3.42499986E-02   1.79537551E-13
  -3.42000015E-02   2.00397994E-13
  -3.41500007E-02   2.19908442E-13
  -3.40999998E-02   2.38069709E-13
  -3.40499990E-02   2.55532683E-13
  -3.40000018E-02   2.73273076E-13
  -3.39500010E-02   2.92061622E-13
  -3.39000002E-02   3.11963048E-13
  -3.38499993E-02   3.32106413E-13
  -3.37999985E-02   3.50867366E-13
  -3.37500013E-02   3.66421764E-13
  -3.37000005E-02   3.77450214E-13
  -3.36499996E-02   3.83676435E-13
  -3.35999988E-02   3.85964698E-13
  -3.35500017E-02   3.85884304E-13
  -3.35000008E-02   3.84897870E-13
  -3.34500000E-02   3.83529742E-13
  -3.33999991E-02   3.80915514E-13
  -3.33499983E-02   3.74986175E-13
  -3.33000012E-02   3.63255839E-13
  -3.32500003E-02   3.43889088E-13
  -3.31999995E-02   3.16562179E-13
  -3.31499986E-02   2.82689752E-13
  -3.31000015E-02   2.44851773E-13
  -3.30500007E-02   2.05619769E-13
  -3.29999998E-02   1.66287272E-13
  -3.29499990E-02   1.26102321E-13
  -3.29000019E-02   8.24183725E-14
  -3.28500010E-02   3.17760480E-14
  -3.28000002E-02  -2.85188777E-14
  -3.27499993E-02  -9.90341571E-14
  -3.26999985E-02  -1.77735525E-13
  -3.26500013E-02  -2.60692076E-13
  -3.26000005E-02  -3.43714749E-13
  -3.25499997E-02  -4.24215730E-13
  -3.24999988E-02  -5.02416359E-13
  -3.24500017E-02  -5.81273799E-13
  -3.24000008E-02  -6.65056823E-13
  -3.23500000E-02  -7.57135294E-13
  -3.22999991E-02  -8.57973902E-13
  -3.22499983E-02  -9.64308711E-13
  -3.22000012E-02  -1.07000487E-12
  -3.21500003E-02  -1.16833344E-12
  -3.20999995E-02  -1.25470240E-12
  -3.20499986E-02  -1.32858514E-12
  -3.20000015E-02  -1.39367196E-12
  -3.19500007E-02  -1.45604817E-12
  -3.18999998E-02  -1.52111526E-12
  -3.18499990E-02  -1.59061794E-12
  -3.18000019E-02  -1.66117662E-12
  -3.17500010E-02  -1.72511614E-12
  -3.17000002E-02  -1.77336141E-12
  -3.16499993E-02  -1.79918179E-12
  -3.15999985E-02  -1.80108619E-12
  -3.15500014E-02  -1.78344839E-12
  -3.15000005E-02  -1.75442571E-12
  -3.14499997E-02  -1.72197716E-12
  -3.13999988E-02  -1.68975250E-12
  -3.13500017E-02  -1.65478915E-12
  -3.13000008E-02  -1.60822430E-12
  -3.12500000E-02  -1.53887168E-12
  -3.11999992E-02  -1.43815678E-12
  -3.11500002E-02  -1.30417617E-12
  -3.10999993E-02  -1.14292202E-12
  -3.10500003E-02  -9.65927750E-13
  -3.09999995E-02  -7.85217919E-13
  -3.09500005E-02  -6.07767417E-13
  -3.08999997E-02  -4.32040227E-13
  -3.08500007E-02  -2.48363179E-13
  -3.07999998E-02  -4.31882516E-14
  -3.07500008E-02   1.94533869E-13
  -3.07000000E-02   4.67741189E-13
  -3.06499992E-02   7.69087647E-13
  -3.06000002E-02   1.08341385E-12
  -3.05499993E-02   1.39395299E-12
  -3.05000003E-02   1.68956646E-12
  -3.04499995E-02   1.96968158E-12
  -3.04000005E-02   2.24449387E-12
  -3.03499997E-02   2.53007901E-12
  -3.03000007E-02   2.84040933E-12
  -3.02499998E-02   3.17982251E-12
  -3.02000009E-02   3.53948056E-12
  -3.01500000E-02   3.89968309E-12
  -3.00999992E-02   4.23727589E-12
  -3.00500002E-02   4.53496875E-12
  -2.99999993E-02   4.78833639E-12
  -2.99500003E-02   5.00716829E-12
  -2.98999995E-02   5.21028880E-12
  -2.98500005E-02   5.41598537E-12
  -2.97999997E-02   5.63228327E-12
  -2.97500007E-02   5.85158614E-12
  -2.96999998E-02   6.05235176E-12
  -2.96500009E-02   6.20734974E-12
  -2.96000000E-02   6.29498146E-12
  -2.95499992E-02   6.30854527E-12
  -2.95000002E-02   6.25907659E-12
  -2.94499993E-02   6.17015727E-12
  -2.94000003E-02   6.06677555E-12
  -2.93499995E-02   5.96313623E-12
  -2.93000005E-02   5.85503434E-12
  -2.92499997E-02   5.72049396E-12
  -2.92000007E-02   5.52869989E-12
  -2.91499998E-02   5.25341099E-12
  -2.91000009E-02   4.88485424E-12
  -2.90500000E-02   4.43456209E-12
  -2.89999992E-02   3.93067566E-12
  -2.89500002E-02   3.40551177E-12
  -2.88999993E-02   2.88084595E-12
  -2.88500004E-02   2.35762950E-12
  -2.87999995E-02   1.81506557E-12
  -2.87500005E-02   1.21984410E-12
  -2.86999997E-02   5.41658894E-13
  -2.86500007E-02  -2.31901114E-13
  -2.85999998E-02  -1.08795568E-12
  -2.85500009E-02  -1.99208879E-12
  -2.85000000E-02  -2.90192024E-12
  -2.84499992E-02  -3.78463233E-12
  -2.84000002E-02  -4.63058845E-12
  -2.83499993E-02  -5.45670974E-12
  -2.83000004E-02  -6.29775182E-12
  -2.82499995E-02  -7.18904493E-12
  -2.82000005E-02  -8.14832576E-12
  -2.81499997E-02  -9.16487372E-12
  -2.81000007E-02  -1.02011498E-11
  -2.80499998E-02  -1.12065340E-11
  -2.80000009E-02  -1.21372495E-11
  -2.79500000E-02  -1.29735831E-11
  -2.78999992E-02  -1.37264991E-11
  -2.78500002E-02  -1.44304109E-11
  -2.77999993E-02  -1.51250470E-11
  -2.77500004E-02  -1.58343963E-11
  -2.76999995E-02  -1.65522231E-11
  -2.76500005E-02  -1.72409031E-11
  -2.75999997E-02  -1.78445175E-11
  -2.75500007E-02  -1.83106395E-11
  -2.74999999E-02  -1.86112150E-11
  -2.74500009E-02  -1.87530703E-11
  -2.74000000E-02  -1.87730387E-11
  -2.73499992E-02  -1.87196057E-11
  -2.73000002E-02  -1.86290375E-11
  -2.72499993E-02  -1.85067135E-11
  -2.72000004E-02  -1.83221546E-11
  -2.71499995E-02  -1.80203404E-11
  -2.71000005E-02  -1.75445648E-11
  -2.70499997E-02  -1.68608252E-11
  -2.70000007E-02  -1.59728081E-11
  -2.69499999E-02  -1.49205440E-11
  -2.69000009E-02  -1.37629474E-11
  -2.68500000E-02  -1.25517435E-11
  -2.67999992E-02  -1.13082807E-11
  -2.67500002E-02  -1.00137607E-11
  -2.66999993E-02  -8.61754765E-12
  -2.66500004E-02  -7.06027337E-12
  -2.65999995E-02  -5.30172217E-12
  -2.65500005E-02  -3.34116675E-12
  -2.64999997E-02  -1.22097222E-12
  -2.64500007E-02   9.88488154E-13
  -2.63999999E-02   3.21628162E-12
  -2.63500009E-02   5.41880473E-12
  -2.63000000E-02   7.59576430E-12
  -2.62499992E-02   9.78697071E-12
  -2.62000002E-02   1.20509549E-11
  -2.61499994E-02   1.44345681E-11
  -2.61000004E-02   1.69468987E-11
  -2.60499995E-02   1.95491297E-11
  -2.60000005E-02   2.21651725E-11
  -2.59499997E-02   2.47087576E-11
  -2.59000007E-02   2.71153395E-11
  -2.58499999E-02   2.93648370E-11
  -2.58000009E-02   3.14850125E-11
  -2.57500000E-02   3.35336793E-11
  -2.56999992E-02   3.55671777E-11
  -2.56500002E-02   3.76087841E-11
  -2.55999994E-02   3.96309652E-11
  -2.55500004E-02   4.15596620E-11
  -2.54999995E-02   4.32992218E-11
  -2.54500005E-02   4.47674293E-11
  -2.53999997E-02   4.59255724E-11
  -2.53500007E-02   4.67900510E-11
  -2.52999999E-02   4.74201754E-11
  -2.52500009E-02   4.78869687E-11
  -2.52000000E-02   4.82364253E-11
  -2.51499992E-02   4.84633514E-11
  -2.51000002E-02   4.85075591E-11
  -2.50499994E-02   4.82747939E-11
  -2.50000004E-02   4.76738753E-11
  -2.49499995E-02   4.66542326E-11
  -2.49000005E-02   4.52273462E-11
  -2.48499997E-02   4.34621332E-11
  -2.48000007E-02   4.14555681E-11
  -2.47499999E-02   3.92906853E-11
  -2.47000009E-02   3.70000731E-11
  -2.46500000E-02   3.45511085E-11
  -2.45999992E-02   3.18600181E-11
  -2.45500002E-02   2.88294440E-11
  -2.44999994E-02   2.53936767E-11
  -2.44500004E-02   2.15519234E-11
  -2.43999995E-02   1.73746087E-11
  -2.43500005E-02   1.29790883E-11
  -2.42999997E-02   8.48453599E-12
  -2.42500007E-02   3.96516587E-12
  -2.41999999E-02  -5.77565339E-13
  -2.41500009E-02  -5.21078927E-12
  -2.41000000E-02  -1.00348896E-11
  -2.40499992E-02  -1.51315106E-11
  -2.40000002E-02  -2.05175061E-11
  -2.39499994E-02  -2.61254247E-11
  -2.39000004E-02  -3.18201611E-11
  -2.38499995E-02  -3.74455779E-11
  -2.38000005E-02  -4.28815733E-11
  -2.37499997E-02  -4.80867013E-11
  -2.37000007E-02  -5.31069147E-11
  -2.36499999E-02  -5.80454816E-11
  -2.36000009E-02  -6.30060587E-11
  -2.35500000E-02  -6.80333498E-11
  -2.34999992E-02  -7.30781061E-11
  -2.34500002E-02  -7.80028403E-11
  -2.33999994E-02  -8.26273910E-11
  -2.33500004E-02  -8.67954597E-11
  -2.32999995E-02  -9.04329112E-11
  -2.32500006E-02  -9.35716296E-11
  -2.31999997E-02  -9.63268701E-11
  -2.31500007E-02  -9.88366888E-11
  -2.30999999E-02  -1.01189196E-10
  -2.30500009E-02  -1.03369979E-10
  -2.30000000E-02  -1.05254326E-10
  -2.29499992E-02  -1.06649439E-10
  -2.29000002E-02  -1.07369710E-10
  -2.28499994E-02  -1.07312680E-10
  -2.28000004E-02  -1.06501287E-10
  -2.27499995E-02  -1.05072208E-10
  -2.27000006E-02  -1.03213646E-10
  -2.26499997E-02  -1.01078694E-10
  -2.26000007E-02  -9.87126908E-11
  -2.25499999E-02  -9.60278038E-11
  -2.25000009E-02  -9.28379318E-11
  -2.24500000E-02  -8.89406049E-11
  -2.23999992E-02  -8.42103956E-11
  -2.23500002E-02  -7.86620907E-11
  -2.22999994E-02  -7.24540913E-11
  -2.22500004E-02  -6.58281762E-11
  -2.21999995E-02  -5.90107407E-11
  -2.21500006E-02  -5.21188474E-11
  -2.20999997E-02  -4.51137912E-11
  -2.20500007E-02  -3.78248440E-11
  -2.19999999E-02  -3.00346345E-11
  -2.19500009E-02  -2.15893137E-11
  -2.19000001E-02  -1.24843816E-11
  -2.18499992E-02  -2.88637994E-12
  -2.18000002E-02   6.92146254E-12
  -2.17499994E-02   1.66472582E-11
  -2.17000004E-02   2.61049741E-11
  -2.16499995E-02   3.52834185E-11
  -2.16000006E-02   4.43370930E-11
  -2.15499997E-02   5.35005824E-11
  -2.15000007E-02   6.29631694E-11
  -2.14499999E-02   7.27600272E-11
  -2.14000009E-02   8.27299965E-11
  -2.13500001E-02   9.25615834E-11
  -2.12999992E-02   1.01908905E-10
  -2.12500002E-02   1.10526921E-10
  -2.11999994E-02   1.18365054E-10
  -2.11500004E-02   1.25575494E-10
  -2.10999995E-02   1.32429900E-10
  -2.10500006E-02   1.39180015E-10
  -2.09999997E-02   1.45924176E-10
  -2.09500007E-02   1.52540799E-10
  -2.08999999E-02   1.58721106E-10
  -2.08500009E-02   1.64089006E-10
  -2.08000001E-02   1.68356121E-10
  -2.07499992E-02   1.71441972E-10
  -2.07000002E-02   1.73503753E-10
  -2.06499994E-02   1.74860154E-10
  -2.06000004E-02   1.75840967E-10
  -2.05499995E-02   1.76629752E-10
  -2.05000006E-02   1.77171083E-10
  -2.04499997E-02   1.77186266E-10
  -2.04000007E-02   1.76293063E-10
  -2.03499999E-02   1.74177756E-10
  -2.03000009E-02   1.70742170E-10
  -2.02500001E-02   1.66158184E-10
  -2.01999992E-02   1.60802829E-10
  -2.01500002E-02   1.55100710E-10
  -2.00999994E-02   1.49343593E-10
  -2.00500004E-02   1.43568865E-10
  -1.99999996E-02   1.37553247E-10
  -1.99500006E-02   1.30926797E-10
  -1.98999997E-02   1.23357269E-10
  -1.98500007E-02   1.14722037E-10
  -1.97999999E-02   1.05188767E-10
  -1.97500009E-02   9.51660556E-11
  -1.97000001E-02   8.51440654E-11
  -1.96499992E-02   7.54956583E-11
  -1.96000002E-02   6.63280958E-11
  -1.95499994E-02   5.74539999E-11
  -1.95000004E-02   4.84970501E-11
  -1.94499996E-02   3.90866159E-11
  -1.94000006E-02   2.90539693E-11
  -1.93499997E-02   1.85402735E-11
  -1.93000007E-02   7.96544081E-12
  -1.92499999E-02  -2.13049847E-12
  -1.92000009E-02  -1.13035649E-11
  -1.91500001E-02  -1.93822874E-11
  -1.90999992E-02  -2.65233859E-11
  -1.90500002E-02  -3.31197118E-11
  -1.89999994E-02  -3.96001149E-11
  -1.89500004E-02  -4.62111356E-11
  -1.88999996E-02  -5.28798116E-11
  -1.88500006E-02  -5.92216623E-11
  -1.87999997E-02  -6.46927442E-11
  -1.87500007E-02  -6.88187632E-11
  -1.86999999E-02  -7.13980403E-11
  -1.86500009E-02  -7.25860413E-11
  -1.86000001E-02  -7.28212143E-11
  -1.85499992E-02  -7.26242053E-11
  -1.85000002E-02  -7.23602706E-11
  -1.84499994E-02  -7.20725701E-11
  -1.84000004E-02  -7.14629883E-11
  -1.83499996E-02  -7.00310157E-11
  -1.83000006E-02  -6.73094358E-11
  -1.82499997E-02  -6.30908728E-11
  -1.82000007E-02  -5.75420094E-11
  -1.81499999E-02  -5.11522665E-11
  -1.81000009E-02  -4.45392612E-11
  -1.80500001E-02  -3.81976534E-11
  -1.79999992E-02  -3.23057657E-11
  -1.79500002E-02  -2.66781562E-11
  -1.78999994E-02  -2.08878834E-11
  -1.78500004E-02  -1.45038747E-11
  -1.77999996E-02  -7.33641186E-12
  -1.77500006E-02   4.21234743E-13
  -1.76999997E-02   8.21981719E-12
  -1.76500008E-02   1.53396584E-11
  -1.75999999E-02   2.11521963E-11
  -1.75500009E-02   2.53391336E-11
  -1.75000001E-02   2.79702910E-11
  -1.74499992E-02   2.94022862E-11
  -1.74000002E-02   3.00444045E-11
  -1.73499994E-02   3.00957731E-11
  -1.73000004E-02   2.93752835E-11
  -1.72499996E-02   2.73206024E-11
  -1.72000006E-02   2.31592436E-11
  -1.71499997E-02   1.61749034E-11
  -1.71000008E-02   5.94914656E-12
  -1.70499999E-02  -7.53141473E-12
  -1.70000009E-02  -2.39511865E-11
  -1.69500001E-02  -4.28928316E-11
  -1.68999992E-02  -6.41129302E-11
  -1.68500002E-02  -8.77415085E-11
  -1.67999994E-02  -1.14312768E-10
  -1.67500004E-02  -1.44613405E-10
  -1.66999996E-02  -1.79415441E-10
  -1.66500006E-02  -2.19213384E-10
  -1.65999997E-02  -2.64083894E-10
  -1.65500008E-02  -3.13731707E-10
  -1.64999999E-02  -3.67702119E-10
  -1.64500009E-02  -4.25664254E-10
  -1.64000001E-02  -4.87635432E-10
  -1.63499992E-02  -5.54047808E-10
  -1.63000003E-02  -6.25622110E-10
  -1.62499994E-02  -7.03108627E-10
  -1.62000004E-02  -7.87011012E-10
  -1.61499996E-02  -8.77418249E-10
  -1.61000006E-02  -9.74020864E-10
  -1.60499997E-02  -1.07630527E-09
  -1.60000008E-02  -1.18383614E-09
  -1.59499999E-02  -1.29650479E-09
  -1.59000009E-02  -1.41462553E-09
  -1.58500001E-02  -1.53883783E-09
  -1.57999992E-02  -1.66985559E-09
  -1.57500003E-02  -1.80817827E-09
  -1.56999994E-02  -1.95389283E-09
  -1.56500004E-02  -2.10666018E-09
  -1.55999996E-02  -2.26589170E-09
  -1.55499997E-02  -2.43103160E-09
  -1.54999997E-02  -2.60182098E-09
  -1.54499998E-02  -2.77843082E-09
  -1.53999999E-02  -2.96139868E-09
  -1.53500000E-02  -3.15139248E-09
  -1.53000001E-02  -3.34891537E-09
  -1.52500002E-02  -3.55407903E-09
  -1.52000003E-02  -3.76655551E-09
  -1.51500003E-02  -3.98572819E-09
  -1.51000004E-02  -4.21097202E-09
  -1.50499996E-02  -4.44193748E-09
  -1.49999997E-02  -4.67871342E-09
  -1.49499997E-02  -4.92179542E-09
  -1.48999998E-02  -5.17186605E-09
  -1.48499999E-02  -5.42950218E-09
  -1.48000000E-02  -5.69491787E-09
  -1.47500001E-02  -5.96787819E-09
  -1.47000002E-02  -6.24781205E-09
  -1.46500003E-02  -6.53408794E-09
  -1.46000003E-02  -6.82630752E-09
  -1.45500004E-02  -7.12451564E-09
  -1.44999996E-02  -7.42919104E-09
  -1.44499997E-02  -7.74106113E-09
  -1.43999998E-02  -8.06079470E-09
  -1.43499998E-02  -8.38873682E-09
  -1.42999999E-02  -8.72478711E-09
  -1.42500000E-02  -9.06848463E-09
  -1.42000001E-02  -9.41925915E-09
  -1.41500002E-02  -9.77673853E-09
  -1.41000003E-02  -1.01409885E-08
  -1.40500003E-02  -1.05125366E-08
  -1.40000004E-02  -1.08922169E-08
  -1.39499996E-02  -1.12808660E-08
  -1.38999997E-02  -1.16790302E-08
  -1.38499998E-02  -1.20868151E-08
  -1.37999998E-02  -1.25039250E-08
  -1.37499999E-02  -1.29299078E-08
  -1.37000000E-02  -1.33644669E-08
  -1.36500001E-02  -1.38077194E-08
  -1.36000002E-02  -1.42602889E-08
  -1.35500003E-02  -1.47231400E-08
  -1.35000004E-02  -1.51972834E-08
  -1.34500004E-02  -1.56834723E-08
  -1.33999996E-02  -1.61820246E-08
  -1.33499997E-02  -1.66928142E-08
  -1.32999998E-02  -1.72155037E-08
  -1.32499998E-02  -1.77498638E-08
  -1.31999999E-02  -1.82960580E-08
  -1.31500000E-02  -1.88547880E-08
  -1.31000001E-02  -1.94271639E-08
  -1.30500002E-02  -2.00144044E-08
  -1.30000003E-02  -2.06175113E-08
  -1.29500004E-02  -2.12370281E-08
  -1.29000004E-02  -2.18730278E-08
  -1.28499996E-02  -2.25252990E-08
  -1.27999997E-02  -2.31936870E-08
  -1.27499998E-02  -2.38783731E-08
  -1.26999998E-02  -2.45800447E-08
  -1.26499999E-02  -2.52998493E-08
  -1.26000000E-02  -2.60391246E-08
  -1.25500001E-02  -2.67990323E-08
  -1.25000002E-02  -2.75803043E-08
  -1.24500003E-02  -2.83831501E-08
  -1.24000004E-02  -2.92074684E-08
  -1.23500004E-02  -3.00531511E-08
  -1.22999996E-02  -3.09204182E-08
  -1.22499997E-02  -3.18100142E-08
  -1.21999998E-02  -3.27231362E-08
  -1.21499998E-02  -3.36611734E-08
  -1.20999999E-02  -3.46253692E-08
  -1.20500000E-02  -3.56165373E-08
  -1.20000001E-02  -3.66349617E-08
  -1.19500002E-02  -3.76804969E-08
  -1.19000003E-02  -3.87529653E-08
  -1.18500004E-02  -3.98525266E-08
  -1.18000004E-02  -4.09799377E-08
  -1.17499996E-02  -4.21365378E-08
  -1.16999997E-02  -4.33239684E-08
  -1.16499998E-02  -4.45438140E-08
  -1.15999999E-02  -4.57972327E-08
  -1.15499999E-02  -4.70847930E-08
  -1.15000000E-02  -4.84066192E-08
  -1.14500001E-02  -4.97626260E-08
  -1.14000002E-02  -5.11528953E-08
  -1.13500003E-02  -5.25780273E-08
  -1.13000004E-02  -5.40391127E-08
  -1.12500004E-02  -5.55376438E-08
  -1.11999996E-02  -5.70750558E-08
  -1.11499997E-02  -5.86524109E-08
  -1.10999998E-02  -6.02702457E-08
  -1.10499999E-02  -6.19287306E-08
  -1.09999999E-02  -6.36279722E-08
  -1.09500000E-02  -6.53684253E-08
  -1.09000001E-02  -6.71511415E-08
  -1.08500002E-02  -6.89778759E-08
  -1.08000003E-02  -7.08508381E-08
  -1.07500004E-02  -7.27723020E-08
  -1.07000005E-02  -7.47441433E-08
  -1.06499996E-02  -7.67675061E-08
  -1.05999997E-02  -7.88428380E-08
  -1.05499998E-02  -8.09702598E-08
  -1.04999999E-02  -8.31501055E-08
  -1.04499999E-02  -8.53831708E-08
  -1.04000000E-02  -8.76708981E-08
  -1.03500001E-02  -9.00151846E-08
  -1.03000002E-02  -9.24180981E-08
  -1.02500003E-02  -9.48815639E-08
  -1.02000004E-02  -9.74070034E-08
  -1.01500005E-02  -9.99953116E-08
  -1.00999996E-02  -1.02647149E-07
  -1.00499997E-02  -1.05363483E-07
  -9.99999978E-03  -1.08145883E-07
  -9.94999986E-03  -1.10996787E-07
  -9.89999995E-03  -1.13919214E-07
  -9.85000003E-03  -1.16916262E-07
  -9.80000012E-03  -1.19990787E-07
  -9.75000020E-03  -1.23145128E-07
  -9.70000029E-03  -1.26380982E-07
  -9.65000037E-03  -1.29699615E-07
  -9.60000046E-03  -1.33102432E-07
  -9.54999961E-03  -1.36591311E-07
  -9.49999969E-03  -1.40168879E-07
  -9.44999978E-03  -1.43838449E-07
  -9.39999986E-03  -1.47603544E-07
  -9.34999995E-03  -1.51467276E-07
  -9.30000003E-03  -1.55432161E-07
  -9.25000012E-03  -1.59499990E-07
  -9.20000020E-03  -1.63672141E-07
  -9.15000029E-03  -1.67950105E-07
  -9.10000037E-03  -1.72335888E-07
  -9.05000046E-03  -1.76832387E-07
  -8.99999961E-03  -1.81443212E-07
  -8.94999970E-03  -1.86172457E-07
  -8.89999978E-03  -1.91024156E-07
  -8.84999987E-03  -1.96001906E-07
  -8.79999995E-03  -2.01108605E-07
  -8.75000004E-03  -2.06346783E-07
  -8.70000012E-03  -2.11718927E-07
  -8.65000021E-03  -2.17228035E-07
  -8.60000029E-03  -2.22878000E-07
  -8.55000038E-03  -2.28673429E-07
  -8.50000046E-03  -2.34619364E-07
  -8.44999962E-03  -2.40720425E-07
  -8.39999970E-03  -2.46980591E-07
  -8.34999979E-03  -2.53403215E-07
  -8.29999987E-03  -2.59990998E-07
  -8.24999996E-03  -2.66746554E-07
  -8.20000004E-03  -2.73672725E-07
  -8.15000013E-03  -2.80773151E-07
  -8.10000021E-03  -2.88052235E-07
  -8.05000030E-03  -2.95514837E-07
  -8.00000038E-03  -3.03165876E-07
  -7.95000046E-03  -3.11009558E-07
  -7.89999962E-03  -3.19049178E-07
  -7.84999970E-03  -3.27287637E-07
  -7.79999979E-03  -3.35728004E-07
  -7.74999987E-03  -3.44373518E-07
  -7.69999996E-03  -3.53228359E-07
  -7.65000004E-03  -3.62297584E-07
  -7.60000013E-03  -3.71586992E-07
  -7.55000021E-03  -3.81102467E-07
  -7.49999983E-03  -3.90849323E-07
  -7.44999992E-03  -4.00832022E-07
  -7.40000000E-03  -4.11054174E-07
  -7.35000009E-03  -4.21519331E-07
  -7.30000017E-03  -4.32231587E-07
  -7.24999979E-03  -4.43195603E-07
  -7.19999988E-03  -4.54416750E-07
  -7.14999996E-03  -4.65900797E-07
  -7.10000005E-03  -4.77653600E-07
  -7.05000013E-03  -4.89680588E-07
  -7.00000022E-03  -5.01986392E-07
  -6.94999984E-03  -5.14574765E-07
  -6.89999992E-03  -5.27449174E-07
  -6.85000001E-03  -5.40613087E-07
  -6.80000009E-03  -5.54071335E-07
  -6.75000018E-03  -5.67829545E-07
  -6.69999979E-03  -5.81893858E-07
  -6.64999988E-03  -5.96270468E-07
  -6.59999996E-03  -6.10965230E-07
  -6.55000005E-03  -6.25983262E-07
  -6.50000013E-03  -6.41329166E-07
  -6.45000022E-03  -6.57007320E-07
  -6.39999984E-03  -6.73022214E-07
  -6.34999992E-03  -6.89379590E-07
  -6.30000001E-03  -7.06086041E-07
  -6.25000009E-03  -7.23148673E-07
  -6.20000018E-03  -7.40574762E-07
  -6.14999980E-03  -7.58371471E-07
  -6.09999988E-03  -7.76544994E-07
  -6.04999997E-03  -7.95100391E-07
  -6.00000005E-03  -8.14043062E-07
  -5.95000014E-03  -8.33378124E-07
  -5.90000022E-03  -8.53111658E-07
  -5.84999984E-03  -8.73250485E-07
  -5.79999993E-03  -8.93802167E-07
  -5.75000001E-03  -9.14774489E-07
  -5.70000010E-03  -9.36174672E-07
  -5.65000018E-03  -9.58009196E-07
  -5.59999980E-03  -9.80283858E-07
  -5.54999989E-03  -1.00300383E-06
  -5.49999997E-03  -1.02617537E-06
  -5.45000006E-03  -1.04980518E-06
  -5.40000014E-03  -1.07390076E-06
  -5.35000023E-03  -1.09847053E-06
  -5.29999984E-03  -1.12352370E-06
  -5.24999993E-03  -1.14906913E-06
  -5.20000001E-03  -1.17511502E-06
  -5.15000010E-03  -1.20166919E-06
  -5.10000018E-03  -1.22873882E-06
  -5.04999980E-03  -1.25633153E-06
  -4.99999989E-03  -1.28445572E-06
  -4.94999997E-03  -1.31312049E-06
  -4.90000006E-03  -1.34233642E-06
  -4.85000014E-03  -1.37211373E-06
  -4.80000023E-03  -1.40246186E-06
  -4.74999985E-03  -1.43338889E-06
  -4.69999993E-03  -1.46490311E-06
  -4.65000002E-03  -1.49701305E-06
  -4.60000010E-03  -1.52972643E-06
  -4.55000019E-03  -1.56305168E-06
  -4.49999981E-03  -1.59699800E-06
  -4.44999989E-03  -1.63157699E-06
  -4.39999998E-03  -1.66679956E-06
  -4.35000006E-03  -1.70267674E-06
  -4.30000015E-03  -1.73921842E-06
  -4.25000023E-03  -1.77643415E-06
  -4.19999985E-03  -1.81433347E-06
  -4.14999994E-03  -1.85292640E-06
  -4.10000002E-03  -1.89222419E-06
  -4.05000011E-03  -1.93223832E-06
  -4.00000019E-03  -1.97298141E-06
  -3.94999981E-03  -2.01446642E-06
  -3.89999989E-03  -2.05670563E-06
  -3.84999998E-03  -2.09971199E-06
  -3.80000006E-03  -2.14349620E-06
  -3.74999992E-03  -2.18806849E-06
  -3.70000000E-03  -2.23344000E-06
  -3.65000009E-03  -2.27962300E-06
  -3.59999994E-03  -2.32663092E-06
  -3.55000002E-03  -2.37447716E-06
  -3.50000011E-03  -2.42317560E-06
  -3.44999996E-03  -2.47273942E-06
  -3.40000005E-03  -2.52318205E-06
  -3.34999990E-03  -2.57451461E-06
  -3.29999998E-03  -2.62674985E-06
  -3.25000007E-03  -2.67989867E-06
  -3.19999992E-03  -2.73397450E-06
  -3.15000000E-03  -2.78899165E-06
  -3.10000009E-03  -2.84496537E-06
  -3.04999994E-03  -2.90191156E-06
  -3.00000003E-03  -2.95984455E-06
  -2.95000011E-03  -3.01877935E-06
  -2.89999996E-03  -3.07872915E-06
  -2.85000005E-03  -3.13970691E-06
  -2.79999990E-03  -3.20172808E-06
  -2.74999999E-03  -3.26480767E-06
  -2.70000007E-03  -3.32896161E-06
  -2.64999992E-03  -3.39420717E-06
  -2.60000001E-03  -3.46056277E-06
  -2.55000009E-03  -3.52804568E-06
  -2.49999994E-03  -3.59667229E-06
  -2.45000003E-03  -3.66645668E-06
  -2.40000011E-03  -3.73741318E-06
  -2.34999997E-03  -3.80955635E-06
  -2.30000005E-03  -3.88290346E-06
  -2.24999990E-03  -3.95746974E-06
  -2.19999999E-03  -4.03327385E-06
  -2.15000007E-03  -4.11033352E-06
  -2.09999993E-03  -4.18866557E-06
  -2.05000001E-03  -4.26828819E-06
  -2.00000009E-03  -4.34921640E-06
  -1.94999995E-03  -4.43146428E-06
  -1.90000003E-03  -4.51504729E-06
  -1.85000000E-03  -4.59998364E-06
  -1.79999997E-03  -4.68629241E-06
  -1.75000005E-03  -4.77399453E-06
  -1.70000002E-03  -4.86311001E-06
  -1.64999999E-03  -4.95365884E-06
  -1.59999996E-03  -5.04565969E-06
  -1.55000004E-03  -5.13912937E-06
  -1.50000001E-03  -5.23408335E-06
  -1.44999998E-03  -5.33053799E-06
  -1.39999995E-03  -5.42851194E-06
  -1.35000004E-03  -5.52802567E-06
  -1.30000000E-03  -5.62909781E-06
  -1.24999997E-03  -5.73175066E-06
  -1.20000006E-03  -5.83600377E-06
  -1.15000003E-03  -5.94187395E-06
  -1.09999999E-03  -6.04937713E-06
  -1.04999996E-03  -6.15852878E-06
  -1.00000005E-03  -6.26934707E-06
  -9.50000016E-04  -6.38184838E-06
  -8.99999985E-04  -6.49605408E-06
  -8.50000011E-04  -6.61198101E-06
  -7.99999980E-04  -6.72965052E-06
  -7.50000007E-04  -6.84908900E-06
  -6.99999975E-04  -6.97031282E-06
  -6.50000002E-04  -7.09333835E-06
  -6.00000028E-04  -7.21817878E-06
  -5.49999997E-04  -7.34485229E-06
  -5.00000024E-04  -7.47337435E-06
  -4.49999992E-04  -7.60376770E-06
  -3.99999990E-04  -7.73605279E-06
  -3.49999988E-04  -7.87024783E-06
  -3.00000014E-04  -8.00637736E-06
  -2.50000012E-04  -8.14445775E-06
  -1.99999995E-04  -8.28450356E-06
  -1.50000007E-04  -8.42653481E-06
  -9.99999975E-05  -8.57056330E-06
  -4.99999987E-05  -8.71660268E-06
   0.00000000      -8.86466660E-06
   4.99999987E-05  -9.01477688E-06
   9.99999975E-05  -9.16696081E-06
   1.50000007E-04  -9.32123839E-06
   1.99999995E-04  -9.47762146E-06
   2.50000012E-04  -9.63611728E-06
   3.00000014E-04  -9.79674041E-06
   3.49999988E-04  -9.95950904E-06
   3.99999990E-04  -1.01244377E-05
   4.49999992E-04  -1.02915383E-05
   5.00000024E-04  -1.04608243E-05
   5.49999997E-04  -1.06323159E-05
   6.00000028E-04  -1.08060358E-05
   6.50000002E-04  -1.09820021E-05
   6.99999975E-04  -1.11602258E-05
   7.50000007E-04  -1.13407132E-05
   7.99999980E-04  -1.15234761E-05
   8.50000011E-04  -1.17085301E-05
   8.99999985E-04  -1.18958924E-05
   9.50000016E-04  -1.20855748E-05
   1.00000005E-03  -1.22775891E-05
   1.04999996E-03  -1.24719563E-05
   1.09999999E-03  -1.26686937E-05
   1.15000003E-03  -1.28678130E-05
   1.20000006E-03  -1.30693143E-05
   1.24999997E-03  -1.32732002E-05
   1.30000000E-03  -1.34794846E-05
   1.35000004E-03  -1.36881827E-05
   1.39999995E-03  -1.38993055E-05
   1.44999998E-03  -1.41128648E-05
   1.50000001E-03  -1.43288707E-05
   1.55000004E-03  -1.45473387E-05
   1.59999996E-03  -1.47682749E-05
   1.64999999E-03  -1.49916896E-05
   1.70000002E-03  -1.52175799E-05
   1.75000005E-03  -1.54459558E-05
   1.79999997E-03  -1.56768256E-05
   1.85000000E-03  -1.59102019E-05
   1.90000003E-03  -1.61461030E-05
   1.94999995E-03  -1.63845343E-05
   2.00000009E-03  -1.66255068E-05
   2.05000001E-03  -1.68690240E-05
   2.09999993E-03  -1.71150932E-05
   2.15000007E-03  -1.73637127E-05
   2.19999999E-03  -1.76148824E-05
   2.24999990E-03  -1.78686096E-05
   2.30000005E-03  -1.81248997E-05
   2.34999997E-03  -1.83837583E-05
   2.40000011E-03  -1.86452071E-05
   2.45000003E-03  -1.89092516E-05
   2.49999994E-03  -1.91758863E-05
   2.55000009E-03  -1.94451059E-05
   2.60000001E-03  -1.97169138E-05
   2.64999992E-03  -1.99913193E-05
   2.70000007E-03  -2.02683241E-05
   2.74999999E-03  -2.05479228E-05
   2.79999990E-03  -2.08301190E-05