  -3.99999991E-02   0.00000000    
  -3.99499983E-02   0.00000000    
  -3.99000011E-02   0.00000000    
  -3.98500003E-02   0.00000000    
  -3.97999994E-02   3.26981110E-19
  -3.97499986E-02   2.60252962E-18
  -3.97000015E-02   1.10494704E-17
  -3.96500006E-02   3.32363089E-17
  -3.95999998E-02   8.00319279E-17
  -3.95499989E-02   1.66178692E-16
  -3.95000018E-02   3.12701615E-16
  -3.94500010E-02   5.48724407E-16
  -3.94000001E-02   9.07038667E-16
  -3.93499993E-02   1.41153551E-15
  -3.92999984E-02   2.06499327E-15
  -3.92500013E-02   2.85161117E-15
  -3.92000005E-02   3.75935160E-15
  -3.91499996E-02   4.80806055E-15
  -3.90999988E-02   6.06051057E-15
  -3.90500017E-02   7.60745193E-15
  -3.90000008E-02   9.54113667E-15
  -3.89500000E-02   1.19381586E-14
  -3.88999991E-02   1.48547556E-14
  -3.88499983E-02   1.83201639E-14
  -3.88000011E-02   2.23224183E-14
  -3.87500003E-02   2.68072070E-14
  -3.86999995E-02   3.17146821E-14
  -3.86499986E-02   3.70427532E-14
  -3.86000015E-02   4.28832249E-14
  -3.85500006E-02   4.93842299E-14
  -3.84999998E-02   5.66557672E-14
  -3.84499989E-02   6.46917483E-14
  -3.84000018E-02   7.33671411E-14
  -3.83500010E-02   8.24941040E-14
  -3.83000001E-02   9.18702912E-14
  -3.82499993E-02   1.01282779E-13
  -3.81999984E-02   1.10501628E-13
  -3.81500013E-02   1.19315270E-13
  -3.81000005E-02   1.27596623E-13
  -3.80499996E-02   1.35323922E-13
  -3.79999988E-02   1.42507344E-13
  -3.79500017E-02   1.49074248E-13
  -3.79000008E-02   1.54821848E-13
  -3.78500000E-02   1.59475799E-13
  -3.77999991E-02   1.62769903E-13
  -3.77499983E-02   1.64433097E-13
  -3.77000012E-02   1.64086938E-13
  -3.76500003E-02   1.61184515E-13
  -3.75999995E-02   1.55101030E-13
  -3.75499986E-02   1.45320821E-13
  -3.75000015E-02   1.31542401E-13
  -3.74500006E-02   1.13588182E-13
  -3.73999998E-02   9.12001323E-14
  -3.73499990E-02   6.39061015E-14
  -3.73000018E-02   3.10510081E-14
  -3.72500010E-02  -8.07697584E-15
  -3.72000001E-02  -5.41260863E-14
  -3.71499993E-02  -1.07552720E-13
  -3.70999984E-02  -1.68399745E-13
  -3.70500013E-02  -2.36024687E-13
  -3.70000005E-02  -3.09031365E-13
  -3.69499996E-02  -3.85658194E-13
  -3.68999988E-02  -4.64567187E-13
  -3.68500017E-02  -5.45597909E-13
  -3.68000008E-02  -6.29982774E-13
  -3.67500000E-02  -7.19851533E-13
  -3.66999991E-02  -8.17294691E-13
  -3.66499983E-02  -9.23437216E-13
  -3.66000012E-02  -1.03784754E-12
  -3.65500003E-02  -1.15841072E-12
  -3.64999995E-02  -1.28172950E-12
  -3.64499986E-02  -1.40407521E-12
  -3.64000015E-02  -1.52266264E-12
  -3.63500006E-02  -1.63664872E-12
  -3.62999998E-02  -1.74713998E-12
  -3.62499990E-02  -1.85595571E-12
  -3.62000018E-02  -1.96371890E-12
  -3.61500010E-02  -2.06839493E-12
  -3.61000001E-02  -2.16519185E-12
  -3.60499993E-02  -2.24791019E-12
  -3.59999985E-02  -2.31106649E-12
  -3.59500013E-02  -2.35182034E-12
  -3.59000005E-02  -2.37093266E-12
  -3.58499996E-02  -2.37230656E-12
  -3.57999988E-02  -2.36104495E-12
  -3.57500017E-02  -2.34050323E-12
  -3.57000008E-02  -2.30951846E-12
  -3.56500000E-02  -2.26137577E-12
  -3.55999991E-02  -2.18552260E-12
  -3.55499983E-02  -2.07159940E-12
  -3.55000012E-02  -1.91388680E-12
  -3.54500003E-02  -1.71382602E-12
  -3.53999995E-02  -1.47923763E-12
  -3.53499986E-02  -1.22054407E-12
  -3.53000015E-02  -9.45675612E-13
  -3.52500007E-02  -6.55829178E-13
  -3.51999998E-02  -3.43892639E-13
  -3.51499990E-02   3.49764658E-15
  -3.51000018E-02   4.00608529E-13
  -3.50500010E-02   8.55845830E-13
  -3.50000001E-02   1.36664183E-12
  -3.49499993E-02   1.91887110E-12
  -3.48999985E-02   2.49173794E-12
  -3.48500013E-02   3.06618468E-12
  -3.48000005E-02   3.63279242E-12
  -3.47499996E-02   4.19524528E-12
  -3.46999988E-02   4.76761599E-12
  -3.46500017E-02   5.36665374E-12
  -3.46000008E-02   6.00244507E-12
  -3.45500000E-02   6.67143120E-12
  -3.44999991E-02   7.35498034E-12
  -3.44499983E-02   8.02468161E-12
  -3.44000012E-02   8.65273391E-12
  -3.43500003E-02   9.22308237E-12
  -3.42999995E-02   9.73782773E-12
  -3.42499986E-02   1.02150441E-11
  -3.42000015E-02   1.06782638E-11
  -3.41500007E-02   1.11423327E-11
  -3.40999998E-02   1.16025184E-11
  -3.40499990E-02   1.20323014E-11
  -3.40000018E-02   1.23911758E-11
  -3.39500010E-02   1.26391718E-11
  -3.39000002E-02   1.27519436E-11
  -3.38499993E-02   1.27297704E-11
  -3.37999985E-02   1.25960692E-11
  -3.37500013E-02   1.23851103E-11
  -3.37000005E-02   1.21235955E-11
  -3.36499996E-02   1.18143056E-11
  -3.35999988E-02   1.14301728E-11
  -3.35500017E-02   1.09227436E-11
  -3.35000008E-02   1.02419956E-11
  -3.34500000E-02   9.35849141E-12
  -3.33999991E-02   8.27731720E-12
  -3.33499983E-02   7.03701160E-12
  -3.33000012E-02   5.69356324E-12
  -3.32500003E-02   4.29615414E-12
  -3.31999995E-02   2.86500446E-12
  -3.31499986E-02   1.38116807E-12
  -3.31000015E-02  -2.06351727E-13
  -3.30500007E-02  -1.95799908E-12
  -3.29999998E-02  -3.91469929E-12
  -3.29499990E-02  -6.07569854E-12
  -3.29000019E-02  -8.39425664E-12
  -3.28500010E-02  -1.07942396E-11
  -3.28000002E-02  -1.32003974E-11
  -3.27499993E-02  -1.55682463E-11
  -3.26999985E-02  -1.78994857E-11
  -3.26500013E-02  -2.02357089E-11
  -3.26000005E-02  -2.26330534E-11
  -3.25499997E-02  -2.51288296E-11
  -3.24999988E-02  -2.77148270E-11
  -3.24500017E-02  -3.03297873E-11
  -3.24000008E-02  -3.28758097E-11
  -3.23500000E-02  -3.52529568E-11
  -3.22999991E-02  -3.73970716E-11
  -3.22499983E-02  -3.93029637E-11
  -3.22000012E-02  -4.10208152E-11
  -3.21500003E-02  -4.26262498E-11
  -3.20999995E-02  -4.41773909E-11
  -3.20499986E-02  -4.56788808E-11
  -3.20000015E-02  -4.70695809E-11
  -3.19500007E-02  -4.82400092E-11
  -3.18999998E-02  -4.90721699E-11
  -3.18499990E-02  -4.94849405E-11
  -3.18000019E-02  -4.94650362E-11
  -3.17500010E-02  -4.90690821E-11
  -3.17000002E-02  -4.83940041E-11
  -3.16499993E-02  -4.75276311E-11
  -3.15999985E-02  -4.65013618E-11
  -3.15500014E-02  -4.52676889E-11
  -3.15000005E-02  -4.37144314E-11
  -3.14499997E-02  -4.17103262E-11
  -3.13999988E-02  -3.91615004E-11
  -3.13500017E-02  -3.60530460E-11
  -3.13000008E-02  -3.24571238E-11
  -3.12500000E-02  -2.85037289E-11
  -3.11999992E-02  -2.43265946E-11
  -3.11500002E-02  -2.00072407E-11
  -3.10999993E-02  -1.55416877E-11
  -3.10500003E-02  -1.08456985E-11
  -3.09999995E-02  -5.79796757E-12
  -3.09500005E-02  -3.03123818E-13
  -3.08999997E-02   5.65429127E-12
  -3.08500007E-02   1.19906342E-11
  -3.07999998E-02   1.85486973E-11
  -3.07500008E-02   2.51565348E-11
  -3.07000000E-02   3.16926624E-11
  -3.06499992E-02   3.81280042E-11
  -3.06000002E-02   4.45259697E-11
  -3.05499993E-02   5.10004296E-11
  -3.05000003E-02   5.76495622E-11
  -3.04499995E-02   6.44940629E-11
  -3.04000005E-02   7.14473203E-11
  -3.03499997E-02   7.83328680E-11
  -3.03000007E-02   8.49433440E-11
  -3.02499998E-02   9.11155804E-11
  -3.02000009E-02   9.67870090E-11
  -3.01500000E-02   1.02006334E-10
  -3.00999992E-02   1.06893147E-10
  -3.00500002E-02   1.11564744E-10
  -2.99999993E-02   1.16063388E-10
  -2.99500003E-02   1.20316784E-10
  -2.98999995E-02   1.24149052E-10
  -2.98500005E-02   1.27338279E-10
  -2.97999997E-02   1.29697073E-10
  -2.97500007E-02   1.31141695E-10
  -2.96999998E-02   1.31718816E-10
  -2.96500009E-02   1.31575625E-10
  -2.96000000E-02   1.30884359E-10
  -2.95499992E-02   1.29754735E-10
  -2.95000002E-02   1.28174082E-10
  -2.94499993E-02   1.26002930E-10
  -2.94000003E-02   1.23028129E-10
  -2.93499995E-02   1.19049159E-10
  -2.93000005E-02   1.13959640E-10
  -2.92499997E-02   1.07789305E-10
  -2.92000007E-02   1.00689027E-10
  -2.91499998E-02   9.28647714E-11
  -2.91000009E-02   8.44881387E-11
  -2.90500000E-02   7.56222931E-11
  -2.89999992E-02   6.61971727E-11
  -2.89500002E-02   5.60473022E-11
  -2.88999993E-02   4.49964337E-11
  -2.88500004E-02   3.29506422E-11
  -2.87999995E-02   1.99566353E-11
  -2.87500005E-02   6.19879885E-12
  -2.86999997E-02  -8.06312656E-12
  -2.86500007E-02  -2.25878205E-11
  -2.85999998E-02  -3.72367935E-11
  -2.85500009E-02  -5.20135428E-11
  -2.85000000E-02  -6.70402900E-11
  -2.84499992E-02  -8.24803004E-11
  -2.84000002E-02  -9.84382020E-11
  -2.83499993E-02  -1.14881993E-10
  -2.83000004E-02  -1.31622935E-10
  -2.82499995E-02  -1.48365278E-10
  -2.82000005E-02  -1.64804351E-10
  -2.81499997E-02  -1.80728765E-10
  -2.81000007E-02  -1.96080208E-10
  -2.80499998E-02  -2.10944526E-10
  -2.80000009E-02  -2.25478677E-10
  -2.79500000E-02  -2.39805203E-10
  -2.78999992E-02  -2.53919497E-10
  -2.78500002E-02  -2.67648875E-10
  -2.77999993E-02  -2.80683699E-10
  -2.77500004E-02  -2.92670471E-10
  -2.76999995E-02  -3.03328584E-10
  -2.76500005E-02  -3.12539911E-10
  -2.75999997E-02  -3.20369453E-10
  -2.75500007E-02  -3.27006339E-10
  -2.74999999E-02  -3.32650490E-10
  -2.74500009E-02  -3.37395750E-10
  -2.74000000E-02  -3.41161321E-10
  -2.73499992E-02  -3.43700651E-10
  -2.73000002E-02  -3.44683976E-10
  -2.72499993E-02  -3.43818279E-10
  -2.72000004E-02  -3.40956041E-10
  -2.71499995E-02  -3.36145917E-10
  -2.71000005E-02  -3.29601069E-10
  -2.70499997E-02  -3.21595722E-10
  -2.70000007E-02  -3.12334075E-10
  -2.69499999E-02  -3.01850905E-10
  -2.69000009E-02  -2.89990448E-10
  -2.68500000E-02  -2.76474982E-10
  -2.67999992E-02  -2.61031641E-10
  -2.67500002E-02  -2.43521037E-10
  -2.66999993E-02  -2.24010158E-10
  -2.66500004E-02  -2.02758782E-10
  -2.65999995E-02  -1.80124568E-10
  -2.65500005E-02  -1.56426538E-10
  -2.64999997E-02  -1.31824926E-10
  -2.64500007E-02  -1.06271159E-10
  -2.63999999E-02  -7.95547031E-11
  -2.63500009E-02  -5.14298187E-11
  -2.63000000E-02  -2.17675964E-11
  -2.62499992E-02   9.33746570E-12
  -2.62000002E-02   4.15579689E-11
  -2.61499994E-02   7.44273809E-11
  -2.61000004E-02   1.07496220E-10
  -2.60499995E-02   1.40481765E-10
  -2.60000005E-02   1.73345990E-10
  -2.59499997E-02   2.06267517E-10
  -2.59000007E-02   2.39516768E-10
  -2.58499999E-02   2.73286310E-10
  -2.58000009E-02   3.07547432E-10
  -2.57500000E-02   3.41999845E-10
  -2.56999992E-02   3.76141146E-10
  -2.56500002E-02   4.09429768E-10
  -2.55999994E-02   4.41469972E-10
  -2.55500004E-02   4.72132777E-10
  -2.54999995E-02   5.01558073E-10
  -2.54500005E-02   5.30035904E-10
  -2.53999997E-02   5.57820623E-10
  -2.53500007E-02   5.84960302E-10
  -2.52999999E-02   6.11216189E-10
  -2.52500009E-02   6.36109998E-10
  -2.52000000E-02   6.59079957E-10
  -2.51499992E-02   6.79681089E-10
  -2.51000002E-02   6.97741642E-10
  -2.50499994E-02   7.13403170E-10
  -2.50000004E-02   7.27019889E-10
  -2.49499995E-02   7.38960393E-10
  -2.49000005E-02   7.49401374E-10
  -2.48499997E-02   7.58210161E-10
  -2.48000007E-02   7.64971142E-10
  -2.47499999E-02   7.69142139E-10
  -2.47000009E-02   7.70272568E-10
  -2.46500000E-02   7.68182629E-10
  -2.45999992E-02   7.63026642E-10
  -2.45500002E-02   7.55207452E-10
  -2.44999994E-02   7.45178752E-10
  -2.44500004E-02   7.33219596E-10
  -2.43999995E-02   7.19282911E-10
  -2.43500005E-02   7.02993996E-10
  -2.42999997E-02   6.83805512E-10
  -2.42500007E-02   6.61241728E-10
  -2.41999999E-02   6.35118236E-10
  -2.41500009E-02   6.05633710E-10
  -2.41000000E-02   5.73289471E-10
  -2.40499992E-02   5.38672551E-10
  -2.40000002E-02   5.02198783E-10
  -2.39499994E-02   4.63929423E-10
  -2.39000004E-02   4.23542618E-10
  -2.38499995E-02   3.80476317E-10
  -2.38000005E-02   3.34184042E-10
  -2.37499997E-02   2.84392399E-10
  -2.37000007E-02   2.31241901E-10
  -2.36499999E-02   1.75241030E-10
  -2.36000009E-02   1.17049939E-10
  -2.35500000E-02   5.71911199E-11
  -2.34999992E-02  -4.17746567E-12
  -2.34500002E-02  -6.73231887E-11
  -2.33999994E-02  -1.32806779E-10
  -2.33500004E-02  -2.01219055E-10
  -2.32999995E-02  -2.72905087E-10
  -2.32500006E-02  -3.47798484E-10
  -2.31999997E-02  -4.25440821E-10
  -2.31500007E-02  -5.05181841E-10
  -2.30999999E-02  -5.86473148E-10
  -2.30500009E-02  -6.69124367E-10
  -2.30000000E-02  -7.53398510E-10
  -2.29499992E-02  -8.39897818E-10
  -2.29000002E-02  -9.29290533E-10
  -2.28499994E-02  -1.02200459E-09
  -2.28000004E-02  -1.11803689E-09
  -2.27499995E-02  -1.21696309E-09
  -2.27000006E-02  -1.31814426E-09
  -2.26499997E-02  -1.42103795E-09
  -2.26000007E-02  -1.52547075E-09
  -2.25499999E-02  -1.63175051E-09
  -2.25000009E-02  -1.74056536E-09
  -2.24500000E-02  -1.85270799E-09
  -2.23999992E-02  -1.96874428E-09
  -2.23500002E-02  -2.08877937E-09
  -2.22999994E-02  -2.21243912E-09
  -2.22500004E-02  -2.33907205E-09
  -2.21999995E-02  -2.46809306E-09
  -2.21500006E-02  -2.59929500E-09
  -2.20999997E-02  -2.73298939E-09
  -2.20500007E-02  -2.86991475E-09
  -2.19999999E-02  -3.01095104E-09
  -2.19500009E-02  -3.15676951E-09
  -2.19000001E-02  -3.30757621E-09
  -2.18499992E-02  -3.46306073E-09
  -2.18000002E-02  -3.62258135E-09
  -2.17499994E-02  -3.78551102E-09
  -2.17000004E-02  -3.95158350E-09
  -2.16499995E-02  -4.12107859E-09
  -2.16000006E-02  -4.29476188E-09
  -2.15499997E-02  -4.47359749E-09
  -2.15000007E-02  -4.65836658E-09
  -2.14499999E-02  -4.84937113E-09
  -2.14000009E-02  -5.04636288E-09
  -2.13500001E-02  -5.24872146E-09
  -2.12999992E-02  -5.45579359E-09
  -2.12500002E-02  -5.66724490E-09
  -2.11999994E-02  -5.88326854E-09
  -2.11500004E-02  -6.10455331E-09
  -2.10999995E-02  -6.33201847E-09
  -2.10500006E-02  -6.56643495E-09
  -2.09999997E-02  -6.80810741E-09
  -2.09500007E-02  -7.05677872E-09
  -2.08999999E-02  -7.31179384E-09
  -2.08500009E-02  -7.57246355E-09
  -2.08000001E-02  -7.83844367E-09
  -2.07499992E-02  -8.10996248E-09
  -2.07000002E-02  -8.38777670E-09
  -2.06499994E-02  -8.67290151E-09
  -2.06000004E-02  -8.96620556E-09
  -2.05499995E-02  -9.26807520E-09
  -2.05000006E-02  -9.57829194E-09
  -2.04499997E-02  -9.89618432E-09
  -2.04000007E-02  -1.02209894E-08
  -2.03499999E-02  -1.05522782E-08
  -2.03000009E-02  -1.08902265E-08
  -2.02500001E-02  -1.12356267E-08
  -2.01999992E-02  -1.15896093E-08
  -2.01500002E-02  -1.19532197E-08
  -2.00999994E-02  -1.23270381E-08
  -2.00500004E-02  -1.27110136E-08
  -1.99999996E-02  -1.31046125E-08
  -1.99500006E-02  -1.35071661E-08
  -1.98999997E-02  -1.39183109E-08
  -1.98500007E-02  -1.43382808E-08
  -1.97999999E-02  -1.47679673E-08
  -1.97500009E-02  -1.52086699E-08
  -1.97000001E-02  -1.56616693E-08
  -1.96499992E-02  -1.61278226E-08
  -1.96000002E-02  -1.66073679E-08
  -1.95499994E-02  -1.71000014E-08
  -1.95000004E-02  -1.76052506E-08
  -1.94499996E-02  -1.81229147E-08
  -1.94000006E-02  -1.86534113E-08
  -1.93499997E-02  -1.91978362E-08
  -1.93000007E-02  -1.97577243E-08
  -1.92499999E-02  -2.03346371E-08
  -1.92000009E-02  -2.09297468E-08
  -1.91500001E-02  -2.15435900E-08
  -1.90999992E-02  -2.21761507E-08
  -1.90500002E-02  -2.28272086E-08
  -1.89999994E-02  -2.34967796E-08
  -1.89500004E-02  -2.41854909E-08
  -1.88999996E-02  -2.48946890E-08
  -1.88500006E-02  -2.56262300E-08
  -1.87999997E-02  -2.63820414E-08
  -1.87500007E-02  -2.71636456E-08
  -1.86999999E-02  -2.79719092E-08
  -1.86500009E-02  -2.88070687E-08
  -1.86000001E-02  -2.96691098E-08
  -1.85499992E-02  -3.05582226E-08
  -1.85000002E-02  -3.14752207E-08
  -1.84499994E-02  -3.24216565E-08
  -1.84000004E-02  -3.33996724E-08
  -1.83499996E-02  -3.44115314E-08
  -1.83000006E-02  -3.54591521E-08
  -1.82499997E-02  -3.65437565E-08
  -1.82000007E-02  -3.76658278E-08
  -1.81499999E-02  -3.88254726E-08
  -1.81000009E-02  -4.00228970E-08
  -1.80500001E-02  -4.12588932E-08
  -1.79999992E-02  -4.25350031E-08
  -1.79500002E-02  -4.38534435E-08
  -1.78999994E-02  -4.52166233E-08
  -1.78500004E-02  -4.66266776E-08
  -1.77999996E-02  -4.80850915E-08
  -1.77500006E-02  -4.95926074E-08
  -1.76999997E-02  -5.11494846E-08
  -1.76500008E-02  -5.27559827E-08
  -1.75999999E-02  -5.44128191E-08
  -1.75500009E-02  -5.61214897E-08
  -1.75000001E-02  -5.78841686E-08
  -1.74499992E-02  -5.97032610E-08
  -1.74000002E-02  -6.15809057E-08
  -1.73499994E-02  -6.35185415E-08
  -1.73000004E-02  -6.55168435E-08
  -1.72499996E-02  -6.75759964E-08
  -1.72000006E-02  -6.96961138E-08
  -1.71499997E-02  -7.18777713E-08
  -1.71000008E-02  -7.41222550E-08
  -1.70499999E-02  -7.64316326E-08
  -1.70000009E-02  -7.88083270E-08
  -1.69500001E-02  -8.12545338E-08
  -1.68999992E-02  -8.37717877E-08
  -1.68500002E-02  -8.63607710E-08
  -1.67999994E-02  -8.90215119E-08
  -1.67500004E-02  -9.17538969E-08
  -1.66999996E-02  -9.45582244E-08
  -1.66500006E-02  -9.74356027E-08
  -1.65999997E-02  -1.00387865E-07
  -1.65500008E-02  -1.03417271E-07
  -1.64999999E-02  -1.06526088E-07
  -1.64500009E-02  -1.09715934E-07
  -1.64000001E-02  -1.12987564E-07
  -1.63499992E-02  -1.16340978E-07
  -1.63000003E-02  -1.19775919E-07
  -1.62499994E-02  -1.23292565E-07
  -1.62000004E-02  -1.26891820E-07
  -1.61499996E-02  -1.30575529E-07
  -1.61000006E-02  -1.34346109E-07
  -1.60499997E-02  -1.38205976E-07
  -1.60000008E-02  -1.42157106E-07
  -1.59499999E-02  -1.46200634E-07
  -1.59000009E-02  -1.50337016E-07
  -1.58500001E-02  -1.54566294E-07
  -1.57999992E-02  -1.58888668E-07
  -1.57500003E-02  -1.63305174E-07
  -1.56999994E-02  -1.67817831E-07
  -1.56500004E-02  -1.72429381E-07
  -1.55999996E-02  -1.77142638E-07
  -1.55499997E-02  -1.81960090E-07
  -1.54999997E-02  -1.86883540E-07
  -1.54499998E-02  -1.91914040E-07
  -1.53999999E-02  -1.97052316E-07
  -1.53500000E-02  -2.02299276E-07
  -1.53000001E-02  -2.07656498E-07
  -1.52500002E-02  -2.13126611E-07
  -1.52000003E-02  -2.18713225E-07
  -1.51500003E-02  -2.24420205E-07
  -1.51000004E-02  -2.30250976E-07
  -1.50499996E-02  -2.36208251E-07
  -1.49999997E-02  -2.42294135E-07
  -1.49499997E-02  -2.48510162E-07
  -1.48999998E-02  -2.54858264E-07
  -1.48499999E-02  -2.61340915E-07
  -1.48000000E-02  -2.67961752E-07
  -1.47500001E-02  -2.74725295E-07
  -1.47000002E-02  -2.81636773E-07
  -1.46500003E-02  -2.88701159E-07
  -1.46000003E-02  -2.95922717E-07
  -1.45500004E-02  -3.03304944E-07
  -1.44999996E-02  -3.10850709E-07
  -1.44499997E-02  -3.18563025E-07
  -1.43999998E-02  -3.26445672E-07
  -1.43499998E-02  -3.34503369E-07
  -1.42999999E-02  -3.42741799E-07
  -1.42500000E-02  -3.51167387E-07
  -1.42000001E-02  -3.59786526E-07
  -1.41500002E-02  -3.68605356E-07
  -1.41000003E-02  -3.77628936E-07
  -1.40500003E-02  -3.86861814E-07
  -1.40000004E-02  -3.96308394E-07
  -1.39499996E-02  -4.05973680E-07
  -1.38999997E-02  -4.15863866E-07
  -1.38499998E-02  -4.25986343E-07
  -1.37999998E-02  -4.36348898E-07
  -1.37499999E-02  -4.46959291E-07
  -1.37000000E-02  -4.57824910E-07
  -1.36500001E-02  -4.68952607E-07
  -1.36000002E-02  -4.80348831E-07
  -1.35500003E-02  -4.92019581E-07
  -1.35000004E-02  -5.03970909E-07
  -1.34500004E-02  -5.16209923E-07
  -1.33999996E-02  -5.28745375E-07
  -1.33499997E-02  -5.41586644E-07
  -1.32999998E-02  -5.54743224E-07
  -1.32499998E-02  -5.68223868E-07
  -1.31999999E-02  -5.82036648E-07
  -1.31500000E-02  -5.96188954E-07
  -1.31000001E-02  -6.10688403E-07
  -1.30500002E-02  -6.25542953E-07
  -1.30000003E-02  -6.40761129E-07
  -1.29500004E-02  -6.56352540E-07
  -1.29000004E-02  -6.72327701E-07
  -1.28499996E-02  -6.88697696E-07
  -1.27999997E-02  -7.05473269E-07
  -1.27499998E-02  -7.22663856E-07
  -1.26999998E-02  -7.40277642E-07
  -1.26499999E-02  -7.58323040E-07
  -1.26000000E-02  -7.76808804E-07
  -1.25500001E-02  -7.95744597E-07
  -1.25000002E-02  -8.15140595E-07
  -1.24500003E-02  -8.35008166E-07
  -1.24000004E-02  -8.55359360E-07
  -1.23500004E-02  -8.76206286E-07
  -1.22999996E-02  -8.97560483E-07
  -1.22499997E-02  -9.19432637E-07
  -1.21999998E-02  -9.41832468E-07
  -1.21499998E-02  -9.64769924E-07
  -1.20999999E-02  -9.88255806E-07
  -1.20500000E-02  -1.01230216E-06
  -1.20000001E-02  -1.03692105E-06
  -1.19500002E-02  -1.06212406E-06
  -1.19000003E-02  -1.08792324E-06
  -1.18500004E-02  -1.11433008E-06
  -1.18000004E-02  -1.14135651E-06
  -1.17499996E-02  -1.16901333E-06
  -1.16999997E-02  -1.19731124E-06
  -1.16499998E-02  -1.22626182E-06
  -1.15999999E-02  -1.25587906E-06
  -1.15499999E-02  -1.28617819E-06
  -1.15000000E-02  -1.31717468E-06
  -1.14500001E-02  -1.34888319E-06
  -1.14000002E-02  -1.38131713E-06
  -1.13500003E-02  -1.41448913E-06
  -1.13000004E-02  -1.44841215E-06
  -1.12500004E-02  -1.48309755E-06
  -1.11999996E-02  -1.51855681E-06
  -1.11499997E-02  -1.55480188E-06
  -1.10999998E-02  -1.59184549E-06
  -1.10499999E-02  -1.62970287E-06
  -1.09999999E-02  -1.66838890E-06
  -1.09500000E-02  -1.70791850E-06
  -1.09000001E-02  -1.74830654E-06
  -1.08500002E-02  -1.78956805E-06
  -1.08000003E-02  -1.83171869E-06
  -1.07500004E-02  -1.87477576E-06
  -1.07000005E-02  -1.91875642E-06
  -1.06499996E-02  -1.96367796E-06
  -1.05999997E-02  -2.00955833E-06
  -1.05499998E-02  -2.05641345E-06
  -1.04999999E-02  -2.10425924E-06
  -1.04499999E-02  -2.15311024E-06
  -1.04000000E-02  -2.20298034E-06
  -1.03500001E-02  -2.25388249E-06
  -1.03000002E-02  -2.30583100E-06
  -1.02500003E-02  -2.35884113E-06
  -1.02000004E-02  -2.41293105E-06
  -1.01500005E-02  -2.46811965E-06
  -1.00999996E-02  -2.52442601E-06
  -1.00499997E-02  -2.58186947E-06
  -9.99999978E-03  -2.64047026E-06
  -9.94999986E-03  -2.70024748E-06
  -9.89999995E-03  -2.76122091E-06
  -9.85000003E-03  -2.82340852E-06
  -9.80000012E-03  -2.88682895E-06
  -9.75000020E-03  -2.95150221E-06
  -9.70000029E-03  -3.01744831E-06
  -9.65000037E-03  -3.08468611E-06
  -9.60000046E-03  -3.15323427E-06
  -9.54999961E-03  -3.22311075E-06
  -9.49999969E-03  -3.29433442E-06
  -9.44999978E-03  -3.36692347E-06
  -9.39999986E-03  -3.44089858E-06
  -9.34999995E-03  -3.51627887E-06
  -9.30000003E-03  -3.59308660E-06
  -9.25000012E-03  -3.67134430E-06
  -9.20000020E-03  -3.75107311E-06
  -9.15000029E-03  -3.83229508E-06
  -9.10000037E-03  -3.91503272E-06
  -9.05000046E-03  -3.99930468E-06
  -8.99999961E-03  -4.08513461E-06
  -8.94999970E-03  -4.17254250E-06
  -8.89999978E-03  -4.26155248E-06
  -8.84999987E-03  -4.35218681E-06
  -8.79999995E-03  -4.44447096E-06
  -8.75000004E-03  -4.53842949E-06
  -8.70000012E-03  -4.63408696E-06
  -8.65000021E-03  -4.73146747E-06
  -8.60000029E-03  -4.83059421E-06
  -8.55000038E-03  -4.93149082E-06
  -8.50000046E-03  -5.03417868E-06
  -8.44999962E-03  -5.13868190E-06
  -8.39999970E-03  -5.24502548E-06
  -8.34999979E-03  -5.35323534E-06
  -8.29999987E-03  -5.46333695E-06
  -8.24999996E-03  -5.57535668E-06
  -8.20000004E-03  -5.68931728E-06
  -8.15000013E-03  -5.80524375E-06
  -8.10000021E-03  -5.92316383E-06
  -8.05000030E-03  -6.04310571E-06
  -8.00000038E-03  -6.16509351E-06
  -7.95000046E-03  -6.28915541E-06
  -7.89999962E-03  -6.41531778E-06
  -7.84999970E-03  -6.54361338E-06
  -7.79999979E-03  -6.67407267E-06
  -7.74999987E-03  -6.80672201E-06
  -7.69999996E-03  -6.94158643E-06
  -7.65000004E-03  -7.07869822E-06
  -7.60000013E-03  -7.21808738E-06
  -7.55000021E-03  -7.35978665E-06
  -7.49999983E-03  -7.50382924E-06
  -7.44999992E-03  -7.65024652E-06
  -7.40000000E-03  -7.79906895E-06
  -7.35000009E-03  -7.95032975E-06
  -7.30000017E-03  -8.10406527E-06
  -7.24999979E-03  -8.26030464E-06
  -7.19999988E-03  -8.41907604E-06
  -7.14999996E-03  -8.58040767E-06
  -7.10000005E-03  -8.74433408E-06
  -7.05000013E-03  -8.91089348E-06
  -7.00000022E-03  -9.08012044E-06
  -6.94999984E-03  -9.25205040E-06
  -6.89999992E-03  -9.42671431E-06
  -6.85000001E-03  -9.60414854E-06
  -6.80000009E-03  -9.78439493E-06
  -6.75000018E-03  -9.96749350E-06
  -6.69999979E-03  -1.01534761E-05
  -6.64999988E-03  -1.03423808E-05
  -6.59999996E-03  -1.05342424E-05
  -6.55000005E-03  -1.07291107E-05
  -6.50000013E-03  -1.09270304E-05
  -6.45000022E-03  -1.11280424E-05
  -6.39999984E-03  -1.13321821E-05
  -6.34999992E-03  -1.15394869E-05
  -6.30000001E-03  -1.17499949E-05
  -6.25000009E-03  -1.19637552E-05
  -6.20000018E-03  -1.21808189E-05
  -6.14999980E-03  -1.24012249E-05
  -6.09999988E-03  -1.26250079E-05
  -6.04999997E-03  -1.28522151E-05
  -6.00000005E-03  -1.30828967E-05
  -5.95000014E-03  -1.33170988E-05
  -5.90000022E-03  -1.35548626E-05
  -5.84999984E-03  -1.37962252E-05
  -5.79999993E-03  -1.40412285E-05
  -5.75000001E-03  -1.42899244E-05
  -5.70000010E-03  -1.45423701E-05
  -5.65000018E-03  -1.47986138E-05
  -5.59999980E-03  -1.50587048E-05
  -5.54999989E-03  -1.53226902E-05
  -5.49999997E-03  -1.55906218E-05
  -5.45000006E-03  -1.58625571E-05
  -5.40000014E-03  -1.61385433E-05
  -5.35000023E-03  -1.64186222E-05
  -5.29999984E-03  -1.67028484E-05
  -5.24999993E-03  -1.69912746E-05
  -5.20000001E-03  -1.72839609E-05
  -5.15000010E-03  -1.75809655E-05
  -5.10000018E-03  -1.78823429E-05
  -5.04999980E-03  -1.81881423E-05
  -4.99999989E-03  -1.84984110E-05
  -4.94999997E-03  -1.88131999E-05
  -4.90000006E-03  -1.91325653E-05
  -4.85000014E-03  -1.94565655E-05
  -4.80000023E-03  -1.97852532E-05
  -4.74999985E-03  -2.01186849E-05
  -4.69999993E-03  -2.04569151E-05
  -4.65000002E-03  -2.08000038E-05
  -4.60000010E-03  -2.11480110E-05
  -4.55000019E-03  -2.15009950E-05
  -4.49999981E-03  -2.18590067E-05
  -4.44999989E-03  -2.22220988E-05
  -4.39999998E-03  -2.25903332E-05
  -4.35000006E-03  -2.29637772E-05
  -4.30000015E-03  -2.33424962E-05
  -4.25000023E-03  -2.37265558E-05
  -4.19999985E-03  -2.41160069E-05
  -4.14999994E-03  -2.45109204E-05
  -4.10000002E-03  -2.49113527E-05
  -4.05000011E-03  -2.53173621E-05
  -4.00000019E-03  -2.57289994E-05
  -3.94999981E-03  -2.61463229E-05
  -3.89999989E-03  -2.65693980E-05
  -3.84999998E-03  -2.69982884E-05
  -3.80000006E-03  -2.74330650E-05
  -3.74999992E-03  -2.78737971E-05
  -3.70000000E-03  -2.83205263E-05
  -3.65000009E-03  -2.87733201E-05
  -3.59999994E-03  -2.92322438E-05
  -3.55000002E-03  -2.96973612E-05
  -3.50000011E-03  -3.01687160E-05
  -3.44999996E-03  -3.06463808E-05
  -3.40000005E-03  -3.11304357E-05
  -3.34999990E-03  -3.16209480E-05
  -3.29999998E-03  -3.21179868E-05
  -3.25000007E-03  -3.26216141E-05
  -3.19999992E-03  -3.31318952E-05
  -3.15000000E-03  -3.36488811E-05
  -3.10000009E-03  -3.41726518E-05
  -3.04999994E-03  -3.47032765E-05
  -3.00000003E-03  -3.52408169E-05
  -2.95000011E-03  -3.57853351E-05
  -2.89999996E-03  -3.63369109E-05
  -2.85000005E-03  -3.68956134E-05
  -2.79999990E-03  -3.74615083E-05
  -2.74999999E-03  -3.80346719E-05
  -2.70000007E-03  -3.86151405E-05
  -2.64999992E-03  -3.92029833E-05
  -2.60000001E-03  -3.97982694E-05
  -2.55000009E-03  -4.04010789E-05
  -2.49999994E-03  -4.10114735E-05
  -2.45000003E-03  -4.16295334E-05
  -2.40000011E-03  -4.22553203E-05
  -2.34999997E-03  -4.28889180E-05
  -2.30000005E-03  -4.35304028E-05
  -2.24999990E-03  -4.41798366E-05
  -2.19999999E-03  -4.48372630E-05
  -2.15000007E-03  -4.55027402E-05
  -2.09999993E-03  -4.61763557E-05
  -2.05000001E-03  -4.68581966E-05
  -2.00000009E-03  -4.75483394E-05
  -1.94999995E-03  -4.82468640E-05
  -1.90000003E-03  -4.89538361E-05
  -1.85000000E-03  -4.96693174E-05
  -1.79999997E-03  -5.03933807E-05
  -1.75000005E-03  -5.11260914E-05
  -1.70000002E-03  -5.18675261E-05
  -1.64999999E-03  -5.26177428E-05
  -1.59999996E-03  -5.33768143E-05
  -1.55000004E-03  -5.41448389E-05
  -1.50000001E-03  -5.49218930E-05
  -1.44999998E-03  -5.57080384E-05
  -1.39999995E-03  -5.65033515E-05
  -1.35000004E-03  -5.73078905E-05
  -1.30000000E-03  -5.81217209E-05
  -1.24999997E-03  -5.89449191E-05
  -1.20000006E-03  -5.97775470E-05
  -1.15000003E-03  -6.06196918E-05
  -1.09999999E-03  -6.14714227E-05
  -1.04999996E-03  -6.23328233E-05
  -1.00000005E-03  -6.32039882E-05
  -9.50000016E-04  -6.40849757E-05
  -8.99999985E-04  -6.49758440E-05
  -8.50000011E-04  -6.58766730E-05
  -7.99999980E-04  -6.67875356E-05
  -7.50000007E-04  -6.77084972E-05
  -6.99999975E-04  -6.86396234E-05
  -6.50000002E-04  -6.95810159E-05
  -6.00000028E-04  -7.05327475E-05
  -5.49999997E-04  -7.14949056E-05
  -5.00000024E-04  -7.24675629E-05
  -4.49999992E-04  -7.34507557E-05
  -3.99999990E-04  -7.44445497E-05
  -3.49999988E-04  -7.54490466E-05
  -3.00000014E-04  -7.64643046E-05
  -2.50000012E-04  -7.74903892E-05
  -1.99999995E-04  -7.85273587E-05
  -1.50000007E-04  -7.95752858E-05
  -9.99999975E-05  -8.06342723E-05
  -4.99999987E-05  -8.17044129E-05
   0.00000000      -8.27857439E-05
   4.99999987E-05  -8.38782871E-05
   9.99999975E-05  -8.49821299E-05
   1.50000007E-04  -8.60973596E-05
   1.99999995E-04  -8.72240780E-05
   2.50000012E-04  -8.83623579E-05
   3.00000014E-04  -8.95122430E-05
   3.49999988E-04  -9.06738132E-05
   3.99999990E-04  -9.18471342E-05
   4.49999992E-04  -9.30322931E-05
   5.00000024E-04  -9.42293700E-05
   5.49999997E-04  -9.54383722E-05
   6.00000028E-04  -9.66593507E-05
   6.50000002E-04  -9.78924072E-05
   6.99999975E-04  -9.91376000E-05
   7.50000007E-04  -1.00395038E-04
   7.99999980E-04  -1.01664773E-04
   8.50000011E-04  -1.02946840E-04
   8.99999985E-04  -1.04241306E-04
   9.50000016E-04  -1.05548213E-04
   1.00000005E-03  -1.06867643E-04
   1.04999996E-03  -1.08199616E-04
   1.09999999E-03  -1.09544206E-04
   1.15000003E-03  -1.10901485E-04
   1.20000006E-03  -1.12271526E-04
   1.24999997E-03  -1.13654409E-04
   1.30000000E-03  -1.15050199E-04
   1.35000004E-03  -1.16458948E-04
   1.39999995E-03  -1.17880678E-04
   1.44999998E-03  -1.19315395E-04
   1.50000001E-03  -1.20763165E-04
   1.55000004E-03  -1.22224083E-04
   1.59999996E-03  -1.23698206E-04
   1.64999999E-03  -1.25185601E-04
   1.70000002E-03  -1.26686267E-04
   1.75000005E-03  -1.28200263E-04
   1.79999997E-03  -1.29727690E-04
   1.85000000E-03  -1.31268534E-04
   1.90000003E-03  -1.32822854E-04
   1.94999995E-03  -1.34390633E-04
   2.00000009E-03  -1.35971903E-04
   2.05000001E-03  -1.37566720E-04
   2.09999993E-03  -1.39175143E-04
   2.15000007E-03  -1.40797201E-04
   2.19999999E-03  -1.42432924E-04
   2.24999990E-03  -1.44082325E-04
   2.30000005E-03  -1.45745420E-04
   2.34999997E-03  -1.47422208E-04
   2.40000011E-03  -1.49112748E-04
   2.45000003E-03  -1.50817054E-04
   2.49999994E-03  -1.52535169E-04
   2.55000009E-03  -1.54267080E-04
   2.60000001E-03  -1.56012800E-04
   2.64999992E-03  -1.57772360E-04
   2.70000007E-03  -1.59545758E-04
   2.74999999E-03  -1.61333039E-04
   2.79999990E-03  -1.63134144E-04