  -3.99999991E-02   0.00000000    
  -3.99499983E-02   0.00000000    
  -3.99000011E-02   0.00000000    
  -3.98500003E-02  -3.71753308E-14
  -3.97999994E-02  -3.02116703E-13
  -3.97499986E-02  -1.27700259E-12
  -3.97000015E-02  -3.72167835E-12
  -3.96500006E-02  -8.33691362E-12
  -3.95999998E-02  -1.51593408E-11
  -3.95499989E-02  -2.30715048E-11
  -3.95000018E-02  -2.99318903E-11
  -3.94500010E-02  -3.35319203E-11
  -3.94000001E-02  -3.30143378E-11
  -3.93499993E-02  -2.99514823E-11
  -3.92999984E-02  -2.83097174E-11
  -3.92500013E-02  -3.30192609E-11
  -3.92000005E-02  -4.75775704E-11
  -3.91499996E-02  -7.17352636E-11
  -3.90999988E-02  -1.00560796E-10
  -3.90500017E-02  -1.25793584E-10
  -3.90000008E-02  -1.39321082E-10
  -3.89500000E-02  -1.37280978E-10
  -3.88999991E-02  -1.22552565E-10
  -3.88499983E-02  -1.03958904E-10
  -3.88000011E-02  -9.22075125E-11
  -3.87500003E-02  -9.44343215E-11
  -3.86999995E-02  -1.10050830E-10
  -3.86499986E-02  -1.30014388E-10
  -3.86000015E-02  -1.40084833E-10
  -3.85500006E-02  -1.26857774E-10
  -3.84999998E-02  -8.39996822E-11
  -3.84499989E-02  -1.56612622E-11
  -3.84000018E-02   6.50251866E-11
  -3.83500010E-02   1.42136830E-10
  -3.83000001E-02   2.04899722E-10
  -3.82499993E-02   2.53103261E-10
  -3.81999984E-02   2.96975722E-10
  -3.81500013E-02   3.51752766E-10
  -3.81000005E-02   4.30221442E-10
  -3.80499996E-02   5.37361211E-10
  -3.79999988E-02   6.69575062E-10
  -3.79500017E-02   8.18321688E-10
  -3.79000008E-02   9.75842407E-10
  -3.78500000E-02   1.13984000E-09
  -3.77999991E-02   1.31442823E-09
  -3.77499983E-02   1.50640855E-09
  -3.77000012E-02   1.71867398E-09
  -3.76500003E-02   1.94501171E-09
  -3.75999995E-02   2.17067786E-09
  -3.75499986E-02   2.37971864E-09
  -3.75000015E-02   2.56489274E-09
  -3.74500006E-02   2.73307355E-09
  -3.73999998E-02   2.90103541E-09
  -3.73499990E-02   3.08273274E-09
  -3.73000018E-02   3.27529293E-09
  -3.72500010E-02   3.45286222E-09
  -3.72000001E-02   3.57402574E-09
  -3.71499993E-02   3.60168606E-09
  -3.70999984E-02   3.52720630E-09
  -3.70500013E-02   3.38618622E-09
  -3.70000005E-02   3.25395888E-09
  -3.69499996E-02   3.21642890E-09
  -3.68999988E-02   3.32481798E-09
  -3.68500017E-02   3.55535290E-09
  -3.68000008E-02   3.79834875E-09
  -3.67500000E-02   3.89041599E-09
  -3.66999991E-02   3.68201158E-09
  -3.66499983E-02   3.11151882E-09
  -3.66000012E-02   2.24880226E-09
  -3.65500003E-02   1.28140054E-09
  -3.64999995E-02   4.41329362E-10
  -3.64499986E-02  -1.00880672E-10
  -3.64000015E-02  -3.28267330E-10
  -3.63500006E-02  -4.07870848E-10
  -3.62999998E-02  -6.33660791E-10
  -3.62499990E-02  -1.29556410E-09
  -3.62000018E-02  -2.52887311E-09
  -3.61500010E-02  -4.21818047E-09
  -3.61000001E-02  -6.01379879E-09
  -3.60499993E-02  -7.46897211E-09
  -3.59999985E-02  -8.24537860E-09
  -3.59500013E-02  -8.29335711E-09
  -3.59000005E-02  -7.91475596E-09
  -3.58499996E-02  -7.66283925E-09
  -3.57999988E-02  -8.10697109E-09
  -3.57500017E-02  -9.55824042E-09
  -3.57000008E-02  -1.18837020E-08
  -3.56500000E-02  -1.45114134E-08
  -3.55999991E-02  -1.66491514E-08
  -3.55499983E-02  -1.76371593E-08
  -3.55000012E-02  -1.72779231E-08
  -3.54500003E-02  -1.59776157E-08
  -3.53999995E-02  -1.46080712E-08
  -3.53499986E-02  -1.41261447E-08
  -3.53000015E-02  -1.51100963E-08
  -3.52500007E-02  -1.74289312E-08
  -3.51999998E-02  -2.02184562E-08
  -3.51499990E-02  -2.22087131E-08
  -3.51000018E-02  -2.22844498E-08
  -3.50500010E-02  -2.00359196E-08
  -3.50000001E-02  -1.60343774E-08
  -3.49499993E-02  -1.16690337E-08
  -3.48999985E-02  -8.57584759E-09
  -3.48500013E-02  -7.88968890E-09
  -3.48000005E-02  -9.66096536E-09
  -3.47499996E-02  -1.27318671E-08
  -3.46999988E-02  -1.51737538E-08
  -3.46500017E-02  -1.51279060E-08
  -3.46000008E-02  -1.16866898E-08
  -3.45500000E-02  -5.40217426E-09
  -3.44999991E-02   1.85018767E-09
  -3.44499983E-02   7.64475949E-09
  -3.44000012E-02   1.01063522E-08
  -3.43500003E-02   8.84580764E-09
  -3.42999995E-02   5.27177058E-09
  -3.42499986E-02   2.07584527E-09
  -3.42000015E-02   2.06504458E-09
  -3.41500007E-02   6.84144164E-09
  -3.40999998E-02   1.59424545E-08
  -3.40499990E-02   2.68845017E-08
  -3.40000018E-02   3.61590224E-08
  -3.39500010E-02   4.07844745E-08
  -3.39000002E-02   3.97276203E-08
  -3.38499993E-02   3.45178606E-08
  -3.37999985E-02   2.87065962E-08
  -3.37500013E-02   2.63395137E-08
  -3.37000005E-02   3.00865644E-08
  -3.36499996E-02   3.98846822E-08
  -3.35999988E-02   5.27701864E-08
  -3.35500017E-02   6.40658300E-08
  -3.35000008E-02   6.94589417E-08
  -3.34500000E-02   6.70539748E-08
  -3.33999991E-02   5.84318620E-08
  -3.33499983E-02   4.81503548E-08
  -3.33000012E-02   4.18132586E-08
  -3.32500003E-02   4.35147172E-08
  -3.31999995E-02   5.38103109E-08
  -3.31499986E-02   6.91975544E-08
  -3.31000015E-02   8.34496205E-08
  -3.30500007E-02   9.03036579E-08
  -3.29999998E-02   8.63396608E-08
  -3.29499990E-02   7.27212495E-08
  -3.29000019E-02   5.49167929E-08
  -3.28500010E-02   4.04080751E-08
  -3.28000002E-02   3.53334286E-08
  -3.27499993E-02   4.15644372E-08
  -3.26999985E-02   5.56003847E-08
  -3.26500013E-02   6.98969629E-08
  -3.26000005E-02   7.61494405E-08
  -3.25499997E-02   6.91152948E-08
  -3.24999988E-02   4.92308914E-08
  -3.24500017E-02   2.27385026E-08
  -3.24000008E-02  -8.76335726E-10
  -3.23500000E-02  -1.30979245E-08
  -3.22999991E-02  -1.03801616E-08
  -3.22499983E-02   3.93448207E-09
  -3.22000012E-02   2.07792379E-08
  -3.21500003E-02   2.92347764E-08
  -3.20999995E-02   2.14580851E-08
  -3.20499986E-02  -3.55609964E-09
  -3.20000015E-02  -3.91773973E-08
  -3.19500007E-02  -7.38193648E-08
  -3.18999998E-02  -9.60283657E-08
  -3.18499990E-02  -9.97480427E-08
  -3.18000019E-02  -8.73358488E-08
  -3.17500010E-02  -6.88306727E-08
  -3.17000002E-02  -5.76315244E-08
  -3.16499993E-02  -6.44147633E-08
  -3.15999985E-02  -9.20193628E-08
  -3.15500014E-02  -1.33711083E-07
  -3.15000005E-02  -1.75787392E-07
  -3.14499997E-02  -2.03522973E-07
  -3.13999988E-02  -2.07867004E-07
  -3.13500017E-02  -1.89838687E-07
  -3.13000008E-02  -1.60492363E-07
  -3.12500000E-02  -1.36270955E-07
  -3.11999992E-02  -1.31681290E-07
  -3.11500002E-02  -1.52540693E-07
  -3.10999993E-02  -1.92921036E-07
  -3.10500003E-02  -2.37348999E-07
  -3.09999995E-02  -2.67471478E-07
  -3.09500005E-02  -2.70310153E-07
  -3.08999997E-02  -2.44380828E-07
  -3.08500007E-02  -2.00782168E-07
  -3.07999998E-02  -1.58554968E-07
  -3.07500008E-02  -1.36218915E-07
  -3.07000000E-02  -1.43223929E-07
  -3.06499992E-02  -1.75237545E-07
  -3.06000002E-02  -2.15577558E-07
  -3.05499993E-02  -2.42366269E-07
  -3.05000003E-02  -2.38344398E-07
  -3.04499995E-02  -1.98948271E-07
  -3.04000005E-02  -1.34887941E-07
  -3.03499997E-02  -6.78434660E-08
  -3.03000007E-02  -2.09972271E-08
  -3.02499998E-02  -8.54803783E-09
  -3.02000009E-02  -2.89682394E-08
  -3.01500000E-02  -6.52191616E-08
  -3.00999992E-02  -9.20650791E-08
  -3.00500002E-02  -8.73794122E-08
  -2.99999993E-02  -4.24033360E-08
  -2.99500003E-02   3.37708208E-08
  -2.98999995E-02   1.17732320E-07
  -2.98500005E-02   1.81948977E-07
  -2.97999997E-02   2.07185565E-07
  -2.97500007E-02   1.91540110E-07
  -2.96999998E-02   1.51856526E-07
  -2.96500009E-02   1.16615077E-07
  -2.96000000E-02   1.13269060E-07
  -2.95499992E-02   1.55629650E-07
  -2.95000002E-02   2.37059822E-07
  -2.94499993E-02   3.32768451E-07
  -2.94000003E-02   4.10439327E-07
  -2.93499995E-02   4.44603927E-07
  -2.93000005E-02   4.28322210E-07
  -2.92499997E-02   3.76773244E-07
  -2.92000007E-02   3.20888432E-07
  -2.91499998E-02   2.93643666E-07
  -2.91000009E-02   3.15042797E-07
  -2.90500000E-02   3.82593640E-07
  -2.89999992E-02   4.71772381E-07
  -2.89500002E-02   5.46547994E-07
  -2.88999993E-02   5.75454294E-07
  -2.88500004E-02   5.46039701E-07
  -2.87999995E-02   4.71063686E-07
  -2.87500005E-02   3.83390130E-07
  -2.86999997E-02   3.21593944E-07
  -2.86500007E-02   3.12582671E-07
  -2.85999998E-02   3.59056628E-07
  -2.85500009E-02   4.37633275E-07
  -2.85000000E-02   5.08763890E-07
  -2.84499992E-02   5.34239291E-07
  -2.84000002E-02   4.94526830E-07
  -2.83499993E-02   3.98057409E-07
  -2.83000004E-02   2.78044411E-07
  -2.82499995E-02   1.77975878E-07
  -2.82000005E-02   1.32105725E-07
  -2.81499997E-02   1.49700398E-07
  -2.81000007E-02   2.10300030E-07
  -2.80499998E-02   2.72408869E-07
  -2.80000009E-02   2.91976903E-07
  -2.79500000E-02   2.42493769E-07
  -2.78999992E-02   1.27591150E-07
  -2.78500002E-02  -1.97559586E-08
  -2.77999993E-02  -1.51386956E-07
  -2.77500004E-02  -2.25356857E-07
  -2.76999995E-02  -2.25027605E-07
  -2.76500005E-02  -1.67122295E-07
  -2.75999997E-02  -9.48239034E-08
  -2.75500007E-02  -5.87126010E-08
  -2.74999999E-02  -9.39266229E-08
  -2.74500009E-02  -2.03833395E-07
  -2.74000000E-02  -3.57763895E-07
  -2.73499992E-02  -5.04133823E-07
  -2.73000002E-02  -5.93314098E-07
  -2.72499993E-02  -6.00069995E-07
  -2.72000004E-02  -5.35372919E-07
  -2.71499995E-02  -4.42002090E-07
  -2.71000005E-02  -3.75601019E-07
  -2.70499997E-02  -3.79495106E-07
  -2.70000007E-02  -4.64585128E-07
  -2.69499999E-02  -6.03561546E-07
  -2.69000009E-02  -7.42365899E-07
  -2.68500000E-02  -8.24040967E-07
  -2.67999992E-02  -8.14382759E-07
  -2.67500002E-02  -7.17778619E-07
  -2.66999993E-02  -5.75852880E-07
  -2.66500004E-02  -4.49206880E-07
  -2.65999995E-02  -3.90228877E-07
  -2.65500005E-02  -4.19152514E-07
  -2.64999997E-02  -5.14298279E-07
  -2.64500007E-02  -6.21191475E-07
  -2.63999999E-02  -6.76760862E-07
  -2.63500009E-02  -6.37894686E-07
  -2.63000000E-02  -5.01446777E-07
  -2.62499992E-02  -3.06435396E-07
  -2.62000002E-02  -1.17111533E-07
  -2.61499994E-02   5.74645886E-09
  -2.61000004E-02   3.24609779E-08
  -2.60499995E-02  -2.15853806E-08
  -2.60000005E-02  -1.02254972E-07
  -2.59499997E-02  -1.40718058E-07
  -2.59000007E-02  -8.46443413E-08
  -2.58499999E-02   7.75352760E-08
  -2.58000009E-02   3.10451270E-07
  -2.57500000E-02   5.46823912E-07
  -2.56999992E-02   7.17222747E-07
  -2.56500002E-02   7.81269591E-07
  -2.55999994E-02   7.46105229E-07
  -2.55500004E-02   6.63506967E-07
  -2.54999995E-02   6.06617789E-07
  -2.54500005E-02   6.36555114E-07
  -2.53999997E-02   7.73949694E-07
  -2.53500007E-02   9.88465104E-07
  -2.52999999E-02   1.21136748E-06
  -2.52500009E-02   1.36579547E-06
  -2.52000000E-02   1.40122984E-06
  -2.51499992E-02   1.31652689E-06
  -2.51000002E-02   1.16084243E-06
  -2.50499994E-02   1.01167302E-06
  -2.50000004E-02   9.39654058E-07
  -2.49499995E-02   9.75950911E-07
  -2.49000005E-02   1.09714233E-06
  -2.48499997E-02   1.23474649E-06
  -2.48000007E-02   1.30541014E-06
  -2.47499999E-02   1.24829364E-06
  -2.47000009E-02   1.05269987E-06
  -2.46500000E-02   7.63204469E-07
  -2.45999992E-02   4.59623834E-07
  -2.45500002E-02   2.20617025E-07
  -2.44999994E-02   8.73220642E-08
  -2.44500004E-02   4.36498588E-08
  -2.43999995E-02   2.24913084E-08
  -2.43500005E-02  -6.46075975E-08
  -2.42999997E-02  -2.87515917E-07
  -2.42500007E-02  -6.65444702E-07
  -2.41999999E-02  -1.15751948E-06
  -2.41500009E-02  -1.68064980E-06
  -2.41000000E-02  -2.14692773E-06
  -2.40499992E-02  -2.50373978E-06
  -2.40000002E-02  -2.75828961E-06
  -2.39499994E-02  -2.97510064E-06
  -2.39000004E-02  -3.24726534E-06
  -2.38499995E-02  -3.65423216E-06
  -2.38000005E-02  -4.22526318E-06
  -2.37499997E-02  -4.92535492E-06
  -2.37000007E-02  -5.67038387E-06
  -2.36499999E-02  -6.36494042E-06
  -2.36000009E-02  -6.94582104E-06
  -2.35500000E-02  -7.41132635E-06
  -2.34999992E-02  -7.82271854E-06
  -2.34500002E-02  -8.27678832E-06
  -2.33999994E-02  -8.86169801E-06
  -2.33500004E-02  -9.61612932E-06
  -2.32999995E-02  -1.05105200E-05
  -2.32500006E-02  -1.14592876E-05
  -2.31999997E-02  -1.23588788E-05
  -2.31500007E-02  -1.31345514E-05
  -2.30999999E-02  -1.37745528E-05
  -2.30500009E-02  -1.43358620E-05
  -2.30000000E-02  -1.49184752E-05
  -2.29499992E-02  -1.56196129E-05
  -2.29000002E-02  -1.64886205E-05
  -2.28499994E-02  -1.75032910E-05
  -2.28000004E-02  -1.85787703E-05
  -2.27499995E-02  -1.96053752E-05
  -2.27000006E-02  -2.04983462E-05
  -2.26499997E-02  -2.12368232E-05
  -2.26000007E-02  -2.18739206E-05
  -2.25499999E-02  -2.25129315E-05
  -2.25000009E-02  -2.32601105E-05
  -2.24500000E-02  -2.41754187E-05
  -2.23999992E-02  -2.52438822E-05
  -2.23500002E-02  -2.63810125E-05
  -2.22999994E-02  -2.74702652E-05
  -2.22500004E-02  -2.84158359E-05
  -2.21999995E-02  -2.91866272E-05
  -2.21500006E-02  -2.98310533E-05
  -2.20999997E-02  -3.04554724E-05
  -2.20500007E-02  -3.11756667E-05
  -2.19999999E-02  -3.20633917E-05
  -2.19500009E-02  -3.31124829E-05
  -2.19000001E-02  -3.42404892E-05
  -2.18499992E-02  -3.53254654E-05
  -2.18000002E-02  -3.62616192E-05
  -2.17499994E-02  -3.70084454E-05
  -2.17000004E-02  -3.76104617E-05
  -2.16499995E-02  -3.81782193E-05
  -2.16000006E-02  -3.88386870E-05
  -2.15499997E-02  -3.96773794E-05
  -2.15000007E-02  -4.06987274E-05
  -2.14499999E-02  -4.18232921E-05
  -2.14000009E-02  -4.29236425E-05
  -2.13500001E-02  -4.38828065E-05
  -2.12999992E-02  -4.46487211E-05
  -2.12500002E-02  -4.52596396E-05
  -2.11999994E-02  -4.58281720E-05
  -2.11500004E-02  -4.64909135E-05
  -2.10999995E-02  -4.73464752E-05
  -2.10500006E-02  -4.84100710E-05
  -2.09999997E-02  -4.96060275E-05
  -2.09500007E-02  -5.08022022E-05
  -2.08999999E-02  -5.18711313E-05
  -2.08500009E-02  -5.27498523E-05
  -2.08000001E-02  -5.34712017E-05
  -2.07499992E-02  -5.41513837E-05
  -2.07000002E-02  -5.49388205E-05
  -2.06499994E-02  -5.59475448E-05
  -2.06000004E-02  -5.72052486E-05
  -2.05499995E-02  -5.86404894E-05
  -2.05000006E-02  -6.01152569E-05
  -2.04499997E-02  -6.14885212E-05
  -2.04000007E-02  -6.26822657E-05
  -2.03499999E-02  -6.37193807E-05
  -2.03000009E-02  -6.47155903E-05
  -2.02500001E-02  -6.58284334E-05
  -2.01999992E-02  -6.71862654E-05
  -2.01500002E-02  -6.88295622E-05
  -2.00999994E-02  -7.06918436E-05
  -2.00500004E-02  -7.26297658E-05
  -1.99999996E-02  -7.44890422E-05
  -1.99500006E-02  -7.61765332E-05
  -1.98999997E-02  -7.77054302E-05
  -1.98500007E-02  -7.91921193E-05
  -1.97999999E-02  -8.08054756E-05
  -1.97500009E-02  -8.26912365E-05
  -1.97000001E-02  -8.49057615E-05
  -1.96499992E-02  -8.73897734E-05
  -1.96000002E-02  -8.99947190E-05
  -1.95499994E-02  -9.25507120E-05
  -1.95000004E-02  -9.49450696E-05
  -1.94499996E-02  -9.71756381E-05
  -1.94000006E-02  -9.93543435E-05
  -1.93499997E-02  -1.01657723E-04
  -1.93000007E-02  -1.04247316E-04
  -1.92499999E-02  -1.07195810E-04
  -1.92000009E-02  -1.10452806E-04
  -1.91500001E-02  -1.13866721E-04
  -1.90999992E-02  -1.17253476E-04
  -1.90500002E-02  -1.20481600E-04
  -1.89999994E-02  -1.23534439E-04
  -1.89500004E-02  -1.26520143E-04
  -1.88999996E-02  -1.29624794E-04
  -1.88500006E-02  -1.33029069E-04
  -1.87999997E-02  -1.36825940E-04
  -1.87500007E-02  -1.40977339E-04
  -1.86999999E-02  -1.45330152E-04
  -1.86500009E-02  -1.49685657E-04
  -1.86000001E-02  -1.53890403E-04
  -1.85499992E-02  -1.57907984E-04
  -1.85000002E-02  -1.61838194E-04
  -1.84499994E-02  -1.65873891E-04
  -1.84000004E-02  -1.70214276E-04
  -1.83499996E-02  -1.74973975E-04
  -1.83000006E-02  -1.80129791E-04
  -1.82499997E-02  -1.85530007E-04
  -1.82000007E-02  -1.90962630E-04
  -1.81499999E-02  -1.96251960E-04
  -1.81000009E-02  -2.01340794E-04
  -1.80500001E-02  -2.06319441E-04
  -1.79999992E-02  -2.11387392E-04
  -1.79500002E-02  -2.16764398E-04
  -1.78999994E-02  -2.22591363E-04
  -1.78500004E-02  -2.28865771E-04
  -1.77999996E-02  -2.35442028E-04
  -1.77500006E-02  -2.42097725E-04
  -1.76999997E-02  -2.48635071E-04
  -1.76500008E-02  -2.54973653E-04
  -1.75999999E-02  -2.61189998E-04
  -1.75500009E-02  -2.67485215E-04
  -1.75000001E-02  -2.74096179E-04
  -1.74499992E-02  -2.81189015E-04
  -1.74000002E-02  -2.88782845E-04
  -1.73499994E-02  -2.96740793E-04
  -1.73000004E-02  -3.04831279E-04
  -1.72499996E-02  -3.12834134E-04
  -1.72000006E-02  -3.20643885E-04
  -1.71499997E-02  -3.28320748E-04
  -1.71000008E-02  -3.36067431E-04
  -1.70499999E-02  -3.44140542E-04
  -1.70000009E-02  -3.52736301E-04
  -1.69500001E-02  -3.61902348E-04
  -1.68999992E-02  -3.71517031E-04
  -1.68500002E-02  -3.81345861E-04
  -1.67999994E-02  -3.91149340E-04
  -1.67500004E-02  -4.00795398E-04
  -1.66999996E-02  -4.10324283E-04
  -1.66500006E-02  -4.19934076E-04
  -1.65999997E-02  -4.29895386E-04
  -1.65500008E-02  -4.40430566E-04
  -1.64999999E-02  -4.51613741E-04
  -1.64500009E-02  -4.63337929E-04
  -1.64000001E-02  -4.75364708E-04
  -1.63499992E-02  -4.87433630E-04
  -1.63000003E-02  -4.99383546E-04
  -1.62499994E-02  -5.11231076E-04
  -1.62000004E-02  -5.23167022E-04
  -1.61499996E-02  -5.35474566E-04
  -1.61000006E-02  -5.48406271E-04
  -1.60499997E-02  -5.62070985E-04
  -1.60000008E-02  -5.76385821E-04
  -1.59499999E-02  -5.91115968E-04
  -1.59000009E-02  -6.05983369E-04
  -1.58500001E-02  -6.20797102E-04
  -1.57999992E-02  -6.35544187E-04
  -1.57500003E-02  -6.50401053E-04
  -1.56999994E-02  -6.65657280E-04
  -1.56500004E-02  -6.81586738E-04
  -1.55999996E-02  -6.98325573E-04
  -1.55499997E-02  -7.15812028E-04
  -1.54999997E-02  -7.33814493E-04
  -1.54499998E-02  -7.52038904E-04
  -1.53999999E-02  -7.70264189E-04
  -1.53500000E-02  -7.88447098E-04
  -1.53000001E-02  -8.06747179E-04
  -1.52500002E-02  -8.25457100E-04
  -1.52000003E-02  -8.44875292E-04
  -1.51500003E-02  -8.65171955E-04
  -1.51000004E-02  -8.86314199E-04
  -1.50499996E-02  -9.08081769E-04
  -1.49999997E-02  -9.30169597E-04
  -1.49499997E-02  -9.52329021E-04
  -1.48999998E-02  -9.74483497E-04
  -1.48499999E-02  -9.96768358E-04
  -1.48000000E-02  -1.01947319E-03
  -1.47500001E-02  -1.04291225E-03
  -1.47000002E-02  -1.06728589E-03
  -1.46500003E-02  -1.09258923E-03
  -1.46000003E-02  -1.11861341E-03
  -1.45500004E-02  -1.14504551E-03
  -1.44999996E-02  -1.17160974E-03
  -1.44499997E-02  -1.19819632E-03
  -1.43999998E-02  -1.22491713E-03
  -1.43499998E-02  -1.25205528E-03
  -1.42999999E-02  -1.27994095E-03
  -1.42500000E-02  -1.30880484E-03
  -1.42000001E-02  -1.33867457E-03
  -1.41500002E-02  -1.36936409E-03
  -1.41000003E-02  -1.40055921E-03
  -1.40500003E-02  -1.43196317E-03
  -1.40000004E-02  -1.46343594E-03
  -1.39499996E-02  -1.49506063E-03
  -1.38999997E-02  -1.52710965E-03
  -1.38499998E-02  -1.55992538E-03
  -1.37999998E-02  -1.59376487E-03
  -1.37499999E-02  -1.62868435E-03
  -1.37000000E-02  -1.66451791E-03
  -1.36500001E-02  -1.70095358E-03
  -1.36000002E-02  -1.73767563E-03
  -1.35500003E-02  -1.77451188E-03
  -1.35000004E-02  -1.81151845E-03
  -1.34500004E-02  -1.84895576E-03
  -1.33999996E-02  -1.88717362E-03
  -1.33499997E-02  -1.92645483E-03
  -1.32999998E-02  -1.96688878E-03
  -1.32499998E-02  -2.00833404E-03
  -1.31999999E-02  -2.05048337E-03
  -1.31500000E-02  -2.09300756E-03
  -1.31000001E-02  -2.13571452E-03
  -1.30500002E-02  -2.17863917E-03
  -1.30000003E-02  -2.22202740E-03
  -1.29500004E-02  -2.26623239E-03
  -1.29000004E-02  -2.31155963E-03
  -1.28499996E-02  -2.35812785E-03
  -1.27999997E-02  -2.40581576E-03
  -1.27499998E-02  -2.45432300E-03
  -1.26999998E-02  -2.50331289E-03
  -1.26499999E-02  -2.55256193E-03
  -1.26000000E-02  -2.60207150E-03
  -1.25500001E-02  -2.65207235E-03
  -1.25000002E-02  -2.70291581E-03
  -1.24500003E-02  -2.75492272E-03
  -1.24000004E-02  -2.80824001E-03
  -1.23500004E-02  -2.86277919E-03
  -1.22999996E-02  -2.91825831E-03
  -1.22499997E-02  -2.97433883E-03
  -1.21999998E-02  -3.03079328E-03
  -1.21499998E-02  -3.08760372E-03
  -1.20999999E-02  -3.14498018E-03
  -1.20500000E-02  -3.20326909E-03
  -1.20000001E-02  -3.26279947E-03
  -1.19500002E-02  -3.32373683E-03
  -1.19000003E-02  -3.38601018E-03
  -1.18500004E-02  -3.44935199E-03
  -1.18000004E-02  -3.51342210E-03
  -1.17499996E-02  -3.57796135E-03
  -1.16999997E-02  -3.64292320E-03
  -1.16499998E-02  -3.70849506E-03
  -1.15999999E-02  -3.77501431E-03
  -1.15499999E-02  -3.84282740E-03
  -1.15000000E-02  -3.91213130E-03
  -1.14500001E-02  -3.98288853E-03
  -1.14000002E-02  -4.05484997E-03
  -1.13500003E-02  -4.12767800E-03
  -1.13000004E-02  -4.20110719E-03
  -1.12500004E-02  -4.27506911E-03
  -1.11999996E-02  -4.34973091E-03
  -1.11499997E-02  -4.42541623E-03
  -1.10999998E-02  -4.50245943E-03
  -1.10499999E-02  -4.58106818E-03
  -1.09999999E-02  -4.66121919E-03
  -1.09500000E-02  -4.74265916E-03
  -1.09000001E-02  -4.82503884E-03
  -1.08500002E-02  -4.90807649E-03
  -1.08000003E-02  -4.99167899E-03
  -1.07500004E-02  -5.07599860E-03
  -1.07000005E-02  -5.16137155E-03
  -1.06499996E-02  -5.24815219E-03
  -1.05999997E-02  -5.33656217E-03
  -1.05499998E-02  -5.42660104E-03
  -1.04999999E-02  -5.51804621E-03
  -1.04499999E-02  -5.61054843E-03
  -1.04000000E-02  -5.70380548E-03
  -1.03500001E-02  -5.79770980E-03
  -1.03000002E-02  -5.89237874E-03
  -1.02500003E-02  -5.98812103E-03
  -1.02000004E-02  -6.08529104E-03
  -1.01500005E-02  -6.18411973E-03
  -1.00999996E-02  -6.28461735E-03
  -1.00499997E-02  -6.38655433E-03
  -9.99999978E-03  -6.48956932E-03
  -9.94999986E-03  -6.59333961E-03
  -9.89999995E-03  -6.69773342E-03
  -9.85000003E-03  -6.80286577E-03
  -9.80000012E-03  -6.90904213E-03
  -9.75000020E-03  -7.01662619E-03
  -9.70000029E-03  -7.12587219E-03
  -9.65000037E-03  -7.23679783E-03
  -9.60000046E-03  -7.34918658E-03
  -9.54999961E-03  -7.46269012E-03
  -9.49999969E-03  -7.57698203E-03
  -9.44999978E-03  -7.69190537E-03
  -9.39999986E-03  -7.80756213E-03
  -9.34999995E-03  -7.92426709E-03
  -9.30000003E-03  -8.04237742E-03
  -9.25000012E-03  -8.16213991E-03
  -9.20000020E-03  -8.28359462E-03
  -9.15000029E-03  -8.40652827E-03
  -9.10000037E-03  -8.53055995E-03
  -9.05000046E-03  -8.65533110E-03
  -8.99999961E-03  -8.78066197E-03
  -8.94999970E-03  -8.90660752E-03
  -8.89999978E-03  -9.03344341E-03
  -8.84999987E-03  -9.16153844E-03
  -8.79999995E-03  -9.29117203E-03
  -8.75000004E-03  -9.42240097E-03
  -8.70000012E-03  -9.55502503E-03
  -8.65000021E-03  -9.68867820E-03
  -8.60000029E-03  -9.82297584E-03
  -8.55000038E-03  -9.95769352E-03
  -8.50000046E-03  -1.00928983E-02
  -8.44999962E-03  -1.02288714E-02
  -8.39999970E-03  -1.03659881E-02
  -8.34999979E-03  -1.05045680E-02
  -8.29999987E-03  -1.06446808E-02
  -8.24999996E-03  -1.07861254E-02
  -8.20000004E-03  -1.09285079E-02
  -8.15000013E-03  -1.10714035E-02
  -8.10000021E-03  -1.12145683E-02
  -8.05000030E-03  -1.13580180E-02
  -8.00000038E-03  -1.15020229E-02
  -7.95000046E-03  -1.16469702E-02
  -7.89999962E-03  -1.17931636E-02
  -7.84999970E-03  -1.19406972E-02
  -7.79999979E-03  -1.20893512E-02
  -7.74999987E-03  -1.22386869E-02
  -7.69999996E-03  -1.23882648E-02
  -7.65000004E-03  -1.25378072E-02
  -7.60000013E-03  -1.26872621E-02
  -7.55000021E-03  -1.28368856E-02
  -7.49999983E-03  -1.29871322E-02
  -7.44999992E-03  -1.31383669E-02
  -7.40000000E-03  -1.32907210E-02
  -7.35000009E-03  -1.34440027E-02
  -7.30000017E-03  -1.35977501E-02
  -7.24999979E-03  -1.37514714E-02
  -7.19999988E-03  -1.39048109E-02
  -7.14999996E-03  -1.40577015E-02
  -7.10000005E-03  -1.42103778E-02
  -7.05000013E-03  -1.43632675E-02
  -7.00000022E-03  -1.45167755E-02
  -6.94999984E-03  -1.46710565E-02
  -6.89999992E-03  -1.48259401E-02
  -6.85000001E-03  -1.49809550E-02
  -6.80000009E-03  -1.51355155E-02
  -6.75000018E-03  -1.52891688E-02
  -6.69999979E-03  -1.54418219E-02
  -6.64999988E-03  -1.55937206E-02
  -6.59999996E-03  -1.57453418E-02
  -6.55000005E-03  -1.58971027E-02
  -6.50000013E-03  -1.60491597E-02
  -6.45000022E-03  -1.62013341E-02
  -6.39999984E-03  -1.63530912E-02
  -6.34999992E-03  -1.65038072E-02
  -6.30000001E-03  -1.66530441E-02
  -6.25000009E-03  -1.68006737E-02
  -6.20000018E-03  -1.69469360E-02
  -6.14999980E-03  -1.70922689E-02
  -6.09999988E-03  -1.72370598E-02
  -6.04999997E-03  -1.73815582E-02
  -6.00000005E-03  -1.75256114E-02
  -5.95000014E-03  -1.76686943E-02
  -5.90000022E-03  -1.78101677E-02
  -5.84999984E-03  -1.79494899E-02
  -5.79999993E-03  -1.80864818E-02
  -5.75000001E-03  -1.82213131E-02
  -5.70000010E-03  -1.83543880E-02
  -5.65000018E-03  -1.84862018E-02
  -5.59999980E-03  -1.86169893E-02
  -5.54999989E-03  -1.87465772E-02
  -5.49999997E-03  -1.88744757E-02
  -5.45000006E-03  -1.89999714E-02
  -5.40000014E-03  -1.91224944E-02
  -5.35000023E-03  -1.92418285E-02
  -5.29999984E-03  -1.93580743E-02
  -5.24999993E-03  -1.94715969E-02
  -5.20000001E-03  -1.95828900E-02
  -5.15000010E-03  -1.96923073E-02
  -5.10000018E-03  -1.97996944E-02
  -5.04999980E-03  -1.99044775E-02
  -4.99999989E-03  -2.00059675E-02
  -4.94999997E-03  -2.01035216E-02
  -4.90000006E-03  -2.01968476E-02
  -4.85000014E-03  -2.02861354E-02
  -4.80000023E-03  -2.03718059E-02
  -4.74999985E-03  -2.04543062E-02
  -4.69999993E-03  -2.05339864E-02
  -4.65000002E-03  -2.06107516E-02
  -4.60000010E-03  -2.06840113E-02
  -4.55000019E-03  -2.07530018E-02
  -4.49999981E-03  -2.08169892E-02
  -4.44999989E-03  -2.08755266E-02
  -4.39999998E-03  -2.09286865E-02
  -4.35000006E-03  -2.09769327E-02
  -4.30000015E-03  -2.10208297E-02
  -4.25000023E-03  -2.10607667E-02
  -4.19999985E-03  -2.10967362E-02
  -4.14999994E-03  -2.11281590E-02
  -4.10000002E-03  -2.11541355E-02
  -4.05000011E-03  -2.11738441E-02
  -4.00000019E-03  -2.11867709E-02
  -3.94999981E-03  -2.11929567E-02
  -3.89999989E-03  -2.11928543E-02
  -3.84999998E-03  -2.11871061E-02
  -3.80000006E-03  -2.11761910E-02
  -3.74999992E-03  -2.11601537E-02
  -3.70000000E-03  -2.11385153E-02
  -3.65000009E-03  -2.11103279E-02
  -3.59999994E-03  -2.10745782E-02
  -3.55000002E-03  -2.10307091E-02
  -3.50000011E-03  -2.09786277E-02
  -3.44999996E-03  -2.09186375E-02
  -3.40000005E-03  -2.08514072E-02
  -3.34999990E-03  -2.07775887E-02
  -3.29999998E-03  -2.06973702E-02
  -3.25000007E-03  -2.06102543E-02
  -3.19999992E-03  -2.05152873E-02
  -3.15000000E-03  -2.04113964E-02
  -3.10000009E-03  -2.02976968E-02
  -3.04999994E-03  -2.01739073E-02
  -3.00000003E-03  -2.00404599E-02
  -2.95000011E-03  -1.98981427E-02
  -2.89999996E-03  -1.97476577E-02
  -2.85000005E-03  -1.95892882E-02
  -2.79999990E-03  -1.94226727E-02
  -2.74999999E-03  -1.92468259E-02
  -2.70000007E-03  -1.90606136E-02
  -2.64999992E-03  -1.88630614E-02
  -2.60000001E-03  -1.86536610E-02
  -2.55000009E-03  -1.84327438E-02
  -2.49999994E-03  -1.82010084E-02
  -2.45000003E-03  -1.79592911E-02
  -2.40000011E-03  -1.77082606E-02
  -2.34999997E-03  -1.74476672E-02
  -2.30000005E-03  -1.71764866E-02
  -2.24999990E-03  -1.68933515E-02
  -2.19999999E-03  -1.65970717E-02
  -2.15000007E-03  -1.62870921E-02
  -2.09999993E-03  -1.59635842E-02
  -2.05000001E-03  -1.56271942E-02
  -2.00000009E-03  -1.52788684E-02
  -1.94999995E-03  -1.49193602E-02
  -1.90000003E-03  -1.45485830E-02
  -1.85000000E-03  -1.41656278E-02
  -1.79999997E-03  -1.37691740E-02
  -1.75000005E-03  -1.33579215E-02
  -1.70000002E-03  -1.29310060E-02
  -1.64999999E-03  -1.24884034E-02
  -1.59999996E-03  -1.20308110E-02
  -1.55000004E-03  -1.15592740E-02
  -1.50000001E-03  -1.10746110E-02
  -1.44999998E-03  -1.05770426E-02
  -1.39999995E-03  -1.00659141E-02
  -1.35000004E-03  -9.53970570E-03
  -1.30000000E-03  -8.99695978E-03
  -1.24999997E-03  -8.43663607E-03
  -1.20000006E-03  -7.85851758E-03
  -1.15000003E-03  -7.26333121E-03
  -1.09999999E-03  -6.65215915E-03
  -1.04999996E-03  -6.02592248E-03
  -1.00000005E-03  -5.38494904E-03
  -9.50000016E-04  -4.72868420E-03
  -8.99999985E-04  -4.05580737E-03
  -8.50000011E-04  -3.36467545E-03
  -7.99999980E-04  -2.65412149E-03
  -7.50000007E-04  -1.92379905E-03
  -6.99999975E-04  -1.17406819E-03
  -6.50000002E-04  -4.05962375E-04
  -6.00000028E-04   3.79266217E-04
  -5.49999997E-04   1.18097838E-03
  -5.00000024E-04   1.99966063E-03
  -4.49999992E-04   2.83657247E-03
  -3.99999990E-04   3.69336596E-03
  -3.49999988E-04   4.57137404E-03
  -3.00000014E-04   5.47109311E-03
  -2.50000012E-04   6.39209058E-03
  -1.99999995E-04   7.33322138E-03
  -1.50000007E-04   8.29330552E-03
  -9.99999975E-05   9.27161984E-03
  -4.99999987E-05   1.02684209E-02
   0.00000000       1.12850424E-02
   4.99999987E-05   1.23231933E-02
   9.99999975E-05   1.33841718E-02
   1.50000007E-04   1.44685144E-02
   1.99999995E-04   1.55759659E-02
   2.50000012E-04   1.67055558E-02
   3.00000014E-04   1.78559795E-02
   3.49999988E-04   1.90264601E-02
   3.99999990E-04   2.02172045E-02
   4.49999992E-04   2.14293096E-02
   5.00000024E-04   2.26643253E-02
   5.49999997E-04   2.39235722E-02
   6.00000028E-04   2.52077524E-02
   6.50000002E-04   2.65167076E-02
   6.99999975E-04   2.78494973E-02
   7.50000007E-04   2.92048380E-02
   7.99999980E-04   3.05817798E-02
   8.50000011E-04   3.19801867E-02
   8.99999985E-04   3.34009565E-02
   9.50000016E-04   3.48456167E-02
   1.00000005E-03   3.63157131E-02
   1.04999996E-03   3.78121659E-02
   1.09999999E-03   3.93348634E-02
   1.15000003E-03   4.08827849E-02
   1.20000006E-03   4.24545370E-02
   1.24999997E-03   4.40490842E-02
   1.30000000E-03   4.56661880E-02
   1.35000004E-03   4.73066419E-02
   1.39999995E-03   4.89719585E-02
   1.44999998E-03   5.06637581E-02
   1.50000001E-03   5.23829795E-02
   1.55000004E-03   5.41294701E-02
   1.59999996E-03   5.59022538E-02
   1.64999999E-03   5.76999784E-02
   1.70000002E-03   5.95215373E-02
   1.75000005E-03   6.13665804E-02
   1.79999997E-03   6.32357448E-02
   1.85000000E-03   6.51303753E-02
   1.90000003E-03   6.70519844E-02
   1.94999995E-03   6.90015256E-02
   2.00000009E-03   7.09789768E-02
   2.05000001E-03   7.29833245E-02
   2.09999993E-03   7.50131011E-02
   2.15000007E-03   7.70670474E-02
   2.19999999E-03   7.91447386E-02
   2.24999990E-03   8.12467039E-02
   2.30000005E-03   8.33742097E-02
   2.34999997E-03   8.55287090E-02
   2.40000011E-03   8.77112150E-02
   2.45000003E-03   8.99218693E-02
   2.49999994E-03   9.21598226E-02
   2.55000009E-03   9.44236293E-02
   2.60000001E-03   9.67117846E-02
   2.64999992E-03   9.90234390E-02
   2.70000007E-03  0.101358920    
   2.74999999E-03  0.103719406    
   2.79999990E-03  0.106106333    