  -3.99999991E-02   0.00000000    
  -3.99499983E-02   0.00000000    
  -3.99000011E-02   0.00000000    
  -3.98500003E-02   0.00000000    
  -3.97999994E-02   8.54345999E-20
  -3.97499986E-02   7.27890350E-19
  -3.97000015E-02   3.25618593E-18
  -3.96500006E-02   1.01663260E-17
  -3.95999998E-02   2.50782484E-17
  -3.95499989E-02   5.27969533E-17
  -3.95000018E-02   1.00065620E-16
  -3.94500010E-02   1.76326716E-16
  -3.94000001E-02   2.92381983E-16
  -3.93499993E-02   4.55935654E-16
  -3.92999984E-02   6.66906626E-16
  -3.92500013E-02   9.17996203E-16
  -3.92000005E-02   1.20280521E-15
  -3.91499996E-02   1.52641647E-15
  -3.90999988E-02   1.90956251E-15
  -3.90500017E-02   2.38263380E-15
  -3.90000008E-02   2.97510243E-15
  -3.89500000E-02   3.70887098E-15
  -3.88999991E-02   4.59720737E-15
  -3.88499983E-02   5.64348237E-15
  -3.88000011E-02   6.83670488E-15
  -3.87500003E-02   8.15111409E-15
  -3.86999995E-02   9.55954947E-15
  -3.86499986E-02   1.10568318E-14
  -3.86000015E-02   1.26728369E-14
  -3.85500006E-02   1.44571397E-14
  -3.84999998E-02   1.64415854E-14
  -3.84499989E-02   1.86097611E-14
  -3.84000018E-02   2.08971922E-14
  -3.83500010E-02   2.32166022E-14
  -3.83000001E-02   2.54812684E-14
  -3.82499993E-02   2.76100503E-14
  -3.81999984E-02   2.95252070E-14
  -3.81500013E-02   3.11628232E-14
  -3.81000005E-02   3.24927869E-14
  -3.80499996E-02   3.35208037E-14
  -3.79999988E-02   3.42553744E-14
  -3.79500017E-02   3.46617571E-14
  -3.79000008E-02   3.46465647E-14
  -3.78500000E-02   3.40881532E-14
  -3.77999991E-02   3.28779633E-14
  -3.77499983E-02   3.09243564E-14
  -3.77000012E-02   2.81151597E-14
  -3.76500003E-02   2.42876940E-14
  -3.75999995E-02   1.92517189E-14
  -3.75499986E-02   1.28507155E-14
  -3.75000015E-02   4.99847737E-15
  -3.74500006E-02  -4.35017614E-15
  -3.73999998E-02  -1.52656564E-14
  -3.73499990E-02  -2.78808450E-14
  -3.73000018E-02  -4.23692352E-14
  -3.72500010E-02  -5.88960101E-14
  -3.72000001E-02  -7.75839557E-14
  -3.71499993E-02  -9.84868383E-14
  -3.70999984E-02  -1.21529387E-13
  -3.70500013E-02  -1.46419199E-13
  -3.70000005E-02  -1.72617888E-13
  -3.69499996E-02  -1.99468507E-13
  -3.68999988E-02  -2.26466754E-13
  -3.68500017E-02  -2.53523249E-13
  -3.68000008E-02  -2.81035937E-13
  -3.67500000E-02  -3.09708531E-13
  -3.66999991E-02  -3.40213101E-13
  -3.66499983E-02  -3.72861193E-13
  -3.66000012E-02  -4.07398751E-13
  -3.65500003E-02  -4.42965868E-13
  -3.64999995E-02  -4.78242717E-13
  -3.64499986E-02  -5.11789992E-13
  -3.64000015E-02  -5.42509776E-13
  -3.63500006E-02  -5.70010781E-13
  -3.62999998E-02  -5.94615828E-13
  -3.62499990E-02  -6.16914560E-13
  -3.62000018E-02  -6.37068035E-13
  -3.61500010E-02  -6.54282130E-13
  -3.61000001E-02  -6.66789269E-13
  -3.60499993E-02  -6.72375675E-13
  -3.59999985E-02  -6.69191373E-13
  -3.59500013E-02  -6.56469074E-13
  -3.59000005E-02  -6.34849107E-13
  -3.58499996E-02  -6.06143608E-13
  -3.57999988E-02  -5.72532635E-13
  -3.57500017E-02  -5.35399633E-13
  -3.57000008E-02  -4.94275302E-13
  -3.56500000E-02  -4.46489688E-13
  -3.55999991E-02  -3.87910678E-13
  -3.55499983E-02  -3.14585841E-13
  -3.55000012E-02  -2.24531819E-13
  -3.54500003E-02  -1.18736550E-13
  -3.53999995E-02  -8.14565380E-16
  -3.53499986E-02   1.24568040E-13
  -3.53000015E-02   2.53808720E-13
  -3.52500007E-02   3.86109818E-13
  -3.51999998E-02   5.24080182E-13
  -3.51499990E-02   6.72812880E-13
  -3.51000018E-02   8.37624078E-13
  -3.50500010E-02   1.02127193E-12
  -3.50000001E-02   1.22192599E-12
  -3.49499993E-02   1.43304487E-12
  -3.48999985E-02   1.64551239E-12
  -3.48500013E-02   1.85119866E-12
  -3.48000005E-02   2.04626181E-12
  -3.47499996E-02   2.23252580E-12
  -3.46999988E-02   2.41619116E-12
  -3.46500017E-02   2.60440411E-12
  -3.46000008E-02   2.80117314E-12
  -3.45500000E-02   3.00443004E-12
  -3.44999991E-02   3.20562023E-12
  -3.44499983E-02   3.39225653E-12
  -3.44000012E-02   3.55259897E-12
  -3.43500003E-02   3.68048430E-12
  -3.42999995E-02   3.77791808E-12
  -3.42499986E-02   3.85382871E-12
  -3.42000015E-02   3.91918355E-12
  -3.41500007E-02   3.98062095E-12
  -3.40999998E-02   4.03566503E-12
  -3.40499990E-02   4.07200012E-12
  -3.40000018E-02   4.07135914E-12
  -3.39500010E-02   4.01646641E-12
  -3.39000002E-02   3.89805332E-12
  -3.38499993E-02   3.71880348E-12
  -3.37999985E-02   3.49221108E-12
  -3.37500013E-02   3.23641786E-12
  -3.37000005E-02   2.96537903E-12
  -3.36499996E-02   2.68130917E-12
  -3.35999988E-02   2.37221983E-12
  -3.35500017E-02   2.01627452E-12
  -3.35000008E-02   1.59139694E-12
  -3.34500000E-02   1.08582338E-12
  -3.33999991E-02   5.04554894E-13
  -3.33499983E-02  -1.31540896E-13
  -3.33000012E-02  -7.93882429E-13
  -3.32500003E-02  -1.45819077E-12
  -3.31999995E-02  -2.11513489E-12
  -3.31499986E-02  -2.77473877E-12
  -3.31000015E-02  -3.46211384E-12
  -3.30500007E-02  -4.20577158E-12
  -3.29999998E-02  -5.02330903E-12
  -3.29499990E-02  -5.91099999E-12
  -3.29000019E-02  -6.84252394E-12
  -3.28500010E-02  -7.77804904E-12
  -3.28000002E-02  -8.67984677E-12
  -3.27499993E-02  -9.52726092E-12
  -3.26999985E-02  -1.03239405E-11
  -3.26500013E-02  -1.10937240E-11
  -3.26000005E-02  -1.18667793E-11
  -3.25499997E-02  -1.26620485E-11
  -3.24999988E-02  -1.34739078E-11
  -3.24500017E-02  -1.42694459E-11
  -3.24000008E-02  -1.49983671E-11
  -3.23500000E-02  -1.56118920E-11
  -3.22999991E-02  -1.60824357E-11
  -3.22499983E-02  -1.64147671E-11
  -3.22000012E-02  -1.66426734E-11
  -3.21500003E-02  -1.68118349E-11
  -3.20999995E-02  -1.69563304E-11
  -3.20499986E-02  -1.70795773E-11
  -3.20000015E-02  -1.71487494E-11
  -3.19500007E-02  -1.71056745E-11
  -3.18999998E-02  -1.68898142E-11
  -3.18499990E-02  -1.64634521E-11
  -3.18000019E-02  -1.58278581E-11
  -3.17500010E-02  -1.50227001E-11
  -3.17000002E-02  -1.41080142E-11
  -3.16499993E-02  -1.31360487E-11
  -3.15999985E-02  -1.21255436E-11
  -3.15500014E-02  -1.10507012E-11
  -3.15000005E-02  -9.85087012E-12
  -3.14499997E-02  -8.45731037E-12
  -3.13999988E-02  -6.82512553E-12
  -3.13500017E-02  -4.95575152E-12
  -3.13000008E-02  -2.89951288E-12
  -3.12500000E-02  -7.36634603E-13
  -3.11999992E-02   1.45531623E-12
  -3.11500002E-02   3.63341020E-12
  -3.10999993E-02   5.80644864E-12
  -3.10500003E-02   8.02877122E-12
  -3.09999995E-02   1.03725544E-11
  -3.09500005E-02   1.28903407E-11
  -3.08999997E-02   1.55848737E-11
  -3.08500007E-02   1.84006699E-11
  -3.07999998E-02   2.12420619E-11
  -3.07500008E-02   2.40100058E-11
  -3.07000000E-02   2.66409950E-11
  -3.06499992E-02   2.91302399E-11
  -3.06000002E-02   3.15282696E-11
  -3.05499993E-02   3.39120051E-11
  -3.05000003E-02   3.63426442E-11
  -3.04499995E-02   3.88288325E-11
  -3.04000005E-02   4.13120753E-11
  -3.03499997E-02   4.36819747E-11
  -3.03000007E-02   4.58159448E-11
  -3.02499998E-02   4.76260836E-11
  -3.02000009E-02   4.90919146E-11
  -3.01500000E-02   5.02632623E-11
  -3.00999992E-02   5.12312484E-11
  -3.00500002E-02   5.20800451E-11
  -2.99999993E-02   5.28411308E-11
  -2.99500003E-02   5.34707313E-11
  -2.98999995E-02   5.38609053E-11
  -2.98500005E-02   5.38800254E-11
  -2.97999997E-02   5.34255626E-11
  -2.97500007E-02   5.24660732E-11
  -2.96999998E-02   5.10532554E-11
  -2.96500009E-02   4.92974550E-11
  -2.96000000E-02   4.73163349E-11
  -2.95499992E-02   4.51792805E-11
  -2.95000002E-02   4.28728268E-11
  -2.94499993E-02   4.03033509E-11
  -2.94000003E-02   3.73363666E-11
  -2.93499995E-02   3.38550646E-11
  -2.93000005E-02   2.98122291E-11
  -2.92499997E-02   2.52526767E-11
  -2.92000007E-02   2.02962942E-11
  -2.91499998E-02   1.50886734E-11
  -2.91000009E-02   9.74060589E-12
  -2.90500000E-02   4.28309731E-12
  -2.89999992E-02  -1.34144952E-12
  -2.89500002E-02  -7.24673750E-12
  -2.88999993E-02  -1.35424493E-11
  -2.88500004E-02  -2.02734895E-11
  -2.87999995E-02  -2.73865462E-11
  -2.87500005E-02  -3.47395897E-11
  -2.86999997E-02  -4.21506302E-11
  -2.86500007E-02  -4.94642938E-11
  -2.85999998E-02  -5.66069344E-11
  -2.85500009E-02  -6.36060996E-11
  -2.85000000E-02  -7.05652203E-11
  -2.84499992E-02  -7.76036041E-11
  -2.84000002E-02  -8.47871287E-11
  -2.83499993E-02  -9.20800589E-11
  -2.83000004E-02  -9.93402791E-11
  -2.82499995E-02  -1.06361302E-10
  -2.82000005E-02  -1.12943557E-10
  -2.81499997E-02  -1.18963242E-10
  -2.81000007E-02  -1.24407859E-10
  -2.80499998E-02  -1.29362521E-10
  -2.80000009E-02  -1.33952960E-10
  -2.79500000E-02  -1.38269993E-10
  -2.78999992E-02  -1.42308387E-10
  -2.78500002E-02  -1.45946699E-10
  -2.77999993E-02  -1.48978191E-10
  -2.77500004E-02  -1.51180748E-10
  -2.76999995E-02  -1.52396554E-10
  -2.76500005E-02  -1.52586943E-10
  -2.75999997E-02  -1.51837126E-10
  -2.75500007E-02  -1.50307655E-10
  -2.74999999E-02  -1.48153573E-10
  -2.74500009E-02  -1.45446502E-10
  -2.74000000E-02  -1.42134499E-10
  -2.73499992E-02  -1.38056969E-10
  -2.73000002E-02  -1.33008632E-10
  -2.72499993E-02  -1.26824884E-10
  -2.72000004E-02  -1.19452490E-10
  -2.71499995E-02  -1.10974605E-10
  -2.71000005E-02  -1.01578447E-10
  -2.70499997E-02  -9.14778878E-11
  -2.70000007E-02  -8.08245068E-11
  -2.69499999E-02  -6.96462332E-11
  -2.69000009E-02  -5.78425259E-11
  -2.68500000E-02  -4.52391423E-11
  -2.67999992E-02  -3.16790136E-11
  -2.67500002E-02  -1.71094788E-11
  -2.66999993E-02  -1.62701222E-12
  -2.66500004E-02   1.45403758E-11
  -2.65999995E-02   3.11065063E-11
  -2.65500005E-02   4.78254623E-11
  -2.64999997E-02   6.45729303E-11
  -2.64500007E-02   8.13744627E-11
  -2.63999999E-02   9.83662665E-11
  -2.63500009E-02   1.15703287E-10
  -2.63000000E-02   1.33454275E-10
  -2.62499992E-02   1.51530677E-10
  -2.62000002E-02   1.69682463E-10
  -2.61499994E-02   1.87564686E-10
  -2.61000004E-02   2.04846792E-10
  -2.60499995E-02   2.21317339E-10
  -2.60000005E-02   2.36938386E-10
  -2.59499997E-02   2.51825311E-10
  -2.59000007E-02   2.66159317E-10
  -2.58499999E-02   2.80068163E-10
  -2.58000009E-02   2.93527341E-10
  -2.57500000E-02   3.06325271E-10
  -2.56999992E-02   3.18110427E-10
  -2.56500002E-02   3.28502670E-10
  -2.55999994E-02   3.37220640E-10
  -2.55500004E-02   3.44168999E-10
  -2.54999995E-02   3.49445695E-10
  -2.54500005E-02   3.53265223E-10
  -2.53999997E-02   3.55831559E-10
  -2.53500007E-02   3.57216090E-10
  -2.52999999E-02   3.57294944E-10
  -2.52500009E-02   3.55774465E-10
  -2.52000000E-02   3.52295554E-10
  -2.51499992E-02   3.46573437E-10
  -2.51000002E-02   3.38511885E-10
  -2.50499994E-02   3.28239436E-10
  -2.50000004E-02   3.16048993E-10
  -2.49499995E-02   3.02264880E-10
  -2.49000005E-02   2.87096041E-10
  -2.48499997E-02   2.70541450E-10
  -2.48000007E-02   2.52391885E-10
  -2.47499999E-02   2.32328087E-10
  -2.47000009E-02   2.10073431E-10
  -2.46500000E-02   1.85534005E-10
  -2.45999992E-02   1.58864047E-10
  -2.45500002E-02   1.30425948E-10
  -2.44999994E-02   1.00660563E-10
  -2.44500004E-02   6.99230743E-11
  -2.43999995E-02   3.83566651E-11
  -2.43500005E-02   5.86352494E-12
  -2.42999997E-02  -2.78109827E-11
  -2.42500007E-02  -6.29161515E-11
  -2.41999999E-02  -9.95280455E-11
  -2.41500009E-02  -1.37452244E-10
  -2.41000000E-02  -1.76242951E-10
  -2.40499992E-02  -2.15330809E-10
  -2.40000002E-02  -2.54205212E-10
  -2.39499994E-02  -2.92571634E-10
  -2.39000004E-02  -3.30413918E-10
  -2.38499995E-02  -3.67933101E-10
  -2.38000005E-02  -4.05386058E-10
  -2.37499997E-02  -4.42894887E-10
  -2.37000007E-02  -4.80311457E-10
  -2.36499999E-02  -5.17199394E-10
  -2.36000009E-02  -5.52945578E-10
  -2.35500000E-02  -5.86950988E-10
  -2.34999992E-02  -6.18815943E-10
  -2.34500002E-02  -6.48436194E-10
  -2.33999994E-02  -6.75967504E-10
  -2.33500004E-02  -7.01674829E-10
  -2.32999995E-02  -7.25732807E-10
  -2.32500006E-02  -7.48066831E-10
  -2.31999997E-02  -7.68305808E-10
  -2.31500007E-02  -7.85870313E-10
  -2.30999999E-02  -8.00159883E-10
  -2.30500009E-02  -8.10756351E-10
  -2.30000000E-02  -8.17551860E-10
  -2.29499992E-02  -8.20741031E-10
  -2.29000002E-02  -8.20680912E-10
  -2.28499994E-02  -8.17681811E-10
  -2.28000004E-02  -8.11824885E-10
  -2.27499995E-02  -8.02887812E-10
  -2.27000006E-02  -7.90413957E-10
  -2.26499997E-02  -7.73893727E-10
  -2.26000007E-02  -7.52977847E-10
  -2.25499999E-02  -7.27628735E-10
  -2.25000009E-02  -6.98140268E-10
  -2.24500000E-02  -6.65016209E-10
  -2.23999992E-02  -6.28758878E-10
  -2.23500002E-02  -5.89662208E-10
  -2.22999994E-02  -5.47704160E-10
  -2.22500004E-02  -5.02587694E-10
  -2.21999995E-02  -4.53912935E-10
  -2.21500006E-02  -4.01402217E-10
  -2.20999997E-02  -3.45076190E-10
  -2.20500007E-02  -2.85304474E-10
  -2.19999999E-02  -2.22708935E-10
  -2.19500009E-02  -1.57962490E-10
  -2.19000001E-02  -9.15745674E-11
  -2.18499992E-02  -2.37558081E-11
  -2.18000002E-02   4.55754948E-11
  -2.17499994E-02   1.16648996E-10
  -2.17000004E-02   1.89623928E-10
  -2.16499995E-02   2.64396643E-10
  -2.16000006E-02   3.40520667E-10
  -2.15499997E-02   4.17277379E-10
  -2.15000007E-02   4.93863228E-10
  -2.14499999E-02   5.69608360E-10
  -2.14000009E-02   6.44127696E-10
  -2.13500001E-02   7.17341575E-10
  -2.12999992E-02   7.89358690E-10
  -2.12500002E-02   8.60274629E-10
  -2.11999994E-02   9.29979427E-10
  -2.11500004E-02   9.98054639E-10
  -2.10999995E-02   1.06381004E-09
  -2.10500006E-02   1.12644050E-09
  -2.09999997E-02   1.18523402E-09
  -2.09500007E-02   1.23973343E-09
  -2.08999999E-02   1.28977973E-09
  -2.08500009E-02   1.33541878E-09
  -2.08000001E-02   1.37671607E-09
  -2.07499992E-02   1.41357082E-09
  -2.07000002E-02   1.44560897E-09
  -2.06499994E-02   1.47220369E-09
  -2.06000004E-02   1.49260959E-09
  -2.05499995E-02   1.50615598E-09
  -2.05000006E-02   1.51240820E-09
  -2.04499997E-02   1.51123192E-09
  -2.04000007E-02   1.50272850E-09
  -2.03499999E-02   1.48707202E-09
  -2.03000009E-02   1.46432266E-09
  -2.02500001E-02   1.43429901E-09
  -2.01999992E-02   1.39656831E-09
  -2.01500002E-02   1.35055378E-09
  -2.00999994E-02   1.29570699E-09
  -2.00500004E-02   1.23166555E-09
  -1.99999996E-02   1.15832655E-09
  -1.99500006E-02   1.07581555E-09
  -1.98999997E-02   9.84361814E-10
  -1.98500007E-02   8.84144979E-10
  -1.97999999E-02   7.75170317E-10
  -1.97500009E-02   6.57235322E-10
  -1.97000001E-02   5.29996047E-10
  -1.96499992E-02   3.93105631E-10
  -1.96000002E-02   2.46354742E-10
  -1.95499994E-02   8.97544539E-11
  -1.95000004E-02  -7.64821678E-11
  -1.94499996E-02  -2.52033755E-10
  -1.94000006E-02  -4.36599784E-10
  -1.93499997E-02  -6.30001440E-10
  -1.93000007E-02  -8.32216351E-10
  -1.92499999E-02  -1.04334286E-09
  -1.92000009E-02  -1.26350064E-09
  -1.91500001E-02  -1.49272728E-09
  -1.90999992E-02  -1.73090464E-09
  -1.90500002E-02  -1.97776040E-09
  -1.89999994E-02  -2.23292362E-09
  -1.89500004E-02  -2.49602961E-09
  -1.88999996E-02  -2.76680745E-09
  -1.88500006E-02  -3.04510994E-09
  -1.87999997E-02  -3.33088379E-09
  -1.87500007E-02  -3.62410035E-09
  -1.86999999E-02  -3.92468014E-09
  -1.86500009E-02  -4.23244328E-09
  -1.86000001E-02  -4.54710714E-09
  -1.85499992E-02  -4.86831775E-09
  -1.85000002E-02  -5.19571408E-09
  -1.84499994E-02  -5.52898527E-09
  -1.84000004E-02  -5.86790661E-09
  -1.83499996E-02  -6.21232887E-09
  -1.83000006E-02  -6.56214549E-09
  -1.82499997E-02  -6.91723745E-09
  -1.82000007E-02  -7.27744576E-09
  -1.81499999E-02  -7.64256480E-09
  -1.81000009E-02  -8.01237032E-09
  -1.80500001E-02  -8.38664604E-09
  -1.79999992E-02  -8.76519657E-09
  -1.79500002E-02  -9.14785847E-09
  -1.78999994E-02  -9.53450030E-09
  -1.78500004E-02  -9.92502613E-09
  -1.77999996E-02  -1.03193658E-08
  -1.77500006E-02  -1.07174714E-08
  -1.76999997E-02  -1.11193224E-08
  -1.76500008E-02  -1.15249126E-08
  -1.75999999E-02  -1.19342536E-08
  -1.75500009E-02  -1.23473498E-08
  -1.75000001E-02  -1.27641719E-08
  -1.74499992E-02  -1.31846338E-08
  -1.74000002E-02  -1.36086209E-08
  -1.73499994E-02  -1.40360319E-08
  -1.73000004E-02  -1.44668340E-08
  -1.72499996E-02  -1.49011044E-08
  -1.72000006E-02  -1.53390332E-08
  -1.71499997E-02  -1.57808948E-08
  -1.71000008E-02  -1.62269806E-08
  -1.70499999E-02  -1.66775376E-08
  -1.70000009E-02  -1.71327343E-08
  -1.69500001E-02  -1.75926544E-08
  -1.68999992E-02  -1.80573654E-08
  -1.68500002E-02  -1.85270022E-08
  -1.67999994E-02  -1.90018206E-08
  -1.67500004E-02  -1.94822469E-08
  -1.66999996E-02  -1.99688142E-08
  -1.66500006E-02  -2.04620747E-08
  -1.65999997E-02  -2.09624691E-08
  -1.65500008E-02  -2.14703011E-08
  -1.64999999E-02  -2.19857554E-08
  -1.64500009E-02  -2.25089654E-08
  -1.64000001E-02  -2.30401476E-08
  -1.63499992E-02  -2.35797071E-08
  -1.63000003E-02  -2.41282798E-08
  -1.62499994E-02  -2.46867025E-08
  -1.62000004E-02  -2.52558650E-08
  -1.61499996E-02  -2.58365667E-08
  -1.61000006E-02  -2.64293956E-08
  -1.60499997E-02  -2.70347442E-08
  -1.60000008E-02  -2.76529111E-08
  -1.59499999E-02  -2.82842869E-08
  -1.59000009E-02  -2.89294704E-08
  -1.58500001E-02  -2.95893461E-08
  -1.57999992E-02  -3.02650314E-08
  -1.57500003E-02  -3.09577644E-08
  -1.56999994E-02  -3.16687014E-08
  -1.56500004E-02  -3.23987450E-08
  -1.55999996E-02  -3.31484848E-08
  -1.55499997E-02  -3.39183188E-08
  -1.54999997E-02  -3.47087230E-08
  -1.54499998E-02  -3.55204151E-08
  -1.53999999E-02  -3.63544963E-08
  -1.53500000E-02  -3.72124269E-08
  -1.53000001E-02  -3.80958269E-08
  -1.52500002E-02  -3.90062986E-08
  -1.52000003E-02  -3.99452169E-08
  -1.51500003E-02  -4.09135623E-08
  -1.51000004E-02  -4.19120383E-08
  -1.50499996E-02  -4.29413021E-08
  -1.49999997E-02  -4.40022596E-08
  -1.49499997E-02  -4.50962254E-08
  -1.48999998E-02  -4.62249439E-08
  -1.48499999E-02  -4.73904329E-08
  -1.48000000E-02  -4.85946750E-08
  -1.47500001E-02  -4.98394250E-08
  -1.47000002E-02  -5.11260616E-08
  -1.46500003E-02  -5.24555794E-08
  -1.46000003E-02  -5.38288809E-08
  -1.45500004E-02  -5.52470460E-08
  -1.44999996E-02  -5.67115670E-08
  -1.44499997E-02  -5.82244262E-08
  -1.43999998E-02  -5.97879861E-08
  -1.43499998E-02  -6.14046414E-08
  -1.42999999E-02  -6.30765484E-08
  -1.42500000E-02  -6.48053486E-08
  -1.42000001E-02  -6.65922855E-08
  -1.41500002E-02  -6.84384247E-08
  -1.41000003E-02  -7.03449956E-08
  -1.40500003E-02  -7.23136608E-08
  -1.40000004E-02  -7.43466870E-08
  -1.39499996E-02  -7.64468027E-08
  -1.38999997E-02  -7.86168499E-08
  -1.38499998E-02  -8.08594223E-08
  -1.37999998E-02  -8.31765448E-08
  -1.37499999E-02  -8.55697024E-08
  -1.37000000E-02  -8.80400322E-08
  -1.36500001E-02  -9.05887774E-08
  -1.36000002E-02  -9.32176860E-08
  -1.35500003E-02  -9.59290531E-08
  -1.35000004E-02  -9.87257067E-08
  -1.34500004E-02  -1.01610787E-07
  -1.33999996E-02  -1.04587322E-07
  -1.33499997E-02  -1.07657726E-07
  -1.32999998E-02  -1.10823819E-07
  -1.32499998E-02  -1.14086887E-07
  -1.31999999E-02  -1.17448188E-07
  -1.31500000E-02  -1.20909448E-07
  -1.31000001E-02  -1.24473090E-07
  -1.30500002E-02  -1.28142119E-07
  -1.30000003E-02  -1.31919890E-07
  -1.29500004E-02  -1.35809685E-07
  -1.29000004E-02  -1.39814219E-07
  -1.28499996E-02  -1.43935466E-07
  -1.27999997E-02  -1.48174948E-07
  -1.27499998E-02  -1.52533900E-07
  -1.26999998E-02  -1.57013844E-07
  -1.26499999E-02  -1.61617109E-07
  -1.26000000E-02  -1.66346581E-07
  -1.25500001E-02  -1.71205528E-07
  -1.25000002E-02  -1.76197219E-07
  -1.24500003E-02  -1.81324310E-07
  -1.24000004E-02  -1.86588849E-07
  -1.23500004E-02  -1.91992285E-07
  -1.22999996E-02  -1.97535854E-07
  -1.22499997E-02  -2.03221177E-07
  -1.21999998E-02  -2.09050711E-07
  -1.21499998E-02  -2.15027995E-07
  -1.20999999E-02  -2.21157123E-07
  -1.20500000E-02  -2.27442158E-07
  -1.20000001E-02  -2.33886325E-07
  -1.19500002E-02  -2.40491971E-07
  -1.19000003E-02  -2.47260516E-07
  -1.18500004E-02  -2.54192969E-07
  -1.18000004E-02  -2.61290353E-07
  -1.17499996E-02  -2.68554231E-07
  -1.16999997E-02  -2.75986935E-07
  -1.16499998E-02  -2.83591561E-07
  -1.15999999E-02  -2.91371975E-07
  -1.15499999E-02  -2.99331873E-07
  -1.15000000E-02  -3.07474494E-07
  -1.14500001E-02  -3.15802282E-07
  -1.14000002E-02  -3.24317483E-07
  -1.13500003E-02  -3.33022740E-07
  -1.13000004E-02  -3.41921691E-07
  -1.12500004E-02  -3.51019025E-07
  -1.11999996E-02  -3.60319689E-07
  -1.11499997E-02  -3.69828257E-07
  -1.10999998E-02  -3.79548425E-07
  -1.10499999E-02  -3.89482977E-07
  -1.09999999E-02  -3.99633564E-07
  -1.09500000E-02  -4.10000922E-07
  -1.09000001E-02  -4.20585792E-07
  -1.08500002E-02  -4.31389253E-07
  -1.08000003E-02  -4.42414290E-07
  -1.07500004E-02  -4.53665649E-07
  -1.07000005E-02  -4.65149384E-07
  -1.06499996E-02  -4.76871321E-07
  -1.05999997E-02  -4.88836804E-07
  -1.05499998E-02  -5.01050636E-07
  -1.04999999E-02  -5.13517705E-07
  -1.04499999E-02  -5.26243127E-07
  -1.04000000E-02  -5.39231905E-07
  -1.03500001E-02  -5.52489439E-07
  -1.03000002E-02  -5.66021811E-07
  -1.02500003E-02  -5.79835728E-07
  -1.02000004E-02  -5.93937216E-07
  -1.01500005E-02  -6.08331447E-07
  -1.00999996E-02  -6.23021833E-07
  -1.00499997E-02  -6.38010988E-07
  -9.99999978E-03  -6.53301868E-07
  -9.94999986E-03  -6.68898622E-07
  -9.89999995E-03  -6.84806594E-07
  -9.85000003E-03  -7.01032775E-07
  -9.80000012E-03  -7.17584783E-07
  -9.75000020E-03  -7.34470234E-07
  -9.70000029E-03  -7.51697030E-07
  -9.65000037E-03  -7.69272049E-07
  -9.60000046E-03  -7.87201714E-07
  -9.54999961E-03  -8.05491993E-07
  -9.49999969E-03  -8.24149140E-07
  -9.44999978E-03  -8.43181624E-07
  -9.39999986E-03  -8.62599222E-07
  -9.34999995E-03  -8.82412735E-07
  -9.30000003E-03  -9.02633076E-07
  -9.25000012E-03  -9.23270591E-07
  -9.20000020E-03  -9.44334090E-07
  -9.15000029E-03  -9.65831191E-07
  -9.10000037E-03  -9.87769226E-07
  -9.05000046E-03  -1.01015598E-06
  -8.99999961E-03  -1.03299931E-06
  -8.94999970E-03  -1.05630818E-06
  -8.89999978E-03  -1.08009272E-06
  -8.84999987E-03  -1.10436361E-06
  -8.79999995E-03  -1.12913131E-06
  -8.75000004E-03  -1.15440434E-06
  -8.70000012E-03  -1.18019057E-06
  -8.65000021E-03  -1.20649872E-06
  -8.60000029E-03  -1.23333859E-06
  -8.55000038E-03  -1.26072166E-06
  -8.50000046E-03  -1.28866066E-06
  -8.44999962E-03  -1.31716899E-06
  -8.39999970E-03  -1.34626123E-06
  -8.34999979E-03  -1.37595237E-06
  -8.29999987E-03  -1.40625639E-06
  -8.24999996E-03  -1.43718592E-06
  -8.20000004E-03  -1.46875141E-06
  -8.15000013E-03  -1.50096355E-06
  -8.10000021E-03  -1.53383633E-06
  -8.05000030E-03  -1.56738486E-06
  -8.00000038E-03  -1.60162517E-06
  -7.95000046E-03  -1.63657171E-06
  -7.89999962E-03  -1.67223925E-06
  -7.84999970E-03  -1.70864132E-06
  -7.79999979E-03  -1.74579156E-06
  -7.74999987E-03  -1.78370203E-06
  -7.69999996E-03  -1.82238421E-06
  -7.65000004E-03  -1.86184991E-06
  -7.60000013E-03  -1.90211335E-06
  -7.55000021E-03  -1.94319159E-06
  -7.49999983E-03  -1.98510361E-06
  -7.44999992E-03  -2.02786600E-06
  -7.40000000E-03  -2.07149401E-06
  -7.35000009E-03  -2.11600241E-06
  -7.30000017E-03  -2.16140575E-06
  -7.24999979E-03  -2.20772085E-06
  -7.19999988E-03  -2.25496478E-06
  -7.14999996E-03  -2.30315391E-06
  -7.10000005E-03  -2.35230573E-06
  -7.05000013E-03  -2.40244140E-06
  -7.00000022E-03  -2.45358319E-06
  -6.94999984E-03  -2.50575113E-06
  -6.89999992E-03  -2.55896111E-06
  -6.85000001E-03  -2.61322771E-06
  -6.80000009E-03  -2.66856705E-06
  -6.75000018E-03  -2.72499778E-06
  -6.69999979E-03  -2.78253970E-06
  -6.64999988E-03  -2.84121302E-06
  -6.59999996E-03  -2.90103571E-06
  -6.55000005E-03  -2.96202597E-06
  -6.50000013E-03  -3.02420426E-06
  -6.45000022E-03  -3.08759013E-06
  -6.39999984E-03  -3.15220109E-06
  -6.34999992E-03  -3.21805169E-06
  -6.30000001E-03  -3.28515534E-06
  -6.25000009E-03  -3.35353116E-06
  -6.20000018E-03  -3.42320322E-06
  -6.14999980E-03  -3.49419611E-06
  -6.09999988E-03  -3.56653322E-06
  -6.04999997E-03  -3.64023253E-06
  -6.00000005E-03  -3.71531542E-06
  -5.95000014E-03  -3.79180187E-06
  -5.90000022E-03  -3.86971260E-06
  -5.84999984E-03  -3.94906647E-06
  -5.79999993E-03  -4.02988280E-06
  -5.75000001E-03  -4.11218343E-06
  -5.70000010E-03  -4.19599246E-06
  -5.65000018E-03  -4.28133671E-06
  -5.59999980E-03  -4.36824075E-06
  -5.54999989E-03  -4.45672458E-06
  -5.49999997E-03  -4.54680321E-06
  -5.45000006E-03  -4.63849528E-06
  -5.40000014E-03  -4.73181944E-06
  -5.35000023E-03  -4.82679752E-06
  -5.29999984E-03  -4.92344998E-06
  -5.24999993E-03  -5.02179546E-06
  -5.20000001E-03  -5.12185625E-06
  -5.15000010E-03  -5.22365735E-06
  -5.10000018E-03  -5.32722288E-06
  -5.04999980E-03  -5.43257011E-06
  -4.99999989E-03  -5.53971404E-06
  -4.94999997E-03  -5.64867105E-06
  -4.90000006E-03  -5.75946478E-06
  -4.85000014E-03  -5.87212207E-06
  -4.80000023E-03  -5.98667248E-06
  -4.74999985E-03  -6.10314055E-06
  -4.69999993E-03  -6.22154948E-06
  -4.65000002E-03  -6.34192202E-06
  -4.60000010E-03  -6.46428407E-06
  -4.55000019E-03  -6.58865747E-06
  -4.49999981E-03  -6.71505768E-06
  -4.44999989E-03  -6.84350107E-06
  -4.39999998E-03  -6.97400765E-06
  -4.35000006E-03  -7.10660515E-06
  -4.30000015E-03  -7.24131860E-06
  -4.25000023E-03  -7.37817300E-06
  -4.19999985E-03  -7.51718562E-06
  -4.14999994E-03  -7.65837649E-06
  -4.10000002E-03  -7.80175742E-06
  -4.05000011E-03  -7.94735297E-06
  -4.00000019E-03  -8.09517860E-06
  -3.94999981E-03  -8.24525796E-06
  -3.89999989E-03  -8.39761469E-06
  -3.84999998E-03  -8.55227700E-06
  -3.80000006E-03  -8.70927488E-06
  -3.74999992E-03  -8.86863563E-06
  -3.70000000E-03  -9.03037835E-06
  -3.65000009E-03  -9.19452395E-06
  -3.59999994E-03  -9.36108881E-06
  -3.55000002E-03  -9.53009840E-06
  -3.50000011E-03  -9.70157816E-06
  -3.44999996E-03  -9.87555541E-06
  -3.40000005E-03  -1.00520538E-05
  -3.34999990E-03  -1.02310969E-05
  -3.29999998E-03  -1.04127130E-05
  -3.25000007E-03  -1.05969302E-05
  -3.19999992E-03  -1.07837714E-05
  -3.15000000E-03  -1.09732437E-05
  -3.10000009E-03  -1.11653644E-05
  -3.04999994E-03  -1.13601563E-05
  -3.00000003E-03  -1.15576495E-05
  -2.95000011E-03  -1.17578793E-05
  -2.89999996E-03  -1.19608712E-05
  -2.85000005E-03  -1.21666471E-05
  -2.79999990E-03  -1.23752297E-05
  -2.74999999E-03  -1.25866436E-05
  -2.70000007E-03  -1.28009115E-05
  -2.64999992E-03  -1.30180542E-05
  -2.60000001E-03  -1.32380919E-05
  -2.55000009E-03  -1.34610518E-05
  -2.49999994E-03  -1.36869667E-05
  -2.45000003E-03  -1.39158710E-05
  -2.40000011E-03  -1.41478049E-05
  -2.34999997E-03  -1.43827974E-05
  -2.30000005E-03  -1.46208686E-05
  -2.24999990E-03  -1.48620393E-05
  -2.19999999E-03  -1.51063314E-05
  -2.15000007E-03  -1.53537731E-05
  -2.09999993E-03  -1.56043989E-05
  -2.05000001E-03  -1.58582352E-05
  -2.00000009E-03  -1.61153075E-05
  -1.94999995E-03  -1.63756504E-05
  -1.90000003E-03  -1.66392983E-05
  -1.85000000E-03  -1.69062732E-05
  -1.79999997E-03  -1.71766023E-05
  -1.75000005E-03  -1.74502966E-05
  -1.70000002E-03  -1.77273814E-05
  -1.64999999E-03  -1.80078878E-05
  -1.59999996E-03  -1.82918502E-05
  -1.55000004E-03  -1.85793142E-05
  -1.50000001E-03  -1.88703161E-05
  -1.44999998E-03  -1.91648833E-05
  -1.39999995E-03  -1.94630447E-05
  -1.35000004E-03  -1.97648351E-05
  -1.30000000E-03  -2.00702816E-05
  -1.24999997E-03  -2.03794098E-05
  -1.20000006E-03  -2.06922505E-05
  -1.15000003E-03  -2.10088365E-05
  -1.09999999E-03  -2.13292096E-05
  -1.04999996E-03  -2.16534190E-05
  -1.00000005E-03  -2.19814938E-05
  -9.50000016E-04  -2.23134557E-05
  -8.99999985E-04  -2.26493357E-05
  -8.50000011E-04  -2.29891557E-05
  -7.99999980E-04  -2.33329411E-05
  -7.50000007E-04  -2.36807173E-05
  -6.99999975E-04  -2.40325262E-05
  -6.50000002E-04  -2.43884078E-05
  -6.00000028E-04  -2.47484040E-05
  -5.49999997E-04  -2.51125493E-05
  -5.00000024E-04  -2.54808710E-05
  -4.49999992E-04  -2.58534074E-05
  -3.99999990E-04  -2.62301855E-05
  -3.49999988E-04  -2.66112293E-05
  -3.00000014E-04  -2.69965622E-05
  -2.50000012E-04  -2.73862170E-05
  -1.99999995E-04  -2.77802574E-05
  -1.50000007E-04  -2.81787252E-05
  -9.99999975E-05  -2.85816532E-05
  -4.99999987E-05  -2.89890595E-05
   0.00000000      -2.94009751E-05
   4.99999987E-05  -2.98174418E-05
   9.99999975E-05  -3.02385070E-05
   1.50000007E-04  -3.06641887E-05
   1.99999995E-04  -3.10944961E-05
   2.50000012E-04  -3.15294601E-05
   3.00000014E-04  -3.19691535E-05
   3.49999988E-04  -3.24136381E-05
   3.99999990E-04  -3.28629358E-05
   4.49999992E-04  -3.33170428E-05
   5.00000024E-04  -3.37759739E-05
   5.49999997E-04  -3.42397652E-05
   6.00000028E-04  -3.47084788E-05
   6.50000002E-04  -3.51821582E-05
   6.99999975E-04  -3.56608252E-05
   7.50000007E-04  -3.61444800E-05
   7.99999980E-04  -3.66331624E-05
   8.50000011E-04  -3.71269562E-05
   8.99999985E-04  -3.76259050E-05
   9.50000016E-04  -3.81300233E-05
   1.00000005E-03  -3.86393003E-05
   1.04999996E-03  -3.91537651E-05
   1.09999999E-03  -3.96734722E-05
   1.15000003E-03  -4.01984980E-05
   1.20000006E-03  -4.07288862E-05
   1.24999997E-03  -4.12646441E-05
   1.30000000E-03  -4.18057825E-05
   1.35000004E-03  -4.23523488E-05
   1.39999995E-03  -4.29043794E-05
   1.44999998E-03  -4.34619287E-05
   1.50000001E-03  -4.40250005E-05
   1.55000004E-03  -4.45936021E-05
   1.59999996E-03  -4.51677552E-05
   1.64999999E-03  -4.57475253E-05
   1.70000002E-03  -4.63329816E-05
   1.75000005E-03  -4.69241495E-05
   1.79999997E-03  -4.75210436E-05
   1.85000000E-03  -4.81236639E-05
   1.90000003E-03  -4.87320212E-05
   1.94999995E-03  -4.93461885E-05
   2.00000009E-03  -4.99662310E-05
   2.05000001E-03  -5.05921671E-05
   2.09999993E-03  -5.12239894E-05
   2.15000007E-03  -5.18617308E-05
   2.19999999E-03  -5.25054493E-05
   2.24999990E-03  -5.31552396E-05
   2.30000005E-03  -5.38111017E-05
   2.34999997E-03  -5.44730283E-05
   2.40000011E-03  -5.51410340E-05
   2.45000003E-03  -5.58151696E-05
   2.49999994E-03  -5.64954898E-05
   2.55000009E-03  -5.71820419E-05
   2.60000001E-03  -5.78748623E-05
   2.64999992E-03  -5.85739472E-05
   2.70000007E-03  -5.92793222E-05
   2.74999999E-03  -5.99910309E-05
   2.79999990E-03  -6.07091279E-05