  -3.99999991E-02   0.00000000    
  -3.99499983E-02   0.00000000    
  -3.99000011E-02   0.00000000    
  -3.98500003E-02   0.00000000    
  -3.97999994E-02   0.00000000    
  -3.97499986E-02   5.60220971E-24
  -3.97000015E-02   2.08449458E-23
  -3.96500006E-02  -6.58345131E-23
  -3.95999998E-02  -8.55478328E-22
  -3.95499989E-02  -4.17403294E-21
  -3.95000018E-02  -1.41777432E-20
  -3.94500010E-02  -3.89149575E-20
  -3.94000001E-02  -9.26354333E-20
  -3.93499993E-02  -1.98868165E-19
  -3.92999984E-02  -3.92978180E-19
  -3.92500013E-02  -7.21293636E-19
  -3.92000005E-02  -1.23421882E-18
  -3.91499996E-02  -1.97466520E-18
  -3.90999988E-02  -2.96880705E-18
  -3.90500017E-02  -4.22843231E-18
  -3.90000008E-02  -5.76910335E-18
  -3.89500000E-02  -7.63821473E-18
  -3.88999991E-02  -9.93929388E-18
  -3.88499983E-02  -1.28391881E-17
  -3.88000011E-02  -1.65516409E-17
  -3.87500003E-02  -2.12985723E-17
  -3.86999995E-02  -2.72574111E-17
  -3.86499986E-02  -3.45121589E-17
  -3.86000015E-02  -4.30369400E-17
  -3.85500006E-02  -5.27408208E-17
  -3.84999998E-02  -6.35770357E-17
  -3.84499989E-02  -7.56723750E-17
  -3.84000018E-02  -8.93954073E-17
  -3.83500010E-02  -1.05293296E-16
  -3.83000001E-02  -1.23891287E-16
  -3.82499993E-02  -1.45429098E-16
  -3.81999984E-02  -1.69650151E-16
  -3.81500013E-02  -1.95742141E-16
  -3.81000005E-02  -2.22467592E-16
  -3.80499996E-02  -2.48459036E-16
  -3.79999988E-02  -2.72592752E-16
  -3.79500017E-02  -2.94302577E-16
  -3.79000008E-02  -3.13674856E-16
  -3.78500000E-02  -3.31220349E-16
  -3.77999991E-02  -3.47367629E-16
  -3.77499983E-02  -3.61895938E-16
  -3.77000012E-02  -3.73598387E-16
  -3.76500003E-02  -3.80359113E-16
  -3.75999995E-02  -3.79600039E-16
  -3.75499986E-02  -3.68858840E-16
  -3.75000015E-02  -3.46215294E-16
  -3.74500006E-02  -3.10386039E-16
  -3.73999998E-02  -2.60454584E-16
  -3.73499990E-02  -1.95322674E-16
  -3.73000018E-02  -1.13067450E-16
  -3.72500010E-02  -1.04742324E-17
  -3.72000001E-02   1.16971505E-16
  -3.71499993E-02   2.74494738E-16
  -3.70999984E-02   4.66996263E-16
  -3.70500013E-02   6.97978865E-16
  -3.70000005E-02   9.68857673E-16
  -3.69499996E-02   1.27884050E-15
  -3.68999988E-02   1.62527898E-15
  -3.68500017E-02   2.00428981E-15
  -3.68000008E-02   2.41154579E-15
  -3.67500000E-02   2.84322025E-15
  -3.66999991E-02   3.29697537E-15
  -3.66499983E-02   3.77265722E-15
  -3.66000012E-02   4.27229612E-15
  -3.65500003E-02   4.79920948E-15
  -3.64999995E-02   5.35642206E-15
  -3.64499986E-02   5.94488719E-15
  -3.64000015E-02   6.56209299E-15
  -3.63500006E-02   7.20157407E-15
  -3.62999998E-02   7.85363019E-15
  -3.62499990E-02   8.50722792E-15
  -3.62000018E-02   9.15235871E-15
  -3.61500010E-02   9.78146448E-15
  -3.61000001E-02   1.03884839E-14
  -3.60499993E-02   1.09650448E-14
  -3.59999985E-02   1.14951460E-14
  -3.59500013E-02   1.19512783E-14
  -3.59000005E-02   1.22950534E-14
  -3.58499996E-02   1.24838155E-14
  -3.57999988E-02   1.24818148E-14
  -3.57500017E-02   1.22718726E-14
  -3.57000008E-02   1.18621848E-14
  -3.56500000E-02   1.12837342E-14
  -3.55999991E-02   1.05770402E-14
  -3.55499983E-02   9.77160417E-15
  -3.55000012E-02   8.86594045E-15
  -3.54500003E-02   7.81778630E-15
  -3.53999995E-02   6.55137972E-15
  -3.53499986E-02   4.98148758E-15
  -3.53000015E-02   3.04538880E-15
  -3.52500007E-02   7.28467711E-16
  -3.51999998E-02  -1.92986886E-15
  -3.51499990E-02  -4.85532541E-15
  -3.51000018E-02  -7.97665665E-15
  -3.50500010E-02  -1.12660447E-14
  -3.50000001E-02  -1.47618954E-14
  -3.49499993E-02  -1.85594710E-14
  -3.48999985E-02  -2.27682321E-14
  -3.48500013E-02  -2.74513536E-14
  -3.48000005E-02  -3.25749322E-14
  -3.47499996E-02  -3.79945234E-14
  -3.46999988E-02  -4.34926888E-14
  -3.46500017E-02  -4.88572636E-14
  -3.46000008E-02  -5.39677623E-14
  -3.45500000E-02  -5.88481900E-14
  -3.44999991E-02  -6.36550342E-14
  -3.44499983E-02  -6.85972546E-14
  -3.44000012E-02  -7.38176271E-14
  -3.43500003E-02  -7.92881521E-14
  -3.42999995E-02  -8.47725210E-14
  -3.42499986E-02  -8.98839786E-14
  -3.42000015E-02  -9.42238366E-14
  -3.41500007E-02  -9.75443820E-14
  -3.40999998E-02  -9.98589232E-14
  -3.40499990E-02  -1.01436803E-13
  -3.40000018E-02  -1.02669514E-13
  -3.39500010E-02  -1.03856119E-13
  -3.39000002E-02  -1.05002521E-13
  -3.38499993E-02  -1.05734899E-13
  -3.37999985E-02  -1.05384688E-13
  -3.37500013E-02  -1.03226184E-13
  -3.37000005E-02  -9.87721054E-14
  -3.36499996E-02  -9.19936395E-14
  -3.35999988E-02  -8.33514572E-14
  -3.35500017E-02  -7.36016540E-14
  -3.35000008E-02  -6.34444821E-14
  -3.34500000E-02  -5.31676516E-14
  -3.33999991E-02  -4.24565405E-14
  -3.33499983E-02  -3.04817308E-14
  -3.33000012E-02  -1.62517111E-14
  -3.32500003E-02   9.12573286E-16
  -3.31999995E-02   2.09993071E-14
  -3.31499986E-02   4.32178266E-14
  -3.31000015E-02   6.62746835E-14
  -3.30500007E-02   8.89190861E-14
  -3.29999998E-02   1.10523149E-13
  -3.29499990E-02   1.31421051E-13
  -3.29000019E-02   1.52817673E-13
  -3.28500010E-02   1.76263870E-13
  -3.28000002E-02   2.02904574E-13
  -3.27499993E-02   2.32836022E-13
  -3.26999985E-02   2.64891841E-13
  -3.26500013E-02   2.97002359E-13
  -3.26000005E-02   3.27009524E-13
  -3.25499997E-02   3.53589337E-13
  -3.24999988E-02   3.76847967E-13
  -3.24500017E-02   3.98275624E-13
  -3.24000008E-02   4.20021385E-13
  -3.23500000E-02   4.43774059E-13
  -3.22999991E-02   4.69749456E-13
  -3.22499983E-02   4.96280371E-13
  -3.22000012E-02   5.20264983E-13
  -3.21500003E-02   5.38342483E-13
  -3.20999995E-02   5.48306029E-13
  -3.20499986E-02   5.50103745E-13
  -3.20000015E-02   5.45914225E-13
  -3.19500007E-02   5.39179270E-13
  -3.18999998E-02   5.32964406E-13
  -3.18499990E-02   5.28368582E-13
  -3.18000019E-02   5.23738279E-13
  -3.17500010E-02   5.15123155E-13
  -3.17000002E-02   4.97855934E-13
  -3.16499993E-02   4.68600202E-13
  -3.15999985E-02   4.26936318E-13
  -3.15500014E-02   3.75703320E-13
  -3.15000005E-02   3.19841077E-13
  -3.14499997E-02   2.64168407E-13
  -3.13999988E-02   2.11071761E-13
  -3.13500017E-02   1.59199504E-13
  -3.13000008E-02   1.03858836E-13
  -3.12500000E-02   3.90576074E-14
  -3.11999992E-02  -3.96545217E-14
  -3.11500002E-02  -1.32833848E-13
  -3.10999993E-02  -2.36430233E-13
  -3.10500003E-02  -3.43173786E-13
  -3.09999995E-02  -4.45562668E-13
  -3.09500005E-02  -5.39163440E-13
  -3.08999997E-02  -6.24694415E-13
  -3.08500007E-02  -7.07827839E-13
  -3.07999998E-02  -7.96641344E-13
  -3.07500008E-02  -8.97755232E-13
  -3.07000000E-02  -1.01288194E-12
  -3.06499992E-02  -1.13743758E-12
  -3.06000002E-02  -1.26200699E-12
  -3.05499993E-02  -1.37615743E-12
  -3.05000003E-02  -1.47296129E-12
  -3.04499995E-02  -1.55214567E-12
  -3.04000005E-02  -1.62029667E-12
  -3.03499997E-02  -1.68783531E-12
  -3.03000007E-02  -1.76397081E-12
  -3.02499998E-02  -1.85186632E-12
  -3.02000009E-02  -1.94629230E-12
  -3.01500000E-02  -2.03503013E-12
  -3.00999992E-02  -2.10360332E-12
  -3.00500002E-02  -2.14134569E-12
  -2.99999993E-02  -2.14605720E-12
  -2.99500003E-02  -2.12501002E-12
  -2.98999995E-02  -2.09162852E-12
  -2.98500005E-02  -2.05916057E-12
  -2.97999997E-02  -2.03412699E-12
  -2.97500007E-02  -2.01260232E-12
  -2.96999998E-02  -1.98120968E-12
  -2.96500009E-02  -1.92262916E-12
  -2.96000000E-02  -1.82330128E-12
  -2.95499992E-02  -1.67984973E-12
  -2.95000002E-02  -1.50116790E-12
  -2.94499993E-02  -1.30495853E-12
  -2.94000003E-02  -1.11003882E-12
  -2.93499995E-02  -9.27759172E-13
  -2.93000005E-02  -7.56484935E-13
  -2.92499997E-02  -5.81864309E-13
  -2.92000007E-02  -3.83051934E-13
  -2.91499998E-02  -1.42300858E-13
  -2.91000009E-02   1.46359352E-13
  -2.90500000E-02   4.73422733E-13
  -2.89999992E-02   8.17137861E-13
  -2.89500002E-02   1.15250680E-12
  -2.88999993E-02   1.46216015E-12
  -2.88500004E-02   1.74416699E-12
  -2.87999995E-02   2.01301887E-12
  -2.87500005E-02   2.29300888E-12
  -2.86999997E-02   2.60671064E-12
  -2.86500007E-02   2.96365883E-12
  -2.85999998E-02   3.35447165E-12
  -2.85500009E-02   3.75338606E-12
  -2.85000000E-02   4.12841029E-12
  -2.84499992E-02   4.45475471E-12
  -2.84000002E-02   4.72551599E-12
  -2.83499993E-02   4.95457711E-12
  -2.83000004E-02   5.17008138E-12
  -2.82499995E-02   5.40107759E-12
  -2.82000005E-02   5.66317783E-12
  -2.81499997E-02   5.94978407E-12
  -2.81000007E-02   6.23309954E-12
  -2.80499998E-02   6.47487446E-12
  -2.80000009E-02   6.64232037E-12
  -2.79500000E-02   6.72209814E-12
  -2.78999992E-02   6.72592667E-12
  -2.78500002E-02   6.68492475E-12
  -2.77999993E-02   6.63490747E-12
  -2.77500004E-02   6.59905290E-12
  -2.76999995E-02   6.57580154E-12
  -2.76500005E-02   6.53772956E-12
  -2.75999997E-02   6.44232324E-12
  -2.75500007E-02   6.25015534E-12
  -2.74999999E-02   5.94247047E-12
  -2.74500009E-02   5.53011196E-12
  -2.74000000E-02   5.04944784E-12
  -2.73499992E-02   4.54668768E-12
  -2.73000002E-02   4.05735471E-12
  -2.72499993E-02   3.59009935E-12
  -2.72000004E-02   3.12235567E-12
  -2.71499995E-02   2.61018225E-12
  -2.71000005E-02   2.00825641E-12
  -2.70499997E-02   1.29125020E-12
  -2.70000007E-02   4.66929663E-13
  -2.69499999E-02  -4.25213602E-13
  -2.69000009E-02  -1.32962912E-12
  -2.68500000E-02  -2.19801304E-12
  -2.67999992E-02  -3.00992976E-12
  -2.67500002E-02  -3.78133202E-12
  -2.66999993E-02  -4.55675558E-12
  -2.66500004E-02  -5.38823890E-12
  -2.65999995E-02  -6.31010912E-12
  -2.65500005E-02  -7.32088869E-12
  -2.64999997E-02  -8.38068157E-12
  -2.64500007E-02  -9.42563822E-12
  -2.63999999E-02  -1.03934578E-11
  -2.63500009E-02  -1.12487901E-11
  -2.63000000E-02  -1.19971472E-11
  -2.62499992E-02  -1.26807965E-11
  -2.62000002E-02  -1.33580586E-11
  -2.61499994E-02  -1.40748932E-11
  -2.61000004E-02  -1.48413278E-11
  -2.60499995E-02  -1.56234557E-11
  -2.60000005E-02  -1.63549556E-11
  -2.59499997E-02  -1.69634879E-11
  -2.59000007E-02  -1.74004613E-11
  -2.58499999E-02  -1.76609890E-11
  -2.58000009E-02  -1.77848621E-11
  -2.57500000E-02  -1.78376931E-11
  -2.56999992E-02  -1.78801540E-11
  -2.56500002E-02  -1.79387893E-11
  -2.55999994E-02  -1.79914434E-11
  -2.55500004E-02  -1.79741604E-11
  -2.54999995E-02  -1.78070388E-11
  -2.54500005E-02  -1.74279601E-11
  -2.53999997E-02  -1.68194209E-11
  -2.53500007E-02  -1.60163827E-11
  -2.52999999E-02  -1.50912356E-11
  -2.52500009E-02  -1.41221071E-11
  -2.52000000E-02  -1.31581820E-11
  -2.51499992E-02  -1.21973499E-11
  -2.51000002E-02  -1.11864580E-11
  -2.50499994E-02  -1.00445763E-11
  -2.50000004E-02  -8.69955843E-12
  -2.49499995E-02  -7.12203820E-12
  -2.49000005E-02  -5.34172359E-12
  -2.48499997E-02  -3.43834575E-12
  -2.48000007E-02  -1.51061260E-12
  -2.47499999E-02   3.63700742E-13
  -2.47000009E-02   2.15918841E-12
  -2.46500000E-02   3.91175677E-12
  -2.45999992E-02   5.70061012E-12
  -2.45500002E-02   7.61057883E-12
  -2.44999994E-02   9.69091214E-12
  -2.44500004E-02   1.19285857E-11
  -2.43999995E-02   1.42482562E-11
  -2.43500005E-02   1.65395614E-11
  -2.42999997E-02   1.87004197E-11
  -2.42500007E-02   2.06777130E-11
  -2.41999999E-02   2.24873609E-11
  -2.41500009E-02   2.42044215E-11
  -2.41000000E-02   2.59268041E-11
  -2.40499992E-02   2.77278582E-11
  -2.40000002E-02   2.96184084E-11
  -2.39499994E-02   3.15352328E-11
  -2.39000004E-02   3.33618619E-11
  -2.38499995E-02   3.49734755E-11
  -2.38000005E-02   3.62868346E-11
  -2.37499997E-02   3.72935051E-11
  -2.37000007E-02   3.80612035E-11
  -2.36499999E-02   3.87018195E-11
  -2.36000009E-02   3.93192492E-11
  -2.35500000E-02   3.99593657E-11
  -2.34999992E-02   4.05843553E-11
  -2.34500002E-02   4.10834942E-11
  -2.33999994E-02   4.13168180E-11
  -2.33500004E-02   4.11733911E-11
  -2.32999995E-02   4.06189977E-11
  -2.32500006E-02   3.97117894E-11
  -2.31999997E-02   3.85779603E-11
  -2.31500007E-02   3.73568086E-11
  -2.30999999E-02   3.61385782E-11
  -2.30500009E-02   3.49222838E-11
  -2.30000000E-02   3.36130221E-11
  -2.29499992E-02   3.20612252E-11
  -2.29000002E-02   3.01280667E-11
  -2.28499994E-02   2.77489785E-11
  -2.28000004E-02   2.49670805E-11
  -2.27499995E-02   2.19205990E-11
  -2.27000006E-02   1.87882834E-11
  -2.26499997E-02   1.57155434E-11
  -2.26000007E-02   1.27533826E-11
  -2.25499999E-02   9.83771831E-12
  -2.25000009E-02   6.81961215E-12
  -2.24500000E-02   3.53473847E-12
  -2.23999992E-02  -1.17521214E-13
  -2.23500002E-02  -4.12025362E-12
  -2.22999994E-02  -8.33538186E-12
  -2.22500004E-02  -1.25536951E-11
  -2.21999995E-02  -1.65781590E-11
  -2.21500006E-02  -2.03045861E-11
  -2.20999997E-02  -2.37635727E-11
  -2.20500007E-02  -2.71036093E-11
  -2.19999999E-02  -3.05209122E-11
  -2.19500009E-02  -3.41655107E-11
  -2.19000001E-02  -3.80648048E-11
  -2.18499992E-02  -4.20994108E-11
  -2.18000002E-02  -4.60439395E-11
  -2.17499994E-02  -4.96567301E-11
  -2.17000004E-02  -5.27799610E-11
  -2.16499995E-02  -5.54057113E-11
  -2.16000006E-02  -5.76771651E-11
  -2.15499997E-02  -5.98222236E-11
  -2.15000007E-02  -6.20470134E-11
  -2.14499999E-02  -6.44360051E-11
  -2.14000009E-02  -6.69038713E-11
  -2.13500001E-02  -6.92225097E-11
  -2.12999992E-02  -7.11138370E-11
  -2.12500002E-02  -7.23687846E-11
  -2.11999994E-02  -7.29398972E-11
  -2.11500004E-02  -7.29649743E-11
  -2.10999995E-02  -7.27089292E-11
  -2.10500006E-02  -7.24471247E-11
  -2.09999997E-02  -7.23409943E-11
  -2.09500007E-02  -7.23614571E-11
  -2.08999999E-02  -7.22961691E-11
  -2.08500009E-02  -7.18400339E-11
  -2.08000001E-02  -7.07308101E-11
  -2.07499992E-02  -6.88700902E-11
  -2.07000002E-02  -6.63746211E-11
  -2.06499994E-02  -6.35328803E-11
  -2.06000004E-02  -6.06835068E-11
  -2.05499995E-02  -5.80682863E-11
  -2.05000006E-02  -5.57251294E-11
  -2.04499997E-02  -5.34706099E-11
  -2.04000007E-02  -5.09824509E-11
  -2.03499999E-02  -4.79477083E-11
  -2.03000009E-02  -4.42116899E-11
  -2.02500001E-02  -3.98603026E-11
  -2.01999992E-02  -3.51968524E-11
  -2.01500002E-02  -3.06206137E-11
  -2.00999994E-02  -2.64592896E-11
  -2.00500004E-02  -2.28295490E-11
  -1.99999996E-02  -1.95892157E-11
  -1.99500006E-02  -1.64048844E-11
  -1.98999997E-02  -1.29072447E-11
  -1.98500007E-02  -8.86599561E-12
  -1.97999999E-02  -4.30575454E-12
  -1.97500009E-02   4.90934008E-13
  -1.97000001E-02   5.09768399E-12
  -1.96499992E-02   9.12685205E-12
  -1.96000002E-02   1.23997106E-11
  -1.95499994E-02   1.50270196E-11
  -1.95000004E-02   1.73612513E-11
  -1.94499996E-02   1.98390384E-11
  -1.94000006E-02   2.27823732E-11
  -1.93499997E-02   2.62474625E-11
  -1.93000007E-02   2.99906419E-11
  -1.92499999E-02   3.35694077E-11
  -1.92000009E-02   3.65358403E-11
  -1.91500001E-02   3.86373260E-11
  -1.90999992E-02   3.99341185E-11
  -1.90500002E-02   4.07790364E-11
  -1.89999994E-02   4.16655495E-11
  -1.89500004E-02   4.30101579E-11
  -1.88999996E-02   4.49659511E-11
  -1.88500006E-02   4.73521951E-11
  -1.87999997E-02   4.97339808E-11
  -1.87500007E-02   5.16188550E-11
  -1.86999999E-02   5.26838989E-11
  -1.86500009E-02   5.29312288E-11
  -1.86000001E-02   5.27005141E-11
  -1.85499992E-02   5.25301157E-11
  -1.85000002E-02   5.29267671E-11
  -1.84499994E-02   5.41459065E-11
  -1.84000004E-02   5.60817087E-11
  -1.83499996E-02   5.83180587E-11
  -1.83000006E-02   6.03201308E-11
  -1.82499997E-02   6.16824231E-11
  -1.82000007E-02   6.23222793E-11
  -1.81499999E-02   6.25307930E-11
  -1.81000009E-02   6.28559427E-11
  -1.80500001E-02   6.38681816E-11
  -1.79999992E-02   6.59123867E-11
  -1.79500002E-02   6.89577770E-11
  -1.78999994E-02   7.26146643E-11
  -1.78500004E-02   7.63124564E-11
  -1.77999996E-02   7.95609620E-11
  -1.77500006E-02   8.21780977E-11
  -1.76999997E-02   8.43808981E-11
  -1.76500008E-02   8.66966499E-11
  -1.75999999E-02   8.97315902E-11
  -1.75500009E-02   9.38992911E-11
  -1.75000001E-02   9.92300200E-11
  -1.74499992E-02   1.05348057E-10
  -1.74000002E-02   1.11628776E-10
  -1.73499994E-02   1.17467008E-10
  -1.73000004E-02   1.22536814E-10
  -1.72499996E-02   1.26926067E-10
  -1.72000006E-02   1.31084227E-10
  -1.71499997E-02   1.35604444E-10
  -1.71000008E-02   1.40936846E-10
  -1.70499999E-02   1.47160353E-10
  -1.70000009E-02   1.53916685E-10
  -1.69500001E-02   1.60537472E-10
  -1.68999992E-02   1.66309591E-10
  -1.68500002E-02   1.70760711E-10
  -1.67999994E-02   1.73836792E-10
  -1.67500004E-02   1.75891135E-10
  -1.66999996E-02   1.77488593E-10
  -1.66500006E-02   1.79110698E-10
  -1.65999997E-02   1.80893342E-10
  -1.65500008E-02   1.82514559E-10
  -1.64999999E-02   1.83283971E-10
  -1.64500009E-02   1.82394849E-10
  -1.64000001E-02   1.79227438E-10
  -1.63499992E-02   1.73568243E-10
  -1.63000003E-02   1.65646385E-10
  -1.62499994E-02   1.55970820E-10
  -1.62000004E-02   1.45039647E-10
  -1.61499996E-02   1.33051764E-10
  -1.61000006E-02   1.19750293E-10
  -1.60499997E-02   1.04468177E-10
  -1.60000008E-02   8.63575739E-11
  -1.59499999E-02   6.47006893E-11
  -1.59000009E-02   3.91632907E-11
  -1.58500001E-02   9.87751807E-12
  -1.57999992E-02  -2.26832077E-11
  -1.57500003E-02  -5.79832224E-11
  -1.56999994E-02  -9.57330118E-11
  -1.56500004E-02  -1.36088460E-10
  -1.55999996E-02  -1.79652182E-10
  -1.55499997E-02  -2.27274435E-10
  -1.54999997E-02  -2.79742368E-10
  -1.54499998E-02  -3.37495365E-10
  -1.53999999E-02  -4.00492806E-10
  -1.53500000E-02  -4.68293293E-10
  -1.53000001E-02  -5.40311018E-10
  -1.52500002E-02  -6.16134810E-10
  -1.52000003E-02  -6.95766222E-10
  -1.51500003E-02  -7.79671716E-10
  -1.51000004E-02  -8.68622063E-10
  -1.50499996E-02  -9.63394697E-10
  -1.49999997E-02  -1.06446651E-09
  -1.49499997E-02  -1.17183718E-09
  -1.48999998E-02  -1.28505973E-09
  -1.48499999E-02  -1.40346668E-09
  -1.48000000E-02  -1.52649204E-09
  -1.47500001E-02  -1.65394365E-09
  -1.47000002E-02  -1.78610826E-09
  -1.46500003E-02  -1.92363880E-09
  -1.46000003E-02  -2.06727813E-09
  -1.45500004E-02  -2.21753771E-09
  -1.44999996E-02  -2.37447928E-09
  -1.44499997E-02  -2.53769250E-09
  -1.43999998E-02  -2.70648126E-09
  -1.43499998E-02  -2.88017432E-09
  -1.42999999E-02  -3.05841952E-09
  -1.42500000E-02  -3.24133742E-09
  -1.42000001E-02  -3.42945872E-09
  -1.41500002E-02  -3.62347841E-09
  -1.41000003E-02  -3.82393406E-09
  -1.40500003E-02  -4.03095202E-09
  -1.40000004E-02  -4.24417657E-09
  -1.39499996E-02  -4.46290693E-09
  -1.38999997E-02  -4.68639483E-09
  -1.38499998E-02  -4.91415797E-09
  -1.37999998E-02  -5.14617637E-09
  -1.37499999E-02  -5.38288125E-09
  -1.37000000E-02  -5.62494673E-09
  -1.36500001E-02  -5.87297455E-09
  -1.36000002E-02  -6.12721207E-09
  -1.35500003E-02  -6.38743458E-09
  -1.35000004E-02  -6.65303235E-09
  -1.34500004E-02  -6.92328017E-09
  -1.33999996E-02  -7.19765447E-09
  -1.33499997E-02  -7.47606865E-09
  -1.32999998E-02  -7.75891706E-09
  -1.32499998E-02  -8.04690359E-09
  -1.31999999E-02  -8.34074676E-09
  -1.31500000E-02  -8.64086491E-09
  -1.31000001E-02  -8.94721364E-09
  -1.30500002E-02  -9.25933108E-09
  -1.30000003E-02  -9.57657598E-09
  -1.29500004E-02  -9.89844029E-09
  -1.29000004E-02  -1.02248183E-08
  -1.28499996E-02  -1.05561080E-08
  -1.27999997E-02  -1.08930873E-08
  -1.27499998E-02  -1.12366436E-08
  -1.26999998E-02  -1.15874528E-08
  -1.26499999E-02  -1.19457679E-08
  -1.26000000E-02  -1.23114026E-08
  -1.25500001E-02  -1.26839170E-08
  -1.25000002E-02  -1.30629338E-08
  -1.24500003E-02  -1.34484193E-08
  -1.24000004E-02  -1.38408209E-08
  -1.23500004E-02  -1.42409933E-08
  -1.22999996E-02  -1.46499559E-08
  -1.22499997E-02  -1.50685970E-08
  -1.21999998E-02  -1.54974344E-08
  -1.21499998E-02  -1.59365499E-08
  -1.20999999E-02  -1.63857443E-08
  -1.20500000E-02  -1.68448153E-08
  -1.20000001E-02  -1.73138819E-08
  -1.19500002E-02  -1.77935373E-08
  -1.19000003E-02  -1.82848154E-08
  -1.18500004E-02  -1.87889526E-08
  -1.18000004E-02  -1.93070679E-08
  -1.17499996E-02  -1.98399039E-08
  -1.16999997E-02  -2.03877413E-08
  -1.16499998E-02  -2.09504822E-08
  -1.15999999E-02  -2.15279243E-08
  -1.15499999E-02  -2.21200711E-08
  -1.15000000E-02  -2.27273933E-08
  -1.14500001E-02  -2.33508803E-08
  -1.14000002E-02  -2.39918467E-08
  -1.13500003E-02  -2.46516478E-08
  -1.13000004E-02  -2.53313743E-08
  -1.12500004E-02  -2.60317279E-08
  -1.11999996E-02  -2.67530567E-08
  -1.11499997E-02  -2.74955774E-08
  -1.10999998E-02  -2.82596364E-08
  -1.10499999E-02  -2.90458875E-08
  -1.09999999E-02  -2.98553466E-08
  -1.09500000E-02  -3.06892609E-08
  -1.09000001E-02  -3.15488649E-08
  -1.08500002E-02  -3.24350395E-08
  -1.08000003E-02  -3.33481864E-08
  -1.07500004E-02  -3.42882736E-08
  -1.07000005E-02  -3.52551055E-08
  -1.06499996E-02  -3.62486681E-08
  -1.05999997E-02  -3.72693840E-08
  -1.05499998E-02  -3.83182339E-08
  -1.04999999E-02  -3.93966353E-08
  -1.04499999E-02  -4.05061762E-08
  -1.04000000E-02  -4.16483310E-08
  -1.03500001E-02  -4.28242188E-08
  -1.03000002E-02  -4.40345325E-08
  -1.02500003E-02  -4.52796556E-08
  -1.02000004E-02  -4.65599257E-08
  -1.01500005E-02  -4.78758864E-08
  -1.00999996E-02  -4.92284471E-08
  -1.00499997E-02  -5.06187732E-08
  -9.99999978E-03  -5.20480583E-08
  -9.94999986E-03  -5.35172830E-08
  -9.89999995E-03  -5.50270371E-08
  -9.85000003E-03  -5.65775160E-08
  -9.80000012E-03  -5.81686912E-08
  -9.75000020E-03  -5.98005414E-08
  -9.70000029E-03  -6.14733651E-08
  -9.65000037E-03  -6.31879331E-08
  -9.60000046E-03  -6.49454606E-08
  -9.54999961E-03  -6.67474325E-08
  -9.49999969E-03  -6.85952699E-08
  -9.44999978E-03  -7.04900813E-08
  -9.39999986E-03  -7.24326483E-08
  -9.34999995E-03  -7.44235820E-08
  -9.30000003E-03  -7.64635075E-08
  -9.25000012E-03  -7.85533203E-08
  -9.20000020E-03  -8.06942708E-08
  -9.15000029E-03  -8.28880147E-08
  -9.10000037E-03  -8.51364277E-08
  -9.05000046E-03  -8.74413431E-08
  -8.99999961E-03  -8.98042103E-08
  -8.94999970E-03  -9.22260170E-08
  -8.89999978E-03  -9.47073815E-08
  -8.84999987E-03  -9.72488436E-08
  -8.79999995E-03  -9.98511211E-08
  -8.75000004E-03  -1.02515259E-07
  -8.70000012E-03  -1.05242627E-07
  -8.65000021E-03  -1.08034847E-07
  -8.60000029E-03  -1.10893573E-07
  -8.55000038E-03  -1.13820342E-07
  -8.50000046E-03  -1.16816466E-07
  -8.44999962E-03  -1.19883055E-07
  -8.39999970E-03  -1.23021195E-07
  -8.34999979E-03  -1.26232294E-07
  -8.29999987E-03  -1.29518227E-07
  -8.24999996E-03  -1.32881354E-07
  -8.20000004E-03  -1.36324402E-07
  -8.15000013E-03  -1.39850030E-07
  -8.10000021E-03  -1.43460809E-07
  -8.05000030E-03  -1.47159071E-07
  -8.00000038E-03  -1.50946889E-07
  -7.95000046E-03  -1.54826239E-07
  -7.89999962E-03  -1.58799182E-07
  -7.84999970E-03  -1.62868133E-07
  -7.79999979E-03  -1.67035836E-07
  -7.74999987E-03  -1.71305246E-07
  -7.69999996E-03  -1.75679304E-07
  -7.65000004E-03  -1.80160669E-07
  -7.60000013E-03  -1.84751642E-07
  -7.55000021E-03  -1.89454369E-07
  -7.49999983E-03  -1.94270910E-07
  -7.44999992E-03  -1.99203498E-07
  -7.40000000E-03  -2.04254619E-07
  -7.35000009E-03  -2.09427313E-07
  -7.30000017E-03  -2.14724921E-07
  -7.24999979E-03  -2.20150952E-07
  -7.19999988E-03  -2.25708945E-07
  -7.14999996E-03  -2.31402211E-07
  -7.10000005E-03  -2.37233905E-07
  -7.05000013E-03  -2.43207126E-07
  -7.00000022E-03  -2.49325240E-07
  -6.94999984E-03  -2.55591999E-07
  -6.89999992E-03  -2.62011383E-07
  -6.85000001E-03  -2.68587570E-07
  -6.80000009E-03  -2.75324822E-07
  -6.75000018E-03  -2.82227319E-07
  -6.69999979E-03  -2.89298981E-07
  -6.64999988E-03  -2.96543419E-07
  -6.59999996E-03  -3.03964072E-07
  -6.55000005E-03  -3.11564463E-07
  -6.50000013E-03  -3.19348345E-07
  -6.45000022E-03  -3.27319725E-07
  -6.39999984E-03  -3.35482696E-07
  -6.34999992E-03  -3.43841464E-07
  -6.30000001E-03  -3.52400207E-07
  -6.25000009E-03  -3.61162762E-07
  -6.20000018E-03  -3.70132852E-07
  -6.14999980E-03  -3.79314201E-07
  -6.09999988E-03  -3.88710731E-07
  -6.04999997E-03  -3.98326705E-07
  -6.00000005E-03  -4.08166699E-07
  -5.95000014E-03  -4.18235686E-07
  -5.90000022E-03  -4.28538328E-07
  -5.84999984E-03  -4.39079315E-07
  -5.79999993E-03  -4.49863762E-07
  -5.75000001E-03  -4.60896501E-07
  -5.70000010E-03  -4.72182279E-07
  -5.65000018E-03  -4.83725501E-07
  -5.59999980E-03  -4.95530799E-07
  -5.54999989E-03  -5.07603374E-07
  -5.49999997E-03  -5.19948742E-07
  -5.45000006E-03  -5.32572301E-07
  -5.40000014E-03  -5.45478713E-07
  -5.35000023E-03  -5.58672355E-07
  -5.29999984E-03  -5.72158001E-07
  -5.24999993E-03  -5.85940597E-07
  -5.20000001E-03  -6.00024634E-07
  -5.15000010E-03  -6.14414603E-07
  -5.10000018E-03  -6.29114766E-07
  -5.04999980E-03  -6.44130409E-07
  -4.99999989E-03  -6.59467105E-07
  -4.94999997E-03  -6.75130195E-07
  -4.90000006E-03  -6.91124512E-07
  -4.85000014E-03  -7.07455399E-07
  -4.80000023E-03  -7.24128085E-07
  -4.74999985E-03  -7.41148881E-07
  -4.69999993E-03  -7.58523925E-07
  -4.65000002E-03  -7.76259583E-07
  -4.60000010E-03  -7.94362109E-07
  -4.55000019E-03  -8.12837641E-07
  -4.49999981E-03  -8.31692489E-07
  -4.44999989E-03  -8.50932906E-07
  -4.39999998E-03  -8.70564975E-07
  -4.35000006E-03  -8.90594436E-07
  -4.30000015E-03  -9.11026916E-07
  -4.25000023E-03  -9.31868612E-07
  -4.19999985E-03  -9.53126118E-07
  -4.14999994E-03  -9.74805516E-07
  -4.10000002E-03  -9.96912718E-07
  -4.05000011E-03  -1.01945329E-06
  -4.00000019E-03  -1.04243327E-06
  -3.94999981E-03  -1.06585924E-06
  -3.89999989E-03  -1.08973734E-06
  -3.84999998E-03  -1.11407451E-06
  -3.80000006E-03  -1.13887813E-06
  -3.74999992E-03  -1.16415561E-06
  -3.70000000E-03  -1.18991431E-06
  -3.65000009E-03  -1.21616119E-06
  -3.59999994E-03  -1.24290398E-06
  -3.55000002E-03  -1.27015051E-06
  -3.50000011E-03  -1.29790828E-06
  -3.44999996E-03  -1.32618482E-06
  -3.40000005E-03  -1.35498806E-06
  -3.34999990E-03  -1.38432665E-06
  -3.29999998E-03  -1.41420901E-06
  -3.25000007E-03  -1.44464343E-06
  -3.19999992E-03  -1.47563810E-06
  -3.15000000E-03  -1.50720052E-06
  -3.10000009E-03  -1.53933809E-06
  -3.04999994E-03  -1.57205818E-06
  -3.00000003E-03  -1.60536911E-06
  -2.95000011E-03  -1.63928087E-06
  -2.89999996E-03  -1.67380256E-06
  -2.85000005E-03  -1.70894191E-06
  -2.79999990E-03  -1.74470802E-06
  -2.74999999E-03  -1.78110963E-06
  -2.70000007E-03  -1.81815528E-06
  -2.64999992E-03  -1.85585361E-06
  -2.60000001E-03  -1.89421235E-06
  -2.55000009E-03  -1.93324013E-06
  -2.49999994E-03  -1.97294730E-06
  -2.45000003E-03  -2.01334433E-06
  -2.40000011E-03  -2.05444235E-06
  -2.34999997E-03  -2.09625205E-06
  -2.30000005E-03  -2.13878320E-06
  -2.24999990E-03  -2.18204536E-06
  -2.19999999E-03  -2.22604763E-06
  -2.15000007E-03  -2.27080045E-06
  -2.09999993E-03  -2.31631452E-06
  -2.05000001E-03  -2.36260166E-06
  -2.00000009E-03  -2.40967233E-06
  -1.94999995E-03  -2.45753790E-06
  -1.90000003E-03  -2.50620997E-06
  -1.85000000E-03  -2.55569921E-06
  -1.79999997E-03  -2.60601473E-06
  -1.75000005E-03  -2.65716653E-06
  -1.70000002E-03  -2.70916348E-06
  -1.64999999E-03  -2.76201604E-06
  -1.59999996E-03  -2.81573466E-06
  -1.55000004E-03  -2.87033163E-06
  -1.50000001E-03  -2.92582058E-06
  -1.44999998E-03  -2.98221448E-06
  -1.39999995E-03  -3.03952561E-06
  -1.35000004E-03  -3.09776306E-06
  -1.30000000E-03  -3.15693728E-06
  -1.24999997E-03  -3.21706125E-06
  -1.20000006E-03  -3.27814791E-06
  -1.15000003E-03  -3.34021115E-06
  -1.09999999E-03  -3.40326301E-06
  -1.04999996E-03  -3.46731758E-06
  -1.00000005E-03  -3.53238966E-06
  -9.50000016E-04  -3.59849400E-06
  -8.99999985E-04  -3.66564268E-06
  -8.50000011E-04  -3.73384546E-06
  -7.99999980E-04  -3.80311053E-06
  -7.50000007E-04  -3.87344926E-06
  -6.99999975E-04  -3.94487643E-06
  -6.50000002E-04  -4.01740908E-06
  -6.00000028E-04  -4.09106042E-06
  -5.49999997E-04  -4.16584362E-06
  -5.00000024E-04  -4.24177188E-06
  -4.49999992E-04  -4.31885837E-06
  -3.99999990E-04  -4.39711675E-06
  -3.49999988E-04  -4.47655975E-06
  -3.00000014E-04  -4.55719692E-06
  -2.50000012E-04  -4.63904053E-06
  -1.99999995E-04  -4.72210513E-06
  -1.50000007E-04  -4.80641211E-06
  -9.99999975E-05  -4.89197964E-06
  -4.99999987E-05  -4.97882229E-06
   0.00000000      -5.06694914E-06
   4.99999987E-05  -5.15637203E-06
   9.99999975E-05  -5.24710504E-06
   1.50000007E-04  -5.33916318E-06
   1.99999995E-04  -5.43256056E-06
   2.50000012E-04  -5.52730944E-06
   3.00000014E-04  -5.62342575E-06
   3.49999988E-04  -5.72092858E-06
   3.99999990E-04  -5.81983568E-06
   4.49999992E-04  -5.92016204E-06
   5.00000024E-04  -6.02191631E-06
   5.49999997E-04  -6.12510621E-06
   6.00000028E-04  -6.22974312E-06
   6.50000002E-04  -6.33584477E-06
   6.99999975E-04  -6.44343027E-06
   7.50000007E-04  -6.55251552E-06
   7.99999980E-04  -6.66311234E-06
   8.50000011E-04  -6.77523576E-06
   8.99999985E-04  -6.88890123E-06
   9.50000016E-04  -7.00412329E-06
   1.00000005E-03  -7.12091150E-06
   1.04999996E-03  -7.23927360E-06
   1.09999999E-03  -7.35922004E-06
   1.15000003E-03  -7.48076900E-06
   1.20000006E-03  -7.60394278E-06
   1.24999997E-03  -7.72875774E-06
   1.30000000E-03  -7.85523025E-06
   1.35000004E-03  -7.98336623E-06
   1.39999995E-03  -8.11317568E-06
   1.44999998E-03  -8.24467315E-06
   1.50000001E-03  -8.37786956E-06
   1.55000004E-03  -8.51277309E-06
   1.59999996E-03  -8.64939466E-06
   1.64999999E-03  -8.78774517E-06
   1.70000002E-03  -8.92784738E-06
   1.75000005E-03  -9.06971673E-06
   1.79999997E-03  -9.21336414E-06
   1.85000000E-03  -9.35879143E-06
   1.90000003E-03  -9.50600406E-06
   1.94999995E-03  -9.65501113E-06
   2.00000009E-03  -9.80582445E-06
   2.05000001E-03  -9.95845494E-06
   2.09999993E-03  -1.01129144E-05
   2.15000007E-03  -1.02692156E-05
   2.19999999E-03  -1.04273749E-05
   2.24999990E-03  -1.05874060E-05
   2.30000005E-03  -1.07493124E-05
   2.34999997E-03  -1.09130933E-05
   2.40000011E-03  -1.10787551E-05
   2.45000003E-03  -1.12463040E-05
   2.49999994E-03  -1.14157510E-05
   2.55000009E-03  -1.15871053E-05
   2.60000001E-03  -1.17603786E-05
   2.64999992E-03  -1.19355827E-05
   2.70000007E-03  -1.21127250E-05
   2.74999999E-03  -1.22918073E-05
   2.79999990E-03  -1.24728276E-05