  -3.99999991E-02   0.00000000    
  -3.99499983E-02   0.00000000    
  -3.99000011E-02   0.00000000    
  -3.98500003E-02   0.00000000    
  -3.97999994E-02   1.07073212E-17
  -3.97499986E-02   1.20554123E-16
  -3.97000015E-02   7.09009352E-16
  -3.96500006E-02   2.88789044E-15
  -3.95999998E-02   9.11179006E-15
  -3.95499989E-02   2.36241047E-14
  -3.95000018E-02   5.21541835E-14
  -3.94500010E-02   1.00338818E-13
  -3.94000001E-02   1.70938662E-13
  -3.93499993E-02   2.60977492E-13
  -3.92999984E-02   3.60898079E-13
  -3.92500013E-02   4.57826810E-13
  -3.92000005E-02   5.43405869E-13
  -3.91499996E-02   6.23646859E-13
  -3.90999988E-02   7.25400154E-13
  -3.90500017E-02   8.93530150E-13
  -3.90000008E-02   1.17620833E-12
  -3.89500000E-02   1.60219017E-12
  -3.88999991E-02   2.16040727E-12
  -3.88499983E-02   2.79451700E-12
  -3.88000011E-02   3.42050758E-12
  -3.87500003E-02   3.96476992E-12
  -3.86999995E-02   4.40766824E-12
  -3.86499986E-02   4.81003605E-12
  -3.86000015E-02   5.30282372E-12
  -3.85500006E-02   6.03464674E-12
  -3.84999998E-02   7.09363341E-12
  -3.84499989E-02   8.43856755E-12
  -3.84000018E-02   9.87843921E-12
  -3.83500010E-02   1.11229819E-11
  -3.83000001E-02   1.18938722E-11
  -3.82499993E-02   1.20521631E-11
  -3.81999984E-02   1.16808516E-11
  -3.81500013E-02   1.10742292E-11
  -3.81000005E-02   1.06251553E-11
  -3.80499996E-02   1.06502246E-11
  -3.79999988E-02   1.12275831E-11
  -3.79500017E-02   1.21241888E-11
  -3.79000008E-02   1.28547251E-11
  -3.78500000E-02   1.28562412E-11
  -3.77999991E-02   1.17063807E-11
  -3.77499983E-02   9.28695662E-12
  -3.77000012E-02   5.81447737E-12
  -3.76500003E-02   1.71911942E-12
  -3.75999995E-02  -2.57429061E-12
  -3.75499986E-02  -6.86250015E-12
  -3.75000015E-02  -1.12790263E-11
  -3.74500006E-02  -1.62598754E-11
  -3.73999998E-02  -2.23806060E-11
  -3.73499990E-02  -3.01379928E-11
  -3.73000018E-02  -3.97617182E-11
  -3.72500010E-02  -5.11154036E-11
  -3.72000001E-02  -6.37026751E-11
  -3.71499993E-02  -7.67587938E-11
  -3.70999984E-02  -8.93978364E-11
  -3.70500013E-02  -1.00795511E-10
  -3.70000005E-02  -1.10399974E-10
  -3.69499996E-02  -1.18153598E-10
  -3.68999988E-02  -1.24669122E-10
  -3.68500017E-02  -1.31255035E-10
  -3.68000008E-02  -1.39672343E-10
  -3.67500000E-02  -1.51578083E-10
  -3.66999991E-02  -1.67767411E-10
  -3.66499983E-02  -1.87503041E-10
  -3.66000012E-02  -2.08307954E-10
  -3.65500003E-02  -2.26494712E-10
  -3.64999995E-02  -2.38406184E-10
  -3.64499986E-02  -2.41955456E-10
  -3.64000015E-02  -2.37770414E-10
  -3.63500006E-02  -2.29259098E-10
  -3.62999998E-02  -2.21292443E-10
  -3.62499990E-02  -2.17844659E-10
  -3.62000018E-02  -2.19567017E-10
  -3.61500010E-02  -2.22553420E-10
  -3.61000001E-02  -2.19237919E-10
  -3.60499993E-02  -2.01465081E-10
  -3.59999985E-02  -1.64632377E-10
  -3.59500013E-02  -1.10979552E-10
  -3.59000005E-02  -5.01088893E-11
  -3.58499996E-02   4.15728389E-12
  -3.57999988E-02   3.97692677E-11
  -3.57500017E-02   5.28432090E-11
  -3.57000008E-02   5.13004847E-11
  -3.56500000E-02   5.33707210E-11
  -3.55999991E-02   8.07062472E-11
  -3.55499983E-02   1.48518323E-10
  -3.55000012E-02   2.57088434E-10
  -3.54500003E-02   3.89111132E-10
  -3.53999995E-02   5.15196052E-10
  -3.53499986E-02   6.06178274E-10
  -3.53000015E-02   6.47252751E-10
  -3.52500007E-02   6.47212728E-10
  -3.51999998E-02   6.37427666E-10
  -3.51499990E-02   6.59450883E-10
  -3.51000018E-02   7.45622009E-10
  -3.50500010E-02   9.01167696E-10
  -3.50000001E-02   1.09685239E-09
  -3.49499993E-02   1.27738764E-09
  -3.48999985E-02   1.38382716E-09
  -3.48500013E-02   1.38105172E-09
  -3.48000005E-02   1.27767230E-09
  -3.47499996E-02   1.12759813E-09
  -3.46999988E-02   1.00998876E-09
  -3.46500017E-02   9.94417548E-10
  -3.46000008E-02   1.10619347E-09
  -3.45500000E-02   1.30865363E-09
  -3.44999991E-02   1.51311952E-09
  -3.44499983E-02   1.61509961E-09
  -3.44000012E-02   1.54241342E-09
  -3.43500003E-02   1.29338817E-09
  -3.42999995E-02   9.45468370E-10
  -3.42499986E-02   6.26586449E-10
  -3.42000015E-02   4.58778598E-10
  -3.41500007E-02   4.98099340E-10
  -3.40999998E-02   6.99490355E-10
  -3.40499990E-02   9.26487276E-10
  -3.40000018E-02   1.00622710E-09
  -3.39500010E-02   8.08363543E-10
  -3.39000002E-02   3.12561699E-10
  -3.38499993E-02  -3.69149711E-10
  -3.37999985E-02  -1.03082043E-09
  -3.37500013E-02  -1.45990864E-09
  -3.37000005E-02  -1.53687008E-09
  -3.36499996E-02  -1.30066236E-09
  -3.35999988E-02  -9.45365231E-10
  -3.35500017E-02  -7.42540418E-10
  -3.35000008E-02  -9.18953025E-10
  -3.34500000E-02  -1.54362034E-09
  -3.33999991E-02  -2.47904297E-09
  -3.33499983E-02  -3.42617645E-09
  -3.33000012E-02  -4.05077172E-09
  -3.32500003E-02  -4.13864765E-09
  -3.31999995E-02  -3.70865383E-09
  -3.31499986E-02  -3.02554115E-09
  -3.31000015E-02  -2.49724441E-09
  -3.30500007E-02  -2.49463072E-09
  -3.29999998E-02  -3.17209525E-09
  -3.29499990E-02  -4.37404690E-09
  -3.29000019E-02  -5.67919045E-09
  -3.28500010E-02  -6.57378552E-09
  -3.28000002E-02  -6.68321620E-09
  -3.27499993E-02  -5.95750604E-09
  -3.26999985E-02  -4.71937645E-09
  -3.26500013E-02  -3.54079543E-09
  -3.26000005E-02  -2.99231440E-09
  -3.25499997E-02  -3.37324901E-09
  -3.24999988E-02  -4.54856730E-09
  -3.24500017E-02  -5.97801764E-09
  -3.24000008E-02  -6.93900315E-09
  -3.23500000E-02  -6.85332147E-09
  -3.22999991E-02  -5.57178392E-09
  -3.22499983E-02  -3.47915408E-09
  -3.22000012E-02  -1.35591038E-09
  -3.21500003E-02  -4.30734545E-11
  -3.20999995E-02  -5.26550296E-11
  -3.20499986E-02  -1.30273980E-09
  -3.20000015E-02  -3.11103743E-09
  -3.19500007E-02  -4.46913262E-09
  -3.18999998E-02  -4.48939774E-09
  -3.18499990E-02  -2.82758861E-09
  -3.18000019E-02   1.18559607E-10
  -3.17500010E-02   3.34353145E-09
  -3.17000002E-02   5.66144909E-09
  -3.16499993E-02   6.24692165E-09
  -3.15999985E-02   5.04399100E-09
  -3.15500014E-02   2.84280355E-09
  -3.15000005E-02   9.65551084E-10
  -3.14499997E-02   6.82229884E-10
  -3.13999988E-02   2.61131960E-09
  -3.13500017E-02   6.38452446E-09
  -3.13000008E-02   1.07497122E-08
  -3.12500000E-02   1.40927927E-08
  -3.11999992E-02   1.51623585E-08
  -3.11500002E-02   1.36723530E-08
  -3.10999993E-02   1.04943290E-08
  -3.10500003E-02   7.32391792E-09
  -3.09999995E-02   5.94397909E-09
  -3.09500005E-02   7.40219175E-09
  -3.08999997E-02   1.14801155E-08
  -3.08500007E-02   1.67178662E-08
  -3.07999998E-02   2.10159286E-08
  -3.07500008E-02   2.25685195E-08
  -3.07000000E-02   2.07142392E-08
  -3.06499992E-02   1.63042237E-08
  -3.06000002E-02   1.13891181E-08
  -3.05499993E-02   8.33147151E-09
  -3.05000003E-02   8.72310579E-09
  -3.04499995E-02   1.25990818E-08
  -3.04000005E-02   1.83297342E-08
  -3.03499997E-02   2.32788047E-08
  -3.03000007E-02   2.49651766E-08
  -3.02499998E-02   2.22177636E-08
  -3.02000009E-02   1.57884017E-08
  -3.01500000E-02   8.10969247E-09
  -3.00999992E-02   2.26396812E-09
  -3.00500002E-02   5.98231908E-10
  -2.99999993E-02   3.60658503E-09
  -2.99500003E-02   9.61049018E-09
  -2.98999995E-02   1.54254209E-08
  -2.98500005E-02   1.77562729E-08
  -2.97999997E-02   1.47139367E-08
  -2.97500007E-02   6.75882639E-09
  -2.96999998E-02  -3.39268547E-09
  -2.96500009E-02  -1.19072450E-08
  -2.96000000E-02  -1.55450248E-08
  -2.95499992E-02  -1.31808156E-08
  -2.95000002E-02  -6.42519682E-09
  -2.94499993E-02   9.84133330E-10
  -2.94000003E-02   4.79967976E-09
  -2.93499995E-02   2.19366014E-09
  -2.93000005E-02  -6.87346446E-09
  -2.92499997E-02  -1.95009804E-08
  -2.92000007E-02  -3.10383967E-08
  -2.91499998E-02  -3.71326045E-08
  -2.91000009E-02  -3.57297729E-08
  -2.90500000E-02  -2.81106338E-08
  -2.89999992E-02  -1.84409785E-08
  -2.89500002E-02  -1.19788170E-08
  -2.88999993E-02  -1.27030155E-08
  -2.88500004E-02  -2.14272369E-08
  -2.87999995E-02  -3.52859892E-08
  -2.87500005E-02  -4.88875216E-08
  -2.86999997E-02  -5.66754146E-08
  -2.86500007E-02  -5.54663977E-08
  -2.85999998E-02  -4.60075960E-08
  -2.85500009E-02  -3.27978427E-08
  -2.85000000E-02  -2.21826504E-08
  -2.84499992E-02  -1.95244123E-08
  -2.84000002E-02  -2.67060454E-08
  -2.83499993E-02  -4.11245047E-08
  -2.83000004E-02  -5.66950966E-08
  -2.82499995E-02  -6.64871820E-08
  -2.82000005E-02  -6.58502870E-08
  -2.81499997E-02  -5.46202124E-08
  -2.81000007E-02  -3.73607350E-08
  -2.80499998E-02  -2.14546318E-08
  -2.80000009E-02  -1.38346001E-08
  -2.79500000E-02  -1.77968165E-08
  -2.78999992E-02  -3.13567803E-08
  -2.78500002E-02  -4.79569984E-08
  -2.77999993E-02  -5.92913345E-08
  -2.77500004E-02  -5.90347327E-08
  -2.76999995E-02  -4.58085125E-08
  -2.76500005E-02  -2.39990339E-08
  -2.75999997E-02  -1.97698036E-09
  -2.75500007E-02   1.15652847E-08
  -2.74999999E-02   1.15563497E-08
  -2.74500009E-02  -1.01912678E-09
  -2.74000000E-02  -1.93561149E-08
  -2.73499992E-02  -3.37223227E-08
  -2.73000002E-02  -3.57835042E-08
  -2.72499993E-02  -2.24404104E-08
  -2.72000004E-02   2.58647503E-09
  -2.71499995E-02   3.02221181E-08
  -2.71000005E-02   4.99874204E-08
  -2.70499997E-02   5.47191696E-08
  -2.70000007E-02   4.39358985E-08
  -2.69499999E-02   2.42722873E-08
  -2.69000009E-02   6.68737732E-09
  -2.68500000E-02   1.61147606E-09
  -2.67999992E-02   1.41729828E-08
  -2.67500002E-02   4.16799715E-08
  -2.66999993E-02   7.45757589E-08
  -2.66500004E-02   1.00546039E-07
  -2.65999995E-02   1.10011008E-07
  -2.65500005E-02   1.00549485E-07
  -2.64999997E-02   7.82101850E-08
  -2.64500007E-02   5.50167023E-08
  -2.63999999E-02   4.36813821E-08
  -2.63500009E-02   5.18438128E-08
  -2.63000000E-02   7.84368126E-08
  -2.62499992E-02   1.13895865E-07
  -2.62000002E-02   1.44233596E-07
  -2.61499994E-02   1.57245253E-07
  -2.61000004E-02   1.48090635E-07
  -2.60499995E-02   1.21698093E-07
  -2.60000005E-02   9.08040008E-08
  -2.59499997E-02   7.03883885E-08
  -2.59000007E-02   7.09267312E-08
  -2.58499999E-02   9.34869675E-08
  -2.58000009E-02   1.28951640E-07
  -2.57500000E-02   1.61838415E-07
  -2.56999992E-02   1.77118935E-07
  -2.56500002E-02   1.67028716E-07
  -2.55999994E-02   1.34779228E-07
  -2.55500004E-02   9.34009776E-08
  -2.54999995E-02   6.01057124E-08
  -2.54500005E-02   4.85993574E-08
  -2.53999997E-02   6.27751859E-08
  -2.53500007E-02   9.46851912E-08
  -2.52999999E-02   1.27826468E-07
  -2.52500009E-02   1.44396580E-07
  -2.52000000E-02   1.33334538E-07
  -2.51499992E-02   9.55214290E-08
  -2.51000002E-02   4.37053558E-08
  -2.50499994E-02  -2.95659874E-09
  -2.50000004E-02  -2.74080971E-08
  -2.49499995E-02  -2.24773444E-08
  -2.49000005E-02   5.61397195E-09
  -2.48499997E-02   3.97200068E-08
  -2.48000007E-02   5.92560205E-08
  -2.47499999E-02   4.94365153E-08
  -2.47000009E-02   8.12445400E-09
  -2.46500000E-02  -5.28738724E-08
  -2.45999992E-02  -1.12796535E-07
  -2.45500002E-02  -1.51093460E-07
  -2.44999994E-02  -1.56722294E-07
  -2.44500004E-02  -1.33361524E-07
  -2.43999995E-02  -9.80756738E-08
  -2.43500005E-02  -7.38753201E-08
  -2.42999997E-02  -7.93952992E-08
  -2.42500007E-02  -1.20301209E-07
  -2.41999999E-02  -1.86364602E-07
  -2.41500009E-02  -2.55672717E-07
  -2.41000000E-02  -3.04239279E-07
  -2.40499992E-02  -3.16789766E-07
  -2.40000002E-02  -2.93859699E-07
  -2.39499994E-02  -2.51898626E-07
  -2.39000004E-02  -2.16165049E-07
  -2.38499995E-02  -2.09462215E-07
  -2.38000005E-02  -2.41722290E-07
  -2.37499997E-02  -3.05180151E-07
  -2.37000007E-02  -3.77453375E-07
  -2.36499999E-02  -4.31313453E-07
  -2.36000009E-02  -4.46871326E-07
  -2.35500000E-02  -4.20707067E-07
  -2.34999992E-02  -3.67734117E-07
  -2.34500002E-02  -3.14790697E-07
  -2.33999994E-02  -2.88680155E-07
  -2.33500004E-02  -3.03962707E-07
  -2.32999995E-02  -3.56032359E-07
  -2.32500006E-02  -4.22737912E-07
  -2.31999997E-02  -4.74000615E-07
  -2.31500007E-02  -4.85240548E-07
  -2.30999999E-02  -4.48604055E-07
  -2.30500009E-02  -3.76850153E-07
  -2.30000000E-02  -2.97973997E-07
  -2.29499992E-02  -2.42808966E-07
  -2.29000002E-02  -2.31084215E-07
  -2.28499994E-02  -2.62230373E-07
  -2.28000004E-02  -3.15206051E-07
  -2.27499995E-02  -3.57610645E-07
  -2.27000006E-02  -3.60138984E-07
  -2.26499997E-02  -3.09925412E-07
  -2.26000007E-02  -2.16695355E-07
  -2.25499999E-02  -1.08785208E-07
  -2.25000009E-02  -2.06335216E-08
  -2.24500000E-02   2.27467112E-08
  -2.23999992E-02   1.73218009E-08
  -2.23500002E-02  -1.77125443E-08
  -2.22999994E-02  -4.81945186E-08
  -2.22500004E-02  -4.02283362E-08
  -2.21999995E-02   2.43948168E-08
  -2.21500006E-02   1.39587456E-07
  -2.20999997E-02   2.77213928E-07
  -2.20500007E-02   3.99382884E-07
  -2.19999999E-02   4.75392397E-07
  -2.19500009E-02   4.95717927E-07
  -2.19000001E-02   4.76631101E-07
  -2.18499992E-02   4.53175687E-07
  -2.18000002E-02   4.63476795E-07
  -2.17499994E-02   5.31357102E-07
  -2.17000004E-02   6.55132055E-07
  -2.16499995E-02   8.07793015E-07
  -2.16000006E-02   9.48703814E-07
  -2.15499997E-02   1.04170078E-06
  -2.15000007E-02   1.07148037E-06
  -2.14499999E-02   1.05078902E-06
  -2.14000009E-02   1.01497994E-06
  -2.13500001E-02   1.00618468E-06
  -2.12999992E-02   1.05411902E-06
  -2.12500002E-02   1.16219394E-06
  -2.11999994E-02   1.30534272E-06
  -2.11500004E-02   1.44075659E-06
  -2.10999995E-02   1.52686493E-06
  -2.10500006E-02   1.54206077E-06
  -2.09999997E-02   1.49464961E-06
  -2.09500007E-02   1.41934311E-06
  -2.08999999E-02   1.36167171E-06
  -2.08500009E-02   1.35721518E-06
  -2.08000001E-02   1.41502653E-06
  -2.07499992E-02   1.51287179E-06
  -2.07000002E-02   1.60665036E-06
  -2.06499994E-02   1.64994128E-06
  -2.06000004E-02   1.61493392E-06
  -2.05499995E-02   1.50522635E-06
  -2.05000006E-02   1.35452740E-06
  -2.04499997E-02   1.21162077E-06
  -2.04000007E-02   1.11821998E-06
  -2.03499999E-02   1.08969050E-06
  -2.03000009E-02   1.10746873E-06
  -2.02500001E-02   1.12682017E-06
  -2.01999992E-02   1.09663870E-06
  -2.01500002E-02   9.82456299E-07
  -2.00999994E-02   7.82220070E-07
  -2.00500004E-02   5.27533246E-07
  -1.99999996E-02   2.69579658E-07
  -1.99500006E-02   5.59164057E-08
  -1.98999997E-02  -9.14146909E-08
  -1.98500007E-02  -1.86447394E-07
  -1.97999999E-02  -2.73528372E-07
  -1.97500009E-02  -4.07613385E-07
  -1.97000001E-02  -6.29407509E-07
  -1.96499992E-02  -9.46610385E-07
  -1.96000002E-02  -1.32992579E-06
  -1.95499994E-02  -1.72587818E-06
  -1.95000004E-02  -2.08083725E-06
  -1.94499996E-02  -2.36546043E-06
  -1.94000006E-02  -2.58839782E-06
  -1.93499997E-02  -2.79284836E-06
  -1.93000007E-02  -3.03729075E-06
  -1.92499999E-02  -3.36896142E-06
  -1.92000009E-02  -3.80208598E-06
  -1.91500001E-02  -4.31086437E-06
  -1.90999992E-02  -4.84063457E-06
  -1.90500002E-02  -5.33236880E-06
  -1.89999994E-02  -5.74949900E-06
  -1.89500004E-02  -6.09483868E-06
  -1.88999996E-02  -6.40973030E-06
  -1.88500006E-02  -6.75554293E-06
  -1.87999997E-02  -7.18572619E-06
  -1.87500007E-02  -7.72106978E-06
  -1.86999999E-02  -8.33951435E-06
  -1.86500009E-02  -8.98538474E-06
  -1.86000001E-02  -9.59411864E-06
  -1.85499992E-02  -1.01213964E-05
  -1.85000002E-02  -1.05634317E-05
  -1.84499994E-02  -1.09590292E-05
  -1.84000004E-02  -1.13721835E-05
  -1.83499996E-02  -1.18629396E-05
  -1.83000006E-02  -1.24596554E-05
  -1.82499997E-02  -1.31453780E-05
  -1.82000007E-02  -1.38647538E-05
  -1.81499999E-02  -1.45486183E-05
  -1.81000009E-02  -1.51452341E-05
  -1.80500001E-02  -1.56439964E-05
  -1.79999992E-02  -1.60806721E-05
  -1.79500002E-02  -1.65214587E-05
  -1.78999994E-02  -1.70329040E-05
  -1.78500004E-02  -1.76512549E-05
  -1.77999996E-02  -1.83652119E-05
  -1.77500006E-02  -1.91201998E-05
  -1.76999997E-02  -1.98425150E-05
  -1.76500008E-02  -2.04725875E-05
  -1.75999999E-02  -2.09922455E-05
  -1.75500009E-02  -2.14334250E-05
  -1.75000001E-02  -2.18641180E-05
  -1.74499992E-02  -2.23576626E-05
  -1.74000002E-02  -2.29591842E-05
  -1.73499994E-02  -2.36645101E-05
  -1.73000004E-02  -2.44214625E-05
  -1.72499996E-02  -2.51531292E-05
  -1.72000006E-02  -2.57928405E-05
  -1.71499997E-02  -2.63150414E-05
  -1.71000008E-02  -2.67477280E-05
  -1.70499999E-02  -2.71605677E-05
  -1.70000009E-02  -2.76338160E-05
  -1.69500001E-02  -2.82219462E-05
  -1.68999992E-02  -2.89285472E-05
  -1.68500002E-02  -2.97041952E-05
  -1.67999994E-02  -3.04685673E-05
  -1.67500004E-02  -3.11470467E-05
  -1.66999996E-02  -3.17052218E-05
  -1.66500006E-02  -3.21655498E-05
  -1.65999997E-02  -3.25982401E-05
  -1.65500008E-02  -3.30901566E-05
  -1.64999999E-02  -3.37057281E-05
  -1.64500009E-02  -3.44576401E-05
  -1.64000001E-02  -3.53007890E-05
  -1.63499992E-02  -3.61526581E-05
  -1.63000003E-02  -3.69312911E-05
  -1.62499994E-02  -3.75934360E-05
  -1.62000004E-02  -3.81556092E-05
  -1.61499996E-02  -3.86881293E-05
  -1.61000006E-02  -3.92843904E-05
  -1.60499997E-02  -4.00191821E-05
  -1.60000008E-02  -4.09148925E-05
  -1.59499999E-02  -4.19312310E-05
  -1.59000009E-02  -4.29834108E-05
  -1.58500001E-02  -4.39810610E-05
  -1.57999992E-02  -4.48702594E-05
  -1.57500003E-02  -4.56594389E-05
  -1.56999994E-02  -4.64171208E-05
  -1.56500004E-02  -4.72422144E-05
  -1.55999996E-02  -4.82200812E-05
  -1.55499997E-02  -4.93840307E-05
  -1.54999997E-02  -5.07001860E-05
  -1.54499998E-02  -5.20830108E-05
  -1.53999999E-02  -5.34347018E-05
  -1.53500000E-02  -5.46907249E-05
  -1.53000001E-02  -5.58508036E-05
  -1.52500002E-02  -5.69810363E-05
  -1.52000003E-02  -5.81856111E-05
  -1.51500003E-02  -5.95605379E-05
  -1.51000004E-02  -6.11504947E-05
  -1.50499996E-02  -6.29286224E-05
  -1.49999997E-02  -6.48085697E-05
  -1.49499997E-02  -6.66839333E-05
  -1.48999998E-02  -6.84774350E-05
  -1.48499999E-02  -7.01774188E-05
  -1.48000000E-02  -7.18449737E-05
  -1.47500001E-02  -7.35877402E-05
  -1.47000002E-02  -7.55119909E-05
  -1.46500003E-02  -7.76749657E-05
  -1.46000003E-02  -8.00588532E-05
  -1.45500004E-02  -8.25784809E-05
  -1.44999996E-02  -8.51201985E-05
  -1.44499997E-02  -8.75942933E-05
  -1.43999998E-02  -8.99772349E-05
  -1.43499998E-02  -9.23240950E-05
  -1.42999999E-02  -9.47451990E-05
  -1.42500000E-02  -9.73574133E-05
  -1.42000001E-02  -1.00231511E-04
  -1.41500002E-02  -1.03359780E-04
  -1.41000003E-02  -1.06659209E-04
  -1.40500003E-02  -1.10009074E-04
  -1.40000004E-02  -1.13306000E-04
  -1.39499996E-02  -1.16512056E-04
  -1.38999997E-02  -1.19673474E-04
  -1.38499998E-02  -1.22901241E-04
  -1.37999998E-02  -1.26321669E-04
  -1.37499999E-02  -1.30019514E-04
  -1.37000000E-02  -1.33999245E-04
  -1.36500001E-02  -1.38182266E-04
  -1.36000002E-02  -1.42442717E-04
  -1.35500003E-02  -1.46664723E-04
  -1.35000004E-02  -1.50796142E-04
  -1.34500004E-02  -1.54873749E-04
  -1.33999996E-02  -1.59008327E-04
  -1.33499997E-02  -1.63335790E-04
  -1.32999998E-02  -1.67955994E-04
  -1.32499998E-02  -1.72887492E-04
  -1.31999999E-02  -1.78058501E-04
  -1.31500000E-02  -1.83339202E-04
  -1.31000001E-02  -1.88600970E-04
  -1.30500002E-02  -1.93775544E-04
  -1.30000003E-02  -1.98887428E-04
  -1.29500004E-02  -2.04044598E-04
  -1.29000004E-02  -2.09391073E-04
  -1.28499996E-02  -2.15041902E-04
  -1.27999997E-02  -2.21031165E-04
  -1.27499998E-02  -2.27296405E-04
  -1.26999998E-02  -2.33706698E-04
  -1.26499999E-02  -2.40122448E-04
  -1.26000000E-02  -2.46460142E-04
  -1.25500001E-02  -2.52731785E-04
  -1.25000002E-02  -2.59041815E-04
  -1.24500003E-02  -2.65542098E-04
  -1.24000004E-02  -2.72364006E-04
  -1.23500004E-02  -2.79559463E-04
  -1.22999996E-02  -2.87078292E-04
  -1.22499997E-02  -2.94790545E-04
  -1.21999998E-02  -3.02546599E-04
  -1.21499998E-02  -3.10246920E-04
  -1.20999999E-02  -3.17889091E-04
  -1.20500000E-02  -3.25571018E-04
  -1.20000001E-02  -3.33449134E-04
  -1.19500002E-02  -3.41668987E-04
  -1.19000003E-02  -3.50300106E-04
  -1.18500004E-02  -3.59305530E-04
  -1.18000004E-02  -3.68557987E-04
  -1.17499996E-02  -3.77899443E-04
  -1.16999997E-02  -3.87215259E-04
  -1.16499998E-02  -3.96487740E-04
  -1.15999999E-02  -4.05807077E-04
  -1.15499999E-02  -4.15333750E-04
  -1.15000000E-02  -4.25227860E-04
  -1.14500001E-02  -4.35579248E-04
  -1.14000002E-02  -4.46367747E-04
  -1.13500003E-02  -4.57473303E-04
  -1.13000004E-02  -4.68733546E-04
  -1.12500004E-02  -4.80018847E-04
  -1.11999996E-02  -4.91294311E-04
  -1.11499997E-02  -5.02638170E-04
  -1.10999998E-02  -5.14209620E-04
  -1.10499999E-02  -5.26179501E-04
  -1.09999999E-02  -5.38654567E-04
  -1.09500000E-02  -5.51630335E-04
  -1.09000001E-02  -5.64994814E-04
  -1.08500002E-02  -5.78581356E-04
  -1.08000003E-02  -5.92246070E-04
  -1.07500004E-02  -6.05936511E-04
  -1.07000005E-02  -6.19719212E-04
  -1.06499996E-02  -6.33752730E-04
  -1.05999997E-02  -6.48219953E-04
  -1.05499998E-02  -6.63248298E-04
  -1.04999999E-02  -6.78853714E-04
  -1.04499999E-02  -6.94936549E-04
  -1.04000000E-02  -7.11329689E-04
  -1.03500001E-02  -7.27876672E-04
  -1.03000002E-02  -7.44506484E-04
  -1.02500003E-02  -7.61270057E-04
  -1.02000004E-02  -7.78321235E-04
  -1.01500005E-02  -7.95849075E-04
  -1.00999996E-02  -8.13995604E-04
  -1.00499997E-02  -8.32793128E-04
  -9.99999978E-03  -8.52151716E-04
  -9.94999986E-03  -8.71903321E-04
  -9.89999995E-03  -8.91880132E-04
  -9.85000003E-03  -9.11994721E-04
  -9.80000012E-03  -9.32282244E-04
  -9.75000020E-03  -9.52887814E-04
  -9.70000029E-03  -9.74006078E-04
  -9.65000037E-03  -9.95794311E-04
  -9.60000046E-03  -1.01830531E-03
  -9.54999961E-03  -1.04146602E-03
  -9.49999969E-03  -1.06511300E-03
  -9.44999978E-03  -1.08907151E-03
  -9.39999986E-03  -1.11323735E-03
  -9.34999995E-03  -1.13762938E-03
  -9.30000003E-03  -1.16238545E-03
  -9.25000012E-03  -1.18770404E-03
  -9.20000020E-03  -1.21375779E-03
  -9.15000029E-03  -1.24061666E-03
  -9.10000037E-03  -1.26821967E-03
  -9.05000046E-03  -1.29640661E-03
  -8.99999961E-03  -1.32499216E-03
  -8.94999970E-03  -1.35385501E-03
  -8.89999978E-03  -1.38299714E-03
  -8.84999987E-03  -1.41254370E-03
  -8.79999995E-03  -1.44269376E-03
  -8.75000004E-03  -1.47363020E-03
  -8.70000012E-03  -1.50543824E-03
  -8.65000021E-03  -1.53807271E-03
  -8.60000029E-03  -1.57138158E-03
  -8.55000038E-03  -1.60517590E-03
  -8.50000046E-03  -1.63932226E-03
  -8.44999962E-03  -1.67380949E-03
  -8.39999970E-03  -1.70875539E-03
  -8.34999979E-03  -1.74435659E-03
  -8.29999987E-03  -1.78080495E-03
  -8.24999996E-03  -1.81820104E-03
  -8.20000004E-03  -1.85651332E-03
  -8.15000013E-03  -1.89560011E-03
  -8.10000021E-03  -1.93527562E-03
  -8.05000030E-03  -1.97539735E-03
  -8.00000038E-03  -2.01593642E-03
  -7.95000046E-03  -2.05699541E-03
  -7.89999962E-03  -2.09876662E-03
  -7.84999970E-03  -2.14144983E-03
  -7.79999979E-03  -2.18516076E-03
  -7.74999987E-03  -2.22988450E-03
  -7.69999996E-03  -2.27548694E-03
  -7.65000004E-03  -2.32178112E-03
  -7.60000013E-03  -2.36861454E-03
  -7.55000021E-03  -2.41594156E-03
  -7.49999983E-03  -2.46384973E-03
  -7.44999992E-03  -2.51252297E-03
  -7.40000000E-03  -2.56216084E-03
  -7.35000009E-03  -2.61289557E-03
  -7.30000017E-03  -2.66473345E-03
  -7.24999979E-03  -2.71755131E-03
  -7.19999988E-03  -2.77116336E-03
  -7.14999996E-03  -2.82540987E-03
  -7.10000005E-03  -2.88022892E-03
  -7.05000013E-03  -2.93569849E-03
  -7.00000022E-03  -2.99199787E-03
  -6.94999984E-03  -3.04932962E-03
  -6.89999992E-03  -3.10783787E-03
  -6.85000001E-03  -3.16754263E-03
  -6.80000009E-03  -3.22833844E-03
  -6.75000018E-03  -3.29004321E-03
  -6.69999979E-03  -3.35249119E-03
  -6.64999988E-03  -3.41561064E-03
  -6.59999996E-03  -3.47945769E-03
  -6.55000005E-03  -3.54419975E-03
  -6.50000013E-03  -3.61004029E-03
  -6.45000022E-03  -3.67712718E-03
  -6.39999984E-03  -3.74548952E-03
  -6.34999992E-03  -3.81502975E-03
  -6.30000001E-03  -3.88557091E-03
  -6.25000009E-03  -3.95693677E-03
  -6.20000018E-03  -4.02903603E-03
  -6.14999980E-03  -4.10191016E-03
  -6.09999988E-03  -4.17572167E-03
  -6.04999997E-03  -4.25068568E-03
  -6.00000005E-03  -4.32696659E-03
  -5.95000014E-03  -4.40459745E-03
  -5.90000022E-03  -4.48348373E-03
  -5.84999984E-03  -4.56344988E-03
  -5.79999993E-03  -4.64431103E-03
  -5.75000001E-03  -4.72598150E-03
  -5.70000010E-03  -4.80851764E-03
  -5.65000018E-03  -4.89207357E-03
  -5.59999980E-03  -4.97684116E-03
  -5.54999989E-03  -5.06298151E-03
  -5.49999997E-03  -5.15054585E-03
  -5.45000006E-03  -5.23944851E-03
  -5.40000014E-03  -5.32949250E-03
  -5.35000023E-03  -5.42048225E-03
  -5.29999984E-03  -5.51232090E-03
  -5.24999993E-03  -5.60504198E-03
  -5.20000001E-03  -5.69880102E-03
  -5.15000010E-03  -5.79380663E-03
  -5.10000018E-03  -5.89022320E-03
  -5.04999980E-03  -5.98807726E-03
  -4.99999989E-03  -6.08727615E-03
  -4.94999997E-03  -6.18764106E-03
  -4.90000006E-03  -6.28898013E-03
  -4.85000014E-03  -6.39119279E-03
  -4.80000023E-03  -6.49430836E-03
  -4.74999985E-03  -6.59848005E-03
  -4.69999993E-03  -6.70392672E-03
  -4.65000002E-03  -6.81082625E-03
  -4.60000010E-03  -6.91922335E-03
  -4.55000019E-03  -7.02901371E-03
  -4.49999981E-03  -7.13999476E-03
  -4.44999989E-03  -7.25196721E-03
  -4.39999998E-03  -7.36480532E-03
  -4.35000006E-03  -7.47852400E-03
  -4.30000015E-03  -7.59328250E-03
  -4.25000023E-03  -7.70929689E-03
  -4.19999985E-03  -7.82674085E-03
  -4.14999994E-03  -7.94566888E-03
  -4.10000002E-03  -8.06597434E-03
  -4.05000011E-03  -8.18744861E-03
  -4.00000019E-03  -8.30987748E-03
  -3.94999981E-03  -8.43312684E-03
  -3.89999989E-03  -8.55721347E-03
  -3.84999998E-03  -8.68228450E-03
  -3.80000006E-03  -8.80855881E-03
  -3.74999992E-03  -8.93622171E-03
  -3.70000000E-03  -9.06534307E-03
  -3.65000009E-03  -9.19583254E-03
  -3.59999994E-03  -9.32747405E-03
  -3.55000002E-03  -9.46002267E-03
  -3.50000011E-03  -9.59332101E-03
  -3.44999996E-03  -9.72736999E-03
  -3.40000005E-03  -9.86232050E-03
  -3.34999990E-03  -9.99842212E-03
  -3.29999998E-03  -1.01358853E-02
  -3.25000007E-03  -1.02747567E-02
  -3.19999992E-03  -1.04149487E-02
  -3.15000000E-03  -1.05562368E-02
  -3.10000009E-03  -1.06983520E-02
  -3.04999994E-03  -1.08411014E-02
  -3.00000003E-03  -1.09844608E-02
  -2.95000011E-03  -1.11285783E-02
  -2.89999996E-03  -1.12736961E-02
  -2.85000005E-03  -1.14200674E-02
  -2.79999990E-03  -1.15677742E-02
  -2.74999999E-03  -1.17167160E-02
  -2.70000007E-03  -1.18666235E-02
  -2.64999992E-03  -1.20171923E-02
  -2.60000001E-03  -1.21682165E-02
  -2.55000009E-03  -1.23196598E-02
  -2.49999994E-03  -1.24717001E-02
  -2.45000003E-03  -1.26246307E-02
  -2.40000011E-03  -1.27786985E-02
  -2.34999997E-03  -1.29339704E-02
  -2.30000005E-03  -1.30903209E-02
  -2.24999990E-03  -1.32474862E-02
  -2.19999999E-03  -1.34051433E-02
  -2.15000007E-03  -1.35630444E-02
  -2.09999993E-03  -1.37211569E-02
  -2.05000001E-03  -1.38796289E-02
  -2.00000009E-03  -1.40387565E-02
  -1.94999995E-03  -1.41988117E-02
  -1.90000003E-03  -1.43598672E-02
  -1.85000000E-03  -1.45218046E-02
  -1.79999997E-03  -1.46843391E-02
  -1.75000005E-03  -1.48470988E-02
  -1.70000002E-03  -1.50097897E-02
  -1.64999999E-03  -1.51723446E-02
  -1.59999996E-03  -1.53349340E-02
  -1.55000004E-03  -1.54978596E-02
  -1.50000001E-03  -1.56614129E-02
  -1.44999998E-03  -1.58257075E-02
  -1.39999995E-03  -1.59906317E-02
  -1.35000004E-03  -1.61558930E-02
  -1.30000000E-03  -1.63210761E-02
  -1.24999997E-03  -1.64858364E-02
  -1.20000006E-03  -1.66500695E-02
  -1.15000003E-03  -1.68139413E-02
  -1.09999999E-03  -1.69777423E-02
  -1.04999996E-03  -1.71417762E-02
  -1.00000005E-03  -1.73061825E-02
  -9.50000016E-04  -1.74708962E-02
  -8.99999985E-04  -1.76356323E-02
  -8.50000011E-04  -1.77999120E-02
  -7.99999980E-04  -1.79633368E-02
  -7.50000007E-04  -1.81257315E-02
  -6.99999975E-04  -1.82872117E-02
  -6.50000002E-04  -1.84480883E-02
  -6.00000028E-04  -1.86086856E-02
  -5.49999997E-04  -1.87691879E-02
  -5.00000024E-04  -1.89295765E-02
  -4.49999992E-04  -1.90895349E-02
  -3.99999990E-04  -1.92485396E-02
  -3.49999988E-04  -1.94061249E-02
  -3.00000014E-04  -1.95620582E-02
  -2.50000012E-04  -1.97163913E-02
  -1.99999995E-04  -1.98694542E-02
  -1.50000007E-04  -2.00216975E-02
  -9.99999975E-05  -2.01733988E-02
  -4.99999987E-05  -2.03244556E-02
   0.00000000      -2.04744730E-02
   4.99999987E-05  -2.06229780E-02
   9.99999975E-05  -2.07694359E-02
   1.50000007E-04  -2.09135134E-02
   1.99999995E-04  -2.10552644E-02
   2.50000012E-04  -2.11950466E-02
   3.00000014E-04  -2.13333163E-02
   3.49999988E-04  -2.14703660E-02
   3.99999990E-04  -2.16062423E-02
   4.49999992E-04  -2.17405818E-02
   5.00000024E-04  -2.18727011E-02
   5.49999997E-04  -2.20019352E-02
   6.00000028E-04  -2.21278835E-02
   6.50000002E-04  -2.22505387E-02
   6.99999975E-04  -2.23703012E-02
   7.50000007E-04  -2.24877335E-02
   7.99999980E-04  -2.26032026E-02
   8.50000011E-04  -2.27167439E-02
   8.99999985E-04  -2.28279829E-02
   9.50000016E-04  -2.29362790E-02
   1.00000005E-03  -2.30409522E-02
   1.04999996E-03  -2.31414586E-02
   1.09999999E-03  -2.32377425E-02
   1.15000003E-03  -2.33301762E-02
   1.20000006E-03  -2.34192982E-02
   1.24999997E-03  -2.35055871E-02
   1.30000000E-03  -2.35892087E-02
   1.35000004E-03  -2.36698054E-02
   1.39999995E-03  -2.37466749E-02
   1.44999998E-03  -2.38189567E-02
   1.50000001E-03  -2.38859802E-02
   1.55000004E-03  -2.39477009E-02
   1.59999996E-03  -2.40044463E-02
   1.64999999E-03  -2.40567997E-02
   1.70000002E-03  -2.41053235E-02
   1.75000005E-03  -2.41501965E-02
   1.79999997E-03  -2.41911616E-02
   1.85000000E-03  -2.42275298E-02
   1.90000003E-03  -2.42583416E-02
   1.94999995E-03  -2.42829304E-02
   2.00000009E-03  -2.43011340E-02
   2.05000001E-03  -2.43131872E-02
   2.09999993E-03  -2.43196823E-02
   2.15000007E-03  -2.43212581E-02
   2.19999999E-03  -2.43181381E-02
   2.24999990E-03  -2.43100785E-02
   2.30000005E-03  -2.42963973E-02
   2.34999997E-03  -2.42762286E-02
   2.40000011E-03  -2.42487676E-02
   2.45000003E-03  -2.42136177E-02
   2.49999994E-03  -2.41710506E-02
   2.55000009E-03  -2.41216682E-02
   2.60000001E-03  -2.40661558E-02
   2.64999992E-03  -2.40049306E-02
   2.70000007E-03  -2.39378940E-02
   2.74999999E-03  -2.38643121E-02
   2.79999990E-03  -2.37831045E-02