  -3.99999991E-02   0.00000000    
  -3.99499983E-02   0.00000000    
  -3.99000011E-02   0.00000000    
  -3.98500003E-02   0.00000000    
  -3.97999994E-02   0.00000000    
  -3.97499986E-02  -9.52719558E-23
  -3.97000015E-02  -8.43085916E-22
  -3.96500006E-02  -3.87524302E-21
  -3.95999998E-02  -1.21398303E-20
  -3.95499989E-02  -2.85470305E-20
  -3.95000018E-02  -5.19531625E-20
  -3.94500010E-02  -7.09693177E-20
  -3.94000001E-02  -5.87158648E-20
  -3.93499993E-02   2.62318682E-20
  -3.92999984E-02   2.28124315E-19
  -3.92500013E-02   5.71828768E-19
  -3.92000005E-02   1.03832891E-18
  -3.91499996E-02   1.55279916E-18
  -3.90999988E-02   1.99979288E-18
  -3.90500017E-02   2.26933672E-18
  -3.90000008E-02   2.31925458E-18
  -3.89500000E-02   2.22240766E-18
  -3.88999991E-02   2.16476041E-18
  -3.88499983E-02   2.37807705E-18
  -3.88000011E-02   3.02480739E-18
  -3.87500003E-02   4.08598685E-18
  -3.86999995E-02   5.31555650E-18
  -3.86499986E-02   6.30378091E-18
  -3.86000015E-02   6.64215403E-18
  -3.85500006E-02   6.12351385E-18
  -3.84999998E-02   4.87474451E-18
  -3.84499989E-02   3.33126147E-18
  -3.84000018E-02   2.02796645E-18
  -3.83500010E-02   1.27708653E-18
  -3.83000001E-02   8.82362555E-19
  -3.82499993E-02   5.25348643E-20
  -3.81999984E-02  -2.39692064E-18
  -3.81500013E-02  -7.60211822E-18
  -3.81000005E-02  -1.61530722E-17
  -3.80499996E-02  -2.77837328E-17
  -3.79999988E-02  -4.14344199E-17
  -3.79500017E-02  -5.57083643E-17
  -3.79000008E-02  -6.95480754E-17
  -3.78500000E-02  -8.28234441E-17
  -3.77999991E-02  -9.65280269E-17
  -3.77499983E-02  -1.12438502E-16
  -3.77000012E-02  -1.32344478E-16
  -3.76500003E-02  -1.57184394E-16
  -3.75999995E-02  -1.86505538E-16
  -3.75499986E-02  -2.18542163E-16
  -3.75000015E-02  -2.50920011E-16
  -3.74500006E-02  -2.81683586E-16
  -3.73999998E-02  -3.10166657E-16
  -3.73499990E-02  -3.37281823E-16
  -3.73000018E-02  -3.65072286E-16
  -3.72500010E-02  -3.95717408E-16
  -3.72000001E-02  -4.30443244E-16
  -3.71499993E-02  -4.68828607E-16
  -3.70999984E-02  -5.08803162E-16
  -3.70500013E-02  -5.47295780E-16
  -3.70000005E-02  -5.81191710E-16
  -3.69499996E-02  -6.08146574E-16
  -3.68999988E-02  -6.26943983E-16
  -3.68500017E-02  -6.37381493E-16
  -3.68000008E-02  -6.39933445E-16
  -3.67500000E-02  -6.35499174E-16
  -3.66999991E-02  -6.25363790E-16
  -3.66499983E-02  -6.11207752E-16
  -3.66000012E-02  -5.94836458E-16
  -3.65500003E-02  -5.77421354E-16
  -3.64999995E-02  -5.58429923E-16
  -3.64499986E-02  -5.34850431E-16
  -3.64000015E-02  -5.01470663E-16
  -3.63500006E-02  -4.52636990E-16
  -3.62999998E-02  -3.85144796E-16
  -3.62499990E-02  -3.01037548E-16
  -3.62000018E-02  -2.08654496E-16
  -3.61500010E-02  -1.20691395E-16
  -3.61000001E-02  -4.93561433E-17
  -3.60499993E-02  -4.07370968E-19
  -3.59999985E-02   3.09526353E-17
  -3.59500013E-02   5.95445964E-17
  -3.59000005E-02   1.04077784E-16
  -3.58499996E-02   1.77304007E-16
  -3.57999988E-02   2.76868654E-16
  -3.57500017E-02   3.81986422E-16
  -3.57000008E-02   4.59157873E-16
  -3.56500000E-02   4.76058139E-16
  -3.55999991E-02   4.18149752E-16
  -3.55499983E-02   2.99878012E-16
  -3.55000012E-02   1.63326746E-16
  -3.54500003E-02   6.22431573E-17
  -3.53999995E-02   3.65642716E-17
  -3.53499986E-02   8.86419781E-17
  -3.53000015E-02   1.73813768E-16
  -3.52500007E-02   2.13133223E-16
  -3.51999998E-02   1.26238310E-16
  -3.51499990E-02  -1.28329621E-16
  -3.51000018E-02  -5.24220750E-16
  -3.50500010E-02  -9.66334467E-16
  -3.50000001E-02  -1.32330941E-15
  -3.49499993E-02  -1.48312261E-15
  -3.48999985E-02  -1.40817089E-15
  -3.48500013E-02  -1.16252339E-15
  -3.48000005E-02  -8.93403237E-16
  -3.47499996E-02  -7.68830207E-16
  -3.46999988E-02  -8.95431563E-16
  -3.46500017E-02  -1.25397764E-15
  -3.46000008E-02  -1.68712764E-15
  -3.45500000E-02  -1.95319487E-15
  -3.44999991E-02  -1.82918120E-15
  -3.44499983E-02  -1.21961182E-15
  -3.44000012E-02  -2.18665671E-16
  -3.43500003E-02   9.11353559E-16
  -3.42999995E-02   1.84622965E-15
  -3.42499986E-02   2.35040483E-15
  -3.42000015E-02   2.40439132E-15
  -3.41500007E-02   2.24380171E-15
  -3.40999998E-02   2.27933559E-15
  -3.40499990E-02   2.92119365E-15
  -3.40000018E-02   4.38101237E-15
  -3.39500010E-02   6.54464835E-15
  -3.39000002E-02   8.98633263E-15
  -3.38499993E-02   1.11346691E-14
  -3.37999985E-02   1.25284575E-14
  -3.37500013E-02   1.30491829E-14
  -3.37000005E-02   1.30147451E-14
  -3.36499996E-02   1.30725195E-14
  -3.35999988E-02   1.39196431E-14
  -3.35500017E-02   1.59653039E-14
  -3.35000008E-02   1.90911655E-14
  -3.34500000E-02   2.26366963E-14
  -3.33999991E-02   2.56422725E-14
  -3.33499983E-02   2.72624771E-14
  -3.33000012E-02   2.71705876E-14
  -3.32500003E-02   2.57597237E-14
  -3.31999995E-02   2.40226218E-14
  -3.31499986E-02   2.31332406E-14
  -3.31000015E-02   2.38984298E-14
  -3.30500007E-02   2.63275103E-14
  -3.29999998E-02   2.95368419E-14
  -3.29499990E-02   3.20687724E-14
  -3.29000019E-02   3.25148471E-14
  -3.28500010E-02   3.01773953E-14
  -3.28000002E-02   2.54590609E-14
  -3.27499993E-02   1.97691340E-14
  -3.26999985E-02   1.49449392E-14
  -3.26500013E-02   1.24167644E-14
  -3.26000005E-02   1.24881693E-14
  -3.25499997E-02   1.40835507E-14
  -3.24999988E-02   1.51257672E-14
  -3.24500017E-02   1.34230692E-14
  -3.24000008E-02   7.69243051E-15
  -3.23500000E-02  -1.75163068E-15
  -3.22999991E-02  -1.29974758E-14
  -3.22499983E-02  -2.32863130E-14
  -3.22000012E-02  -3.02233824E-14
  -3.21500003E-02  -3.29194713E-14
  -3.20999995E-02  -3.25193126E-14
  -3.20499986E-02  -3.18165565E-14
  -3.20000015E-02  -3.40601672E-14
  -3.19500007E-02  -4.14469789E-14
  -3.18999998E-02  -5.39836527E-14
  -3.18499990E-02  -6.92836020E-14
  -3.18000019E-02  -8.34707127E-14
  -3.17500010E-02  -9.28553092E-14
  -3.17000002E-02  -9.56580870E-14
  -3.16499993E-02  -9.29777021E-14
  -3.15999985E-02  -8.84885765E-14
  -3.15500014E-02  -8.69104390E-14
  -3.15000005E-02  -9.18693967E-14
  -3.14499997E-02  -1.04102768E-13
  -3.13999988E-02  -1.20871574E-13
  -3.13500017E-02  -1.36945536E-13
  -3.13000008E-02  -1.46818443E-13
  -3.12500000E-02  -1.47212388E-13
  -3.11999992E-02  -1.38726555E-13
  -3.11500002E-02  -1.25801645E-13
  -3.10999993E-02  -1.14897038E-13
  -3.10500003E-02  -1.11602154E-13
  -3.09999995E-02  -1.17950273E-13
  -3.09500005E-02  -1.31197177E-13
  -3.08999997E-02  -1.44733265E-13
  -3.08500007E-02  -1.50852068E-13
  -3.07999998E-02  -1.44217212E-13
  -3.07500008E-02  -1.24467778E-13
  -3.07000000E-02  -9.66969560E-14
  -3.06499992E-02  -6.94419091E-14
  -3.06000002E-02  -5.09517626E-14
  -3.05499993E-02  -4.53483889E-14
  -3.05000003E-02  -5.04482185E-14
  -3.04499995E-02  -5.83578257E-14
  -3.04000005E-02  -5.87439440E-14
  -3.03499997E-02  -4.34360460E-14
  -3.03000007E-02  -1.03205671E-14
  -3.02499998E-02   3.53128408E-14
  -3.02000009E-02   8.27492236E-14
  -3.01500000E-02   1.20439588E-13
  -3.00999992E-02   1.41246268E-13
  -3.00500002E-02   1.45963889E-13
  -2.99999993E-02   1.43390765E-13
  -2.99500003E-02   1.46712178E-13
  -2.98999995E-02   1.67641996E-13
  -2.98500005E-02   2.10884844E-13
  -2.97999997E-02   2.71482543E-13
  -2.97500007E-02   3.36430509E-13
  -2.96999998E-02   3.90066912E-13
  -2.96500009E-02   4.20977896E-13
  -2.96000000E-02   4.27338828E-13
  -2.95499992E-02   4.18158184E-13
  -2.95000002E-02   4.09628169E-13
  -2.94499993E-02   4.17984657E-13
  -2.94000003E-02   4.51954365E-13
  -2.93499995E-02   5.08221015E-13
  -2.93000005E-02   5.72145358E-13
  -2.92499997E-02   6.23689197E-13
  -2.92000007E-02   6.46112558E-13
  -2.91499998E-02   6.33618537E-13
  -2.91000009E-02   5.94402999E-13
  -2.90500000E-02   5.47482795E-13
  -2.89999992E-02   5.14430404E-13
  -2.89500002E-02   5.09525581E-13
  -2.88999993E-02   5.32733146E-13
  -2.88500004E-02   5.68847378E-13
  -2.87999995E-02   5.93504195E-13
  -2.87500005E-02   5.83665657E-13
  -2.86999997E-02   5.28032316E-13
  -2.86500007E-02   4.32647977E-13
  -2.85999998E-02   3.18921132E-13
  -2.85500009E-02   2.14601787E-13
  -2.85000000E-02   1.41478084E-13
  -2.84499992E-02   1.05227276E-13
  -2.84000002E-02   9.21301813E-14
  -2.83499993E-02   7.44632830E-14
  -2.83000004E-02   2.25267701E-14
  -2.82499995E-02  -8.18383244E-14
  -2.82000005E-02  -2.36303896E-13
  -2.81499997E-02  -4.17944867E-13
  -2.81000007E-02  -5.92420319E-13
  -2.80499998E-02  -7.28711362E-13
  -2.80000009E-02  -8.12996101E-13
  -2.79500000E-02  -8.55344495E-13
  -2.78999992E-02  -8.85882622E-13
  -2.78500002E-02  -9.41692796E-13
  -2.77999993E-02  -1.04995906E-12
  -2.77500004E-02  -1.21480896E-12
  -2.76999995E-02  -1.41395663E-12
  -2.76500005E-02  -1.60709185E-12
  -2.75999997E-02  -1.75273890E-12
  -2.75500007E-02  -1.82634832E-12
  -2.74999999E-02  -1.83151953E-12
  -2.74500009E-02  -1.79900669E-12
  -2.74000000E-02  -1.77344641E-12
  -2.73499992E-02  -1.79327874E-12
  -2.73000002E-02  -1.87263052E-12
  -2.72499993E-02  -1.99340978E-12
  -2.72000004E-02  -2.11160299E-12
  -2.71499995E-02  -2.17553319E-12
  -2.71000005E-02  -2.14836330E-12
  -2.70499997E-02  -2.02489783E-12
  -2.70000007E-02  -1.83490007E-12
  -2.69499999E-02  -1.63089312E-12
  -2.69000009E-02  -1.46530238E-12
  -2.68500000E-02  -1.36679101E-12
  -2.67999992E-02  -1.32638724E-12
  -2.67500002E-02  -1.30002628E-12
  -2.66999993E-02  -1.22701426E-12
  -2.66500004E-02  -1.05674735E-12
  -2.65999995E-02  -7.72014505E-13
  -2.65500005E-02  -3.98289339E-13
  -2.64999997E-02   5.70201150E-15
  -2.64500007E-02   3.72624268E-13
  -2.63999999E-02   6.55916619E-13
  -2.63500009E-02   8.50908374E-13
  -2.63000000E-02   9.97875936E-13
  -2.62499992E-02   1.16497664E-12
  -2.62000002E-02   1.41794692E-12
  -2.61499994E-02   1.78964840E-12
  -2.61000004E-02   2.26311591E-12
  -2.60499995E-02   2.77622088E-12
  -2.60000005E-02   3.24668157E-12
  -2.59499997E-02   3.60698559E-12
  -2.59000007E-02   3.83396136E-12
  -2.58499999E-02   3.95956315E-12
  -2.58000009E-02   4.05735211E-12
  -2.57500000E-02   4.20984731E-12
  -2.56999992E-02   4.47066125E-12
  -2.56500002E-02   4.83820362E-12
  -2.55999994E-02   5.25313733E-12
  -2.55500004E-02   5.62161559E-12
  -2.54999995E-02   5.85482747E-12
  -2.54500005E-02   5.90776473E-12
  -2.53999997E-02   5.79983847E-12
  -2.53500007E-02   5.60748323E-12
  -2.52999999E-02   5.43106662E-12
  -2.52500009E-02   5.35000169E-12
  -2.52000000E-02   5.38571661E-12
  -2.51499992E-02   5.48933381E-12
  -2.51000002E-02   5.56043015E-12
  -2.50499994E-02   5.48958492E-12
  -2.50000004E-02   5.20653139E-12
  -2.49499995E-02   4.71259490E-12
  -2.49000005E-02   4.08239111E-12
  -2.48499997E-02   3.43298935E-12
  -2.48000007E-02   2.87322575E-12
  -2.47499999E-02   2.45515630E-12
  -2.47000009E-02   2.14942018E-12
  -2.46500000E-02   1.85632759E-12
  -2.45999992E-02   1.44891152E-12
  -2.45500002E-02   8.29768546E-13
  -2.44999994E-02  -2.32528620E-14
  -2.44500004E-02  -1.04330617E-12
  -2.43999995E-02  -2.09993394E-12
  -2.43500005E-02  -3.05353746E-12
  -2.42999997E-02  -3.81555421E-12
  -2.42500007E-02  -4.38765907E-12
  -2.41999999E-02  -4.86180670E-12
  -2.41500009E-02  -5.37986192E-12
  -2.41000000E-02  -6.06954287E-12
  -2.40499992E-02  -6.98455356E-12
  -2.40000002E-02  -8.07576402E-12
  -2.39499994E-02  -9.20729291E-12
  -2.39000004E-02  -1.02117256E-11
  -2.38499995E-02  -1.09610489E-11
  -2.38000005E-02  -1.14221341E-11
  -2.37499997E-02  -1.16715526E-11
  -2.37000007E-02  -1.18618665E-11
  -2.36499999E-02  -1.21530000E-11
  -2.36000009E-02  -1.26382594E-11
  -2.35500000E-02  -1.32978697E-11
  -2.34999992E-02  -1.40016210E-11
  -2.34500002E-02  -1.45609011E-11
  -2.33999994E-02  -1.48084132E-11
  -2.33500004E-02  -1.46708687E-11
  -2.32999995E-02  -1.42020432E-11
  -2.32500006E-02  -1.35603586E-11
  -2.31999997E-02  -1.29394256E-11
  -2.31500007E-02  -1.24811663E-11
  -2.30999999E-02  -1.22097939E-11
  -2.30500009E-02  -1.20166628E-11
  -2.30000000E-02  -1.17041758E-11
  -2.29499992E-02  -1.10708300E-11
  -2.29000002E-02  -1.00006435E-11
  -2.28499994E-02  -8.51725721E-12
  -2.28000004E-02  -6.77765526E-12
  -2.27499995E-02  -5.00671813E-12
  -2.27000006E-02  -3.40017576E-12
  -2.26499997E-02  -2.03839419E-12
  -2.26000007E-02  -8.49676341E-13
  -2.25499999E-02   3.59258684E-13
  -2.25000009E-02   1.81743856E-12
  -2.24500000E-02   3.68523701E-12
  -2.23999992E-02   5.97739479E-12
  -2.23500002E-02   8.54844147E-12
  -2.22999994E-02   1.11485699E-11
  -2.22500004E-02   1.35268663E-11
  -2.21999995E-02   1.55371462E-11
  -2.21500006E-02   1.71994068E-11
  -2.20999997E-02   1.86884744E-11
  -2.20500007E-02   2.02531637E-11
  -2.19999999E-02   2.21003025E-11
  -2.19500009E-02   2.42943426E-11
  -2.19000001E-02   2.67176559E-11
  -2.18499992E-02   2.91105820E-11
  -2.18000002E-02   3.11753817E-11
  -2.17499994E-02   3.26993259E-11
  -2.17000004E-02   3.36428246E-11
  -2.16499995E-02   3.41525662E-11
  -2.16000006E-02   3.44922875E-11
  -2.15499997E-02   3.49200668E-11
  -2.15000007E-02   3.55655401E-11
  -2.14499999E-02   3.63615631E-11
  -2.14000009E-02   3.70618987E-11
  -2.13500001E-02   3.73389861E-11
  -2.12999992E-02   3.69201648E-11
  -2.12500002E-02   3.57027879E-11
  -2.11999994E-02   3.37967987E-11
  -2.11500004E-02   3.14744550E-11
  -2.10999995E-02   2.90477156E-11
  -2.10500006E-02   2.67261994E-11
  -2.09999997E-02   2.45184272E-11
  -2.09500007E-02   2.22210306E-11
  -2.08999999E-02   1.95024708E-11
  -2.08500009E-02   1.60461228E-11
  -2.08000001E-02   1.16905001E-11
  -2.07499992E-02   6.50452392E-12
  -2.07000002E-02   7.63325601E-13
  -2.06499994E-02  -5.16654124E-12
  -2.06000004E-02  -1.09832690E-11
  -2.05499995E-02  -1.65789448E-11
  -2.05000006E-02  -2.20840533E-11
  -2.04499997E-02  -2.78059954E-11
  -2.04000007E-02  -3.40869936E-11
  -2.03499999E-02  -4.11427142E-11
  -2.03000009E-02  -4.89526475E-11
  -2.02500001E-02  -5.72515924E-11
  -2.01999992E-02  -6.56277394E-11
  -2.01500002E-02  -7.36857519E-11
  -2.00999994E-02  -8.12038978E-11
  -2.00500004E-02  -8.82157056E-11
  -1.99999996E-02  -9.49787193E-11
  -1.99500006E-02  -1.01842396E-10
  -1.98999997E-02  -1.09071724E-10
  -1.98500007E-02  -1.16703799E-10
  -1.97999999E-02  -1.24501270E-10
  -1.97500009E-02  -1.32024489E-10
  -1.97000001E-02  -1.38792908E-10
  -1.96499992E-02  -1.44465551E-10
  -1.96000002E-02  -1.48961496E-10
  -1.95499994E-02  -1.52466484E-10
  -1.95000004E-02  -1.55320881E-10
  -1.94499996E-02  -1.57836869E-10
  -1.94000006E-02  -1.60124192E-10
  -1.93499997E-02  -1.62001690E-10
  -1.93000007E-02  -1.63034669E-10
  -1.92499999E-02  -1.62683617E-10
  -1.92000009E-02  -1.60500460E-10
  -1.91500001E-02  -1.56286664E-10
  -1.90999992E-02  -1.50143065E-10
  -1.90500002E-02  -1.42388171E-10
  -1.89999994E-02  -1.33379197E-10
  -1.89500004E-02  -1.23312999E-10
  -1.88999996E-02  -1.12094736E-10
  -1.88500006E-02  -9.93325283E-11
  -1.87999997E-02  -8.44626591E-11
  -1.87500007E-02  -6.69517011E-11
  -1.86999999E-02  -4.64881501E-11
  -1.86500009E-02  -2.30790786E-11
  -1.86000001E-02   2.99162995E-12
  -1.85499992E-02   3.13268231E-11
  -1.85000002E-02   6.16309850E-11
  -1.84499994E-02   9.38827002E-11
  -1.84000004E-02   1.28388258E-10
  -1.83499996E-02   1.65691405E-10
  -1.83000006E-02   2.06376874E-10
  -1.82499997E-02   2.50852811E-10
  -1.82000007E-02   2.99206881E-10
  -1.81499999E-02   3.51200624E-10
  -1.81000009E-02   4.06405409E-10
  -1.80500001E-02   4.64422778E-10
  -1.79999992E-02   5.25092803E-10
  -1.79500002E-02   5.88599502E-10
  -1.78999994E-02   6.55425214E-10
  -1.78500004E-02   7.26172789E-10
  -1.77999996E-02   8.01331723E-10
  -1.77500006E-02   8.81089535E-10
  -1.76999997E-02   9.65272529E-10
  -1.76500008E-02   1.05344256E-09
  -1.75999999E-02   1.14510923E-09
  -1.75500009E-02   1.23996668E-09
  -1.75000001E-02   1.33805000E-09
  -1.74499992E-02   1.43974355E-09
  -1.74000002E-02   1.54563518E-09
  -1.73499994E-02   1.65627811E-09
  -1.73000004E-02   1.77196524E-09
  -1.72499996E-02   1.89261273E-09
  -1.72000006E-02   2.01780681E-09
  -1.71499997E-02   2.14699547E-09
  -1.71000008E-02   2.27973973E-09
  -1.70499999E-02   2.41591969E-09
  -1.70000009E-02   2.55580090E-09
  -1.69500001E-02   2.69993383E-09
  -1.68999992E-02   2.84892554E-09
  -1.68500002E-02   3.00318681E-09
  -1.67999994E-02   3.16275961E-09
  -1.67500004E-02   3.32730599E-09
  -1.66999996E-02   3.49626261E-09
  -1.66500006E-02   3.66909525E-09
  -1.65999997E-02   3.84554477E-09
  -1.65500008E-02   4.02575306E-09
  -1.64999999E-02   4.21021840E-09
  -1.64500009E-02   4.39959491E-09
  -1.64000001E-02   4.59442040E-09
  -1.63499992E-02   4.79489826E-09
  -1.63000003E-02   5.00081976E-09
  -1.62499994E-02   5.21167154E-09
  -1.62000004E-02   5.42687584E-09
  -1.61499996E-02   5.64606495E-09
  -1.61000006E-02   5.86926685E-09
  -1.60499997E-02   6.09692563E-09
  -1.60000008E-02   6.32973673E-09
  -1.59499999E-02   6.56837829E-09
  -1.59000009E-02   6.81324952E-09
  -1.58500001E-02   7.06432912E-09
  -1.57999992E-02   7.32122318E-09
  -1.57500003E-02   7.58337304E-09
  -1.56999994E-02   7.85034704E-09
  -1.56500004E-02   8.12207723E-09
  -1.55999996E-02   8.39894643E-09
  -1.55499997E-02   8.68168115E-09
  -1.54999997E-02   8.97109675E-09
  -1.54499998E-02   9.26780697E-09
  -1.53999999E-02   9.57202406E-09
  -1.53500000E-02   9.88353044E-09
  -1.53000001E-02   1.02018500E-08
  -1.52500002E-02   1.05265343E-08
  -1.52000003E-02   1.08574403E-08
  -1.51500003E-02   1.11948868E-08
  -1.51000004E-02   1.15396155E-08
  -1.50499996E-02   1.18925634E-08
  -1.49999997E-02   1.22545671E-08
  -1.49499997E-02   1.26261002E-08
  -1.48999998E-02   1.30071784E-08
  -1.48499999E-02   1.33974707E-08
  -1.48000000E-02   1.37965612E-08
  -1.47500001E-02   1.42042618E-08
  -1.47000002E-02   1.46208254E-08
  -1.46500003E-02   1.50469788E-08
  -1.46000003E-02   1.54837583E-08
  -1.45500004E-02   1.59321942E-08
  -1.44999996E-02   1.63930309E-08
  -1.44499997E-02   1.68665455E-08
  -1.43999998E-02   1.73525976E-08
  -1.43499998E-02   1.78508497E-08
  -1.42999999E-02   1.83610904E-08
  -1.42500000E-02   1.88835081E-08
  -1.42000001E-02   1.94187919E-08
  -1.41500002E-02   1.99680272E-08
  -1.41000003E-02   2.05324202E-08
  -1.40500003E-02   2.11129745E-08
  -1.40000004E-02   2.17102514E-08
  -1.39499996E-02   2.23243362E-08
  -1.38999997E-02   2.29550210E-08
  -1.38499998E-02   2.36021016E-08
  -1.37999998E-02   2.42657059E-08
  -1.37499999E-02   2.49464591E-08
  -1.37000000E-02   2.56454555E-08
  -1.36500001E-02   2.63640292E-08
  -1.36000002E-02   2.71034128E-08
  -1.35500003E-02   2.78644521E-08
  -1.35000004E-02   2.86474879E-08
  -1.34500004E-02   2.94524707E-08
  -1.33999996E-02   3.02792387E-08
  -1.33499997E-02   3.11278576E-08
  -1.32999998E-02   3.19988800E-08
  -1.32499998E-02   3.28933680E-08
  -1.31999999E-02   3.38127322E-08
  -1.31500000E-02   3.47584042E-08
  -1.31000001E-02   3.57314995E-08
  -1.30500002E-02   3.67326507E-08
  -1.30000003E-02   3.77620140E-08
  -1.29500004E-02   3.88195218E-08
  -1.29000004E-02   3.99052205E-08
  -1.28499996E-02   4.10195824E-08
  -1.27999997E-02   4.21636130E-08
  -1.27499998E-02   4.33387619E-08
  -1.26999998E-02   4.45466206E-08
  -1.26499999E-02   4.57885747E-08
  -1.26000000E-02   4.70655444E-08
  -1.25500001E-02   4.83779488E-08
  -1.25000002E-02   4.97258696E-08
  -1.24500003E-02   5.11093816E-08
  -1.24000004E-02   5.25289074E-08
  -1.23500004E-02   5.39854064E-08
  -1.22999996E-02   5.54803385E-08
  -1.22499997E-02   5.70154413E-08
  -1.21999998E-02   5.85923523E-08
  -1.21499998E-02   6.02123151E-08
  -1.20999999E-02   6.18760581E-08
  -1.20500000E-02   6.35838759E-08
  -1.20000001E-02   6.53359464E-08
  -1.19500002E-02   6.71326816E-08
  -1.19000003E-02   6.89750195E-08
  -1.18500004E-02   7.08644450E-08
  -1.18000004E-02   7.28028269E-08
  -1.17499996E-02   7.47920836E-08
  -1.16999997E-02   7.68338211E-08
  -1.16499998E-02   7.89291335E-08
  -1.15999999E-02   8.10786460E-08
  -1.15499999E-02   8.32827212E-08
  -1.15000000E-02   8.55418492E-08
  -1.14500001E-02   8.78569821E-08
  -1.14000002E-02   9.02296264E-08
  -1.13500003E-02   9.26617716E-08
  -1.13000004E-02   9.51555776E-08
  -1.12500004E-02   9.77129986E-08
  -1.11999996E-02   1.00335541E-07
  -1.11499997E-02   1.03024178E-07
  -1.10999998E-02   1.05779591E-07
  -1.10499999E-02   1.08602443E-07
  -1.09999999E-02   1.11493769E-07
  -1.09500000E-02   1.14455212E-07
  -1.09000001E-02   1.17488923E-07
  -1.08500002E-02   1.20597377E-07
  -1.08000003E-02   1.23782954E-07
  -1.07500004E-02   1.27047628E-07
  -1.07000005E-02   1.30392849E-07
  -1.06499996E-02   1.33819626E-07
  -1.05999997E-02   1.37328897E-07
  -1.05499998E-02   1.40921841E-07
  -1.04999999E-02   1.44600151E-07
  -1.04499999E-02   1.48366155E-07
  -1.04000000E-02   1.52222512E-07
  -1.03500001E-02   1.56171993E-07
  -1.03000002E-02   1.60217041E-07
  -1.02500003E-02   1.64359577E-07
  -1.02000004E-02   1.68601076E-07
  -1.01500005E-02   1.72942848E-07
  -1.00999996E-02   1.77386326E-07
  -1.00499997E-02   1.81933459E-07
  -9.99999978E-03   1.86586760E-07
  -9.94999986E-03   1.91349244E-07
  -9.89999995E-03   1.96224107E-07
  -9.85000003E-03   2.01214320E-07
  -9.80000012E-03   2.06322397E-07
  -9.75000020E-03   2.11550358E-07
  -9.70000029E-03   2.16899906E-07
  -9.65000037E-03   2.22372819E-07
  -9.60000046E-03   2.27971285E-07
  -9.54999961E-03   2.33698060E-07
  -9.49999969E-03   2.39556414E-07
  -9.44999978E-03   2.45549870E-07
  -9.39999986E-03   2.51681882E-07
  -9.34999995E-03   2.57955435E-07
  -9.30000003E-03   2.64373028E-07
  -9.25000012E-03   2.70936880E-07
  -9.20000020E-03   2.77649065E-07
  -9.15000029E-03   2.84512083E-07
  -9.10000037E-03   2.91528949E-07
  -9.05000046E-03   2.98703270E-07
  -8.99999961E-03   3.06038999E-07
  -8.94999970E-03   3.13540113E-07
  -8.89999978E-03   3.21210280E-07
  -8.84999987E-03   3.29052739E-07
  -8.79999995E-03   3.37070247E-07
  -8.75000004E-03   3.45265448E-07
  -8.70000012E-03   3.53641269E-07
  -8.65000021E-03   3.62201035E-07
  -8.60000029E-03   3.70948783E-07
  -8.55000038E-03   3.79888803E-07
  -8.50000046E-03   3.89025615E-07
  -8.44999962E-03   3.98363426E-07
  -8.39999970E-03   4.07905958E-07
  -8.34999979E-03   4.17656565E-07
  -8.29999987E-03   4.27618346E-07
  -8.24999996E-03   4.37794455E-07
  -8.20000004E-03   4.48188700E-07
  -8.15000013E-03   4.58805260E-07
  -8.10000021E-03   4.69648938E-07
  -8.05000030E-03   4.80724623E-07
  -8.00000038E-03   4.92037088E-07
  -7.95000046E-03   5.03590741E-07
  -7.89999962E-03   5.15389445E-07
  -7.84999970E-03   5.27437123E-07
  -7.79999979E-03   5.39737528E-07
  -7.74999987E-03   5.52294807E-07
  -7.69999996E-03   5.65113794E-07
  -7.65000004E-03   5.78199945E-07
  -7.60000013E-03   5.91558717E-07
  -7.55000021E-03   6.05195510E-07
  -7.49999983E-03   6.19115497E-07
  -7.44999992E-03   6.33323225E-07
  -7.40000000E-03   6.47823072E-07
  -7.35000009E-03   6.62619414E-07
  -7.30000017E-03   6.77717026E-07
  -7.24999979E-03   6.93121137E-07
  -7.19999988E-03   7.08837433E-07
  -7.14999996E-03   7.24871938E-07
  -7.10000005E-03   7.41230565E-07
  -7.05000013E-03   7.57918940E-07
  -7.00000022E-03   7.74942293E-07
  -6.94999984E-03   7.92305684E-07
  -6.89999992E-03   8.10013944E-07
  -6.85000001E-03   8.28072587E-07
  -6.80000009E-03   8.46487239E-07
  -6.75000018E-03   8.65264326E-07
  -6.69999979E-03   8.84410497E-07
  -6.64999988E-03   9.03932346E-07
  -6.59999996E-03   9.23836183E-07
  -6.55000005E-03   9.44127976E-07
  -6.50000013E-03   9.64813353E-07
  -6.45000022E-03   9.85898168E-07
  -6.39999984E-03   1.00738839E-06
  -6.34999992E-03   1.02929050E-06
  -6.30000001E-03   1.05161143E-06
  -6.25000009E-03   1.07435835E-06
  -6.20000018E-03   1.09753876E-06
  -6.14999980E-03   1.12115913E-06
  -6.09999988E-03   1.14522629E-06
  -6.04999997E-03   1.16974627E-06
  -6.00000005E-03   1.19472543E-06
  -5.95000014E-03   1.22017013E-06
  -5.90000022E-03   1.24608766E-06
  -5.84999984E-03   1.27248529E-06
  -5.79999993E-03   1.29937087E-06
  -5.75000001E-03   1.32675223E-06
  -5.70000010E-03   1.35463688E-06
  -5.65000018E-03   1.38303176E-06
  -5.59999980E-03   1.41194380E-06
  -5.54999989E-03   1.44137960E-06
  -5.49999997E-03   1.47134642E-06
  -5.45000006E-03   1.50185201E-06
  -5.40000014E-03   1.53290455E-06
  -5.35000023E-03   1.56451244E-06
  -5.29999984E-03   1.59668411E-06
  -5.24999993E-03   1.62942774E-06
  -5.20000001E-03   1.66275083E-06
  -5.15000010E-03   1.69666066E-06
  -5.10000018E-03   1.73116428E-06
  -5.04999980E-03   1.76626941E-06
  -4.99999989E-03   1.80198424E-06
  -4.94999997E-03   1.83831719E-06
  -4.90000006E-03   1.87527701E-06
  -4.85000014E-03   1.91287268E-06
  -4.80000023E-03   1.95111284E-06
  -4.74999985E-03   1.99000533E-06
  -4.69999993E-03   2.02955744E-06
  -4.65000002E-03   2.06977688E-06
  -4.60000010E-03   2.11067095E-06
  -4.55000019E-03   2.15224850E-06
  -4.49999981E-03   2.19451840E-06
  -4.44999989E-03   2.23749043E-06
  -4.39999998E-03   2.28117347E-06
  -4.35000006E-03   2.32557659E-06
  -4.30000015E-03   2.37070799E-06
  -4.25000023E-03   2.41657540E-06
  -4.19999985E-03   2.46318655E-06
  -4.14999994E-03   2.51054894E-06
  -4.10000002E-03   2.55867167E-06
  -4.05000011E-03   2.60756383E-06
  -4.00000019E-03   2.65723497E-06
  -3.94999981E-03   2.70769510E-06
  -3.89999989E-03   2.75895286E-06
  -3.84999998E-03   2.81101666E-06
  -3.80000006E-03   2.86389422E-06
  -3.74999992E-03   2.91759329E-06
  -3.70000000E-03   2.97212091E-06
  -3.65000009E-03   3.02748595E-06
  -3.59999994E-03   3.08369749E-06
  -3.55000002E-03   3.14076533E-06
  -3.50000011E-03   3.19869901E-06
  -3.44999996E-03   3.25750784E-06
  -3.40000005E-03   3.31719980E-06
  -3.34999990E-03   3.37778238E-06
  -3.29999998E-03   3.43926263E-06
  -3.25000007E-03   3.50164783E-06
  -3.19999992E-03   3.56494616E-06
  -3.15000000E-03   3.62916671E-06
  -3.10000009E-03   3.69431905E-06
  -3.04999994E-03   3.76041316E-06
  -3.00000003E-03   3.82745793E-06
  -2.95000011E-03   3.89546176E-06
  -2.89999996E-03   3.96443102E-06
  -2.85000005E-03   4.03437252E-06
  -2.79999990E-03   4.10529310E-06
  -2.74999999E-03   4.17719957E-06
  -2.70000007E-03   4.25010012E-06
  -2.64999992E-03   4.32400429E-06
  -2.60000001E-03   4.39892119E-06
  -2.55000009E-03   4.47485991E-06
  -2.49999994E-03   4.55182771E-06
  -2.45000003E-03   4.62983053E-06
  -2.40000011E-03   4.70887426E-06
  -2.34999997E-03   4.78896482E-06
  -2.30000005E-03   4.87010720E-06
  -2.24999990E-03   4.95230915E-06
  -2.19999999E-03   5.03557885E-06
  -2.15000007E-03   5.11992403E-06
  -2.09999993E-03   5.20535377E-06
  -2.05000001E-03   5.29187400E-06
  -2.00000009E-03   5.37949109E-06
  -1.94999995E-03   5.46821002E-06
  -1.90000003E-03   5.55803490E-06
  -1.85000000E-03   5.64896936E-06
  -1.79999997E-03   5.74101932E-06
  -1.75000005E-03   5.83419114E-06
  -1.70000002E-03   5.92849165E-06
  -1.64999999E-03   6.02392902E-06
  -1.59999996E-03   6.12050826E-06
  -1.55000004E-03   6.21823528E-06
  -1.50000001E-03   6.31711237E-06
  -1.44999998E-03   6.41714132E-06
  -1.39999995E-03   6.51832534E-06
  -1.35000004E-03   6.62066668E-06
  -1.30000000E-03   6.72416991E-06
  -1.24999997E-03   6.82884001E-06
  -1.20000006E-03   6.93468337E-06
  -1.15000003E-03   7.04170361E-06
  -1.09999999E-03   7.14990438E-06
  -1.04999996E-03   7.25928658E-06
  -1.00000005E-03   7.36985066E-06
  -9.50000016E-04   7.48159619E-06
  -8.99999985E-04   7.59452359E-06
  -8.50000011E-04   7.70863426E-06
  -7.99999980E-04   7.82393272E-06
  -7.50000007E-04   7.94041989E-06
  -6.99999975E-04   8.05810032E-06
  -6.50000002E-04   8.17697310E-06
  -6.00000028E-04   8.29704004E-06
  -5.49999997E-04   8.41829751E-06
  -5.00000024E-04   8.54074278E-06
  -4.49999992E-04   8.66437313E-06
  -3.99999990E-04   8.78918581E-06
  -3.49999988E-04   8.91518175E-06
  -3.00000014E-04   9.04236003E-06
  -2.50000012E-04   9.17072066E-06
  -1.99999995E-04   9.30026090E-06
  -1.50000007E-04   9.43097893E-06
  -9.99999975E-05   9.56286840E-06
  -4.99999987E-05   9.69592475E-06
   0.00000000       9.83013888E-06
   4.99999987E-05   9.96550716E-06
   9.99999975E-05   1.01020232E-05
   1.50000007E-04   1.02396853E-05
   1.99999995E-04   1.03784878E-05
   2.50000012E-04   1.05184281E-05
   3.00000014E-04   1.06594980E-05
   3.49999988E-04   1.08016893E-05
   3.99999990E-04   1.09449929E-05
   4.49999992E-04   1.10893980E-05
   5.00000024E-04   1.12348926E-05
   5.49999997E-04   1.13814685E-05
   6.00000028E-04   1.15291177E-05
   6.50000002E-04   1.16778310E-05
   6.99999975E-04   1.18276012E-05
   7.50000007E-04   1.19784172E-05
   7.99999980E-04   1.21302674E-05
   8.50000011E-04   1.22831352E-05
   8.99999985E-04   1.24370063E-05
   9.50000016E-04   1.25918641E-05
   1.00000005E-03   1.27476942E-05
   1.04999996E-03   1.29044829E-05
   1.09999999E-03   1.30622175E-05
   1.15000003E-03   1.32208843E-05
   1.20000006E-03   1.33804688E-05
   1.24999997E-03   1.35409537E-05
   1.30000000E-03   1.37023198E-05
   1.35000004E-03   1.38645428E-05
   1.39999995E-03   1.40276024E-05
   1.44999998E-03   1.41914788E-05
   1.50000001E-03   1.43561501E-05
   1.55000004E-03   1.45216009E-05
   1.59999996E-03   1.46878110E-05
   1.64999999E-03   1.48547615E-05
   1.70000002E-03   1.50224296E-05
   1.75000005E-03   1.51907889E-05
   1.79999997E-03   1.53598121E-05
   1.85000000E-03   1.55294692E-05
   1.90000003E-03   1.56997339E-05
   1.94999995E-03   1.58705807E-05
   2.00000009E-03   1.60419804E-05
   2.05000001E-03   1.62139149E-05
   2.09999993E-03   1.63863551E-05
   2.15000007E-03   1.65592719E-05
   2.19999999E-03   1.67326343E-05
   2.24999990E-03   1.69064042E-05
   2.30000005E-03   1.70805488E-05
   2.34999997E-03   1.72550299E-05
   2.40000011E-03   1.74298129E-05
   2.45000003E-03   1.76048707E-05
   2.49999994E-03   1.77801703E-05
   2.55000009E-03   1.79556773E-05
   2.60000001E-03   1.81313590E-05
   2.64999992E-03   1.83071752E-05
   2.70000007E-03   1.84830824E-05
   2.74999999E-03   1.86590369E-05
   2.79999990E-03   1.88349950E-05